<event>
 5    1  0.3487578E-002  0.1250036E+03  0.7818608E-02  0.1235064E+00
          4   -1    0    0  501    0  0.00000000000E+00  0.00000000000E+00  0.29897287455E+02  0.29924249317E+02  0.12700000000E+01 0.  1.
         -4   -1    0    0    0  501 -0.00000000000E+00 -0.00000000000E+00 -0.13057429140E+03  0.13058046743E+03  0.12700000000E+01 0.  1.
         25    2    1    2    0    0  0.00000000000E+00  0.00000000000E+00 -0.10067700394E+03  0.16050471674E+03  0.12500361985E+03 0.  0.
    9000005    1    3    3    0    0 -0.59774073930E+02 -0.10187785344E+02 -0.30918853863E+02  0.68071333237E+02  0.10000000000E+01 0.  0.
    9000005    1    3    3    0    0  0.59774073930E+02  0.10187785344E+02 -0.69758150077E+02  0.92433383507E+02  0.10000000000E+01 0.  0.
<mgrwt>
<rscale>  0 0.12500362E+03</rscale>
<asrwt>0</asrwt>
<pdfrwt beam="1">  1        4 0.46021318E-02 0.12500362E+03</pdfrwt>
<pdfrwt beam="2">  1       -4 0.20090901E-01 0.12500362E+03</pdfrwt>
<totfact> 0.97237656E+03</totfact>
</mgrwt>
</event>
<event>
 5    1  0.3487578E-002  0.1249996E+03  0.7818608E-02  0.1235070E+00
         -4   -1    0    0    0  501 -0.00000000000E+00  0.00000000000E+00  0.96600013626E+01  0.97431271327E+01  0.12700000000E+01 0. -1.
          4   -1    0    0  501    0  0.00000000000E+00 -0.00000000000E+00 -0.40255427643E+03  0.40255627976E+03  0.12700000000E+01 0. -1.
         25    2    1    2    0    0  0.00000000000E+00  0.00000000000E+00 -0.39289427507E+03  0.41229940689E+03  0.12499955816E+03 0.  0.
    9000005    1    3    3    0    0 -0.41684876264E+02 -0.29099238569E+02 -0.31632178175E+03  0.32038237187E+03  0.10000000000E+01 0.  0.
    9000005    1    3    3    0    0  0.41684876264E+02  0.29099238569E+02 -0.76572493319E+02  0.91917035023E+02  0.10000000000E+01 0.  0.
<mgrwt>
<rscale>  0 0.12499956E+03</rscale>
<asrwt>0</asrwt>
<pdfrwt beam="2">  1        4 0.61937963E-01 0.12499956E+03</pdfrwt>
<pdfrwt beam="1">  1       -4 0.14927028E-02 0.12499956E+03</pdfrwt>
<totfact> 0.63374511E+03</totfact>
</mgrwt>
</event>
<event>
 5    1  0.3487578E-002  0.1250521E+03  0.7818608E-02  0.1234988E+00
         -4   -1    0    0    0  501 -0.00000000000E+00  0.00000000000E+00  0.31064005956E+02  0.31089956031E+02  0.12700000000E+01 0.  1.
          4   -1    0    0  501    0  0.00000000000E+00 -0.00000000000E+00 -0.12577158120E+03  0.12577799305E+03  0.12700000000E+01 0.  1.
         25    2    1    2    0    0  0.00000000000E+00  0.00000000000E+00 -0.94707575242E+02  0.15686794909E+03  0.12505210371E+03 0.  0.
    9000005    1    3    3    0    0  0.43478488816E+02 -0.16550654620E+02  0.50354231308E+01  0.46804472481E+02  0.10000000000E+01 0.  0.
    9000005    1    3    3    0    0 -0.43478488816E+02  0.16550654620E+02 -0.99742998373E+02  0.11006347661E+03  0.10000000000E+01 0.  0.
<mgrwt>
<rscale>  0 0.12505210E+03</rscale>
<asrwt>0</asrwt>
<pdfrwt beam="2">  1        4 0.19351963E-01 0.12505210E+03</pdfrwt>
<pdfrwt beam="1">  1       -4 0.47815673E-02 0.12505210E+03</pdfrwt>
<totfact> 0.97835374E+03</totfact>
</mgrwt>
</event>
<event>
 5    1  0.3487578E-002  0.1249953E+03  0.7818608E-02  0.1235077E+00
         -4   -1    0    0    0  501 -0.00000000000E+00  0.00000000000E+00  0.42818437172E+02  0.42837267208E+02  0.12700000000E+01 0.  1.
          4   -1    0    0  501    0  0.00000000000E+00 -0.00000000000E+00 -0.91178067123E+02  0.91186911474E+02  0.12700000000E+01 0.  1.
         25    2    1    2    0    0  0.00000000000E+00  0.00000000000E+00 -0.48359629951E+02  0.13402417868E+03  0.12499530656E+03 0.  0.
    9000005    1    3    3    0    0 -0.55078139842E+02  0.20111278821E+02 -0.10113373404E+01  0.58652261913E+02  0.10000000000E+01 0.  0.
    9000005    1    3    3    0    0  0.55078139842E+02 -0.20111278821E+02 -0.47348292611E+02  0.75371916769E+02  0.10000000000E+01 0.  0.
<mgrwt>
<rscale>  0 0.12499531E+03</rscale>
<asrwt>0</asrwt>
<pdfrwt beam="2">  1        4 0.14029524E-01 0.12499531E+03</pdfrwt>
<pdfrwt beam="1">  1       -4 0.65895807E-02 0.12499531E+03</pdfrwt>
<totfact> 0.10259766E+04</totfact>
</mgrwt>
</event>
<event>
 5    1  0.3487578E-002  0.1250026E+03  0.7818608E-02  0.1235065E+00
          4   -1    0    0  501    0  0.00000000000E+00  0.00000000000E+00  0.48171696823E+02  0.48188435073E+02  0.12700000000E+01 0.  1.
         -4   -1    0    0    0  501 -0.00000000000E+00 -0.00000000000E+00 -0.81057777315E+02  0.81067725781E+02  0.12700000000E+01 0.  1.
         25    2    1    2    0    0  0.00000000000E+00  0.00000000000E+00 -0.32886080492E+02  0.12925616085E+03  0.12500264329E+03 0.  0.
    9000005    1    3    3    0    0  0.15157379972E+02 -0.60625315265E+02 -0.16949807118E+02  0.64757014909E+02  0.10000000000E+01 0.  0.
    9000005    1    3    3    0    0 -0.15157379972E+02  0.60625315265E+02 -0.15936273375E+02  0.64499145945E+02  0.10000000000E+01 0.  0.
<mgrwt>
<rscale>  0 0.12500264E+03</rscale>
<asrwt>0</asrwt>
<pdfrwt beam="1">  1        4 0.74130831E-02 0.12500264E+03</pdfrwt>
<pdfrwt beam="2">  1       -4 0.12472480E-01 0.12500264E+03</pdfrwt>
<totfact> 0.10359827E+04</totfact>
</mgrwt>
</event>
<event>
 5    1  0.3487578E-002  0.1250005E+03  0.7818608E-02  0.1235068E+00
          4   -1    0    0  501    0  0.00000000000E+00  0.00000000000E+00  0.11058387672E+03  0.11059116914E+03  0.12700000000E+01 0. -1.
         -4   -1    0    0    0  501 -0.00000000000E+00 -0.00000000000E+00 -0.35304274468E+02  0.35327109926E+02  0.12700000000E+01 0. -1.
         25    2    1    2    0    0  0.00000000000E+00  0.00000000000E+00  0.75279602253E+02  0.14591827906E+03  0.12500050259E+03 0.  0.
    9000005    1    3    3    0    0 -0.19548094408E+02 -0.58817369136E+02  0.28325139401E+02  0.68153682433E+02  0.10000000000E+01 0.  0.
    9000005    1    3    3    0    0  0.19548094408E+02  0.58817369136E+02  0.46954462852E+02  0.77764596629E+02  0.10000000000E+01 0.  0.
<mgrwt>
<rscale>  0 0.12500050E+03</rscale>
<asrwt>0</asrwt>
<pdfrwt beam="1">  1        4 0.17015221E-01 0.12500050E+03</pdfrwt>
<pdfrwt beam="2">  1       -4 0.54337445E-02 0.12500050E+03</pdfrwt>
<totfact> 0.10012251E+04</totfact>
</mgrwt>
</event>
<event>
 5    1  0.3487578E-002  0.1250019E+03  0.7818608E-02  0.1235066E+00
          4   -1    0    0  501    0  0.00000000000E+00  0.00000000000E+00  0.17034207331E+02  0.17081484696E+02  0.12700000000E+01 0. -1.
         -4   -1    0    0    0  501 -0.00000000000E+00 -0.00000000000E+00 -0.22895827721E+03  0.22896179944E+03  0.12700000000E+01 0. -1.
         25    2    1    2    0    0  0.00000000000E+00  0.00000000000E+00 -0.21192406988E+03  0.24604328414E+03  0.12500194508E+03 0.  0.
    9000005    1    3    3    0    0 -0.69244953864E+01  0.41106656395E+02 -0.19760326300E+03  0.20195483502E+03  0.10000000000E+01 0.  0.
    9000005    1    3    3    0    0  0.69244953864E+01 -0.41106656395E+02 -0.14320806875E+02  0.44088449121E+02  0.10000000000E+01 0.  0.
<mgrwt>
<rscale>  0 0.12500195E+03</rscale>
<asrwt>0</asrwt>
<pdfrwt beam="1">  1        4 0.26245551E-02 0.12500195E+03</pdfrwt>
<pdfrwt beam="2">  1       -4 0.35228256E-01 0.12500195E+03</pdfrwt>
<totfact> 0.82901888E+03</totfact>
</mgrwt>
</event>
<event>
 5    1  0.3487578E-002  0.1249976E+03  0.7818608E-02  0.1235073E+00
         -4   -1    0    0    0  501 -0.00000000000E+00  0.00000000000E+00  0.53020349436E+02  0.53035557453E+02  0.12700000000E+01 0. -1.
          4   -1    0    0  501    0  0.00000000000E+00 -0.00000000000E+00 -0.73640413148E+02  0.73651363522E+02  0.12700000000E+01 0. -1.
         25    2    1    2    0    0  0.00000000000E+00  0.00000000000E+00 -0.20620063711E+02  0.12668692097E+03  0.12499755565E+03 0.  0.
    9000005    1    3    3    0    0  0.35447280789E+01 -0.30073185386E+02  0.45092602472E+02  0.54325908866E+02  0.10000000000E+01 0.  0.
    9000005    1    3    3    0    0 -0.35447280789E+01  0.30073185386E+02 -0.65712666184E+02  0.72361012109E+02  0.10000000000E+01 0.  0.
<mgrwt>
<rscale>  0 0.12499756E+03</rscale>
<asrwt>0</asrwt>
<pdfrwt beam="2">  1        4 0.11331307E-01 0.12499756E+03</pdfrwt>
<pdfrwt beam="1">  1       -4 0.81589890E-02 0.12499756E+03</pdfrwt>
<totfact> 0.10416530E+04</totfact>
</mgrwt>
</event>
<event>
 5    1  0.3487578E-002  0.1249990E+03  0.7818608E-02  0.1235071E+00
          4   -1    0    0  501    0  0.00000000000E+00  0.00000000000E+00  0.76472053920E+02  0.76482598876E+02  0.12700000000E+01 0.  1.
         -4   -1    0    0    0  501 -0.00000000000E+00 -0.00000000000E+00 -0.51057999305E+02  0.51073791645E+02  0.12700000000E+01 0.  1.
         25    2    1    2    0    0  0.00000000000E+00  0.00000000000E+00  0.25414054615E+02  0.12755639052E+03  0.12499903436E+03 0.  0.
    9000005    1    3    3    0    0 -0.13591244611E+02 -0.46691362209E+02  0.52757728236E+02  0.71757808799E+02  0.10000000000E+01 0.  0.
    9000005    1    3    3    0    0  0.13591244611E+02  0.46691362209E+02 -0.27343673621E+02  0.55798581722E+02  0.10000000000E+01 0.  0.
<mgrwt>
<rscale>  0 0.12499903E+03</rscale>
<asrwt>0</asrwt>
<pdfrwt beam="1">  1        4 0.11766957E-01 0.12499903E+03</pdfrwt>
<pdfrwt beam="2">  1       -4 0.78571028E-02 0.12499903E+03</pdfrwt>
<totfact> 0.10397306E+04</totfact>
</mgrwt>
</event>
<event>
 5    1  0.3487578E-002  0.1250014E+03  0.7818608E-02  0.1235067E+00
          4   -1    0    0  501    0  0.00000000000E+00  0.00000000000E+00  0.20243103746E+02  0.20282902881E+02  0.12700000000E+01 0. -1.
         -4   -1    0    0    0  501 -0.00000000000E+00 -0.00000000000E+00 -0.19273981572E+03  0.19274399982E+03  0.12700000000E+01 0. -1.
         25    2    1    2    0    0  0.00000000000E+00  0.00000000000E+00 -0.17249671198E+03  0.21302690270E+03  0.12500138251E+03 0.  0.
    9000005    1    3    3    0    0 -0.46667920468E+02 -0.28213088531E+02 -0.34236482529E+02  0.64397281784E+02  0.10000000000E+01 0.  0.
    9000005    1    3    3    0    0  0.46667920468E+02  0.28213088531E+02 -0.13826022945E+03  0.14862962091E+03  0.10000000000E+01 0.  0.
<mgrwt>
<rscale>  0 0.12500138E+03</rscale>
<asrwt>0</asrwt>
<pdfrwt beam="1">  1        4 0.31177071E-02 0.12500138E+03</pdfrwt>
<pdfrwt beam="2">  1       -4 0.29655661E-01 0.12500138E+03</pdfrwt>
<totfact> 0.87981204E+03</totfact>
</mgrwt>
</event>
<event>
 5    1  0.3487578E-002  0.1250044E+03  0.7818608E-02  0.1235062E+00
         -4   -1    0    0    0  501 -0.00000000000E+00  0.00000000000E+00  0.89178851303E+01  0.90078618549E+01  0.12700000000E+01 0. -1.
          4   -1    0    0  501    0  0.00000000000E+00 -0.00000000000E+00 -0.43576506494E+03  0.43576691559E+03  0.12700000000E+01 0. -1.
         25    2    1    2    0    0  0.00000000000E+00  0.00000000000E+00 -0.42684717981E+03  0.44477477744E+03  0.12500435088E+03 0.  0.
    9000005    1    3    3    0    0 -0.13503615162E+00  0.33290884338E+02 -0.40160572430E+03  0.40298444015E+03  0.10000000000E+01 0.  0.
    9000005    1    3    3    0    0  0.13503615162E+00 -0.33290884338E+02 -0.25241455512E+02  0.41790337293E+02  0.10000000000E+01 0.  0.
<mgrwt>
<rscale>  0 0.12500435E+03</rscale>
<asrwt>0</asrwt>
<pdfrwt beam="2">  1        4 0.67047826E-01 0.12500435E+03</pdfrwt>
<pdfrwt beam="1">  1       -4 0.13790463E-02 0.12500435E+03</pdfrwt>
<totfact> 0.60413360E+03</totfact>
</mgrwt>
</event>
<event>
 5    1  0.3487578E-002  0.1249970E+03  0.7818608E-02  0.1235074E+00
          4   -1    0    0  501    0  0.00000000000E+00  0.00000000000E+00  0.14592132740E+03  0.14592685391E+03  0.12700000000E+01 0.  1.
         -4   -1    0    0    0  501 -0.00000000000E+00 -0.00000000000E+00 -0.26747192803E+02  0.26777326656E+02  0.12700000000E+01 0.  1.
         25    2    1    2    0    0  0.00000000000E+00  0.00000000000E+00  0.11917413460E+03  0.17270418056E+03  0.12499703847E+03 0.  0.
    9000005    1    3    3    0    0 -0.38927352224E+02  0.10212587530E+02  0.12563922574E+03  0.13193123489E+03  0.10000000000E+01 0.  0.
    9000005    1    3    3    0    0  0.38927352224E+02 -0.10212587530E+02 -0.64650911412E+01  0.40772945671E+02  0.10000000000E+01 0.  0.
<mgrwt>
<rscale>  0 0.12499704E+03</rscale>
<asrwt>0</asrwt>
<pdfrwt beam="1">  1        4 0.22452178E-01 0.12499704E+03</pdfrwt>
<pdfrwt beam="2">  1       -4 0.41176958E-02 0.12499704E+03</pdfrwt>
<totfact> 0.94953313E+03</totfact>
</mgrwt>
</event>
<event>
 5    1  0.3487578E-002  0.1250027E+03  0.7818608E-02  0.1235065E+00
          4   -1    0    0  501    0  0.00000000000E+00  0.00000000000E+00  0.27397108029E+03  0.27397402384E+03  0.12700000000E+01 0. -1.
         -4   -1    0    0    0  501 -0.00000000000E+00 -0.00000000000E+00 -0.14227194554E+02  0.14283765781E+02  0.12700000000E+01 0. -1.
         25    2    1    2    0    0  0.00000000000E+00  0.00000000000E+00  0.25974388574E+03  0.28825778962E+03  0.12500266835E+03 0.  0.
    9000005    1    3    3    0    0  0.31025653382E+02  0.26995833521E+02  0.23837838847E+03  0.24190209235E+03  0.10000000000E+01 0.  0.
    9000005    1    3    3    0    0 -0.31025653382E+02 -0.26995833521E+02  0.21365497269E+02  0.46355697264E+02  0.10000000000E+01 0.  0.
<mgrwt>
<rscale>  0 0.12500267E+03</rscale>
<asrwt>0</asrwt>
<pdfrwt beam="1">  1        4 0.42153976E-01 0.12500267E+03</pdfrwt>
<pdfrwt beam="2">  1       -4 0.21933772E-02 0.12500267E+03</pdfrwt>
<totfact> 0.77091198E+03</totfact>
</mgrwt>
</event>
<event>
 5    1  0.3487578E-002  0.1249998E+03  0.7818608E-02  0.1235070E+00
         -4   -1    0    0    0  501 -0.00000000000E+00  0.00000000000E+00  0.90984213587E+02  0.90993076781E+02  0.12700000000E+01 0. -1.
          4   -1    0    0  501    0  0.00000000000E+00 -0.00000000000E+00 -0.42912755834E+02  0.42931544501E+02  0.12700000000E+01 0. -1.
         25    2    1    2    0    0  0.00000000000E+00  0.00000000000E+00  0.48071457753E+02  0.13392462128E+03  0.12499975654E+03 0.  0.
    9000005    1    3    3    0    0  0.27477836025E+02  0.56074665578E+02  0.26623815532E+02  0.67891289175E+02  0.10000000000E+01 0.  0.
    9000005    1    3    3    0    0 -0.27477836025E+02 -0.56074665578E+02  0.21447642221E+02  0.66033332107E+02  0.10000000000E+01 0.  0.
<mgrwt>
<rscale>  0 0.12499976E+03</rscale>
<asrwt>0</asrwt>
<pdfrwt beam="2">  1        4 0.66040896E-02 0.12499976E+03</pdfrwt>
<pdfrwt beam="1">  1       -4 0.13999698E-01 0.12499976E+03</pdfrwt>
<totfact> 0.10260843E+04</totfact>
</mgrwt>
</event>
<event>
 5    1  0.3487578E-002  0.1249995E+03  0.7818608E-02  0.1235070E+00
          4   -1    0    0  501    0  0.00000000000E+00  0.00000000000E+00  0.39038584105E+02  0.39059236410E+02  0.12700000000E+01 0.  1.
         -4   -1    0    0    0  501 -0.00000000000E+00 -0.00000000000E+00 -0.10000932825E+03  0.10001739167E+03  0.12700000000E+01 0.  1.
         25    2    1    2    0    0  0.00000000000E+00  0.00000000000E+00 -0.60970744147E+02  0.13907662808E+03  0.12499950735E+03 0.  0.
    9000005    1    3    3    0    0  0.20705137629E+02  0.39574350380E+02  0.18144884383E+02  0.48218966823E+02  0.10000000000E+01 0.  0.
    9000005    1    3    3    0    0 -0.20705137629E+02 -0.39574350380E+02 -0.79115628529E+02  0.90857661261E+02  0.10000000000E+01 0.  0.
<mgrwt>
<rscale>  0 0.12499951E+03</rscale>
<asrwt>0</asrwt>
<pdfrwt beam="1">  1        4 0.60081449E-02 0.12499951E+03</pdfrwt>
<pdfrwt beam="2">  1       -4 0.15388259E-01 0.12499951E+03</pdfrwt>
<totfact> 0.10152872E+04</totfact>
</mgrwt>
</event>
<event>
 5    1  0.3487578E-002  0.1249996E+03  0.7818608E-02  0.1235070E+00
         -4   -1    0    0    0  501 -0.00000000000E+00  0.00000000000E+00  0.11947630123E+03  0.11948305092E+03  0.12700000000E+01 0.  1.
          4   -1    0    0  501    0  0.00000000000E+00 -0.00000000000E+00 -0.32674550030E+02  0.32699222004E+02  0.12700000000E+01 0.  1.
         25    2    1    2    0    0  0.00000000000E+00  0.00000000000E+00  0.86801751203E+02  0.15218227292E+03  0.12499960072E+03 0.  0.
    9000005    1    3    3    0    0  0.58196585005E+02 -0.17663017742E+02  0.60891714817E+02  0.86067564363E+02  0.10000000000E+01 0.  0.
    9000005    1    3    3    0    0 -0.58196585005E+02  0.17663017742E+02  0.25910036386E+02  0.66114708557E+02  0.10000000000E+01 0.  0.
<mgrwt>
<rscale>  0 0.12499960E+03</rscale>
<asrwt>0</asrwt>
<pdfrwt beam="2">  1        4 0.50292710E-02 0.12499960E+03</pdfrwt>
<pdfrwt beam="1">  1       -4 0.18383386E-01 0.12499960E+03</pdfrwt>
<totfact> 0.98871349E+03</totfact>
</mgrwt>
</event>
<event>
 5    1  0.3487578E-002  0.1250000E+03  0.7818608E-02  0.1235069E+00
          4   -1    0    0  501    0  0.00000000000E+00  0.00000000000E+00  0.93781595100E+01  0.94637611865E+01  0.12700000000E+01 0.  1.
         -4   -1    0    0    0  501 -0.00000000000E+00 -0.00000000000E+00 -0.41454740976E+03  0.41454935513E+03  0.12700000000E+01 0.  1.
         25    2    1    2    0    0  0.00000000000E+00  0.00000000000E+00 -0.40516925025E+03  0.42401311632E+03  0.12500000584E+03 0.  0.
    9000005    1    3    3    0    0 -0.55935604679E+02 -0.26039673796E+02 -0.23623216430E+03  0.24415874331E+03  0.10000000000E+01 0.  0.
    9000005    1    3    3    0    0  0.55935604679E+02  0.26039673796E+02 -0.16893708595E+03  0.17985437301E+03  0.10000000000E+01 0.  0.
<mgrwt>
<rscale>  0 0.12500001E+03</rscale>
<asrwt>0</asrwt>
<pdfrwt beam="1">  1        4 0.14495285E-02 0.12500001E+03</pdfrwt>
<pdfrwt beam="2">  1       -4 0.63783245E-01 0.12500001E+03</pdfrwt>
<totfact> 0.62282438E+03</totfact>
</mgrwt>
</event>
<event>
 5    1  0.3487578E-002  0.1250000E+03  0.7818608E-02  0.1235069E+00
         -4   -1    0    0    0  501 -0.00000000000E+00  0.00000000000E+00  0.14714179729E+02  0.14768885710E+02  0.12700000000E+01 0. -1.
          4   -1    0    0  501    0  0.00000000000E+00 -0.00000000000E+00 -0.26492632706E+03  0.26492937109E+03  0.12700000000E+01 0. -1.
         25    2    1    2    0    0  0.00000000000E+00  0.00000000000E+00 -0.25021214733E+03  0.27969825680E+03  0.12499998475E+03 0.  0.
    9000005    1    3    3    0    0  0.32801940494E+02  0.46275597255E+02 -0.18379105049E+03  0.19234746799E+03  0.10000000000E+01 0.  0.
    9000005    1    3    3    0    0 -0.32801940494E+02 -0.46275597255E+02 -0.66421096841E+02  0.87350788818E+02  0.10000000000E+01 0.  0.
<mgrwt>
<rscale>  0 0.12499998E+03</rscale>
<asrwt>0</asrwt>
<pdfrwt beam="2">  1        4 0.40762335E-01 0.12499998E+03</pdfrwt>
<pdfrwt beam="1">  1       -4 0.22681625E-02 0.12499998E+03</pdfrwt>
<totfact> 0.78218159E+03</totfact>
</mgrwt>
</event>
<event>
 5    1  0.3487578E-002  0.1249990E+03  0.7818608E-02  0.1235071E+00
         -4   -1    0    0    0  501 -0.00000000000E+00  0.00000000000E+00  0.16595457758E+03  0.16595943697E+03  0.12700000000E+01 0. -1.
          4   -1    0    0  501    0  0.00000000000E+00 -0.00000000000E+00 -0.23515345211E+02  0.23549614867E+02  0.12700000000E+01 0. -1.
         25    2    1    2    0    0  0.00000000000E+00  0.00000000000E+00  0.14243923237E+03  0.18950905184E+03  0.12499898324E+03 0.  0.
    9000005    1    3    3    0    0 -0.31934065548E+02  0.37093801485E+02  0.13012203148E+03  0.13902689570E+03  0.10000000000E+01 0.  0.
    9000005    1    3    3    0    0  0.31934065548E+02 -0.37093801485E+02  0.12317200891E+02  0.50482156142E+02  0.10000000000E+01 0.  0.
<mgrwt>
<rscale>  0 0.12499898E+03</rscale>
<asrwt>0</asrwt>
<pdfrwt beam="2">  1        4 0.36207555E-02 0.12499898E+03</pdfrwt>
<pdfrwt beam="1">  1       -4 0.25534483E-01 0.12499898E+03</pdfrwt>
<totfact> 0.91934902E+03</totfact>
</mgrwt>
</event>
<event>
 5    1  0.3487578E-002  0.1249904E+03  0.7818608E-02  0.1235084E+00
          4   -1    0    0  501    0  0.00000000000E+00  0.00000000000E+00  0.85213737519E+02  0.85223200843E+02  0.12700000000E+01 0. -1.
         -4   -1    0    0    0  501 -0.00000000000E+00 -0.00000000000E+00 -0.45812729450E+02  0.45830329256E+02  0.12700000000E+01 0. -1.
         25    2    1    2    0    0  0.00000000000E+00  0.00000000000E+00  0.39401008068E+02  0.13105353010E+03  0.12499035289E+03 0.  0.
    9000005    1    3    3    0    0 -0.39440870926E+01  0.56993507622E+02 -0.68421350957E+01  0.57546768343E+02  0.10000000000E+01 0.  0.
    9000005    1    3    3    0    0  0.39440870926E+01 -0.56993507622E+02  0.46243143164E+02  0.73506761756E+02  0.10000000000E+01 0.  0.
<mgrwt>
<rscale>  0 0.12499035E+03</rscale>
<asrwt>0</asrwt>
<pdfrwt beam="1">  1        4 0.13111887E-01 0.12499035E+03</pdfrwt>
<pdfrwt beam="2">  1       -4 0.70501941E-02 0.12499035E+03</pdfrwt>
<totfact> 0.10324189E+04</totfact>
</mgrwt>
</event>
<event>
 5    1  0.3487578E-002  0.1249970E+03  0.7818608E-02  0.1235074E+00
         -4   -1    0    0    0  501 -0.00000000000E+00  0.00000000000E+00  0.87787437717E+02  0.87796623631E+02  0.12700000000E+01 0.  1.
          4   -1    0    0  501    0  0.00000000000E+00 -0.00000000000E+00 -0.44473986661E+02  0.44492116038E+02  0.12700000000E+01 0.  1.
         25    2    1    2    0    0  0.00000000000E+00  0.00000000000E+00  0.43313451057E+02  0.13228873967E+03  0.12499702237E+03 0.  0.
    9000005    1    3    3    0    0  0.19444736703E+02  0.58686306907E+02  0.12021602977E+02  0.62989676471E+02  0.10000000000E+01 0.  0.
    9000005    1    3    3    0    0 -0.19444736703E+02 -0.58686306907E+02  0.31291848080E+02  0.69299063197E+02  0.10000000000E+01 0.  0.
<mgrwt>
<rscale>  0 0.12499702E+03</rscale>
<asrwt>0</asrwt>
<pdfrwt beam="2">  1        4 0.68442530E-02 0.12499702E+03</pdfrwt>
<pdfrwt beam="1">  1       -4 0.13507861E-01 0.12499702E+03</pdfrwt>
<totfact> 0.10296231E+04</totfact>
</mgrwt>
</event>
<event>
 5    1  0.3487578E-002  0.1249992E+03  0.7818608E-02  0.1235071E+00
          4   -1    0    0  501    0  0.00000000000E+00  0.00000000000E+00  0.39945999325E+03  0.39946201209E+03  0.12700000000E+01 0.  1.
         -4   -1    0    0    0  501 -0.00000000000E+00 -0.00000000000E+00 -0.97354120128E+01  0.98178993201E+01  0.12700000000E+01 0.  1.
         25    2    1    2    0    0  0.00000000000E+00  0.00000000000E+00  0.38972458124E+03  0.40927991141E+03  0.12499918667E+03 0.  0.
    9000005    1    3    3    0    0 -0.60548764492E+02 -0.11783966202E+02  0.16208950564E+03  0.17343304927E+03  0.10000000000E+01 0.  0.
    9000005    1    3    3    0    0  0.60548764492E+02  0.11783966202E+02  0.22763507560E+03  0.23584686214E+03  0.10000000000E+01 0.  0.
<mgrwt>
<rscale>  0 0.12499919E+03</rscale>
<asrwt>0</asrwt>
<pdfrwt beam="1">  1        4 0.61461886E-01 0.12499919E+03</pdfrwt>
<pdfrwt beam="2">  1       -4 0.15042561E-02 0.12499919E+03</pdfrwt>
<totfact> 0.63661273E+03</totfact>
</mgrwt>
</event>
<event>
 5    1  0.3487578E-002  0.1250013E+03  0.7818608E-02  0.1235067E+00
          4   -1    0    0  501    0  0.00000000000E+00  0.00000000000E+00  0.44114300128E+02  0.44132577262E+02  0.12700000000E+01 0.  1.
         -4   -1    0    0    0  501 -0.00000000000E+00 -0.00000000000E+00 -0.88509034409E+02  0.88518145439E+02  0.12700000000E+01 0.  1.
         25    2    1    2    0    0  0.00000000000E+00  0.00000000000E+00 -0.44394734281E+02  0.13265072270E+03  0.12500128720E+03 0.  0.
    9000005    1    3    3    0    0  0.19746306557E+02  0.50188657053E+02  0.11301993428E+02  0.55113999808E+02  0.10000000000E+01 0.  0.
    9000005    1    3    3    0    0 -0.19746306557E+02 -0.50188657053E+02 -0.55696727709E+02  0.77536722892E+02  0.10000000000E+01 0.  0.
<mgrwt>
<rscale>  0 0.12500129E+03</rscale>
<asrwt>0</asrwt>
<pdfrwt beam="1">  1        4 0.67889222E-02 0.12500129E+03</pdfrwt>
<pdfrwt beam="2">  1       -4 0.13618881E-01 0.12500129E+03</pdfrwt>
<totfact> 0.10287530E+04</totfact>
</mgrwt>
</event>
<event>
 5    1  0.3487578E-002  0.1249997E+03  0.7818608E-02  0.1235070E+00
          4   -1    0    0  501    0  0.00000000000E+00  0.00000000000E+00  0.21084076910E+01  0.24613579568E+01  0.12700000000E+01 0. -1.
         -4   -1    0    0    0  501 -0.00000000000E+00 -0.00000000000E+00 -0.17092447836E+04  0.17092452554E+04  0.12700000000E+01 0. -1.
         25    2    1    2    0    0  0.00000000000E+00  0.00000000000E+00 -0.17071363759E+04  0.17117066134E+04  0.12499969725E+03 0.  0.
    9000005    1    3    3    0    0  0.52104055411E+02 -0.13570360114E+02 -0.12879503467E+04  0.12890756700E+04  0.10000000000E+01 0.  0.
    9000005    1    3    3    0    0 -0.52104055411E+02  0.13570360114E+02 -0.41918602917E+03  0.42263094339E+03  0.10000000000E+01 0.  0.
<mgrwt>
<rscale>  0 0.12499970E+03</rscale>
<asrwt>0</asrwt>
<pdfrwt beam="1">  1        4 0.35155809E-03 0.12499970E+03</pdfrwt>
<pdfrwt beam="2">  1       -4 0.26298690E+00 0.12499970E+03</pdfrwt>
<totfact> 0.14113734E+03</totfact>
</mgrwt>
</event>
<event>
 5    1  0.3487578E-002  0.1250045E+03  0.7818608E-02  0.1235062E+00
          4   -1    0    0  501    0  0.00000000000E+00  0.00000000000E+00  0.43249324964E+02  0.43267967480E+02  0.12700000000E+01 0. -1.
         -4   -1    0    0    0  501 -0.00000000000E+00 -0.00000000000E+00 -0.90283192476E+02  0.90292124483E+02  0.12700000000E+01 0. -1.
         25    2    1    2    0    0  0.00000000000E+00  0.00000000000E+00 -0.47033867512E+02  0.13356009196E+03  0.12500445381E+03 0.  0.
    9000005    1    3    3    0    0  0.52281640577E+02  0.25510230823E+02  0.87976897196E+00  0.58188622698E+02  0.10000000000E+01 0.  0.
    9000005    1    3    3    0    0 -0.52281640577E+02 -0.25510230823E+02 -0.47913636484E+02  0.75371469265E+02  0.10000000000E+01 0.  0.
<mgrwt>
<rscale>  0 0.12500445E+03</rscale>
<asrwt>0</asrwt>
<pdfrwt beam="1">  1        4 0.66558635E-02 0.12500445E+03</pdfrwt>
<pdfrwt beam="2">  1       -4 0.13891843E-01 0.12500445E+03</pdfrwt>
<totfact> 0.10267479E+04</totfact>
</mgrwt>
</event>
<event>
 5    1  0.3487578E-002  0.1249998E+03  0.7818608E-02  0.1235070E+00
         -4   -1    0    0    0  501 -0.00000000000E+00  0.00000000000E+00  0.13124019613E+02  0.13185324827E+02  0.12700000000E+01 0. -1.
          4   -1    0    0  501    0  0.00000000000E+00 -0.00000000000E+00 -0.29688399311E+03  0.29688670948E+03  0.12700000000E+01 0. -1.
         25    2    1    2    0    0  0.00000000000E+00  0.00000000000E+00 -0.28375997350E+03  0.31007203431E+03  0.12499977560E+03 0.  0.
    9000005    1    3    3    0    0  0.32536300685E+02  0.36245644822E+02 -0.23899965932E+03  0.24391431854E+03  0.10000000000E+01 0.  0.
    9000005    1    3    3    0    0 -0.32536300685E+02 -0.36245644822E+02 -0.44760314175E+02  0.66157715770E+02  0.10000000000E+01 0.  0.
<mgrwt>
<rscale>  0 0.12499978E+03</rscale>
<asrwt>0</asrwt>
<pdfrwt beam="2">  1        4 0.45679380E-01 0.12499978E+03</pdfrwt>
<pdfrwt beam="1">  1       -4 0.20240049E-02 0.12499978E+03</pdfrwt>
<totfact> 0.74352916E+03</totfact>
</mgrwt>
</event>
<event>
 5    1  0.3487578E-002  0.1249973E+03  0.7818608E-02  0.1235074E+00
         -4   -1    0    0    0  501 -0.00000000000E+00  0.00000000000E+00  0.65686628459E+01  0.66903087808E+01  0.12700000000E+01 0.  1.
          4   -1    0    0  501    0  0.00000000000E+00 -0.00000000000E+00 -0.58907564546E+03  0.58907701447E+03  0.12700000000E+01 0.  1.
         25    2    1    2    0    0  0.00000000000E+00  0.00000000000E+00 -0.58250698261E+03  0.59576732325E+03  0.12499727460E+03 0.  0.
    9000005    1    3    3    0    0 -0.72551288585E+01 -0.43422217266E+02 -0.50263802922E+03  0.50456329064E+03  0.10000000000E+01 0.  0.
    9000005    1    3    3    0    0  0.72551288585E+01  0.43422217266E+02 -0.79868953392E+02  0.91204032603E+02  0.10000000000E+01 0.  0.
<mgrwt>
<rscale>  0 0.12499727E+03</rscale>
<asrwt>0</asrwt>
<pdfrwt beam="2">  1        4 0.90636444E-01 0.12499727E+03</pdfrwt>
<pdfrwt beam="1">  1       -4 0.10200267E-02 0.12499727E+03</pdfrwt>
<totfact> 0.49138837E+03</totfact>
</mgrwt>
</event>
<event>
 5    1  0.3487578E-002  0.1249990E+03  0.7818608E-02  0.1235071E+00
         -4   -1    0    0    0  501 -0.00000000000E+00  0.00000000000E+00  0.24935412419E+02  0.24967733027E+02  0.12700000000E+01 0. -1.
          4   -1    0    0  501    0  0.00000000000E+00 -0.00000000000E+00 -0.15651581054E+03  0.15652096297E+03  0.12700000000E+01 0. -1.
         25    2    1    2    0    0  0.00000000000E+00  0.00000000000E+00 -0.13158039812E+03  0.18148869600E+03  0.12499898242E+03 0.  0.
    9000005    1    3    3    0    0  0.14043031369E+02 -0.45378379699E+02 -0.12474575846E+03  0.13348748379E+03  0.10000000000E+01 0.  0.
    9000005    1    3    3    0    0 -0.14043031369E+02  0.45378379699E+02 -0.68346396588E+01  0.48001212208E+02  0.10000000000E+01 0.  0.
<mgrwt>
<rscale>  0 0.12499898E+03</rscale>
<asrwt>0</asrwt>
<pdfrwt beam="2">  1        4 0.24082237E-01 0.12499898E+03</pdfrwt>
<pdfrwt beam="1">  1       -4 0.38390999E-02 0.12499898E+03</pdfrwt>
<totfact> 0.93351847E+03</totfact>
</mgrwt>
</event>
<event>
 5    1  0.3487578E-002  0.1250007E+03  0.7818608E-02  0.1235068E+00
          4   -1    0    0  501    0  0.00000000000E+00  0.00000000000E+00  0.13209399431E+03  0.13210009929E+03  0.12700000000E+01 0. -1.
         -4   -1    0    0    0  501 -0.00000000000E+00 -0.00000000000E+00 -0.29551633652E+02  0.29578910587E+02  0.12700000000E+01 0. -1.
         25    2    1    2    0    0  0.00000000000E+00  0.00000000000E+00  0.10254236065E+03  0.16167900987E+03  0.12500066602E+03 0.  0.
    9000005    1    3    3    0    0 -0.18318054814E+01 -0.60509691905E+02  0.71330253514E+02  0.93561655566E+02  0.10000000000E+01 0.  0.
    9000005    1    3    3    0    0  0.18318054814E+01  0.60509691905E+02  0.31212107140E+02  0.68117354308E+02  0.10000000000E+01 0.  0.
<mgrwt>
<rscale>  0 0.12500067E+03</rscale>
<asrwt>0</asrwt>
<pdfrwt beam="1">  1        4 0.20324721E-01 0.12500067E+03</pdfrwt>
<pdfrwt beam="2">  1       -4 0.45489730E-02 0.12500067E+03</pdfrwt>
<totfact> 0.97018606E+03</totfact>
</mgrwt>
</event>
<event>
 5    1  0.3487578E-002  0.1249976E+03  0.7818608E-02  0.1235073E+00
          4   -1    0    0  501    0  0.00000000000E+00  0.00000000000E+00  0.28243162038E+03  0.28243447575E+03  0.12700000000E+01 0.  1.
         -4   -1    0    0    0  501 -0.00000000000E+00 -0.00000000000E+00 -0.13798167225E+02  0.13856490132E+02  0.12700000000E+01 0.  1.
         25    2    1    2    0    0  0.00000000000E+00  0.00000000000E+00  0.26863345316E+03  0.29629096588E+03  0.12499761721E+03 0.  0.
    9000005    1    3    3    0    0  0.52143547125E+02 -0.24187318948E+02  0.76200269239E+02  0.95453951918E+02  0.10000000000E+01 0.  0.
    9000005    1    3    3    0    0 -0.52143547125E+02  0.24187318948E+02  0.19243318392E+03  0.20083701396E+03  0.10000000000E+01 0.  0.
<mgrwt>
<rscale>  0 0.12499762E+03</rscale>
<asrwt>0</asrwt>
<pdfrwt beam="1">  1        4 0.43455727E-01 0.12499762E+03</pdfrwt>
<pdfrwt beam="2">  1       -4 0.21275009E-02 0.12499762E+03</pdfrwt>
<totfact> 0.76070482E+03</totfact>
</mgrwt>
</event>
<event>
 5    1  0.3487578E-002  0.1249991E+03  0.7818608E-02  0.1235071E+00
          4   -1    0    0  501    0  0.00000000000E+00  0.00000000000E+00  0.21538532911E+01  0.25003967685E+01  0.12700000000E+01 0.  1.
         -4   -1    0    0    0  501 -0.00000000000E+00 -0.00000000000E+00 -0.16782021918E+04  0.16782026723E+04  0.12700000000E+01 0.  1.
         25    2    1    2    0    0  0.00000000000E+00  0.00000000000E+00 -0.16760483385E+04  0.16807030691E+04  0.12499909402E+03 0.  0.
    9000005    1    3    3    0    0  0.39000642900E+02 -0.16359090509E+02 -0.21944446909E+03  0.22348499951E+03  0.10000000000E+01 0.  0.
    9000005    1    3    3    0    0 -0.39000642900E+02  0.16359090509E+02 -0.14566038694E+04  0.14572180696E+04  0.10000000000E+01 0.  0.
<mgrwt>
<rscale>  0 0.12499909E+03</rscale>
<asrwt>0</asrwt>
<pdfrwt beam="1">  1        4 0.35805754E-03 0.12499909E+03</pdfrwt>
<pdfrwt beam="2">  1       -4 0.25821068E+00 0.12499909E+03</pdfrwt>
<totfact> 0.14632814E+03</totfact>
</mgrwt>
</event>
<event>
 5    1  0.3487578E-002  0.1249971E+03  0.7818608E-02  0.1235074E+00
          4   -1    0    0  501    0  0.00000000000E+00  0.00000000000E+00  0.14707240184E+02  0.14761971881E+02  0.12700000000E+01 0. -1.
         -4   -1    0    0    0  501 -0.00000000000E+00 -0.00000000000E+00 -0.26503848327E+03  0.26504152602E+03  0.12700000000E+01 0. -1.
         25    2    1    2    0    0  0.00000000000E+00  0.00000000000E+00 -0.25033124309E+03  0.27980349790E+03  0.12499706465E+03 0.  0.
    9000005    1    3    3    0    0  0.51784163466E+02 -0.34696921331E+02 -0.13507342249E+03  0.14876594166E+03  0.10000000000E+01 0.  0.
    9000005    1    3    3    0    0 -0.51784163466E+02  0.34696921331E+02 -0.11525782060E+03  0.13103755624E+03  0.10000000000E+01 0.  0.
<mgrwt>
<rscale>  0 0.12499706E+03</rscale>
<asrwt>0</asrwt>
<pdfrwt beam="1">  1        4 0.22670967E-02 0.12499706E+03</pdfrwt>
<pdfrwt beam="2">  1       -4 0.40779592E-01 0.12499706E+03</pdfrwt>
<totfact> 0.78209272E+03</totfact>
</mgrwt>
</event>
<event>
 5    1  0.3487578E-002  0.1250034E+03  0.7818608E-02  0.1235064E+00
         -4   -1    0    0    0  501 -0.00000000000E+00  0.00000000000E+00  0.18311000885E+03  0.18311441298E+03  0.12700000000E+01 0.  1.
          4   -1    0    0  501    0  0.00000000000E+00 -0.00000000000E+00 -0.21310399772E+02  0.21348209256E+02  0.12700000000E+01 0.  1.
         25    2    1    2    0    0  0.00000000000E+00  0.00000000000E+00  0.16179960908E+03  0.20446262224E+03  0.12500340153E+03 0.  0.
    9000005    1    3    3    0    0 -0.26126672806E+02  0.32615685613E+02  0.15690199732E+03  0.16237494493E+03  0.10000000000E+01 0.  0.
    9000005    1    3    3    0    0  0.26126672806E+02 -0.32615685613E+02  0.48976117610E+01  0.42087677304E+02  0.10000000000E+01 0.  0.
<mgrwt>
<rscale>  0 0.12500340E+03</rscale>
<asrwt>0</asrwt>
<pdfrwt beam="2">  1        4 0.32817702E-02 0.12500340E+03</pdfrwt>
<pdfrwt beam="1">  1       -4 0.28174018E-01 0.12500340E+03</pdfrwt>
<totfact> 0.89381467E+03</totfact>
</mgrwt>
</event>
<event>
 5    1  0.3487578E-002  0.1249995E+03  0.7818608E-02  0.1235070E+00
         -4   -1    0    0    0  501 -0.00000000000E+00  0.00000000000E+00  0.39692976512E+02  0.39713288511E+02  0.12700000000E+01 0. -1.
          4   -1    0    0  501    0  0.00000000000E+00 -0.00000000000E+00 -0.98361234193E+02  0.98369432711E+02  0.12700000000E+01 0. -1.
         25    2    1    2    0    0  0.00000000000E+00  0.00000000000E+00 -0.58668257681E+02  0.13808272122E+03  0.12499949376E+03 0.  0.
    9000005    1    3    3    0    0  0.31753970767E+02  0.32702650379E+02  0.17888774974E+02  0.48977405723E+02  0.10000000000E+01 0.  0.
    9000005    1    3    3    0    0 -0.31753970767E+02 -0.32702650379E+02 -0.76557032655E+02  0.89105315499E+02  0.10000000000E+01 0.  0.
<mgrwt>
<rscale>  0 0.12499949E+03</rscale>
<asrwt>0</asrwt>
<pdfrwt beam="2">  1        4 0.15134691E-01 0.12499949E+03</pdfrwt>
<pdfrwt beam="1">  1       -4 0.61088049E-02 0.12499949E+03</pdfrwt>
<totfact> 0.10173594E+04</totfact>
</mgrwt>
</event>
<event>
 5    1  0.3487578E-002  0.1250049E+03  0.7818608E-02  0.1235062E+00
         -4   -1    0    0    0  501 -0.00000000000E+00  0.00000000000E+00  0.35166773356E+03  0.35167002677E+03  0.12700000000E+01 0. -1.
          4   -1    0    0  501    0  0.00000000000E+00 -0.00000000000E+00 -0.11070012947E+02  0.11142624765E+02  0.12700000000E+01 0. -1.
         25    2    1    2    0    0  0.00000000000E+00  0.00000000000E+00  0.34059772062E+03  0.36281265154E+03  0.12500485121E+03 0.  0.
    9000005    1    3    3    0    0 -0.42756769737E+02 -0.23236963074E+02  0.28410267445E+03  0.28824195989E+03  0.10000000000E+01 0.  0.
    9000005    1    3    3    0    0  0.42756769737E+02  0.23236963074E+02  0.56495046161E+02  0.74570691642E+02  0.10000000000E+01 0.  0.
<mgrwt>
<rscale>  0 0.12500485E+03</rscale>
<asrwt>0</asrwt>
<pdfrwt beam="2">  1        4 0.17088409E-02 0.12500485E+03</pdfrwt>
<pdfrwt beam="1">  1       -4 0.54108487E-01 0.12500485E+03</pdfrwt>
<totfact> 0.68330301E+03</totfact>
</mgrwt>
</event>
<event>
 5    1  0.3487578E-002  0.1250008E+03  0.7818608E-02  0.1235068E+00
          4   -1    0    0  501    0  0.00000000000E+00  0.00000000000E+00  0.39405409657E+03  0.39405614311E+03  0.12700000000E+01 0. -1.
         -4   -1    0    0    0  501 -0.00000000000E+00 -0.00000000000E+00 -0.98703539729E+01  0.99517228433E+01  0.12700000000E+01 0. -1.
         25    2    1    2    0    0  0.00000000000E+00  0.00000000000E+00  0.38418374260E+03  0.40400786596E+03  0.12500083071E+03 0.  0.
    9000005    1    3    3    0    0 -0.52147144526E+02  0.30940830323E+02  0.24096331515E+03  0.24847732071E+03  0.10000000000E+01 0.  0.
    9000005    1    3    3    0    0  0.52147144526E+02 -0.30940830323E+02  0.14322042745E+03  0.15553054524E+03  0.10000000000E+01 0.  0.
<mgrwt>
<rscale>  0 0.12500083E+03</rscale>
<asrwt>0</asrwt>
<pdfrwt beam="1">  1        4 0.60630128E-01 0.12500083E+03</pdfrwt>
<pdfrwt beam="2">  1       -4 0.15249325E-02 0.12500083E+03</pdfrwt>
<totfact> 0.64163666E+03</totfact>
</mgrwt>
</event>
<event>
 5    1  0.3487578E-002  0.1250010E+03  0.7818608E-02  0.1235068E+00
          4   -1    0    0  501    0  0.00000000000E+00  0.00000000000E+00  0.15255764890E+03  0.15256293501E+03  0.12700000000E+01 0.  1.
         -4   -1    0    0    0  501 -0.00000000000E+00 -0.00000000000E+00 -0.25584008624E+02  0.25615510873E+02  0.12700000000E+01 0.  1.
         25    2    1    2    0    0  0.00000000000E+00  0.00000000000E+00  0.12697364028E+03  0.17817844588E+03  0.12500101300E+03 0.  0.
    9000005    1    3    3    0    0  0.45729979301E+02  0.42556893810E+02  0.61020770054E+02  0.87331864721E+02  0.10000000000E+01 0.  0.
    9000005    1    3    3    0    0 -0.45729979301E+02 -0.42556893810E+02  0.65952870221E+02  0.90846581158E+02  0.10000000000E+01 0.  0.
<mgrwt>
<rscale>  0 0.12500101E+03</rscale>
<asrwt>0</asrwt>
<pdfrwt beam="1">  1        4 0.23473237E-01 0.12500101E+03</pdfrwt>
<pdfrwt beam="2">  1       -4 0.39388312E-02 0.12500101E+03</pdfrwt>
<totfact> 0.93943786E+03</totfact>
</mgrwt>
</event>
<event>
 5    1  0.3487578E-002  0.1250023E+03  0.7818608E-02  0.1235066E+00
         -4   -1    0    0    0  501 -0.00000000000E+00  0.00000000000E+00  0.56056268598E+02  0.56070653190E+02  0.12700000000E+01 0.  1.
          4   -1    0    0  501    0  0.00000000000E+00 -0.00000000000E+00 -0.69657879285E+02  0.69669455620E+02  0.12700000000E+01 0.  1.
         25    2    1    2    0    0  0.00000000000E+00  0.00000000000E+00 -0.13601610686E+02  0.12574010881E+03  0.12500228458E+03 0.  0.
    9000005    1    3    3    0    0  0.39610019062E+02  0.28607297439E+02 -0.45993091254E+02  0.67109578451E+02  0.10000000000E+01 0.  0.
    9000005    1    3    3    0    0 -0.39610019062E+02 -0.28607297439E+02  0.32391480567E+02  0.58630530359E+02  0.10000000000E+01 0.  0.
<mgrwt>
<rscale>  0 0.12500228E+03</rscale>
<asrwt>0</asrwt>
<pdfrwt beam="2">  1        4 0.10718594E-01 0.12500228E+03</pdfrwt>
<pdfrwt beam="1">  1       -4 0.86260383E-02 0.12500228E+03</pdfrwt>
<totfact> 0.10436124E+04</totfact>
</mgrwt>
</event>
<event>
 5    1  0.3487578E-002  0.1250002E+03  0.7818608E-02  0.1235069E+00
         -4   -1    0    0    0  501 -0.00000000000E+00  0.00000000000E+00  0.31554079401E+03  0.31554334977E+03  0.12700000000E+01 0. -1.
          4   -1    0    0  501    0  0.00000000000E+00 -0.00000000000E+00 -0.12344404166E+02  0.12409561403E+02  0.12700000000E+01 0. -1.
         25    2    1    2    0    0  0.00000000000E+00  0.00000000000E+00  0.30319638984E+03  0.32795291117E+03  0.12500024453E+03 0.  0.
    9000005    1    3    3    0    0  0.29359912458E+02  0.37746922180E+02  0.46050760701E+02  0.66396589934E+02  0.10000000000E+01 0.  0.
    9000005    1    3    3    0    0 -0.29359912458E+02 -0.37746922180E+02  0.25714562914E+03  0.26155632124E+03  0.10000000000E+01 0.  0.
<mgrwt>
<rscale>  0 0.12500024E+03</rscale>
<asrwt>0</asrwt>
<pdfrwt beam="2">  1        4 0.19043480E-02 0.12500024E+03</pdfrwt>
<pdfrwt beam="1">  1       -4 0.48549941E-01 0.12500024E+03</pdfrwt>
<totfact> 0.72219721E+03</totfact>
</mgrwt>
</event>
<event>
 5    1  0.3487578E-002  0.1250055E+03  0.7818608E-02  0.1235061E+00
         -4   -1    0    0    0  501 -0.00000000000E+00  0.00000000000E+00  0.27450416259E+03  0.27450710042E+03  0.12700000000E+01 0.  1.
          4   -1    0    0  501    0  0.00000000000E+00 -0.00000000000E+00 -0.14200098797E+02  0.14256777540E+02  0.12700000000E+01 0.  1.
         25    2    1    2    0    0  0.00000000000E+00  0.00000000000E+00  0.26030406379E+03  0.28876387796E+03  0.12500548622E+03 0.  0.
    9000005    1    3    3    0    0  0.25499051009E+02 -0.35908021735E+02  0.27726994642E+02  0.52051646075E+02  0.10000000000E+01 0.  0.
    9000005    1    3    3    0    0 -0.25499051009E+02  0.35908021735E+02  0.23257706915E+03  0.23671223188E+03  0.10000000000E+01 0.  0.
<mgrwt>
<rscale>  0 0.12500549E+03</rscale>
<asrwt>0</asrwt>
<pdfrwt beam="2">  1        4 0.21892164E-02 0.12500549E+03</pdfrwt>
<pdfrwt beam="1">  1       -4 0.42235997E-01 0.12500549E+03</pdfrwt>
<totfact> 0.77020855E+03</totfact>
</mgrwt>
</event>
<event>
 5    1  0.3487578E-002  0.1250013E+03  0.7818608E-02  0.1235067E+00
         -4   -1    0    0    0  501 -0.00000000000E+00  0.00000000000E+00  0.31240034046E+02  0.31265838022E+02  0.12700000000E+01 0. -1.
          4   -1    0    0  501    0  0.00000000000E+00 -0.00000000000E+00 -0.12496177089E+03  0.12496822430E+03  0.12700000000E+01 0. -1.
         25    2    1    2    0    0  0.00000000000E+00  0.00000000000E+00 -0.93721736846E+02  0.15623406232E+03  0.12500127308E+03 0.  0.
    9000005    1    3    3    0    0 -0.10905542873E+01 -0.62317050663E+02 -0.41170854400E+02  0.74703703817E+02  0.10000000000E+01 0.  0.
    9000005    1    3    3    0    0  0.10905542873E+01  0.62317050663E+02 -0.52550882446E+02  0.81530358504E+02  0.10000000000E+01 0.  0.
<mgrwt>
<rscale>  0 0.12500127E+03</rscale>
<asrwt>0</asrwt>
<pdfrwt beam="2">  1        4 0.19227369E-01 0.12500127E+03</pdfrwt>
<pdfrwt beam="1">  1       -4 0.48086405E-02 0.12500127E+03</pdfrwt>
<totfact> 0.98070973E+03</totfact>
</mgrwt>
</event>
<event>
 5    1  0.3487578E-002  0.1249954E+03  0.7818608E-02  0.1235076E+00
          4   -1    0    0  501    0  0.00000000000E+00  0.00000000000E+00  0.27024746875E+02  0.27054571585E+02  0.12700000000E+01 0.  1.
         -4   -1    0    0    0  501 -0.00000000000E+00 -0.00000000000E+00 -0.14442055361E+03  0.14442613754E+03  0.12700000000E+01 0.  1.
         25    2    1    2    0    0  0.00000000000E+00  0.00000000000E+00 -0.11739580673E+03  0.17148070912E+03  0.12499543257E+03 0.  0.
    9000005    1    3    3    0    0 -0.38750272013E+02  0.39125999280E+02 -0.99221976265E+02  0.11348316163E+03  0.10000000000E+01 0.  0.
    9000005    1    3    3    0    0  0.38750272013E+02 -0.39125999280E+02 -0.18173830466E+02  0.57997547487E+02  0.10000000000E+01 0.  0.
<mgrwt>
<rscale>  0 0.12499543E+03</rscale>
<asrwt>0</asrwt>
<pdfrwt beam="1">  1        4 0.41603772E-02 0.12499543E+03</pdfrwt>
<pdfrwt beam="2">  1       -4 0.22221270E-01 0.12499543E+03</pdfrwt>
<totfact> 0.95183127E+03</totfact>
</mgrwt>
</event>
<event>
 5    1  0.3487578E-002  0.1250045E+03  0.7818608E-02  0.1235062E+00
          4   -1    0    0  501    0  0.00000000000E+00  0.00000000000E+00  0.10284056042E+03  0.10284840187E+03  0.12700000000E+01 0. -1.
         -4   -1    0    0    0  501 -0.00000000000E+00 -0.00000000000E+00 -0.37966392465E+02  0.37987627680E+02  0.12700000000E+01 0. -1.
         25    2    1    2    0    0  0.00000000000E+00  0.00000000000E+00  0.64874167955E+02  0.14083602955E+03  0.12500451813E+03 0.  0.
    9000005    1    3    3    0    0 -0.23201341970E+02  0.51985912238E+02  0.33902177826E+01  0.57037977848E+02  0.10000000000E+01 0.  0.
    9000005    1    3    3    0    0  0.23201341970E+02 -0.51985912238E+02  0.61483950173E+02  0.83798051703E+02  0.10000000000E+01 0.  0.
<mgrwt>
<rscale>  0 0.12500452E+03</rscale>
<asrwt>0</asrwt>
<pdfrwt beam="1">  1        4 0.15823861E-01 0.12500452E+03</pdfrwt>
<pdfrwt beam="2">  1       -4 0.58432202E-02 0.12500452E+03</pdfrwt>
<totfact> 0.10115258E+04</totfact>
</mgrwt>
</event>
<event>
 5    1  0.3487578E-002  0.1249979E+03  0.7818608E-02  0.1235073E+00
         -4   -1    0    0    0  501 -0.00000000000E+00  0.00000000000E+00  0.54016854347E+02  0.54031781884E+02  0.12700000000E+01 0. -1.
          4   -1    0    0  501    0  0.00000000000E+00 -0.00000000000E+00 -0.72282482552E+02  0.72293638613E+02  0.12700000000E+01 0. -1.
         25    2    1    2    0    0  0.00000000000E+00  0.00000000000E+00 -0.18265628205E+02  0.12632542050E+03  0.12499791474E+03 0.  0.
    9000005    1    3    3    0    0  0.30778819415E+02 -0.32159270716E+02  0.35191441074E+02  0.56753783507E+02  0.10000000000E+01 0.  0.
    9000005    1    3    3    0    0 -0.30778819415E+02  0.32159270716E+02 -0.53457069278E+02  0.69571636989E+02  0.10000000000E+01 0.  0.
<mgrwt>
<rscale>  0 0.12499791E+03</rscale>
<asrwt>0</asrwt>
<pdfrwt beam="2">  1        4 0.11122388E-01 0.12499791E+03</pdfrwt>
<pdfrwt beam="1">  1       -4 0.83122917E-02 0.12499791E+03</pdfrwt>
<totfact> 0.10424329E+04</totfact>
</mgrwt>
</event>
<event>
 5    1  0.3487578E-002  0.1250000E+03  0.7818608E-02  0.1235069E+00
          4   -1    0    0  501    0  0.00000000000E+00  0.00000000000E+00  0.17650075752E+02  0.17695707786E+02  0.12700000000E+01 0. -1.
         -4   -1    0    0    0  501 -0.00000000000E+00 -0.00000000000E+00 -0.22098324723E+03  0.22098689658E+03  0.12700000000E+01 0. -1.
         25    2    1    2    0    0  0.00000000000E+00  0.00000000000E+00 -0.20333317148E+03  0.23868260436E+03  0.12500002800E+03 0.  0.
    9000005    1    3    3    0    0  0.61087056931E+02 -0.51475947753E+01 -0.78505728800E+02  0.99610620472E+02  0.10000000000E+01 0.  0.
    9000005    1    3    3    0    0 -0.61087056931E+02  0.51475947753E+01 -0.12482744268E+03  0.13907198389E+03  0.10000000000E+01 0.  0.
<mgrwt>
<rscale>  0 0.12500003E+03</rscale>
<asrwt>0</asrwt>
<pdfrwt beam="1">  1        4 0.27191873E-02 0.12500003E+03</pdfrwt>
<pdfrwt beam="2">  1       -4 0.34001212E-01 0.12500003E+03</pdfrwt>
<totfact> 0.83993910E+03</totfact>
</mgrwt>
</event>
<event>
 5    1  0.3487578E-002  0.1250052E+03  0.7818608E-02  0.1235061E+00
          4   -1    0    0  501    0  0.00000000000E+00  0.00000000000E+00  0.22458181689E+02  0.22494061990E+02  0.12700000000E+01 0.  1.
         -4   -1    0    0    0  501 -0.00000000000E+00 -0.00000000000E+00 -0.17377193253E+03  0.17377657332E+03  0.12700000000E+01 0.  1.
         25    2    1    2    0    0  0.00000000000E+00  0.00000000000E+00 -0.15131375084E+03  0.19627063531E+03  0.12500524426E+03 0.  0.
    9000005    1    3    3    0    0 -0.30167076724E+02  0.49762276527E+02 -0.11143450979E+03  0.12571788519E+03  0.10000000000E+01 0.  0.
    9000005    1    3    3    0    0  0.30167076724E+02 -0.49762276527E+02 -0.39879241045E+02  0.70552750120E+02  0.10000000000E+01 0.  0.
<mgrwt>
<rscale>  0 0.12500524E+03</rscale>
<asrwt>0</asrwt>
<pdfrwt beam="1">  1        4 0.34582220E-02 0.12500524E+03</pdfrwt>
<pdfrwt beam="2">  1       -4 0.26737260E-01 0.12500524E+03</pdfrwt>
<totfact> 0.90756892E+03</totfact>
</mgrwt>
</event>
<event>
 5    1  0.3487578E-002  0.1249982E+03  0.7818608E-02  0.1235072E+00
         -4   -1    0    0    0  501 -0.00000000000E+00  0.00000000000E+00  0.17889660958E+02  0.17934683415E+02  0.12700000000E+01 0. -1.
          4   -1    0    0  501    0  0.00000000000E+00 -0.00000000000E+00 -0.21802497259E+03  0.21802867145E+03  0.12700000000E+01 0. -1.
         25    2    1    2    0    0  0.00000000000E+00  0.00000000000E+00 -0.20013531163E+03  0.23596335486E+03  0.12499824749E+03 0.  0.
    9000005    1    3    3    0    0 -0.37009708214E+02  0.11380222771E+02 -0.19266116679E+03  0.19651603792E+03  0.10000000000E+01 0.  0.
    9000005    1    3    3    0    0  0.37009708214E+02 -0.11380222771E+02 -0.74741448408E+01  0.39447316936E+02  0.10000000000E+01 0.  0.
<mgrwt>
<rscale>  0 0.12499825E+03</rscale>
<asrwt>0</asrwt>
<pdfrwt beam="2">  1        4 0.33546049E-01 0.12499825E+03</pdfrwt>
<pdfrwt beam="1">  1       -4 0.27560035E-02 0.12499825E+03</pdfrwt>
<totfact> 0.84405550E+03</totfact>
</mgrwt>
</event>
<event>
 5    1  0.3487578E-002  0.1250001E+03  0.7818608E-02  0.1235069E+00
         -4   -1    0    0    0  501 -0.00000000000E+00  0.00000000000E+00  0.21691410183E+03  0.21691781963E+03  0.12700000000E+01 0. -1.
          4   -1    0    0  501    0  0.00000000000E+00 -0.00000000000E+00 -0.17982040062E+02  0.18026831801E+02  0.12700000000E+01 0. -1.
         25    2    1    2    0    0  0.00000000000E+00  0.00000000000E+00  0.19893206177E+03  0.23494465143E+03  0.12500009615E+03 0.  0.
    9000005    1    3    3    0    0 -0.24557865561E+02 -0.50764205283E+02  0.48851764399E+02  0.74616272916E+02  0.10000000000E+01 0.  0.
    9000005    1    3    3    0    0  0.24557865561E+02  0.50764205283E+02  0.15008029737E+03  0.16032837852E+03  0.10000000000E+01 0.  0.
<mgrwt>
<rscale>  0 0.12500010E+03</rscale>
<asrwt>0</asrwt>
<pdfrwt beam="2">  1        4 0.27701991E-02 0.12500010E+03</pdfrwt>
<pdfrwt beam="1">  1       -4 0.33375133E-01 0.12500010E+03</pdfrwt>
<totfact> 0.84555896E+03</totfact>
</mgrwt>
</event>
<event>
 5    1  0.3487578E-002  0.1250005E+03  0.7818608E-02  0.1235069E+00
          4   -1    0    0  501    0  0.00000000000E+00  0.00000000000E+00  0.16937951742E+01  0.21170361575E+01  0.12700000000E+01 0.  1.
         -4   -1    0    0    0  501 -0.00000000000E+00 -0.00000000000E+00 -0.20496691762E+04  0.20496695697E+04  0.12700000000E+01 0.  1.
         25    2    1    2    0    0  0.00000000000E+00  0.00000000000E+00 -0.20479753811E+04  0.20517866059E+04  0.12500045799E+03 0.  0.
    9000005    1    3    3    0    0 -0.10526076366E+02  0.59940165467E+02 -0.79089581594E+03  0.79323440003E+03  0.10000000000E+01 0.  0.
    9000005    1    3    3    0    0  0.10526076366E+02 -0.59940165467E+02 -0.12570795651E+04  0.12585522058E+04  0.10000000000E+01 0.  0.
<mgrwt>
<rscale>  0 0.12500046E+03</rscale>
<asrwt>0</asrwt>
<pdfrwt beam="1">  1        4 0.29317278E-03 0.12500046E+03</pdfrwt>
<pdfrwt beam="2">  1       -4 0.31536454E+00 0.12500046E+03</pdfrwt>
<totfact> 0.92004062E+02</totfact>
</mgrwt>
</event>
<event>
 5    1  0.3487578E-002  0.1249998E+03  0.7818608E-02  0.1235070E+00
         -4   -1    0    0    0  501 -0.00000000000E+00  0.00000000000E+00  0.15943896986E+02  0.15994397491E+02  0.12700000000E+01 0.  1.
          4   -1    0    0  501    0  0.00000000000E+00 -0.00000000000E+00 -0.24455938439E+03  0.24456268193E+03  0.12700000000E+01 0.  1.
         25    2    1    2    0    0  0.00000000000E+00  0.00000000000E+00 -0.22861548741E+03  0.26055707942E+03  0.12499980222E+03 0.  0.
    9000005    1    3    3    0    0 -0.35364340219E+02 -0.50362354755E+02 -0.13697324350E+03  0.15016548461E+03  0.10000000000E+01 0.  0.
    9000005    1    3    3    0    0  0.35364340219E+02  0.50362354755E+02 -0.91642243910E+02  0.11039159481E+03  0.10000000000E+01 0.  0.
<mgrwt>
<rscale>  0 0.12499980E+03</rscale>
<asrwt>0</asrwt>
<pdfrwt beam="2">  1        4 0.37628656E-01 0.12499980E+03</pdfrwt>
<pdfrwt beam="1">  1       -4 0.24570457E-02 0.12499980E+03</pdfrwt>
<totfact> 0.80828303E+03</totfact>
</mgrwt>
</event>
<event>
 5    1  0.3487578E-002  0.1250118E+03  0.7818608E-02  0.1235051E+00
          4   -1    0    0  501    0  0.00000000000E+00  0.00000000000E+00  0.34367310881E+03  0.34367545536E+03  0.12700000000E+01 0. -1.
         -4   -1    0    0    0  501 -0.00000000000E+00 -0.00000000000E+00 -0.11330461758E+02  0.11401414984E+02  0.12700000000E+01 0. -1.
         25    2    1    2    0    0  0.00000000000E+00  0.00000000000E+00  0.33234264705E+03  0.35507687034E+03  0.12501179467E+03 0.  0.
    9000005    1    3    3    0    0 -0.14895919219E+02 -0.59490576967E+02  0.20037009689E+03  0.20954759098E+03  0.10000000000E+01 0.  0.
    9000005    1    3    3    0    0  0.14895919219E+02  0.59490576967E+02  0.13197255015E+03  0.14552927936E+03  0.10000000000E+01 0.  0.
<mgrwt>
<rscale>  0 0.12501179E+03</rscale>
<asrwt>0</asrwt>
<pdfrwt beam="1">  1        4 0.52878430E-01 0.12501179E+03</pdfrwt>
<pdfrwt beam="2">  1       -4 0.17487862E-02 0.12501179E+03</pdfrwt>
<totfact> 0.69151573E+03</totfact>
</mgrwt>
</event>
<event>
 5    1  0.3487578E-002  0.1250030E+03  0.7818608E-02  0.1235065E+00
         -4   -1    0    0    0  501 -0.00000000000E+00  0.00000000000E+00  0.62347045461E+02  0.62359978975E+02  0.12700000000E+01 0. -1.
          4   -1    0    0  501    0  0.00000000000E+00 -0.00000000000E+00 -0.62630473289E+02  0.62643348285E+02  0.12700000000E+01 0. -1.
         25    2    1    2    0    0  0.00000000000E+00  0.00000000000E+00 -0.28342782707E+00  0.12500332726E+03  0.12500300594E+03 0.  0.
    9000005    1    3    3    0    0  0.19605331159E+02  0.58580519374E+02  0.93130242250E+01  0.62480226314E+02  0.10000000000E+01 0.  0.
    9000005    1    3    3    0    0 -0.19605331159E+02 -0.58580519374E+02 -0.95964520521E+01  0.62523100946E+02  0.10000000000E+01 0.  0.
<mgrwt>
<rscale>  0 0.12500301E+03</rscale>
<asrwt>0</asrwt>
<pdfrwt beam="2">  1        4 0.96374427E-02 0.12500301E+03</pdfrwt>
<pdfrwt beam="1">  1       -4 0.95938384E-02 0.12500301E+03</pdfrwt>
<totfact> 0.10452080E+04</totfact>
</mgrwt>
</event>
<event>
 5    1  0.3487578E-002  0.1250026E+03  0.7818608E-02  0.1235065E+00
         -4   -1    0    0    0  501 -0.00000000000E+00  0.00000000000E+00  0.24301266023E+02  0.24334428909E+02  0.12700000000E+01 0. -1.
          4   -1    0    0  501    0  0.00000000000E+00 -0.00000000000E+00 -0.16060417292E+03  0.16060919419E+03  0.12700000000E+01 0. -1.
         25    2    1    2    0    0  0.00000000000E+00  0.00000000000E+00 -0.13630290690E+03  0.18494362310E+03  0.12500264516E+03 0.  0.
    9000005    1    3    3    0    0 -0.57138358706E+02 -0.17114401705E+02 -0.95740413657E+02  0.11280479417E+03  0.10000000000E+01 0.  0.
    9000005    1    3    3    0    0  0.57138358706E+02  0.17114401705E+02 -0.40562493241E+02  0.72138828929E+02  0.10000000000E+01 0.  0.
<mgrwt>
<rscale>  0 0.12500265E+03</rscale>
<asrwt>0</asrwt>
<pdfrwt beam="2">  1        4 0.24711271E-01 0.12500265E+03</pdfrwt>
<pdfrwt beam="1">  1       -4 0.37415936E-02 0.12500265E+03</pdfrwt>
<totfact> 0.92729131E+03</totfact>
</mgrwt>
</event>
<event>
 5    1  0.3487578E-002  0.1250015E+03  0.7818608E-02  0.1235067E+00
         -4   -1    0    0    0  501 -0.00000000000E+00  0.00000000000E+00  0.24865778716E+02  0.24898189717E+02  0.12700000000E+01 0. -1.
          4   -1    0    0  501    0  0.00000000000E+00 -0.00000000000E+00 -0.15695985213E+03  0.15696498999E+03  0.12700000000E+01 0. -1.
         25    2    1    2    0    0  0.00000000000E+00  0.00000000000E+00 -0.13209407342E+03  0.18186317971E+03  0.12500148759E+03 0.  0.
    9000005    1    3    3    0    0 -0.56773628534E+02 -0.43760378936E+01 -0.10350718156E+03  0.11814030320E+03  0.10000000000E+01 0.  0.
    9000005    1    3    3    0    0  0.56773628534E+02  0.43760378936E+01 -0.28586891859E+02  0.63722876510E+02  0.10000000000E+01 0.  0.
<mgrwt>
<rscale>  0 0.12500149E+03</rscale>
<asrwt>0</asrwt>
<pdfrwt beam="2">  1        4 0.24150557E-01 0.12500149E+03</pdfrwt>
<pdfrwt beam="1">  1       -4 0.38283929E-02 0.12500149E+03</pdfrwt>
<totfact> 0.93279585E+03</totfact>
</mgrwt>
</event>
<event>
 5    1  0.3487578E-002  0.1250003E+03  0.7818608E-02  0.1235069E+00
          4   -1    0    0  501    0  0.00000000000E+00  0.00000000000E+00  0.14345231211E+03  0.14345793373E+03  0.12700000000E+01 0. -1.
         -4   -1    0    0    0  501 -0.00000000000E+00 -0.00000000000E+00 -0.27209486155E+02  0.27239108591E+02  0.12700000000E+01 0. -1.
         25    2    1    2    0    0  0.00000000000E+00  0.00000000000E+00  0.11624282596E+03  0.17069704232E+03  0.12500034268E+03 0.  0.
    9000005    1    3    3    0    0 -0.21316098125E+02 -0.21283292683E+02 -0.16648105318E+02  0.34431293867E+02  0.10000000000E+01 0.  0.
    9000005    1    3    3    0    0  0.21316098125E+02  0.21283292683E+02  0.13289093127E+03  0.13626574845E+03  0.10000000000E+01 0.  0.
<mgrwt>
<rscale>  0 0.12500034E+03</rscale>
<asrwt>0</asrwt>
<pdfrwt beam="1">  1        4 0.22072298E-01 0.12500034E+03</pdfrwt>
<pdfrwt beam="2">  1       -4 0.41887858E-02 0.12500034E+03</pdfrwt>
<totfact> 0.95318143E+03</totfact>
</mgrwt>
</event>
<event>
 5    1  0.3487578E-002  0.1249984E+03  0.7818608E-02  0.1235072E+00
         -4   -1    0    0    0  501 -0.00000000000E+00  0.00000000000E+00  0.10799173691E+02  0.10873594273E+02  0.12700000000E+01 0.  1.
          4   -1    0    0  501    0  0.00000000000E+00 -0.00000000000E+00 -0.36039044776E+03  0.36039268546E+03  0.12700000000E+01 0.  1.
         25    2    1    2    0    0  0.00000000000E+00  0.00000000000E+00 -0.34959127407E+03  0.37126627974E+03  0.12499836625E+03 0.  0.
    9000005    1    3    3    0    0 -0.42579852022E+02 -0.44441588158E+02 -0.20692970035E+03  0.21589117500E+03  0.10000000000E+01 0.  0.
    9000005    1    3    3    0    0  0.42579852022E+02  0.44441588158E+02 -0.14266157371E+03  0.15537510473E+03  0.10000000000E+01 0.  0.
<mgrwt>
<rscale>  0 0.12499837E+03</rscale>
<asrwt>0</asrwt>
<pdfrwt beam="2">  1        4 0.55450572E-01 0.12499837E+03</pdfrwt>
<pdfrwt beam="1">  1       -4 0.16673084E-02 0.12499837E+03</pdfrwt>
<totfact> 0.67449109E+03</totfact>
</mgrwt>
</event>
<event>
 5    1  0.3487578E-002  0.1250002E+03  0.7818608E-02  0.1235069E+00
         -4   -1    0    0    0  501 -0.00000000000E+00  0.00000000000E+00  0.12376294185E+02  0.12441284409E+02  0.12700000000E+01 0. -1.
          4   -1    0    0  501    0  0.00000000000E+00 -0.00000000000E+00 -0.31473172468E+03  0.31473428701E+03  0.12700000000E+01 0. -1.
         25    2    1    2    0    0  0.00000000000E+00  0.00000000000E+00 -0.30235543050E+03  0.32717557142E+03  0.12500019273E+03 0.  0.
    9000005    1    3    3    0    0  0.28234847832E+02  0.22164620512E+02 -0.17285844769E+02  0.39853198917E+02  0.10000000000E+01 0.  0.
    9000005    1    3    3    0    0 -0.28234847832E+02 -0.22164620512E+02 -0.28506958573E+03  0.28732237250E+03  0.10000000000E+01 0.  0.
<mgrwt>
<rscale>  0 0.12500019E+03</rscale>
<asrwt>0</asrwt>
<pdfrwt beam="2">  1        4 0.48425456E-01 0.12500019E+03</pdfrwt>
<pdfrwt beam="1">  1       -4 0.19092418E-02 0.12500019E+03</pdfrwt>
<totfact> 0.72310430E+03</totfact>
</mgrwt>
</event>
<event>
 5    1  0.3487578E-002  0.1250054E+03  0.7818608E-02  0.1235061E+00
         -4   -1    0    0    0  501 -0.00000000000E+00  0.00000000000E+00  0.70757322250E+01  0.71888028572E+01  0.12700000000E+01 0. -1.
          4   -1    0    0  501    0  0.00000000000E+00 -0.00000000000E+00 -0.54762021040E+03  0.54762168304E+03  0.12700000000E+01 0. -1.
         25    2    1    2    0    0  0.00000000000E+00  0.00000000000E+00 -0.54054447817E+03  0.55481048590E+03  0.12500536940E+03 0.  0.
    9000005    1    3    3    0    0 -0.54410598347E+02  0.17696808221E+02 -0.15870451435E+03  0.16870629244E+03  0.10000000000E+01 0.  0.
    9000005    1    3    3    0    0  0.54410598347E+02 -0.17696808221E+02 -0.38183996382E+03  0.38610419346E+03  0.10000000000E+01 0.  0.
<mgrwt>
<rscale>  0 0.12500537E+03</rscale>
<asrwt>0</asrwt>
<pdfrwt beam="2">  1        4 0.84258041E-01 0.12500537E+03</pdfrwt>
<pdfrwt beam="1">  1       -4 0.10973856E-02 0.12500537E+03</pdfrwt>
<totfact> 0.51844176E+03</totfact>
</mgrwt>
</event>
<event>
 5    1  0.3487578E-002  0.1250006E+03  0.7818608E-02  0.1235068E+00
         -4   -1    0    0    0  501 -0.00000000000E+00  0.00000000000E+00  0.51954510300E+02  0.51970030215E+02  0.12700000000E+01 0.  1.
          4   -1    0    0  501    0  0.00000000000E+00 -0.00000000000E+00 -0.75154616697E+02  0.75165346477E+02  0.12700000000E+01 0.  1.
         25    2    1    2    0    0  0.00000000000E+00  0.00000000000E+00 -0.23200106398E+02  0.12713537669E+03  0.12500063628E+03 0.  0.
    9000005    1    3    3    0    0  0.30447591132E+02 -0.41618695597E+01 -0.66943601421E+02  0.73666971807E+02  0.10000000000E+01 0.  0.
    9000005    1    3    3    0    0 -0.30447591132E+02  0.41618695597E+01  0.43743495023E+02  0.53468404884E+02  0.10000000000E+01 0.  0.
<mgrwt>
<rscale>  0 0.12500064E+03</rscale>
<asrwt>0</asrwt>
<pdfrwt beam="2">  1        4 0.11564268E-01 0.12500064E+03</pdfrwt>
<pdfrwt beam="1">  1       -4 0.79950208E-02 0.12500064E+03</pdfrwt>
<totfact> 0.10406056E+04</totfact>
</mgrwt>
</event>
<event>
 5    1  0.3487578E-002  0.1249990E+03  0.7818608E-02  0.1235071E+00
          4   -1    0    0  501    0  0.00000000000E+00  0.00000000000E+00  0.27794600697E+03  0.27794890842E+03  0.12700000000E+01 0.  1.
         -4   -1    0    0    0  501 -0.00000000000E+00 -0.00000000000E+00 -0.14022084075E+02  0.14079479458E+02  0.12700000000E+01 0.  1.
         25    2    1    2    0    0  0.00000000000E+00  0.00000000000E+00  0.26392392290E+03  0.29202838788E+03  0.12499896899E+03 0.  0.
    9000005    1    3    3    0    0 -0.22056855759E+01  0.56499695135E+02  0.69793880811E+02  0.89829095497E+02  0.10000000000E+01 0.  0.
    9000005    1    3    3    0    0  0.22056855759E+01 -0.56499695135E+02  0.19413004208E+03  0.20219929238E+03  0.10000000000E+01 0.  0.
<mgrwt>
<rscale>  0 0.12499897E+03</rscale>
<asrwt>0</asrwt>
<pdfrwt beam="1">  1        4 0.42765558E-01 0.12499897E+03</pdfrwt>
<pdfrwt beam="2">  1       -4 0.21618821E-02 0.12499897E+03</pdfrwt>
<totfact> 0.76611544E+03</totfact>
</mgrwt>
</event>
<event>
 5    1  0.3487578E-002  0.1249987E+03  0.7818608E-02  0.1235071E+00
         -4   -1    0    0    0  501 -0.00000000000E+00  0.00000000000E+00  0.18078580272E+03  0.18079026347E+03  0.12700000000E+01 0.  1.
          4   -1    0    0  501    0  0.00000000000E+00 -0.00000000000E+00 -0.21583207772E+02  0.21620540181E+02  0.12700000000E+01 0.  1.
         25    2    1    2    0    0  0.00000000000E+00  0.00000000000E+00  0.15920259495E+03  0.20241080365E+03  0.12499866878E+03 0.  0.
    9000005    1    3    3    0    0  0.40594769173E+02 -0.35401691780E+02  0.13090925404E+03  0.14156075678E+03  0.10000000000E+01 0.  0.
    9000005    1    3    3    0    0 -0.40594769173E+02  0.35401691780E+02  0.28293340908E+02  0.60850046876E+02  0.10000000000E+01 0.  0.
<mgrwt>
<rscale>  0 0.12499867E+03</rscale>
<asrwt>0</asrwt>
<pdfrwt beam="2">  1        4 0.33237083E-02 0.12499867E+03</pdfrwt>
<pdfrwt beam="1">  1       -4 0.27816416E-01 0.12499867E+03</pdfrwt>
<totfact> 0.89733163E+03</totfact>
</mgrwt>
</event>
<event>
 5    1  0.3487578E-002  0.1249996E+03  0.7818608E-02  0.1235070E+00
         -4   -1    0    0    0  501 -0.00000000000E+00  0.00000000000E+00  0.33943693659E+03  0.33943931243E+03  0.12700000000E+01 0.  1.
          4   -1    0    0  501    0  0.00000000000E+00 -0.00000000000E+00 -0.11470492149E+02  0.11540584480E+02  0.12700000000E+01 0.  1.
         25    2    1    2    0    0  0.00000000000E+00  0.00000000000E+00  0.32796644444E+03  0.35097989691E+03  0.12499959741E+03 0.  0.
    9000005    1    3    3    0    0 -0.66945507652E+01 -0.61997419843E+02  0.17546720515E+03  0.18622093642E+03  0.10000000000E+01 0.  0.
    9000005    1    3    3    0    0  0.66945507652E+01  0.61997419843E+02  0.15249923929E+03  0.16475896049E+03  0.10000000000E+01 0.  0.
<mgrwt>
<rscale>  0 0.12499960E+03</rscale>
<asrwt>0</asrwt>
<pdfrwt beam="2">  1        4 0.17702657E-02 0.12499960E+03</pdfrwt>
<pdfrwt beam="1">  1       -4 0.52226639E-01 0.12499960E+03</pdfrwt>
<totfact> 0.69617510E+03</totfact>
</mgrwt>
</event>
<event>
 5    1  0.3487578E-002  0.1249873E+03  0.7818608E-02  0.1235089E+00
         -4   -1    0    0    0  501 -0.00000000000E+00  0.00000000000E+00  0.83328880923E+02  0.83338558278E+02  0.12700000000E+01 0. -1.
          4   -1    0    0  501    0  0.00000000000E+00 -0.00000000000E+00 -0.46846999906E+02  0.46864211294E+02  0.12700000000E+01 0. -1.
         25    2    1    2    0    0  0.00000000000E+00  0.00000000000E+00  0.36481881017E+02  0.13020276957E+03  0.12498733360E+03 0.  0.
    9000005    1    3    3    0    0 -0.33581823665E+02  0.33564760023E+02  0.60557741067E+02  0.76958248415E+02  0.10000000000E+01 0.  0.
    9000005    1    3    3    0    0  0.33581823665E+02 -0.33564760023E+02 -0.24075860050E+02  0.53244521156E+02  0.10000000000E+01 0.  0.
<mgrwt>
<rscale>  0 0.12498733E+03</rscale>
<asrwt>0</asrwt>
<pdfrwt beam="2">  1        4 0.72092991E-02 0.12498733E+03</pdfrwt>
<pdfrwt beam="1">  1       -4 0.12821896E-01 0.12498733E+03</pdfrwt>
<totfact> 0.10343129E+04</totfact>
</mgrwt>
</event>
<event>
 5    1  0.3487578E-002  0.1249953E+03  0.7818608E-02  0.1235077E+00
          4   -1    0    0  501    0  0.00000000000E+00  0.00000000000E+00  0.83971016150E+02  0.83980619510E+02  0.12700000000E+01 0. -1.
         -4   -1    0    0    0  501 -0.00000000000E+00 -0.00000000000E+00 -0.46494615743E+02  0.46511957528E+02  0.12700000000E+01 0. -1.
         25    2    1    2    0    0  0.00000000000E+00  0.00000000000E+00  0.37476400407E+02  0.13049257704E+03  0.12499532821E+03 0.  0.
    9000005    1    3    3    0    0 -0.27686305708E+02 -0.10538032361E+02 -0.38703228717E+02  0.48749580131E+02  0.10000000000E+01 0.  0.
    9000005    1    3    3    0    0  0.27686305708E+02  0.10538032361E+02  0.76179629124E+02  0.81742996907E+02  0.10000000000E+01 0.  0.
<mgrwt>
<rscale>  0 0.12499533E+03</rscale>
<asrwt>0</asrwt>
<pdfrwt beam="1">  1        4 0.12920690E-01 0.12499533E+03</pdfrwt>
<pdfrwt beam="2">  1       -4 0.71550906E-02 0.12499533E+03</pdfrwt>
<totfact> 0.10335069E+04</totfact>
</mgrwt>
</event>
<event>
 5    1  0.3487578E-002  0.1250043E+03  0.7818608E-02  0.1235063E+00
          4   -1    0    0  501    0  0.00000000000E+00  0.00000000000E+00  0.22318980306E+02  0.22355084028E+02  0.12700000000E+01 0.  1.
         -4   -1    0    0    0  501 -0.00000000000E+00 -0.00000000000E+00 -0.17485133524E+03  0.17485594738E+03  0.12700000000E+01 0.  1.
         25    2    1    2    0    0  0.00000000000E+00  0.00000000000E+00 -0.15253235493E+03  0.19721103141E+03  0.12500428636E+03 0.  0.
    9000005    1    3    3    0    0 -0.44171202036E+02  0.40042557938E+02 -0.10582383294E+03  0.12146680680E+03  0.10000000000E+01 0.  0.
    9000005    1    3    3    0    0  0.44171202036E+02 -0.40042557938E+02 -0.46708521995E+02  0.75744224615E+02  0.10000000000E+01 0.  0.
<mgrwt>
<rscale>  0 0.12500429E+03</rscale>
<asrwt>0</asrwt>
<pdfrwt beam="1">  1        4 0.34368214E-02 0.12500429E+03</pdfrwt>
<pdfrwt beam="2">  1       -4 0.26903336E-01 0.12500429E+03</pdfrwt>
<totfact> 0.90598844E+03</totfact>
</mgrwt>
</event>
<event>
 5    1  0.3487578E-002  0.1250003E+03  0.7818608E-02  0.1235069E+00
         -4   -1    0    0    0  501 -0.00000000000E+00  0.00000000000E+00  0.48322469415E+03  0.48322636304E+03  0.12700000000E+01 0.  1.
          4   -1    0    0  501    0  0.00000000000E+00 -0.00000000000E+00 -0.80321716009E+01  0.81319542932E+01  0.12700000000E+01 0.  1.
         25    2    1    2    0    0  0.00000000000E+00  0.00000000000E+00  0.47519252255E+03  0.49135831733E+03  0.12500025010E+03 0.  0.
    9000005    1    3    3    0    0 -0.18326337387E+02  0.39452840137E+02  0.61237578532E+02  0.75122714683E+02  0.10000000000E+01 0.  0.
    9000005    1    3    3    0    0  0.18326337387E+02 -0.39452840137E+02  0.41395494402E+03  0.41623560265E+03  0.10000000000E+01 0.  0.
<mgrwt>
<rscale>  0 0.12500025E+03</rscale>
<asrwt>0</asrwt>
<pdfrwt beam="2">  1        4 0.12435231E-02 0.12500025E+03</pdfrwt>
<pdfrwt beam="1">  1       -4 0.74350041E-01 0.12500025E+03</pdfrwt>
<totfact> 0.56540843E+03</totfact>
</mgrwt>
</event>
<event>
 4    1  0.3487578E-002  0.1247773E+03  0.7818608E-02  0.1235418E+00
         -4   -1    0    0    0  501 -0.00000000000E+00  0.00000000000E+00  0.26854536475E+01  0.29706163153E+01  0.12700000000E+01 0. -1.
          4   -1    0    0  501    0  0.00000000000E+00 -0.00000000000E+00 -0.13760569164E+04  0.13760575025E+04  0.12700000000E+01 0. -1.
    9000005    1    1    2    0    0 -0.22732582972E+02  0.17565853303E+02 -0.12986479697E+04  0.12989660807E+04  0.10000000000E+01 0.  0.
    9000005    1    1    2    0    0  0.22732582972E+02 -0.17565853303E+02 -0.74723493034E+02  0.80062038083E+02  0.10000000000E+01 0.  0.
<mgrwt>
<rscale>  0 0.12477731E+03</rscale>
<asrwt>0</asrwt>
<pdfrwt beam="2">  1        4 0.21172251E+00 0.12477731E+03</pdfrwt>
<pdfrwt beam="1">  1       -4 0.43512849E-03 0.12477731E+03</pdfrwt>
<totfact> 0.20535243E+03</totfact>
</mgrwt>
</event>
<event>
 5    1  0.3487578E-002  0.1250004E+03  0.7818608E-02  0.1235069E+00
          4   -1    0    0  501    0  0.00000000000E+00  0.00000000000E+00  0.28151335224E+02  0.28179967617E+02  0.12700000000E+01 0.  1.
         -4   -1    0    0    0  501 -0.00000000000E+00 -0.00000000000E+00 -0.13865781595E+03  0.13866363195E+03  0.12700000000E+01 0.  1.
         25    2    1    2    0    0  0.00000000000E+00  0.00000000000E+00 -0.11050648073E+03  0.16684359956E+03  0.12500041773E+03 0.  0.
    9000005    1    3    3    0    0 -0.40451402875E+01 -0.57398106454E+02 -0.87793921950E+02  0.10497465654E+03  0.10000000000E+01 0.  0.
    9000005    1    3    3    0    0  0.40451402875E+01  0.57398106454E+02 -0.22712558777E+02  0.61868943022E+02  0.10000000000E+01 0.  0.
<mgrwt>
<rscale>  0 0.12500042E+03</rscale>
<asrwt>0</asrwt>
<pdfrwt beam="1">  1        4 0.43336246E-02 0.12500042E+03</pdfrwt>
<pdfrwt beam="2">  1       -4 0.21334621E-01 0.12500042E+03</pdfrwt>
<totfact> 0.96038478E+03</totfact>
</mgrwt>
</event>
<event>
 5    1  0.3487578E-002  0.1250095E+03  0.7818608E-02  0.1235054E+00
          4   -1    0    0  501    0  0.00000000000E+00  0.00000000000E+00  0.17624546589E+03  0.17625004155E+03  0.12700000000E+01 0.  1.
         -4   -1    0    0    0  501 -0.00000000000E+00 -0.00000000000E+00 -0.22144014327E+02  0.22180402848E+02  0.12700000000E+01 0.  1.
         25    2    1    2    0    0  0.00000000000E+00  0.00000000000E+00  0.15410145156E+03  0.19843044440E+03  0.12500953520E+03 0.  0.
    9000005    1    3    3    0    0 -0.33988258244E+02 -0.13486774392E+01  0.16027283867E+03  0.16384566960E+03  0.10000000000E+01 0.  0.
    9000005    1    3    3    0    0  0.33988258244E+02  0.13486774392E+01 -0.61713871089E+01  0.34584774803E+02  0.10000000000E+01 0.  0.
<mgrwt>
<rscale>  0 0.12500954E+03</rscale>
<asrwt>0</asrwt>
<pdfrwt beam="1">  1        4 0.27117839E-01 0.12500954E+03</pdfrwt>
<pdfrwt beam="2">  1       -4 0.34099225E-02 0.12500954E+03</pdfrwt>
<totfact> 0.90381492E+03</totfact>
</mgrwt>
</event>
<event>
 4    1  0.3487578E-002  0.1252395E+03  0.7818608E-02  0.1234695E+00
          4   -1    0    0  501    0  0.00000000000E+00  0.00000000000E+00  0.27352588505E+03  0.27352883338E+03  0.12700000000E+01 0.  1.
         -4   -1    0    0    0  501 -0.00000000000E+00 -0.00000000000E+00 -0.14304711338E+02  0.14360977211E+02  0.12700000000E+01 0.  1.
    9000005    1    1    2    0    0  0.86646034637E+01 -0.17928826563E+02  0.26606429480E+03  0.26681028305E+03  0.10000000000E+01 0.  0.
    9000005    1    1    2    0    0 -0.86646034637E+01  0.17928826563E+02 -0.68431210899E+01  0.21079527541E+02  0.10000000000E+01 0.  0.
<mgrwt>
<rscale>  0 0.12523948E+03</rscale>
<asrwt>0</asrwt>
<pdfrwt beam="1">  1        4 0.42085462E-01 0.12523948E+03</pdfrwt>
<pdfrwt beam="2">  1       -4 0.22052797E-02 0.12523948E+03</pdfrwt>
<totfact> 0.76734473E+03</totfact>
</mgrwt>
</event>
<event>
 5    1  0.3487578E-002  0.1250003E+03  0.7818608E-02  0.1235069E+00
          4   -1    0    0  501    0  0.00000000000E+00  0.00000000000E+00  0.30259628827E+02  0.30286268122E+02  0.12700000000E+01 0. -1.
         -4   -1    0    0    0  501 -0.00000000000E+00 -0.00000000000E+00 -0.12900529673E+03  0.12901154787E+03  0.12700000000E+01 0. -1.
         25    2    1    2    0    0  0.00000000000E+00  0.00000000000E+00 -0.98745667902E+02  0.15929781599E+03  0.12500034900E+03 0.  0.
    9000005    1    3    3    0    0 -0.55380929759E+02  0.10341612669E+02 -0.83834724718E+02  0.10101117464E+03  0.10000000000E+01 0.  0.
    9000005    1    3    3    0    0  0.55380929759E+02 -0.10341612669E+02 -0.14910943183E+02  0.58286641353E+02  0.10000000000E+01 0.  0.
<mgrwt>
<rscale>  0 0.12500035E+03</rscale>
<asrwt>0</asrwt>
<pdfrwt beam="1">  1        4 0.46578576E-02 0.12500035E+03</pdfrwt>
<pdfrwt beam="2">  1       -4 0.19849499E-01 0.12500035E+03</pdfrwt>
<totfact> 0.97477567E+03</totfact>
</mgrwt>
</event>
<event>
 5    1  0.3487578E-002  0.1249991E+03  0.7818608E-02  0.1235071E+00
          4   -1    0    0  501    0  0.00000000000E+00  0.00000000000E+00  0.26214361928E+02  0.26245107569E+02  0.12700000000E+01 0.  1.
         -4   -1    0    0    0  501 -0.00000000000E+00 -0.00000000000E+00 -0.14888895619E+03  0.14889437254E+03  0.12700000000E+01 0.  1.
         25    2    1    2    0    0  0.00000000000E+00  0.00000000000E+00 -0.12267459426E+03  0.17513948011E+03  0.12499912567E+03 0.  0.
    9000005    1    3    3    0    0  0.46392989431E+02  0.20054499979E+01 -0.27430326632E+01  0.46528007976E+02  0.10000000000E+01 0.  0.
    9000005    1    3    3    0    0 -0.46392989431E+02 -0.20054499979E+01 -0.11993156160E+03  0.12861147214E+03  0.10000000000E+01 0.  0.
<mgrwt>
<rscale>  0 0.12499913E+03</rscale>
<asrwt>0</asrwt>
<pdfrwt beam="1">  1        4 0.40357606E-02 0.12499913E+03</pdfrwt>
<pdfrwt beam="2">  1       -4 0.22908774E-01 0.12499913E+03</pdfrwt>
<totfact> 0.94501155E+03</totfact>
</mgrwt>
</event>
<event>
 5    1  0.3487578E-002  0.1249979E+03  0.7818608E-02  0.1235073E+00
          4   -1    0    0  501    0  0.00000000000E+00  0.00000000000E+00  0.80978780609E+02  0.80988738779E+02  0.12700000000E+01 0.  1.
         -4   -1    0    0    0  501 -0.00000000000E+00 -0.00000000000E+00 -0.48215046815E+02  0.48231770021E+02  0.12700000000E+01 0.  1.
         25    2    1    2    0    0  0.00000000000E+00  0.00000000000E+00  0.32763733794E+02  0.12922050880E+03  0.12499791055E+03 0.  0.
    9000005    1    3    3    0    0  0.79640826001E+01 -0.47680487598E+02  0.57320964563E+02  0.74990322627E+02  0.10000000000E+01 0.  0.
    9000005    1    3    3    0    0 -0.79640826001E+01  0.47680487598E+02 -0.24557230768E+02  0.54230186172E+02  0.10000000000E+01 0.  0.
<mgrwt>
<rscale>  0 0.12499791E+03</rscale>
<asrwt>0</asrwt>
<pdfrwt beam="1">  1        4 0.12460326E-01 0.12499791E+03</pdfrwt>
<pdfrwt beam="2">  1       -4 0.74197519E-02 0.12499791E+03</pdfrwt>
<totfact> 0.10361700E+04</totfact>
</mgrwt>
</event>
<event>
 5    1  0.3487578E-002  0.1250019E+03  0.7818608E-02  0.1235066E+00
          4   -1    0    0  501    0  0.00000000000E+00  0.00000000000E+00  0.60577689823E+03  0.60577822949E+03  0.12700000000E+01 0. -1.
         -4   -1    0    0    0  501 -0.00000000000E+00 -0.00000000000E+00 -0.63846509750E+01  0.65097364057E+01  0.12700000000E+01 0. -1.
         25    2    1    2    0    0  0.00000000000E+00  0.00000000000E+00  0.59939224725E+03  0.61228796590E+03  0.12500194845E+03 0.  0.
    9000005    1    3    3    0    0 -0.58863516529E+01 -0.48770347283E+02  0.11048400550E+03  0.12091696068E+03  0.10000000000E+01 0.  0.
    9000005    1    3    3    0    0  0.58863516529E+01  0.48770347283E+02  0.48890824175E+03  0.49137100521E+03  0.10000000000E+01 0.  0.
<mgrwt>
<rscale>  0 0.12500195E+03</rscale>
<asrwt>0</asrwt>
<pdfrwt beam="1">  1        4 0.93206156E-01 0.12500195E+03</pdfrwt>
<pdfrwt beam="2">  1       -4 0.99197851E-03 0.12500195E+03</pdfrwt>
<totfact> 0.48098983E+03</totfact>
</mgrwt>
</event>
<event>
 5    1  0.3487578E-002  0.1250003E+03  0.7818608E-02  0.1235069E+00
          4   -1    0    0  501    0  0.00000000000E+00  0.00000000000E+00  0.37903856914E+03  0.37904069676E+03  0.12700000000E+01 0.  1.
         -4   -1    0    0    0  501 -0.00000000000E+00 -0.00000000000E+00 -0.10264432319E+02  0.10342701332E+02  0.12700000000E+01 0.  1.
         25    2    1    2    0    0  0.00000000000E+00  0.00000000000E+00  0.36877413682E+03  0.38938339809E+03  0.12500026687E+03 0.  0.
    9000005    1    3    3    0    0  0.60946161141E+01 -0.60999769085E+02  0.14659963721E+03  0.15890427875E+03  0.10000000000E+01 0.  0.
    9000005    1    3    3    0    0 -0.60946161141E+01  0.60999769085E+02  0.22217449961E+03  0.23047911934E+03  0.10000000000E+01 0.  0.
<mgrwt>
<rscale>  0 0.12500027E+03</rscale>
<asrwt>0</asrwt>
<pdfrwt beam="1">  1        4 0.58319807E-01 0.12500027E+03</pdfrwt>
<pdfrwt beam="2">  1       -4 0.15853279E-02 0.12500027E+03</pdfrwt>
<totfact> 0.65598226E+03</totfact>
</mgrwt>
</event>
<event>
 5    1  0.3487578E-002  0.1250006E+03  0.7818608E-02  0.1235068E+00
          4   -1    0    0  501    0  0.00000000000E+00  0.00000000000E+00  0.96376904162E+03  0.96376987838E+03  0.12700000000E+01 0.  1.
         -4   -1    0    0    0  501 -0.00000000000E+00 -0.00000000000E+00 -0.39527940410E+01  0.41518045149E+01  0.12700000000E+01 0.  1.
         25    2    1    2    0    0  0.00000000000E+00  0.00000000000E+00  0.95981624758E+03  0.96792168290E+03  0.12500062045E+03 0.  0.
    9000005    1    3    3    0    0  0.20591020018E+02  0.11102611289E+02  0.92862291019E+03  0.92891806281E+03  0.10000000000E+01 0.  0.
    9000005    1    3    3    0    0 -0.20591020018E+02 -0.11102611289E+02  0.31193337387E+02  0.39003620090E+02  0.10000000000E+01 0.  0.
<mgrwt>
<rscale>  0 0.12500062E+03</rscale>
<asrwt>0</asrwt>
<pdfrwt beam="1">  1        4 0.14828761E+00 0.12500062E+03</pdfrwt>
<pdfrwt beam="2">  1       -4 0.62349469E-03 0.12500062E+03</pdfrwt>
<totfact> 0.31687658E+03</totfact>
</mgrwt>
</event>
<event>
 5    1  0.3487578E-002  0.1250040E+03  0.7818608E-02  0.1235063E+00
         -4   -1    0    0    0  501 -0.00000000000E+00  0.00000000000E+00  0.38141189466E+02  0.38162327416E+02  0.12700000000E+01 0.  1.
          4   -1    0    0  501    0  0.00000000000E+00 -0.00000000000E+00 -0.10236857331E+03  0.10237645091E+03  0.12700000000E+01 0.  1.
         25    2    1    2    0    0  0.00000000000E+00  0.00000000000E+00 -0.64227383844E+02  0.14053877833E+03  0.12500396545E+03 0.  0.
    9000005    1    3    3    0    0  0.14205608326E+02 -0.97515860524E+01  0.35423354443E+02  0.39404400496E+02  0.10000000000E+01 0.  0.
    9000005    1    3    3    0    0 -0.14205608326E+02  0.97515860524E+01 -0.99650738287E+02  0.10113437783E+03  0.10000000000E+01 0.  0.
<mgrwt>
<rscale>  0 0.12500397E+03</rscale>
<asrwt>0</asrwt>
<pdfrwt beam="2">  1        4 0.15751243E-01 0.12500397E+03</pdfrwt>
<pdfrwt beam="1">  1       -4 0.58701073E-02 0.12500397E+03</pdfrwt>
<totfact> 0.10121527E+04</totfact>
</mgrwt>
</event>
<event>
 5    1  0.3487578E-002  0.1249991E+03  0.7818608E-02  0.1235071E+00
         -4   -1    0    0    0  501 -0.00000000000E+00  0.00000000000E+00  0.38745067364E+01  0.40773401196E+01  0.12700000000E+01 0.  1.
          4   -1    0    0  501    0  0.00000000000E+00 -0.00000000000E+00 -0.98225947659E+03  0.98226029761E+03  0.12700000000E+01 0.  1.
         25    2    1    2    0    0  0.00000000000E+00  0.00000000000E+00 -0.97838496986E+03  0.98633763773E+03  0.12499914542E+03 0.  0.
    9000005    1    3    3    0    0 -0.78568366265E+01  0.58627788563E+02 -0.64823556436E+03  0.65092956176E+03  0.10000000000E+01 0.  0.
    9000005    1    3    3    0    0  0.78568366265E+01 -0.58627788563E+02 -0.33014940550E+03  0.33540807597E+03  0.10000000000E+01 0.  0.
<mgrwt>
<rscale>  0 0.12499915E+03</rscale>
<asrwt>0</asrwt>
<pdfrwt beam="2">  1        4 0.15113232E+00 0.12499915E+03</pdfrwt>
<pdfrwt beam="1">  1       -4 0.61174446E-03 0.12499915E+03</pdfrwt>
<totfact> 0.31060550E+03</totfact>
</mgrwt>
</event>
<event>
 5    1  0.3487578E-002  0.1249996E+03  0.7818608E-02  0.1235070E+00
          4   -1    0    0  501    0  0.00000000000E+00  0.00000000000E+00  0.34628060897E+02  0.34651341986E+02  0.12700000000E+01 0.  1.
         -4   -1    0    0    0  501 -0.00000000000E+00 -0.00000000000E+00 -0.11274041721E+03  0.11274757014E+03  0.12700000000E+01 0.  1.
         25    2    1    2    0    0  0.00000000000E+00  0.00000000000E+00 -0.78112356313E+02  0.14739891213E+03  0.12499959635E+03 0.  0.
    9000005    1    3    3    0    0 -0.35748697828E+02 -0.45250464391E+01  0.21149548432E+02  0.41794124474E+02  0.10000000000E+01 0.  0.
    9000005    1    3    3    0    0  0.35748697828E+02  0.45250464391E+01 -0.99261904745E+02  0.10560478765E+03  0.10000000000E+01 0.  0.
<mgrwt>
<rscale>  0 0.12499960E+03</rscale>
<asrwt>0</asrwt>
<pdfrwt beam="1">  1        4 0.53297351E-02 0.12499960E+03</pdfrwt>
<pdfrwt beam="2">  1       -4 0.17347021E-01 0.12499960E+03</pdfrwt>
<totfact> 0.99825643E+03</totfact>
</mgrwt>
</event>
<event>
 5    1  0.3487578E-002  0.1249993E+03  0.7818608E-02  0.1235070E+00
          4   -1    0    0  501    0  0.00000000000E+00  0.00000000000E+00  0.98102233483E+02  0.98110453644E+02  0.12700000000E+01 0.  1.
         -4   -1    0    0    0  501 -0.00000000000E+00 -0.00000000000E+00 -0.39797693604E+02  0.39817952184E+02  0.12700000000E+01 0.  1.
         25    2    1    2    0    0  0.00000000000E+00  0.00000000000E+00  0.58304539879E+02  0.13792840583E+03  0.12499930305E+03 0.  0.
    9000005    1    3    3    0    0 -0.24741556782E+02  0.56954052558E+02  0.36899732410E+02  0.72239179029E+02  0.10000000000E+01 0.  0.
    9000005    1    3    3    0    0  0.24741556782E+02 -0.56954052558E+02  0.21404807469E+02  0.65689226800E+02  0.10000000000E+01 0.  0.
<mgrwt>
<rscale>  0 0.12499930E+03</rscale>
<asrwt>0</asrwt>
<pdfrwt beam="1">  1        4 0.15094842E-01 0.12499930E+03</pdfrwt>
<pdfrwt beam="2">  1       -4 0.61249129E-02 0.12499930E+03</pdfrwt>
<totfact> 0.10176862E+04</totfact>
</mgrwt>
</event>
<event>
 5    1  0.3487578E-002  0.1250009E+03  0.7818608E-02  0.1235068E+00
         -4   -1    0    0    0  501 -0.00000000000E+00  0.00000000000E+00  0.41437347217E+02  0.41456804561E+02  0.12700000000E+01 0. -1.
          4   -1    0    0  501    0  0.00000000000E+00 -0.00000000000E+00 -0.94224285605E+02  0.94232844050E+02  0.12700000000E+01 0. -1.
         25    2    1    2    0    0  0.00000000000E+00  0.00000000000E+00 -0.52786938388E+02  0.13568964861E+03  0.12500087950E+03 0.  0.
    9000005    1    3    3    0    0  0.59456952372E+01  0.29266814236E+02  0.33195046053E+02  0.44663282345E+02  0.10000000000E+01 0.  0.
    9000005    1    3    3    0    0 -0.59456952372E+01 -0.29266814236E+02 -0.85981984440E+02  0.91026366266E+02  0.10000000000E+01 0.  0.
<mgrwt>
<rscale>  0 0.12500088E+03</rscale>
<asrwt>0</asrwt>
<pdfrwt beam="2">  1        4 0.14498199E-01 0.12500088E+03</pdfrwt>
<pdfrwt beam="1">  1       -4 0.63771316E-02 0.12500088E+03</pdfrwt>
<totfact> 0.10223352E+04</totfact>
</mgrwt>
</event>
<event>
 5    1  0.3487578E-002  0.1250042E+03  0.7818608E-02  0.1235063E+00
         -4   -1    0    0    0  501 -0.00000000000E+00  0.00000000000E+00  0.85197288125E+02  0.85206753276E+02  0.12700000000E+01 0. -1.
          4   -1    0    0  501    0  0.00000000000E+00 -0.00000000000E+00 -0.45831743765E+02  0.45849336272E+02  0.12700000000E+01 0. -1.
         25    2    1    2    0    0  0.00000000000E+00  0.00000000000E+00  0.39365544359E+02  0.13105608955E+03  0.12500421003E+03 0.  0.
    9000005    1    3    3    0    0  0.14130107958E+02  0.55200496156E+02 -0.72261095531E+01  0.57445377412E+02  0.10000000000E+01 0.  0.
    9000005    1    3    3    0    0 -0.14130107958E+02 -0.55200496156E+02  0.46591653913E+02  0.73610712135E+02  0.10000000000E+01 0.  0.
<mgrwt>
<rscale>  0 0.12500421E+03</rscale>
<asrwt>0</asrwt>
<pdfrwt beam="2">  1        4 0.70531189E-02 0.12500421E+03</pdfrwt>
<pdfrwt beam="1">  1       -4 0.13109356E-01 0.12500421E+03</pdfrwt>
<totfact> 0.10320907E+04</totfact>
</mgrwt>
</event>
<event>
 5    1  0.3487578E-002  0.1249971E+03  0.7818608E-02  0.1235074E+00
          4   -1    0    0  501    0  0.00000000000E+00  0.00000000000E+00  0.49516326259E+02  0.49532610129E+02  0.12700000000E+01 0.  1.
         -4   -1    0    0    0  501 -0.00000000000E+00 -0.00000000000E+00 -0.78850105442E+02  0.78860332413E+02  0.12700000000E+01 0.  1.
         25    2    1    2    0    0  0.00000000000E+00  0.00000000000E+00 -0.29333779183E+02  0.12839294254E+03  0.12499710834E+03 0.  0.
    9000005    1    3    3    0    0  0.29736295837E+02  0.45700284656E+02  0.16696314026E+02  0.57030958345E+02  0.10000000000E+01 0.  0.
    9000005    1    3    3    0    0 -0.29736295837E+02 -0.45700284656E+02 -0.46030093209E+02  0.71361984197E+02  0.10000000000E+01 0.  0.
<mgrwt>
<rscale>  0 0.12499711E+03</rscale>
<asrwt>0</asrwt>
<pdfrwt beam="1">  1        4 0.76199356E-02 0.12499711E+03</pdfrwt>
<pdfrwt beam="2">  1       -4 0.12132825E-01 0.12499711E+03</pdfrwt>
<totfact> 0.10379688E+04</totfact>
</mgrwt>
</event>
<event>
 5    1  0.3487578E-002  0.1250039E+03  0.7818608E-02  0.1235063E+00
         -4   -1    0    0    0  501 -0.00000000000E+00  0.00000000000E+00  0.16112401976E+04  0.16112406981E+04  0.12700000000E+01 0.  1.
          4   -1    0    0  501    0  0.00000000000E+00 -0.00000000000E+00 -0.22576807742E+01  0.25903711082E+01  0.12700000000E+01 0.  1.
         25    2    1    2    0    0  0.00000000000E+00  0.00000000000E+00  0.16089825168E+04  0.16138310692E+04  0.12500392209E+03 0.  0.
    9000005    1    3    3    0    0  0.20172214598E+02  0.24082765427E+02  0.10702770034E+03  0.11154741804E+03  0.10000000000E+01 0.  0.
    9000005    1    3    3    0    0 -0.20172214598E+02 -0.24082765427E+02  0.15019548164E+04  0.15022836511E+04  0.10000000000E+01 0.  0.
<mgrwt>
<rscale>  0 0.12500392E+03</rscale>
<asrwt>0</asrwt>
<pdfrwt beam="2">  1        4 0.37296479E-03 0.12500392E+03</pdfrwt>
<pdfrwt beam="1">  1       -4 0.24790925E+00 0.12500392E+03</pdfrwt>
<totfact> 0.15796041E+03</totfact>
</mgrwt>
</event>
<event>
 5    1  0.3487578E-002  0.1249997E+03  0.7818608E-02  0.1235070E+00
          4   -1    0    0  501    0  0.00000000000E+00  0.00000000000E+00  0.67997563532E+01  0.69173395509E+01  0.12700000000E+01 0.  1.
         -4   -1    0    0    0  501 -0.00000000000E+00 -0.00000000000E+00 -0.56942365623E+03  0.56942507249E+03  0.12700000000E+01 0.  1.
         25    2    1    2    0    0  0.00000000000E+00  0.00000000000E+00 -0.56262389988E+03  0.57634241204E+03  0.12499969279E+03 0.  0.
    9000005    1    3    3    0    0 -0.51862029357E+02  0.34845263676E+02 -0.27591853431E+03  0.28290616831E+03  0.10000000000E+01 0.  0.
    9000005    1    3    3    0    0  0.51862029357E+02 -0.34845263676E+02 -0.28670536557E+03  0.29343624373E+03  0.10000000000E+01 0.  0.
<mgrwt>
<rscale>  0 0.12499969E+03</rscale>
<asrwt>0</asrwt>
<pdfrwt beam="1">  1        4 0.10552706E-02 0.12499969E+03</pdfrwt>
<pdfrwt beam="2">  1       -4 0.87612756E-01 0.12499969E+03</pdfrwt>
<totfact> 0.50396183E+03</totfact>
</mgrwt>
</event>
<event>
 5    1  0.3487578E-002  0.1249999E+03  0.7818608E-02  0.1235069E+00
         -4   -1    0    0    0  501 -0.00000000000E+00  0.00000000000E+00  0.49133377823E+01  0.50748190276E+01  0.12700000000E+01 0. -1.
          4   -1    0    0  501    0  0.00000000000E+00 -0.00000000000E+00 -0.78201370339E+03  0.78201473464E+03  0.12700000000E+01 0. -1.
         25    2    1    2    0    0  0.00000000000E+00  0.00000000000E+00 -0.77710036561E+03  0.78708955366E+03  0.12499994904E+03 0.  0.
    9000005    1    3    3    0    0  0.56590373874E+02 -0.25807561235E+02 -0.42672003075E+03  0.43123019987E+03  0.10000000000E+01 0.  0.
    9000005    1    3    3    0    0 -0.56590373874E+02  0.25807561235E+02 -0.35038033486E+03  0.35585935380E+03  0.10000000000E+01 0.  0.
<mgrwt>
<rscale>  0 0.12499995E+03</rscale>
<asrwt>0</asrwt>
<pdfrwt beam="2">  1        4 0.12032220E+00 0.12499995E+03</pdfrwt>
<pdfrwt beam="1">  1       -4 0.76839970E-03 0.12499995E+03</pdfrwt>
<totfact> 0.38847694E+03</totfact>
</mgrwt>
</event>
<event>
 5    1  0.3487578E-002  0.1250016E+03  0.7818608E-02  0.1235067E+00
         -4   -1    0    0    0  501 -0.00000000000E+00  0.00000000000E+00  0.57247025657E+02  0.57261111119E+02  0.12700000000E+01 0.  1.
          4   -1    0    0  501    0  0.00000000000E+00 -0.00000000000E+00 -0.68208384155E+02  0.68220206457E+02  0.12700000000E+01 0.  1.
         25    2    1    2    0    0  0.00000000000E+00  0.00000000000E+00 -0.10961358498E+02  0.12548131758E+03  0.12500163871E+03 0.  0.
    9000005    1    3    3    0    0 -0.11446158480E+02 -0.48427033782E+02  0.32468626202E+02  0.59425615960E+02  0.10000000000E+01 0.  0.
    9000005    1    3    3    0    0  0.11446158480E+02  0.48427033782E+02 -0.43429984700E+02  0.66055701615E+02  0.10000000000E+01 0.  0.
<mgrwt>
<rscale>  0 0.12500164E+03</rscale>
<asrwt>0</asrwt>
<pdfrwt beam="2">  1        4 0.10495590E-01 0.12500164E+03</pdfrwt>
<pdfrwt beam="1">  1       -4 0.88092276E-02 0.12500164E+03</pdfrwt>
<totfact> 0.10441981E+04</totfact>
</mgrwt>
</event>
<event>
 5    1  0.3487578E-002  0.1249977E+03  0.7818608E-02  0.1235073E+00
          4   -1    0    0  501    0  0.00000000000E+00  0.00000000000E+00  0.22055062769E+03  0.22055428419E+03  0.12700000000E+01 0. -1.
         -4   -1    0    0    0  501 -0.00000000000E+00 -0.00000000000E+00 -0.17684114886E+02  0.17729659312E+02  0.12700000000E+01 0. -1.
         25    2    1    2    0    0  0.00000000000E+00  0.00000000000E+00  0.20286651281E+03  0.23828394350E+03  0.12499766283E+03 0.  0.
    9000005    1    3    3    0    0 -0.98610742893E+01 -0.42970921783E+02  0.18585841358E+03  0.19101856141E+03  0.10000000000E+01 0.  0.
    9000005    1    3    3    0    0  0.98610742893E+01  0.42970921783E+02  0.17008099224E+02  0.47265382091E+02  0.10000000000E+01 0.  0.
<mgrwt>
<rscale>  0 0.12499766E+03</rscale>
<asrwt>0</asrwt>
<pdfrwt beam="1">  1        4 0.33934649E-01 0.12499766E+03</pdfrwt>
<pdfrwt beam="2">  1       -4 0.27244178E-02 0.12499766E+03</pdfrwt>
<totfact> 0.84057990E+03</totfact>
</mgrwt>
</event>
<event>
 5    1  0.3487578E-002  0.1249997E+03  0.7818608E-02  0.1235070E+00
         -4   -1    0    0    0  501 -0.00000000000E+00  0.00000000000E+00  0.53257077606E+03  0.53257229032E+03  0.12700000000E+01 0.  1.
          4   -1    0    0  501    0  0.00000000000E+00 -0.00000000000E+00 -0.72781639102E+01  0.73881371064E+01  0.12700000000E+01 0.  1.
         25    2    1    2    0    0  0.00000000000E+00  0.00000000000E+00  0.52529261215E+03  0.53996042742E+03  0.12499973922E+03 0.  0.
    9000005    1    3    3    0    0  0.32934280613E+02  0.94358181580E+01  0.36881632171E+02  0.50348349480E+02  0.10000000000E+01 0.  0.
    9000005    1    3    3    0    0 -0.32934280613E+02 -0.94358181580E+01  0.48841097998E+03  0.48961207794E+03  0.10000000000E+01 0.  0.
<mgrwt>
<rscale>  0 0.12499974E+03</rscale>
<asrwt>0</asrwt>
<pdfrwt beam="2">  1        4 0.11282933E-02 0.12499974E+03</pdfrwt>
<pdfrwt beam="1">  1       -4 0.81942557E-01 0.12499974E+03</pdfrwt>
<totfact> 0.52892266E+03</totfact>
</mgrwt>
</event>
<event>
 5    1  0.3487578E-002  0.1250177E+03  0.7818608E-02  0.1235042E+00
          4   -1    0    0  501    0  0.00000000000E+00  0.00000000000E+00  0.49808530914E+02  0.49824719285E+02  0.12700000000E+01 0. -1.
         -4   -1    0    0    0  501 -0.00000000000E+00 -0.00000000000E+00 -0.78413464780E+02  0.78423748691E+02  0.12700000000E+01 0. -1.
         25    2    1    2    0    0  0.00000000000E+00  0.00000000000E+00 -0.28604933866E+02  0.12824846798E+03  0.12501770793E+03 0.  0.
    9000005    1    3    3    0    0 -0.21523397269E+02  0.34175908052E+02  0.34628254032E+02  0.53210575063E+02  0.10000000000E+01 0.  0.
    9000005    1    3    3    0    0  0.21523397269E+02 -0.34175908052E+02 -0.63233187898E+02  0.75037892914E+02  0.10000000000E+01 0.  0.
<mgrwt>
<rscale>  0 0.12501771E+03</rscale>
<asrwt>0</asrwt>
<pdfrwt beam="1">  1        4 0.76648872E-02 0.12501771E+03</pdfrwt>
<pdfrwt beam="2">  1       -4 0.12065646E-01 0.12501771E+03</pdfrwt>
<totfact> 0.10377976E+04</totfact>
</mgrwt>
</event>
<event>
 5    1  0.3487578E-002  0.1249984E+03  0.7818608E-02  0.1235072E+00
         -4   -1    0    0    0  501 -0.00000000000E+00  0.00000000000E+00  0.64909451803E+02  0.64921874845E+02  0.12700000000E+01 0.  1.
          4   -1    0    0  501    0  0.00000000000E+00 -0.00000000000E+00 -0.60153559957E+02  0.60166964985E+02  0.12700000000E+01 0.  1.
         25    2    1    2    0    0  0.00000000000E+00  0.00000000000E+00  0.47558918465E+01  0.12508883983E+03  0.12499839736E+03 0.  0.
    9000005    1    3    3    0    0 -0.12694650718E+02  0.61162764854E+02  0.41432728348E+01  0.62611537844E+02  0.10000000000E+01 0.  0.
    9000005    1    3    3    0    0  0.12694650718E+02 -0.61162764854E+02  0.61261901168E+00  0.62477301986E+02  0.10000000000E+01 0.  0.
<mgrwt>
<rscale>  0 0.12499840E+03</rscale>
<asrwt>0</asrwt>
<pdfrwt beam="2">  1        4 0.92563806E-02 0.12499840E+03</pdfrwt>
<pdfrwt beam="1">  1       -4 0.99880563E-02 0.12499840E+03</pdfrwt>
<totfact> 0.10451312E+04</totfact>
</mgrwt>
</event>
<event>
 5    1  0.3487578E-002  0.1249987E+03  0.7818608E-02  0.1235071E+00
          4   -1    0    0  501    0  0.00000000000E+00  0.00000000000E+00  0.52328480274E+02  0.52343889307E+02  0.12700000000E+01 0. -1.
         -4   -1    0    0    0  501 -0.00000000000E+00 -0.00000000000E+00 -0.74615259335E+02  0.74626066663E+02  0.12700000000E+01 0. -1.
         25    2    1    2    0    0  0.00000000000E+00  0.00000000000E+00 -0.22286779061E+02  0.12696995597E+03  0.12499867679E+03 0.  0.
    9000005    1    3    3    0    0  0.42394869839E+01 -0.61880333059E+02 -0.34062836518E+01  0.62126899470E+02  0.10000000000E+01 0.  0.
    9000005    1    3    3    0    0 -0.42394869839E+01  0.61880333059E+02 -0.18880495409E+02  0.64843056500E+02  0.10000000000E+01 0.  0.
<mgrwt>
<rscale>  0 0.12499868E+03</rscale>
<asrwt>0</asrwt>
<pdfrwt beam="1">  1        4 0.80525521E-02 0.12499868E+03</pdfrwt>
<pdfrwt beam="2">  1       -4 0.11481287E-01 0.12499868E+03</pdfrwt>
<totfact> 0.10410109E+04</totfact>
</mgrwt>
</event>
<event>
 5    1  0.3487578E-002  0.1250024E+03  0.7818608E-02  0.1235066E+00
          4   -1    0    0  501    0  0.00000000000E+00  0.00000000000E+00  0.78621807454E+03  0.78621910028E+03  0.12700000000E+01 0. -1.
         -4   -1    0    0    0  501 -0.00000000000E+00 -0.00000000000E+00 -0.48863918153E+01  0.50487349873E+01  0.12700000000E+01 0. -1.
         25    2    1    2    0    0  0.00000000000E+00  0.00000000000E+00  0.78133168273E+03  0.79126783526E+03  0.12500235473E+03 0.  0.
    9000005    1    3    3    0    0  0.48273227735E+02 -0.77986132094E+01  0.14434135143E+03  0.15240258730E+03  0.10000000000E+01 0.  0.
    9000005    1    3    3    0    0 -0.48273227735E+02  0.77986132094E+01  0.63699033130E+03  0.63886524796E+03  0.10000000000E+01 0.  0.
<mgrwt>
<rscale>  0 0.12500235E+03</rscale>
<asrwt>0</asrwt>
<pdfrwt beam="1">  1        4 0.12096922E+00 0.12500235E+03</pdfrwt>
<pdfrwt beam="2">  1       -4 0.76431926E-03 0.12500235E+03</pdfrwt>
<totfact> 0.38655542E+03</totfact>
</mgrwt>
</event>
<event>
 5    1  0.3487578E-002  0.1250002E+03  0.7818608E-02  0.1235069E+00
         -4   -1    0    0    0  501 -0.00000000000E+00  0.00000000000E+00  0.41765604267E+03  0.41765797356E+03  0.12700000000E+01 0.  1.
          4   -1    0    0  501    0  0.00000000000E+00 -0.00000000000E+00 -0.93077536292E+01  0.93939968928E+01  0.12700000000E+01 0.  1.
         25    2    1    2    0    0  0.00000000000E+00  0.00000000000E+00  0.40834828904E+03  0.42705197045E+03  0.12500024122E+03 0.  0.
    9000005    1    3    3    0    0  0.48683122458E+02 -0.81871721703E+01  0.33508053364E+03  0.33869904078E+03  0.10000000000E+01 0.  0.
    9000005    1    3    3    0    0 -0.48683122458E+02  0.81871721703E+01  0.73267755397E+02  0.88352929670E+02  0.10000000000E+01 0.  0.
<mgrwt>
<rscale>  0 0.12500024E+03</rscale>
<asrwt>0</asrwt>
<pdfrwt beam="2">  1        4 0.14387453E-02 0.12500024E+03</pdfrwt>
<pdfrwt beam="1">  1       -4 0.64261533E-01 0.12500024E+03</pdfrwt>
<totfact> 0.62003807E+03</totfact>
</mgrwt>
</event>
<event>
 5    1  0.3487578E-002  0.1250016E+03  0.7818608E-02  0.1235067E+00
          4   -1    0    0  501    0  0.00000000000E+00  0.00000000000E+00  0.10083036593E+03  0.10083836370E+03  0.12700000000E+01 0.  1.
         -4   -1    0    0    0  501 -0.00000000000E+00 -0.00000000000E+00 -0.38721875814E+02  0.38742696945E+02  0.12700000000E+01 0.  1.
         25    2    1    2    0    0  0.00000000000E+00  0.00000000000E+00  0.62108490115E+02  0.13958106064E+03  0.12500163177E+03 0.  0.
    9000005    1    3    3    0    0 -0.49656900869E+02  0.37142435232E+02  0.22406011845E+02  0.65942381407E+02  0.10000000000E+01 0.  0.
    9000005    1    3    3    0    0  0.49656900869E+02 -0.37142435232E+02  0.39702478270E+02  0.73638679236E+02  0.10000000000E+01 0.  0.
<mgrwt>
<rscale>  0 0.12500163E+03</rscale>
<asrwt>0</asrwt>
<pdfrwt beam="1">  1        4 0.15514581E-01 0.12500163E+03</pdfrwt>
<pdfrwt beam="2">  1       -4 0.59594286E-02 0.12500163E+03</pdfrwt>
<totfact> 0.10141903E+04</totfact>
</mgrwt>
</event>
<event>
 5    1  0.3487578E-002  0.1250065E+03  0.7818608E-02  0.1235059E+00
          4   -1    0    0  501    0  0.00000000000E+00  0.00000000000E+00  0.14441942072E+03  0.14442500469E+03  0.12700000000E+01 0.  1.
         -4   -1    0    0    0  501 -0.00000000000E+00 -0.00000000000E+00 -0.27029739944E+02  0.27059559151E+02  0.12700000000E+01 0.  1.
         25    2    1    2    0    0  0.00000000000E+00  0.00000000000E+00  0.11738968077E+03  0.17148456384E+03  0.12500647377E+03 0.  0.
    9000005    1    3    3    0    0 -0.81409084160E+01  0.64904724419E+01 -0.25838368013E+02  0.27875112268E+02  0.10000000000E+01 0.  0.
    9000005    1    3    3    0    0  0.81409084160E+01 -0.64904724419E+01  0.14322804879E+03  0.14360945158E+03  0.10000000000E+01 0.  0.
<mgrwt>
<rscale>  0 0.12500647E+03</rscale>
<asrwt>0</asrwt>
<pdfrwt beam="1">  1        4 0.22221096E-01 0.12500647E+03</pdfrwt>
<pdfrwt beam="2">  1       -4 0.41611449E-02 0.12500647E+03</pdfrwt>
<totfact> 0.95158830E+03</totfact>
</mgrwt>
</event>
<event>
 5    1  0.3487578E-002  0.1250030E+03  0.7818608E-02  0.1235065E+00
          4   -1    0    0  501    0  0.00000000000E+00  0.00000000000E+00  0.70118765979E+02  0.70130266237E+02  0.12700000000E+01 0.  1.
         -4   -1    0    0    0  501 -0.00000000000E+00 -0.00000000000E+00 -0.55688399899E+02  0.55702879489E+02  0.12700000000E+01 0.  1.
         25    2    1    2    0    0  0.00000000000E+00  0.00000000000E+00  0.14430366080E+02  0.12583314573E+03  0.12500298036E+03 0.  0.
    9000005    1    3    3    0    0 -0.54629580395E+02 -0.53810778209E-01 -0.23335046661E+02  0.59413115996E+02  0.10000000000E+01 0.  0.
    9000005    1    3    3    0    0  0.54629580395E+02  0.53810778209E-01  0.37765412741E+02  0.66420029729E+02  0.10000000000E+01 0.  0.
<mgrwt>
<rscale>  0 0.12500298E+03</rscale>
<asrwt>0</asrwt>
<pdfrwt beam="1">  1        4 0.10789501E-01 0.12500298E+03</pdfrwt>
<pdfrwt beam="2">  1       -4 0.85694446E-02 0.12500298E+03</pdfrwt>
<totfact> 0.10433916E+04</totfact>
</mgrwt>
</event>
<event>
 5    1  0.3487578E-002  0.1250135E+03  0.7818608E-02  0.1235048E+00
          4   -1    0    0  501    0  0.00000000000E+00  0.00000000000E+00  0.19622477314E+03  0.19622888293E+03  0.12700000000E+01 0.  1.
         -4   -1    0    0    0  501 -0.00000000000E+00 -0.00000000000E+00 -0.19886750783E+02  0.19927261646E+02  0.12700000000E+01 0.  1.
         25    2    1    2    0    0  0.00000000000E+00  0.00000000000E+00  0.17633802236E+03  0.21615614458E+03  0.12501352210E+03 0.  0.
    9000005    1    3    3    0    0 -0.10758386698E+02  0.46878028806E+02  0.19162259087E+02  0.51783053622E+02  0.10000000000E+01 0.  0.
    9000005    1    3    3    0    0  0.10758386698E+02 -0.46878028806E+02  0.15717576327E+03  0.16437309095E+03  0.10000000000E+01 0.  0.
<mgrwt>
<rscale>  0 0.12501352E+03</rscale>
<asrwt>0</asrwt>
<pdfrwt beam="1">  1        4 0.30191860E-01 0.12501352E+03</pdfrwt>
<pdfrwt beam="2">  1       -4 0.30629324E-02 0.12501352E+03</pdfrwt>
<totfact> 0.87453840E+03</totfact>
</mgrwt>
</event>
<event>
 5    1  0.3487578E-002  0.1249996E+03  0.7818608E-02  0.1235070E+00
          4   -1    0    0  501    0  0.00000000000E+00  0.00000000000E+00  0.56083475879E+03  0.56083619673E+03  0.12700000000E+01 0. -1.
         -4   -1    0    0    0  501 -0.00000000000E+00 -0.00000000000E+00 -0.69056685079E+01  0.70214783017E+01  0.12700000000E+01 0. -1.
         25    2    1    2    0    0  0.00000000000E+00  0.00000000000E+00  0.55392909028E+03  0.56785767503E+03  0.12499960814E+03 0.  0.
    9000005    1    3    3    0    0 -0.46693292490E+02  0.38548089070E+02  0.20673239671E+03  0.21541936446E+03  0.10000000000E+01 0.  0.
    9000005    1    3    3    0    0  0.46693292490E+02 -0.38548089070E+02  0.34719669357E+03  0.35243831057E+03  0.10000000000E+01 0.  0.
<mgrwt>
<rscale>  0 0.12499961E+03</rscale>
<asrwt>0</asrwt>
<pdfrwt beam="1">  1        4 0.86291291E-01 0.12499961E+03</pdfrwt>
<pdfrwt beam="2">  1       -4 0.10714296E-02 0.12499961E+03</pdfrwt>
<totfact> 0.50961922E+03</totfact>
</mgrwt>
</event>
<event>
 5    1  0.3487578E-002  0.1250005E+03  0.7818608E-02  0.1235068E+00
         -4   -1    0    0    0  501 -0.00000000000E+00  0.00000000000E+00  0.38138552214E+03  0.38138763666E+03  0.12700000000E+01 0. -1.
          4   -1    0    0  501    0  0.00000000000E+00 -0.00000000000E+00 -0.10200823907E+02  0.10279577247E+02  0.12700000000E+01 0. -1.
         25    2    1    2    0    0  0.00000000000E+00  0.00000000000E+00  0.37118469823E+03  0.39166721391E+03  0.12500050499E+03 0.  0.
    9000005    1    3    3    0    0  0.47857662698E+02  0.23545223507E+02  0.28763239450E+03  0.29253739555E+03  0.10000000000E+01 0.  0.
    9000005    1    3    3    0    0 -0.47857662698E+02 -0.23545223507E+02  0.83552303738E+02  0.99129818364E+02  0.10000000000E+01 0.  0.
<mgrwt>
<rscale>  0 0.12500050E+03</rscale>
<asrwt>0</asrwt>
<pdfrwt beam="2">  1        4 0.15755782E-02 0.12500050E+03</pdfrwt>
<pdfrwt beam="1">  1       -4 0.58680914E-01 0.12500050E+03</pdfrwt>
<totfact> 0.65370646E+03</totfact>
</mgrwt>
</event>
<event>
 5    1  0.3487578E-002  0.1249723E+03  0.7818608E-02  0.1235113E+00
         -4   -1    0    0    0  501 -0.00000000000E+00  0.00000000000E+00  0.10186334596E+02  0.10265199097E+02  0.12700000000E+01 0.  1.
          4   -1    0    0  501    0  0.00000000000E+00 -0.00000000000E+00 -0.38175157018E+03  0.38175368267E+03  0.12700000000E+01 0.  1.
         25    2    1    2    0    0  0.00000000000E+00  0.00000000000E+00 -0.37156523558E+03  0.39201888177E+03  0.12497231441E+03 0.  0.
    9000005    1    3    3    0    0  0.56025324389E+02 -0.12506235144E+02 -0.10841773831E+03  0.12268108604E+03  0.10000000000E+01 0.  0.
    9000005    1    3    3    0    0 -0.56025324389E+02  0.12506235144E+02 -0.26314749727E+03  0.26933779573E+03  0.10000000000E+01 0.  0.
<mgrwt>
<rscale>  0 0.12497231E+03</rscale>
<asrwt>0</asrwt>
<pdfrwt beam="2">  1        4 0.58737229E-01 0.12497231E+03</pdfrwt>
<pdfrwt beam="1">  1       -4 0.15733577E-02 0.12497231E+03</pdfrwt>
<totfact> 0.65376466E+03</totfact>
</mgrwt>
</event>
<event>
 5    1  0.3487578E-002  0.1249987E+03  0.7818608E-02  0.1235071E+00
          4   -1    0    0  501    0  0.00000000000E+00  0.00000000000E+00  0.36432434308E+02  0.36454563083E+02  0.12700000000E+01 0.  1.
         -4   -1    0    0    0  501 -0.00000000000E+00 -0.00000000000E+00 -0.10715841224E+03  0.10716593775E+03  0.12700000000E+01 0.  1.
         25    2    1    2    0    0  0.00000000000E+00  0.00000000000E+00 -0.70725977933E+02  0.14362050083E+03  0.12499873721E+03 0.  0.
    9000005    1    3    3    0    0 -0.57611011564E+02  0.63340205506E+01 -0.85147303107E+01  0.58588813796E+02  0.10000000000E+01 0.  0.
    9000005    1    3    3    0    0  0.57611011564E+02 -0.63340205506E+01 -0.62211247622E+02  0.85031687038E+02  0.10000000000E+01 0.  0.
<mgrwt>
<rscale>  0 0.12499874E+03</rscale>
<asrwt>0</asrwt>
<pdfrwt beam="1">  1        4 0.56072710E-02 0.12499874E+03</pdfrwt>
<pdfrwt beam="2">  1       -4 0.16488191E-01 0.12499874E+03</pdfrwt>
<totfact> 0.10059378E+04</totfact>
</mgrwt>
</event>
<event>
 5    1  0.3487578E-002  0.1249986E+03  0.7818608E-02  0.1235072E+00
         -4   -1    0    0    0  501 -0.00000000000E+00  0.00000000000E+00  0.65921294436E+02  0.65933526829E+02  0.12700000000E+01 0.  1.
          4   -1    0    0  501    0  0.00000000000E+00 -0.00000000000E+00 -0.59230362284E+02  0.59243976203E+02  0.12700000000E+01 0.  1.
         25    2    1    2    0    0  0.00000000000E+00  0.00000000000E+00  0.66909321513E+01  0.12517750303E+03  0.12499855476E+03 0.  0.
    9000005    1    3    3    0    0  0.24484707813E+02  0.49099776491E+02 -0.26611749043E+02  0.60987491793E+02  0.10000000000E+01 0.  0.
    9000005    1    3    3    0    0 -0.24484707813E+02 -0.49099776491E+02  0.33302681194E+02  0.64190011239E+02  0.10000000000E+01 0.  0.
<mgrwt>
<rscale>  0 0.12499855E+03</rscale>
<asrwt>0</asrwt>
<pdfrwt beam="2">  1        4 0.91143516E-02 0.12499855E+03</pdfrwt>
<pdfrwt beam="1">  1       -4 0.10143726E-01 0.12499855E+03</pdfrwt>
<totfact> 0.10449350E+04</totfact>
</mgrwt>
</event>
<event>
 5    1  0.3487578E-002  0.1250049E+03  0.7818608E-02  0.1235062E+00
          4   -1    0    0  501    0  0.00000000000E+00  0.00000000000E+00  0.60489320572E+02  0.60502651208E+02  0.12700000000E+01 0.  1.
         -4   -1    0    0    0  501 -0.00000000000E+00 -0.00000000000E+00 -0.64555886384E+02  0.64568377453E+02  0.12700000000E+01 0.  1.
         25    2    1    2    0    0  0.00000000000E+00  0.00000000000E+00 -0.40665658128E+01  0.12507102866E+03  0.12500490092E+03 0.  0.
    9000005    1    3    3    0    0  0.21338375504E+02  0.58608005496E+02  0.18843644882E+01  0.62408135743E+02  0.10000000000E+01 0.  0.
    9000005    1    3    3    0    0 -0.21338375504E+02 -0.58608005496E+02 -0.59509303010E+01  0.62662892918E+02  0.10000000000E+01 0.  0.
<mgrwt>
<rscale>  0 0.12500490E+03</rscale>
<asrwt>0</asrwt>
<pdfrwt beam="1">  1        4 0.93080356E-02 0.12500490E+03</pdfrwt>
<pdfrwt beam="2">  1       -4 0.99336611E-02 0.12500490E+03</pdfrwt>
<totfact> 0.10450163E+04</totfact>
</mgrwt>
</event>
<event>
 5    1  0.3487578E-002  0.1250032E+03  0.7818608E-02  0.1235064E+00
         -4   -1    0    0    0  501 -0.00000000000E+00  0.00000000000E+00  0.15321185165E+02  0.15373731325E+02  0.12700000000E+01 0.  1.
          4   -1    0    0  501    0  0.00000000000E+00 -0.00000000000E+00 -0.25447998497E+03  0.25448315396E+03  0.12700000000E+01 0.  1.
         25    2    1    2    0    0  0.00000000000E+00  0.00000000000E+00 -0.23915879980E+03  0.26985688528E+03  0.12500322801E+03 0.  0.
    9000005    1    3    3    0    0 -0.15823861338E+02  0.59980300224E+02 -0.13593802152E+03  0.14942615801E+03  0.10000000000E+01 0.  0.
    9000005    1    3    3    0    0  0.15823861338E+02 -0.59980300224E+02 -0.10322077828E+03  0.12043072728E+03  0.10000000000E+01 0.  0.
<mgrwt>
<rscale>  0 0.12500323E+03</rscale>
<asrwt>0</asrwt>
<pdfrwt beam="2">  1        4 0.39155050E-01 0.12500323E+03</pdfrwt>
<pdfrwt beam="1">  1       -4 0.23613914E-02 0.12500323E+03</pdfrwt>
<totfact> 0.79536673E+03</totfact>
</mgrwt>
</event>
<event>
 5    1  0.3487578E-002  0.1249958E+03  0.7818608E-02  0.1235076E+00
          4   -1    0    0  501    0  0.00000000000E+00  0.00000000000E+00  0.11548179152E+02  0.11617802793E+02  0.12700000000E+01 0.  1.
         -4   -1    0    0    0  501 -0.00000000000E+00 -0.00000000000E+00 -0.33714671774E+03  0.33714910972E+03  0.12700000000E+01 0.  1.
         25    2    1    2    0    0  0.00000000000E+00  0.00000000000E+00 -0.32559853859E+03  0.34876691251E+03  0.12499580365E+03 0.  0.
    9000005    1    3    3    0    0 -0.53147896717E+02 -0.24503317283E+02 -0.10167629609E+03  0.11732084499E+03  0.10000000000E+01 0.  0.
    9000005    1    3    3    0    0  0.53147896717E+02  0.24503317283E+02 -0.22392224250E+03  0.23144606752E+03  0.10000000000E+01 0.  0.
<mgrwt>
<rscale>  0 0.12499580E+03</rscale>
<asrwt>0</asrwt>
<pdfrwt beam="1">  1        4 0.17821829E-02 0.12499580E+03</pdfrwt>
<pdfrwt beam="2">  1       -4 0.51874258E-01 0.12499580E+03</pdfrwt>
<totfact> 0.69866916E+03</totfact>
</mgrwt>
</event>
<event>
 5    1  0.3487578E-002  0.1250014E+03  0.7818608E-02  0.1235067E+00
         -4   -1    0    0    0  501 -0.00000000000E+00  0.00000000000E+00  0.93803086012E+02  0.93811682883E+02  0.12700000000E+01 0.  1.
          4   -1    0    0  501    0  0.00000000000E+00 -0.00000000000E+00 -0.41623852700E+02  0.41643222901E+02  0.12700000000E+01 0.  1.
         25    2    1    2    0    0  0.00000000000E+00  0.00000000000E+00  0.52179233313E+02  0.13545490578E+03  0.12500143644E+03 0.  0.
    9000005    1    3    3    0    0  0.21810225886E+01  0.49611099582E+02 -0.15021443272E+02  0.51890864507E+02  0.10000000000E+01 0.  0.
    9000005    1    3    3    0    0 -0.21810225886E+01 -0.49611099582E+02  0.67200676585E+02  0.83564041278E+02  0.10000000000E+01 0.  0.
<mgrwt>
<rscale>  0 0.12500144E+03</rscale>
<asrwt>0</asrwt>
<pdfrwt beam="2">  1        4 0.64058211E-02 0.12500144E+03</pdfrwt>
<pdfrwt beam="1">  1       -4 0.14433395E-01 0.12500144E+03</pdfrwt>
<totfact> 0.10228160E+04</totfact>
</mgrwt>
</event>
<event>
 5    1  0.3487578E-002  0.1250003E+03  0.7818608E-02  0.1235069E+00
          4   -1    0    0  501    0  0.00000000000E+00  0.00000000000E+00  0.12999360192E+03  0.12999980554E+03  0.12700000000E+01 0.  1.
         -4   -1    0    0    0  501 -0.00000000000E+00 -0.00000000000E+00 -0.30029344966E+02  0.30056188365E+02  0.12700000000E+01 0.  1.
         25    2    1    2    0    0  0.00000000000E+00  0.00000000000E+00  0.99964256953E+02  0.16005599390E+03  0.12500027406E+03 0.  0.
    9000005    1    3    3    0    0 -0.21125228583E+02 -0.16563957327E+02  0.12224085028E+03  0.12515776221E+03  0.10000000000E+01 0.  0.
    9000005    1    3    3    0    0  0.21125228583E+02  0.16563957327E+02 -0.22276593325E+02  0.34898231691E+02  0.10000000000E+01 0.  0.
<mgrwt>
<rscale>  0 0.12500027E+03</rscale>
<asrwt>0</asrwt>
<pdfrwt beam="1">  1        4 0.20001558E-01 0.12500027E+03</pdfrwt>
<pdfrwt beam="2">  1       -4 0.46224413E-02 0.12500027E+03</pdfrwt>
<totfact> 0.97331391E+03</totfact>
</mgrwt>
</event>
<event>
 5    1  0.3487578E-002  0.1250011E+03  0.7818608E-02  0.1235068E+00
          4   -1    0    0  501    0  0.00000000000E+00  0.00000000000E+00  0.14749466816E+02  0.14804042399E+02  0.12700000000E+01 0. -1.
         -4   -1    0    0    0  501 -0.00000000000E+00 -0.00000000000E+00 -0.26429970417E+03  0.26430275542E+03  0.12700000000E+01 0. -1.
         25    2    1    2    0    0  0.00000000000E+00  0.00000000000E+00 -0.24955023736E+03  0.27910679782E+03  0.12500113450E+03 0.  0.
    9000005    1    3    3    0    0  0.93618255943E+01 -0.47636486426E+02 -0.36912534711E+02  0.60995195190E+02  0.10000000000E+01 0.  0.
    9000005    1    3    3    0    0 -0.93618255943E+01  0.47636486426E+02 -0.21263770264E+03  0.21811160263E+03  0.10000000000E+01 0.  0.
<mgrwt>
<rscale>  0 0.12500113E+03</rscale>
<asrwt>0</asrwt>
<pdfrwt beam="1">  1        4 0.22735818E-02 0.12500113E+03</pdfrwt>
<pdfrwt beam="2">  1       -4 0.40665922E-01 0.12500113E+03</pdfrwt>
<totfact> 0.78294713E+03</totfact>
</mgrwt>
</event>
<event>
 5    1  0.3487578E-002  0.1249996E+03  0.7818608E-02  0.1235070E+00
         -4   -1    0    0    0  501 -0.00000000000E+00  0.00000000000E+00  0.10894314343E+02  0.10968089396E+02  0.12700000000E+01 0.  1.
          4   -1    0    0  501    0  0.00000000000E+00 -0.00000000000E+00 -0.35727130286E+03  0.35727356011E+03  0.12700000000E+01 0.  1.
         25    2    1    2    0    0  0.00000000000E+00  0.00000000000E+00 -0.34637698852E+03  0.36824164950E+03  0.12499957700E+03 0.  0.
    9000005    1    3    3    0    0  0.10853611449E+02  0.35332988343E+01  0.78118092474E+01  0.13867568131E+02  0.10000000000E+01 0.  0.
    9000005    1    3    3    0    0 -0.10853611449E+02 -0.35332988343E+01 -0.35418879777E+03  0.35437408137E+03  0.10000000000E+01 0.  0.
<mgrwt>
<rscale>  0 0.12499958E+03</rscale>
<asrwt>0</asrwt>
<pdfrwt beam="2">  1        4 0.54970655E-01 0.12499958E+03</pdfrwt>
<pdfrwt beam="1">  1       -4 0.16818973E-02 0.12499958E+03</pdfrwt>
<totfact> 0.67763933E+03</totfact>
</mgrwt>
</event>
<event>
 5    1  0.3487578E-002  0.1249983E+03  0.7818608E-02  0.1235072E+00
          4   -1    0    0  501    0  0.00000000000E+00  0.00000000000E+00  0.51638460262E+02  0.51654075137E+02  0.12700000000E+01 0. -1.
         -4   -1    0    0    0  501 -0.00000000000E+00 -0.00000000000E+00 -0.75611714511E+02  0.75622379434E+02  0.12700000000E+01 0. -1.
         25    2    1    2    0    0  0.00000000000E+00  0.00000000000E+00 -0.23973254249E+02  0.12727645457E+03  0.12499831586E+03 0.  0.
    9000005    1    3    3    0    0  0.68832823223E+00  0.43935209512E+02 -0.57230314557E+02  0.72160136743E+02  0.10000000000E+01 0.  0.
    9000005    1    3    3    0    0 -0.68832823223E+00 -0.43935209512E+02  0.33257060308E+02  0.55116317828E+02  0.10000000000E+01 0.  0.
<mgrwt>
<rscale>  0 0.12499832E+03</rscale>
<asrwt>0</asrwt>
<pdfrwt beam="1">  1        4 0.79464000E-02 0.12499832E+03</pdfrwt>
<pdfrwt beam="2">  1       -4 0.11634593E-01 0.12499832E+03</pdfrwt>
<totfact> 0.10403541E+04</totfact>
</mgrwt>
</event>
<event>
 5    1  0.3487578E-002  0.1249937E+03  0.7818608E-02  0.1235079E+00
          4   -1    0    0  501    0  0.00000000000E+00  0.00000000000E+00  0.61358013869E+02  0.61371155814E+02  0.12700000000E+01 0. -1.
         -4   -1    0    0    0  501 -0.00000000000E+00 -0.00000000000E+00 -0.63630512045E+02  0.63643184734E+02  0.12700000000E+01 0. -1.
         25    2    1    2    0    0  0.00000000000E+00  0.00000000000E+00 -0.22724981761E+01  0.12501434055E+03  0.12499368422E+03 0.  0.
    9000005    1    3    3    0    0  0.16436957742E+02 -0.32242346353E+02  0.49814419189E+02  0.61580994123E+02  0.10000000000E+01 0.  0.
    9000005    1    3    3    0    0 -0.16436957742E+02  0.32242346353E+02 -0.52086917365E+02  0.63433346425E+02  0.10000000000E+01 0.  0.
<mgrwt>
<rscale>  0 0.12499368E+03</rscale>
<asrwt>0</asrwt>
<pdfrwt beam="1">  1        4 0.94416802E-02 0.12499368E+03</pdfrwt>
<pdfrwt beam="2">  1       -4 0.97912953E-02 0.12499368E+03</pdfrwt>
<totfact> 0.10454043E+04</totfact>
</mgrwt>
</event>
<event>
 5    1  0.3487578E-002  0.1249996E+03  0.7818608E-02  0.1235070E+00
          4   -1    0    0  501    0  0.00000000000E+00  0.00000000000E+00  0.32898289028E+02  0.32922793335E+02  0.12700000000E+01 0.  1.
         -4   -1    0    0    0  501 -0.00000000000E+00 -0.00000000000E+00 -0.11866439977E+03  0.11867119563E+03  0.12700000000E+01 0.  1.
         25    2    1    2    0    0  0.00000000000E+00  0.00000000000E+00 -0.85766110739E+02  0.15159398896E+03  0.12499964695E+03 0.  0.
    9000005    1    3    3    0    0  0.27131595667E+02 -0.32600369506E+02 -0.98542056395E+02  0.10728673941E+03  0.10000000000E+01 0.  0.
    9000005    1    3    3    0    0 -0.27131595667E+02  0.32600369506E+02  0.12775945655E+02  0.44307249551E+02  0.10000000000E+01 0.  0.
<mgrwt>
<rscale>  0 0.12499965E+03</rscale>
<asrwt>0</asrwt>
<pdfrwt beam="1">  1        4 0.50636830E-02 0.12499965E+03</pdfrwt>
<pdfrwt beam="2">  1       -4 0.18258469E-01 0.12499965E+03</pdfrwt>
<totfact> 0.98987691E+03</totfact>
</mgrwt>
</event>
<event>
 5    1  0.3487578E-002  0.1250231E+03  0.7818608E-02  0.1235033E+00
          4   -1    0    0  501    0  0.00000000000E+00  0.00000000000E+00  0.15836038704E+03  0.15836547945E+03  0.12700000000E+01 0. -1.
         -4   -1    0    0    0  501 -0.00000000000E+00 -0.00000000000E+00 -0.24654106207E+02  0.24686795112E+02  0.12700000000E+01 0. -1.
         25    2    1    2    0    0  0.00000000000E+00  0.00000000000E+00  0.13370628083E+03  0.18305227457E+03  0.12502306063E+03 0.  0.
    9000005    1    3    3    0    0 -0.12553954896E+02 -0.18779823304E+02 -0.18475519060E+02  0.29199800537E+02  0.10000000000E+01 0.  0.
    9000005    1    3    3    0    0  0.12553954896E+02  0.18779823304E+02  0.15218179989E+03  0.15385247403E+03  0.10000000000E+01 0.  0.
<mgrwt>
<rscale>  0 0.12502306E+03</rscale>
<asrwt>0</asrwt>
<pdfrwt beam="1">  1        4 0.24366041E-01 0.12502306E+03</pdfrwt>
<pdfrwt beam="2">  1       -4 0.37958459E-02 0.12502306E+03</pdfrwt>
<totfact> 0.93022360E+03</totfact>
</mgrwt>
</event>
<event>
 5    1  0.3487578E-002  0.1249983E+03  0.7818608E-02  0.1235072E+00
         -4   -1    0    0    0  501 -0.00000000000E+00  0.00000000000E+00  0.22823643460E+02  0.22858950124E+02  0.12700000000E+01 0. -1.
          4   -1    0    0  501    0  0.00000000000E+00 -0.00000000000E+00 -0.17097470800E+03  0.17097942471E+03  0.12700000000E+01 0. -1.
         25    2    1    2    0    0  0.00000000000E+00  0.00000000000E+00 -0.14815106454E+03  0.19383837484E+03  0.12499831053E+03 0.  0.
    9000005    1    3    3    0    0  0.25527716796E+02  0.53108946064E+02 -0.41809957369E+02  0.72258542831E+02  0.10000000000E+01 0.  0.
    9000005    1    3    3    0    0 -0.25527716796E+02 -0.53108946064E+02 -0.10634110717E+03  0.12157983201E+03  0.10000000000E+01 0.  0.
<mgrwt>
<rscale>  0 0.12499831E+03</rscale>
<asrwt>0</asrwt>
<pdfrwt beam="2">  1        4 0.26306879E-01 0.12499831E+03</pdfrwt>
<pdfrwt beam="1">  1       -4 0.35144086E-02 0.12499831E+03</pdfrwt>
<totfact> 0.91187156E+03</totfact>
</mgrwt>
</event>
<event>
 5    1  0.3487578E-002  0.1249984E+03  0.7818608E-02  0.1235072E+00
          4   -1    0    0  501    0  0.00000000000E+00  0.00000000000E+00  0.16600145199E+03  0.16600631001E+03  0.12700000000E+01 0.  1.
         -4   -1    0    0    0  501 -0.00000000000E+00 -0.00000000000E+00 -0.23508466393E+02  0.23542746063E+02  0.12700000000E+01 0.  1.
         25    2    1    2    0    0  0.00000000000E+00  0.00000000000E+00  0.14249298560E+03  0.18954905607E+03  0.12499837484E+03 0.  0.
    9000005    1    3    3    0    0 -0.39822042893E+02 -0.25565438430E+02  0.93560351900E+01  0.48248545436E+02  0.10000000000E+01 0.  0.
    9000005    1    3    3    0    0  0.39822042893E+02  0.25565438430E+02  0.13313695041E+03  0.14130051064E+03  0.10000000000E+01 0.  0.
<mgrwt>
<rscale>  0 0.12499837E+03</rscale>
<asrwt>0</asrwt>
<pdfrwt beam="1">  1        4 0.25541696E-01 0.12499837E+03</pdfrwt>
<pdfrwt beam="2">  1       -4 0.36196976E-02 0.12499837E+03</pdfrwt>
<totfact> 0.91929182E+03</totfact>
</mgrwt>
</event>
<event>
 5    1  0.3487578E-002  0.1249996E+03  0.7818608E-02  0.1235070E+00
          4   -1    0    0  501    0  0.00000000000E+00  0.00000000000E+00  0.32170082183E+03  0.32170332865E+03  0.12700000000E+01 0.  1.
         -4   -1    0    0    0  501 -0.00000000000E+00 -0.00000000000E+00 -0.12106652317E+02  0.12173082203E+02  0.12700000000E+01 0.  1.
         25    2    1    2    0    0  0.00000000000E+00  0.00000000000E+00  0.30959416951E+03  0.33387641085E+03  0.12499963172E+03 0.  0.
    9000005    1    3    3    0    0  0.30442984439E+02  0.47295921309E+02  0.82061574015E+02  0.99492619846E+02  0.10000000000E+01 0.  0.
    9000005    1    3    3    0    0 -0.30442984439E+02 -0.47295921309E+02  0.22753259549E+03  0.23438379101E+03  0.10000000000E+01 0.  0.
<mgrwt>
<rscale>  0 0.12499963E+03</rscale>
<asrwt>0</asrwt>
<pdfrwt beam="1">  1        4 0.49497729E-01 0.12499963E+03</pdfrwt>
<pdfrwt beam="2">  1       -4 0.18678650E-02 0.12499963E+03</pdfrwt>
<totfact> 0.71536135E+03</totfact>
</mgrwt>
</event>
<event>
 5    1  0.3487578E-002  0.1250028E+03  0.7818608E-02  0.1235065E+00
         -4   -1    0    0    0  501 -0.00000000000E+00  0.00000000000E+00  0.14521102669E+03  0.14521658023E+03  0.12700000000E+01 0. -1.
          4   -1    0    0  501    0  0.00000000000E+00 -0.00000000000E+00 -0.26880641407E+02  0.26910625828E+02  0.12700000000E+01 0. -1.
         25    2    1    2    0    0  0.00000000000E+00  0.00000000000E+00  0.11833038529E+03  0.17212720606E+03  0.12500277990E+03 0.  0.
    9000005    1    3    3    0    0 -0.37950489449E+02 -0.48918192494E+02  0.70865089234E+02  0.94106801446E+02  0.10000000000E+01 0.  0.
    9000005    1    3    3    0    0  0.37950489449E+02  0.48918192494E+02  0.47465296051E+02  0.78020404610E+02  0.10000000000E+01 0.  0.
<mgrwt>
<rscale>  0 0.12500278E+03</rscale>
<asrwt>0</asrwt>
<pdfrwt beam="2">  1        4 0.41382170E-02 0.12500278E+03</pdfrwt>
<pdfrwt beam="1">  1       -4 0.22342892E-01 0.12500278E+03</pdfrwt>
<totfact> 0.95047705E+03</totfact>
</mgrwt>
</event>
<event>
 5    1  0.3487578E-002  0.1250045E+03  0.7818608E-02  0.1235062E+00
          4   -1    0    0  501    0  0.00000000000E+00  0.00000000000E+00  0.51404050712E+01  0.52949659391E+01  0.12700000000E+01 0. -1.
         -4   -1    0    0    0  501 -0.00000000000E+00 -0.00000000000E+00 -0.74855445555E+03  0.74855553289E+03  0.12700000000E+01 0. -1.
         25    2    1    2    0    0  0.00000000000E+00  0.00000000000E+00 -0.74341405048E+03  0.75385049883E+03  0.12500449648E+03 0.  0.
    9000005    1    3    3    0    0 -0.27065161097E+02 -0.13015508137E+02 -0.70221426303E+03  0.70285688273E+03  0.10000000000E+01 0.  0.
    9000005    1    3    3    0    0  0.27065161097E+02  0.13015508137E+02 -0.41199787446E+02  0.50993616100E+02  0.10000000000E+01 0.  0.
<mgrwt>
<rscale>  0 0.12500450E+03</rscale>
<asrwt>0</asrwt>
<pdfrwt beam="1">  1        4 0.80280431E-03 0.12500450E+03</pdfrwt>
<pdfrwt beam="2">  1       -4 0.11517411E+00 0.12500450E+03</pdfrwt>
<totfact> 0.40386696E+03</totfact>
</mgrwt>
</event>
<event>
 5    1  0.3487578E-002  0.1249993E+03  0.7818608E-02  0.1235070E+00
         -4   -1    0    0    0  501 -0.00000000000E+00  0.00000000000E+00  0.15888998837E+02  0.15939673272E+02  0.12700000000E+01 0.  1.
          4   -1    0    0  501    0  0.00000000000E+00 -0.00000000000E+00 -0.24539965650E+03  0.24540294275E+03  0.12700000000E+01 0.  1.
         25    2    1    2    0    0  0.00000000000E+00  0.00000000000E+00 -0.22951065767E+03  0.26134261603E+03  0.12499928387E+03 0.  0.
    9000005    1    3    3    0    0  0.52923116661E+02 -0.99430372236E+01 -0.48458843989E+02  0.72449843527E+02  0.10000000000E+01 0.  0.
    9000005    1    3    3    0    0 -0.52923116661E+02  0.99430372236E+01 -0.18105181368E+03  0.18889277250E+03  0.10000000000E+01 0.  0.
<mgrwt>
<rscale>  0 0.12499928E+03</rscale>
<asrwt>0</asrwt>
<pdfrwt beam="2">  1        4 0.37757941E-01 0.12499928E+03</pdfrwt>
<pdfrwt beam="1">  1       -4 0.24486124E-02 0.12499928E+03</pdfrwt>
<totfact> 0.80719300E+03</totfact>
</mgrwt>
</event>
<event>
 5    1  0.3487578E-002  0.1250030E+03  0.7818608E-02  0.1235065E+00
          4   -1    0    0  501    0  0.00000000000E+00  0.00000000000E+00  0.70093322285E+03  0.70093437338E+03  0.12700000000E+01 0. -1.
         -4   -1    0    0    0  501 -0.00000000000E+00 -0.00000000000E+00 -0.54996766454E+01  0.56444081358E+01  0.12700000000E+01 0. -1.
         25    2    1    2    0    0  0.00000000000E+00  0.00000000000E+00  0.69543354620E+03  0.70657878152E+03  0.12500302921E+03 0.  0.
    9000005    1    3    3    0    0 -0.38729365404E+02 -0.31211204456E+02  0.56156758171E+03  0.56376701913E+03  0.10000000000E+01 0.  0.
    9000005    1    3    3    0    0  0.38729365404E+02  0.31211204456E+02  0.13386596449E+03  0.14281176239E+03  0.10000000000E+01 0.  0.
<mgrwt>
<rscale>  0 0.12500303E+03</rscale>
<asrwt>0</asrwt>
<pdfrwt beam="1">  1        4 0.10784716E+00 0.12500303E+03</pdfrwt>
<pdfrwt beam="2">  1       -4 0.85732536E-03 0.12500303E+03</pdfrwt>
<totfact> 0.42738828E+03</totfact>
</mgrwt>
</event>
<event>
 5    1  0.3487578E-002  0.1250042E+03  0.7818608E-02  0.1235063E+00
         -4   -1    0    0    0  501 -0.00000000000E+00  0.00000000000E+00  0.13472255379E+04  0.13472261365E+04  0.12700000000E+01 0. -1.
          4   -1    0    0  501    0  0.00000000000E+00 -0.00000000000E+00 -0.27599836413E+01  0.30381589327E+01  0.12700000000E+01 0. -1.
         25    2    1    2    0    0  0.00000000000E+00  0.00000000000E+00  0.13444655542E+04  0.13502642954E+04  0.12500416366E+03 0.  0.
    9000005    1    3    3    0    0  0.17037055496E+02 -0.56819205689E+02  0.88468075613E+03  0.88666776397E+03  0.10000000000E+01 0.  0.
    9000005    1    3    3    0    0 -0.17037055496E+02  0.56819205689E+02  0.45978479809E+03  0.46359653143E+03  0.10000000000E+01 0.  0.
<mgrwt>
<rscale>  0 0.12500416E+03</rscale>
<asrwt>0</asrwt>
<pdfrwt beam="2">  1        4 0.44605727E-03 0.12500416E+03</pdfrwt>
<pdfrwt beam="1">  1       -4 0.20728679E+00 0.12500416E+03</pdfrwt>
<totfact> 0.21070426E+03</totfact>
</mgrwt>
</event>
<event>
 5    1  0.3487578E-002  0.1249760E+03  0.7818608E-02  0.1235107E+00
         -4   -1    0    0    0  501 -0.00000000000E+00  0.00000000000E+00  0.44379970553E+02  0.44398138320E+02  0.12700000000E+01 0. -1.
          4   -1    0    0  501    0  0.00000000000E+00 -0.00000000000E+00 -0.87943810423E+02  0.87952980005E+02  0.12700000000E+01 0. -1.
         25    2    1    2    0    0  0.00000000000E+00  0.00000000000E+00 -0.43563839870E+02  0.13235111833E+03  0.12497603921E+03 0.  0.
    9000005    1    3    3    0    0 -0.24530635593E+02  0.56427264512E+02 -0.33283995439E+02  0.69961508097E+02  0.10000000000E+01 0.  0.
    9000005    1    3    3    0    0  0.24530635593E+02 -0.56427264512E+02 -0.10279844432E+02  0.62389610228E+02  0.10000000000E+01 0.  0.
<mgrwt>
<rscale>  0 0.12497604E+03</rscale>
<asrwt>0</asrwt>
<pdfrwt beam="2">  1        4 0.13531920E-01 0.12497604E+03</pdfrwt>
<pdfrwt beam="1">  1       -4 0.68297907E-02 0.12497604E+03</pdfrwt>
<totfact> 0.10299776E+04</totfact>
</mgrwt>
</event>
<event>
 5    1  0.3487578E-002  0.1249985E+03  0.7818608E-02  0.1235072E+00
         -4   -1    0    0    0  501 -0.00000000000E+00  0.00000000000E+00  0.20040039986E+03  0.20040442401E+03  0.12700000000E+01 0.  1.
          4   -1    0    0  501    0  0.00000000000E+00 -0.00000000000E+00 -0.19466842669E+02  0.19508225535E+02  0.12700000000E+01 0.  1.
         25    2    1    2    0    0  0.00000000000E+00  0.00000000000E+00  0.18093355719E+03  0.21991264955E+03  0.12499848525E+03 0.  0.
    9000005    1    3    3    0    0 -0.15351148965E+02 -0.11108865591E+02  0.19523278231E+03  0.19615275670E+03  0.10000000000E+01 0.  0.
    9000005    1    3    3    0    0  0.15351148965E+02  0.11108865591E+02 -0.14299225123E+02  0.23759892853E+02  0.10000000000E+01 0.  0.
<mgrwt>
<rscale>  0 0.12499849E+03</rscale>
<asrwt>0</asrwt>
<pdfrwt beam="2">  1        4 0.29983918E-02 0.12499849E+03</pdfrwt>
<pdfrwt beam="1">  1       -4 0.30834322E-01 0.12499849E+03</pdfrwt>
<totfact> 0.86885114E+03</totfact>
</mgrwt>
</event>
<event>
 5    1  0.3487578E-002  0.1250083E+03  0.7818608E-02  0.1235056E+00
          4   -1    0    0  501    0  0.00000000000E+00  0.00000000000E+00  0.67929729036E+02  0.67941599826E+02  0.12700000000E+01 0. -1.
         -4   -1    0    0    0  501 -0.00000000000E+00 -0.00000000000E+00 -0.57488022449E+02  0.57502048878E+02  0.12700000000E+01 0. -1.
         25    2    1    2    0    0  0.00000000000E+00  0.00000000000E+00  0.10441706587E+02  0.12544364870E+03  0.12500831878E+03 0.  0.
    9000005    1    3    3    0    0 -0.54949095742E+00 -0.32084578440E+01  0.67849522466E+02  0.67934923574E+02  0.10000000000E+01 0.  0.
    9000005    1    3    3    0    0  0.54949095742E+00  0.32084578440E+01 -0.57407815879E+02  0.57508725130E+02  0.10000000000E+01 0.  0.
<mgrwt>
<rscale>  0 0.12500832E+03</rscale>
<asrwt>0</asrwt>
<pdfrwt beam="1">  1        4 0.10452720E-01 0.12500832E+03</pdfrwt>
<pdfrwt beam="2">  1       -4 0.88463032E-02 0.12500832E+03</pdfrwt>
<totfact> 0.10441241E+04</totfact>
</mgrwt>
</event>
<event>
 5    1  0.3487578E-002  0.1250017E+03  0.7818608E-02  0.1235067E+00
         -4   -1    0    0    0  501 -0.00000000000E+00  0.00000000000E+00  0.51930695063E+03  0.51930850356E+03  0.12700000000E+01 0.  1.
          4   -1    0    0  501    0  0.00000000000E+00 -0.00000000000E+00 -0.74670688013E+01  0.75742997355E+01  0.12700000000E+01 0.  1.
         25    2    1    2    0    0  0.00000000000E+00  0.00000000000E+00  0.51183988183E+03  0.52688280330E+03  0.12500169511E+03 0.  0.
    9000005    1    3    3    0    0 -0.50692668477E+02  0.58064674606E+01  0.40800479836E+03  0.41118411592E+03  0.10000000000E+01 0.  0.
    9000005    1    3    3    0    0  0.50692668477E+02 -0.58064674606E+01  0.10383508347E+03  0.11569868738E+03  0.10000000000E+01 0.  0.
<mgrwt>
<rscale>  0 0.12500170E+03</rscale>
<asrwt>0</asrwt>
<pdfrwt beam="2">  1        4 0.11571481E-02 0.12500170E+03</pdfrwt>
<pdfrwt beam="1">  1       -4 0.79901723E-01 0.12500170E+03</pdfrwt>
<totfact> 0.53835301E+03</totfact>
</mgrwt>
</event>
<event>
 4    1  0.3487578E-002  0.1250801E+03  0.7818608E-02  0.1234944E+00
         -4   -1    0    0    0  501 -0.00000000000E+00  0.00000000000E+00  0.82378234515E+02  0.82388023533E+02  0.12700000000E+01 0.  1.
          4   -1    0    0  501    0  0.00000000000E+00 -0.00000000000E+00 -0.47458155749E+02  0.47475145572E+02  0.12700000000E+01 0.  1.
    9000005    1    1    2    0    0  0.36127144880E+02  0.27077252815E+02  0.62380086975E+02  0.77010541280E+02  0.10000000000E+01 0.  0.
    9000005    1    1    2    0    0 -0.36127144880E+02 -0.27077252815E+02 -0.27460008210E+02  0.52852627825E+02  0.10000000000E+01 0.  0.
<mgrwt>
<rscale>  0 0.12508010E+03</rscale>
<asrwt>0</asrwt>
<pdfrwt beam="2">  1        4 0.73033147E-02 0.12508010E+03</pdfrwt>
<pdfrwt beam="1">  1       -4 0.12675634E-01 0.12508010E+03</pdfrwt>
<totfact> 0.10328749E+04</totfact>
</mgrwt>
</event>
<event>
 5    1  0.3487578E-002  0.1250042E+03  0.7818608E-02  0.1235063E+00
         -4   -1    0    0    0  501 -0.00000000000E+00  0.00000000000E+00  0.25363370970E+03  0.25363688927E+03  0.12700000000E+01 0. -1.
          4   -1    0    0  501    0  0.00000000000E+00 -0.00000000000E+00 -0.15372721442E+02  0.15425092043E+02  0.12700000000E+01 0. -1.
         25    2    1    2    0    0  0.00000000000E+00  0.00000000000E+00  0.23826098826E+03  0.26906198131E+03  0.12500420497E+03 0.  0.
    9000005    1    3    3    0    0 -0.44116574192E+02 -0.22612844558E+02  0.20103296261E+03  0.20705763670E+03  0.10000000000E+01 0.  0.
    9000005    1    3    3    0    0  0.44116574192E+02  0.22612844558E+02  0.37228025648E+02  0.62004344615E+02  0.10000000000E+01 0.  0.
<mgrwt>
<rscale>  0 0.12500420E+03</rscale>
<asrwt>0</asrwt>
<pdfrwt beam="2">  1        4 0.23693074E-02 0.12500420E+03</pdfrwt>
<pdfrwt beam="1">  1       -4 0.39024840E-01 0.12500420E+03</pdfrwt>
<totfact> 0.79643475E+03</totfact>
</mgrwt>
</event>
<event>
 5    1  0.3487578E-002  0.1249983E+03  0.7818608E-02  0.1235072E+00
         -4   -1    0    0    0  501 -0.00000000000E+00  0.00000000000E+00  0.58086748859E+02  0.58100630745E+02  0.12700000000E+01 0.  1.
          4   -1    0    0  501    0  0.00000000000E+00 -0.00000000000E+00 -0.67218794448E+02  0.67230790766E+02  0.12700000000E+01 0.  1.
         25    2    1    2    0    0  0.00000000000E+00  0.00000000000E+00 -0.91320455892E+01  0.12533142151E+03  0.12499828383E+03 0.  0.
    9000005    1    3    3    0    0 -0.26093858936E+02 -0.12409965455E+02 -0.60123498350E+02  0.66713804948E+02  0.10000000000E+01 0.  0.
    9000005    1    3    3    0    0  0.26093858936E+02  0.12409965455E+02  0.50991452761E+02  0.58617616563E+02  0.10000000000E+01 0.  0.
<mgrwt>
<rscale>  0 0.12499828E+03</rscale>
<asrwt>0</asrwt>
<pdfrwt beam="2">  1        4 0.10343344E-01 0.12499828E+03</pdfrwt>
<pdfrwt beam="1">  1       -4 0.89384136E-02 0.12499828E+03</pdfrwt>
<totfact> 0.10446073E+04</totfact>
</mgrwt>
</event>
<event>
 5    1  0.3487578E-002  0.1250000E+03  0.7818608E-02  0.1235069E+00
         -4   -1    0    0    0  501 -0.00000000000E+00  0.00000000000E+00  0.69524377591E+02  0.69535976152E+02  0.12700000000E+01 0. -1.
          4   -1    0    0  501    0  0.00000000000E+00 -0.00000000000E+00 -0.56161877001E+02  0.56176234551E+02  0.12700000000E+01 0. -1.
         25    2    1    2    0    0  0.00000000000E+00  0.00000000000E+00  0.13362500590E+02  0.12571221070E+03  0.12500001399E+03 0.  0.
    9000005    1    3    3    0    0  0.42257811929E+02  0.45363643423E+02  0.14578894203E+02  0.63695580457E+02  0.10000000000E+01 0.  0.
    9000005    1    3    3    0    0 -0.42257811929E+02 -0.45363643423E+02 -0.12163936134E+01  0.62016630246E+02  0.10000000000E+01 0.  0.
<mgrwt>
<rscale>  0 0.12500001E+03</rscale>
<asrwt>0</asrwt>
<pdfrwt beam="2">  1        4 0.86422854E-02 0.12500001E+03</pdfrwt>
<pdfrwt beam="1">  1       -4 0.10698055E-01 0.12500001E+03</pdfrwt>
<totfact> 0.10437272E+04</totfact>
</mgrwt>
</event>
<event>
 5    1  0.3487578E-002  0.1250001E+03  0.7818608E-02  0.1235069E+00
          4   -1    0    0  501    0  0.00000000000E+00  0.00000000000E+00  0.25402449987E+02  0.25434177112E+02  0.12700000000E+01 0. -1.
         -4   -1    0    0    0  501 -0.00000000000E+00 -0.00000000000E+00 -0.15364443841E+03  0.15364968713E+03  0.12700000000E+01 0. -1.
         25    2    1    2    0    0  0.00000000000E+00  0.00000000000E+00 -0.12824198843E+03  0.17908386424E+03  0.12500009135E+03 0.  0.
    9000005    1    3    3    0    0 -0.11762503430E+02 -0.32436380735E+02 -0.13876818720E+03  0.14299680087E+03  0.10000000000E+01 0.  0.
    9000005    1    3    3    0    0  0.11762503430E+02  0.32436380735E+02  0.10526198770E+02  0.36087063370E+02  0.10000000000E+01 0.  0.
<mgrwt>
<rscale>  0 0.12500009E+03</rscale>
<asrwt>0</asrwt>
<pdfrwt beam="1">  1        4 0.39109136E-02 0.12500009E+03</pdfrwt>
<pdfrwt beam="2">  1       -4 0.23640450E-01 0.12500009E+03</pdfrwt>
<totfact> 0.93781979E+03</totfact>
</mgrwt>
</event>
<event>
 5    1  0.3487578E-002  0.1250030E+03  0.7818608E-02  0.1235065E+00
          4   -1    0    0  501    0  0.00000000000E+00  0.00000000000E+00  0.17310710160E+03  0.17311176021E+03  0.12700000000E+01 0. -1.
         -4   -1    0    0    0  501 -0.00000000000E+00 -0.00000000000E+00 -0.22543751604E+02  0.22579495928E+02  0.12700000000E+01 0. -1.
         25    2    1    2    0    0  0.00000000000E+00  0.00000000000E+00  0.15056335000E+03  0.19569125614E+03  0.12500298144E+03 0.  0.
    9000005    1    3    3    0    0 -0.30076667438E+02  0.43879579529E+02  0.12661964290E+03  0.13734466641E+03  0.10000000000E+01 0.  0.
    9000005    1    3    3    0    0  0.30076667438E+02 -0.43879579529E+02  0.23943707100E+02  0.58346589733E+02  0.10000000000E+01 0.  0.
<mgrwt>
<rscale>  0 0.12500298E+03</rscale>
<asrwt>0</asrwt>
<pdfrwt beam="1">  1        4 0.26634970E-01 0.12500298E+03</pdfrwt>
<pdfrwt beam="2">  1       -4 0.34713774E-02 0.12500298E+03</pdfrwt>
<totfact> 0.90860311E+03</totfact>
</mgrwt>
</event>
<event>
 5    1  0.3487578E-002  0.1250001E+03  0.7818608E-02  0.1235069E+00
          4   -1    0    0  501    0  0.00000000000E+00  0.00000000000E+00  0.10869835534E+03  0.10870577424E+03  0.12700000000E+01 0.  1.
         -4   -1    0    0    0  501 -0.00000000000E+00 -0.00000000000E+00 -0.35916784627E+02  0.35939230903E+02  0.12700000000E+01 0.  1.
         25    2    1    2    0    0  0.00000000000E+00  0.00000000000E+00  0.72781570710E+02  0.14464500514E+03  0.12500008191E+03 0.  0.
    9000005    1    3    3    0    0 -0.43593907127E+02  0.11329251922E+02  0.86516949193E+02  0.97544672768E+02  0.10000000000E+01 0.  0.
    9000005    1    3    3    0    0  0.43593907127E+02 -0.11329251922E+02 -0.13735378483E+02  0.47100332374E+02  0.10000000000E+01 0.  0.
<mgrwt>
<rscale>  0 0.12500008E+03</rscale>
<asrwt>0</asrwt>
<pdfrwt beam="1">  1        4 0.16725121E-01 0.12500008E+03</pdfrwt>
<pdfrwt beam="2">  1       -4 0.55279566E-02 0.12500008E+03</pdfrwt>
<totfact> 0.10038188E+04</totfact>
</mgrwt>
</event>
<event>
 5    1  0.3487578E-002  0.1249884E+03  0.7818608E-02  0.1235087E+00
          4   -1    0    0  501    0  0.00000000000E+00  0.00000000000E+00  0.32681558887E+02  0.32706225574E+02  0.12700000000E+01 0. -1.
         -4   -1    0    0    0  501 -0.00000000000E+00 -0.00000000000E+00 -0.11942934835E+03  0.11943610069E+03  0.12700000000E+01 0. -1.
         25    2    1    2    0    0  0.00000000000E+00  0.00000000000E+00 -0.86747789465E+02  0.15214232626E+03  0.12498843332E+03 0.  0.
    9000005    1    3    3    0    0 -0.54532988216E+02 -0.27615181404E+02 -0.59155127280E+02  0.85069231402E+02  0.10000000000E+01 0.  0.
    9000005    1    3    3    0    0  0.54532988216E+02  0.27615181404E+02 -0.27592662185E+02  0.67073094861E+02  0.10000000000E+01 0.  0.
<mgrwt>
<rscale>  0 0.12498843E+03</rscale>
<asrwt>0</asrwt>
<pdfrwt beam="1">  1        4 0.50303490E-02 0.12498843E+03</pdfrwt>
<pdfrwt beam="2">  1       -4 0.18376163E-01 0.12498843E+03</pdfrwt>
<totfact> 0.98904097E+03</totfact>
</mgrwt>
</event>
<event>
 5    1  0.3487578E-002  0.1249992E+03  0.7818608E-02  0.1235071E+00
          4   -1    0    0  501    0  0.00000000000E+00  0.00000000000E+00  0.87588528400E+02  0.87597735172E+02  0.12700000000E+01 0. -1.
         -4   -1    0    0    0  501 -0.00000000000E+00 -0.00000000000E+00 -0.44576566750E+02  0.44594654425E+02  0.12700000000E+01 0. -1.
         25    2    1    2    0    0  0.00000000000E+00  0.00000000000E+00  0.43011961650E+02  0.13219238960E+03  0.12499919609E+03 0.  0.
    9000005    1    3    3    0    0 -0.30760263997E+02 -0.35781768805E+02  0.64835315344E+02  0.80194432075E+02  0.10000000000E+01 0.  0.
    9000005    1    3    3    0    0  0.30760263997E+02  0.35781768805E+02 -0.21823353694E+02  0.51997957522E+02  0.10000000000E+01 0.  0.
<mgrwt>
<rscale>  0 0.12499920E+03</rscale>
<asrwt>0</asrwt>
<pdfrwt beam="1">  1        4 0.13477258E-01 0.12499920E+03</pdfrwt>
<pdfrwt beam="2">  1       -4 0.68600330E-02 0.12499920E+03</pdfrwt>
<totfact> 0.10297780E+04</totfact>
</mgrwt>
</event>
<event>
 5    1  0.3487578E-002  0.1250028E+03  0.7818608E-02  0.1235065E+00
         -4   -1    0    0    0  501 -0.00000000000E+00  0.00000000000E+00  0.32234700373E+02  0.32259708742E+02  0.12700000000E+01 0.  1.
          4   -1    0    0  501    0  0.00000000000E+00 -0.00000000000E+00 -0.12111170333E+03  0.12111836188E+03  0.12700000000E+01 0.  1.
         25    2    1    2    0    0  0.00000000000E+00  0.00000000000E+00 -0.88877002961E+02  0.15337807062E+03  0.12500284354E+03 0.  0.
    9000005    1    3    3    0    0 -0.50201518904E+02 -0.35538199103E+02 -0.30870801728E+02  0.68827047700E+02  0.10000000000E+01 0.  0.
    9000005    1    3    3    0    0  0.50201518904E+02  0.35538199103E+02 -0.58006201233E+02  0.84551022922E+02  0.10000000000E+01 0.  0.
<mgrwt>
<rscale>  0 0.12500284E+03</rscale>
<asrwt>0</asrwt>
<pdfrwt beam="2">  1        4 0.18635005E-01 0.12500284E+03</pdfrwt>
<pdfrwt beam="1">  1       -4 0.49616207E-02 0.12500284E+03</pdfrwt>
<totfact> 0.98628233E+03</totfact>
</mgrwt>
</event>
<event>
 5    1  0.3487578E-002  0.1249583E+03  0.7818608E-02  0.1235134E+00
         -4   -1    0    0    0  501 -0.00000000000E+00  0.00000000000E+00  0.98419540546E+02  0.98427734208E+02  0.12700000000E+01 0.  1.
          4   -1    0    0  501    0  0.00000000000E+00 -0.00000000000E+00 -0.39643292107E+02  0.39663629550E+02  0.12700000000E+01 0.  1.
         25    2    1    2    0    0  0.00000000000E+00  0.00000000000E+00  0.58776248439E+02  0.13809136376E+03  0.12495830250E+03 0.  0.
    9000005    1    3    3    0    0 -0.62417967056E+02 -0.23416453228E+01  0.30577545519E+02  0.69551938896E+02  0.10000000000E+01 0.  0.
    9000005    1    3    3    0    0  0.62417967056E+02  0.23416453228E+01  0.28198702920E+02  0.68539424863E+02  0.10000000000E+01 0.  0.
<mgrwt>
<rscale>  0 0.12495830E+03</rscale>
<asrwt>0</asrwt>
<pdfrwt beam="2">  1        4 0.61011628E-02 0.12495830E+03</pdfrwt>
<pdfrwt beam="1">  1       -4 0.15143662E-01 0.12495830E+03</pdfrwt>
<totfact> 0.10182862E+04</totfact>
</mgrwt>
</event>
<event>
 5    1  0.3487578E-002  0.1249995E+03  0.7818608E-02  0.1235070E+00
          4   -1    0    0  501    0  0.00000000000E+00  0.00000000000E+00  0.90291039496E+02  0.90299970727E+02  0.12700000000E+01 0.  1.
         -4   -1    0    0    0  501 -0.00000000000E+00 -0.00000000000E+00 -0.43242109895E+02  0.43260755520E+02  0.12700000000E+01 0.  1.
         25    2    1    2    0    0  0.00000000000E+00  0.00000000000E+00  0.47048929601E+02  0.13356072625E+03  0.12499946327E+03 0.  0.
    9000005    1    3    3    0    0 -0.90706646824E+01 -0.59227305163E+02  0.45586603115E+01  0.60099351232E+02  0.10000000000E+01 0.  0.
    9000005    1    3    3    0    0  0.90706646824E+01  0.59227305163E+02  0.42490269290E+02  0.73461375014E+02  0.10000000000E+01 0.  0.
<mgrwt>
<rscale>  0 0.12499946E+03</rscale>
<asrwt>0</asrwt>
<pdfrwt beam="1">  1        4 0.13893050E-01 0.12499946E+03</pdfrwt>
<pdfrwt beam="2">  1       -4 0.66547536E-02 0.12499946E+03</pdfrwt>
<totfact> 0.10268621E+04</totfact>
</mgrwt>
</event>
<event>
 5    1  0.3487578E-002  0.1250006E+03  0.7818608E-02  0.1235068E+00
          4   -1    0    0  501    0  0.00000000000E+00  0.00000000000E+00  0.41827084418E+03  0.41827277223E+03  0.12700000000E+01 0.  1.
         -4   -1    0    0    0  501 -0.00000000000E+00 -0.00000000000E+00 -0.92939943896E+01  0.93803641568E+01  0.12700000000E+01 0.  1.
         25    2    1    2    0    0  0.00000000000E+00  0.00000000000E+00  0.40897684979E+03  0.42765313639E+03  0.12500056560E+03 0.  0.
    9000005    1    3    3    0    0 -0.40231586880E+02  0.34703560270E+02  0.31704402024E+03  0.32146668327E+03  0.10000000000E+01 0.  0.
    9000005    1    3    3    0    0  0.40231586880E+02 -0.34703560270E+02  0.91932829548E+02  0.10618645312E+03  0.10000000000E+01 0.  0.
<mgrwt>
<rscale>  0 0.12500057E+03</rscale>
<asrwt>0</asrwt>
<pdfrwt beam="1">  1        4 0.64356121E-01 0.12500057E+03</pdfrwt>
<pdfrwt beam="2">  1       -4 0.14366381E-02 0.12500057E+03</pdfrwt>
<totfact> 0.61948542E+03</totfact>
</mgrwt>
</event>
<event>
 5    1  0.3487578E-002  0.1249897E+03  0.7818608E-02  0.1235085E+00
          4   -1    0    0  501    0  0.00000000000E+00  0.00000000000E+00  0.29038871508E+03  0.29039149221E+03  0.12700000000E+01 0.  1.
         -4   -1    0    0    0  501 -0.00000000000E+00 -0.00000000000E+00 -0.13416741224E+02  0.13476714921E+02  0.12700000000E+01 0.  1.
         25    2    1    2    0    0  0.00000000000E+00  0.00000000000E+00  0.27697197386E+03  0.30386820713E+03  0.12498965158E+03 0.  0.
    9000005    1    3    3    0    0  0.20867925611E+02  0.25613666689E+02  0.26743015603E+03  0.26946506006E+03  0.10000000000E+01 0.  0.
    9000005    1    3    3    0    0 -0.20867925611E+02 -0.25613666689E+02  0.95418178282E+01  0.34403147066E+02  0.10000000000E+01 0.  0.
<mgrwt>
<rscale>  0 0.12498965E+03</rscale>
<asrwt>0</asrwt>
<pdfrwt beam="1">  1        4 0.44680007E-01 0.12498965E+03</pdfrwt>
<pdfrwt beam="2">  1       -4 0.20689414E-02 0.12498965E+03</pdfrwt>
<totfact> 0.75133424E+03</totfact>
</mgrwt>
</event>
<event>
 5    1  0.3487578E-002  0.1250015E+03  0.7818608E-02  0.1235067E+00
          4   -1    0    0  501    0  0.00000000000E+00  0.00000000000E+00  0.90120876538E+01  0.91011331097E+01  0.12700000000E+01 0.  1.
         -4   -1    0    0    0  501 -0.00000000000E+00 -0.00000000000E+00 -0.43123493469E+03  0.43123680478E+03  0.12700000000E+01 0.  1.
         25    2    1    2    0    0  0.00000000000E+00  0.00000000000E+00 -0.42222284704E+03  0.44033793789E+03  0.12500146794E+03 0.  0.
    9000005    1    3    3    0    0 -0.36148033689E+02  0.30760446192E+02 -0.67913740752E+02  0.82862304894E+02  0.10000000000E+01 0.  0.
    9000005    1    3    3    0    0  0.36148033689E+02 -0.30760446192E+02 -0.35430910629E+03  0.35747563300E+03  0.10000000000E+01 0.  0.
<mgrwt>
<rscale>  0 0.12500147E+03</rscale>
<asrwt>0</asrwt>
<pdfrwt beam="1">  1        4 0.13934689E-02 0.12500147E+03</pdfrwt>
<pdfrwt beam="2">  1       -4 0.66350814E-01 0.12500147E+03</pdfrwt>
<totfact> 0.60808009E+03</totfact>
</mgrwt>
</event>
<event>
 5    1  0.3487578E-002  0.1250000E+03  0.7818608E-02  0.1235069E+00
          4   -1    0    0  501    0  0.00000000000E+00  0.00000000000E+00  0.38698179573E+03  0.38698387967E+03  0.12700000000E+01 0.  1.
         -4   -1    0    0    0  501 -0.00000000000E+00 -0.00000000000E+00 -0.10052076535E+02  0.10131986116E+02  0.12700000000E+01 0.  1.
         25    2    1    2    0    0  0.00000000000E+00  0.00000000000E+00  0.37692971919E+03  0.39711586579E+03  0.12499999059E+03 0.  0.
    9000005    1    3    3    0    0  0.54783820428E+02 -0.11338277877E+02  0.27693106630E+03  0.28252723587E+03  0.10000000000E+01 0.  0.
    9000005    1    3    3    0    0 -0.54783820428E+02  0.11338277877E+02  0.99998652889E+02  0.11458862991E+03  0.10000000000E+01 0.  0.
<mgrwt>
<rscale>  0 0.12499999E+03</rscale>
<asrwt>0</asrwt>
<pdfrwt beam="1">  1        4 0.59541977E-01 0.12499999E+03</pdfrwt>
<pdfrwt beam="2">  1       -4 0.15527803E-02 0.12499999E+03</pdfrwt>
<totfact> 0.64834272E+03</totfact>
</mgrwt>
</event>
<event>
 4    1  0.3487578E-002  0.1249147E+03  0.7818608E-02  0.1235203E+00
          4   -1    0    0  501    0  0.00000000000E+00  0.00000000000E+00  0.90246288181E+02  0.90255223840E+02  0.12700000000E+01 0.  1.
         -4   -1    0    0    0  501 -0.00000000000E+00 -0.00000000000E+00 -0.43204857962E+02  0.43223519657E+02  0.12700000000E+01 0.  1.
    9000005    1    1    2    0    0  0.11193862997E+01  0.54944155522E+02 -0.81743887775E+01  0.55569181060E+02  0.10000000000E+01 0.  0.
    9000005    1    1    2    0    0 -0.11193862997E+01 -0.54944155522E+02  0.55215818996E+02  0.77909562437E+02  0.10000000000E+01 0.  0.
<mgrwt>
<rscale>  0 0.12491469E+03</rscale>
<asrwt>0</asrwt>
<pdfrwt beam="1">  1        4 0.13886167E-01 0.12491469E+03</pdfrwt>
<pdfrwt beam="2">  1       -4 0.66490241E-02 0.12491469E+03</pdfrwt>
<totfact> 0.10290024E+04</totfact>
</mgrwt>
</event>
<event>
 5    1  0.3487578E-002  0.1250003E+03  0.7818608E-02  0.1235069E+00
          4   -1    0    0  501    0  0.00000000000E+00  0.00000000000E+00  0.14961229887E+03  0.14961768904E+03  0.12700000000E+01 0. -1.
         -4   -1    0    0    0  501 -0.00000000000E+00 -0.00000000000E+00 -0.26087985329E+02  0.26118879733E+02  0.12700000000E+01 0. -1.
         25    2    1    2    0    0  0.00000000000E+00  0.00000000000E+00  0.12352431354E+03  0.17573656877E+03  0.12500034227E+03 0.  0.
    9000005    1    3    3    0    0 -0.43771397097E+02 -0.40093944064E+02  0.89233230532E+02  0.10717755822E+03  0.10000000000E+01 0.  0.
    9000005    1    3    3    0    0  0.43771397097E+02  0.40093944064E+02  0.34291083012E+02  0.68559010556E+02  0.10000000000E+01 0.  0.
<mgrwt>
<rscale>  0 0.12500034E+03</rscale>
<asrwt>0</asrwt>
<pdfrwt beam="1">  1        4 0.23020068E-01 0.12500034E+03</pdfrwt>
<pdfrwt beam="2">  1       -4 0.40163273E-02 0.12500034E+03</pdfrwt>
<totfact> 0.94389388E+03</totfact>
</mgrwt>
</event>
<event>
 5    1  0.3487578E-002  0.1249986E+03  0.7818608E-02  0.1235071E+00
          4   -1    0    0  501    0  0.00000000000E+00  0.00000000000E+00  0.59063968401E+03  0.59064104939E+03  0.12700000000E+01 0. -1.
         -4   -1    0    0    0  501 -0.00000000000E+00 -0.00000000000E+00 -0.65510857691E+01  0.66730521319E+01  0.12700000000E+01 0. -1.
         25    2    1    2    0    0  0.00000000000E+00  0.00000000000E+00  0.58408859824E+03  0.59731410152E+03  0.12499858113E+03 0.  0.
    9000005    1    3    3    0    0 -0.94008468998E+00 -0.37817196514E+02  0.52973356807E+03  0.53108349368E+03  0.10000000000E+01 0.  0.
    9000005    1    3    3    0    0  0.94008468998E+00  0.37817196514E+02  0.54355030166E+02  0.66230607847E+02  0.10000000000E+01 0.  0.
<mgrwt>
<rscale>  0 0.12499858E+03</rscale>
<asrwt>0</asrwt>
<pdfrwt beam="1">  1        4 0.90877178E-01 0.12499858E+03</pdfrwt>
<pdfrwt beam="2">  1       -4 0.10173459E-02 0.12499858E+03</pdfrwt>
<totfact> 0.49039098E+03</totfact>
</mgrwt>
</event>
<event>
 5    1  0.3487578E-002  0.1249997E+03  0.7818608E-02  0.1235070E+00
         -4   -1    0    0    0  501 -0.00000000000E+00  0.00000000000E+00  0.24012357169E+04  0.24012360527E+04  0.12700000000E+01 0. -1.
          4   -1    0    0  501    0  0.00000000000E+00 -0.00000000000E+00 -0.13785020446E+01  0.18743446553E+01  0.12700000000E+01 0. -1.
         25    2    1    2    0    0  0.00000000000E+00  0.00000000000E+00  0.23998572148E+04  0.24031103974E+04  0.12499972166E+03 0.  0.
    9000005    1    3    3    0    0  0.22574174720E+02 -0.57437277528E+02  0.10109774227E+04  0.10128598045E+04  0.10000000000E+01 0.  0.
    9000005    1    3    3    0    0 -0.22574174720E+02  0.57437277528E+02  0.13888797921E+04  0.13902505929E+04  0.10000000000E+01 0.  0.
<mgrwt>
<rscale>  0 0.12499972E+03</rscale>
<asrwt>0</asrwt>
<pdfrwt beam="2">  1        4 0.25024438E-03 0.12499972E+03</pdfrwt>
<pdfrwt beam="1">  1       -4 0.36945968E+00 0.12499972E+03</pdfrwt>
<totfact> 0.54758723E+02</totfact>
</mgrwt>
</event>
<event>
 5    1  0.3487578E-002  0.1250001E+03  0.7818608E-02  0.1235069E+00
         -4   -1    0    0    0  501 -0.00000000000E+00  0.00000000000E+00  0.11364655258E+03  0.11365364848E+03  0.12700000000E+01 0. -1.
          4   -1    0    0  501    0  0.00000000000E+00 -0.00000000000E+00 -0.34352059303E+02  0.34375527317E+02  0.12700000000E+01 0. -1.
         25    2    1    2    0    0  0.00000000000E+00  0.00000000000E+00  0.79294493280E+02  0.14802917580E+03  0.12500008090E+03 0.  0.
    9000005    1    3    3    0    0 -0.53715452687E+02 -0.27961240762E+02  0.57919546190E+02  0.83802474147E+02  0.10000000000E+01 0.  0.
    9000005    1    3    3    0    0  0.53715452687E+02  0.27961240762E+02  0.21374947090E+02  0.64226701655E+02  0.10000000000E+01 0.  0.
<mgrwt>
<rscale>  0 0.12500008E+03</rscale>
<asrwt>0</asrwt>
<pdfrwt beam="2">  1        4 0.52872833E-02 0.12500008E+03</pdfrwt>
<pdfrwt beam="1">  1       -4 0.17486436E-01 0.12500008E+03</pdfrwt>
<totfact> 0.99697831E+03</totfact>
</mgrwt>
</event>
<event>
 5    1  0.3487578E-002  0.1249996E+03  0.7818608E-02  0.1235070E+00
          4   -1    0    0  501    0  0.00000000000E+00  0.00000000000E+00  0.18762668278E+03  0.18763098090E+03  0.12700000000E+01 0.  1.
         -4   -1    0    0    0  501 -0.00000000000E+00 -0.00000000000E+00 -0.20795231223E+02  0.20833975655E+02  0.12700000000E+01 0.  1.
         25    2    1    2    0    0  0.00000000000E+00  0.00000000000E+00  0.16683145156E+03  0.20846495655E+03  0.12499961952E+03 0.  0.
    9000005    1    3    3    0    0 -0.31258853507E+02  0.51865482884E+02  0.10914856070E+03  0.12482608918E+03  0.10000000000E+01 0.  0.
    9000005    1    3    3    0    0  0.31258853507E+02 -0.51865482884E+02  0.57682890865E+02  0.83638867375E+02  0.10000000000E+01 0.  0.
<mgrwt>
<rscale>  0 0.12499962E+03</rscale>
<asrwt>0</asrwt>
<pdfrwt beam="1">  1        4 0.28868953E-01 0.12499962E+03</pdfrwt>
<pdfrwt beam="2">  1       -4 0.32025774E-02 0.12499962E+03</pdfrwt>
<totfact> 0.88727944E+03</totfact>
</mgrwt>
</event>
<event>
 5    1  0.3487578E-002  0.1249962E+03  0.7818608E-02  0.1235075E+00
         -4   -1    0    0    0  501 -0.00000000000E+00  0.00000000000E+00  0.28429795970E+03  0.28430079632E+03  0.12700000000E+01 0.  1.
          4   -1    0    0  501    0  0.00000000000E+00 -0.00000000000E+00 -0.13706885913E+02  0.13765595571E+02  0.12700000000E+01 0.  1.
         25    2    1    2    0    0  0.00000000000E+00  0.00000000000E+00  0.27059107378E+03  0.29806639189E+03  0.12499617899E+03 0.  0.
    9000005    1    3    3    0    0 -0.15457291190E+01  0.57008455695E+02  0.74375652578E+02  0.93728816250E+02  0.10000000000E+01 0.  0.
    9000005    1    3    3    0    0  0.15457291190E+01 -0.57008455695E+02  0.19621542121E+03  0.20433757564E+03  0.10000000000E+01 0.  0.
<mgrwt>
<rscale>  0 0.12499618E+03</rscale>
<asrwt>0</asrwt>
<pdfrwt beam="2">  1        4 0.21134862E-02 0.12499618E+03</pdfrwt>
<pdfrwt beam="1">  1       -4 0.43742879E-01 0.12499618E+03</pdfrwt>
<totfact> 0.75848464E+03</totfact>
</mgrwt>
</event>
<event>
 5    1  0.3487578E-002  0.1249923E+03  0.7818608E-02  0.1235081E+00
          4   -1    0    0  501    0  0.00000000000E+00  0.00000000000E+00  0.28523939579E+01  0.31223470805E+01  0.12700000000E+01 0.  1.
         -4   -1    0    0    0  501 -0.00000000000E+00 -0.00000000000E+00 -0.13071570127E+04  0.13071576297E+04  0.12700000000E+01 0.  1.
         25    2    1    2    0    0  0.00000000000E+00  0.00000000000E+00 -0.13043046188E+04  0.13102799768E+04  0.12499231555E+03 0.  0.
    9000005    1    3    3    0    0 -0.57954154499E+02  0.22196891086E+02 -0.57555997855E+03  0.57889694670E+03  0.10000000000E+01 0.  0.
    9000005    1    3    3    0    0  0.57954154499E+02 -0.22196891086E+02 -0.72874464022E+03  0.73138303005E+03  0.10000000000E+01 0.  0.
<mgrwt>
<rscale>  0 0.12499232E+03</rscale>
<asrwt>0</asrwt>
<pdfrwt beam="1">  1        4 0.45964397E-03 0.12499232E+03</pdfrwt>
<pdfrwt beam="2">  1       -4 0.20112144E+00 0.12499232E+03</pdfrwt>
<totfact> 0.21990941E+03</totfact>
</mgrwt>
</event>
<event>
 5    1  0.3487578E-002  0.1250011E+03  0.7818608E-02  0.1235068E+00
          4   -1    0    0  501    0  0.00000000000E+00  0.00000000000E+00  0.45533348748E+03  0.45533525859E+03  0.12700000000E+01 0. -1.
         -4   -1    0    0    0  501 -0.00000000000E+00 -0.00000000000E+00 -0.85302248606E+01  0.86242469916E+01  0.12700000000E+01 0. -1.
         25    2    1    2    0    0  0.00000000000E+00  0.00000000000E+00  0.44680326262E+03  0.46395950559E+03  0.12500106935E+03 0.  0.
    9000005    1    3    3    0    0  0.33420800588E+02  0.49982518467E+02  0.16018210046E+03  0.17109794672E+03  0.10000000000E+01 0.  0.
    9000005    1    3    3    0    0 -0.33420800588E+02 -0.49982518467E+02  0.28662116216E+03  0.29286155886E+03  0.10000000000E+01 0.  0.
<mgrwt>
<rscale>  0 0.12500107E+03</rscale>
<asrwt>0</asrwt>
<pdfrwt beam="1">  1        4 0.70058682E-01 0.12500107E+03</pdfrwt>
<pdfrwt beam="2">  1       -4 0.13197109E-02 0.12500107E+03</pdfrwt>
<totfact> 0.58771887E+03</totfact>
</mgrwt>
</event>
<event>
 5    1  0.3487578E-002  0.1250008E+03  0.7818608E-02  0.1235068E+00
         -4   -1    0    0    0  501 -0.00000000000E+00  0.00000000000E+00  0.56666805686E+02  0.56681035335E+02  0.12700000000E+01 0.  1.
          4   -1    0    0  501    0  0.00000000000E+00 -0.00000000000E+00 -0.68905845676E+02  0.68917548333E+02  0.12700000000E+01 0.  1.
         25    2    1    2    0    0  0.00000000000E+00  0.00000000000E+00 -0.12239039990E+02  0.12559858367E+03  0.12500084048E+03 0.  0.
    9000005    1    3    3    0    0  0.20327591555E+02  0.59093913676E+02 -0.61499617817E+01  0.62802258255E+02  0.10000000000E+01 0.  0.
    9000005    1    3    3    0    0 -0.20327591555E+02 -0.59093913676E+02 -0.60890782082E+01  0.62796325413E+02  0.10000000000E+01 0.  0.
<mgrwt>
<rscale>  0 0.12500084E+03</rscale>
<asrwt>0</asrwt>
<pdfrwt beam="2">  1        4 0.10602894E-01 0.12500084E+03</pdfrwt>
<pdfrwt beam="1">  1       -4 0.87199649E-02 0.12500084E+03</pdfrwt>
<totfact> 0.10439580E+04</totfact>
</mgrwt>
</event>
<event>
 5    1  0.3487578E-002  0.1249976E+03  0.7818608E-02  0.1235073E+00
          4   -1    0    0  501    0  0.00000000000E+00  0.00000000000E+00  0.20772850276E+02  0.20811636374E+02  0.12700000000E+01 0.  1.
         -4   -1    0    0    0  501 -0.00000000000E+00 -0.00000000000E+00 -0.18782230183E+03  0.18782659546E+03  0.12700000000E+01 0.  1.
         25    2    1    2    0    0  0.00000000000E+00  0.00000000000E+00 -0.16704945155E+03  0.20863823184E+03  0.12499757006E+03 0.  0.
    9000005    1    3    3    0    0 -0.58059022012E+02 -0.15408439386E+02 -0.54767643425E+02  0.81294309811E+02  0.10000000000E+01 0.  0.
    9000005    1    3    3    0    0  0.58059022012E+02  0.15408439386E+02 -0.11228180813E+03  0.12734392203E+03  0.10000000000E+01 0.  0.
<mgrwt>
<rscale>  0 0.12499757E+03</rscale>
<asrwt>0</asrwt>
<pdfrwt beam="1">  1        4 0.31991371E-02 0.12499757E+03</pdfrwt>
<pdfrwt beam="2">  1       -4 0.28899051E-01 0.12499757E+03</pdfrwt>
<totfact> 0.88703579E+03</totfact>
</mgrwt>
</event>
<event>
 5    1  0.3487578E-002  0.1249974E+03  0.7818608E-02  0.1235073E+00
         -4   -1    0    0    0  501 -0.00000000000E+00  0.00000000000E+00  0.11871770142E+03  0.11872449423E+03  0.12700000000E+01 0. -1.
          4   -1    0    0  501    0  0.00000000000E+00 -0.00000000000E+00 -0.32882311137E+02  0.32906827342E+02  0.12700000000E+01 0. -1.
         25    2    1    2    0    0  0.00000000000E+00  0.00000000000E+00  0.85835390279E+02  0.15163132157E+03  0.12499737380E+03 0.  0.
    9000005    1    3    3    0    0 -0.68342598532E+01  0.49924373754E+02  0.87751247722E+02  0.10119501806E+03  0.10000000000E+01 0.  0.
    9000005    1    3    3    0    0  0.68342598532E+01 -0.49924373754E+02 -0.19158574425E+01  0.50436303515E+02  0.10000000000E+01 0.  0.
<mgrwt>
<rscale>  0 0.12499737E+03</rscale>
<asrwt>0</asrwt>
<pdfrwt beam="2">  1        4 0.50612254E-02 0.12499737E+03</pdfrwt>
<pdfrwt beam="1">  1       -4 0.18266670E-01 0.12499737E+03</pdfrwt>
<totfact> 0.98985356E+03</totfact>
</mgrwt>
</event>
<event>
 5    1  0.3487578E-002  0.1249979E+03  0.7818608E-02  0.1235073E+00
          4   -1    0    0  501    0  0.00000000000E+00  0.00000000000E+00  0.14715944056E+03  0.14716492057E+03  0.12700000000E+01 0. -1.
         -4   -1    0    0    0  501 -0.00000000000E+00 -0.00000000000E+00 -0.26522290083E+02  0.26552679172E+02  0.12700000000E+01 0. -1.
         25    2    1    2    0    0  0.00000000000E+00  0.00000000000E+00  0.12063715047E+03  0.17371759974E+03  0.12499792952E+03 0.  0.
    9000005    1    3    3    0    0 -0.58694037449E+02 -0.81810347452E+01  0.32760528204E+02  0.67721278560E+02  0.10000000000E+01 0.  0.
    9000005    1    3    3    0    0  0.58694037449E+02  0.81810347452E+01  0.87876622271E+02  0.10599632118E+03  0.10000000000E+01 0.  0.
<mgrwt>
<rscale>  0 0.12499793E+03</rscale>
<asrwt>0</asrwt>
<pdfrwt beam="1">  1        4 0.22642673E-01 0.12499793E+03</pdfrwt>
<pdfrwt beam="2">  1       -4 0.40831115E-02 0.12499793E+03</pdfrwt>
<totfact> 0.94764637E+03</totfact>
</mgrwt>
</event>
<event>
 5    1  0.3487578E-002  0.1249986E+03  0.7818608E-02  0.1235072E+00
          4   -1    0    0  501    0  0.00000000000E+00  0.00000000000E+00  0.38855352057E+03  0.38855559609E+03  0.12700000000E+01 0.  1.
         -4   -1    0    0    0  501 -0.00000000000E+00 -0.00000000000E+00 -0.10010862268E+02  0.10091098223E+02  0.12700000000E+01 0.  1.
         25    2    1    2    0    0  0.00000000000E+00  0.00000000000E+00  0.37854265831E+03  0.39864669431E+03  0.12499857090E+03 0.  0.
    9000005    1    3    3    0    0 -0.25589252820E+02  0.54236126292E+02  0.13322887532E+03  0.14610715408E+03  0.10000000000E+01 0.  0.
    9000005    1    3    3    0    0  0.25589252820E+02 -0.54236126292E+02  0.24531378299E+03  0.25253954023E+03  0.10000000000E+01 0.  0.
<mgrwt>
<rscale>  0 0.12499857E+03</rscale>
<asrwt>0</asrwt>
<pdfrwt beam="1">  1        4 0.59783794E-01 0.12499857E+03</pdfrwt>
<pdfrwt beam="2">  1       -4 0.15464644E-02 0.12499857E+03</pdfrwt>
<totfact> 0.64686664E+03</totfact>
</mgrwt>
</event>
<event>
 5    1  0.3487578E-002  0.1249987E+03  0.7818608E-02  0.1235071E+00
          4   -1    0    0  501    0  0.00000000000E+00  0.00000000000E+00  0.41868190151E+03  0.41868382767E+03  0.12700000000E+01 0.  1.
         -4   -1    0    0    0  501 -0.00000000000E+00 -0.00000000000E+00 -0.92845053247E+01  0.93709625505E+01  0.12700000000E+01 0.  1.
         25    2    1    2    0    0  0.00000000000E+00  0.00000000000E+00  0.40939739618E+03  0.42805479022E+03  0.12499870170E+03 0.  0.
    9000005    1    3    3    0    0  0.98854615142E+01 -0.34007001878E+02  0.38101655270E+03  0.38266017817E+03  0.10000000000E+01 0.  0.
    9000005    1    3    3    0    0 -0.98854615142E+01  0.34007001878E+02  0.28380843482E+02  0.45394612046E+02  0.10000000000E+01 0.  0.
<mgrwt>
<rscale>  0 0.12499870E+03</rscale>
<asrwt>0</asrwt>
<pdfrwt beam="1">  1        4 0.64419372E-01 0.12499870E+03</pdfrwt>
<pdfrwt beam="2">  1       -4 0.14351848E-02 0.12499870E+03</pdfrwt>
<totfact> 0.61914495E+03</totfact>
</mgrwt>
</event>
<event>
 5    1  0.3487578E-002  0.1250067E+03  0.7818608E-02  0.1235059E+00
         -4   -1    0    0    0  501 -0.00000000000E+00  0.00000000000E+00  0.10306836769E+03  0.10307619181E+03  0.12700000000E+01 0. -1.
          4   -1    0    0  501    0  0.00000000000E+00 -0.00000000000E+00 -0.37883755352E+02  0.37905036863E+02  0.12700000000E+01 0. -1.
         25    2    1    2    0    0  0.00000000000E+00  0.00000000000E+00  0.65184612339E+02  0.14098122867E+03  0.12500669243E+03 0.  0.
    9000005    1    3    3    0    0 -0.26184600874E+02  0.51481702454E+02  0.56745145860E+01  0.58044802750E+02  0.10000000000E+01 0.  0.
    9000005    1    3    3    0    0  0.26184600874E+02 -0.51481702454E+02  0.59510097753E+02  0.82936425924E+02  0.10000000000E+01 0.  0.
<mgrwt>
<rscale>  0 0.12500669E+03</rscale>
<asrwt>0</asrwt>
<pdfrwt beam="2">  1        4 0.58305090E-02 0.12500669E+03</pdfrwt>
<pdfrwt beam="1">  1       -4 0.15858911E-01 0.12500669E+03</pdfrwt>
<totfact> 0.10111765E+04</totfact>
</mgrwt>
</event>
<event>
 5    1  0.3487578E-002  0.1249992E+03  0.7818608E-02  0.1235071E+00
         -4   -1    0    0    0  501 -0.00000000000E+00  0.00000000000E+00  0.17197787233E+03  0.17198256154E+03  0.12700000000E+01 0. -1.
          4   -1    0    0  501    0  0.00000000000E+00 -0.00000000000E+00 -0.22690615715E+02  0.22726129049E+02  0.12700000000E+01 0. -1.
         25    2    1    2    0    0  0.00000000000E+00  0.00000000000E+00  0.14928725662E+03  0.19470869059E+03  0.12499915680E+03 0.  0.
    9000005    1    3    3    0    0  0.39636893926E+02  0.43481973022E+02  0.10744498067E+03  0.12250383344E+03  0.10000000000E+01 0.  0.
    9000005    1    3    3    0    0 -0.39636893926E+02 -0.43481973022E+02  0.41842275951E+02  0.72204857141E+02  0.10000000000E+01 0.  0.
<mgrwt>
<rscale>  0 0.12499916E+03</rscale>
<asrwt>0</asrwt>
<pdfrwt beam="2">  1        4 0.34939564E-02 0.12499916E+03</pdfrwt>
<pdfrwt beam="1">  1       -4 0.26461227E-01 0.12499916E+03</pdfrwt>
<totfact> 0.91036130E+03</totfact>
</mgrwt>
</event>
<event>
 5    1  0.3487578E-002  0.1249990E+03  0.7818608E-02  0.1235071E+00
          4   -1    0    0  501    0  0.00000000000E+00  0.00000000000E+00  0.39519847254E+03  0.39520051316E+03  0.12700000000E+01 0.  1.
         -4   -1    0    0    0  501 -0.00000000000E+00 -0.00000000000E+00 -0.98412385866E+01  0.99228462106E+01  0.12700000000E+01 0.  1.
         25    2    1    2    0    0  0.00000000000E+00  0.00000000000E+00  0.38535723395E+03  0.40512335937E+03  0.12499895417E+03 0.  0.
    9000005    1    3    3    0    0  0.19443181556E+02 -0.53509832510E+02  0.10917326715E+03  0.12313058818E+03  0.10000000000E+01 0.  0.
    9000005    1    3    3    0    0 -0.19443181556E+02  0.53509832510E+02  0.27618396680E+03  0.28199277119E+03  0.10000000000E+01 0.  0.
<mgrwt>
<rscale>  0 0.12499895E+03</rscale>
<asrwt>0</asrwt>
<pdfrwt beam="1">  1        4 0.60806189E-01 0.12499895E+03</pdfrwt>
<pdfrwt beam="2">  1       -4 0.15204714E-02 0.12499895E+03</pdfrwt>
<totfact> 0.64059012E+03</totfact>
</mgrwt>
</event>
<event>
 5    1  0.3487578E-002  0.1250004E+03  0.7818608E-02  0.1235069E+00
          4   -1    0    0  501    0  0.00000000000E+00  0.00000000000E+00  0.37029869632E+02  0.37051641596E+02  0.12700000000E+01 0. -1.
         -4   -1    0    0    0  501 -0.00000000000E+00 -0.00000000000E+00 -0.10543316633E+03  0.10544081497E+03  0.12700000000E+01 0. -1.
         25    2    1    2    0    0  0.00000000000E+00  0.00000000000E+00 -0.68403296697E+02  0.14249245657E+03  0.12500035672E+03 0.  0.
    9000005    1    3    3    0    0  0.24580962990E+01  0.59257364158E+02 -0.56649854416E+02  0.82022456984E+02  0.10000000000E+01 0.  0.
    9000005    1    3    3    0    0 -0.24580962990E+01 -0.59257364158E+02 -0.11753442281E+02  0.60469999585E+02  0.10000000000E+01 0.  0.
<mgrwt>
<rscale>  0 0.12500036E+03</rscale>
<asrwt>0</asrwt>
<pdfrwt beam="1">  1        4 0.56991662E-02 0.12500036E+03</pdfrwt>
<pdfrwt beam="2">  1       -4 0.16222750E-01 0.12500036E+03</pdfrwt>
<totfact> 0.10082106E+04</totfact>
</mgrwt>
</event>
<event>
 5    1  0.3487578E-002  0.1250019E+03  0.7818608E-02  0.1235066E+00
         -4   -1    0    0    0  501 -0.00000000000E+00  0.00000000000E+00  0.41226593534E+02  0.41246150299E+02  0.12700000000E+01 0.  1.
          4   -1    0    0  501    0  0.00000000000E+00 -0.00000000000E+00 -0.94707314187E+02  0.94715828986E+02  0.12700000000E+01 0.  1.
         25    2    1    2    0    0  0.00000000000E+00  0.00000000000E+00 -0.53480720653E+02  0.13596197928E+03  0.12500188930E+03 0.  0.
    9000005    1    3    3    0    0 -0.16123027124E+02 -0.32735870877E+01 -0.92314887703E+02  0.93774766690E+02  0.10000000000E+01 0.  0.
    9000005    1    3    3    0    0  0.16123027124E+02  0.32735870877E+01  0.38834167050E+02  0.42187212595E+02  0.10000000000E+01 0.  0.
<mgrwt>
<rscale>  0 0.12500189E+03</rscale>
<asrwt>0</asrwt>
<pdfrwt beam="2">  1        4 0.14572515E-01 0.12500189E+03</pdfrwt>
<pdfrwt beam="1">  1       -4 0.63447122E-02 0.12500189E+03</pdfrwt>
<totfact> 0.10217399E+04</totfact>
</mgrwt>
</event>
<event>
 5    1  0.3487578E-002  0.1249999E+03  0.7818608E-02  0.1235069E+00
          4   -1    0    0  501    0  0.00000000000E+00  0.00000000000E+00  0.24192399891E+03  0.24192733237E+03  0.12700000000E+01 0. -1.
         -4   -1    0    0    0  501 -0.00000000000E+00 -0.00000000000E+00 -0.16118163006E+02  0.16168119207E+02  0.12700000000E+01 0. -1.
         25    2    1    2    0    0  0.00000000000E+00  0.00000000000E+00  0.22580583591E+03  0.25809545158E+03  0.12499994639E+03 0.  0.
    9000005    1    3    3    0    0  0.42077846842E+01  0.60240148461E+02  0.14611070652E+03  0.15810097880E+03  0.10000000000E+01 0.  0.
    9000005    1    3    3    0    0 -0.42077846842E+01 -0.60240148461E+02  0.79695129391E+02  0.99994472783E+02  0.10000000000E+01 0.  0.
<mgrwt>
<rscale>  0 0.12499995E+03</rscale>
<asrwt>0</asrwt>
<pdfrwt beam="1">  1        4 0.37223173E-01 0.12499995E+03</pdfrwt>
<pdfrwt beam="2">  1       -4 0.24838168E-02 0.12499995E+03</pdfrwt>
<totfact> 0.81174180E+03</totfact>
</mgrwt>
</event>
<event>
 5    1  0.3487578E-002  0.1249999E+03  0.7818608E-02  0.1235069E+00
          4   -1    0    0  501    0  0.00000000000E+00  0.00000000000E+00  0.79485386744E+01  0.80493581768E+01  0.12700000000E+01 0.  1.
         -4   -1    0    0    0  501 -0.00000000000E+00 -0.00000000000E+00 -0.48824339676E+03  0.48824504849E+03  0.12700000000E+01 0.  1.
         25    2    1    2    0    0  0.00000000000E+00  0.00000000000E+00 -0.48029485808E+03  0.49629440667E+03  0.12499994956E+03 0.  0.
    9000005    1    3    3    0    0 -0.52933408128E+02  0.13721817945E+02 -0.36024746646E+03  0.36437545345E+03  0.10000000000E+01 0.  0.
    9000005    1    3    3    0    0  0.52933408128E+02 -0.13721817945E+02 -0.12004739162E+03  0.13191895322E+03  0.10000000000E+01 0.  0.
<mgrwt>
<rscale>  0 0.12499995E+03</rscale>
<asrwt>0</asrwt>
<pdfrwt beam="1">  1        4 0.12307349E-02 0.12499995E+03</pdfrwt>
<pdfrwt beam="2">  1       -4 0.75122228E-01 0.12499995E+03</pdfrwt>
<totfact> 0.56153098E+03</totfact>
</mgrwt>
</event>
<event>
 5    1  0.3487578E-002  0.1250100E+03  0.7818608E-02  0.1235054E+00
          4   -1    0    0  501    0  0.00000000000E+00  0.00000000000E+00  0.29497039902E+02  0.29524367275E+02  0.12700000000E+01 0. -1.
         -4   -1    0    0    0  501 -0.00000000000E+00 -0.00000000000E+00 -0.13235811503E+03  0.13236420783E+03  0.12700000000E+01 0. -1.
         25    2    1    2    0    0  0.00000000000E+00  0.00000000000E+00 -0.10286107513E+03  0.16188857510E+03  0.12501003949E+03 0.  0.
    9000005    1    3    3    0    0  0.39500587912E+02  0.10565826451E+02 -0.11263843823E+03  0.11983468155E+03  0.10000000000E+01 0.  0.
    9000005    1    3    3    0    0 -0.39500587912E+02 -0.10565826451E+02  0.97773631053E+01  0.42053893557E+02  0.10000000000E+01 0.  0.
<mgrwt>
<rscale>  0 0.12501004E+03</rscale>
<asrwt>0</asrwt>
<pdfrwt beam="1">  1        4 0.45405770E-02 0.12501004E+03</pdfrwt>
<pdfrwt beam="2">  1       -4 0.20365357E-01 0.12501004E+03</pdfrwt>
<totfact> 0.96958037E+03</totfact>
</mgrwt>
</event>
<event>
 5    1  0.3487578E-002  0.1249958E+03  0.7818608E-02  0.1235076E+00
          4   -1    0    0  501    0  0.00000000000E+00  0.00000000000E+00  0.17480933933E+03  0.17481395258E+03  0.12700000000E+01 0. -1.
         -4   -1    0    0    0  501 -0.00000000000E+00 -0.00000000000E+00 -0.22321303461E+02  0.22357403431E+02  0.12700000000E+01 0. -1.
         25    2    1    2    0    0  0.00000000000E+00  0.00000000000E+00  0.15248803587E+03  0.19717135601E+03  0.12499577012E+03 0.  0.
    9000005    1    3    3    0    0  0.41078432184E+02 -0.23923240552E+02  0.14022654203E+03  0.14806836974E+03  0.10000000000E+01 0.  0.
    9000005    1    3    3    0    0 -0.41078432184E+02  0.23923240552E+02  0.12261493840E+02  0.49102986267E+02  0.10000000000E+01 0.  0.
<mgrwt>
<rscale>  0 0.12499577E+03</rscale>
<asrwt>0</asrwt>
<pdfrwt beam="1">  1        4 0.26896876E-01 0.12499577E+03</pdfrwt>
<pdfrwt beam="2">  1       -4 0.34371785E-02 0.12499577E+03</pdfrwt>
<totfact> 0.90622857E+03</totfact>
</mgrwt>
</event>
<event>
 5    1  0.3487578E-002  0.1249959E+03  0.7818608E-02  0.1235076E+00
          4   -1    0    0  501    0  0.00000000000E+00  0.00000000000E+00  0.16503620213E+02  0.16552413121E+02  0.12700000000E+01 0. -1.
         -4   -1    0    0    0  501 -0.00000000000E+00 -0.00000000000E+00 -0.23627505128E+03  0.23627846444E+03  0.12700000000E+01 0. -1.
         25    2    1    2    0    0  0.00000000000E+00  0.00000000000E+00 -0.21977143107E+03  0.25283087756E+03  0.12499588287E+03 0.  0.
    9000005    1    3    3    0    0  0.18791080241E+02 -0.18050885399E+02  0.50010989977E+01  0.26550897376E+02  0.10000000000E+01 0.  0.
    9000005    1    3    3    0    0 -0.18791080241E+02  0.18050885399E+02 -0.22477253007E+03  0.22627998019E+03  0.10000000000E+01 0.  0.
<mgrwt>
<rscale>  0 0.12499588E+03</rscale>
<asrwt>0</asrwt>
<pdfrwt beam="1">  1        4 0.25430345E-02 0.12499588E+03</pdfrwt>
<pdfrwt beam="2">  1       -4 0.36354021E-01 0.12499588E+03</pdfrwt>
<totfact> 0.81930306E+03</totfact>
</mgrwt>
</event>
<event>
 5    1  0.3487578E-002  0.1249981E+03  0.7818608E-02  0.1235072E+00
         -4   -1    0    0    0  501 -0.00000000000E+00  0.00000000000E+00  0.15922270939E+03  0.15922777422E+03  0.12700000000E+01 0. -1.
          4   -1    0    0  501    0  0.00000000000E+00 -0.00000000000E+00 -0.24510617905E+02  0.24543497919E+02  0.12700000000E+01 0. -1.
         25    2    1    2    0    0  0.00000000000E+00  0.00000000000E+00  0.13471209148E+03  0.18377127214E+03  0.12499813148E+03 0.  0.
    9000005    1    3    3    0    0 -0.15259461251E+02  0.39064912258E+02 -0.75392321266E+00  0.41958156866E+02  0.10000000000E+01 0.  0.
    9000005    1    3    3    0    0  0.15259461251E+02 -0.39064912258E+02  0.13546601469E+03  0.14181311528E+03  0.10000000000E+01 0.  0.
<mgrwt>
<rscale>  0 0.12499813E+03</rscale>
<asrwt>0</asrwt>
<pdfrwt beam="2">  1        4 0.37737833E-02 0.12499813E+03</pdfrwt>
<pdfrwt beam="1">  1       -4 0.24498719E-01 0.12499813E+03</pdfrwt>
<totfact> 0.92946426E+03</totfact>
</mgrwt>
</event>
<event>
 5    1  0.3487578E-002  0.1249954E+03  0.7818608E-02  0.1235076E+00
         -4   -1    0    0    0  501 -0.00000000000E+00  0.00000000000E+00  0.58962355389E+01  0.60314586570E+01  0.12700000000E+01 0.  1.
          4   -1    0    0  501    0  0.00000000000E+00 -0.00000000000E+00 -0.65480425568E+03  0.65480548727E+03  0.12700000000E+01 0.  1.
         25    2    1    2    0    0  0.00000000000E+00  0.00000000000E+00 -0.64890802014E+03  0.66083694593E+03  0.12499540190E+03 0.  0.
    9000005    1    3    3    0    0  0.33036774397E+02 -0.41585815452E+02 -0.49853277204E+03  0.50135489756E+03  0.10000000000E+01 0.  0.
    9000005    1    3    3    0    0 -0.33036774397E+02  0.41585815452E+02 -0.15037524810E+03  0.15948204837E+03  0.10000000000E+01 0.  0.
<mgrwt>
<rscale>  0 0.12499540E+03</rscale>
<asrwt>0</asrwt>
<pdfrwt beam="2">  1        4 0.10074956E+00 0.12499540E+03</pdfrwt>
<pdfrwt beam="1">  1       -4 0.91761019E-03 0.12499540E+03</pdfrwt>
<totfact> 0.45240681E+03</totfact>
</mgrwt>
</event>
<event>
 5    1  0.3487578E-002  0.1250016E+03  0.7818608E-02  0.1235067E+00
          4   -1    0    0  501    0  0.00000000000E+00  0.00000000000E+00  0.56057652990E+03  0.56057796850E+03  0.12700000000E+01 0.  1.
         -4   -1    0    0    0  501 -0.00000000000E+00 -0.00000000000E+00 -0.69091242358E+01  0.70248770598E+01  0.12700000000E+01 0.  1.
         25    2    1    2    0    0  0.00000000000E+00  0.00000000000E+00  0.55366740566E+03  0.56760284556E+03  0.12500157679E+03 0.  0.
    9000005    1    3    3    0    0  0.25713074613E+02 -0.50350662700E+02  0.15592674190E+03  0.16586289603E+03  0.10000000000E+01 0.  0.
    9000005    1    3    3    0    0 -0.25713074613E+02  0.50350662700E+02  0.39774066376E+03  0.40173994953E+03  0.10000000000E+01 0.  0.
<mgrwt>
<rscale>  0 0.12500158E+03</rscale>
<asrwt>0</asrwt>
<pdfrwt beam="1">  1        4 0.86251579E-01 0.12500158E+03</pdfrwt>
<pdfrwt beam="2">  1       -4 0.10719566E-02 0.12500158E+03</pdfrwt>
<totfact> 0.50976849E+03</totfact>
</mgrwt>
</event>
<event>
 5    1  0.3487578E-002  0.1250003E+03  0.7818608E-02  0.1235069E+00
          4   -1    0    0  501    0  0.00000000000E+00  0.00000000000E+00  0.34881987340E+02  0.34905099065E+02  0.12700000000E+01 0. -1.
         -4   -1    0    0    0  501 -0.00000000000E+00 -0.00000000000E+00 -0.11192145934E+03  0.11192866461E+03  0.12700000000E+01 0. -1.
         25    2    1    2    0    0  0.00000000000E+00  0.00000000000E+00 -0.77039471998E+02  0.14683376367E+03  0.12500029563E+03 0.  0.
    9000005    1    3    3    0    0  0.30664608423E+02 -0.75729967577E+01 -0.10186034284E+03  0.10664988483E+03  0.10000000000E+01 0.  0.
    9000005    1    3    3    0    0 -0.30664608423E+02  0.75729967577E+01  0.24820870843E+02  0.40183878845E+02  0.10000000000E+01 0.  0.
<mgrwt>
<rscale>  0 0.12500030E+03</rscale>
<asrwt>0</asrwt>
<pdfrwt beam="1">  1        4 0.53687917E-02 0.12500030E+03</pdfrwt>
<pdfrwt beam="2">  1       -4 0.17221018E-01 0.12500030E+03</pdfrwt>
<totfact> 0.99937961E+03</totfact>
</mgrwt>
</event>
<event>
 5    1  0.3487578E-002  0.1249996E+03  0.7818608E-02  0.1235070E+00
          4   -1    0    0  501    0  0.00000000000E+00  0.00000000000E+00  0.18346558653E+03  0.18346998213E+03  0.12700000000E+01 0. -1.
         -4   -1    0    0    0  501 -0.00000000000E+00 -0.00000000000E+00 -0.21267725504E+02  0.21305610719E+02  0.12700000000E+01 0. -1.
         25    2    1    2    0    0  0.00000000000E+00  0.00000000000E+00  0.16219786103E+03  0.20477559285E+03  0.12499958921E+03 0.  0.
    9000005    1    3    3    0    0 -0.57211076221E+02  0.21245411703E+02  0.10312354101E+03  0.11983296487E+03  0.10000000000E+01 0.  0.
    9000005    1    3    3    0    0  0.57211076221E+02 -0.21245411703E+02  0.59074320024E+02  0.84942627973E+02  0.10000000000E+01 0.  0.
<mgrwt>
<rscale>  0 0.12499959E+03</rscale>
<asrwt>0</asrwt>
<pdfrwt beam="1">  1        4 0.28228726E-01 0.12499959E+03</pdfrwt>
<pdfrwt beam="2">  1       -4 0.32752102E-02 0.12499959E+03</pdfrwt>
<totfact> 0.89337088E+03</totfact>
</mgrwt>
</event>
<event>
 5    1  0.3487578E-002  0.1249980E+03  0.7818608E-02  0.1235072E+00
         -4   -1    0    0    0  501 -0.00000000000E+00  0.00000000000E+00  0.15219016227E+03  0.15219546114E+03  0.12700000000E+01 0. -1.
          4   -1    0    0  501    0  0.00000000000E+00 -0.00000000000E+00 -0.25644630163E+02  0.25676058035E+02  0.12700000000E+01 0. -1.
         25    2    1    2    0    0  0.00000000000E+00  0.00000000000E+00  0.12654553211E+03  0.17787151918E+03  0.12499802254E+03 0.  0.
    9000005    1    3    3    0    0  0.17851268134E+02  0.55893224832E+02  0.93872315172E+02  0.11070560922E+03  0.10000000000E+01 0.  0.
    9000005    1    3    3    0    0 -0.17851268134E+02 -0.55893224832E+02  0.32673216939E+02  0.67165909964E+02  0.10000000000E+01 0.  0.
<mgrwt>
<rscale>  0 0.12499802E+03</rscale>
<asrwt>0</asrwt>
<pdfrwt beam="2">  1        4 0.39481529E-02 0.12499802E+03</pdfrwt>
<pdfrwt beam="1">  1       -4 0.23416696E-01 0.12499802E+03</pdfrwt>
<totfact> 0.94005714E+03</totfact>
</mgrwt>
</event>
<event>
 5    1  0.3487578E-002  0.1250076E+03  0.7818608E-02  0.1235057E+00
         -4   -1    0    0    0  501 -0.00000000000E+00  0.00000000000E+00  0.31726649254E+03  0.31726903440E+03  0.12700000000E+01 0.  1.
          4   -1    0    0  501    0  0.00000000000E+00 -0.00000000000E+00 -0.12278352214E+02  0.12343858112E+02  0.12700000000E+01 0.  1.
         25    2    1    2    0    0  0.00000000000E+00  0.00000000000E+00  0.30498814032E+03  0.32961289251E+03  0.12500757245E+03 0.  0.
    9000005    1    3    3    0    0 -0.13672595391E+02 -0.78982748618E+00 -0.82858773914E+01  0.16038062736E+02  0.10000000000E+01 0.  0.
    9000005    1    3    3    0    0  0.13672595391E+02  0.78982748618E+00  0.31327401772E+03  0.31357482977E+03  0.10000000000E+01 0.  0.
<mgrwt>
<rscale>  0 0.12500757E+03</rscale>
<asrwt>0</asrwt>
<pdfrwt beam="2">  1        4 0.18942118E-02 0.12500757E+03</pdfrwt>
<pdfrwt beam="1">  1       -4 0.48815461E-01 0.12500757E+03</pdfrwt>
<totfact> 0.72015118E+03</totfact>
</mgrwt>
</event>
<event>
 5    1  0.3487578E-002  0.1250015E+03  0.7818608E-02  0.1235067E+00
         -4   -1    0    0    0  501 -0.00000000000E+00  0.00000000000E+00  0.41701180044E+02  0.41720514344E+02  0.12700000000E+01 0. -1.
          4   -1    0    0  501    0  0.00000000000E+00 -0.00000000000E+00 -0.93629335868E+02  0.93637948691E+02  0.12700000000E+01 0. -1.
         25    2    1    2    0    0  0.00000000000E+00  0.00000000000E+00 -0.51928155824E+02  0.13535846303E+03  0.12500152058E+03 0.  0.
    9000005    1    3    3    0    0 -0.60299185023E+02 -0.16411868664E+02 -0.25896544664E+02  0.67653323444E+02  0.10000000000E+01 0.  0.
    9000005    1    3    3    0    0  0.60299185023E+02  0.16411868664E+02 -0.26031611160E+02  0.67705139591E+02  0.10000000000E+01 0.  0.
<mgrwt>
<rscale>  0 0.12500152E+03</rscale>
<asrwt>0</asrwt>
<pdfrwt beam="2">  1        4 0.14406663E-01 0.12500152E+03</pdfrwt>
<pdfrwt beam="1">  1       -4 0.64177160E-02 0.12500152E+03</pdfrwt>
<totfact> 0.10230170E+04</totfact>
</mgrwt>
</event>
<event>
 5    1  0.3487578E-002  0.1249985E+03  0.7818608E-02  0.1235072E+00
         -4   -1    0    0    0  501 -0.00000000000E+00  0.00000000000E+00  0.20206863495E+03  0.20207262588E+03  0.12700000000E+01 0.  1.
          4   -1    0    0  501    0  0.00000000000E+00 -0.00000000000E+00 -0.19305781009E+02  0.19347508376E+02  0.12700000000E+01 0.  1.
         25    2    1    2    0    0  0.00000000000E+00  0.00000000000E+00  0.18276285394E+03  0.22142013426E+03  0.12499846029E+03 0.  0.
    9000005    1    3    3    0    0 -0.12992085963E+02 -0.28074632811E+01 -0.16781446592E+02  0.21431124503E+02  0.10000000000E+01 0.  0.
    9000005    1    3    3    0    0  0.12992085963E+02  0.28074632811E+01  0.19954430054E+03  0.19998900976E+03  0.10000000000E+01 0.  0.
<mgrwt>
<rscale>  0 0.12499846E+03</rscale>
<asrwt>0</asrwt>
<pdfrwt beam="2">  1        4 0.29736370E-02 0.12499846E+03</pdfrwt>
<pdfrwt beam="1">  1       -4 0.31090999E-01 0.12499846E+03</pdfrwt>
<totfact> 0.86647109E+03</totfact>
</mgrwt>
</event>
<event>
 5    1  0.3487578E-002  0.1250024E+03  0.7818608E-02  0.1235065E+00
          4   -1    0    0  501    0  0.00000000000E+00  0.00000000000E+00  0.21779426855E+02  0.21816423496E+02  0.12700000000E+01 0. -1.
         -4   -1    0    0    0  501 -0.00000000000E+00 -0.00000000000E+00 -0.17917056332E+03  0.17917506428E+03  0.12700000000E+01 0. -1.
         25    2    1    2    0    0  0.00000000000E+00  0.00000000000E+00 -0.15739113646E+03  0.20099148777E+03  0.12500243326E+03 0.  0.
    9000005    1    3    3    0    0  0.54999360115E+02  0.60802035071E+00 -0.30994742831E+02  0.63142484786E+02  0.10000000000E+01 0.  0.
    9000005    1    3    3    0    0 -0.54999360115E+02 -0.60802035071E+00 -0.12639639363E+03  0.13784900299E+03  0.10000000000E+01 0.  0.
<mgrwt>
<rscale>  0 0.12500243E+03</rscale>
<asrwt>0</asrwt>
<pdfrwt beam="1">  1        4 0.33538733E-02 0.12500243E+03</pdfrwt>
<pdfrwt beam="2">  1       -4 0.27567893E-01 0.12500243E+03</pdfrwt>
<totfact> 0.89963655E+03</totfact>
</mgrwt>
</event>
<event>
 5    1  0.3487578E-002  0.1249993E+03  0.7818608E-02  0.1235070E+00
         -4   -1    0    0    0  501 -0.00000000000E+00  0.00000000000E+00  0.17403994874E+03  0.17404458238E+03  0.12700000000E+01 0.  1.
          4   -1    0    0  501    0  0.00000000000E+00 -0.00000000000E+00 -0.22421396077E+02  0.22457335150E+02  0.12700000000E+01 0.  1.
         25    2    1    2    0    0  0.00000000000E+00  0.00000000000E+00  0.15161855266E+03  0.19650191753E+03  0.12499927233E+03 0.  0.
    9000005    1    3    3    0    0 -0.52199659560E+02 -0.29986093594E+02  0.10217219050E+03  0.11859227116E+03  0.10000000000E+01 0.  0.
    9000005    1    3    3    0    0  0.52199659560E+02  0.29986093594E+02  0.49446362164E+02  0.77909646376E+02  0.10000000000E+01 0.  0.
<mgrwt>
<rscale>  0 0.12499927E+03</rscale>
<asrwt>0</asrwt>
<pdfrwt beam="2">  1        4 0.34525663E-02 0.12499927E+03</pdfrwt>
<pdfrwt beam="1">  1       -4 0.26778499E-01 0.12499927E+03</pdfrwt>
<totfact> 0.90729624E+03</totfact>
</mgrwt>
</event>
<event>
 5    1  0.3487578E-002  0.1249983E+03  0.7818608E-02  0.1235072E+00
          4   -1    0    0  501    0  0.00000000000E+00  0.00000000000E+00  0.11602273413E+03  0.11602968471E+03  0.12700000000E+01 0. -1.
         -4   -1    0    0    0  501 -0.00000000000E+00 -0.00000000000E+00 -0.33647118911E+02  0.33671078257E+02  0.12700000000E+01 0. -1.
         25    2    1    2    0    0  0.00000000000E+00  0.00000000000E+00  0.82375615218E+02  0.14970076297E+03  0.12499830579E+03 0.  0.
    9000005    1    3    3    0    0 -0.25957062354E+02  0.50800764103E+02  0.10638872808E+02  0.58040264766E+02  0.10000000000E+01 0.  0.
    9000005    1    3    3    0    0  0.25957062354E+02 -0.50800764103E+02  0.71736742410E+02  0.91660498205E+02  0.10000000000E+01 0.  0.
<mgrwt>
<rscale>  0 0.12499831E+03</rscale>
<asrwt>0</asrwt>
<pdfrwt beam="1">  1        4 0.17852029E-01 0.12499831E+03</pdfrwt>
<pdfrwt beam="2">  1       -4 0.51788576E-02 0.12499831E+03</pdfrwt>
<totfact> 0.99367169E+03</totfact>
</mgrwt>
</event>
<event>
 5    1  0.3487578E-002  0.1250047E+03  0.7818608E-02  0.1235062E+00
          4   -1    0    0  501    0  0.00000000000E+00  0.00000000000E+00  0.20903188788E+03  0.20903574587E+03  0.12700000000E+01 0.  1.
         -4   -1    0    0    0  501 -0.00000000000E+00 -0.00000000000E+00 -0.18663135262E+02  0.18706296208E+02  0.12700000000E+01 0.  1.
         25    2    1    2    0    0  0.00000000000E+00  0.00000000000E+00  0.19036875262E+03  0.22774204208E+03  0.12500470293E+03 0.  0.
    9000005    1    3    3    0    0 -0.34244397908E+02  0.35506450218E+02  0.16508707514E+03  0.17230243520E+03  0.10000000000E+01 0.  0.
    9000005    1    3    3    0    0  0.34244397908E+02 -0.35506450218E+02  0.25281677478E+02  0.55439606883E+02  0.10000000000E+01 0.  0.
<mgrwt>
<rscale>  0 0.12500470E+03</rscale>
<asrwt>0</asrwt>
<pdfrwt beam="1">  1        4 0.32162369E-01 0.12500470E+03</pdfrwt>
<pdfrwt beam="2">  1       -4 0.28748684E-02 0.12500470E+03</pdfrwt>
<totfact> 0.85648529E+03</totfact>
</mgrwt>
</event>
<event>
 5    1  0.3487578E-002  0.1249988E+03  0.7818608E-02  0.1235071E+00
         -4   -1    0    0    0  501 -0.00000000000E+00  0.00000000000E+00  0.13944958072E+02  0.14002669589E+02  0.12700000000E+01 0.  1.
          4   -1    0    0  501    0  0.00000000000E+00 -0.00000000000E+00 -0.27947635355E+03  0.27947923911E+03  0.12700000000E+01 0.  1.
         25    2    1    2    0    0  0.00000000000E+00  0.00000000000E+00 -0.26553139547E+03  0.29348190870E+03  0.12499883499E+03 0.  0.
    9000005    1    3    3    0    0  0.40320081644E+02  0.25553279631E+02 -0.22745526901E+03  0.23241251792E+03  0.10000000000E+01 0.  0.
    9000005    1    3    3    0    0 -0.40320081644E+02 -0.25553279631E+02 -0.38076126465E+02  0.61069390780E+02  0.10000000000E+01 0.  0.
<mgrwt>
<rscale>  0 0.12499883E+03</rscale>
<asrwt>0</asrwt>
<pdfrwt beam="2">  1        4 0.43001019E-01 0.12499883E+03</pdfrwt>
<pdfrwt beam="1">  1       -4 0.21500397E-02 0.12499883E+03</pdfrwt>
<totfact> 0.76425777E+03</totfact>
</mgrwt>
</event>
<event>
 5    1  0.3487578E-002  0.1250008E+03  0.7818608E-02  0.1235068E+00
         -4   -1    0    0    0  501 -0.00000000000E+00  0.00000000000E+00  0.40089954003E+03  0.40090155162E+03  0.12700000000E+01 0.  1.
          4   -1    0    0  501    0  0.00000000000E+00 -0.00000000000E+00 -0.97004072906E+01  0.97831897458E+01  0.12700000000E+01 0.  1.
         25    2    1    2    0    0  0.00000000000E+00  0.00000000000E+00  0.39119913273E+03  0.41068474137E+03  0.12500078136E+03 0.  0.
    9000005    1    3    3    0    0 -0.56146117878E+02 -0.27439229335E+02  0.19549694787E+03  0.20524462109E+03  0.10000000000E+01 0.  0.
    9000005    1    3    3    0    0  0.56146117878E+02  0.27439229335E+02  0.19570218486E+03  0.20544012027E+03  0.10000000000E+01 0.  0.
<mgrwt>
<rscale>  0 0.12500078E+03</rscale>
<asrwt>0</asrwt>
<pdfrwt beam="2">  1        4 0.14988930E-02 0.12500078E+03</pdfrwt>
<pdfrwt beam="1">  1       -4 0.61683373E-01 0.12500078E+03</pdfrwt>
<totfact> 0.63525607E+03</totfact>
</mgrwt>
</event>
<event>
 5    1  0.3487578E-002  0.1250055E+03  0.7818608E-02  0.1235061E+00
          4   -1    0    0  501    0  0.00000000000E+00  0.00000000000E+00  0.10709266870E+02  0.10784307901E+02  0.12700000000E+01 0. -1.
         -4   -1    0    0    0  501 -0.00000000000E+00 -0.00000000000E+00 -0.36343669855E+03  0.36343891750E+03  0.12700000000E+01 0. -1.
         25    2    1    2    0    0  0.00000000000E+00  0.00000000000E+00 -0.35272743168E+03  0.37422322540E+03  0.12500552536E+03 0.  0.
    9000005    1    3    3    0    0 -0.30001430730E+02 -0.30926559180E+01 -0.34022201566E+03  0.34155771153E+03  0.10000000000E+01 0.  0.
    9000005    1    3    3    0    0  0.30001430730E+02  0.30926559180E+01 -0.12505416018E+02  0.32665513868E+02  0.10000000000E+01 0.  0.
<mgrwt>
<rscale>  0 0.12500553E+03</rscale>
<asrwt>0</asrwt>
<pdfrwt beam="1">  1        4 0.16535229E-02 0.12500553E+03</pdfrwt>
<pdfrwt beam="2">  1       -4 0.55919272E-01 0.12500553E+03</pdfrwt>
<totfact> 0.67131216E+03</totfact>
</mgrwt>
</event>
<event>
 5    1  0.3487578E-002  0.1250209E+03  0.7818608E-02  0.1235037E+00
         -4   -1    0    0    0  501 -0.00000000000E+00  0.00000000000E+00  0.91871666110E+03  0.91871753890E+03  0.12700000000E+01 0. -1.
          4   -1    0    0  501    0  0.00000000000E+00 -0.00000000000E+00 -0.41575713496E+01  0.43472174465E+01  0.12700000000E+01 0. -1.
         25    2    1    2    0    0  0.00000000000E+00  0.00000000000E+00  0.91455908975E+03  0.92306475635E+03  0.12502086132E+03 0.  0.
    9000005    1    3    3    0    0 -0.35575871789E+02  0.17587134334E+02  0.10076514331E+03  0.10830311193E+03  0.10000000000E+01 0.  0.
    9000005    1    3    3    0    0  0.35575871789E+02 -0.17587134334E+02  0.81379394644E+03  0.81476164442E+03  0.10000000000E+01 0.  0.
<mgrwt>
<rscale>  0 0.12502086E+03</rscale>
<asrwt>0</asrwt>
<pdfrwt beam="2">  1        4 0.65428219E-03 0.12502086E+03</pdfrwt>
<pdfrwt beam="1">  1       -4 0.14135565E+00 0.12502086E+03</pdfrwt>
<totfact> 0.33276835E+03</totfact>
</mgrwt>
</event>
<event>
 5    1  0.3487578E-002  0.1249913E+03  0.7818608E-02  0.1235083E+00
          4   -1    0    0  501    0  0.00000000000E+00  0.00000000000E+00  0.14885138308E+03  0.14885680080E+03  0.12700000000E+01 0.  1.
         -4   -1    0    0    0  501 -0.00000000000E+00 -0.00000000000E+00 -0.26217684210E+02  0.26248425959E+02  0.12700000000E+01 0.  1.
         25    2    1    2    0    0  0.00000000000E+00  0.00000000000E+00  0.12263369887E+03  0.17510522676E+03  0.12499126505E+03 0.  0.
    9000005    1    3    3    0    0  0.60800318407E+02 -0.80008748565E+00  0.81491608349E+02  0.10168186215E+03  0.10000000000E+01 0.  0.
    9000005    1    3    3    0    0 -0.60800318407E+02  0.80008748565E+00  0.41142090517E+02  0.73423364609E+02  0.10000000000E+01 0.  0.
<mgrwt>
<rscale>  0 0.12499127E+03</rscale>
<asrwt>0</asrwt>
<pdfrwt beam="1">  1        4 0.22902994E-01 0.12499127E+03</pdfrwt>
<pdfrwt beam="2">  1       -4 0.40362714E-02 0.12499127E+03</pdfrwt>
<totfact> 0.94524093E+03</totfact>
</mgrwt>
</event>
<event>
 5    1  0.3487578E-002  0.1250017E+03  0.7818608E-02  0.1235067E+00
          4   -1    0    0  501    0  0.00000000000E+00  0.00000000000E+00  0.19108614439E+02  0.19150771414E+02  0.12700000000E+01 0. -1.
         -4   -1    0    0    0  501 -0.00000000000E+00 -0.00000000000E+00 -0.20415983800E+03  0.20416378805E+03  0.12700000000E+01 0. -1.
         25    2    1    2    0    0  0.00000000000E+00  0.00000000000E+00 -0.18505122356E+03  0.22331455947E+03  0.12500174850E+03 0.  0.
    9000005    1    3    3    0    0 -0.57885315593E+02 -0.14889740407E+02 -0.59927886284E+02  0.84644938922E+02  0.10000000000E+01 0.  0.
    9000005    1    3    3    0    0  0.57885315593E+02  0.14889740407E+02 -0.12512333728E+03  0.13866962054E+03  0.10000000000E+01 0.  0.
<mgrwt>
<rscale>  0 0.12500175E+03</rscale>
<asrwt>0</asrwt>
<pdfrwt beam="1">  1        4 0.29433337E-02 0.12500175E+03</pdfrwt>
<pdfrwt beam="2">  1       -4 0.31412751E-01 0.12500175E+03</pdfrwt>
<totfact> 0.86343196E+03</totfact>
</mgrwt>
</event>
<event>
 5    1  0.3487578E-002  0.1249971E+03  0.7818608E-02  0.1235074E+00
         -4   -1    0    0    0  501 -0.00000000000E+00  0.00000000000E+00  0.23544764761E+02  0.23578991659E+02  0.12700000000E+01 0.  1.
          4   -1    0    0  501    0  0.00000000000E+00 -0.00000000000E+00 -0.16574243272E+03  0.16574729833E+03  0.12700000000E+01 0.  1.
         25    2    1    2    0    0  0.00000000000E+00  0.00000000000E+00 -0.14219766796E+03  0.18932628999E+03  0.12499706920E+03 0.  0.
    9000005    1    3    3    0    0  0.22826738255E+02 -0.34831914874E+02 -0.52959168391E+00  0.41660565773E+02  0.10000000000E+01 0.  0.
    9000005    1    3    3    0    0 -0.22826738255E+02  0.34831914874E+02 -0.14166807628E+03  0.14766572422E+03  0.10000000000E+01 0.  0.
<mgrwt>
<rscale>  0 0.12499707E+03</rscale>
<asrwt>0</asrwt>
<pdfrwt beam="2">  1        4 0.25501842E-01 0.12499707E+03</pdfrwt>
<pdfrwt beam="1">  1       -4 0.36252787E-02 0.12499707E+03</pdfrwt>
<totfact> 0.91970708E+03</totfact>
</mgrwt>
</event>
<event>
 5    1  0.3487578E-002  0.1250007E+03  0.7818608E-02  0.1235068E+00
          4   -1    0    0  501    0  0.00000000000E+00  0.00000000000E+00  0.12406579550E+03  0.12407229551E+03  0.12700000000E+01 0. -1.
         -4   -1    0    0    0  501 -0.00000000000E+00 -0.00000000000E+00 -0.31465538777E+02  0.31491157974E+02  0.12700000000E+01 0. -1.
         25    2    1    2    0    0  0.00000000000E+00  0.00000000000E+00  0.92600256728E+02  0.15556345349E+03  0.12500072206E+03 0.  0.
    9000005    1    3    3    0    0  0.67544961678E+01  0.21209928521E+02  0.11897097132E+03  0.12103956503E+03  0.10000000000E+01 0.  0.
    9000005    1    3    3    0    0 -0.67544961678E+01 -0.21209928521E+02 -0.26370714589E+02  0.34523888459E+02  0.10000000000E+01 0.  0.
<mgrwt>
<rscale>  0 0.12500072E+03</rscale>
<asrwt>0</asrwt>
<pdfrwt beam="1">  1        4 0.19089516E-01 0.12500072E+03</pdfrwt>
<pdfrwt beam="2">  1       -4 0.48433230E-02 0.12500072E+03</pdfrwt>
<totfact> 0.98203405E+03</totfact>
</mgrwt>
</event>
<event>
 5    1  0.3487578E-002  0.1250004E+03  0.7818608E-02  0.1235069E+00
         -4   -1    0    0    0  501 -0.00000000000E+00  0.00000000000E+00  0.40847312455E+02  0.40867050723E+02  0.12700000000E+01 0. -1.
          4   -1    0    0  501    0  0.00000000000E+00 -0.00000000000E+00 -0.95584035541E+02  0.95592472247E+02  0.12700000000E+01 0. -1.
         25    2    1    2    0    0  0.00000000000E+00  0.00000000000E+00 -0.54736723086E+02  0.13645952297E+03  0.12500037022E+03 0.  0.
    9000005    1    3    3    0    0  0.61711908038E+02 -0.60782677626E-01 -0.38115095838E+02  0.72540497785E+02  0.10000000000E+01 0.  0.
    9000005    1    3    3    0    0 -0.61711908038E+02  0.60782677626E-01 -0.16621627248E+02  0.63919025185E+02  0.10000000000E+01 0.  0.
<mgrwt>
<rscale>  0 0.12500037E+03</rscale>
<asrwt>0</asrwt>
<pdfrwt beam="2">  1        4 0.14707403E-01 0.12500037E+03</pdfrwt>
<pdfrwt beam="1">  1       -4 0.62863692E-02 0.12500037E+03</pdfrwt>
<totfact> 0.10207313E+04</totfact>
</mgrwt>
</event>
<event>
 5    1  0.3487578E-002  0.1249634E+03  0.7818608E-02  0.1235127E+00
         -4   -1    0    0    0  501 -0.00000000000E+00  0.00000000000E+00  0.71081650806E+02  0.71092995304E+02  0.12700000000E+01 0.  1.
          4   -1    0    0  501    0  0.00000000000E+00 -0.00000000000E+00 -0.54899138062E+02  0.54913825763E+02  0.12700000000E+01 0.  1.
         25    2    1    2    0    0  0.00000000000E+00  0.00000000000E+00  0.16182512744E+02  0.12600682107E+03  0.12496337558E+03 0.  0.
    9000005    1    3    3    0    0  0.40406591452E+02  0.33243946638E+02  0.42509961492E+02  0.67423656434E+02  0.10000000000E+01 0.  0.
    9000005    1    3    3    0    0 -0.40406591452E+02 -0.33243946638E+02 -0.26327448748E+02  0.58583164633E+02  0.10000000000E+01 0.  0.
<mgrwt>
<rscale>  0 0.12496338E+03</rscale>
<asrwt>0</asrwt>
<pdfrwt beam="2">  1        4 0.84480238E-02 0.12496338E+03</pdfrwt>
<pdfrwt beam="1">  1       -4 0.10937641E-01 0.12496338E+03</pdfrwt>
<totfact> 0.10439433E+04</totfact>
</mgrwt>
</event>
<event>
 5    1  0.3487578E-002  0.1250077E+03  0.7818608E-02  0.1235057E+00
          4   -1    0    0  501    0  0.00000000000E+00  0.00000000000E+00  0.38602905385E+03  0.38603114293E+03  0.12700000000E+01 0.  1.
         -4   -1    0    0    0  501 -0.00000000000E+00 -0.00000000000E+00 -0.10078331855E+02  0.10158034898E+02  0.12700000000E+01 0.  1.
         25    2    1    2    0    0  0.00000000000E+00  0.00000000000E+00  0.37595072199E+03  0.39618917783E+03  0.12500767682E+03 0.  0.
    9000005    1    3    3    0    0  0.53558675217E+02 -0.26981495251E+02  0.13224606109E+03  0.14521209815E+03  0.10000000000E+01 0.  0.
    9000005    1    3    3    0    0 -0.53558675217E+02  0.26981495251E+02  0.24370466091E+03  0.25097707968E+03  0.10000000000E+01 0.  0.
<mgrwt>
<rscale>  0 0.12500768E+03</rscale>
<asrwt>0</asrwt>
<pdfrwt beam="1">  1        4 0.59395379E-01 0.12500768E+03</pdfrwt>
<pdfrwt beam="2">  1       -4 0.15568042E-02 0.12500768E+03</pdfrwt>
<totfact> 0.64914113E+03</totfact>
</mgrwt>
</event>
<event>
 5    1  0.3487578E-002  0.1249918E+03  0.7818608E-02  0.1235082E+00
         -4   -1    0    0    0  501 -0.00000000000E+00  0.00000000000E+00  0.23268276873E+02  0.23302909875E+02  0.12700000000E+01 0. -1.
          4   -1    0    0  501    0  0.00000000000E+00 -0.00000000000E+00 -0.16769485074E+03  0.16769965970E+03  0.12700000000E+01 0. -1.
         25    2    1    2    0    0  0.00000000000E+00  0.00000000000E+00 -0.14442657386E+03  0.19100256958E+03  0.12499178512E+03 0.  0.
    9000005    1    3    3    0    0 -0.35410563199E+02 -0.35292597227E+02 -0.12949767314E+03  0.13881686768E+03  0.10000000000E+01 0.  0.
    9000005    1    3    3    0    0  0.35410563199E+02  0.35292597227E+02 -0.14928900726E+02  0.52185701893E+02  0.10000000000E+01 0.  0.
<mgrwt>
<rscale>  0 0.12499179E+03</rscale>
<asrwt>0</asrwt>
<pdfrwt beam="2">  1        4 0.25802241E-01 0.12499179E+03</pdfrwt>
<pdfrwt beam="1">  1       -4 0.35827690E-02 0.12499179E+03</pdfrwt>
<totfact> 0.91690033E+03</totfact>
</mgrwt>
</event>
<event>
 5    1  0.3487578E-002  0.1249991E+03  0.7818608E-02  0.1235071E+00
         -4   -1    0    0    0  501 -0.00000000000E+00  0.00000000000E+00  0.14467122861E+03  0.14467680287E+03  0.12700000000E+01 0. -1.
          4   -1    0    0  501    0  0.00000000000E+00 -0.00000000000E+00 -0.26979455418E+02  0.27009330141E+02  0.12700000000E+01 0. -1.
         25    2    1    2    0    0  0.00000000000E+00  0.00000000000E+00  0.11769177319E+03  0.17168613301E+03  0.12499909916E+03 0.  0.
    9000005    1    3    3    0    0  0.61362636347E+02 -0.11647445963E+02  0.56045308929E+02  0.83923255358E+02  0.10000000000E+01 0.  0.
    9000005    1    3    3    0    0 -0.61362636347E+02  0.11647445963E+02  0.61646464262E+02  0.87762877648E+02  0.10000000000E+01 0.  0.
<mgrwt>
<rscale>  0 0.12499910E+03</rscale>
<asrwt>0</asrwt>
<pdfrwt beam="2">  1        4 0.41534125E-02 0.12499910E+03</pdfrwt>
<pdfrwt beam="1">  1       -4 0.22259838E-01 0.12499910E+03</pdfrwt>
<totfact> 0.95137219E+03</totfact>
</mgrwt>
</event>
<event>
 5    1  0.3487578E-002  0.1250035E+03  0.7818608E-02  0.1235064E+00
          4   -1    0    0  501    0  0.00000000000E+00  0.00000000000E+00  0.36097462798E+03  0.36097686206E+03  0.12700000000E+01 0. -1.
         -4   -1    0    0    0  501 -0.00000000000E+00 -0.00000000000E+00 -0.10782463347E+02  0.10856998472E+02  0.12700000000E+01 0. -1.
         25    2    1    2    0    0  0.00000000000E+00  0.00000000000E+00  0.35019216463E+03  0.37183386054E+03  0.12500347064E+03 0.  0.
    9000005    1    3    3    0    0  0.11826043067E+02  0.22513091349E+02  0.52897524564E+01  0.25993769595E+02  0.10000000000E+01 0.  0.
    9000005    1    3    3    0    0 -0.11826043067E+02 -0.22513091349E+02  0.34490241218E+03  0.34584009094E+03  0.10000000000E+01 0.  0.
<mgrwt>
<rscale>  0 0.12500347E+03</rscale>
<asrwt>0</asrwt>
<pdfrwt beam="1">  1        4 0.55540457E-01 0.12500347E+03</pdfrwt>
<pdfrwt beam="2">  1       -4 0.16647460E-02 0.12500347E+03</pdfrwt>
<totfact> 0.67382349E+03</totfact>
</mgrwt>
</event>
<event>
 5    1  0.3487578E-002  0.1250037E+03  0.7818608E-02  0.1235063E+00
          4   -1    0    0  501    0  0.00000000000E+00  0.00000000000E+00  0.11245153998E+02  0.11316642101E+02  0.12700000000E+01 0.  1.
         -4   -1    0    0    0  501 -0.00000000000E+00 -0.00000000000E+00 -0.34621926119E+03  0.34622159049E+03  0.12700000000E+01 0.  1.
         25    2    1    2    0    0  0.00000000000E+00  0.00000000000E+00 -0.33497410719E+03  0.35753823259E+03  0.12500374104E+03 0.  0.
    9000005    1    3    3    0    0  0.56961611093E+02 -0.25706389361E+02 -0.16806071193E+03  0.17930657123E+03  0.10000000000E+01 0.  0.
    9000005    1    3    3    0    0 -0.56961611093E+02  0.25706389361E+02 -0.16691339527E+03  0.17823166136E+03  0.10000000000E+01 0.  0.
<mgrwt>
<rscale>  0 0.12500374E+03</rscale>
<asrwt>0</asrwt>
<pdfrwt beam="1">  1        4 0.17357022E-02 0.12500374E+03</pdfrwt>
<pdfrwt beam="2">  1       -4 0.53270172E-01 0.12500374E+03</pdfrwt>
<totfact> 0.68897444E+03</totfact>
</mgrwt>
</event>
<event>
 5    1  0.3487578E-002  0.1249810E+03  0.7818608E-02  0.1235099E+00
         -4   -1    0    0    0  501 -0.00000000000E+00  0.00000000000E+00  0.41953783363E+02  0.41973001304E+02  0.12700000000E+01 0. -1.
          4   -1    0    0  501    0  0.00000000000E+00 -0.00000000000E+00 -0.93035199035E+02  0.93043866856E+02  0.12700000000E+01 0. -1.
         25    2    1    2    0    0  0.00000000000E+00  0.00000000000E+00 -0.51081415672E+02  0.13501686816E+03  0.12498097319E+03 0.  0.
    9000005    1    3    3    0    0  0.22148771740E+02 -0.26407465898E+02  0.30760808189E+02  0.46207679721E+02  0.10000000000E+01 0.  0.
    9000005    1    3    3    0    0 -0.22148771740E+02  0.26407465898E+02 -0.81842223861E+02  0.88809188439E+02  0.10000000000E+01 0.  0.
<mgrwt>
<rscale>  0 0.12498097E+03</rscale>
<asrwt>0</asrwt>
<pdfrwt beam="2">  1        4 0.14315253E-01 0.12498097E+03</pdfrwt>
<pdfrwt beam="1">  1       -4 0.64565733E-02 0.12498097E+03</pdfrwt>
<totfact> 0.10242110E+04</totfact>
</mgrwt>
</event>
<event>
 5    1  0.3487578E-002  0.1250014E+03  0.7818608E-02  0.1235067E+00
         -4   -1    0    0    0  501 -0.00000000000E+00  0.00000000000E+00  0.52542074928E+02  0.52557421338E+02  0.12700000000E+01 0. -1.
          4   -1    0    0  501    0  0.00000000000E+00 -0.00000000000E+00 -0.74315172784E+02  0.74326023747E+02  0.12700000000E+01 0. -1.
         25    2    1    2    0    0  0.00000000000E+00  0.00000000000E+00 -0.21773097856E+02  0.12688344509E+03  0.12500136338E+03 0.  0.
    9000005    1    3    3    0    0  0.31432668536E+02  0.86864243459E+01 -0.64998377273E+02  0.72727269077E+02  0.10000000000E+01 0.  0.
    9000005    1    3    3    0    0 -0.31432668536E+02 -0.86864243459E+01  0.43225279417E+02  0.54156176008E+02  0.10000000000E+01 0.  0.
<mgrwt>
<rscale>  0 0.12500136E+03</rscale>
<asrwt>0</asrwt>
<pdfrwt beam="2">  1        4 0.11435119E-01 0.12500136E+03</pdfrwt>
<pdfrwt beam="1">  1       -4 0.80854114E-02 0.12500136E+03</pdfrwt>
<totfact> 0.10411358E+04</totfact>
</mgrwt>
</event>
<event>
 5    1  0.3487578E-002  0.1250023E+03  0.7818608E-02  0.1235066E+00
         -4   -1    0    0    0  501 -0.00000000000E+00  0.00000000000E+00  0.26404219007E+02  0.26434743830E+02  0.12700000000E+01 0.  1.
          4   -1    0    0  501    0  0.00000000000E+00 -0.00000000000E+00 -0.14782701499E+03  0.14783247026E+03  0.12700000000E+01 0.  1.
         25    2    1    2    0    0  0.00000000000E+00  0.00000000000E+00 -0.12142279599E+03  0.17426721409E+03  0.12500226606E+03 0.  0.
    9000005    1    3    3    0    0  0.16731877289E+02  0.57073223136E+02 -0.33964664571E+02  0.68497495984E+02  0.10000000000E+01 0.  0.
    9000005    1    3    3    0    0 -0.16731877289E+02 -0.57073223136E+02 -0.87458131415E+02  0.10576971810E+03  0.10000000000E+01 0.  0.
<mgrwt>
<rscale>  0 0.12500227E+03</rscale>
<asrwt>0</asrwt>
<pdfrwt beam="2">  1        4 0.22745385E-01 0.12500227E+03</pdfrwt>
<pdfrwt beam="1">  1       -4 0.40649553E-02 0.12500227E+03</pdfrwt>
<totfact> 0.94654408E+03</totfact>
</mgrwt>
</event>
<event>
 5    1  0.3487578E-002  0.1249936E+03  0.7818608E-02  0.1235079E+00
          4   -1    0    0  501    0  0.00000000000E+00  0.00000000000E+00  0.42646072607E+03  0.42646261709E+03  0.12700000000E+01 0. -1.
         -4   -1    0    0    0  501 -0.00000000000E+00 -0.00000000000E+00 -0.91128138424E+01  0.92008845296E+01  0.12700000000E+01 0. -1.
         25    2    1    2    0    0  0.00000000000E+00  0.00000000000E+00  0.41734791222E+03  0.43566350162E+03  0.12499362707E+03 0.  0.
    9000005    1    3    3    0    0 -0.36722489662E+02  0.50450788749E+02  0.22024890183E+03  0.22892007796E+03  0.10000000000E+01 0.  0.
    9000005    1    3    3    0    0  0.36722489662E+02 -0.50450788749E+02  0.19709901039E+03  0.20674342367E+03  0.10000000000E+01 0.  0.
<mgrwt>
<rscale>  0 0.12499363E+03</rscale>
<asrwt>0</asrwt>
<pdfrwt beam="1">  1        4 0.65616251E-01 0.12499363E+03</pdfrwt>
<pdfrwt beam="2">  1       -4 0.14088917E-02 0.12499363E+03</pdfrwt>
<totfact> 0.61234570E+03</totfact>
</mgrwt>
</event>
<event>
 5    1  0.3487578E-002  0.1250006E+03  0.7818608E-02  0.1235068E+00
         -4   -1    0    0    0  501 -0.00000000000E+00  0.00000000000E+00  0.86971329554E+01  0.87893698093E+01  0.12700000000E+01 0.  1.
          4   -1    0    0  501    0  0.00000000000E+00 -0.00000000000E+00 -0.44668404065E+03  0.44668584606E+03  0.12700000000E+01 0.  1.
         25    2    1    2    0    0  0.00000000000E+00  0.00000000000E+00 -0.43798690769E+03  0.45547521587E+03  0.12500056384E+03 0.  0.
    9000005    1    3    3    0    0  0.57047063577E+02 -0.25137045964E+02 -0.20309105576E+03  0.21244579420E+03  0.10000000000E+01 0.  0.
    9000005    1    3    3    0    0 -0.57047063577E+02  0.25137045964E+02 -0.23489585194E+03  0.24302942167E+03  0.10000000000E+01 0.  0.
<mgrwt>
<rscale>  0 0.12500056E+03</rscale>
<asrwt>0</asrwt>
<pdfrwt beam="2">  1        4 0.68727838E-01 0.12500056E+03</pdfrwt>
<pdfrwt beam="1">  1       -4 0.13452548E-02 0.12500056E+03</pdfrwt>
<totfact> 0.59491664E+03</totfact>
</mgrwt>
</event>
<event>
 5    1  0.3487578E-002  0.1249994E+03  0.7818608E-02  0.1235070E+00
          4   -1    0    0  501    0  0.00000000000E+00  0.00000000000E+00  0.21341518997E+03  0.21341896872E+03  0.12700000000E+01 0.  1.
         -4   -1    0    0    0  501 -0.00000000000E+00 -0.00000000000E+00 -0.18277373973E+02  0.18321443703E+02  0.12700000000E+01 0.  1.
         25    2    1    2    0    0  0.00000000000E+00  0.00000000000E+00  0.19513781600E+03  0.23174041242E+03  0.12499940607E+03 0.  0.
    9000005    1    3    3    0    0 -0.11388507191E+02  0.42021730891E+02  0.14457958345E+02  0.45886343531E+02  0.10000000000E+01 0.  0.
    9000005    1    3    3    0    0  0.11388507191E+02 -0.42021730891E+02  0.18067985765E+03  0.18585406889E+03  0.10000000000E+01 0.  0.
<mgrwt>
<rscale>  0 0.12499941E+03</rscale>
<asrwt>0</asrwt>
<pdfrwt beam="1">  1        4 0.32836787E-01 0.12499941E+03</pdfrwt>
<pdfrwt beam="2">  1       -4 0.28155843E-02 0.12499941E+03</pdfrwt>
<totfact> 0.85044195E+03</totfact>
</mgrwt>
</event>
<event>
 5    1  0.3487578E-002  0.1249985E+03  0.7818608E-02  0.1235072E+00
         -4   -1    0    0    0  501 -0.00000000000E+00  0.00000000000E+00  0.47462236106E+03  0.47462406020E+03  0.12700000000E+01 0. -1.
          4   -1    0    0  501    0  0.00000000000E+00 -0.00000000000E+00 -0.81793132831E+01  0.82773223800E+01  0.12700000000E+01 0. -1.
         25    2    1    2    0    0  0.00000000000E+00  0.00000000000E+00  0.46644304778E+03  0.48290138258E+03  0.12499851389E+03 0.  0.
    9000005    1    3    3    0    0 -0.18678986939E+02  0.16317204789E+02  0.45481228035E+03  0.45548915034E+03  0.10000000000E+01 0.  0.
    9000005    1    3    3    0    0  0.18678986939E+02 -0.16317204789E+02  0.11630767432E+02  0.27412232237E+02  0.10000000000E+01 0.  0.
<mgrwt>
<rscale>  0 0.12499851E+03</rscale>
<asrwt>0</asrwt>
<pdfrwt beam="2">  1        4 0.12660256E-02 0.12499851E+03</pdfrwt>
<pdfrwt beam="1">  1       -4 0.73026502E-01 0.12499851E+03</pdfrwt>
<totfact> 0.57217715E+03</totfact>
</mgrwt>
</event>
<event>
 5    1  0.3487578E-002  0.1249869E+03  0.7818608E-02  0.1235090E+00
          4   -1    0    0  501    0  0.00000000000E+00  0.00000000000E+00  0.12158972422E+03  0.12159635659E+03  0.12700000000E+01 0.  1.
         -4   -1    0    0    0  501 -0.00000000000E+00 -0.00000000000E+00 -0.32099687505E+02  0.32124800979E+02  0.12700000000E+01 0.  1.
         25    2    1    2    0    0  0.00000000000E+00  0.00000000000E+00  0.89490036712E+02  0.15372115757E+03  0.12498690977E+03 0.  0.
    9000005    1    3    3    0    0  0.23474883610E+02  0.57436077099E+02  0.35668838148E+02  0.71576805795E+02  0.10000000000E+01 0.  0.
    9000005    1    3    3    0    0 -0.23474883610E+02 -0.57436077099E+02  0.53821198565E+02  0.82144351771E+02  0.10000000000E+01 0.  0.
<mgrwt>
<rscale>  0 0.12498691E+03</rscale>
<asrwt>0</asrwt>
<pdfrwt beam="1">  1        4 0.18708553E-01 0.12498691E+03</pdfrwt>
<pdfrwt beam="2">  1       -4 0.49408555E-02 0.12498691E+03</pdfrwt>
<totfact> 0.98596078E+03</totfact>
</mgrwt>
</event>
<event>
 5    1  0.3487578E-002  0.1250005E+03  0.7818608E-02  0.1235069E+00
          4   -1    0    0  501    0  0.00000000000E+00  0.00000000000E+00  0.15986788002E+03  0.15987292442E+03  0.12700000000E+01 0.  1.
         -4   -1    0    0    0  501 -0.00000000000E+00 -0.00000000000E+00 -0.24412492853E+02  0.24445504848E+02  0.12700000000E+01 0.  1.
         25    2    1    2    0    0  0.00000000000E+00  0.00000000000E+00  0.13545538717E+03  0.18431842927E+03  0.12500048582E+03 0.  0.
    9000005    1    3    3    0    0  0.18014632373E+02  0.40048435462E+02  0.13328887884E+03  0.14034004912E+03  0.10000000000E+01 0.  0.
    9000005    1    3    3    0    0 -0.18014632373E+02 -0.40048435462E+02  0.21665083255E+01  0.43978380152E+02  0.10000000000E+01 0.  0.
<mgrwt>
<rscale>  0 0.12500049E+03</rscale>
<asrwt>0</asrwt>
<pdfrwt beam="1">  1        4 0.24597985E-01 0.12500049E+03</pdfrwt>
<pdfrwt beam="2">  1       -4 0.37586956E-02 0.12500049E+03</pdfrwt>
<totfact> 0.92844386E+03</totfact>
</mgrwt>
</event>
<event>
 5    1  0.3487578E-002  0.1250027E+03  0.7818608E-02  0.1235065E+00
         -4   -1    0    0    0  501 -0.00000000000E+00  0.00000000000E+00  0.71989372637E+02  0.72000574113E+02  0.12700000000E+01 0. -1.
          4   -1    0    0  501    0  0.00000000000E+00 -0.00000000000E+00 -0.54240972443E+02  0.54255838318E+02  0.12700000000E+01 0. -1.
         25    2    1    2    0    0  0.00000000000E+00  0.00000000000E+00  0.17748400193E+02  0.12625641243E+03  0.12500270385E+03 0.  0.
    9000005    1    3    3    0    0  0.44671898176E+02  0.77884467270E+01  0.52307587571E+02  0.69233821984E+02  0.10000000000E+01 0.  0.
    9000005    1    3    3    0    0 -0.44671898176E+02 -0.77884467270E+01 -0.34559187377E+02  0.57022590447E+02  0.10000000000E+01 0.  0.
<mgrwt>
<rscale>  0 0.12500270E+03</rscale>
<asrwt>0</asrwt>
<pdfrwt beam="2">  1        4 0.83467702E-02 0.12500270E+03</pdfrwt>
<pdfrwt beam="1">  1       -4 0.11077293E-01 0.12500270E+03</pdfrwt>
<totfact> 0.10424709E+04</totfact>
</mgrwt>
</event>
<event>
 5    1  0.3487578E-002  0.1249997E+03  0.7818608E-02  0.1235070E+00
         -4   -1    0    0    0  501 -0.00000000000E+00  0.00000000000E+00  0.35126057940E+02  0.35149009181E+02  0.12700000000E+01 0. -1.
          4   -1    0    0  501    0  0.00000000000E+00 -0.00000000000E+00 -0.11114325770E+03  0.11115051341E+03  0.12700000000E+01 0. -1.
         25    2    1    2    0    0  0.00000000000E+00  0.00000000000E+00 -0.76017199760E+02  0.14629952260E+03  0.12499974261E+03 0.  0.
    9000005    1    3    3    0    0 -0.49429013148E+02  0.37660010167E+02 -0.45748307496E+02  0.77171311673E+02  0.10000000000E+01 0.  0.
    9000005    1    3    3    0    0  0.49429013148E+02 -0.37660010167E+02 -0.30268892264E+02  0.69128210923E+02  0.10000000000E+01 0.  0.
<mgrwt>
<rscale>  0 0.12499974E+03</rscale>
<asrwt>0</asrwt>
<pdfrwt beam="2">  1        4 0.17101286E-01 0.12499974E+03</pdfrwt>
<pdfrwt beam="1">  1       -4 0.54063326E-02 0.12499974E+03</pdfrwt>
<totfact> 0.10004710E+04</totfact>
</mgrwt>
</event>
<event>
 5    1  0.3487578E-002  0.1250044E+03  0.7818608E-02  0.1235062E+00
         -4   -1    0    0    0  501 -0.00000000000E+00  0.00000000000E+00  0.43950860590E+02  0.43969205662E+02  0.12700000000E+01 0.  1.
          4   -1    0    0  501    0  0.00000000000E+00 -0.00000000000E+00 -0.88842529670E+02  0.88851606503E+02  0.12700000000E+01 0.  1.
         25    2    1    2    0    0  0.00000000000E+00  0.00000000000E+00 -0.44891669080E+02  0.13282081217E+03  0.12500442469E+03 0.  0.
    9000005    1    3    3    0    0 -0.45162693639E+02  0.31633125982E+02 -0.53699413135E+02  0.76973700231E+02  0.10000000000E+01 0.  0.
    9000005    1    3    3    0    0  0.45162693639E+02 -0.31633125982E+02  0.88077440553E+01  0.55847111935E+02  0.10000000000E+01 0.  0.
<mgrwt>
<rscale>  0 0.12500442E+03</rscale>
<asrwt>0</asrwt>
<pdfrwt beam="2">  1        4 0.13670191E-01 0.12500442E+03</pdfrwt>
<pdfrwt beam="1">  1       -4 0.67637802E-02 0.12500442E+03</pdfrwt>
<totfact> 0.10283183E+04</totfact>
</mgrwt>
</event>
<event>
 5    1  0.3487578E-002  0.1249953E+03  0.7818608E-02  0.1235077E+00
         -4   -1    0    0    0  501 -0.00000000000E+00  0.00000000000E+00  0.16515325949E+02  0.16564084376E+02  0.12700000000E+01 0. -1.
          4   -1    0    0  501    0  0.00000000000E+00 -0.00000000000E+00 -0.23610577650E+03  0.23610919211E+03  0.12700000000E+01 0. -1.
         25    2    1    2    0    0  0.00000000000E+00  0.00000000000E+00 -0.21959045055E+03  0.25267327649E+03  0.12499527461E+03 0.  0.
    9000005    1    3    3    0    0 -0.55647243991E+02 -0.28388055518E+02 -0.10662648423E+03  0.12358278440E+03  0.10000000000E+01 0.  0.
    9000005    1    3    3    0    0  0.55647243991E+02  0.28388055518E+02 -0.11296396632E+03  0.12909049209E+03  0.10000000000E+01 0.  0.
<mgrwt>
<rscale>  0 0.12499527E+03</rscale>
<asrwt>0</asrwt>
<pdfrwt beam="2">  1        4 0.36327976E-01 0.12499527E+03</pdfrwt>
<pdfrwt beam="1">  1       -4 0.25448329E-02 0.12499527E+03</pdfrwt>
<totfact> 0.81954011E+03</totfact>
</mgrwt>
</event>
<event>
 5    1  0.3487578E-002  0.1250009E+03  0.7818608E-02  0.1235068E+00
          4   -1    0    0  501    0  0.00000000000E+00  0.00000000000E+00  0.73521789262E+01  0.74610612491E+01  0.12700000000E+01 0.  1.
         -4   -1    0    0    0  501 -0.00000000000E+00 -0.00000000000E+00 -0.52729749887E+03  0.52729902827E+03  0.12700000000E+01 0.  1.
         25    2    1    2    0    0  0.00000000000E+00  0.00000000000E+00 -0.51994531995E+03  0.53476008952E+03  0.12500087044E+03 0.  0.
    9000005    1    3    3    0    0  0.25922780064E+02 -0.34530171876E+02 -0.66702216870E+02  0.79463885076E+02  0.10000000000E+01 0.  0.
    9000005    1    3    3    0    0 -0.25922780064E+02  0.34530171876E+02 -0.45324310308E+03  0.45529620445E+03  0.10000000000E+01 0.  0.
<mgrwt>
<rscale>  0 0.12500087E+03</rscale>
<asrwt>0</asrwt>
<pdfrwt beam="1">  1        4 0.11395981E-02 0.12500087E+03</pdfrwt>
<pdfrwt beam="2">  1       -4 0.81131156E-01 0.12500087E+03</pdfrwt>
<totfact> 0.53263788E+03</totfact>
</mgrwt>
</event>
<event>
 5    1  0.3487578E-002  0.1249984E+03  0.7818608E-02  0.1235072E+00
         -4   -1    0    0    0  501 -0.00000000000E+00  0.00000000000E+00  0.37414062414E+03  0.37414277961E+03  0.12700000000E+01 0.  1.
          4   -1    0    0  501    0  0.00000000000E+00 -0.00000000000E+00 -0.10399513125E+02  0.10476773036E+02  0.12700000000E+01 0.  1.
         25    2    1    2    0    0  0.00000000000E+00  0.00000000000E+00  0.36374111102E+03  0.38461955265E+03  0.12499841772E+03 0.  0.
    9000005    1    3    3    0    0 -0.35633631690E+02 -0.44917092340E+01  0.24515408504E+02  0.43496395407E+02  0.10000000000E+01 0.  0.
    9000005    1    3    3    0    0  0.35633631690E+02  0.44917092340E+01  0.33922570251E+03  0.34112315724E+03  0.10000000000E+01 0.  0.
<mgrwt>
<rscale>  0 0.12499842E+03</rscale>
<asrwt>0</asrwt>
<pdfrwt beam="2">  1        4 0.16060338E-02 0.12499842E+03</pdfrwt>
<pdfrwt beam="1">  1       -4 0.57566211E-01 0.12499842E+03</pdfrwt>
<totfact> 0.66078980E+03</totfact>
</mgrwt>
</event>
<event>
 5    1  0.3487578E-002  0.1250031E+03  0.7818608E-02  0.1235065E+00
         -4   -1    0    0    0  501 -0.00000000000E+00  0.00000000000E+00  0.50805259597E+02  0.50821130474E+02  0.12700000000E+01 0. -1.
          4   -1    0    0  501    0  0.00000000000E+00 -0.00000000000E+00 -0.76857360782E+02  0.76867852880E+02  0.12700000000E+01 0. -1.
         25    2    1    2    0    0  0.00000000000E+00  0.00000000000E+00 -0.26052101185E+02  0.12768898335E+03  0.12500305794E+03 0.  0.
    9000005    1    3    3    0    0  0.64505829536E+01  0.13809647921E+01 -0.76505719890E+02  0.76796108365E+02  0.10000000000E+01 0.  0.
    9000005    1    3    3    0    0 -0.64505829536E+01 -0.13809647921E+01  0.50453618705E+02  0.50892874989E+02  0.10000000000E+01 0.  0.
<mgrwt>
<rscale>  0 0.12500306E+03</rscale>
<asrwt>0</asrwt>
<pdfrwt beam="2">  1        4 0.11826237E-01 0.12500306E+03</pdfrwt>
<pdfrwt beam="1">  1       -4 0.78182217E-02 0.12500306E+03</pdfrwt>
<totfact> 0.10393492E+04</totfact>
</mgrwt>
</event>
<event>
 5    1  0.3487578E-002  0.1250007E+03  0.7818608E-02  0.1235068E+00
          4   -1    0    0  501    0  0.00000000000E+00  0.00000000000E+00  0.94818192173E+02  0.94826697016E+02  0.12700000000E+01 0. -1.
         -4   -1    0    0    0  501 -0.00000000000E+00 -0.00000000000E+00 -0.41177579711E+02  0.41197159742E+02  0.12700000000E+01 0. -1.
         25    2    1    2    0    0  0.00000000000E+00  0.00000000000E+00  0.53640612463E+02  0.13602385676E+03  0.12500069721E+03 0.  0.
    9000005    1    3    3    0    0  0.39947719938E+02 -0.42085435443E+02  0.15732613988E+01  0.58055829648E+02  0.10000000000E+01 0.  0.
    9000005    1    3    3    0    0 -0.39947719938E+02  0.42085435443E+02  0.52067351064E+02  0.77968027110E+02  0.10000000000E+01 0.  0.
<mgrwt>
<rscale>  0 0.12500070E+03</rscale>
<asrwt>0</asrwt>
<pdfrwt beam="1">  1        4 0.14589574E-01 0.12500070E+03</pdfrwt>
<pdfrwt beam="2">  1       -4 0.63371727E-02 0.12500070E+03</pdfrwt>
<totfact> 0.10216375E+04</totfact>
</mgrwt>
</event>
<event>
 5    1  0.3487578E-002  0.1249995E+03  0.7818608E-02  0.1235070E+00
          4   -1    0    0  501    0  0.00000000000E+00  0.00000000000E+00  0.50613150440E+01  0.52182190424E+01  0.12700000000E+01 0.  1.
         -4   -1    0    0    0  501 -0.00000000000E+00 -0.00000000000E+00 -0.75984234333E+03  0.75984340467E+03  0.12700000000E+01 0.  1.
         25    2    1    2    0    0  0.00000000000E+00  0.00000000000E+00 -0.75478102829E+03  0.76506162371E+03  0.12499954965E+03 0.  0.
    9000005    1    3    3    0    0 -0.41632448317E+02 -0.45923447393E+02 -0.42596985599E+03  0.43045736372E+03  0.10000000000E+01 0.  0.
    9000005    1    3    3    0    0  0.41632448317E+02  0.45923447393E+02 -0.32881117230E+03  0.33460425999E+03  0.10000000000E+01 0.  0.
<mgrwt>
<rscale>  0 0.12499955E+03</rscale>
<asrwt>0</asrwt>
<pdfrwt beam="1">  1        4 0.79081564E-03 0.12499955E+03</pdfrwt>
<pdfrwt beam="2">  1       -4 0.11691088E+00 0.12499955E+03</pdfrwt>
<totfact> 0.39864311E+03</totfact>
</mgrwt>
</event>
<event>
 5    1  0.3487578E-002  0.1249984E+03  0.7818608E-02  0.1235072E+00
          4   -1    0    0  501    0  0.00000000000E+00  0.00000000000E+00  0.37663610937E+02  0.37685016768E+02  0.12700000000E+01 0. -1.
         -4   -1    0    0    0  501 -0.00000000000E+00 -0.00000000000E+00 -0.10365679387E+03  0.10366457358E+03  0.12700000000E+01 0. -1.
         25    2    1    2    0    0  0.00000000000E+00  0.00000000000E+00 -0.65993182932E+02  0.14134959035E+03  0.12499842598E+03 0.  0.
    9000005    1    3    3    0    0 -0.59012970288E+02 -0.46873854922E+01 -0.55631161397E+02  0.81242404958E+02  0.10000000000E+01 0.  0.
    9000005    1    3    3    0    0  0.59012970288E+02  0.46873854922E+01 -0.10362021535E+02  0.60107185388E+02  0.10000000000E+01 0.  0.
<mgrwt>
<rscale>  0 0.12499843E+03</rscale>
<asrwt>0</asrwt>
<pdfrwt beam="1">  1        4 0.57966468E-02 0.12499843E+03</pdfrwt>
<pdfrwt beam="2">  1       -4 0.15949444E-01 0.12499843E+03</pdfrwt>
<totfact> 0.10106049E+04</totfact>
</mgrwt>
</event>
<event>
 4    1  0.3487578E-002  0.1248609E+03  0.7818608E-02  0.1235287E+00
         -4   -1    0    0    0  501 -0.00000000000E+00  0.00000000000E+00  0.16469243241E+04  0.16469248138E+04  0.12700000000E+01 0.  1.
          4   -1    0    0  501    0  0.00000000000E+00 -0.00000000000E+00 -0.21956609952E+01  0.25364990057E+01  0.12700000000E+01 0.  1.
    9000005    1    1    2    0    0 -0.51031837757E+02  0.23486188108E+02  0.11818986960E+04  0.11832334415E+04  0.10000000000E+01 0.  0.
    9000005    1    1    2    0    0  0.51031837757E+02 -0.23486188108E+02  0.46282996709E+03  0.46622787125E+03  0.10000000000E+01 0.  0.
<mgrwt>
<rscale>  0 0.12486091E+03</rscale>
<asrwt>0</asrwt>
<pdfrwt beam="2">  1        4 0.36405018E-03 0.12486091E+03</pdfrwt>
<pdfrwt beam="1">  1       -4 0.25339909E+00 0.12486091E+03</pdfrwt>
<totfact> 0.15215081E+03</totfact>
</mgrwt>
</event>
<event>
 5    1  0.3487578E-002  0.1250014E+03  0.7818608E-02  0.1235067E+00
         -4   -1    0    0    0  501 -0.00000000000E+00  0.00000000000E+00  0.11786605423E+02  0.11854828864E+02  0.12700000000E+01 0. -1.
          4   -1    0    0  501    0  0.00000000000E+00 -0.00000000000E+00 -0.33039568156E+03  0.33039812241E+03  0.12700000000E+01 0. -1.
         25    2    1    2    0    0  0.00000000000E+00  0.00000000000E+00 -0.31860907613E+03  0.34225295127E+03  0.12500135703E+03 0.  0.
    9000005    1    3    3    0    0  0.23812395831E+02 -0.57320335718E+02 -0.17917787263E+03  0.18962689978E+03  0.10000000000E+01 0.  0.
    9000005    1    3    3    0    0 -0.23812395831E+02  0.57320335718E+02 -0.13943120351E+03  0.15262605149E+03  0.10000000000E+01 0.  0.
<mgrwt>
<rscale>  0 0.12500136E+03</rscale>
<asrwt>0</asrwt>
<pdfrwt beam="2">  1        4 0.50835534E-01 0.12500136E+03</pdfrwt>
<pdfrwt beam="1">  1       -4 0.18187599E-02 0.12500136E+03</pdfrwt>
<totfact> 0.70583202E+03</totfact>
</mgrwt>
</event>
<event>
 5    1  0.3487578E-002  0.1249819E+03  0.7818608E-02  0.1235098E+00
         -4   -1    0    0    0  501 -0.00000000000E+00  0.00000000000E+00  0.62079159907E+02  0.62092149220E+02  0.12700000000E+01 0. -1.
          4   -1    0    0  501    0  0.00000000000E+00 -0.00000000000E+00 -0.62879520263E+02  0.62892344276E+02  0.12700000000E+01 0. -1.
         25    2    1    2    0    0  0.00000000000E+00  0.00000000000E+00 -0.80036035570E+00  0.12498449350E+03  0.12498193085E+03 0.  0.
    9000005    1    3    3    0    0  0.30446069240E+02  0.51613335935E+02  0.17298238560E+02  0.62378911787E+02  0.10000000000E+01 0.  0.
    9000005    1    3    3    0    0 -0.30446069240E+02 -0.51613335935E+02 -0.18098598915E+02  0.62605581709E+02  0.10000000000E+01 0.  0.
<mgrwt>
<rscale>  0 0.12498193E+03</rscale>
<asrwt>0</asrwt>
<pdfrwt beam="2">  1        4 0.96757580E-02 0.12498193E+03</pdfrwt>
<pdfrwt beam="1">  1       -4 0.95526256E-02 0.12498193E+03</pdfrwt>
<totfact> 0.10457469E+04</totfact>
</mgrwt>
</event>
<event>
 5    1  0.3487578E-002  0.1250008E+03  0.7818608E-02  0.1235068E+00
          4   -1    0    0  501    0  0.00000000000E+00  0.00000000000E+00  0.24383252172E+03  0.24383582909E+03  0.12700000000E+01 0. -1.
         -4   -1    0    0    0  501 -0.00000000000E+00 -0.00000000000E+00 -0.15991831501E+02  0.16042181109E+02  0.12700000000E+01 0. -1.
         25    2    1    2    0    0  0.00000000000E+00  0.00000000000E+00  0.22784069022E+03  0.25987801020E+03  0.12500080026E+03 0.  0.
    9000005    1    3    3    0    0 -0.11224674456E+02 -0.61195963317E+02  0.10173358659E+03  0.11925460948E+03  0.10000000000E+01 0.  0.
    9000005    1    3    3    0    0  0.11224674456E+02  0.61195963317E+02  0.12610710363E+03  0.14062340072E+03  0.10000000000E+01 0.  0.
<mgrwt>
<rscale>  0 0.12500080E+03</rscale>
<asrwt>0</asrwt>
<pdfrwt beam="1">  1        4 0.37516826E-01 0.12500080E+03</pdfrwt>
<pdfrwt beam="2">  1       -4 0.24644090E-02 0.12500080E+03</pdfrwt>
<totfact> 0.80921738E+03</totfact>
</mgrwt>
</event>
<event>
 5    1  0.3487578E-002  0.1249998E+03  0.7818608E-02  0.1235070E+00
          4   -1    0    0  501    0  0.00000000000E+00  0.00000000000E+00  0.26536663825E+02  0.26567036473E+02  0.12700000000E+01 0.  1.
         -4   -1    0    0    0  501 -0.00000000000E+00 -0.00000000000E+00 -0.14708427774E+03  0.14708976055E+03  0.12700000000E+01 0.  1.
         25    2    1    2    0    0  0.00000000000E+00  0.00000000000E+00 -0.12054761391E+03  0.17365679702E+03  0.12499982372E+03 0.  0.
    9000005    1    3    3    0    0  0.12576904051E+02  0.51492579850E+02 -0.14290163319E+02  0.54907859755E+02  0.10000000000E+01 0.  0.
    9000005    1    3    3    0    0 -0.12576904051E+02 -0.51492579850E+02 -0.10625745059E+03  0.11874893726E+03  0.10000000000E+01 0.  0.
<mgrwt>
<rscale>  0 0.12499982E+03</rscale>
<asrwt>0</asrwt>
<pdfrwt beam="1">  1        4 0.40853219E-02 0.12499982E+03</pdfrwt>
<pdfrwt beam="2">  1       -4 0.22631108E-01 0.12499982E+03</pdfrwt>
<totfact> 0.94771797E+03</totfact>
</mgrwt>
</event>
<event>
 5    1  0.3487578E-002  0.1250004E+03  0.7818608E-02  0.1235069E+00
          4   -1    0    0  501    0  0.00000000000E+00  0.00000000000E+00  0.91457383098E+02  0.91466200441E+02  0.12700000000E+01 0.  1.
         -4   -1    0    0    0  501 -0.00000000000E+00 -0.00000000000E+00 -0.42691079311E+02  0.42709965497E+02  0.12700000000E+01 0.  1.
         25    2    1    2    0    0  0.00000000000E+00  0.00000000000E+00  0.48766303786E+02  0.13417616594E+03  0.12500036448E+03 0.  0.
    9000005    1    3    3    0    0 -0.14025262307E+02 -0.60863780981E+02  0.22192518868E+02  0.66291897783E+02  0.10000000000E+01 0.  0.
    9000005    1    3    3    0    0  0.14025262307E+02  0.60863780981E+02  0.26573784918E+02  0.67884268155E+02  0.10000000000E+01 0.  0.
<mgrwt>
<rscale>  0 0.12500036E+03</rscale>
<asrwt>0</asrwt>
<pdfrwt beam="1">  1        4 0.14072498E-01 0.12500036E+03</pdfrwt>
<pdfrwt beam="2">  1       -4 0.65699894E-02 0.12500036E+03</pdfrwt>
<totfact> 0.10255380E+04</totfact>
</mgrwt>
</event>
<event>
 5    1  0.3487578E-002  0.1250020E+03  0.7818608E-02  0.1235066E+00
         -4   -1    0    0    0  501 -0.00000000000E+00  0.00000000000E+00  0.44079663636E+03  0.44079846589E+03  0.12700000000E+01 0. -1.
          4   -1    0    0  501    0  0.00000000000E+00 -0.00000000000E+00 -0.88147158495E+01  0.89057349785E+01  0.12700000000E+01 0. -1.
         25    2    1    2    0    0  0.00000000000E+00  0.00000000000E+00  0.43198192051E+03  0.44970420087E+03  0.12500195449E+03 0.  0.
    9000005    1    3    3    0    0  0.35202542828E+02  0.51634685865E+02  0.21559115048E+03  0.22446804666E+03  0.10000000000E+01 0.  0.
    9000005    1    3    3    0    0 -0.35202542828E+02 -0.51634685865E+02  0.21639077003E+03  0.22523615421E+03  0.10000000000E+01 0.  0.
<mgrwt>
<rscale>  0 0.12500195E+03</rscale>
<asrwt>0</asrwt>
<pdfrwt beam="2">  1        4 0.13632524E-02 0.12500195E+03</pdfrwt>
<pdfrwt beam="1">  1       -4 0.67822006E-01 0.12500195E+03</pdfrwt>
<totfact> 0.59986846E+03</totfact>
</mgrwt>
</event>
<event>
 5    1  0.3487578E-002  0.1250005E+03  0.7818608E-02  0.1235069E+00
          4   -1    0    0  501    0  0.00000000000E+00  0.00000000000E+00  0.12833877360E+03  0.12834505720E+03  0.12700000000E+01 0.  1.
         -4   -1    0    0    0  501 -0.00000000000E+00 -0.00000000000E+00 -0.30416980315E+02  0.30443481921E+02  0.12700000000E+01 0.  1.
         25    2    1    2    0    0  0.00000000000E+00  0.00000000000E+00  0.97921793282E+02  0.15878853912E+03  0.12500049023E+03 0.  0.
    9000005    1    3    3    0    0  0.10173928863E+02  0.59195458892E+02  0.27044226322E+02  0.65878686685E+02  0.10000000000E+01 0.  0.
    9000005    1    3    3    0    0 -0.10173928863E+02 -0.59195458892E+02  0.70877566960E+02  0.92909852438E+02  0.10000000000E+01 0.  0.
<mgrwt>
<rscale>  0 0.12500049E+03</rscale>
<asrwt>0</asrwt>
<pdfrwt beam="1">  1        4 0.19746949E-01 0.12500049E+03</pdfrwt>
<pdfrwt beam="2">  1       -4 0.46820574E-02 0.12500049E+03</pdfrwt>
<totfact> 0.97575779E+03</totfact>
</mgrwt>
</event>
<event>
 5    1  0.3487578E-002  0.1250076E+03  0.7818608E-02  0.1235057E+00
          4   -1    0    0  501    0  0.00000000000E+00  0.00000000000E+00  0.13506893904E+03  0.13507490957E+03  0.12700000000E+01 0. -1.
         -4   -1    0    0    0  501 -0.00000000000E+00 -0.00000000000E+00 -0.28903363857E+02  0.28931252000E+02  0.12700000000E+01 0. -1.
         25    2    1    2    0    0  0.00000000000E+00  0.00000000000E+00  0.10616557519E+03  0.16400616157E+03  0.12500756648E+03 0.  0.
    9000005    1    3    3    0    0  0.54280921328E+02 -0.11797951622E+02  0.15511102957E+02  0.57681924358E+02  0.10000000000E+01 0.  0.
    9000005    1    3    3    0    0 -0.54280921328E+02  0.11797951622E+02  0.90654472230E+02  0.10632423721E+03  0.10000000000E+01 0.  0.
<mgrwt>
<rscale>  0 0.12500757E+03</rscale>
<asrwt>0</asrwt>
<pdfrwt beam="1">  1        4 0.20782442E-01 0.12500757E+03</pdfrwt>
<pdfrwt beam="2">  1       -4 0.44492757E-02 0.12500757E+03</pdfrwt>
<totfact> 0.96559524E+03</totfact>
</mgrwt>
</event>
<event>
 5    1  0.3487578E-002  0.1249860E+03  0.7818608E-02  0.1235091E+00
          4   -1    0    0  501    0  0.00000000000E+00  0.00000000000E+00  0.17758606305E+02  0.17803960174E+02  0.12700000000E+01 0.  1.
         -4   -1    0    0    0  501 -0.00000000000E+00 -0.00000000000E+00 -0.21958690864E+03  0.21959058118E+03  0.12700000000E+01 0.  1.
         25    2    1    2    0    0  0.00000000000E+00  0.00000000000E+00 -0.20182830233E+03  0.23739454136E+03  0.12498601780E+03 0.  0.
    9000005    1    3    3    0    0  0.73465549979E+01  0.50014289395E+02 -0.31153380183E+02  0.59387996353E+02  0.10000000000E+01 0.  0.
    9000005    1    3    3    0    0 -0.73465549979E+01 -0.50014289395E+02 -0.17067492215E+03  0.17800654500E+03  0.10000000000E+01 0.  0.
<mgrwt>
<rscale>  0 0.12498602E+03</rscale>
<asrwt>0</asrwt>
<pdfrwt beam="1">  1        4 0.27358647E-02 0.12498602E+03</pdfrwt>
<pdfrwt beam="2">  1       -4 0.33786371E-01 0.12498602E+03</pdfrwt>
<totfact> 0.84213195E+03</totfact>
</mgrwt>
</event>
<event>
 5    1  0.3487578E-002  0.1249954E+03  0.7818608E-02  0.1235076E+00
         -4   -1    0    0    0  501 -0.00000000000E+00  0.00000000000E+00  0.29672610948E+03  0.29672882730E+03  0.12700000000E+01 0. -1.
          4   -1    0    0  501    0  0.00000000000E+00 -0.00000000000E+00 -0.13130107727E+02  0.13191384647E+02  0.12700000000E+01 0. -1.
         25    2    1    2    0    0  0.00000000000E+00  0.00000000000E+00  0.28359600175E+03  0.30992021194E+03  0.12499538215E+03 0.  0.
    9000005    1    3    3    0    0  0.37302079768E+02  0.46287496594E+02  0.94041394345E+02  0.11125988202E+03  0.10000000000E+01 0.  0.
    9000005    1    3    3    0    0 -0.37302079768E+02 -0.46287496594E+02  0.18955460741E+03  0.19866032993E+03  0.10000000000E+01 0.  0.
<mgrwt>
<rscale>  0 0.12499538E+03</rscale>
<asrwt>0</asrwt>
<pdfrwt beam="2">  1        4 0.20249391E-02 0.12499538E+03</pdfrwt>
<pdfrwt beam="1">  1       -4 0.45655096E-01 0.12499538E+03</pdfrwt>
<totfact> 0.74378696E+03</totfact>
</mgrwt>
</event>
<event>
 5    1  0.3487578E-002  0.1250042E+03  0.7818608E-02  0.1235063E+00
          4   -1    0    0  501    0  0.00000000000E+00  0.00000000000E+00  0.22710887249E+02  0.22746368933E+02  0.12700000000E+01 0. -1.
         -4   -1    0    0    0  501 -0.00000000000E+00 -0.00000000000E+00 -0.17183849342E+03  0.17184318643E+03  0.12700000000E+01 0. -1.
         25    2    1    2    0    0  0.00000000000E+00  0.00000000000E+00 -0.14912760617E+03  0.19458955536E+03  0.12500420846E+03 0.  0.
    9000005    1    3    3    0    0  0.38893395567E+02  0.14130616767E+02 -0.14746393517E+03  0.15316325514E+03  0.10000000000E+01 0.  0.
    9000005    1    3    3    0    0 -0.38893395567E+02 -0.14130616767E+02 -0.16636710057E+01  0.41426300223E+02  0.10000000000E+01 0.  0.
<mgrwt>
<rscale>  0 0.12500421E+03</rscale>
<asrwt>0</asrwt>
<pdfrwt beam="1">  1        4 0.34970731E-02 0.12500421E+03</pdfrwt>
<pdfrwt beam="2">  1       -4 0.26439781E-01 0.12500421E+03</pdfrwt>
<totfact> 0.91046244E+03</totfact>
</mgrwt>
</event>
<event>
 5    1  0.3487578E-002  0.1249994E+03  0.7818608E-02  0.1235070E+00
          4   -1    0    0  501    0  0.00000000000E+00  0.00000000000E+00  0.65929333568E+02  0.65941564469E+02  0.12700000000E+01 0. -1.
         -4   -1    0    0    0  501 -0.00000000000E+00 -0.00000000000E+00 -0.59223969483E+02  0.59237584871E+02  0.12700000000E+01 0. -1.
         25    2    1    2    0    0  0.00000000000E+00  0.00000000000E+00  0.67053640846E+01  0.12517914934E+03  0.12499943009E+03 0.  0.
    9000005    1    3    3    0    0 -0.52703932503E+02  0.22470513104E+02 -0.21634864177E+02  0.61251088222E+02  0.10000000000E+01 0.  0.
    9000005    1    3    3    0    0  0.52703932503E+02 -0.22470513104E+02  0.28340228262E+02  0.63928061118E+02  0.10000000000E+01 0.  0.
<mgrwt>
<rscale>  0 0.12499943E+03</rscale>
<asrwt>0</asrwt>
<pdfrwt beam="1">  1        4 0.10144963E-01 0.12499943E+03</pdfrwt>
<pdfrwt beam="2">  1       -4 0.91133681E-02 0.12499943E+03</pdfrwt>
<totfact> 0.10449107E+04</totfact>
</mgrwt>
</event>
<event>
 5    1  0.3487578E-002  0.1249995E+03  0.7818608E-02  0.1235070E+00
          4   -1    0    0  501    0  0.00000000000E+00  0.00000000000E+00  0.29235570247E+02  0.29263141795E+02  0.12700000000E+01 0.  1.
         -4   -1    0    0    0  501 -0.00000000000E+00 -0.00000000000E+00 -0.13351824898E+03  0.13352428884E+03  0.12700000000E+01 0.  1.
         25    2    1    2    0    0  0.00000000000E+00  0.00000000000E+00 -0.10428267873E+03  0.16278743063E+03  0.12499948196E+03 0.  0.
    9000005    1    3    3    0    0 -0.25496781026E+01 -0.33947155114E+02 -0.12038891536E+03  0.12511355298E+03  0.10000000000E+01 0.  0.
    9000005    1    3    3    0    0  0.25496781026E+01  0.33947155114E+02  0.16106236630E+02  0.37673877649E+02  0.10000000000E+01 0.  0.
<mgrwt>
<rscale>  0 0.12499948E+03</rscale>
<asrwt>0</asrwt>
<pdfrwt beam="1">  1        4 0.45003656E-02 0.12499948E+03</pdfrwt>
<pdfrwt beam="2">  1       -4 0.20543854E-01 0.12499948E+03</pdfrwt>
<totfact> 0.96809193E+03</totfact>
</mgrwt>
</event>
<event>
 5    1  0.3487578E-002  0.1250049E+03  0.7818608E-02  0.1235062E+00
          4   -1    0    0  501    0  0.00000000000E+00  0.00000000000E+00  0.45226680111E+03  0.45226858424E+03  0.12700000000E+01 0.  1.
         -4   -1    0    0    0  501 -0.00000000000E+00 -0.00000000000E+00 -0.85892311524E+01  0.86826143407E+01  0.12700000000E+01 0.  1.
         25    2    1    2    0    0  0.00000000000E+00  0.00000000000E+00  0.44367756996E+03  0.46095119858E+03  0.12500488545E+03 0.  0.
    9000005    1    3    3    0    0  0.55487316053E+02 -0.17718545774E+02  0.13833855458E+03  0.15010444628E+03  0.10000000000E+01 0.  0.
    9000005    1    3    3    0    0 -0.55487316053E+02  0.17718545774E+02  0.30533901538E+03  0.31084675231E+03  0.10000000000E+01 0.  0.
<mgrwt>
<rscale>  0 0.12500489E+03</rscale>
<asrwt>0</asrwt>
<pdfrwt beam="1">  1        4 0.69586810E-01 0.12500489E+03</pdfrwt>
<pdfrwt beam="2">  1       -4 0.13287410E-02 0.12500489E+03</pdfrwt>
<totfact> 0.59020356E+03</totfact>
</mgrwt>
</event>
<event>
 5    1  0.3487578E-002  0.1250000E+03  0.7818608E-02  0.1235069E+00
          4   -1    0    0  501    0  0.00000000000E+00  0.00000000000E+00  0.87429558482E+02  0.87438781992E+02  0.12700000000E+01 0. -1.
         -4   -1    0    0    0  501 -0.00000000000E+00 -0.00000000000E+00 -0.44658186915E+02  0.44676241544E+02  0.12700000000E+01 0. -1.
         25    2    1    2    0    0  0.00000000000E+00  0.00000000000E+00  0.42771371567E+02  0.13211502354E+03  0.12499995687E+03 0.  0.
    9000005    1    3    3    0    0 -0.15814006426E+02 -0.59679730849E+02  0.11166065713E+02  0.62748976860E+02  0.10000000000E+01 0.  0.
    9000005    1    3    3    0    0  0.15814006426E+02  0.59679730849E+02  0.31605305854E+02  0.69366046677E+02  0.10000000000E+01 0.  0.
<mgrwt>
<rscale>  0 0.12499996E+03</rscale>
<asrwt>0</asrwt>
<pdfrwt beam="1">  1        4 0.13452800E-01 0.12499996E+03</pdfrwt>
<pdfrwt beam="2">  1       -4 0.68725886E-02 0.12499996E+03</pdfrwt>
<totfact> 0.10299254E+04</totfact>
</mgrwt>
</event>
<event>
 5    1  0.3487578E-002  0.1249989E+03  0.7818608E-02  0.1235071E+00
         -4   -1    0    0    0  501 -0.00000000000E+00  0.00000000000E+00  0.11444106085E+03  0.11444810749E+03  0.12700000000E+01 0. -1.
          4   -1    0    0  501    0  0.00000000000E+00 -0.00000000000E+00 -0.34112776290E+02  0.34136408807E+02  0.12700000000E+01 0. -1.
         25    2    1    2    0    0  0.00000000000E+00  0.00000000000E+00  0.80328284556E+02  0.14858451630E+03  0.12499890073E+03 0.  0.
    9000005    1    3    3    0    0  0.24011361431E+02 -0.85069737720E-01 -0.28416260278E+02  0.37216079358E+02  0.10000000000E+01 0.  0.
    9000005    1    3    3    0    0 -0.24011361431E+02  0.85069737720E-01  0.10874454483E+03  0.11136843694E+03  0.10000000000E+01 0.  0.
<mgrwt>
<rscale>  0 0.12499890E+03</rscale>
<asrwt>0</asrwt>
<pdfrwt beam="2">  1        4 0.52504794E-02 0.12499890E+03</pdfrwt>
<pdfrwt beam="1">  1       -4 0.17608677E-01 0.12499890E+03</pdfrwt>
<totfact> 0.99589069E+03</totfact>
</mgrwt>
</event>
<event>
 5    1  0.3487578E-002  0.1249968E+03  0.7818608E-02  0.1235074E+00
         -4   -1    0    0    0  501 -0.00000000000E+00  0.00000000000E+00  0.35661500760E+02  0.35684107618E+02  0.12700000000E+01 0.  1.
          4   -1    0    0  501    0  0.00000000000E+00 -0.00000000000E+00 -0.10947020999E+03  0.10947757658E+03  0.12700000000E+01 0.  1.
         25    2    1    2    0    0  0.00000000000E+00  0.00000000000E+00 -0.73808709226E+02  0.14516168420E+03  0.12499675597E+03 0.  0.
    9000005    1    3    3    0    0  0.18965654032E+02  0.45253344112E+02 -0.81844518430E+02  0.95431055654E+02  0.10000000000E+01 0.  0.
    9000005    1    3    3    0    0 -0.18965654032E+02 -0.45253344112E+02  0.80358092039E+01  0.49730628547E+02  0.10000000000E+01 0.  0.
<mgrwt>
<rscale>  0 0.12499676E+03</rscale>
<asrwt>0</asrwt>
<pdfrwt beam="2">  1        4 0.16843876E-01 0.12499676E+03</pdfrwt>
<pdfrwt beam="1">  1       -4 0.54886904E-02 0.12499676E+03</pdfrwt>
<totfact> 0.10028437E+04</totfact>
</mgrwt>
</event>
<event>
 5    1  0.3487578E-002  0.1250037E+03  0.7818608E-02  0.1235064E+00
         -4   -1    0    0    0  501 -0.00000000000E+00  0.00000000000E+00  0.31597010268E+02  0.31622522953E+02  0.12700000000E+01 0. -1.
          4   -1    0    0  501    0  0.00000000000E+00 -0.00000000000E+00 -0.12355578812E+03  0.12356231496E+03  0.12700000000E+01 0. -1.
         25    2    1    2    0    0  0.00000000000E+00  0.00000000000E+00 -0.91958777855E+02  0.15518483791E+03  0.12500366832E+03 0.  0.
    9000005    1    3    3    0    0 -0.41669801988E+02 -0.46265664375E+02 -0.52617934077E+02  0.81526260091E+02  0.10000000000E+01 0.  0.
    9000005    1    3    3    0    0  0.41669801988E+02  0.46265664375E+02 -0.39340843778E+02  0.73658577824E+02  0.10000000000E+01 0.  0.
<mgrwt>
<rscale>  0 0.12500367E+03</rscale>
<asrwt>0</asrwt>
<pdfrwt beam="2">  1        4 0.19011047E-01 0.12500367E+03</pdfrwt>
<pdfrwt beam="1">  1       -4 0.48635431E-02 0.12500367E+03</pdfrwt>
<totfact> 0.98271118E+03</totfact>
</mgrwt>
</event>
<event>
 5    1  0.3487578E-002  0.1250006E+03  0.7818608E-02  0.1235068E+00
         -4   -1    0    0    0  501 -0.00000000000E+00  0.00000000000E+00  0.12988415532E+02  0.13050357774E+02  0.12700000000E+01 0.  1.
          4   -1    0    0  501    0  0.00000000000E+00 -0.00000000000E+00 -0.29997275552E+03  0.29997544392E+03  0.12700000000E+01 0.  1.
         25    2    1    2    0    0  0.00000000000E+00  0.00000000000E+00 -0.28698433999E+03  0.31302580170E+03  0.12500056451E+03 0.  0.
    9000005    1    3    3    0    0  0.33270369031E+02 -0.11516436825E+02 -0.27278576661E+03  0.27505021403E+03  0.10000000000E+01 0.  0.
    9000005    1    3    3    0    0 -0.33270369031E+02  0.11516436825E+02 -0.14198573382E+02  0.37975587668E+02  0.10000000000E+01 0.  0.
<mgrwt>
<rscale>  0 0.12500056E+03</rscale>
<asrwt>0</asrwt>
<pdfrwt beam="2">  1        4 0.46154621E-01 0.12500056E+03</pdfrwt>
<pdfrwt beam="1">  1       -4 0.20031896E-02 0.12500056E+03</pdfrwt>
<totfact> 0.73992440E+03</totfact>
</mgrwt>
</event>
<event>
 5    1  0.3487578E-002  0.1249818E+03  0.7818608E-02  0.1235098E+00
         -4   -1    0    0    0  501 -0.00000000000E+00  0.00000000000E+00  0.33304917218E+02  0.33329122564E+02  0.12700000000E+01 0. -1.
          4   -1    0    0  501    0  0.00000000000E+00 -0.00000000000E+00 -0.11718311736E+03  0.11718999912E+03  0.12700000000E+01 0. -1.
         25    2    1    2    0    0  0.00000000000E+00  0.00000000000E+00 -0.83878200139E+02  0.15051912168E+03  0.12498181281E+03 0.  0.
    9000005    1    3    3    0    0  0.20473007231E+02 -0.22528709134E+02  0.23776032669E+02  0.38639183348E+02  0.10000000000E+01 0.  0.
    9000005    1    3    3    0    0 -0.20473007231E+02  0.22528709134E+02 -0.10765423281E+03  0.11187993833E+03  0.10000000000E+01 0.  0.
<mgrwt>
<rscale>  0 0.12498181E+03</rscale>
<asrwt>0</asrwt>
<pdfrwt beam="2">  1        4 0.18030563E-01 0.12498181E+03</pdfrwt>
<pdfrwt beam="1">  1       -4 0.51262248E-02 0.12498181E+03</pdfrwt>
<totfact> 0.99240932E+03</totfact>
</mgrwt>
</event>
<event>
 5    1  0.3487578E-002  0.1249995E+03  0.7818608E-02  0.1235070E+00
          4   -1    0    0  501    0  0.00000000000E+00  0.00000000000E+00  0.13097808939E+03  0.13098424638E+03  0.12700000000E+01 0. -1.
         -4   -1    0    0    0  501 -0.00000000000E+00 -0.00000000000E+00 -0.29803092487E+02  0.29830139487E+02  0.12700000000E+01 0. -1.
         25    2    1    2    0    0  0.00000000000E+00  0.00000000000E+00  0.10117499690E+03  0.16081438587E+03  0.12499954681E+03 0.  0.
    9000005    1    3    3    0    0  0.44812067962E+02  0.42298089946E+02  0.37219336916E+02  0.71996728319E+02  0.10000000000E+01 0.  0.
    9000005    1    3    3    0    0 -0.44812067962E+02 -0.42298089946E+02  0.63955659986E+02  0.88817657549E+02  0.10000000000E+01 0.  0.
<mgrwt>
<rscale>  0 0.12499955E+03</rscale>
<asrwt>0</asrwt>
<pdfrwt beam="1">  1        4 0.20153029E-01 0.12499955E+03</pdfrwt>
<pdfrwt beam="2">  1       -4 0.45876453E-02 0.12499955E+03</pdfrwt>
<totfact> 0.97186997E+03</totfact>
</mgrwt>
</event>
<event>
 5    1  0.3487578E-002  0.1249998E+03  0.7818608E-02  0.1235070E+00
         -4   -1    0    0    0  501 -0.00000000000E+00  0.00000000000E+00  0.33393796810E+02  0.33417937778E+02  0.12700000000E+01 0.  1.
          4   -1    0    0  501    0  0.00000000000E+00 -0.00000000000E+00 -0.11690506862E+03  0.11691196675E+03  0.12700000000E+01 0.  1.
         25    2    1    2    0    0  0.00000000000E+00  0.00000000000E+00 -0.83511271814E+02  0.15032990453E+03  0.12499979070E+03 0.  0.
    9000005    1    3    3    0    0 -0.14112546136E+02  0.51320734533E+02 -0.23747782880E+01  0.53288097390E+02  0.10000000000E+01 0.  0.
    9000005    1    3    3    0    0  0.14112546136E+02 -0.51320734533E+02 -0.81136493526E+02  0.97041807141E+02  0.10000000000E+01 0.  0.
<mgrwt>
<rscale>  0 0.12499979E+03</rscale>
<asrwt>0</asrwt>
<pdfrwt beam="2">  1        4 0.17987783E-01 0.12499979E+03</pdfrwt>
<pdfrwt beam="1">  1       -4 0.51398949E-02 0.12499979E+03</pdfrwt>
<totfact> 0.99238445E+03</totfact>
</mgrwt>
</event>
<event>
 5    1  0.3487578E-002  0.1250012E+03  0.7818608E-02  0.1235067E+00
          4   -1    0    0  501    0  0.00000000000E+00  0.00000000000E+00  0.23769489857E+03  0.23769829134E+03  0.12700000000E+01 0.  1.
         -4   -1    0    0    0  501 -0.00000000000E+00 -0.00000000000E+00 -0.16406156843E+02  0.16455238751E+02  0.12700000000E+01 0.  1.
         25    2    1    2    0    0  0.00000000000E+00  0.00000000000E+00  0.22128874173E+03  0.25415353009E+03  0.12500123857E+03 0.  0.
    9000005    1    3    3    0    0 -0.11414948499E+02  0.40040108802E+02  0.20539745375E+03  0.20957725394E+03  0.10000000000E+01 0.  0.
    9000005    1    3    3    0    0  0.11414948499E+02 -0.40040108802E+02  0.15891287978E+02  0.44576276153E+02  0.10000000000E+01 0.  0.
<mgrwt>
<rscale>  0 0.12500124E+03</rscale>
<asrwt>0</asrwt>
<pdfrwt beam="1">  1        4 0.36572480E-01 0.12500124E+03</pdfrwt>
<pdfrwt beam="2">  1       -4 0.25280608E-02 0.12500124E+03</pdfrwt>
<totfact> 0.81731342E+03</totfact>
</mgrwt>
</event>
<event>
 5    1  0.3487578E-002  0.1250002E+03  0.7818608E-02  0.1235069E+00
         -4   -1    0    0    0  501 -0.00000000000E+00  0.00000000000E+00  0.14954753926E+03  0.14955293176E+03  0.12700000000E+01 0.  1.
          4   -1    0    0  501    0  0.00000000000E+00 -0.00000000000E+00 -0.26099239167E+02  0.26130120265E+02  0.12700000000E+01 0.  1.
         25    2    1    2    0    0  0.00000000000E+00  0.00000000000E+00  0.12344830009E+03  0.17568305203E+03  0.12500020789E+03 0.  0.
    9000005    1    3    3    0    0 -0.49365301970E+02  0.21722883260E+02  0.10608972163E+03  0.11901615744E+03  0.10000000000E+01 0.  0.
    9000005    1    3    3    0    0  0.49365301970E+02 -0.21722883260E+02  0.17358578458E+02  0.56666894584E+02  0.10000000000E+01 0.  0.
<mgrwt>
<rscale>  0 0.12500021E+03</rscale>
<asrwt>0</asrwt>
<pdfrwt beam="2">  1        4 0.40180577E-02 0.12500021E+03</pdfrwt>
<pdfrwt beam="1">  1       -4 0.23010105E-01 0.12500021E+03</pdfrwt>
<totfact> 0.94399449E+03</totfact>
</mgrwt>
</event>
<event>
 5    1  0.3487578E-002  0.1249972E+03  0.7818608E-02  0.1235074E+00
          4   -1    0    0  501    0  0.00000000000E+00  0.00000000000E+00  0.15768618181E+02  0.15819678231E+02  0.12700000000E+01 0. -1.
         -4   -1    0    0    0  501 -0.00000000000E+00 -0.00000000000E+00 -0.24725886694E+03  0.24726212848E+03  0.12700000000E+01 0. -1.
         25    2    1    2    0    0  0.00000000000E+00  0.00000000000E+00 -0.23149024876E+03  0.26308180672E+03  0.12499720698E+03 0.  0.
    9000005    1    3    3    0    0  0.51974778796E+02  0.26174743610E+02 -0.16367415457E+03  0.17371448906E+03  0.10000000000E+01 0.  0.
    9000005    1    3    3    0    0 -0.51974778796E+02 -0.26174743610E+02 -0.67816094193E+02  0.89367317659E+02  0.10000000000E+01 0.  0.
<mgrwt>
<rscale>  0 0.12499721E+03</rscale>
<asrwt>0</asrwt>
<pdfrwt beam="1">  1        4 0.24301200E-02 0.12499721E+03</pdfrwt>
<pdfrwt beam="2">  1       -4 0.38044001E-01 0.12499721E+03</pdfrwt>
<totfact> 0.80480513E+03</totfact>
</mgrwt>
</event>
<event>
 5    1  0.3487578E-002  0.1249975E+03  0.7818608E-02  0.1235073E+00
          4   -1    0    0  501    0  0.00000000000E+00  0.00000000000E+00  0.22551158755E+03  0.22551516361E+03  0.12700000000E+01 0.  1.
         -4   -1    0    0    0  501 -0.00000000000E+00 -0.00000000000E+00 -0.17294031457E+02  0.17340600452E+02  0.12700000000E+01 0.  1.
         25    2    1    2    0    0  0.00000000000E+00  0.00000000000E+00  0.20821755609E+03  0.24285576406E+03  0.12499748587E+03 0.  0.
    9000005    1    3    3    0    0 -0.31691409573E+02  0.51945771539E+02  0.76468940229E+02  0.97730279040E+02  0.10000000000E+01 0.  0.
    9000005    1    3    3    0    0  0.31691409573E+02 -0.51945771539E+02  0.13174861586E+03  0.14512548502E+03  0.10000000000E+01 0.  0.
<mgrwt>
<rscale>  0 0.12499749E+03</rscale>
<asrwt>0</asrwt>
<pdfrwt beam="1">  1        4 0.34697945E-01 0.12499749E+03</pdfrwt>
<pdfrwt beam="2">  1       -4 0.26644777E-02 0.12499749E+03</pdfrwt>
<totfact> 0.83378555E+03</totfact>
</mgrwt>
</event>
<event>
 5    1  0.3487578E-002  0.1250015E+03  0.7818608E-02  0.1235067E+00
          4   -1    0    0  501    0  0.00000000000E+00  0.00000000000E+00  0.13630730943E+03  0.13631322571E+03  0.12700000000E+01 0.  1.
         -4   -1    0    0    0  501 -0.00000000000E+00 -0.00000000000E+00 -0.28637755680E+02  0.28665902226E+02  0.12700000000E+01 0.  1.
         25    2    1    2    0    0  0.00000000000E+00  0.00000000000E+00  0.10766955374E+03  0.16497912793E+03  0.12500151939E+03 0.  0.
    9000005    1    3    3    0    0 -0.47315161129E+02  0.15163993023E+02  0.38091201704E+01  0.49841554486E+02  0.10000000000E+01 0.  0.
    9000005    1    3    3    0    0  0.47315161129E+02 -0.15163993023E+02  0.10386043357E+03  0.11513757345E+03  0.10000000000E+01 0.  0.
<mgrwt>
<rscale>  0 0.12500152E+03</rscale>
<asrwt>0</asrwt>
<pdfrwt beam="1">  1        4 0.20972975E-01 0.12500152E+03</pdfrwt>
<pdfrwt beam="2">  1       -4 0.44084289E-02 0.12500152E+03</pdfrwt>
<totfact> 0.96388056E+03</totfact>
</mgrwt>
</event>
<event>
 5    1  0.3487578E-002  0.1250007E+03  0.7818608E-02  0.1235068E+00
         -4   -1    0    0    0  501 -0.00000000000E+00  0.00000000000E+00  0.54183897625E+02  0.54198779155E+02  0.12700000000E+01 0. -1.
          4   -1    0    0  501    0  0.00000000000E+00 -0.00000000000E+00 -0.72062931012E+02  0.72074121057E+02  0.12700000000E+01 0. -1.
         25    2    1    2    0    0  0.00000000000E+00  0.00000000000E+00 -0.17879033387E+02  0.12627290021E+03  0.12500074197E+03 0.  0.
    9000005    1    3    3    0    0 -0.15830714601E+01 -0.18682386204E+02 -0.69159625059E+02  0.71663040738E+02  0.10000000000E+01 0.  0.
    9000005    1    3    3    0    0  0.15830714601E+01  0.18682386204E+02  0.51280591672E+02  0.54609859474E+02  0.10000000000E+01 0.  0.
<mgrwt>
<rscale>  0 0.12500074E+03</rscale>
<asrwt>0</asrwt>
<pdfrwt beam="2">  1        4 0.11088610E-01 0.12500074E+03</pdfrwt>
<pdfrwt beam="1">  1       -4 0.83379897E-02 0.12500074E+03</pdfrwt>
<totfact> 0.10424811E+04</totfact>
</mgrwt>
</event>
<event>
 5    1  0.3487578E-002  0.1249666E+03  0.7818608E-02  0.1235121E+00
          4   -1    0    0  501    0  0.00000000000E+00  0.00000000000E+00  0.13138500755E+03  0.13139114548E+03  0.12700000000E+01 0.  1.
         -4   -1    0    0    0  501 -0.00000000000E+00 -0.00000000000E+00 -0.29695028793E+02  0.29722174130E+02  0.12700000000E+01 0.  1.
         25    2    1    2    0    0  0.00000000000E+00  0.00000000000E+00  0.10168997876E+03  0.16111331961E+03  0.12496659544E+03 0.  0.
    9000005    1    3    3    0    0  0.27765382488E+02  0.45817718199E+02  0.92281582209E+02  0.10671021592E+03  0.10000000000E+01 0.  0.
    9000005    1    3    3    0    0 -0.27765382488E+02 -0.45817718199E+02  0.94083965506E+01  0.54403103692E+02  0.10000000000E+01 0.  0.
<mgrwt>
<rscale>  0 0.12496660E+03</rscale>
<asrwt>0</asrwt>
<pdfrwt beam="1">  1        4 0.20215638E-01 0.12496660E+03</pdfrwt>
<pdfrwt beam="2">  1       -4 0.45710263E-02 0.12496660E+03</pdfrwt>
<totfact> 0.97201530E+03</totfact>
</mgrwt>
</event>
<event>
 5    1  0.3487578E-002  0.1250101E+03  0.7818608E-02  0.1235053E+00
         -4   -1    0    0    0  501 -0.00000000000E+00  0.00000000000E+00  0.91646910833E+01  0.92522679734E+01  0.12700000000E+01 0.  1.
          4   -1    0    0  501    0  0.00000000000E+00 -0.00000000000E+00 -0.42418155661E+03  0.42418345780E+03  0.12700000000E+01 0.  1.
         25    2    1    2    0    0  0.00000000000E+00  0.00000000000E+00 -0.41501686553E+03  0.43343572577E+03  0.12501011840E+03 0.  0.
    9000005    1    3    3    0    0 -0.23056653798E+02  0.74107789109E+01 -0.40726740330E+03  0.40798807179E+03  0.10000000000E+01 0.  0.
    9000005    1    3    3    0    0  0.23056653798E+02 -0.74107789109E+01 -0.77494622242E+01  0.25447653982E+02  0.10000000000E+01 0.  0.
<mgrwt>
<rscale>  0 0.12501012E+03</rscale>
<asrwt>0</asrwt>
<pdfrwt beam="2">  1        4 0.65265569E-01 0.12501012E+03</pdfrwt>
<pdfrwt beam="1">  1       -4 0.14168357E-02 0.12501012E+03</pdfrwt>
<totfact> 0.61412101E+03</totfact>
</mgrwt>
</event>
<event>
 5    1  0.3487578E-002  0.1249991E+03  0.7818608E-02  0.1235071E+00
          4   -1    0    0  501    0  0.00000000000E+00  0.00000000000E+00  0.52650404307E+02  0.52665719151E+02  0.12700000000E+01 0.  1.
         -4   -1    0    0    0  501 -0.00000000000E+00 -0.00000000000E+00 -0.74159605964E+02  0.74170479685E+02  0.12700000000E+01 0.  1.
         25    2    1    2    0    0  0.00000000000E+00  0.00000000000E+00 -0.21509201658E+02  0.12683619884E+03  0.12499910231E+03 0.  0.
    9000005    1    3    3    0    0 -0.45462139447E+00  0.31623768347E+02 -0.65444075029E+02  0.72692478025E+02  0.10000000000E+01 0.  0.
    9000005    1    3    3    0    0  0.45462139447E+00 -0.31623768347E+02  0.43934873371E+02  0.54143720811E+02  0.10000000000E+01 0.  0.
<mgrwt>
<rscale>  0 0.12499910E+03</rscale>
<asrwt>0</asrwt>
<pdfrwt beam="1">  1        4 0.81020767E-02 0.12499910E+03</pdfrwt>
<pdfrwt beam="2">  1       -4 0.11411185E-01 0.12499910E+03</pdfrwt>
<totfact> 0.10412917E+04</totfact>
</mgrwt>
</event>
<event>
 5    1  0.3487578E-002  0.1250015E+03  0.7818608E-02  0.1235067E+00
         -4   -1    0    0    0  501 -0.00000000000E+00  0.00000000000E+00  0.77212829308E+02  0.77223273110E+02  0.12700000000E+01 0. -1.
          4   -1    0    0  501    0  0.00000000000E+00 -0.00000000000E+00 -0.50570097728E+02  0.50586042385E+02  0.12700000000E+01 0. -1.
         25    2    1    2    0    0  0.00000000000E+00  0.00000000000E+00  0.26642731580E+02  0.12780931549E+03  0.12500154392E+03 0.  0.
    9000005    1    3    3    0    0  0.43867685602E+02 -0.29495410380E+02 -0.20758892342E+02  0.56800393351E+02  0.10000000000E+01 0.  0.
    9000005    1    3    3    0    0 -0.43867685602E+02  0.29495410380E+02  0.47401623923E+02  0.71008922144E+02  0.10000000000E+01 0.  0.
<mgrwt>
<rscale>  0 0.12500154E+03</rscale>
<asrwt>0</asrwt>
<pdfrwt beam="2">  1        4 0.77820449E-02 0.12500154E+03</pdfrwt>
<pdfrwt beam="1">  1       -4 0.11880927E-01 0.12500154E+03</pdfrwt>
<totfact> 0.10391246E+04</totfact>
</mgrwt>
</event>
<event>
 5    1  0.3487578E-002  0.1250010E+03  0.7818608E-02  0.1235068E+00
          4   -1    0    0  501    0  0.00000000000E+00  0.00000000000E+00  0.58644815801E+02  0.58658565618E+02  0.12700000000E+01 0.  1.
         -4   -1    0    0    0  501 -0.00000000000E+00 -0.00000000000E+00 -0.66582090494E+02  0.66594201508E+02  0.12700000000E+01 0.  1.
         25    2    1    2    0    0  0.00000000000E+00  0.00000000000E+00 -0.79372746929E+01  0.12525276713E+03  0.12500102137E+03 0.  0.
    9000005    1    3    3    0    0  0.36564288872E+02  0.22400275038E+02  0.41582726068E+02  0.59739791176E+02  0.10000000000E+01 0.  0.
    9000005    1    3    3    0    0 -0.36564288872E+02 -0.22400275038E+02 -0.49520000760E+02  0.65512975950E+02  0.10000000000E+01 0.  0.
<mgrwt>
<rscale>  0 0.12500102E+03</rscale>
<asrwt>0</asrwt>
<pdfrwt beam="1">  1        4 0.90242686E-02 0.12500102E+03</pdfrwt>
<pdfrwt beam="2">  1       -4 0.10245388E-01 0.12500102E+03</pdfrwt>
<totfact> 0.10447134E+04</totfact>
</mgrwt>
</event>
<event>
 5    1  0.3487578E-002  0.1250004E+03  0.7818608E-02  0.1235069E+00
          4   -1    0    0  501    0  0.00000000000E+00  0.00000000000E+00  0.40546408357E+03  0.40546607252E+03  0.12700000000E+01 0.  1.
         -4   -1    0    0    0  501 -0.00000000000E+00 -0.00000000000E+00 -0.95902063035E+01  0.96739318245E+01  0.12700000000E+01 0.  1.
         25    2    1    2    0    0  0.00000000000E+00  0.00000000000E+00  0.39587387727E+03  0.41514000435E+03  0.12500038602E+03 0.  0.
    9000005    1    3    3    0    0 -0.41846256595E+02  0.42123276687E+01  0.44430472497E+02  0.61187578656E+02  0.10000000000E+01 0.  0.
    9000005    1    3    3    0    0  0.41846256595E+02 -0.42123276687E+01  0.35144340477E+03  0.35395242569E+03  0.10000000000E+01 0.  0.
<mgrwt>
<rscale>  0 0.12500039E+03</rscale>
<asrwt>0</asrwt>
<pdfrwt beam="1">  1        4 0.62385664E-01 0.12500039E+03</pdfrwt>
<pdfrwt beam="2">  1       -4 0.14820102E-02 0.12500039E+03</pdfrwt>
<totfact> 0.63105926E+03</totfact>
</mgrwt>
</event>
<event>
 5    1  0.3487578E-002  0.1250037E+03  0.7818608E-02  0.1235063E+00
         -4   -1    0    0    0  501 -0.00000000000E+00  0.00000000000E+00  0.48034657650E+02  0.48051443636E+02  0.12700000000E+01 0.  1.
          4   -1    0    0  501    0  0.00000000000E+00 -0.00000000000E+00 -0.81290400077E+02  0.81300320078E+02  0.12700000000E+01 0.  1.
         25    2    1    2    0    0  0.00000000000E+00  0.00000000000E+00 -0.33255742428E+02  0.12935176371E+03  0.12500373743E+03 0.  0.
    9000005    1    3    3    0    0  0.11301059035E+01 -0.34163019032E+02  0.37509137974E+02  0.50757506246E+02  0.10000000000E+01 0.  0.
    9000005    1    3    3    0    0 -0.11301059035E+01  0.34163019032E+02 -0.70764880402E+02  0.78594257468E+02  0.10000000000E+01 0.  0.
<mgrwt>
<rscale>  0 0.12500374E+03</rscale>
<asrwt>0</asrwt>
<pdfrwt beam="2">  1        4 0.12508270E-01 0.12500374E+03</pdfrwt>
<pdfrwt beam="1">  1       -4 0.73920017E-02 0.12500374E+03</pdfrwt>
<totfact> 0.10357520E+04</totfact>
</mgrwt>
</event>
<event>
 5    1  0.3487578E-002  0.1250293E+03  0.7818608E-02  0.1235024E+00
          4   -1    0    0  501    0  0.00000000000E+00  0.00000000000E+00  0.16711994202E+02  0.16760180494E+02  0.12700000000E+01 0.  1.
         -4   -1    0    0    0  501 -0.00000000000E+00 -0.00000000000E+00 -0.23346232572E+03  0.23346578000E+03  0.12700000000E+01 0.  1.
         25    2    1    2    0    0  0.00000000000E+00  0.00000000000E+00 -0.21675033152E+03  0.25022596050E+03  0.12502929693E+03 0.  0.
    9000005    1    3    3    0    0 -0.57025582575E+02 -0.23062319519E+02 -0.13059756183E+03  0.14436242865E+03  0.10000000000E+01 0.  0.
    9000005    1    3    3    0    0  0.57025582575E+02  0.23062319519E+02 -0.86152769689E+02  0.10586353185E+03  0.10000000000E+01 0.  0.
<mgrwt>
<rscale>  0 0.12502930E+03</rscale>
<asrwt>0</asrwt>
<pdfrwt beam="1">  1        4 0.25750486E-02 0.12502930E+03</pdfrwt>
<pdfrwt beam="2">  1       -4 0.35921251E-01 0.12502930E+03</pdfrwt>
<totfact> 0.82243896E+03</totfact>
</mgrwt>
</event>
<event>
 5    1  0.3487578E-002  0.1249976E+03  0.7818608E-02  0.1235073E+00
          4   -1    0    0  501    0  0.00000000000E+00  0.00000000000E+00  0.21350991603E+03  0.21351369311E+03  0.12700000000E+01 0.  1.
         -4   -1    0    0    0  501 -0.00000000000E+00 -0.00000000000E+00 -0.18268713200E+02  0.18312803772E+02  0.12700000000E+01 0.  1.
         25    2    1    2    0    0  0.00000000000E+00  0.00000000000E+00  0.19524120283E+03  0.23182649688E+03  0.12499758946E+03 0.  0.
    9000005    1    3    3    0    0  0.28422900596E+02 -0.43023892874E+01 -0.52869064781E+01  0.29245909320E+02  0.10000000000E+01 0.  0.
    9000005    1    3    3    0    0 -0.28422900596E+02  0.43023892874E+01  0.20052810931E+03  0.20258058756E+03  0.10000000000E+01 0.  0.
<mgrwt>
<rscale>  0 0.12499759E+03</rscale>
<asrwt>0</asrwt>
<pdfrwt beam="1">  1        4 0.32851362E-01 0.12499759E+03</pdfrwt>
<pdfrwt beam="2">  1       -4 0.28142533E-02 0.12499759E+03</pdfrwt>
<totfact> 0.85034495E+03</totfact>
</mgrwt>
</event>
<event>
 5    1  0.3487578E-002  0.1250000E+03  0.7818608E-02  0.1235069E+00
         -4   -1    0    0    0  501 -0.00000000000E+00  0.00000000000E+00  0.22598160251E+03  0.22598517114E+03  0.12700000000E+01 0.  1.
          4   -1    0    0  501    0  0.00000000000E+00 -0.00000000000E+00 -0.17258655319E+02  0.17305319513E+02  0.12700000000E+01 0.  1.
         25    2    1    2    0    0  0.00000000000E+00  0.00000000000E+00  0.20872294720E+03  0.24329049065E+03  0.12499997662E+03 0.  0.
    9000005    1    3    3    0    0  0.17456394019E+02 -0.53118680442E+02  0.15868200843E+03  0.16824773313E+03  0.10000000000E+01 0.  0.
    9000005    1    3    3    0    0 -0.17456394019E+02  0.53118680442E+02  0.50040938766E+02  0.75042757523E+02  0.10000000000E+01 0.  0.
<mgrwt>
<rscale>  0 0.12499998E+03</rscale>
<asrwt>0</asrwt>
<pdfrwt beam="2">  1        4 0.26590418E-02 0.12499998E+03</pdfrwt>
<pdfrwt beam="1">  1       -4 0.34770265E-01 0.12499998E+03</pdfrwt>
<totfact> 0.83309777E+03</totfact>
</mgrwt>
</event>
<event>
 5    1  0.3487578E-002  0.1250275E+03  0.7818608E-02  0.1235026E+00
         -4   -1    0    0    0  501 -0.00000000000E+00  0.00000000000E+00  0.11122656368E+03  0.11123381396E+03  0.12700000000E+01 0.  1.
          4   -1    0    0  501    0  0.00000000000E+00 -0.00000000000E+00 -0.35115318611E+02  0.35138276866E+02  0.12700000000E+01 0.  1.
         25    2    1    2    0    0  0.00000000000E+00  0.00000000000E+00  0.76111245069E+02  0.14637209083E+03  0.12502746637E+03 0.  0.
    9000005    1    3    3    0    0  0.58116354010E+02  0.11206024179E+02  0.61583334500E+02  0.85420095232E+02  0.10000000000E+01 0.  0.
    9000005    1    3    3    0    0 -0.58116354010E+02 -0.11206024179E+02  0.14527910570E+02  0.60951995594E+02  0.10000000000E+01 0.  0.
<mgrwt>
<rscale>  0 0.12502747E+03</rscale>
<asrwt>0</asrwt>
<pdfrwt beam="2">  1        4 0.54046806E-02 0.12502747E+03</pdfrwt>
<pdfrwt beam="1">  1       -4 0.17114102E-01 0.12502747E+03</pdfrwt>
<totfact> 0.99970014E+03</totfact>
</mgrwt>
</event>
<event>
 5    1  0.3487578E-002  0.1249914E+03  0.7818608E-02  0.1235083E+00
         -4   -1    0    0    0  501 -0.00000000000E+00  0.00000000000E+00  0.10337437636E+02  0.10415158035E+02  0.12700000000E+01 0. -1.
          4   -1    0    0  501    0  0.00000000000E+00 -0.00000000000E+00 -0.37632847392E+03  0.37633061686E+03  0.12700000000E+01 0. -1.
         25    2    1    2    0    0  0.00000000000E+00  0.00000000000E+00 -0.36599103629E+03  0.38674577489E+03  0.12499142273E+03 0.  0.
    9000005    1    3    3    0    0 -0.37915532310E+02 -0.75959272342E+01 -0.31114897112E+02  0.49642950388E+02  0.10000000000E+01 0.  0.
    9000005    1    3    3    0    0  0.37915532310E+02  0.75959272342E+01 -0.33487613917E+03  0.33710282450E+03  0.10000000000E+01 0.  0.
<mgrwt>
<rscale>  0 0.12499142E+03</rscale>
<asrwt>0</asrwt>
<pdfrwt beam="2">  1        4 0.57902821E-01 0.12499142E+03</pdfrwt>
<pdfrwt beam="1">  1       -4 0.15965186E-02 0.12499142E+03</pdfrwt>
<totfact> 0.65875107E+03</totfact>
</mgrwt>
</event>
<event>
 5    1  0.3487578E-002  0.1250027E+03  0.7818608E-02  0.1235065E+00
         -4   -1    0    0    0  501 -0.00000000000E+00  0.00000000000E+00  0.18660488712E+04  0.18660493034E+04  0.12700000000E+01 0.  1.
          4   -1    0    0  501    0  0.00000000000E+00 -0.00000000000E+00 -0.19003279120E+01  0.22856391170E+01  0.12700000000E+01 0.  1.
         25    2    1    2    0    0  0.00000000000E+00  0.00000000000E+00  0.18641485433E+04  0.18683349425E+04  0.12500266347E+03 0.  0.
    9000005    1    3    3    0    0  0.36440268993E+02 -0.47788305961E+02  0.11882642646E+04  0.11897834164E+04  0.10000000000E+01 0.  0.
    9000005    1    3    3    0    0 -0.36440268993E+02  0.47788305961E+02  0.67588427870E+03  0.67855152611E+03  0.10000000000E+01 0.  0.
<mgrwt>
<rscale>  0 0.12500266E+03</rscale>
<asrwt>0</asrwt>
<pdfrwt beam="2">  1        4 0.32203079E-03 0.12500266E+03</pdfrwt>
<pdfrwt beam="1">  1       -4 0.28711404E+00 0.12500266E+03</pdfrwt>
<totfact> 0.11678584E+03</totfact>
</mgrwt>
</event>
<event>
 5    1  0.3487578E-002  0.1250014E+03  0.7818608E-02  0.1235067E+00
          4   -1    0    0  501    0  0.00000000000E+00  0.00000000000E+00  0.45078262610E+02  0.45096149059E+02  0.12700000000E+01 0.  1.
         -4   -1    0    0    0  501 -0.00000000000E+00 -0.00000000000E+00 -0.86617035936E+02  0.86626345959E+02  0.12700000000E+01 0.  1.
         25    2    1    2    0    0  0.00000000000E+00  0.00000000000E+00 -0.41538773326E+02  0.13172249502E+03  0.12500138401E+03 0.  0.
    9000005    1    3    3    0    0 -0.33964231044E+02  0.50149925119E+02 -0.36983471203E+02  0.70974369473E+02  0.10000000000E+01 0.  0.
    9000005    1    3    3    0    0  0.33964231044E+02 -0.50149925119E+02 -0.45553021231E+01  0.60748125545E+02  0.10000000000E+01 0.  0.
<mgrwt>
<rscale>  0 0.12500138E+03</rscale>
<asrwt>0</asrwt>
<pdfrwt beam="1">  1        4 0.69372094E-02 0.12500138E+03</pdfrwt>
<pdfrwt beam="2">  1       -4 0.13327790E-01 0.12500138E+03</pdfrwt>
<totfact> 0.10307303E+04</totfact>
</mgrwt>
</event>
<event>
 5    1  0.3487578E-002  0.1250057E+03  0.7818608E-02  0.1235060E+00
          4   -1    0    0  501    0  0.00000000000E+00  0.00000000000E+00  0.82893420292E+03  0.82893517580E+03  0.12700000000E+01 0.  1.
         -4   -1    0    0    0  501 -0.00000000000E+00 -0.00000000000E+00 -0.46262496639E+01  0.47974040848E+01  0.12700000000E+01 0.  1.
         25    2    1    2    0    0  0.00000000000E+00  0.00000000000E+00  0.82430795326E+03  0.83373257988E+03  0.12500565168E+03 0.  0.
    9000005    1    3    3    0    0 -0.53351510616E+02  0.29898271427E+02  0.49790721331E+03  0.50165016036E+03  0.10000000000E+01 0.  0.
    9000005    1    3    3    0    0  0.53351510616E+02 -0.29898271427E+02  0.32640073995E+03  0.33208241953E+03  0.10000000000E+01 0.  0.
<mgrwt>
<rscale>  0 0.12500565E+03</rscale>
<asrwt>0</asrwt>
<pdfrwt beam="1">  1        4 0.12754157E+00 0.12500565E+03</pdfrwt>
<pdfrwt beam="2">  1       -4 0.72497134E-03 0.12500565E+03</pdfrwt>
<totfact> 0.36797863E+03</totfact>
</mgrwt>
</event>
<event>
 5    1  0.3487578E-002  0.1250045E+03  0.7818608E-02  0.1235062E+00
          4   -1    0    0  501    0  0.00000000000E+00  0.00000000000E+00  0.14986582019E+02  0.15040297224E+02  0.12700000000E+01 0.  1.
         -4   -1    0    0    0  501 -0.00000000000E+00 -0.00000000000E+00 -0.26014709342E+03  0.26015019338E+03  0.12700000000E+01 0.  1.
         25    2    1    2    0    0  0.00000000000E+00  0.00000000000E+00 -0.24516051141E+03  0.27519049061E+03  0.12500451899E+03 0.  0.
    9000005    1    3    3    0    0 -0.87989662175E+01 -0.24753105443E+02  0.22514299876E+01  0.26385734263E+02  0.10000000000E+01 0.  0.
    9000005    1    3    3    0    0  0.87989662175E+01  0.24753105443E+02 -0.24741194139E+03  0.24880475634E+03  0.10000000000E+01 0.  0.
<mgrwt>
<rscale>  0 0.12500452E+03</rscale>
<asrwt>0</asrwt>
<pdfrwt beam="1">  1        4 0.23099986E-02 0.12500452E+03</pdfrwt>
<pdfrwt beam="2">  1       -4 0.40026997E-01 0.12500452E+03</pdfrwt>
<totfact> 0.78812245E+03</totfact>
</mgrwt>
</event>
<event>
 5    1  0.3487578E-002  0.1250027E+03  0.7818608E-02  0.1235065E+00
          4   -1    0    0  501    0  0.00000000000E+00  0.00000000000E+00  0.65809087299E+03  0.65809209843E+03  0.12700000000E+01 0.  1.
         -4   -1    0    0    0  501 -0.00000000000E+00 -0.00000000000E+00 -0.58668112014E+01  0.60026971998E+01  0.12700000000E+01 0.  1.
         25    2    1    2    0    0  0.00000000000E+00  0.00000000000E+00  0.65222406179E+03  0.66409479563E+03  0.12500268318E+03 0.  0.
    9000005    1    3    3    0    0 -0.51529272847E+02 -0.35294388385E+02  0.33732899623E+03  0.34306385923E+03  0.10000000000E+01 0.  0.
    9000005    1    3    3    0    0  0.51529272847E+02  0.35294388385E+02  0.31489506556E+03  0.32103093640E+03  0.10000000000E+01 0.  0.
<mgrwt>
<rscale>  0 0.12500268E+03</rscale>
<asrwt>0</asrwt>
<pdfrwt beam="1">  1        4 0.10125524E+00 0.12500268E+03</pdfrwt>
<pdfrwt beam="2">  1       -4 0.91313386E-03 0.12500268E+03</pdfrwt>
<totfact> 0.45048349E+03</totfact>
</mgrwt>
</event>
<event>
 5    1  0.3487578E-002  0.1249915E+03  0.7818608E-02  0.1235083E+00
         -4   -1    0    0    0  501 -0.00000000000E+00  0.00000000000E+00  0.99447943427E+02  0.99456052364E+02  0.12700000000E+01 0. -1.
          4   -1    0    0  501    0  0.00000000000E+00 -0.00000000000E+00 -0.39254007506E+02  0.39274546532E+02  0.12700000000E+01 0. -1.
         25    2    1    2    0    0  0.00000000000E+00  0.00000000000E+00  0.60193935920E+02  0.13873059890E+03  0.12499147630E+03 0.  0.
    9000005    1    3    3    0    0 -0.23045634886E+02 -0.38906668421E+02 -0.17769916440E+02  0.48596296826E+02  0.10000000000E+01 0.  0.
    9000005    1    3    3    0    0  0.23045634886E+02  0.38906668421E+02  0.77963852360E+02  0.90134302070E+02  0.10000000000E+01 0.  0.
<mgrwt>
<rscale>  0 0.12499148E+03</rscale>
<asrwt>0</asrwt>
<pdfrwt beam="2">  1        4 0.60412819E-02 0.12499148E+03</pdfrwt>
<pdfrwt beam="1">  1       -4 0.15301887E-01 0.12499148E+03</pdfrwt>
<totfact> 0.10161914E+04</totfact>
</mgrwt>
</event>
<event>
 5    1  0.3487578E-002  0.1249945E+03  0.7818608E-02  0.1235078E+00
          4   -1    0    0  501    0  0.00000000000E+00  0.00000000000E+00  0.67012038112E+01  0.68204862378E+01  0.12700000000E+01 0.  1.
         -4   -1    0    0    0  501 -0.00000000000E+00 -0.00000000000E+00 -0.57760419577E+03  0.57760559196E+03  0.12700000000E+01 0.  1.
         25    2    1    2    0    0  0.00000000000E+00  0.00000000000E+00 -0.57090299195E+03  0.58442607820E+03  0.12499445851E+03 0.  0.
    9000005    1    3    3    0    0 -0.46598259689E+02  0.22717677811E+02 -0.12231249818E+03  0.13284892887E+03  0.10000000000E+01 0.  0.
    9000005    1    3    3    0    0  0.46598259689E+02 -0.22717677811E+02 -0.44859049378E+03  0.45157714933E+03  0.10000000000E+01 0.  0.
<mgrwt>
<rscale>  0 0.12499446E+03</rscale>
<asrwt>0</asrwt>
<pdfrwt beam="1">  1        4 0.10402379E-02 0.12499446E+03</pdfrwt>
<pdfrwt beam="2">  1       -4 0.88871428E-01 0.12499446E+03</pdfrwt>
<totfact> 0.49871751E+03</totfact>
</mgrwt>
</event>
<event>
 5    1  0.3487578E-002  0.1250026E+03  0.7818608E-02  0.1235065E+00
         -4   -1    0    0    0  501 -0.00000000000E+00  0.00000000000E+00  0.34281453547E+03  0.34281688790E+03  0.12700000000E+01 0. -1.
          4   -1    0    0  501    0  0.00000000000E+00 -0.00000000000E+00 -0.11357335066E+02  0.11428121447E+02  0.12700000000E+01 0. -1.
         25    2    1    2    0    0  0.00000000000E+00  0.00000000000E+00  0.33145720040E+03  0.35424500935E+03  0.12500260376E+03 0.  0.
    9000005    1    3    3    0    0  0.45493766393E+02 -0.27425042891E+02  0.25901505183E+03  0.26440804230E+03  0.10000000000E+01 0.  0.
    9000005    1    3    3    0    0 -0.45493766393E+02  0.27425042891E+02  0.72442148574E+02  0.89836967047E+02  0.10000000000E+01 0.  0.
<mgrwt>
<rscale>  0 0.12500260E+03</rscale>
<asrwt>0</asrwt>
<pdfrwt beam="2">  1        4 0.17529083E-02 0.12500260E+03</pdfrwt>
<pdfrwt beam="1">  1       -4 0.52746325E-01 0.12500260E+03</pdfrwt>
<totfact> 0.69256071E+03</totfact>
</mgrwt>
</event>
<event>
 5    1  0.3487578E-002  0.1249928E+03  0.7818608E-02  0.1235081E+00
         -4   -1    0    0    0  501 -0.00000000000E+00  0.00000000000E+00  0.35562265438E+02  0.35584935339E+02  0.12700000000E+01 0. -1.
          4   -1    0    0  501    0  0.00000000000E+00 -0.00000000000E+00 -0.10976852419E+03  0.10977587077E+03  0.12700000000E+01 0. -1.
         25    2    1    2    0    0  0.00000000000E+00  0.00000000000E+00 -0.74206258755E+02  0.14536080611E+03  0.12499278025E+03 0.  0.
    9000005    1    3    3    0    0 -0.75390966926E+01 -0.14674670729E+02  0.32989454617E+02  0.36898347604E+02  0.10000000000E+01 0.  0.
    9000005    1    3    3    0    0  0.75390966926E+01  0.14674670729E+02 -0.10719571337E+03  0.10846245851E+03  0.10000000000E+01 0.  0.
<mgrwt>
<rscale>  0 0.12499278E+03</rscale>
<asrwt>0</asrwt>
<pdfrwt beam="2">  1        4 0.16889774E-01 0.12499278E+03</pdfrwt>
<pdfrwt beam="1">  1       -4 0.54734268E-02 0.12499278E+03</pdfrwt>
<totfact> 0.10025293E+04</totfact>
</mgrwt>
</event>
<event>
 5    1  0.3487578E-002  0.1250013E+03  0.7818608E-02  0.1235067E+00
          4   -1    0    0  501    0  0.00000000000E+00  0.00000000000E+00  0.90896889268E+02  0.90905760975E+02  0.12700000000E+01 0. -1.
         -4   -1    0    0    0  501 -0.00000000000E+00 -0.00000000000E+00 -0.42955052339E+02  0.42973822514E+02  0.12700000000E+01 0. -1.
         25    2    1    2    0    0  0.00000000000E+00  0.00000000000E+00  0.47941836928E+02  0.13387958349E+03  0.12500129258E+03 0.  0.
    9000005    1    3    3    0    0 -0.62093971959E+02  0.55641527113E+01  0.28603600989E+02  0.68598740065E+02  0.10000000000E+01 0.  0.
    9000005    1    3    3    0    0  0.62093971959E+02 -0.55641527113E+01  0.19338235940E+02  0.65280843425E+02  0.10000000000E+01 0.  0.
<mgrwt>
<rscale>  0 0.12500129E+03</rscale>
<asrwt>0</asrwt>
<pdfrwt beam="1">  1        4 0.13986263E-01 0.12500129E+03</pdfrwt>
<pdfrwt beam="2">  1       -4 0.66105959E-02 0.12500129E+03</pdfrwt>
<totfact> 0.10261442E+04</totfact>
</mgrwt>
</event>
<event>
 5    1  0.3487578E-002  0.1250005E+03  0.7818608E-02  0.1235069E+00
          4   -1    0    0  501    0  0.00000000000E+00  0.00000000000E+00  0.34623592019E+03  0.34623824937E+03  0.12700000000E+01 0. -1.
         -4   -1    0    0    0  501 -0.00000000000E+00 -0.00000000000E+00 -0.11244020338E+02  0.11315515603E+02  0.12700000000E+01 0. -1.
         25    2    1    2    0    0  0.00000000000E+00  0.00000000000E+00  0.33499189985E+03  0.35755376498E+03  0.12500048753E+03 0.  0.
    9000005    1    3    3    0    0 -0.36824147520E+02  0.45744406783E+02  0.10636645576E+03  0.12150469746E+03  0.10000000000E+01 0.  0.
    9000005    1    3    3    0    0  0.36824147520E+02 -0.45744406783E+02  0.22862544409E+03  0.23604906752E+03  0.10000000000E+01 0.  0.
<mgrwt>
<rscale>  0 0.12500049E+03</rscale>
<asrwt>0</asrwt>
<pdfrwt beam="1">  1        4 0.53272739E-01 0.12500049E+03</pdfrwt>
<pdfrwt beam="2">  1       -4 0.17355282E-02 0.12500049E+03</pdfrwt>
<totfact> 0.68900725E+03</totfact>
</mgrwt>
</event>
<event>
 5    1  0.3487578E-002  0.1249924E+03  0.7818608E-02  0.1235081E+00
         -4   -1    0    0    0  501 -0.00000000000E+00  0.00000000000E+00  0.61951392123E+02  0.61964408220E+02  0.12700000000E+01 0. -1.
          4   -1    0    0  501    0  0.00000000000E+00 -0.00000000000E+00 -0.63019726320E+02  0.63032521808E+02  0.12700000000E+01 0. -1.
         25    2    1    2    0    0  0.00000000000E+00  0.00000000000E+00 -0.10683341969E+01  0.12499693003E+03  0.12499236448E+03 0.  0.
    9000005    1    3    3    0    0  0.54179898170E+02 -0.13706410799E+01 -0.31638884542E+02  0.62764313410E+02  0.10000000000E+01 0.  0.
    9000005    1    3    3    0    0 -0.54179898170E+02  0.13706410799E+01  0.30570550345E+02  0.62232616618E+02  0.10000000000E+01 0.  0.
<mgrwt>
<rscale>  0 0.12499236E+03</rscale>
<asrwt>0</asrwt>
<pdfrwt beam="2">  1        4 0.96973281E-02 0.12499236E+03</pdfrwt>
<pdfrwt beam="1">  1       -4 0.95329689E-02 0.12499236E+03</pdfrwt>
<totfact> 0.10454733E+04</totfact>
</mgrwt>
</event>
<event>
 5    1  0.3487578E-002  0.1250570E+03  0.7818608E-02  0.1234980E+00
          4   -1    0    0  501    0  0.00000000000E+00  0.00000000000E+00  0.74856801691E+02  0.74867574152E+02  0.12700000000E+01 0.  1.
         -4   -1    0    0    0  501 -0.00000000000E+00 -0.00000000000E+00 -0.52208353416E+02  0.52223797893E+02  0.12700000000E+01 0.  1.
         25    2    1    2    0    0  0.00000000000E+00  0.00000000000E+00  0.22648448275E+02  0.12709137205E+03  0.12505704554E+03 0.  0.
    9000005    1    3    3    0    0 -0.42605949975E+02 -0.29607948054E+02  0.46776054968E+02  0.69863415888E+02  0.10000000000E+01 0.  0.
    9000005    1    3    3    0    0  0.42605949975E+02  0.29607948054E+02 -0.24127606692E+02  0.57227956157E+02  0.10000000000E+01 0.  0.
<mgrwt>
<rscale>  0 0.12505705E+03</rscale>
<asrwt>0</asrwt>
<pdfrwt beam="1">  1        4 0.11518448E-01 0.12505705E+03</pdfrwt>
<pdfrwt beam="2">  1       -4 0.80340711E-02 0.12505705E+03</pdfrwt>
<totfact> 0.10393771E+04</totfact>
</mgrwt>
</event>
<event>
 5    1  0.3487578E-002  0.1250034E+03  0.7818608E-02  0.1235064E+00
          4   -1    0    0  501    0  0.00000000000E+00  0.00000000000E+00  0.85826907122E+02  0.85836302846E+02  0.12700000000E+01 0.  1.
         -4   -1    0    0    0  501 -0.00000000000E+00 -0.00000000000E+00 -0.45494855745E+02  0.45512578473E+02  0.12700000000E+01 0.  1.
         25    2    1    2    0    0  0.00000000000E+00  0.00000000000E+00  0.40332051377E+02  0.13134888132E+03  0.12500341697E+03 0.  0.
    9000005    1    3    3    0    0 -0.28111848915E+02 -0.28416281224E+02 -0.30311074976E+02  0.50174917581E+02  0.10000000000E+01 0.  0.
    9000005    1    3    3    0    0  0.28111848915E+02  0.28416281224E+02  0.70643126353E+02  0.81173963738E+02  0.10000000000E+01 0.  0.
<mgrwt>
<rscale>  0 0.12500342E+03</rscale>
<asrwt>0</asrwt>
<pdfrwt beam="1">  1        4 0.13206226E-01 0.12500342E+03</pdfrwt>
<pdfrwt beam="2">  1       -4 0.70012946E-02 0.12500342E+03</pdfrwt>
<totfact> 0.10314821E+04</totfact>
</mgrwt>
</event>
<event>
 5    1  0.3487578E-002  0.1249993E+03  0.7818608E-02  0.1235070E+00
          4   -1    0    0  501    0  0.00000000000E+00  0.00000000000E+00  0.93986271202E+02  0.93994851319E+02  0.12700000000E+01 0. -1.
         -4   -1    0    0    0  501 -0.00000000000E+00 -0.00000000000E+00 -0.41541290651E+02  0.41560699332E+02  0.12700000000E+01 0. -1.
         25    2    1    2    0    0  0.00000000000E+00  0.00000000000E+00  0.52444980551E+02  0.13555555065E+03  0.12499932531E+03 0.  0.
    9000005    1    3    3    0    0 -0.40215326911E+02  0.31007728789E+02 -0.13273778728E+02  0.52497094824E+02  0.10000000000E+01 0.  0.
    9000005    1    3    3    0    0  0.40215326911E+02 -0.31007728789E+02  0.65718759279E+02  0.83058455827E+02  0.10000000000E+01 0.  0.
<mgrwt>
<rscale>  0 0.12499933E+03</rscale>
<asrwt>0</asrwt>
<pdfrwt beam="1">  1        4 0.14461579E-01 0.12499933E+03</pdfrwt>
<pdfrwt beam="2">  1       -4 0.63931208E-02 0.12499933E+03</pdfrwt>
<totfact> 0.10226530E+04</totfact>
</mgrwt>
</event>
<event>
 5    1  0.3487578E-002  0.1249995E+03  0.7818608E-02  0.1235070E+00
         -4   -1    0    0    0  501 -0.00000000000E+00  0.00000000000E+00  0.65796505238E+01  0.67010970009E+01  0.12700000000E+01 0.  1.
          4   -1    0    0  501    0  0.00000000000E+00 -0.00000000000E+00 -0.58813045250E+03  0.58813182370E+03  0.12700000000E+01 0.  1.
         25    2    1    2    0    0  0.00000000000E+00  0.00000000000E+00 -0.58155080197E+03  0.59483292071E+03  0.12499947312E+03 0.  0.
    9000005    1    3    3    0    0  0.33787540396E+02  0.10828768555E+02 -0.45975619497E+02  0.58082852053E+02  0.10000000000E+01 0.  0.
    9000005    1    3    3    0    0 -0.33787540396E+02 -0.10828768555E+02 -0.53557518248E+03  0.53675006865E+03  0.10000000000E+01 0.  0.
<mgrwt>
<rscale>  0 0.12499947E+03</rscale>
<asrwt>0</asrwt>
<pdfrwt beam="2">  1        4 0.90491014E-01 0.12499947E+03</pdfrwt>
<pdfrwt beam="1">  1       -4 0.10217019E-02 0.12499947E+03</pdfrwt>
<totfact> 0.49195989E+03</totfact>
</mgrwt>
</event>
<event>
 5    1  0.3487578E-002  0.1250012E+03  0.7818608E-02  0.1235067E+00
         -4   -1    0    0    0  501 -0.00000000000E+00  0.00000000000E+00  0.76163281154E+03  0.76163387038E+03  0.12700000000E+01 0.  1.
          4   -1    0    0  501    0  0.00000000000E+00 -0.00000000000E+00 -0.50491870484E+01  0.52064565541E+01  0.12700000000E+01 0.  1.
         25    2    1    2    0    0  0.00000000000E+00  0.00000000000E+00  0.75658362449E+03  0.76684032694E+03  0.12500122466E+03 0.  0.
    9000005    1    3    3    0    0  0.24041457200E+02  0.83393519406E+01  0.72844027538E+03  0.72888529362E+03  0.10000000000E+01 0.  0.
    9000005    1    3    3    0    0 -0.24041457200E+02 -0.83393519406E+01  0.28143349111E+02  0.37955033319E+02  0.10000000000E+01 0.  0.
<mgrwt>
<rscale>  0 0.12500122E+03</rscale>
<asrwt>0</asrwt>
<pdfrwt beam="2">  1        4 0.78897707E-03 0.12500122E+03</pdfrwt>
<pdfrwt beam="1">  1       -4 0.11718646E+00 0.12500122E+03</pdfrwt>
<totfact> 0.39780256E+03</totfact>
</mgrwt>
</event>
<event>
 5    1  0.3487578E-002  0.1250030E+03  0.7818608E-02  0.1235065E+00
         -4   -1    0    0    0  501 -0.00000000000E+00  0.00000000000E+00  0.12782574707E+03  0.12783205590E+03  0.12700000000E+01 0. -1.
          4   -1    0    0  501    0  0.00000000000E+00 -0.00000000000E+00 -0.30540380065E+02  0.30566774683E+02  0.12700000000E+01 0. -1.
         25    2    1    2    0    0  0.00000000000E+00  0.00000000000E+00  0.97285367008E+02  0.15839883058E+03  0.12500298754E+03 0.  0.
    9000005    1    3    3    0    0  0.35208338085E+02  0.39233326592E+02  0.61114557050E+01  0.53077592984E+02  0.10000000000E+01 0.  0.
    9000005    1    3    3    0    0 -0.35208338085E+02 -0.39233326592E+02  0.91173911303E+02  0.10532123759E+03  0.10000000000E+01 0.  0.
<mgrwt>
<rscale>  0 0.12500299E+03</rscale>
<asrwt>0</asrwt>
<pdfrwt beam="2">  1        4 0.47010357E-02 0.12500299E+03</pdfrwt>
<pdfrwt beam="1">  1       -4 0.19668015E-01 0.12500299E+03</pdfrwt>
<totfact> 0.97645810E+03</totfact>
</mgrwt>
</event>
<event>
 5    1  0.3487578E-002  0.1249939E+03  0.7818608E-02  0.1235079E+00
          4   -1    0    0  501    0  0.00000000000E+00  0.00000000000E+00  0.42963363965E+01  0.44801123235E+01  0.12700000000E+01 0.  1.
         -4   -1    0    0    0  501 -0.00000000000E+00 -0.00000000000E+00 -0.88989469703E+03  0.88989560327E+03  0.12700000000E+01 0.  1.
         25    2    1    2    0    0  0.00000000000E+00  0.00000000000E+00 -0.88559836064E+03  0.89437571559E+03  0.12499385693E+03 0.  0.
    9000005    1    3    3    0    0  0.41560929587E+02  0.35264266542E+02 -0.66147545983E+03  0.66371806011E+03  0.10000000000E+01 0.  0.
    9000005    1    3    3    0    0 -0.41560929587E+02 -0.35264266542E+02 -0.22412290081E+03  0.23065765548E+03  0.10000000000E+01 0.  0.
<mgrwt>
<rscale>  0 0.12499386E+03</rscale>
<asrwt>0</asrwt>
<pdfrwt beam="1">  1        4 0.67518186E-03 0.12499386E+03</pdfrwt>
<pdfrwt beam="2">  1       -4 0.13692094E+00 0.12499386E+03</pdfrwt>
<totfact> 0.34380838E+03</totfact>
</mgrwt>
</event>
<event>
 5    1  0.3487578E-002  0.1250010E+03  0.7818608E-02  0.1235068E+00
          4   -1    0    0  501    0  0.00000000000E+00  0.00000000000E+00  0.79574160630E+02  0.79584294556E+02  0.12700000000E+01 0.  1.
         -4   -1    0    0    0  501 -0.00000000000E+00 -0.00000000000E+00 -0.49068732129E+02  0.49085164487E+02  0.12700000000E+01 0.  1.
         25    2    1    2    0    0  0.00000000000E+00  0.00000000000E+00  0.30505428502E+02  0.12866945904E+03  0.12500099409E+03 0.  0.
    9000005    1    3    3    0    0 -0.48910060961E+02  0.37546392610E+02  0.47863978252E+01  0.61853336736E+02  0.10000000000E+01 0.  0.
    9000005    1    3    3    0    0  0.48910060961E+02 -0.37546392610E+02  0.25719030676E+02  0.66816122307E+02  0.10000000000E+01 0.  0.
<mgrwt>
<rscale>  0 0.12500099E+03</rscale>
<asrwt>0</asrwt>
<pdfrwt beam="1">  1        4 0.12244222E-01 0.12500099E+03</pdfrwt>
<pdfrwt beam="2">  1       -4 0.75510793E-02 0.12500099E+03</pdfrwt>
<totfact> 0.10372822E+04</totfact>
</mgrwt>
</event>
<event>
 4    1  0.3487578E-002  0.1247268E+03  0.7818608E-02  0.1235497E+00
         -4   -1    0    0    0  501 -0.00000000000E+00  0.00000000000E+00  0.19841960870E+02  0.19882562992E+02  0.12700000000E+01 0.  1.
          4   -1    0    0  501    0  0.00000000000E+00 -0.00000000000E+00 -0.19576553863E+03  0.19576965806E+03  0.12700000000E+01 0.  1.
    9000005    1    1    2    0    0  0.60704127570E+02  0.12851498872E+02 -0.98625883591E+02  0.11652560681E+03  0.10000000000E+01 0.  0.
    9000005    1    1    2    0    0 -0.60704127570E+02 -0.12851498872E+02 -0.77297694172E+02  0.99126614245E+02  0.10000000000E+01 0.  0.
<mgrwt>
<rscale>  0 0.12472680E+03</rscale>
<asrwt>0</asrwt>
<pdfrwt beam="2">  1        4 0.30121214E-01 0.12472680E+03</pdfrwt>
<pdfrwt beam="1">  1       -4 0.30560496E-02 0.12472680E+03</pdfrwt>
<totfact> 0.88097724E+03</totfact>
</mgrwt>
</event>
<event>
 5    1  0.3487578E-002  0.1249998E+03  0.7818608E-02  0.1235070E+00
         -4   -1    0    0    0  501 -0.00000000000E+00  0.00000000000E+00  0.84807841226E+02  0.84817349837E+02  0.12700000000E+01 0.  1.
          4   -1    0    0  501    0  0.00000000000E+00 -0.00000000000E+00 -0.46038984170E+02  0.46056497516E+02  0.12700000000E+01 0.  1.
         25    2    1    2    0    0  0.00000000000E+00  0.00000000000E+00  0.38768857056E+02  0.13087384735E+03  0.12499975857E+03 0.  0.
    9000005    1    3    3    0    0 -0.18136649631E+00 -0.19760184299E+01 -0.46011125419E+02  0.46064750134E+02  0.10000000000E+01 0.  0.
    9000005    1    3    3    0    0  0.18136649631E+00  0.19760184299E+01  0.84779982474E+02  0.84809097218E+02  0.10000000000E+01 0.  0.
<mgrwt>
<rscale>  0 0.12499976E+03</rscale>
<asrwt>0</asrwt>
<pdfrwt beam="2">  1        4 0.70849993E-02 0.12499976E+03</pdfrwt>
<pdfrwt beam="1">  1       -4 0.13049439E-01 0.12499976E+03</pdfrwt>
<totfact> 0.10325851E+04</totfact>
</mgrwt>
</event>
<event>
 5    1  0.3487578E-002  0.1250010E+03  0.7818608E-02  0.1235068E+00
         -4   -1    0    0    0  501 -0.00000000000E+00  0.00000000000E+00  0.34859109926E+03  0.34859341271E+03  0.12700000000E+01 0.  1.
          4   -1    0    0  501    0  0.00000000000E+00 -0.00000000000E+00 -0.11167667931E+02  0.11239648883E+02  0.12700000000E+01 0.  1.
         25    2    1    2    0    0  0.00000000000E+00  0.00000000000E+00  0.33742343133E+03  0.35983306159E+03  0.12500104081E+03 0.  0.
    9000005    1    3    3    0    0  0.37052212991E+02 -0.48437260113E+02  0.20800071894E+03  0.21675869933E+03  0.10000000000E+01 0.  0.
    9000005    1    3    3    0    0 -0.37052212991E+02  0.48437260113E+02  0.12942271239E+03  0.14307436226E+03  0.10000000000E+01 0.  0.
<mgrwt>
<rscale>  0 0.12500104E+03</rscale>
<asrwt>0</asrwt>
<pdfrwt beam="2">  1        4 0.17238181E-02 0.12500104E+03</pdfrwt>
<pdfrwt beam="1">  1       -4 0.53635103E-01 0.12500104E+03</pdfrwt>
<totfact> 0.68654601E+03</totfact>
</mgrwt>
</event>
<event>
 5    1  0.3487578E-002  0.1250012E+03  0.7818608E-02  0.1235067E+00
          4   -1    0    0  501    0  0.00000000000E+00  0.00000000000E+00  0.21578324218E+03  0.21578697946E+03  0.12700000000E+01 0.  1.
         -4   -1    0    0    0  501 -0.00000000000E+00 -0.00000000000E+00 -0.18076828779E+02  0.18121386225E+02  0.12700000000E+01 0.  1.
         25    2    1    2    0    0  0.00000000000E+00  0.00000000000E+00  0.19770641340E+03  0.23390836569E+03  0.12500119055E+03 0.  0.
    9000005    1    3    3    0    0 -0.32563707298E+00  0.60517419213E+02  0.69691703547E+02  0.92305999865E+02  0.10000000000E+01 0.  0.
    9000005    1    3    3    0    0  0.32563707298E+00 -0.60517419213E+02  0.12801470986E+03  0.14160236582E+03  0.10000000000E+01 0.  0.
<mgrwt>
<rscale>  0 0.12500119E+03</rscale>
<asrwt>0</asrwt>
<pdfrwt beam="1">  1        4 0.33201138E-01 0.12500119E+03</pdfrwt>
<pdfrwt beam="2">  1       -4 0.27847655E-02 0.12500119E+03</pdfrwt>
<totfact> 0.84710804E+03</totfact>
</mgrwt>
</event>
<event>
 5    1  0.3487578E-002  0.1250046E+03  0.7818608E-02  0.1235062E+00
          4   -1    0    0  501    0  0.00000000000E+00  0.00000000000E+00  0.51220193695E+02  0.51235936042E+02  0.12700000000E+01 0. -1.
         -4   -1    0    0    0  501 -0.00000000000E+00 -0.00000000000E+00 -0.76236732688E+02  0.76247310188E+02  0.12700000000E+01 0. -1.
         25    2    1    2    0    0  0.00000000000E+00  0.00000000000E+00 -0.25016538993E+02  0.12748324623E+03  0.12500460330E+03 0.  0.
    9000005    1    3    3    0    0 -0.43645347136E+02 -0.25886844964E+02  0.24690908761E+02  0.56441882005E+02  0.10000000000E+01 0.  0.
    9000005    1    3    3    0    0  0.43645347136E+02  0.25886844964E+02 -0.49707447754E+02  0.71041364226E+02  0.10000000000E+01 0.  0.
<mgrwt>
<rscale>  0 0.12500460E+03</rscale>
<asrwt>0</asrwt>
<pdfrwt beam="1">  1        4 0.78820544E-02 0.12500460E+03</pdfrwt>
<pdfrwt beam="2">  1       -4 0.11730753E-01 0.12500460E+03</pdfrwt>
<totfact> 0.10397583E+04</totfact>
</mgrwt>
</event>
<event>
 5    1  0.3487578E-002  0.1249950E+03  0.7818608E-02  0.1235077E+00
          4   -1    0    0  501    0  0.00000000000E+00  0.00000000000E+00  0.36408992246E+02  0.36431135261E+02  0.12700000000E+01 0.  1.
         -4   -1    0    0    0  501 -0.00000000000E+00 -0.00000000000E+00 -0.10722094650E+03  0.10722846762E+03  0.12700000000E+01 0.  1.
         25    2    1    2    0    0  0.00000000000E+00  0.00000000000E+00 -0.70811954256E+02  0.14365960288E+03  0.12499499444E+03 0.  0.
    9000005    1    3    3    0    0 -0.38966067789E+02  0.47144516209E+02 -0.20688481326E+02  0.64575328935E+02  0.10000000000E+01 0.  0.
    9000005    1    3    3    0    0  0.38966067789E+02 -0.47144516209E+02 -0.50123472930E+02  0.79084273949E+02  0.10000000000E+01 0.  0.
<mgrwt>
<rscale>  0 0.12499499E+03</rscale>
<asrwt>0</asrwt>
<pdfrwt beam="1">  1        4 0.56036653E-02 0.12499499E+03</pdfrwt>
<pdfrwt beam="2">  1       -4 0.16497812E-01 0.12499499E+03</pdfrwt>
<totfact> 0.10059428E+04</totfact>
</mgrwt>
</event>
<event>
 5    1  0.3487578E-002  0.1250000E+03  0.7818608E-02  0.1235069E+00
          4   -1    0    0  501    0  0.00000000000E+00  0.00000000000E+00  0.57812664837E+02  0.57826612520E+02  0.12700000000E+01 0.  1.
         -4   -1    0    0    0  501 -0.00000000000E+00 -0.00000000000E+00 -0.67539311609E+02  0.67551251007E+02  0.12700000000E+01 0.  1.
         25    2    1    2    0    0  0.00000000000E+00  0.00000000000E+00 -0.97266467720E+01  0.12537786353E+03  0.12500000402E+03 0.  0.
    9000005    1    3    3    0    0  0.22787931470E+02  0.13738393605E+02  0.51851540343E+02  0.58289068576E+02  0.10000000000E+01 0.  0.
    9000005    1    3    3    0    0 -0.22787931470E+02 -0.13738393605E+02 -0.61578187115E+02  0.67088794951E+02  0.10000000000E+01 0.  0.
<mgrwt>
<rscale>  0 0.12500000E+03</rscale>
<asrwt>0</asrwt>
<pdfrwt beam="1">  1        4 0.88962474E-02 0.12500000E+03</pdfrwt>
<pdfrwt beam="2">  1       -4 0.10392655E-01 0.12500000E+03</pdfrwt>
<totfact> 0.10444657E+04</totfact>
</mgrwt>
</event>
<event>
 5    1  0.3487578E-002  0.1249978E+03  0.7818608E-02  0.1235073E+00
         -4   -1    0    0    0  501 -0.00000000000E+00  0.00000000000E+00  0.33444993890E+02  0.33469097931E+02  0.12700000000E+01 0. -1.
          4   -1    0    0  501    0  0.00000000000E+00 -0.00000000000E+00 -0.11672241894E+03  0.11672932786E+03  0.12700000000E+01 0. -1.
         25    2    1    2    0    0  0.00000000000E+00  0.00000000000E+00 -0.83277425047E+02  0.15019842579E+03  0.12499775033E+03 0.  0.
    9000005    1    3    3    0    0 -0.48116956479E-01  0.12488448613E+02  0.31936130677E+02  0.34305686214E+02  0.10000000000E+01 0.  0.
    9000005    1    3    3    0    0  0.48116956479E-01 -0.12488448613E+02 -0.11521355572E+03  0.11589273958E+03  0.10000000000E+01 0.  0.
<mgrwt>
<rscale>  0 0.12499775E+03</rscale>
<asrwt>0</asrwt>
<pdfrwt beam="2">  1        4 0.17959681E-01 0.12499775E+03</pdfrwt>
<pdfrwt beam="1">  1       -4 0.51477693E-02 0.12499775E+03</pdfrwt>
<totfact> 0.99269185E+03</totfact>
</mgrwt>
</event>
<event>
 5    1  0.3487578E-002  0.1249997E+03  0.7818608E-02  0.1235070E+00
          4   -1    0    0  501    0  0.00000000000E+00  0.00000000000E+00  0.20600017607E+02  0.20639128504E+02  0.12700000000E+01 0.  1.
         -4   -1    0    0    0  501 -0.00000000000E+00 -0.00000000000E+00 -0.18940171849E+03  0.18940597633E+03  0.12700000000E+01 0.  1.
         25    2    1    2    0    0  0.00000000000E+00  0.00000000000E+00 -0.16880170089E+03  0.21004510483E+03  0.12499972737E+03 0.  0.
    9000005    1    3    3    0    0 -0.45521683977E+02 -0.37748537682E+02 -0.11834492678E+03  0.13230154006E+03  0.10000000000E+01 0.  0.
    9000005    1    3    3    0    0  0.45521683977E+02  0.37748537682E+02 -0.50456774110E+02  0.77743564768E+02  0.10000000000E+01 0.  0.
<mgrwt>
<rscale>  0 0.12499973E+03</rscale>
<asrwt>0</asrwt>
<pdfrwt beam="1">  1        4 0.31725697E-02 0.12499973E+03</pdfrwt>
<pdfrwt beam="2">  1       -4 0.29142061E-01 0.12499973E+03</pdfrwt>
<totfact> 0.88469055E+03</totfact>
</mgrwt>
</event>
<event>
 5    1  0.3487578E-002  0.1250020E+03  0.7818608E-02  0.1235066E+00
         -4   -1    0    0    0  501 -0.00000000000E+00  0.00000000000E+00  0.36119381739E+03  0.36119605012E+03  0.12700000000E+01 0. -1.
          4   -1    0    0  501    0  0.00000000000E+00 -0.00000000000E+00 -0.10775619770E+02  0.10850201907E+02  0.12700000000E+01 0. -1.
         25    2    1    2    0    0  0.00000000000E+00  0.00000000000E+00  0.35041819762E+03  0.37204625203E+03  0.12500200167E+03 0.  0.
    9000005    1    3    3    0    0 -0.49128753913E+02  0.24531100844E+02  0.26399962089E+03  0.26965201501E+03  0.10000000000E+01 0.  0.
    9000005    1    3    3    0    0  0.49128753913E+02 -0.24531100844E+02  0.86418576735E+02  0.10239423702E+03  0.10000000000E+01 0.  0.
<mgrwt>
<rscale>  0 0.12500200E+03</rscale>
<asrwt>0</asrwt>
<pdfrwt beam="2">  1        4 0.16636964E-02 0.12500200E+03</pdfrwt>
<pdfrwt beam="1">  1       -4 0.55574191E-01 0.12500200E+03</pdfrwt>
<totfact> 0.67362419E+03</totfact>
</mgrwt>
</event>
<event>
 5    1  0.3487578E-002  0.1249988E+03  0.7818608E-02  0.1235071E+00
          4   -1    0    0  501    0  0.00000000000E+00  0.00000000000E+00  0.30340915959E+01  0.32891658232E+01  0.12700000000E+01 0. -1.
         -4   -1    0    0    0  501 -0.00000000000E+00 -0.00000000000E+00 -0.12352391294E+04  0.12352397822E+04  0.12700000000E+01 0. -1.
         25    2    1    2    0    0  0.00000000000E+00  0.00000000000E+00 -0.12322050378E+04  0.12385289481E+04  0.12499880029E+03 0.  0.
    9000005    1    3    3    0    0 -0.24788973711E+02 -0.39204026443E+01 -0.49045577078E+02  0.55102916488E+02  0.10000000000E+01 0.  0.
    9000005    1    3    3    0    0  0.24788973711E+02  0.39204026443E+01 -0.11831594607E+04  0.11834260316E+04  0.10000000000E+01 0.  0.
<mgrwt>
<rscale>  0 0.12499880E+03</rscale>
<asrwt>0</asrwt>
<pdfrwt beam="1">  1        4 0.48645562E-03 0.12499880E+03</pdfrwt>
<pdfrwt beam="2">  1       -4 0.19005608E+00 0.12499880E+03</pdfrwt>
<totfact> 0.23726626E+03</totfact>
</mgrwt>
</event>
<event>
 5    1  0.3487578E-002  0.1250022E+03  0.7818608E-02  0.1235066E+00
         -4   -1    0    0    0  501 -0.00000000000E+00  0.00000000000E+00  0.76338252500E+02  0.76348815936E+02  0.12700000000E+01 0.  1.
          4   -1    0    0  501    0  0.00000000000E+00 -0.00000000000E+00 -0.51150085608E+02  0.51165849526E+02  0.12700000000E+01 0.  1.
         25    2    1    2    0    0  0.00000000000E+00  0.00000000000E+00  0.25188166892E+02  0.12751466546E+03  0.12500218461E+03 0.  0.
    9000005    1    3    3    0    0  0.59091383238E+01  0.51381767572E+02  0.48375919411E+02  0.70825373514E+02  0.10000000000E+01 0.  0.
    9000005    1    3    3    0    0 -0.59091383238E+01 -0.51381767572E+02 -0.23187752519E+02  0.56689291947E+02  0.10000000000E+01 0.  0.
<mgrwt>
<rscale>  0 0.12500218E+03</rscale>
<asrwt>0</asrwt>
<pdfrwt beam="2">  1        4 0.78712691E-02 0.12500218E+03</pdfrwt>
<pdfrwt beam="1">  1       -4 0.11746372E-01 0.12500218E+03</pdfrwt>
<totfact> 0.10397470E+04</totfact>
</mgrwt>
</event>
<event>
 5    1  0.3487578E-002  0.1249979E+03  0.7818608E-02  0.1235073E+00
         -4   -1    0    0    0  501 -0.00000000000E+00  0.00000000000E+00  0.25839660665E+02  0.25870851614E+02  0.12700000000E+01 0. -1.
          4   -1    0    0  501    0  0.00000000000E+00 -0.00000000000E+00 -0.15104249204E+03  0.15104783117E+03  0.12700000000E+01 0. -1.
         25    2    1    2    0    0  0.00000000000E+00  0.00000000000E+00 -0.12520283137E+03  0.17691868278E+03  0.12499788532E+03 0.  0.
    9000005    1    3    3    0    0  0.42990855202E+01  0.13821042370E+02 -0.14864418142E+03  0.14935058092E+03  0.10000000000E+01 0.  0.
    9000005    1    3    3    0    0 -0.42990855202E+01 -0.13821042370E+02  0.23441350050E+02  0.27568101869E+02  0.10000000000E+01 0.  0.
<mgrwt>
<rscale>  0 0.12499789E+03</rscale>
<asrwt>0</asrwt>
<pdfrwt beam="2">  1        4 0.23240116E-01 0.12499789E+03</pdfrwt>
<pdfrwt beam="1">  1       -4 0.39781425E-02 0.12499789E+03</pdfrwt>
<totfact> 0.94179076E+03</totfact>
</mgrwt>
</event>
<event>
 5    1  0.3487578E-002  0.1249995E+03  0.7818608E-02  0.1235070E+00
         -4   -1    0    0    0  501 -0.00000000000E+00  0.00000000000E+00  0.96366786199E+03  0.96366869884E+03  0.12700000000E+01 0. -1.
          4   -1    0    0  501    0  0.00000000000E+00 -0.00000000000E+00 -0.39531580901E+01  0.41521511154E+01  0.12700000000E+01 0. -1.
         25    2    1    2    0    0  0.00000000000E+00  0.00000000000E+00  0.95971470390E+03  0.96782084996E+03  0.12499953894E+03 0.  0.
    9000005    1    3    3    0    0  0.27378203712E+02  0.56043467925E+02  0.45008624401E+03  0.45438866995E+03  0.10000000000E+01 0.  0.
    9000005    1    3    3    0    0 -0.27378203712E+02 -0.56043467925E+02  0.50962845989E+03  0.51343218000E+03  0.10000000000E+01 0.  0.
<mgrwt>
<rscale>  0 0.12499954E+03</rscale>
<asrwt>0</asrwt>
<pdfrwt beam="2">  1        4 0.62354950E-03 0.12499954E+03</pdfrwt>
<pdfrwt beam="1">  1       -4 0.14827201E+00 0.12499954E+03</pdfrwt>
<totfact> 0.31691899E+03</totfact>
</mgrwt>
</event>
<event>
 5    1  0.3487578E-002  0.1250002E+03  0.7818608E-02  0.1235069E+00
          4   -1    0    0  501    0  0.00000000000E+00  0.00000000000E+00  0.74791367384E+01  0.75861970942E+01  0.12700000000E+01 0.  1.
         -4   -1    0    0    0  501 -0.00000000000E+00 -0.00000000000E+00 -0.51846842215E+03  0.51846997759E+03  0.12700000000E+01 0.  1.
         25    2    1    2    0    0  0.00000000000E+00  0.00000000000E+00 -0.51098928541E+03  0.52605617469E+03  0.12500019649E+03 0.  0.
    9000005    1    3    3    0    0 -0.31795690379E+02  0.32260414287E+02 -0.43668078919E+03  0.43902484201E+03  0.10000000000E+01 0.  0.
    9000005    1    3    3    0    0  0.31795690379E+02 -0.32260414287E+02 -0.74308496220E+02  0.87031332674E+02  0.10000000000E+01 0.  0.
<mgrwt>
<rscale>  0 0.12500020E+03</rscale>
<asrwt>0</asrwt>
<pdfrwt beam="1">  1        4 0.11589919E-02 0.12500020E+03</pdfrwt>
<pdfrwt beam="2">  1       -4 0.79772699E-01 0.12500020E+03</pdfrwt>
<totfact> 0.53897703E+03</totfact>
</mgrwt>
</event>
<event>
 5    1  0.3487578E-002  0.1250011E+03  0.7818608E-02  0.1235068E+00
          4   -1    0    0  501    0  0.00000000000E+00  0.00000000000E+00  0.65540681366E+02  0.65552984783E+02  0.12700000000E+01 0. -1.
         -4   -1    0    0    0  501 -0.00000000000E+00 -0.00000000000E+00 -0.59576739229E+02  0.59590274015E+02  0.12700000000E+01 0. -1.
         25    2    1    2    0    0  0.00000000000E+00  0.00000000000E+00  0.59639421368E+01  0.12514325880E+03  0.12500106646E+03 0.  0.
    9000005    1    3    3    0    0 -0.41409402662E+02 -0.45672317464E+02 -0.72579307361E+01  0.62083627229E+02  0.10000000000E+01 0.  0.
    9000005    1    3    3    0    0  0.41409402662E+02  0.45672317464E+02  0.13221872873E+02  0.63059631569E+02  0.10000000000E+01 0.  0.
<mgrwt>
<rscale>  0 0.12500107E+03</rscale>
<asrwt>0</asrwt>
<pdfrwt beam="1">  1        4 0.10085169E-01 0.12500107E+03</pdfrwt>
<pdfrwt beam="2">  1       -4 0.91676398E-02 0.12500107E+03</pdfrwt>
<totfact> 0.10449500E+04</totfact>
</mgrwt>
</event>
<event>
 5    1  0.3487578E-002  0.1249862E+03  0.7818608E-02  0.1235091E+00
         -4   -1    0    0    0  501 -0.00000000000E+00  0.00000000000E+00  0.10533738815E+02  0.10610021367E+02  0.12700000000E+01 0. -1.
          4   -1    0    0  501    0  0.00000000000E+00 -0.00000000000E+00 -0.36933510682E+03  0.36933729033E+03  0.12700000000E+01 0. -1.
         25    2    1    2    0    0  0.00000000000E+00  0.00000000000E+00 -0.35880136801E+03  0.37994731170E+03  0.12498615117E+03 0.  0.
    9000005    1    3    3    0    0 -0.57383839866E+02 -0.18442370362E+02 -0.22947708535E+03  0.23726305824E+03  0.10000000000E+01 0.  0.
    9000005    1    3    3    0    0  0.57383839866E+02  0.18442370362E+02 -0.12932428266E+03  0.14268425346E+03  0.10000000000E+01 0.  0.
<mgrwt>
<rscale>  0 0.12498615E+03</rscale>
<asrwt>0</asrwt>
<pdfrwt beam="2">  1        4 0.56826812E-01 0.12498615E+03</pdfrwt>
<pdfrwt beam="1">  1       -4 0.16266113E-02 0.12498615E+03</pdfrwt>
<totfact> 0.66571319E+03</totfact>
</mgrwt>
</event>
<event>
 5    1  0.3487578E-002  0.1249884E+03  0.7818608E-02  0.1235087E+00
          4   -1    0    0  501    0  0.00000000000E+00  0.00000000000E+00  0.12483498765E+03  0.12484144761E+03  0.12700000000E+01 0.  1.
         -4   -1    0    0    0  501 -0.00000000000E+00 -0.00000000000E+00 -0.31265355624E+02  0.31291138718E+02  0.12700000000E+01 0.  1.
         25    2    1    2    0    0  0.00000000000E+00  0.00000000000E+00  0.93569632025E+02  0.15613258633E+03  0.12498843337E+03 0.  0.
    9000005    1    3    3    0    0  0.26516395983E+02 -0.56499939288E+02  0.50566484136E+02  0.80332631685E+02  0.10000000000E+01 0.  0.
    9000005    1    3    3    0    0 -0.26516395983E+02  0.56499939288E+02  0.43003147889E+02  0.75799954643E+02  0.10000000000E+01 0.  0.
<mgrwt>
<rscale>  0 0.12498843E+03</rscale>
<asrwt>0</asrwt>
<pdfrwt beam="1">  1        4 0.19207863E-01 0.12498843E+03</pdfrwt>
<pdfrwt beam="2">  1       -4 0.48125349E-02 0.12498843E+03</pdfrwt>
<totfact> 0.98119134E+03</totfact>
</mgrwt>
</event>
<event>
 5    1  0.3487578E-002  0.1249992E+03  0.7818608E-02  0.1235071E+00
          4   -1    0    0  501    0  0.00000000000E+00  0.00000000000E+00  0.11463097508E+02  0.11533234779E+02  0.12700000000E+01 0.  1.
         -4   -1    0    0    0  501 -0.00000000000E+00 -0.00000000000E+00 -0.33965249718E+03  0.33965487151E+03  0.12700000000E+01 0.  1.
         25    2    1    2    0    0  0.00000000000E+00  0.00000000000E+00 -0.32818939967E+03  0.35118810629E+03  0.12499921576E+03 0.  0.
    9000005    1    3    3    0    0 -0.10523486431E+02 -0.46734315100E+02 -0.51350519266E+02  0.70233295547E+02  0.10000000000E+01 0.  0.
    9000005    1    3    3    0    0  0.10523486431E+02  0.46734315100E+02 -0.27683888041E+03  0.28095481074E+03  0.10000000000E+01 0.  0.
<mgrwt>
<rscale>  0 0.12499922E+03</rscale>
<asrwt>0</asrwt>
<pdfrwt beam="1">  1        4 0.17691315E-02 0.12499922E+03</pdfrwt>
<pdfrwt beam="2">  1       -4 0.52259800E-01 0.12499922E+03</pdfrwt>
<totfact> 0.69595258E+03</totfact>
</mgrwt>
</event>
<event>
 5    1  0.3487578E-002  0.1250000E+03  0.7818608E-02  0.1235069E+00
          4   -1    0    0  501    0  0.00000000000E+00  0.00000000000E+00  0.68538670907E+02  0.68550436247E+02  0.12700000000E+01 0. -1.
         -4   -1    0    0    0  501 -0.00000000000E+00 -0.00000000000E+00 -0.56969638128E+02  0.56983792156E+02  0.12700000000E+01 0. -1.
         25    2    1    2    0    0  0.00000000000E+00  0.00000000000E+00  0.11569032778E+02  0.12553422840E+03  0.12499999993E+03 0.  0.
    9000005    1    3    3    0    0  0.34490975278E+01  0.56019650064E+02  0.33382000066E+02  0.65310453953E+02  0.10000000000E+01 0.  0.
    9000005    1    3    3    0    0 -0.34490975278E+01 -0.56019650064E+02 -0.21812967288E+02  0.60223774450E+02  0.10000000000E+01 0.  0.
<mgrwt>
<rscale>  0 0.12500000E+03</rscale>
<asrwt>0</asrwt>
<pdfrwt beam="1">  1        4 0.10546405E-01 0.12500000E+03</pdfrwt>
<pdfrwt beam="2">  1       -4 0.87665536E-02 0.12500000E+03</pdfrwt>
<totfact> 0.10441198E+04</totfact>
</mgrwt>
</event>
<event>
 5    1  0.3487578E-002  0.1250008E+03  0.7818608E-02  0.1235068E+00
          4   -1    0    0  501    0  0.00000000000E+00  0.00000000000E+00  0.13850226673E+02  0.13908331276E+02  0.12700000000E+01 0. -1.
         -4   -1    0    0    0  501 -0.00000000000E+00 -0.00000000000E+00 -0.28138900339E+03  0.28139186933E+03  0.12700000000E+01 0. -1.
         25    2    1    2    0    0  0.00000000000E+00  0.00000000000E+00 -0.26753877672E+03  0.29530020061E+03  0.12500084573E+03 0.  0.
    9000005    1    3    3    0    0  0.59293886133E+02 -0.68874435991E+01 -0.90074765820E+02  0.10806324653E+03  0.10000000000E+01 0.  0.
    9000005    1    3    3    0    0 -0.59293886133E+02  0.68874435991E+01 -0.17746401090E+03  0.18723695409E+03  0.10000000000E+01 0.  0.
<mgrwt>
<rscale>  0 0.12500085E+03</rscale>
<asrwt>0</asrwt>
<pdfrwt beam="1">  1        4 0.21354943E-02 0.12500085E+03</pdfrwt>
<pdfrwt beam="2">  1       -4 0.43295302E-01 0.12500085E+03</pdfrwt>
<totfact> 0.76190751E+03</totfact>
</mgrwt>
</event>
<event>
 5    1  0.3487578E-002  0.1249981E+03  0.7818608E-02  0.1235072E+00
          4   -1    0    0  501    0  0.00000000000E+00  0.00000000000E+00  0.40580557167E+03  0.40580755895E+03  0.12700000000E+01 0. -1.
         -4   -1    0    0    0  501 -0.00000000000E+00 -0.00000000000E+00 -0.95817067188E+01  0.96655058660E+01  0.12700000000E+01 0. -1.
         25    2    1    2    0    0  0.00000000000E+00  0.00000000000E+00  0.39622386495E+03  0.41547306481E+03  0.12499806570E+03 0.  0.
    9000005    1    3    3    0    0 -0.51018754568E+02  0.32114597332E+02  0.25281589355E+03  0.25990601515E+03  0.10000000000E+01 0.  0.
    9000005    1    3    3    0    0  0.51018754568E+02 -0.32114597332E+02  0.14340797140E+03  0.15556704966E+03  0.10000000000E+01 0.  0.
<mgrwt>
<rscale>  0 0.12499807E+03</rscale>
<asrwt>0</asrwt>
<pdfrwt beam="1">  1        4 0.62438227E-01 0.12499807E+03</pdfrwt>
<pdfrwt beam="2">  1       -4 0.14807077E-02 0.12499807E+03</pdfrwt>
<totfact> 0.63077902E+03</totfact>
</mgrwt>
</event>
<event>
 5    1  0.3487578E-002  0.1250000E+03  0.7818608E-02  0.1235069E+00
         -4   -1    0    0    0  501 -0.00000000000E+00  0.00000000000E+00  0.35941273935E+03  0.35941498314E+03  0.12700000000E+01 0.  1.
          4   -1    0    0  501    0  0.00000000000E+00 -0.00000000000E+00 -0.10829044462E+02  0.10903261162E+02  0.12700000000E+01 0.  1.
         25    2    1    2    0    0  0.00000000000E+00  0.00000000000E+00  0.34858369489E+03  0.37031824430E+03  0.12500003889E+03 0.  0.
    9000005    1    3    3    0    0 -0.72928748583E+01 -0.61390092989E+02  0.20133436510E+03  0.21061447271E+03  0.10000000000E+01 0.  0.
    9000005    1    3    3    0    0  0.72928748583E+01  0.61390092989E+02  0.14724932978E+03  0.15970377160E+03  0.10000000000E+01 0.  0.
<mgrwt>
<rscale>  0 0.12500004E+03</rscale>
<asrwt>0</asrwt>
<pdfrwt beam="2">  1        4 0.16718885E-02 0.12500004E+03</pdfrwt>
<pdfrwt beam="1">  1       -4 0.55300148E-01 0.12500004E+03</pdfrwt>
<totfact> 0.67545597E+03</totfact>
</mgrwt>
</event>
<event>
 5    1  0.3487578E-002  0.1249992E+03  0.7818608E-02  0.1235071E+00
         -4   -1    0    0    0  501 -0.00000000000E+00  0.00000000000E+00  0.20451494198E+03  0.20451888518E+03  0.12700000000E+01 0.  1.
          4   -1    0    0  501    0  0.00000000000E+00 -0.00000000000E+00 -0.19074571238E+02  0.19116803287E+02  0.12700000000E+01 0.  1.
         25    2    1    2    0    0  0.00000000000E+00  0.00000000000E+00  0.18544037075E+03  0.22363568847E+03  0.12499916021E+03 0.  0.
    9000005    1    3    3    0    0  0.55843865839E+02  0.17155025911E+02  0.13241901572E+03  0.14473640865E+03  0.10000000000E+01 0.  0.
    9000005    1    3    3    0    0 -0.55843865839E+02 -0.17155025911E+02  0.53021355026E+02  0.78899279811E+02  0.10000000000E+01 0.  0.
<mgrwt>
<rscale>  0 0.12499916E+03</rscale>
<asrwt>0</asrwt>
<pdfrwt beam="2">  1        4 0.29381015E-02 0.12499916E+03</pdfrwt>
<pdfrwt beam="1">  1       -4 0.31467388E-01 0.12499916E+03</pdfrwt>
<totfact> 0.86297918E+03</totfact>
</mgrwt>
</event>
<event>
 5    1  0.3487578E-002  0.1250055E+03  0.7818608E-02  0.1235061E+00
         -4   -1    0    0    0  501 -0.00000000000E+00  0.00000000000E+00  0.11654027151E+03  0.11654719123E+03  0.12700000000E+01 0.  1.
          4   -1    0    0  501    0  0.00000000000E+00 -0.00000000000E+00 -0.33501432713E+02  0.33525496176E+02  0.12700000000E+01 0.  1.
         25    2    1    2    0    0  0.00000000000E+00  0.00000000000E+00  0.83038838793E+02  0.15007268740E+03  0.12500545090E+03 0.  0.
    9000005    1    3    3    0    0 -0.12510195868E+02  0.26160382677E+02  0.10798060963E+03  0.11181092379E+03  0.10000000000E+01 0.  0.
    9000005    1    3    3    0    0  0.12510195868E+02 -0.26160382677E+02 -0.24941770835E+02  0.38261763614E+02  0.10000000000E+01 0.  0.
<mgrwt>
<rscale>  0 0.12500545E+03</rscale>
<asrwt>0</asrwt>
<pdfrwt beam="2">  1        4 0.51564499E-02 0.12500545E+03</pdfrwt>
<pdfrwt beam="1">  1       -4 0.17931656E-01 0.12500545E+03</pdfrwt>
<totfact> 0.99277031E+03</totfact>
</mgrwt>
</event>
<event>
 5    1  0.3487578E-002  0.1250056E+03  0.7818608E-02  0.1235060E+00
          4   -1    0    0  501    0  0.00000000000E+00  0.00000000000E+00  0.66959879894E+02  0.66971922590E+02  0.12700000000E+01 0.  1.
         -4   -1    0    0    0  501 -0.00000000000E+00 -0.00000000000E+00 -0.58318234143E+02  0.58332060940E+02  0.12700000000E+01 0.  1.
         25    2    1    2    0    0  0.00000000000E+00  0.00000000000E+00  0.86416457506E+01  0.12530398353E+03  0.12500564086E+03 0.  0.
    9000005    1    3    3    0    0  0.21256156162E+02  0.57380745829E+02  0.17048701711E+02  0.63529775671E+02  0.10000000000E+01 0.  0.
    9000005    1    3    3    0    0 -0.21256156162E+02 -0.57380745829E+02 -0.84070559603E+01  0.61774207859E+02  0.10000000000E+01 0.  0.
<mgrwt>
<rscale>  0 0.12500564E+03</rscale>
<asrwt>0</asrwt>
<pdfrwt beam="1">  1        4 0.10303510E-01 0.12500564E+03</pdfrwt>
<pdfrwt beam="2">  1       -4 0.89740260E-02 0.12500564E+03</pdfrwt>
<totfact> 0.10444932E+04</totfact>
</mgrwt>
</event>
<event>
 5    1  0.3487578E-002  0.1250013E+03  0.7818608E-02  0.1235067E+00
          4   -1    0    0  501    0  0.00000000000E+00  0.00000000000E+00  0.12503462551E+03  0.12504107515E+03  0.12700000000E+01 0.  1.
         -4   -1    0    0    0  501 -0.00000000000E+00 -0.00000000000E+00 -0.31221845545E+02  0.31247664540E+02  0.12700000000E+01 0.  1.
         25    2    1    2    0    0  0.00000000000E+00  0.00000000000E+00  0.93812779962E+02  0.15628873969E+03  0.12500132988E+03 0.  0.
    9000005    1    3    3    0    0  0.57841647990E+02  0.22485587473E+02  0.56100554047E+02  0.83663194122E+02  0.10000000000E+01 0.  0.
    9000005    1    3    3    0    0 -0.57841647990E+02 -0.22485587473E+02  0.37712225915E+02  0.72625545573E+02  0.10000000000E+01 0.  0.
<mgrwt>
<rscale>  0 0.12500133E+03</rscale>
<asrwt>0</asrwt>
<pdfrwt beam="1">  1        4 0.19238578E-01 0.12500133E+03</pdfrwt>
<pdfrwt beam="2">  1       -4 0.48058431E-02 0.12500133E+03</pdfrwt>
<totfact> 0.98060163E+03</totfact>
</mgrwt>
</event>
<event>
 5    1  0.3487578E-002  0.1250060E+03  0.7818608E-02  0.1235060E+00
          4   -1    0    0  501    0  0.00000000000E+00  0.00000000000E+00  0.12207653406E+02  0.12273536641E+02  0.12700000000E+01 0.  1.
         -4   -1    0    0    0  501 -0.00000000000E+00 -0.00000000000E+00 -0.31908602387E+03  0.31908855124E+03  0.12700000000E+01 0.  1.
         25    2    1    2    0    0  0.00000000000E+00  0.00000000000E+00 -0.30687837046E+03  0.33136208788E+03  0.12500599595E+03 0.  0.
    9000005    1    3    3    0    0  0.32715106776E+02  0.48039141607E+02 -0.21432542988E+03  0.22206851923E+03  0.10000000000E+01 0.  0.
    9000005    1    3    3    0    0 -0.32715106776E+02 -0.48039141607E+02 -0.92552940583E+02  0.10929356865E+03  0.10000000000E+01 0.  0.
<mgrwt>
<rscale>  0 0.12500600E+03</rscale>
<asrwt>0</asrwt>
<pdfrwt beam="1">  1        4 0.18833631E-02 0.12500600E+03</pdfrwt>
<pdfrwt beam="2">  1       -4 0.49095414E-01 0.12500600E+03</pdfrwt>
<totfact> 0.71815290E+03</totfact>
</mgrwt>
</event>
<event>
 5    1  0.3487578E-002  0.1249997E+03  0.7818608E-02  0.1235070E+00
         -4   -1    0    0    0  501 -0.00000000000E+00  0.00000000000E+00  0.18531062895E+01  0.22465313086E+01  0.12700000000E+01 0.  1.
          4   -1    0    0  501    0  0.00000000000E+00 -0.00000000000E+00 -0.19052537580E+04  0.19052541813E+04  0.12700000000E+01 0.  1.
         25    2    1    2    0    0  0.00000000000E+00  0.00000000000E+00 -0.19034006517E+04  0.19075007126E+04  0.12499971033E+03 0.  0.
    9000005    1    3    3    0    0 -0.30569438883E+02  0.44600583966E+02 -0.47361290497E+03  0.47669055628E+03  0.10000000000E+01 0.  0.
    9000005    1    3    3    0    0  0.30569438883E+02 -0.44600583966E+02 -0.14297877467E+04  0.14308101563E+04  0.10000000000E+01 0.  0.
<mgrwt>
<rscale>  0 0.12499971E+03</rscale>
<asrwt>0</asrwt>
<pdfrwt beam="2">  1        4 0.29314484E+00 0.12499971E+03</pdfrwt>
<pdfrwt beam="1">  1       -4 0.31539082E-03 0.12499971E+03</pdfrwt>
<totfact> 0.11117468E+03</totfact>
</mgrwt>
</event>
<event>
 5    1  0.3487578E-002  0.1249470E+03  0.7818608E-02  0.1235152E+00
          4   -1    0    0  501    0  0.00000000000E+00  0.00000000000E+00  0.48425608499E+02  0.48442259015E+02  0.12700000000E+01 0.  1.
         -4   -1    0    0    0  501 -0.00000000000E+00 -0.00000000000E+00 -0.80561068103E+02  0.80571077899E+02  0.12700000000E+01 0.  1.
         25    2    1    2    0    0  0.00000000000E+00  0.00000000000E+00 -0.32135459604E+02  0.12901333691E+03  0.12494700212E+03 0.  0.
    9000005    1    3    3    0    0 -0.10055958819E+01  0.59090904637E+02 -0.36954552897E+02  0.69709290728E+02  0.10000000000E+01 0.  0.
    9000005    1    3    3    0    0  0.10055958819E+01 -0.59090904637E+02  0.48190932930E+01  0.59304046187E+02  0.10000000000E+01 0.  0.
<mgrwt>
<rscale>  0 0.12494700E+03</rscale>
<asrwt>0</asrwt>
<pdfrwt beam="1">  1        4 0.74521444E-02 0.12494700E+03</pdfrwt>
<pdfrwt beam="2">  1       -4 0.12396061E-01 0.12494700E+03</pdfrwt>
<totfact> 0.10378071E+04</totfact>
</mgrwt>
</event>
<event>
 5    1  0.3487578E-002  0.1249957E+03  0.7818608E-02  0.1235076E+00
         -4   -1    0    0    0  501 -0.00000000000E+00  0.00000000000E+00  0.60061789425E+02  0.60075214930E+02  0.12700000000E+01 0. -1.
          4   -1    0    0  501    0  0.00000000000E+00 -0.00000000000E+00 -0.65005782113E+02  0.65018186749E+02  0.12700000000E+01 0. -1.
         25    2    1    2    0    0  0.00000000000E+00  0.00000000000E+00 -0.49439926877E+01  0.12509340168E+03  0.12499566424E+03 0.  0.
    9000005    1    3    3    0    0 -0.45476511300E+02 -0.42613170809E+02  0.21123729277E+01  0.62365515518E+02  0.10000000000E+01 0.  0.
    9000005    1    3    3    0    0  0.45476511300E+02  0.42613170809E+02 -0.70563656154E+01  0.62727886161E+02  0.10000000000E+01 0.  0.
<mgrwt>
<rscale>  0 0.12499566E+03</rscale>
<asrwt>0</asrwt>
<pdfrwt beam="2">  1        4 0.10002877E-01 0.12499566E+03</pdfrwt>
<pdfrwt beam="1">  1       -4 0.92422622E-02 0.12499566E+03</pdfrwt>
<totfact> 0.10451858E+04</totfact>
</mgrwt>
</event>
<event>
 5    1  0.3487578E-002  0.1249997E+03  0.7818608E-02  0.1235070E+00
          4   -1    0    0  501    0  0.00000000000E+00  0.00000000000E+00  0.79521963845E+02  0.79532104422E+02  0.12700000000E+01 0.  1.
         -4   -1    0    0    0  501 -0.00000000000E+00 -0.00000000000E+00 -0.49099892626E+02  0.49116314559E+02  0.12700000000E+01 0.  1.
         25    2    1    2    0    0  0.00000000000E+00  0.00000000000E+00  0.30422071219E+02  0.12864841898E+03  0.12499965316E+03 0.  0.
    9000005    1    3    3    0    0  0.14909260120E+02  0.58192775933E+01 -0.46959876099E+02  0.49622373908E+02  0.10000000000E+01 0.  0.
    9000005    1    3    3    0    0 -0.14909260120E+02 -0.58192775933E+01  0.77381947318E+02  0.79026045072E+02  0.10000000000E+01 0.  0.
<mgrwt>
<rscale>  0 0.12499965E+03</rscale>
<asrwt>0</asrwt>
<pdfrwt beam="1">  1        4 0.12236191E-01 0.12499965E+03</pdfrwt>
<pdfrwt beam="2">  1       -4 0.75558730E-02 0.12499965E+03</pdfrwt>
<totfact> 0.10373589E+04</totfact>
</mgrwt>
</event>
<event>
 5    1  0.3487578E-002  0.1249950E+03  0.7818608E-02  0.1235077E+00
          4   -1    0    0  501    0  0.00000000000E+00  0.00000000000E+00  0.30810211184E+03  0.30810472930E+03  0.12700000000E+01 0. -1.
         -4   -1    0    0    0  501 -0.00000000000E+00 -0.00000000000E+00 -0.12642919718E+02  0.12706546304E+02  0.12700000000E+01 0. -1.
         25    2    1    2    0    0  0.00000000000E+00  0.00000000000E+00  0.29545919212E+03  0.32081127561E+03  0.12499496129E+03 0.  0.
    9000005    1    3    3    0    0  0.20009634530E+02 -0.58898626237E+02  0.13243703915E+03  0.14632157389E+03  0.10000000000E+01 0.  0.
    9000005    1    3    3    0    0 -0.20009634530E+02  0.58898626237E+02  0.16302215296E+03  0.17448970171E+03  0.10000000000E+01 0.  0.
<mgrwt>
<rscale>  0 0.12499496E+03</rscale>
<asrwt>0</asrwt>
<pdfrwt beam="1">  1        4 0.47405420E-01 0.12499496E+03</pdfrwt>
<pdfrwt beam="2">  1       -4 0.19501603E-02 0.12499496E+03</pdfrwt>
<totfact> 0.73067898E+03</totfact>
</mgrwt>
</event>
<event>
 5    1  0.3487578E-002  0.1249999E+03  0.7818608E-02  0.1235069E+00
         -4   -1    0    0    0  501 -0.00000000000E+00  0.00000000000E+00  0.41111697356E+01  0.43028614427E+01  0.12700000000E+01 0.  1.
          4   -1    0    0  501    0  0.00000000000E+00 -0.00000000000E+00 -0.92831564552E+03  0.92831651424E+03  0.12700000000E+01 0.  1.
         25    2    1    2    0    0  0.00000000000E+00  0.00000000000E+00 -0.92420447578E+03  0.93261937568E+03  0.12499994738E+03 0.  0.
    9000005    1    3    3    0    0 -0.62136076263E+02  0.52707978313E+01 -0.49247615332E+03  0.49640954350E+03  0.10000000000E+01 0.  0.
    9000005    1    3    3    0    0  0.62136076263E+02 -0.52707978313E+01 -0.43172832246E+03  0.43620983218E+03  0.10000000000E+01 0.  0.
<mgrwt>
<rscale>  0 0.12499995E+03</rscale>
<asrwt>0</asrwt>
<pdfrwt beam="2">  1        4 0.14283244E+00 0.12499995E+03</pdfrwt>
<pdfrwt beam="1">  1       -4 0.64730073E-03 0.12499995E+03</pdfrwt>
<totfact> 0.32941277E+03</totfact>
</mgrwt>
</event>
<event>
 5    1  0.3487578E-002  0.1250006E+03  0.7818608E-02  0.1235068E+00
          4   -1    0    0  501    0  0.00000000000E+00  0.00000000000E+00  0.26784332768E+02  0.26814424883E+02  0.12700000000E+01 0.  1.
         -4   -1    0    0    0  501 -0.00000000000E+00 -0.00000000000E+00 -0.14572749397E+03  0.14573302782E+03  0.12700000000E+01 0.  1.
         25    2    1    2    0    0  0.00000000000E+00  0.00000000000E+00 -0.11894316120E+03  0.17254745270E+03  0.12500059135E+03 0.  0.
    9000005    1    3    3    0    0  0.47622330677E+02  0.24208229682E+02 -0.14713375383E+02  0.55420286706E+02  0.10000000000E+01 0.  0.
    9000005    1    3    3    0    0 -0.47622330677E+02 -0.24208229682E+02 -0.10422978582E+03  0.11712716600E+03  0.10000000000E+01 0.  0.
<mgrwt>
<rscale>  0 0.12500059E+03</rscale>
<asrwt>0</asrwt>
<pdfrwt beam="1">  1        4 0.41234071E-02 0.12500059E+03</pdfrwt>
<pdfrwt beam="2">  1       -4 0.22422354E-01 0.12500059E+03</pdfrwt>
<totfact> 0.94974688E+03</totfact>
</mgrwt>
</event>
<event>
 5    1  0.3487578E-002  0.1249990E+03  0.7818608E-02  0.1235071E+00
         -4   -1    0    0    0  501 -0.00000000000E+00  0.00000000000E+00  0.22517137676E+03  0.22517495823E+03  0.12700000000E+01 0.  1.
          4   -1    0    0  501    0  0.00000000000E+00 -0.00000000000E+00 -0.17320648766E+02  0.17367146388E+02  0.12700000000E+01 0.  1.
         25    2    1    2    0    0  0.00000000000E+00  0.00000000000E+00  0.20785072800E+03  0.24254210462E+03  0.12499898953E+03 0.  0.
    9000005    1    3    3    0    0 -0.42367187454E+02 -0.45921008598E+02  0.10627730998E+03  0.12328659384E+03  0.10000000000E+01 0.  0.
    9000005    1    3    3    0    0  0.42367187454E+02  0.45921008598E+02  0.10157341801E+03  0.11925551077E+03  0.10000000000E+01 0.  0.
<mgrwt>
<rscale>  0 0.12499899E+03</rscale>
<asrwt>0</asrwt>
<pdfrwt beam="2">  1        4 0.26685676E-02 0.12499899E+03</pdfrwt>
<pdfrwt beam="1">  1       -4 0.34645600E-01 0.12499899E+03</pdfrwt>
<totfact> 0.83422097E+03</totfact>
</mgrwt>
</event>
<event>
 5    1  0.3487578E-002  0.1249974E+03  0.7818608E-02  0.1235073E+00
          4   -1    0    0  501    0  0.00000000000E+00  0.00000000000E+00  0.61786640054E+02  0.61799690850E+02  0.12700000000E+01 0.  1.
         -4   -1    0    0    0  501 -0.00000000000E+00 -0.00000000000E+00 -0.63192894057E+02  0.63205654488E+02  0.12700000000E+01 0.  1.
         25    2    1    2    0    0  0.00000000000E+00  0.00000000000E+00 -0.14062540035E+01  0.12500534534E+03  0.12499743522E+03 0.  0.
    9000005    1    3    3    0    0  0.12948998199E+02 -0.49083531899E+02 -0.37150186635E+02  0.62912685724E+02  0.10000000000E+01 0.  0.
    9000005    1    3    3    0    0 -0.12948998199E+02  0.49083531899E+02  0.35743932631E+02  0.62092659614E+02  0.10000000000E+01 0.  0.
<mgrwt>
<rscale>  0 0.12499744E+03</rscale>
<asrwt>0</asrwt>
<pdfrwt beam="1">  1        4 0.95076223E-02 0.12499744E+03</pdfrwt>
<pdfrwt beam="2">  1       -4 0.97239692E-02 0.12499744E+03</pdfrwt>
<totfact> 0.10453352E+04</totfact>
</mgrwt>
</event>
<event>
 5    1  0.3487578E-002  0.1250038E+03  0.7818608E-02  0.1235063E+00
         -4   -1    0    0    0  501 -0.00000000000E+00  0.00000000000E+00  0.10952766723E+03  0.10953502996E+03  0.12700000000E+01 0. -1.
          4   -1    0    0  501    0  0.00000000000E+00 -0.00000000000E+00 -0.35646820803E+02  0.35669436964E+02  0.12700000000E+01 0. -1.
         25    2    1    2    0    0  0.00000000000E+00  0.00000000000E+00  0.73880846425E+02  0.14520446692E+03  0.12500383093E+03 0.  0.
    9000005    1    3    3    0    0 -0.11568312795E+02  0.50149312822E+02 -0.42384244495E+01  0.51650205026E+02  0.10000000000E+01 0.  0.
    9000005    1    3    3    0    0  0.11568312795E+02 -0.50149312822E+02  0.78119270875E+02  0.93554261899E+02  0.10000000000E+01 0.  0.
<mgrwt>
<rscale>  0 0.12500383E+03</rscale>
<asrwt>0</asrwt>
<pdfrwt beam="2">  1        4 0.54864324E-02 0.12500383E+03</pdfrwt>
<pdfrwt beam="1">  1       -4 0.16852716E-01 0.12500383E+03</pdfrwt>
<totfact> 0.10025971E+04</totfact>
</mgrwt>
</event>
<event>
 5    1  0.3487578E-002  0.1250305E+03  0.7818608E-02  0.1235022E+00
         -4   -1    0    0    0  501 -0.00000000000E+00  0.00000000000E+00  0.38974822423E+01  0.40991789214E+01  0.12700000000E+01 0.  1.
          4   -1    0    0  501    0  0.00000000000E+00 -0.00000000000E+00 -0.97724563910E+03  0.97724646432E+03  0.12700000000E+01 0.  1.
         25    2    1    2    0    0  0.00000000000E+00  0.00000000000E+00 -0.97334815685E+03  0.98134564325E+03  0.12503054453E+03 0.  0.
    9000005    1    3    3    0    0 -0.13892077940E+02  0.59022370704E+02 -0.36750355656E+03  0.37247348114E+03  0.10000000000E+01 0.  0.
    9000005    1    3    3    0    0  0.13892077940E+02 -0.59022370704E+02 -0.60584460030E+03  0.60887216210E+03  0.10000000000E+01 0.  0.
<mgrwt>
<rscale>  0 0.12503054E+03</rscale>
<asrwt>0</asrwt>
<pdfrwt beam="2">  1        4 0.15036087E+00 0.12503054E+03</pdfrwt>
<pdfrwt beam="1">  1       -4 0.61519204E-03 0.12503054E+03</pdfrwt>
<totfact> 0.31207798E+03</totfact>
</mgrwt>
</event>
<event>
 5    1  0.3487578E-002  0.1249969E+03  0.7818608E-02  0.1235074E+00
          4   -1    0    0  501    0  0.00000000000E+00  0.00000000000E+00  0.19185650059E+03  0.19186070394E+03  0.12700000000E+01 0. -1.
         -4   -1    0    0    0  501 -0.00000000000E+00 -0.00000000000E+00 -0.20335033108E+02  0.20374652672E+02  0.12700000000E+01 0. -1.
         25    2    1    2    0    0  0.00000000000E+00  0.00000000000E+00  0.17152146748E+03  0.21223535662E+03  0.12499693113E+03 0.  0.
    9000005    1    3    3    0    0  0.80673876942E+01  0.50608734384E+02  0.25044047693E+02  0.57048497482E+02  0.10000000000E+01 0.  0.
    9000005    1    3    3    0    0 -0.80673876942E+01 -0.50608734384E+02  0.14647741979E+03  0.15518685913E+03  0.10000000000E+01 0.  0.
<mgrwt>
<rscale>  0 0.12499693E+03</rscale>
<asrwt>0</asrwt>
<pdfrwt beam="1">  1        4 0.29519754E-01 0.12499693E+03</pdfrwt>
<pdfrwt beam="2">  1       -4 0.31318378E-02 0.12499693E+03</pdfrwt>
<totfact> 0.88118159E+03</totfact>
</mgrwt>
</event>
<event>
 5    1  0.3487578E-002  0.1249988E+03  0.7818608E-02  0.1235071E+00
         -4   -1    0    0    0  501 -0.00000000000E+00  0.00000000000E+00  0.33377087328E+02  0.33401240373E+02  0.12700000000E+01 0. -1.
          4   -1    0    0  501    0  0.00000000000E+00 -0.00000000000E+00 -0.11696169322E+03  0.11696858801E+03  0.12700000000E+01 0. -1.
         25    2    1    2    0    0  0.00000000000E+00  0.00000000000E+00 -0.83584605893E+02  0.15036982838E+03  0.12499879578E+03 0.  0.
    9000005    1    3    3    0    0  0.40226060778E+01 -0.62208079514E+02 -0.36528264182E+02  0.72258844446E+02  0.10000000000E+01 0.  0.
    9000005    1    3    3    0    0 -0.40226060778E+01  0.62208079514E+02 -0.47056341710E+02  0.78110983937E+02  0.10000000000E+01 0.  0.
<mgrwt>
<rscale>  0 0.12499880E+03</rscale>
<asrwt>0</asrwt>
<pdfrwt beam="2">  1        4 0.17996495E-01 0.12499880E+03</pdfrwt>
<pdfrwt beam="1">  1       -4 0.51373249E-02 0.12499880E+03</pdfrwt>
<totfact> 0.99232719E+03</totfact>
</mgrwt>
</event>
<event>
 5    1  0.3487578E-002  0.1250046E+03  0.7818608E-02  0.1235062E+00
          4   -1    0    0  501    0  0.00000000000E+00  0.00000000000E+00  0.19207334793E+02  0.19249275567E+02  0.12700000000E+01 0. -1.
         -4   -1    0    0    0  501 -0.00000000000E+00 -0.00000000000E+00 -0.20312202607E+03  0.20312599631E+03  0.12700000000E+01 0. -1.
         25    2    1    2    0    0  0.00000000000E+00  0.00000000000E+00 -0.18391469128E+03  0.22237527187E+03  0.12500459141E+03 0.  0.
    9000005    1    3    3    0    0 -0.38340019287E+02 -0.28622611028E+02 -0.16347693468E+03  0.17033766206E+03  0.10000000000E+01 0.  0.
    9000005    1    3    3    0    0  0.38340019287E+02  0.28622611028E+02 -0.20437756595E+02  0.52037609818E+02  0.10000000000E+01 0.  0.
<mgrwt>
<rscale>  0 0.12500459E+03</rscale>
<asrwt>0</asrwt>
<pdfrwt beam="1">  1        4 0.29585063E-02 0.12500459E+03</pdfrwt>
<pdfrwt beam="2">  1       -4 0.31253073E-01 0.12500459E+03</pdfrwt>
<totfact> 0.86485017E+03</totfact>
</mgrwt>
</event>
<event>
 5    1  0.3487578E-002  0.1250031E+03  0.7818608E-02  0.1235064E+00
         -4   -1    0    0    0  501 -0.00000000000E+00  0.00000000000E+00  0.66539232795E+01  0.67740383088E+01  0.12700000000E+01 0.  1.
          4   -1    0    0  501    0  0.00000000000E+00 -0.00000000000E+00 -0.58171602968E+03  0.58171741600E+03  0.12700000000E+01 0.  1.
         25    2    1    2    0    0  0.00000000000E+00  0.00000000000E+00 -0.57506210640E+03  0.58849145431E+03  0.12500306230E+03 0.  0.
    9000005    1    3    3    0    0 -0.61132122328E+02 -0.77767413182E+01 -0.23864512170E+03  0.24647537036E+03  0.10000000000E+01 0.  0.
    9000005    1    3    3    0    0  0.61132122328E+02  0.77767413182E+01 -0.33641698470E+03  0.34201608395E+03  0.10000000000E+01 0.  0.
<mgrwt>
<rscale>  0 0.12500306E+03</rscale>
<asrwt>0</asrwt>
<pdfrwt beam="2">  1        4 0.89504080E-01 0.12500306E+03</pdfrwt>
<pdfrwt beam="1">  1       -4 0.10330272E-02 0.12500306E+03</pdfrwt>
<totfact> 0.49598900E+03</totfact>
</mgrwt>
</event>
<event>
 5    1  0.3487578E-002  0.1249985E+03  0.7818608E-02  0.1235072E+00
         -4   -1    0    0    0  501 -0.00000000000E+00  0.00000000000E+00  0.31084899957E+03  0.31085159391E+03  0.12700000000E+01 0. -1.
          4   -1    0    0  501    0  0.00000000000E+00 -0.00000000000E+00 -0.12531343381E+02  0.12595533611E+02  0.12700000000E+01 0. -1.
         25    2    1    2    0    0  0.00000000000E+00  0.00000000000E+00  0.29831765619E+03  0.32344712752E+03  0.12499848121E+03 0.  0.
    9000005    1    3    3    0    0  0.61478962197E+02 -0.93192445966E+01  0.13307314922E+03  0.14688762425E+03  0.10000000000E+01 0.  0.
    9000005    1    3    3    0    0 -0.61478962197E+02  0.93192445966E+01  0.16524450697E+03  0.17655950327E+03  0.10000000000E+01 0.  0.
<mgrwt>
<rscale>  0 0.12499848E+03</rscale>
<asrwt>0</asrwt>
<pdfrwt beam="2">  1        4 0.19330363E-02 0.12499848E+03</pdfrwt>
<pdfrwt beam="1">  1       -4 0.47828060E-01 0.12499848E+03</pdfrwt>
<totfact> 0.72750449E+03</totfact>
</mgrwt>
</event>
<event>
 5    1  0.3487578E-002  0.1250001E+03  0.7818608E-02  0.1235069E+00
         -4   -1    0    0    0  501 -0.00000000000E+00  0.00000000000E+00  0.74564673447E+03  0.74564781601E+03  0.12700000000E+01 0.  1.
          4   -1    0    0  501    0  0.00000000000E+00 -0.00000000000E+00 -0.51606773243E+01  0.53146486663E+01  0.12700000000E+01 0.  1.
         25    2    1    2    0    0  0.00000000000E+00  0.00000000000E+00  0.74048605715E+03  0.75096246468E+03  0.12500009012E+03 0.  0.
    9000005    1    3    3    0    0 -0.55883838359E+02  0.27632130527E+02  0.34425142655E+03  0.34985222982E+03  0.10000000000E+01 0.  0.
    9000005    1    3    3    0    0  0.55883838359E+02 -0.27632130527E+02  0.39623463060E+03  0.40111023486E+03  0.10000000000E+01 0.  0.
<mgrwt>
<rscale>  0 0.12500009E+03</rscale>
<asrwt>0</asrwt>
<pdfrwt beam="2">  1        4 0.80587752E-03 0.12500009E+03</pdfrwt>
<pdfrwt beam="1">  1       -4 0.11472681E+00 0.12500009E+03</pdfrwt>
<totfact> 0.40528063E+03</totfact>
</mgrwt>
</event>
<event>
 5    1  0.3487578E-002  0.1250012E+03  0.7818608E-02  0.1235067E+00
         -4   -1    0    0    0  501 -0.00000000000E+00  0.00000000000E+00  0.35591681487E+03  0.35591908070E+03  0.12700000000E+01 0.  1.
          4   -1    0    0  501    0  0.00000000000E+00 -0.00000000000E+00 -0.10936331216E+02  0.11009824724E+02  0.12700000000E+01 0.  1.
         25    2    1    2    0    0  0.00000000000E+00  0.00000000000E+00  0.34498048365E+03  0.36692890542E+03  0.12500115013E+03 0.  0.
    9000005    1    3    3    0    0  0.10820172955E+02 -0.43709837580E+02  0.29968831671E+03  0.30305397740E+03  0.10000000000E+01 0.  0.
    9000005    1    3    3    0    0 -0.10820172955E+02  0.43709837580E+02  0.45292166943E+02  0.63874928027E+02  0.10000000000E+01 0.  0.
<mgrwt>
<rscale>  0 0.12500115E+03</rscale>
<asrwt>0</asrwt>
<pdfrwt beam="2">  1        4 0.16883404E-02 0.12500115E+03</pdfrwt>
<pdfrwt beam="1">  1       -4 0.54762253E-01 0.12500115E+03</pdfrwt>
<totfact> 0.67899736E+03</totfact>
</mgrwt>
</event>
<event>
 4    1  0.3487578E-002  0.1251065E+03  0.7818608E-02  0.1234903E+00
         -4   -1    0    0    0  501 -0.00000000000E+00  0.00000000000E+00  0.68149086839E+02  0.68160919426E+02  0.12700000000E+01 0. -1.
          4   -1    0    0  501    0  0.00000000000E+00 -0.00000000000E+00 -0.57393067881E+02  0.57407117510E+02  0.12700000000E+01 0. -1.
    9000005    1    1    2    0    0 -0.50001842636E+02  0.19606085525E+02  0.37548194556E+02  0.65539680888E+02  0.10000000000E+01 0.  0.
    9000005    1    1    2    0    0  0.50001842636E+02 -0.19606085525E+02 -0.26792175598E+02  0.60028356048E+02  0.10000000000E+01 0.  0.
<mgrwt>
<rscale>  0 0.12510651E+03</rscale>
<asrwt>0</asrwt>
<pdfrwt beam="2">  1        4 0.88316937E-02 0.12510651E+03</pdfrwt>
<pdfrwt beam="1">  1       -4 0.10486466E-01 0.12510651E+03</pdfrwt>
<totfact> 0.10415409E+04</totfact>
</mgrwt>
</event>
<event>
 5    1  0.3487578E-002  0.1250006E+03  0.7818608E-02  0.1235068E+00
         -4   -1    0    0    0  501 -0.00000000000E+00  0.00000000000E+00  0.39534876249E+02  0.39555269434E+02  0.12700000000E+01 0. -1.
          4   -1    0    0  501    0  0.00000000000E+00 -0.00000000000E+00 -0.98756137748E+02  0.98764303485E+02  0.12700000000E+01 0. -1.
         25    2    1    2    0    0  0.00000000000E+00  0.00000000000E+00 -0.59221261499E+02  0.13831957292E+03  0.12500058575E+03 0.  0.
    9000005    1    3    3    0    0  0.26810629438E+02 -0.16838451462E+02 -0.89230479331E+02  0.94685910990E+02  0.10000000000E+01 0.  0.
    9000005    1    3    3    0    0 -0.26810629438E+02  0.16838451462E+02  0.30009217831E+02  0.43633661929E+02  0.10000000000E+01 0.  0.
<mgrwt>
<rscale>  0 0.12500059E+03</rscale>
<asrwt>0</asrwt>
<pdfrwt beam="2">  1        4 0.15195449E-01 0.12500059E+03</pdfrwt>
<pdfrwt beam="1">  1       -4 0.60844855E-02 0.12500059E+03</pdfrwt>
<totfact> 0.10168399E+04</totfact>
</mgrwt>
</event>
<event>
 5    1  0.3487578E-002  0.1249931E+03  0.7818608E-02  0.1235080E+00
         -4   -1    0    0    0  501 -0.00000000000E+00  0.00000000000E+00  0.71878021906E+01  0.72991369579E+01  0.12700000000E+01 0. -1.
          4   -1    0    0  501    0  0.00000000000E+00 -0.00000000000E+00 -0.53910737623E+03  0.53910887212E+03  0.12700000000E+01 0. -1.
         25    2    1    2    0    0  0.00000000000E+00  0.00000000000E+00 -0.53191957404E+03  0.54640800908E+03  0.12499311639E+03 0.  0.
    9000005    1    3    3    0    0 -0.46007584667E+02  0.39106738786E+02 -0.19563629248E+03  0.20474519238E+03  0.10000000000E+01 0.  0.
    9000005    1    3    3    0    0  0.46007584667E+02 -0.39106738786E+02 -0.33628328156E+03  0.34166281671E+03  0.10000000000E+01 0.  0.
<mgrwt>
<rscale>  0 0.12499312E+03</rscale>
<asrwt>0</asrwt>
<pdfrwt beam="2">  1        4 0.82948244E-01 0.12499312E+03</pdfrwt>
<pdfrwt beam="1">  1       -4 0.11144954E-02 0.12499312E+03</pdfrwt>
<totfact> 0.52443221E+03</totfact>
</mgrwt>
</event>
<event>
 5    1  0.3487578E-002  0.1249902E+03  0.7818608E-02  0.1235085E+00
         -4   -1    0    0    0  501 -0.00000000000E+00  0.00000000000E+00  0.22381219769E+02  0.22417223252E+02  0.12700000000E+01 0. -1.
          4   -1    0    0  501    0  0.00000000000E+00 -0.00000000000E+00 -0.17432658582E+03  0.17433121185E+03  0.12700000000E+01 0. -1.
         25    2    1    2    0    0  0.00000000000E+00  0.00000000000E+00 -0.15194536605E+03  0.19674843510E+03  0.12499020941E+03 0.  0.
    9000005    1    3    3    0    0  0.49087735969E+02  0.28298008583E+02 -0.34496880395E+02  0.66343182538E+02  0.10000000000E+01 0.  0.
    9000005    1    3    3    0    0 -0.49087735969E+02 -0.28298008583E+02 -0.11744848566E+03  0.13040525256E+03  0.10000000000E+01 0.  0.
<mgrwt>
<rscale>  0 0.12499021E+03</rscale>
<asrwt>0</asrwt>
<pdfrwt beam="2">  1        4 0.26822599E-01 0.12499021E+03</pdfrwt>
<pdfrwt beam="1">  1       -4 0.34463900E-02 0.12499021E+03</pdfrwt>
<totfact> 0.90706065E+03</totfact>
</mgrwt>
</event>
<event>
 5    1  0.3487578E-002  0.1249974E+03  0.7818608E-02  0.1235073E+00
         -4   -1    0    0    0  501 -0.00000000000E+00  0.00000000000E+00  0.10402366697E+02  0.10479605569E+02  0.12700000000E+01 0. -1.
          4   -1    0    0  501    0  0.00000000000E+00 -0.00000000000E+00 -0.37403264563E+03  0.37403480172E+03  0.12700000000E+01 0. -1.
         25    2    1    2    0    0  0.00000000000E+00  0.00000000000E+00 -0.36363027894E+03  0.38451440729E+03  0.12499739859E+03 0.  0.
    9000005    1    3    3    0    0  0.33306998916E+02 -0.52844618234E+02 -0.17633163031E+03  0.18707152028E+03  0.10000000000E+01 0.  0.
    9000005    1    3    3    0    0 -0.33306998916E+02  0.52844618234E+02 -0.18729864863E+03  0.19744288701E+03  0.10000000000E+01 0.  0.
<mgrwt>
<rscale>  0 0.12499740E+03</rscale>
<asrwt>0</asrwt>
<pdfrwt beam="2">  1        4 0.57549581E-01 0.12499740E+03</pdfrwt>
<pdfrwt beam="1">  1       -4 0.16064717E-02 0.12499740E+03</pdfrwt>
<totfact> 0.66091093E+03</totfact>
</mgrwt>
</event>
<event>
 5    1  0.3487578E-002  0.1249901E+03  0.7818608E-02  0.1235085E+00
         -4   -1    0    0    0  501 -0.00000000000E+00  0.00000000000E+00  0.17348915885E+03  0.17349380720E+03  0.12700000000E+01 0.  1.
          4   -1    0    0  501    0  0.00000000000E+00 -0.00000000000E+00 -0.22489397000E+02  0.22525227577E+02  0.12700000000E+01 0.  1.
         25    2    1    2    0    0  0.00000000000E+00  0.00000000000E+00  0.15099976185E+03  0.19601903478E+03  0.12499013528E+03 0.  0.
    9000005    1    3    3    0    0  0.59927396837E+02  0.17796392815E+00  0.10325920491E+03  0.11939341674E+03  0.10000000000E+01 0.  0.
    9000005    1    3    3    0    0 -0.59927396837E+02 -0.17796392815E+00  0.47740556938E+02  0.76625618037E+02  0.10000000000E+01 0.  0.
<mgrwt>
<rscale>  0 0.12499014E+03</rscale>
<asrwt>0</asrwt>
<pdfrwt beam="2">  1        4 0.34630209E-02 0.12499014E+03</pdfrwt>
<pdfrwt beam="1">  1       -4 0.26693754E-01 0.12499014E+03</pdfrwt>
<totfact> 0.90830498E+03</totfact>
</mgrwt>
</event>
<event>
 5    1  0.3487578E-002  0.1250079E+03  0.7818608E-02  0.1235057E+00
          4   -1    0    0  501    0  0.00000000000E+00  0.00000000000E+00  0.25067292432E+03  0.25067614144E+03  0.12700000000E+01 0.  1.
         -4   -1    0    0    0  501 -0.00000000000E+00 -0.00000000000E+00 -0.15555840258E+02  0.15607596424E+02  0.12700000000E+01 0.  1.
         25    2    1    2    0    0  0.00000000000E+00  0.00000000000E+00  0.23511708406E+03  0.26628373786E+03  0.12500794308E+03 0.  0.
    9000005    1    3    3    0    0 -0.23911738646E+02  0.41885705033E+01 -0.51126327208E+01  0.24828499376E+02  0.10000000000E+01 0.  0.
    9000005    1    3    3    0    0  0.23911738646E+02 -0.41885705033E+01  0.24022971678E+03  0.24145523848E+03  0.10000000000E+01 0.  0.
<mgrwt>
<rscale>  0 0.12500794E+03</rscale>
<asrwt>0</asrwt>
<pdfrwt beam="1">  1        4 0.38569294E-01 0.12500794E+03</pdfrwt>
<pdfrwt beam="2">  1       -4 0.23974349E-02 0.12500794E+03</pdfrwt>
<totfact> 0.80018092E+03</totfact>
</mgrwt>
</event>
<event>
 5    1  0.3487578E-002  0.1249982E+03  0.7818608E-02  0.1235072E+00
         -4   -1    0    0    0  501 -0.00000000000E+00  0.00000000000E+00  0.81716270271E+03  0.81716368960E+03  0.12700000000E+01 0.  1.
          4   -1    0    0  501    0  0.00000000000E+00 -0.00000000000E+00 -0.46947583972E+01  0.48635024836E+01  0.12700000000E+01 0.  1.
         25    2    1    2    0    0  0.00000000000E+00  0.00000000000E+00  0.81246794431E+03  0.82202719208E+03  0.12499817594E+03 0.  0.
    9000005    1    3    3    0    0  0.57949843772E+02 -0.14961086302E+02  0.52444629435E+03  0.52785124245E+03  0.10000000000E+01 0.  0.
    9000005    1    3    3    0    0 -0.57949843772E+02  0.14961086302E+02  0.28802164996E+03  0.29417594963E+03  0.10000000000E+01 0.  0.
<mgrwt>
<rscale>  0 0.12499818E+03</rscale>
<asrwt>0</asrwt>
<pdfrwt beam="2">  1        4 0.73532700E-03 0.12499818E+03</pdfrwt>
<pdfrwt beam="1">  1       -4 0.12573035E+00 0.12499818E+03</pdfrwt>
<totfact> 0.37301587E+03</totfact>
</mgrwt>
</event>
<event>
 5    1  0.3487578E-002  0.1250019E+03  0.7818608E-02  0.1235066E+00
         -4   -1    0    0    0  501 -0.00000000000E+00  0.00000000000E+00  0.93996809760E+02  0.94005388915E+02  0.12700000000E+01 0. -1.
          4   -1    0    0  501    0  0.00000000000E+00 -0.00000000000E+00 -0.41538323433E+02  0.41557733500E+02  0.12700000000E+01 0. -1.
         25    2    1    2    0    0  0.00000000000E+00  0.00000000000E+00  0.52458486327E+02  0.13556312241E+03  0.12500186947E+03 0.  0.
    9000005    1    3    3    0    0 -0.48815826181E+02  0.30501857371E+02 -0.15792293217E+00  0.57570592566E+02  0.10000000000E+01 0.  0.
    9000005    1    3    3    0    0  0.48815826181E+02 -0.30501857371E+02  0.52616409259E+02  0.77992529848E+02  0.10000000000E+01 0.  0.
<mgrwt>
<rscale>  0 0.12500187E+03</rscale>
<asrwt>0</asrwt>
<pdfrwt beam="2">  1        4 0.63926644E-02 0.12500187E+03</pdfrwt>
<pdfrwt beam="1">  1       -4 0.14463200E-01 0.12500187E+03</pdfrwt>
<totfact> 0.10225784E+04</totfact>
</mgrwt>
</event>
<event>
 5    1  0.3487578E-002  0.1250080E+03  0.7818608E-02  0.1235057E+00
          4   -1    0    0  501    0  0.00000000000E+00  0.00000000000E+00  0.19785919049E+03  0.19786326633E+03  0.12700000000E+01 0. -1.
         -4   -1    0    0    0  501 -0.00000000000E+00 -0.00000000000E+00 -0.19720382644E+02  0.19761234568E+02  0.12700000000E+01 0. -1.
         25    2    1    2    0    0  0.00000000000E+00  0.00000000000E+00  0.17813880785E+03  0.21762450090E+03  0.12500795386E+03 0.  0.
    9000005    1    3    3    0    0 -0.68297554575E+01  0.57800625482E+02  0.12869851657E+03  0.14125107445E+03  0.10000000000E+01 0.  0.
    9000005    1    3    3    0    0  0.68297554575E+01 -0.57800625482E+02  0.49440291279E+02  0.76373426448E+02  0.10000000000E+01 0.  0.
<mgrwt>
<rscale>  0 0.12500795E+03</rscale>
<asrwt>0</asrwt>
<pdfrwt beam="1">  1        4 0.30443331E-01 0.12500795E+03</pdfrwt>
<pdfrwt beam="2">  1       -4 0.30373610E-02 0.12500795E+03</pdfrwt>
<totfact> 0.87230140E+03</totfact>
</mgrwt>
</event>
<event>
 5    1  0.3487578E-002  0.1250013E+03  0.7818608E-02  0.1235067E+00
          4   -1    0    0  501    0  0.00000000000E+00  0.00000000000E+00  0.28298659737E+03  0.28298944714E+03  0.12700000000E+01 0.  1.
         -4   -1    0    0    0  501 -0.00000000000E+00 -0.00000000000E+00 -0.13771799674E+02  0.13830233774E+02  0.12700000000E+01 0.  1.
         25    2    1    2    0    0  0.00000000000E+00  0.00000000000E+00  0.26921479770E+03  0.29681968091E+03  0.12500126271E+03 0.  0.
    9000005    1    3    3    0    0 -0.32080395716E+02 -0.32194919189E+02  0.23645424505E+03  0.24078470593E+03  0.10000000000E+01 0.  0.
    9000005    1    3    3    0    0  0.32080395716E+02  0.32194919189E+02  0.32760552650E+02  0.56034974979E+02  0.10000000000E+01 0.  0.
<mgrwt>
<rscale>  0 0.12500126E+03</rscale>
<asrwt>0</asrwt>
<pdfrwt beam="1">  1        4 0.43541113E-01 0.12500126E+03</pdfrwt>
<pdfrwt beam="2">  1       -4 0.21234526E-02 0.12500126E+03</pdfrwt>
<totfact> 0.75997380E+03</totfact>
</mgrwt>
</event>
<event>
 5    1  0.3487578E-002  0.1250002E+03  0.7818608E-02  0.1235069E+00
         -4   -1    0    0    0  501 -0.00000000000E+00  0.00000000000E+00  0.19855467443E+02  0.19896042003E+02  0.12700000000E+01 0.  1.
          4   -1    0    0  501    0  0.00000000000E+00 -0.00000000000E+00 -0.19649155110E+03  0.19649565531E+03  0.12700000000E+01 0.  1.
         25    2    1    2    0    0  0.00000000000E+00  0.00000000000E+00 -0.17663608366E+03  0.21639169731E+03  0.12500024246E+03 0.  0.
    9000005    1    3    3    0    0  0.57407281946E+02 -0.19058208435E+02 -0.11549479181E+03  0.13037966967E+03  0.10000000000E+01 0.  0.
    9000005    1    3    3    0    0 -0.57407281946E+02  0.19058208435E+02 -0.61141291852E+02  0.86012027639E+02  0.10000000000E+01 0.  0.
<mgrwt>
<rscale>  0 0.12500024E+03</rscale>
<asrwt>0</asrwt>
<pdfrwt beam="2">  1        4 0.30232905E-01 0.12500024E+03</pdfrwt>
<pdfrwt beam="1">  1       -4 0.30581243E-02 0.12500024E+03</pdfrwt>
<totfact> 0.87442083E+03</totfact>
</mgrwt>
</event>
<event>
 5    1  0.3487578E-002  0.1250013E+03  0.7818608E-02  0.1235067E+00
          4   -1    0    0  501    0  0.00000000000E+00  0.00000000000E+00  0.49641066781E+01  0.51239882037E+01  0.12700000000E+01 0. -1.
         -4   -1    0    0    0  501 -0.00000000000E+00 -0.00000000000E+00 -0.77428303208E+03  0.77428407362E+03  0.12700000000E+01 0. -1.
         25    2    1    2    0    0  0.00000000000E+00  0.00000000000E+00 -0.76931892540E+03  0.77940806182E+03  0.12500127143E+03 0.  0.
    9000005    1    3    3    0    0  0.51872764033E+02  0.30358447888E+02 -0.27794632188E+03  0.28437225050E+03  0.10000000000E+01 0.  0.
    9000005    1    3    3    0    0 -0.51872764033E+02 -0.30358447888E+02 -0.49137260352E+03  0.49503581132E+03  0.10000000000E+01 0.  0.
<mgrwt>
<rscale>  0 0.12500127E+03</rscale>
<asrwt>0</asrwt>
<pdfrwt beam="1">  1        4 0.77608803E-03 0.12500127E+03</pdfrwt>
<pdfrwt beam="2">  1       -4 0.11913275E+00 0.12500127E+03</pdfrwt>
<totfact> 0.39199632E+03</totfact>
</mgrwt>
</event>
<event>
 5    1  0.3487578E-002  0.1249968E+03  0.7818608E-02  0.1235074E+00
         -4   -1    0    0    0  501 -0.00000000000E+00  0.00000000000E+00  0.11729058166E+03  0.11729745712E+03  0.12700000000E+01 0. -1.
          4   -1    0    0  501    0  0.00000000000E+00 -0.00000000000E+00 -0.33282357068E+02  0.33306578809E+02  0.12700000000E+01 0. -1.
         25    2    1    2    0    0  0.00000000000E+00  0.00000000000E+00  0.84008224594E+02  0.15060403593E+03  0.12499677531E+03 0.  0.
    9000005    1    3    3    0    0 -0.53440161765E+02  0.26176934394E+02  0.64990356472E+02  0.88123942366E+02  0.10000000000E+01 0.  0.
    9000005    1    3    3    0    0  0.53440161765E+02 -0.26176934394E+02  0.19017868122E+02  0.62480093563E+02  0.10000000000E+01 0.  0.
<mgrwt>
<rscale>  0 0.12499678E+03</rscale>
<asrwt>0</asrwt>
<pdfrwt beam="2">  1        4 0.51227547E-02 0.12499678E+03</pdfrwt>
<pdfrwt beam="1">  1       -4 0.18047097E-01 0.12499678E+03</pdfrwt>
<totfact> 0.99190627E+03</totfact>
</mgrwt>
</event>
<event>
 5    1  0.3487578E-002  0.1249979E+03  0.7818608E-02  0.1235073E+00
          4   -1    0    0  501    0  0.00000000000E+00  0.00000000000E+00  0.38178192225E+03  0.38178403457E+03  0.12700000000E+01 0.  1.
         -4   -1    0    0    0  501 -0.00000000000E+00 -0.00000000000E+00 -0.10189726625E+02  0.10268565075E+02  0.12700000000E+01 0.  1.
         25    2    1    2    0    0  0.00000000000E+00  0.00000000000E+00  0.37159219562E+03  0.39205259965E+03  0.12499792416E+03 0.  0.
    9000005    1    3    3    0    0  0.45452743708E+01  0.60797630751E+02  0.22881369378E+03  0.23679889756E+03  0.10000000000E+01 0.  0.
    9000005    1    3    3    0    0 -0.45452743708E+01 -0.60797630751E+02  0.14277850185E+03  0.15525370209E+03  0.10000000000E+01 0.  0.
<mgrwt>
<rscale>  0 0.12499792E+03</rscale>
<asrwt>0</asrwt>
<pdfrwt beam="1">  1        4 0.58741899E-01 0.12499792E+03</pdfrwt>
<pdfrwt beam="2">  1       -4 0.15738774E-02 0.12499792E+03</pdfrwt>
<totfact> 0.65336152E+03</totfact>
</mgrwt>
</event>
<event>
 4    1  0.3487578E-002  0.1249030E+03  0.7818608E-02  0.1235221E+00
         -4   -1    0    0    0  501 -0.00000000000E+00  0.00000000000E+00  0.25737299854E+02  0.25768614704E+02  0.12700000000E+01 0.  1.
          4   -1    0    0  501    0  0.00000000000E+00 -0.00000000000E+00 -0.15141231467E+03  0.15141764076E+03  0.12700000000E+01 0.  1.
    9000005    1    1    2    0    0  0.54203947161E+02 -0.19450973710E+02 -0.28591487863E+02  0.64303043819E+02  0.10000000000E+01 0.  0.
    9000005    1    1    2    0    0 -0.54203947161E+02  0.19450973710E+02 -0.97083526956E+02  0.11288321165E+03  0.10000000000E+01 0.  0.
<mgrwt>
<rscale>  0 0.12490300E+03</rscale>
<asrwt>0</asrwt>
<pdfrwt beam="2">  1        4 0.23297020E-01 0.12490300E+03</pdfrwt>
<pdfrwt beam="1">  1       -4 0.39624032E-02 0.12490300E+03</pdfrwt>
<totfact> 0.94331018E+03</totfact>
</mgrwt>
</event>
<event>
 5    1  0.3487578E-002  0.1250024E+03  0.7818608E-02  0.1235066E+00
          4   -1    0    0  501    0  0.00000000000E+00  0.00000000000E+00  0.53409215176E+02  0.53424312496E+02  0.12700000000E+01 0.  1.
         -4   -1    0    0    0  501 -0.00000000000E+00 -0.00000000000E+00 -0.73110007410E+02  0.73121037216E+02  0.12700000000E+01 0.  1.
         25    2    1    2    0    0  0.00000000000E+00  0.00000000000E+00 -0.19700792234E+02  0.12654534971E+03  0.12500241725E+03 0.  0.
    9000005    1    3    3    0    0 -0.52567459296E+02 -0.24170017313E+01 -0.43974343405E+02  0.68585148189E+02  0.10000000000E+01 0.  0.
    9000005    1    3    3    0    0  0.52567459296E+02  0.24170017313E+01  0.24273551171E+02  0.57960201523E+02  0.10000000000E+01 0.  0.
<mgrwt>
<rscale>  0 0.12500242E+03</rscale>
<asrwt>0</asrwt>
<pdfrwt beam="1">  1        4 0.82188121E-02 0.12500242E+03</pdfrwt>
<pdfrwt beam="2">  1       -4 0.11249703E-01 0.12500242E+03</pdfrwt>
<totfact> 0.10418471E+04</totfact>
</mgrwt>
</event>
<event>
 5    1  0.3487578E-002  0.1249991E+03  0.7818608E-02  0.1235071E+00
          4   -1    0    0  501    0  0.00000000000E+00  0.00000000000E+00  0.11940916751E+02  0.12008263524E+02  0.12700000000E+01 0.  1.
         -4   -1    0    0    0  501 -0.00000000000E+00 -0.00000000000E+00 -0.32613815090E+03  0.32614062362E+03  0.12700000000E+01 0.  1.
         25    2    1    2    0    0  0.00000000000E+00  0.00000000000E+00 -0.31419723415E+03  0.33814888714E+03  0.12499907171E+03 0.  0.
    9000005    1    3    3    0    0 -0.56793092851E+02 -0.25553146835E+02 -0.14310107090E+03  0.15606836707E+03  0.10000000000E+01 0.  0.
    9000005    1    3    3    0    0  0.56793092851E+02  0.25553146835E+02 -0.17109616326E+03  0.18208052007E+03  0.10000000000E+01 0.  0.
<mgrwt>
<rscale>  0 0.12499907E+03</rscale>
<asrwt>0</asrwt>
<pdfrwt beam="1">  1        4 0.18424351E-02 0.12499907E+03</pdfrwt>
<pdfrwt beam="2">  1       -4 0.50180464E-01 0.12499907E+03</pdfrwt>
<totfact> 0.71049770E+03</totfact>
</mgrwt>
</event>
<event>
 4    1  0.3487578E-002  0.1252369E+03  0.7818608E-02  0.1234700E+00
         -4   -1    0    0    0  501 -0.00000000000E+00  0.00000000000E+00  0.70111759091E+02  0.70123260498E+02  0.12700000000E+01 0.  1.
          4   -1    0    0  501    0  0.00000000000E+00 -0.00000000000E+00 -0.55902673016E+02  0.55917097120E+02  0.12700000000E+01 0.  1.
    9000005    1    1    2    0    0 -0.83427879931E+01 -0.56473597243E+02  0.32983308298E+02  0.65937606291E+02  0.10000000000E+01 0.  0.
    9000005    1    1    2    0    0  0.83427879931E+01  0.56473597243E+02 -0.18774222222E+02  0.60102751328E+02  0.10000000000E+01 0.  0.
<mgrwt>
<rscale>  0 0.12523687E+03</rscale>
<asrwt>0</asrwt>
<pdfrwt beam="2">  1        4 0.86024055E-02 0.12523687E+03</pdfrwt>
<pdfrwt beam="1">  1       -4 0.10788419E-01 0.12523687E+03</pdfrwt>
<totfact> 0.10374519E+04</totfact>
</mgrwt>
</event>
<event>
 5    1  0.3487578E-002  0.1250012E+03  0.7818608E-02  0.1235067E+00
         -4   -1    0    0    0  501 -0.00000000000E+00  0.00000000000E+00  0.15960108980E+03  0.15960614263E+03  0.12700000000E+01 0. -1.
          4   -1    0    0  501    0  0.00000000000E+00 -0.00000000000E+00 -0.24453616876E+02  0.24486573429E+02  0.12700000000E+01 0. -1.
         25    2    1    2    0    0  0.00000000000E+00  0.00000000000E+00  0.13514747292E+03  0.18409271606E+03  0.12500115467E+03 0.  0.
    9000005    1    3    3    0    0 -0.56821533397E+02 -0.25550303049E+02  0.74761121026E+02  0.97322812642E+02  0.10000000000E+01 0.  0.
    9000005    1    3    3    0    0  0.56821533397E+02  0.25550303049E+02  0.60386351897E+02  0.86769903417E+02  0.10000000000E+01 0.  0.
<mgrwt>
<rscale>  0 0.12500115E+03</rscale>
<asrwt>0</asrwt>
<pdfrwt beam="2">  1        4 0.37650186E-02 0.12500115E+03</pdfrwt>
<pdfrwt beam="1">  1       -4 0.24556938E-01 0.12500115E+03</pdfrwt>
<totfact> 0.92883041E+03</totfact>
</mgrwt>
</event>
<event>
 5    1  0.3487578E-002  0.1249992E+03  0.7818608E-02  0.1235071E+00
         -4   -1    0    0    0  501 -0.00000000000E+00  0.00000000000E+00  0.57935315416E+02  0.57949233579E+02  0.12700000000E+01 0. -1.
          4   -1    0    0  501    0  0.00000000000E+00 -0.00000000000E+00 -0.67395482833E+02  0.67407447706E+02  0.12700000000E+01 0. -1.
         25    2    1    2    0    0  0.00000000000E+00  0.00000000000E+00 -0.94601674171E+01  0.12535668129E+03  0.12499921110E+03 0.  0.
    9000005    1    3    3    0    0  0.14964506422E+02  0.33287574535E+02 -0.55601885782E+02  0.66517432101E+02  0.10000000000E+01 0.  0.
    9000005    1    3    3    0    0 -0.14964506422E+02 -0.33287574535E+02  0.46141718365E+02  0.58839249184E+02  0.10000000000E+01 0.  0.
<mgrwt>
<rscale>  0 0.12499921E+03</rscale>
<asrwt>0</asrwt>
<pdfrwt beam="2">  1        4 0.10370527E-01 0.12499921E+03</pdfrwt>
<pdfrwt beam="1">  1       -4 0.89151164E-02 0.12499921E+03</pdfrwt>
<totfact> 0.10445306E+04</totfact>
</mgrwt>
</event>
<event>
 4    1  0.3487578E-002  0.1247928E+03  0.7818608E-02  0.1235393E+00
         -4   -1    0    0    0  501 -0.00000000000E+00  0.00000000000E+00  0.60875900654E+02  0.60889146655E+02  0.12700000000E+01 0.  1.
          4   -1    0    0  501    0  0.00000000000E+00 -0.00000000000E+00 -0.63928392770E+02  0.63941006422E+02  0.12700000000E+01 0.  1.
    9000005    1    1    2    0    0  0.12380503454E+02 -0.50640165187E+02 -0.35809068908E+02  0.63253400004E+02  0.10000000000E+01 0.  0.
    9000005    1    1    2    0    0 -0.12380503454E+02  0.50640165187E+02  0.32756576791E+02  0.61576753073E+02  0.10000000000E+01 0.  0.
<mgrwt>
<rscale>  0 0.12479283E+03</rscale>
<asrwt>0</asrwt>
<pdfrwt beam="2">  1        4 0.98371266E-02 0.12479283E+03</pdfrwt>
<pdfrwt beam="1">  1       -4 0.93675123E-02 0.12479283E+03</pdfrwt>
<totfact> 0.10505665E+04</totfact>
</mgrwt>
</event>
<event>
 5    1  0.3487578E-002  0.1249983E+03  0.7818608E-02  0.1235072E+00
         -4   -1    0    0    0  501 -0.00000000000E+00  0.00000000000E+00  0.75564087305E+02  0.75574758950E+02  0.12700000000E+01 0.  1.
          4   -1    0    0  501    0  0.00000000000E+00 -0.00000000000E+00 -0.51671013915E+02  0.51686618955E+02  0.12700000000E+01 0.  1.
         25    2    1    2    0    0  0.00000000000E+00  0.00000000000E+00  0.23893073391E+02  0.12726137790E+03  0.12499831739E+03 0.  0.
    9000005    1    3    3    0    0  0.42507297216E+02  0.24135568733E+00  0.58582137828E+02  0.72386431337E+02  0.10000000000E+01 0.  0.
    9000005    1    3    3    0    0 -0.42507297216E+02 -0.24135568733E+00 -0.34689064438E+02  0.54874946567E+02  0.10000000000E+01 0.  0.
<mgrwt>
<rscale>  0 0.12499832E+03</rscale>
<asrwt>0</asrwt>
<pdfrwt beam="2">  1        4 0.79514080E-02 0.12499832E+03</pdfrwt>
<pdfrwt beam="1">  1       -4 0.11627265E-01 0.12499832E+03</pdfrwt>
<totfact> 0.10403867E+04</totfact>
</mgrwt>
</event>
<event>
 5    1  0.3487578E-002  0.1249847E+03  0.7818608E-02  0.1235093E+00
         -4   -1    0    0    0  501 -0.00000000000E+00  0.00000000000E+00  0.19889870299E+02  0.19930374821E+02  0.12700000000E+01 0. -1.
          4   -1    0    0  501    0  0.00000000000E+00 -0.00000000000E+00 -0.19610363870E+03  0.19610775103E+03  0.12700000000E+01 0. -1.
         25    2    1    2    0    0  0.00000000000E+00  0.00000000000E+00 -0.17621376841E+03  0.21603812585E+03  0.12498471764E+03 0.  0.
    9000005    1    3    3    0    0  0.41292564671E+02 -0.32330043068E+01 -0.16897423646E+03  0.17397936889E+03  0.10000000000E+01 0.  0.
    9000005    1    3    3    0    0 -0.41292564671E+02  0.32330043068E+01 -0.72395319498E+01  0.42058756957E+02  0.10000000000E+01 0.  0.
<mgrwt>
<rscale>  0 0.12498472E+03</rscale>
<asrwt>0</asrwt>
<pdfrwt beam="2">  1        4 0.30173221E-01 0.12498472E+03</pdfrwt>
<pdfrwt beam="1">  1       -4 0.30634122E-02 0.12498472E+03</pdfrwt>
<totfact> 0.87529059E+03</totfact>
</mgrwt>
</event>
<event>
 5    1  0.3487578E-002  0.1249949E+03  0.7818608E-02  0.1235077E+00
         -4   -1    0    0    0  501 -0.00000000000E+00  0.00000000000E+00  0.11860393087E+02  0.11928194506E+02  0.12700000000E+01 0. -1.
          4   -1    0    0  501    0  0.00000000000E+00 -0.00000000000E+00 -0.32831788561E+03  0.32832034191E+03  0.12700000000E+01 0. -1.
         25    2    1    2    0    0  0.00000000000E+00  0.00000000000E+00 -0.31645749252E+03  0.34024853642E+03  0.12499488773E+03 0.  0.
    9000005    1    3    3    0    0  0.52758088782E+02  0.32983314408E+02 -0.14244631213E+03  0.15544538205E+03  0.10000000000E+01 0.  0.
    9000005    1    3    3    0    0 -0.52758088782E+02 -0.32983314408E+02 -0.17401118040E+03  0.18480315437E+03  0.10000000000E+01 0.  0.
<mgrwt>
<rscale>  0 0.12499489E+03</rscale>
<asrwt>0</asrwt>
<pdfrwt beam="2">  1        4 0.50515841E-01 0.12499489E+03</pdfrwt>
<pdfrwt beam="1">  1       -4 0.18300806E-02 0.12499489E+03</pdfrwt>
<totfact> 0.70818848E+03</totfact>
</mgrwt>
</event>
<event>
 5    1  0.3487578E-002  0.1250011E+03  0.7818608E-02  0.1235067E+00
         -4   -1    0    0    0  501 -0.00000000000E+00  0.00000000000E+00  0.46006162647E+03  0.46006337939E+03  0.12700000000E+01 0.  1.
          4   -1    0    0  501    0  0.00000000000E+00 -0.00000000000E+00 -0.84415974969E+01  0.85365958262E+01  0.12700000000E+01 0.  1.
         25    2    1    2    0    0  0.00000000000E+00  0.00000000000E+00  0.45162002897E+03  0.46859997521E+03  0.12500114478E+03 0.  0.
    9000005    1    3    3    0    0 -0.55040972665E+02  0.29297054370E+02  0.24149020142E+03  0.24941199539E+03  0.10000000000E+01 0.  0.
    9000005    1    3    3    0    0  0.55040972665E+02 -0.29297054370E+02  0.21012982756E+03  0.21918797982E+03  0.10000000000E+01 0.  0.
<mgrwt>
<rscale>  0 0.12500114E+03</rscale>
<asrwt>0</asrwt>
<pdfrwt beam="2">  1        4 0.13061495E-02 0.12500114E+03</pdfrwt>
<pdfrwt beam="1">  1       -4 0.70786163E-01 0.12500114E+03</pdfrwt>
<totfact> 0.58384199E+03</totfact>
</mgrwt>
</event>
<event>
 5    1  0.3487578E-002  0.1249995E+03  0.7818608E-02  0.1235070E+00
          4   -1    0    0  501    0  0.00000000000E+00  0.00000000000E+00  0.15315708666E+02  0.15368273551E+02  0.12700000000E+01 0.  1.
         -4   -1    0    0    0  501 -0.00000000000E+00 -0.00000000000E+00 -0.25455537457E+03  0.25455854262E+03  0.12700000000E+01 0.  1.
         25    2    1    2    0    0  0.00000000000E+00  0.00000000000E+00 -0.23923966591E+03  0.26992681618E+03  0.12499947339E+03 0.  0.
    9000005    1    3    3    0    0  0.55732730193E+02 -0.14614870640E+02 -0.67368678030E+02  0.88652526406E+02  0.10000000000E+01 0.  0.
    9000005    1    3    3    0    0 -0.55732730193E+02  0.14614870640E+02 -0.17187098788E+03  0.18127428977E+03  0.10000000000E+01 0.  0.
<mgrwt>
<rscale>  0 0.12499947E+03</rscale>
<asrwt>0</asrwt>
<pdfrwt beam="1">  1        4 0.23605502E-02 0.12499947E+03</pdfrwt>
<pdfrwt beam="2">  1       -4 0.39166649E-01 0.12499947E+03</pdfrwt>
<totfact> 0.79533778E+03</totfact>
</mgrwt>
</event>
<event>
 5    1  0.3487578E-002  0.1249954E+03  0.7818608E-02  0.1235076E+00
         -4   -1    0    0    0  501 -0.00000000000E+00  0.00000000000E+00  0.12146487495E+01  0.17573478838E+01  0.12700000000E+01 0. -1.
          4   -1    0    0  501    0  0.00000000000E+00 -0.00000000000E+00 -0.26279676056E+04  0.26279679125E+04  0.12700000000E+01 0. -1.
         25    2    1    2    0    0  0.00000000000E+00  0.00000000000E+00 -0.26267529568E+04  0.26297252603E+04  0.12499539444E+03 0.  0.
    9000005    1    3    3    0    0 -0.51881481705E+02  0.33546829370E+02 -0.11161469666E+04  0.11178560413E+04  0.10000000000E+01 0.  0.
    9000005    1    3    3    0    0  0.51881481705E+02 -0.33546829370E+02 -0.15106059902E+04  0.15118692191E+04  0.10000000000E+01 0.  0.
<mgrwt>
<rscale>  0 0.12499539E+03</rscale>
<asrwt>0</asrwt>
<pdfrwt beam="2">  1        4 0.40434076E+00 0.12499539E+03</pdfrwt>
<pdfrwt beam="1">  1       -4 0.22864083E-03 0.12499539E+03</pdfrwt>
<totfact> 0.37290204E+02</totfact>
</mgrwt>
</event>
<event>
 5    1  0.3487578E-002  0.1250001E+03  0.7818608E-02  0.1235069E+00
          4   -1    0    0  501    0  0.00000000000E+00  0.00000000000E+00  0.36362171072E+03  0.36362392854E+03  0.12700000000E+01 0.  1.
         -4   -1    0    0    0  501 -0.00000000000E+00 -0.00000000000E+00 -0.10702847878E+02  0.10777933601E+02  0.12700000000E+01 0.  1.
         25    2    1    2    0    0  0.00000000000E+00  0.00000000000E+00  0.35291886284E+03  0.37440186214E+03  0.12500012250E+03 0.  0.
    9000005    1    3    3    0    0 -0.61687841838E+02 -0.15568795356E+01  0.14689258502E+03  0.15933061613E+03  0.10000000000E+01 0.  0.
    9000005    1    3    3    0    0  0.61687841838E+02  0.15568795356E+01  0.20602627782E+03  0.21507124600E+03  0.10000000000E+01 0.  0.
<mgrwt>
<rscale>  0 0.12500012E+03</rscale>
<asrwt>0</asrwt>
<pdfrwt beam="1">  1        4 0.55947756E-01 0.12500012E+03</pdfrwt>
<pdfrwt beam="2">  1       -4 0.16525382E-02 0.12500012E+03</pdfrwt>
<totfact> 0.67120732E+03</totfact>
</mgrwt>
</event>
<event>
 5    1  0.3487578E-002  0.1249956E+03  0.7818608E-02  0.1235076E+00
         -4   -1    0    0    0  501 -0.00000000000E+00  0.00000000000E+00  0.72562726458E+03  0.72562837596E+03  0.12700000000E+01 0. -1.
          4   -1    0    0  501    0  0.00000000000E+00 -0.00000000000E+00 -0.53068529005E+01  0.54567011744E+01  0.12700000000E+01 0. -1.
         25    2    1    2    0    0  0.00000000000E+00  0.00000000000E+00  0.72032041168E+03  0.73108507714E+03  0.12499557804E+03 0.  0.
    9000005    1    3    3    0    0 -0.58527578237E+02 -0.18323649750E+02  0.43028348362E+03  0.43463330502E+03  0.10000000000E+01 0.  0.
    9000005    1    3    3    0    0  0.58527578237E+02  0.18323649750E+02  0.29003692806E+03  0.29645177212E+03  0.10000000000E+01 0.  0.
<mgrwt>
<rscale>  0 0.12499558E+03</rscale>
<asrwt>0</asrwt>
<pdfrwt beam="2">  1        4 0.82805149E-03 0.12499558E+03</pdfrwt>
<pdfrwt beam="1">  1       -4 0.11164654E+00 0.12499558E+03</pdfrwt>
<totfact> 0.41499613E+03</totfact>
</mgrwt>
</event>
<event>
 5    1  0.3487578E-002  0.1250048E+03  0.7818608E-02  0.1235062E+00
          4   -1    0    0  501    0  0.00000000000E+00  0.00000000000E+00  0.38570523768E+03  0.38570732851E+03  0.12700000000E+01 0.  1.
         -4   -1    0    0    0  501 -0.00000000000E+00 -0.00000000000E+00 -0.10086387390E+02  0.10166027276E+02  0.12700000000E+01 0.  1.
         25    2    1    2    0    0  0.00000000000E+00  0.00000000000E+00  0.37561885029E+03  0.39587335579E+03  0.12500477245E+03 0.  0.
    9000005    1    3    3    0    0  0.53587072445E+02 -0.10017549329E+02  0.28457377205E+03  0.28975016371E+03  0.10000000000E+01 0.  0.
    9000005    1    3    3    0    0 -0.53587072445E+02  0.10017549329E+02  0.91045078232E+02  0.10612319208E+03  0.10000000000E+01 0.  0.
<mgrwt>
<rscale>  0 0.12500477E+03</rscale>
<asrwt>0</asrwt>
<pdfrwt beam="1">  1        4 0.59345550E-01 0.12500477E+03</pdfrwt>
<pdfrwt beam="2">  1       -4 0.15580390E-02 0.12500477E+03</pdfrwt>
<totfact> 0.64949286E+03</totfact>
</mgrwt>
</event>
<event>
 5    1  0.3487578E-002  0.1249980E+03  0.7818608E-02  0.1235072E+00
          4   -1    0    0  501    0  0.00000000000E+00  0.00000000000E+00  0.17294174938E+03  0.17294641245E+03  0.12700000000E+01 0.  1.
         -4   -1    0    0    0  501 -0.00000000000E+00 -0.00000000000E+00 -0.22563555927E+02  0.22599268928E+02  0.12700000000E+01 0.  1.
         25    2    1    2    0    0  0.00000000000E+00  0.00000000000E+00  0.15037819345E+03  0.19554568137E+03  0.12499804974E+03 0.  0.
    9000005    1    3    3    0    0  0.14983892384E+02 -0.59029118178E+02  0.53277903335E+02  0.80922733565E+02  0.10000000000E+01 0.  0.
    9000005    1    3    3    0    0 -0.14983892384E+02  0.59029118178E+02  0.97100290115E+02  0.11462294781E+03  0.10000000000E+01 0.  0.
<mgrwt>
<rscale>  0 0.12499805E+03</rscale>
<asrwt>0</asrwt>
<pdfrwt beam="1">  1        4 0.26609530E-01 0.12499805E+03</pdfrwt>
<pdfrwt beam="2">  1       -4 0.34744220E-02 0.12499805E+03</pdfrwt>
<totfact> 0.90895205E+03</totfact>
</mgrwt>
</event>
<event>
 5    1  0.3487578E-002  0.1249902E+03  0.7818608E-02  0.1235085E+00
          4   -1    0    0  501    0  0.00000000000E+00  0.00000000000E+00  0.33785118254E+02  0.33808979805E+02  0.12700000000E+01 0.  1.
         -4   -1    0    0    0  501 -0.00000000000E+00 -0.00000000000E+00 -0.11553407343E+03  0.11554105341E+03  0.12700000000E+01 0.  1.
         25    2    1    2    0    0  0.00000000000E+00  0.00000000000E+00 -0.81748955179E+02  0.14935003322E+03  0.12499016261E+03 0.  0.
    9000005    1    3    3    0    0  0.30355957637E+01 -0.57490954298E+02 -0.11845418231E+02  0.58785530540E+02  0.10000000000E+01 0.  0.
    9000005    1    3    3    0    0 -0.30355957637E+01  0.57490954298E+02 -0.69903536948E+02  0.90564502680E+02  0.10000000000E+01 0.  0.
<mgrwt>
<rscale>  0 0.12499016E+03</rscale>
<asrwt>0</asrwt>
<pdfrwt beam="1">  1        4 0.52000830E-02 0.12499016E+03</pdfrwt>
<pdfrwt beam="2">  1       -4 0.17776845E-01 0.12499016E+03</pdfrwt>
<totfact> 0.99455436E+03</totfact>
</mgrwt>
</event>
<event>
 5    1  0.3487578E-002  0.1249955E+03  0.7818608E-02  0.1235076E+00
         -4   -1    0    0    0  501 -0.00000000000E+00  0.00000000000E+00  0.35792356971E+03  0.35792582284E+03  0.12700000000E+01 0. -1.
          4   -1    0    0  501    0  0.00000000000E+00 -0.00000000000E+00 -0.10873620216E+02  0.10947534727E+02  0.12700000000E+01 0. -1.
         25    2    1    2    0    0  0.00000000000E+00  0.00000000000E+00  0.34704994950E+03  0.36887335757E+03  0.12499554583E+03 0.  0.
    9000005    1    3    3    0    0 -0.14294429298E+02 -0.28137546925E+02  0.14359601248E+02  0.34687899964E+02  0.10000000000E+01 0.  0.
    9000005    1    3    3    0    0  0.14294429298E+02  0.28137546925E+02  0.33269034825E+03  0.33418545760E+03  0.10000000000E+01 0.  0.
<mgrwt>
<rscale>  0 0.12499555E+03</rscale>
<asrwt>0</asrwt>
<pdfrwt beam="2">  1        4 0.16787234E-02 0.12499555E+03</pdfrwt>
<pdfrwt beam="1">  1       -4 0.55071033E-01 0.12499555E+03</pdfrwt>
<totfact> 0.67703629E+03</totfact>
</mgrwt>
</event>
<event>
 5    1  0.3487578E-002  0.1250041E+03  0.7818608E-02  0.1235063E+00
         -4   -1    0    0    0  501 -0.00000000000E+00  0.00000000000E+00  0.32964244122E+03  0.32964488765E+03  0.12700000000E+01 0.  1.
          4   -1    0    0  501    0  0.00000000000E+00 -0.00000000000E+00 -0.11814220558E+02  0.11882285445E+02  0.12700000000E+01 0.  1.
         25    2    1    2    0    0  0.00000000000E+00  0.00000000000E+00  0.31782822066E+03  0.34152717309E+03  0.12500412838E+03 0.  0.
    9000005    1    3    3    0    0 -0.17207578516E+02  0.43300476753E+02  0.45129100229E+02  0.64874245528E+02  0.10000000000E+01 0.  0.
    9000005    1    3    3    0    0  0.17207578516E+02 -0.43300476753E+02  0.27269912043E+03  0.27665292756E+03  0.10000000000E+01 0.  0.
<mgrwt>
<rscale>  0 0.12500413E+03</rscale>
<asrwt>0</asrwt>
<pdfrwt beam="2">  1        4 0.18229967E-02 0.12500413E+03</pdfrwt>
<pdfrwt beam="1">  1       -4 0.50719635E-01 0.12500413E+03</pdfrwt>
<totfact> 0.70660386E+03</totfact>
</mgrwt>
</event>
<event>
 5    1  0.3487578E-002  0.1249969E+03  0.7818608E-02  0.1235074E+00
         -4   -1    0    0    0  501 -0.00000000000E+00  0.00000000000E+00  0.77428450012E+03  0.77428554166E+03  0.12700000000E+01 0.  1.
          4   -1    0    0  501    0  0.00000000000E+00 -0.00000000000E+00 -0.49637406470E+01  0.51236335945E+01  0.12700000000E+01 0.  1.
         25    2    1    2    0    0  0.00000000000E+00  0.00000000000E+00  0.76932075947E+03  0.77940917526E+03  0.12499692603E+03 0.  0.
    9000005    1    3    3    0    0  0.14393330069E+01 -0.22166920953E+02  0.74886555559E+03  0.74919561158E+03  0.10000000000E+01 0.  0.
    9000005    1    3    3    0    0 -0.14393330069E+01  0.22166920953E+02  0.20455203884E+02  0.30213563676E+02  0.10000000000E+01 0.  0.
<mgrwt>
<rscale>  0 0.12499693E+03</rscale>
<asrwt>0</asrwt>
<pdfrwt beam="2">  1        4 0.77603264E-03 0.12499693E+03</pdfrwt>
<pdfrwt beam="1">  1       -4 0.11913297E+00 0.12499693E+03</pdfrwt>
<totfact> 0.39203304E+03</totfact>
</mgrwt>
</event>
<event>
 5    1  0.3487578E-002  0.1250002E+03  0.7818608E-02  0.1235069E+00
         -4   -1    0    0    0  501 -0.00000000000E+00  0.00000000000E+00  0.24704174596E+03  0.24704501037E+03  0.12700000000E+01 0.  1.
          4   -1    0    0  501    0  0.00000000000E+00 -0.00000000000E+00 -0.15783268303E+02  0.15834281112E+02  0.12700000000E+01 0.  1.
         25    2    1    2    0    0  0.00000000000E+00  0.00000000000E+00  0.23125847766E+03  0.26287929148E+03  0.12500015360E+03 0.  0.
    9000005    1    3    3    0    0  0.20568147481E+02  0.29391070929E+02  0.80169613026E+01  0.36771665855E+02  0.10000000000E+01 0.  0.
    9000005    1    3    3    0    0 -0.20568147481E+02 -0.29391070929E+02  0.22324151636E+03  0.22610762563E+03  0.10000000000E+01 0.  0.
<mgrwt>
<rscale>  0 0.12500015E+03</rscale>
<asrwt>0</asrwt>
<pdfrwt beam="2">  1        4 0.24323702E-02 0.12500015E+03</pdfrwt>
<pdfrwt beam="1">  1       -4 0.38010600E-01 0.12500015E+03</pdfrwt>
<totfact> 0.80503406E+03</totfact>
</mgrwt>
</event>
<event>
 5    1  0.3487578E-002  0.1250028E+03  0.7818608E-02  0.1235065E+00
         -4   -1    0    0    0  501 -0.00000000000E+00  0.00000000000E+00  0.31644377065E+02  0.31669851592E+02  0.12700000000E+01 0.  1.
          4   -1    0    0  501    0  0.00000000000E+00 -0.00000000000E+00 -0.12336927124E+03  0.12337580795E+03  0.12700000000E+01 0.  1.
         25    2    1    2    0    0  0.00000000000E+00  0.00000000000E+00 -0.91724894176E+02  0.15504565954E+03  0.12500280129E+03 0.  0.
    9000005    1    3    3    0    0  0.14662165241E+02 -0.14849701039E+02 -0.11892593025E+03  0.12074713080E+03  0.10000000000E+01 0.  0.
    9000005    1    3    3    0    0 -0.14662165241E+02  0.14849701039E+02  0.27201036071E+02  0.34298528742E+02  0.10000000000E+01 0.  0.
<mgrwt>
<rscale>  0 0.12500280E+03</rscale>
<asrwt>0</asrwt>
<pdfrwt beam="2">  1        4 0.18982350E-01 0.12500280E+03</pdfrwt>
<pdfrwt beam="1">  1       -4 0.48708281E-02 0.12500280E+03</pdfrwt>
<totfact> 0.98300343E+03</totfact>
</mgrwt>
</event>
<event>
 5    1  0.3487578E-002  0.1250002E+03  0.7818608E-02  0.1235069E+00
          4   -1    0    0  501    0  0.00000000000E+00  0.00000000000E+00  0.25842869904E+02  0.25874056985E+02  0.12700000000E+01 0. -1.
         -4   -1    0    0    0  501 -0.00000000000E+00 -0.00000000000E+00 -0.15102935877E+03  0.15103469836E+03  0.12700000000E+01 0. -1.
         25    2    1    2    0    0  0.00000000000E+00  0.00000000000E+00 -0.12518648886E+03  0.17690875535E+03  0.12500020290E+03 0.  0.
    9000005    1    3    3    0    0 -0.93341182560E+01 -0.57103440433E+02 -0.96004775791E+02  0.11209748279E+03  0.10000000000E+01 0.  0.
    9000005    1    3    3    0    0  0.93341182560E+01  0.57103440433E+02 -0.29181713071E+02  0.64811272558E+02  0.10000000000E+01 0.  0.
<mgrwt>
<rscale>  0 0.12500020E+03</rscale>
<asrwt>0</asrwt>
<pdfrwt beam="1">  1        4 0.39786360E-02 0.12500020E+03</pdfrwt>
<pdfrwt beam="2">  1       -4 0.23238095E-01 0.12500020E+03</pdfrwt>
<totfact> 0.94175987E+03</totfact>
</mgrwt>
</event>
<event>
 5    1  0.3487578E-002  0.1250061E+03  0.7818608E-02  0.1235060E+00
         -4   -1    0    0    0  501 -0.00000000000E+00  0.00000000000E+00  0.32544308754E+02  0.32569079389E+02  0.12700000000E+01 0. -1.
          4   -1    0    0  501    0  0.00000000000E+00 -0.00000000000E+00 -0.11996662555E+03  0.11997334765E+03  0.12700000000E+01 0. -1.
         25    2    1    2    0    0  0.00000000000E+00  0.00000000000E+00 -0.87422316796E+02  0.15254242704E+03  0.12500612214E+03 0.  0.
    9000005    1    3    3    0    0 -0.12221823506E+02 -0.59781583783E+02 -0.60192701580E+02  0.85716813128E+02  0.10000000000E+01 0.  0.
    9000005    1    3    3    0    0  0.12221823506E+02  0.59781583783E+02 -0.27229615216E+02  0.66825613909E+02  0.10000000000E+01 0.  0.
<mgrwt>
<rscale>  0 0.12500612E+03</rscale>
<asrwt>0</asrwt>
<pdfrwt beam="2">  1        4 0.18458826E-01 0.12500612E+03</pdfrwt>
<pdfrwt beam="1">  1       -4 0.50092393E-02 0.12500612E+03</pdfrwt>
<totfact> 0.98785689E+03</totfact>
</mgrwt>
</event>
<event>
 5    1  0.3487578E-002  0.1250011E+03  0.7818608E-02  0.1235068E+00
         -4   -1    0    0    0  501 -0.00000000000E+00  0.00000000000E+00  0.29910491045E+01  0.32495037691E+01  0.12700000000E+01 0.  1.
          4   -1    0    0  501    0  0.00000000000E+00 -0.00000000000E+00 -0.12516555689E+04  0.12516562132E+04  0.12700000000E+01 0.  1.
         25    2    1    2    0    0  0.00000000000E+00  0.00000000000E+00 -0.12486645198E+04  0.12549057170E+04  0.12500110200E+03 0.  0.
    9000005    1    3    3    0    0  0.11693867540E+02  0.33982191860E+02 -0.11107864315E+03  0.11675187735E+03  0.10000000000E+01 0.  0.
    9000005    1    3    3    0    0 -0.11693867540E+02 -0.33982191860E+02 -0.11375858767E+04  0.11381538396E+04  0.10000000000E+01 0.  0.
<mgrwt>
<rscale>  0 0.12500110E+03</rscale>
<asrwt>0</asrwt>
<pdfrwt beam="2">  1        4 0.19258193E+00 0.12500110E+03</pdfrwt>
<pdfrwt beam="1">  1       -4 0.48009309E-03 0.12500110E+03</pdfrwt>
<totfact> 0.23317960E+03</totfact>
</mgrwt>
</event>
<event>
 5    1  0.3487578E-002  0.1249991E+03  0.7818608E-02  0.1235071E+00
         -4   -1    0    0    0  501 -0.00000000000E+00  0.00000000000E+00  0.18981503207E+03  0.18981928063E+03  0.12700000000E+01 0.  1.
          4   -1    0    0  501    0  0.00000000000E+00 -0.00000000000E+00 -0.20554886301E+02  0.20594082909E+02  0.12700000000E+01 0.  1.
         25    2    1    2    0    0  0.00000000000E+00  0.00000000000E+00  0.16926014577E+03  0.21041336354E+03  0.12499914644E+03 0.  0.
    9000005    1    3    3    0    0 -0.30659086540E+02  0.21771957234E+02  0.61243316513E+00  0.37621440478E+02  0.10000000000E+01 0.  0.
    9000005    1    3    3    0    0  0.30659086540E+02 -0.21771957234E+02  0.16864771260E+03  0.17279192306E+03  0.10000000000E+01 0.  0.
<mgrwt>
<rscale>  0 0.12499915E+03</rscale>
<asrwt>0</asrwt>
<pdfrwt beam="2">  1        4 0.31656321E-02 0.12499915E+03</pdfrwt>
<pdfrwt beam="1">  1       -4 0.29205655E-01 0.12499915E+03</pdfrwt>
<totfact> 0.88410104E+03</totfact>
</mgrwt>
</event>
<event>
 5    1  0.3487578E-002  0.1249978E+03  0.7818608E-02  0.1235073E+00
          4   -1    0    0  501    0  0.00000000000E+00  0.00000000000E+00  0.86277496216E+02  0.86286842875E+02  0.12700000000E+01 0.  1.
         -4   -1    0    0    0  501 -0.00000000000E+00 -0.00000000000E+00 -0.45253135425E+02  0.45270952782E+02  0.12700000000E+01 0.  1.
         25    2    1    2    0    0  0.00000000000E+00  0.00000000000E+00  0.41024360791E+02  0.13155779566E+03  0.12499782166E+03 0.  0.
    9000005    1    3    3    0    0 -0.17017148431E+02 -0.58738956428E+02  0.34042412912E+02  0.69998101545E+02  0.10000000000E+01 0.  0.
    9000005    1    3    3    0    0  0.17017148431E+02  0.58738956428E+02  0.69819478787E+01  0.61559694112E+02  0.10000000000E+01 0.  0.
<mgrwt>
<rscale>  0 0.12499782E+03</rscale>
<asrwt>0</asrwt>
<pdfrwt beam="1">  1        4 0.13275550E-01 0.12499782E+03</pdfrwt>
<pdfrwt beam="2">  1       -4 0.69641104E-02 0.12499782E+03</pdfrwt>
<totfact> 0.10311653E+04</totfact>
</mgrwt>
</event>
<event>
 5    1  0.3487578E-002  0.1250022E+03  0.7818608E-02  0.1235066E+00
         -4   -1    0    0    0  501 -0.00000000000E+00  0.00000000000E+00  0.25286015815E+02  0.25317888849E+02  0.12700000000E+01 0. -1.
          4   -1    0    0  501    0  0.00000000000E+00 -0.00000000000E+00 -0.15435628241E+03  0.15436150692E+03  0.12700000000E+01 0. -1.
         25    2    1    2    0    0  0.00000000000E+00  0.00000000000E+00 -0.12907026660E+03  0.17967939577E+03  0.12500220616E+03 0.  0.
    9000005    1    3    3    0    0  0.12743130985E+02 -0.30686829186E+02  0.11543356854E+02  0.35189742259E+02  0.10000000000E+01 0.  0.
    9000005    1    3    3    0    0 -0.12743130985E+02  0.30686829186E+02 -0.14061362345E+03  0.14448965351E+03  0.10000000000E+01 0.  0.
<mgrwt>
<rscale>  0 0.12500221E+03</rscale>
<asrwt>0</asrwt>
<pdfrwt beam="2">  1        4 0.23749973E-01 0.12500221E+03</pdfrwt>
<pdfrwt beam="1">  1       -4 0.38930100E-02 0.12500221E+03</pdfrwt>
<totfact> 0.93670111E+03</totfact>
</mgrwt>
</event>
<event>
 5    1  0.3487578E-002  0.1250023E+03  0.7818608E-02  0.1235066E+00
         -4   -1    0    0    0  501 -0.00000000000E+00  0.00000000000E+00  0.49800208420E+01  0.51394073186E+01  0.12700000000E+01 0. -1.
          4   -1    0    0  501    0  0.00000000000E+00 -0.00000000000E+00 -0.77189814982E+03  0.77189919458E+03  0.12700000000E+01 0. -1.
         25    2    1    2    0    0  0.00000000000E+00  0.00000000000E+00 -0.76691812898E+03  0.77703860190E+03  0.12500228913E+03 0.  0.
    9000005    1    3    3    0    0  0.32675955296E+01  0.10920046079E+02 -0.15059524798E+01  0.11540904635E+02  0.10000000000E+01 0.  0.
    9000005    1    3    3    0    0 -0.32675955296E+01 -0.10920046079E+02 -0.76541217650E+03  0.76549769727E+03  0.10000000000E+01 0.  0.
<mgrwt>
<rscale>  0 0.12500229E+03</rscale>
<asrwt>0</asrwt>
<pdfrwt beam="2">  1        4 0.11876581E+00 0.12500229E+03</pdfrwt>
<pdfrwt beam="1">  1       -4 0.77849853E-03 0.12500229E+03</pdfrwt>
<totfact> 0.39308613E+03</totfact>
</mgrwt>
</event>
<event>
 5    1  0.3487578E-002  0.1250014E+03  0.7818608E-02  0.1235067E+00
          4   -1    0    0  501    0  0.00000000000E+00  0.00000000000E+00  0.10212059561E+03  0.10212849234E+03  0.12700000000E+01 0. -1.
         -4   -1    0    0    0  501 -0.00000000000E+00 -0.00000000000E+00 -0.38232301192E+02  0.38253388797E+02  0.12700000000E+01 0. -1.
         25    2    1    2    0    0  0.00000000000E+00  0.00000000000E+00  0.63888294414E+02  0.14038188113E+03  0.12500143354E+03 0.  0.
    9000005    1    3    3    0    0  0.61678130348E+02 -0.88747728159E+01  0.37257720223E+02  0.72609166583E+02  0.10000000000E+01 0.  0.
    9000005    1    3    3    0    0 -0.61678130348E+02  0.88747728159E+01  0.26630574192E+02  0.67772714550E+02  0.10000000000E+01 0.  0.
<mgrwt>
<rscale>  0 0.12500143E+03</rscale>
<asrwt>0</asrwt>
<pdfrwt beam="1">  1        4 0.15713090E-01 0.12500143E+03</pdfrwt>
<pdfrwt beam="2">  1       -4 0.58841221E-02 0.12500143E+03</pdfrwt>
<totfact> 0.10125350E+04</totfact>
</mgrwt>
</event>
<event>
 5    1  0.3487578E-002  0.1249989E+03  0.7818608E-02  0.1235071E+00
         -4   -1    0    0    0  501 -0.00000000000E+00  0.00000000000E+00  0.61615398843E+03  0.61615529727E+03  0.12700000000E+01 0. -1.
          4   -1    0    0  501    0  0.00000000000E+00 -0.00000000000E+00 -0.62746866858E+01  0.64019210402E+01  0.12700000000E+01 0. -1.
         25    2    1    2    0    0  0.00000000000E+00  0.00000000000E+00  0.60987930174E+03  0.62255721831E+03  0.12499890951E+03 0.  0.
    9000005    1    3    3    0    0  0.80713928062E+01  0.59733498090E+02  0.22280762697E+03  0.23081914308E+03  0.10000000000E+01 0.  0.
    9000005    1    3    3    0    0 -0.80713928062E+01 -0.59733498090E+02  0.38707167477E+03  0.39173807523E+03  0.10000000000E+01 0.  0.
<mgrwt>
<rscale>  0 0.12499891E+03</rscale>
<asrwt>0</asrwt>
<pdfrwt beam="2">  1        4 0.97522412E-03 0.12499891E+03</pdfrwt>
<pdfrwt beam="1">  1       -4 0.94802832E-01 0.12499891E+03</pdfrwt>
<totfact> 0.47475129E+03</totfact>
</mgrwt>
</event>
<event>
 5    1  0.3487578E-002  0.1249993E+03  0.7818608E-02  0.1235070E+00
          4   -1    0    0  501    0  0.00000000000E+00  0.00000000000E+00  0.12981159276E+03  0.12981780508E+03  0.12700000000E+01 0.  1.
         -4   -1    0    0    0  501 -0.00000000000E+00 -0.00000000000E+00 -0.30071004634E+02  0.30097810879E+02  0.12700000000E+01 0.  1.
         25    2    1    2    0    0  0.00000000000E+00  0.00000000000E+00  0.99740588130E+02  0.15991561596E+03  0.12499927723E+03 0.  0.
    9000005    1    3    3    0    0  0.41656703540E+02 -0.73960701819E+01 -0.89681735081E+01  0.43259807443E+02  0.10000000000E+01 0.  0.
    9000005    1    3    3    0    0 -0.41656703540E+02  0.73960701819E+01  0.10870876164E+03  0.11665580852E+03  0.10000000000E+01 0.  0.
<mgrwt>
<rscale>  0 0.12499928E+03</rscale>
<asrwt>0</asrwt>
<pdfrwt beam="1">  1        4 0.19973554E-01 0.12499928E+03</pdfrwt>
<pdfrwt beam="2">  1       -4 0.46288483E-02 0.12499928E+03</pdfrwt>
<totfact> 0.97360638E+03</totfact>
</mgrwt>
</event>
<event>
 5    1  0.3487578E-002  0.1249997E+03  0.7818608E-02  0.1235070E+00
          4   -1    0    0  501    0  0.00000000000E+00  0.00000000000E+00  0.43698751168E+02  0.43717202034E+02  0.12700000000E+01 0.  1.
         -4   -1    0    0    0  501 -0.00000000000E+00 -0.00000000000E+00 -0.89348124102E+02  0.89357149577E+02  0.12700000000E+01 0.  1.
         25    2    1    2    0    0  0.00000000000E+00  0.00000000000E+00 -0.45649372934E+02  0.13307435161E+03  0.12499967123E+03 0.  0.
    9000005    1    3    3    0    0 -0.46684032615E+02 -0.87157698888E+01 -0.66067088689E+02  0.81370902378E+02  0.10000000000E+01 0.  0.
    9000005    1    3    3    0    0  0.46684032615E+02  0.87157698888E+01  0.20417715755E+02  0.51703449233E+02  0.10000000000E+01 0.  0.
<mgrwt>
<rscale>  0 0.12499967E+03</rscale>
<asrwt>0</asrwt>
<pdfrwt beam="1">  1        4 0.67249984E-02 0.12499967E+03</pdfrwt>
<pdfrwt beam="2">  1       -4 0.13747979E-01 0.12499967E+03</pdfrwt>
<totfact> 0.10278896E+04</totfact>
</mgrwt>
</event>
<event>
 5    1  0.3487578E-002  0.1250017E+03  0.7818608E-02  0.1235067E+00
         -4   -1    0    0    0  501 -0.00000000000E+00  0.00000000000E+00  0.41223062735E+03  0.41223258366E+03  0.12700000000E+01 0. -1.
          4   -1    0    0  501    0  0.00000000000E+00 -0.00000000000E+00 -0.94316092959E+01  0.95167302111E+01  0.12700000000E+01 0. -1.
         25    2    1    2    0    0  0.00000000000E+00  0.00000000000E+00  0.40279901806E+03  0.42174931387E+03  0.12500173919E+03 0.  0.
    9000005    1    3    3    0    0 -0.29240990301E+02  0.26512834892E+02  0.37932088095E+02  0.54752253242E+02  0.10000000000E+01 0.  0.
    9000005    1    3    3    0    0  0.29240990301E+02 -0.26512834892E+02  0.36486692996E+03  0.36699706063E+03  0.10000000000E+01 0.  0.
<mgrwt>
<rscale>  0 0.12500174E+03</rscale>
<asrwt>0</asrwt>
<pdfrwt beam="2">  1        4 0.14577156E-02 0.12500174E+03</pdfrwt>
<pdfrwt beam="1">  1       -4 0.63426770E-01 0.12500174E+03</pdfrwt>
<totfact> 0.62488668E+03</totfact>
</mgrwt>
</event>
<event>
 5    1  0.3487578E-002  0.1250032E+03  0.7818608E-02  0.1235064E+00
          4   -1    0    0  501    0  0.00000000000E+00  0.00000000000E+00  0.35158999012E+01  0.37382418482E+01  0.12700000000E+01 0.  1.
         -4   -1    0    0    0  501 -0.00000000000E+00 -0.00000000000E+00 -0.10768039166E+04  0.10768046656E+04  0.12700000000E+01 0.  1.
         25    2    1    2    0    0  0.00000000000E+00  0.00000000000E+00 -0.10732880167E+04  0.10805429074E+04  0.12500323154E+03 0.  0.
    9000005    1    3    3    0    0  0.28502246397E+02  0.54226818996E+02 -0.64340012154E+03  0.64631079392E+03  0.10000000000E+01 0.  0.
    9000005    1    3    3    0    0 -0.28502246397E+02 -0.54226818996E+02 -0.42988789519E+03  0.43423211348E+03  0.10000000000E+01 0.  0.
<mgrwt>
<rscale>  0 0.12500323E+03</rscale>
<asrwt>0</asrwt>
<pdfrwt beam="1">  1        4 0.55806937E-03 0.12500323E+03</pdfrwt>
<pdfrwt beam="2">  1       -4 0.16567905E+00 0.12500323E+03</pdfrwt>
<totfact> 0.28058005E+03</totfact>
</mgrwt>
</event>
<event>
 5    1  0.3487578E-002  0.1249987E+03  0.7818608E-02  0.1235071E+00
         -4   -1    0    0    0  501 -0.00000000000E+00  0.00000000000E+00  0.35567016673E+03  0.35567243413E+03  0.12700000000E+01 0. -1.
          4   -1    0    0  501    0  0.00000000000E+00 -0.00000000000E+00 -0.10943539260E+02  0.11016984684E+02  0.12700000000E+01 0. -1.
         25    2    1    2    0    0  0.00000000000E+00  0.00000000000E+00  0.34472662747E+03  0.36668941882E+03  0.12499872873E+03 0.  0.
    9000005    1    3    3    0    0 -0.16948435280E+02 -0.54979682641E+02  0.10079710043E+03  0.11606494052E+03  0.10000000000E+01 0.  0.
    9000005    1    3    3    0    0  0.16948435280E+02  0.54979682641E+02  0.24392952704E+03  0.25062447830E+03  0.10000000000E+01 0.  0.
<mgrwt>
<rscale>  0 0.12499873E+03</rscale>
<asrwt>0</asrwt>
<pdfrwt beam="2">  1        4 0.16894455E-02 0.12499873E+03</pdfrwt>
<pdfrwt beam="1">  1       -4 0.54724312E-01 0.12499873E+03</pdfrwt>
<totfact> 0.67928621E+03</totfact>
</mgrwt>
</event>
<event>
 5    1  0.3487578E-002  0.1250015E+03  0.7818608E-02  0.1235067E+00
          4   -1    0    0  501    0  0.00000000000E+00  0.00000000000E+00  0.27170455280E+02  0.27200120222E+02  0.12700000000E+01 0.  1.
         -4   -1    0    0    0  501 -0.00000000000E+00 -0.00000000000E+00 -0.14366084453E+03  0.14366645799E+03  0.12700000000E+01 0.  1.
         25    2    1    2    0    0  0.00000000000E+00  0.00000000000E+00 -0.11649038925E+03  0.17086657821E+03  0.12500150704E+03 0.  0.
    9000005    1    3    3    0    0  0.33884841037E+02  0.52223177723E+02 -0.65719794955E+02  0.90529189726E+02  0.10000000000E+01 0.  0.
    9000005    1    3    3    0    0 -0.33884841037E+02 -0.52223177723E+02 -0.50770594298E+02  0.80337388487E+02  0.10000000000E+01 0.  0.
<mgrwt>
<rscale>  0 0.12500151E+03</rscale>
<asrwt>0</asrwt>
<pdfrwt beam="1">  1        4 0.41827838E-02 0.12500151E+03</pdfrwt>
<pdfrwt beam="2">  1       -4 0.22104382E-01 0.12500151E+03</pdfrwt>
<totfact> 0.95284142E+03</totfact>
</mgrwt>
</event>
<event>
 5    1  0.3487578E-002  0.1249934E+03  0.7818608E-02  0.1235080E+00
         -4   -1    0    0    0  501 -0.00000000000E+00  0.00000000000E+00  0.85537392840E+02  0.85546820361E+02  0.12700000000E+01 0.  1.
          4   -1    0    0  501    0  0.00000000000E+00 -0.00000000000E+00 -0.45641595681E+02  0.45659261452E+02  0.12700000000E+01 0.  1.
         25    2    1    2    0    0  0.00000000000E+00  0.00000000000E+00  0.39895797159E+02  0.13120608181E+03  0.12499344492E+03 0.  0.
    9000005    1    3    3    0    0 -0.16534529877E+02 -0.44891699101E+02 -0.22252083201E+02  0.52771304070E+02  0.10000000000E+01 0.  0.
    9000005    1    3    3    0    0  0.16534529877E+02  0.44891699101E+02  0.62147880359E+02  0.78434777743E+02  0.10000000000E+01 0.  0.
<mgrwt>
<rscale>  0 0.12499344E+03</rscale>
<asrwt>0</asrwt>
<pdfrwt beam="2">  1        4 0.70238680E-02 0.12499344E+03</pdfrwt>
<pdfrwt beam="1">  1       -4 0.13161683E-01 0.12499344E+03</pdfrwt>
<totfact> 0.10320199E+04</totfact>
</mgrwt>
</event>
<event>
 5    1  0.3487578E-002  0.1250584E+03  0.7818608E-02  0.1234978E+00
          4   -1    0    0  501    0  0.00000000000E+00  0.00000000000E+00  0.72413653686E+02  0.72424789541E+02  0.12700000000E+01 0.  1.
         -4   -1    0    0    0  501 -0.00000000000E+00 -0.00000000000E+00 -0.53971221635E+02  0.53986161789E+02  0.12700000000E+01 0.  1.
         25    2    1    2    0    0  0.00000000000E+00  0.00000000000E+00  0.18442432051E+02  0.12641095133E+03  0.12505840762E+03 0.  0.
    9000005    1    3    3    0    0  0.52752396028E+02 -0.33198766242E+02  0.42766900358E+01  0.62484105534E+02  0.10000000000E+01 0.  0.
    9000005    1    3    3    0    0 -0.52752396028E+02  0.33198766242E+02  0.14165742015E+02  0.63926845797E+02  0.10000000000E+01 0.  0.
<mgrwt>
<rscale>  0 0.12505841E+03</rscale>
<asrwt>0</asrwt>
<pdfrwt beam="1">  1        4 0.11142568E-01 0.12505841E+03</pdfrwt>
<pdfrwt beam="2">  1       -4 0.83052706E-02 0.12505841E+03</pdfrwt>
<totfact> 0.10408244E+04</totfact>
</mgrwt>
</event>
<event>
 5    1  0.3487578E-002  0.1249904E+03  0.7818608E-02  0.1235084E+00
          4   -1    0    0  501    0  0.00000000000E+00  0.00000000000E+00  0.70185372470E+02  0.70196861815E+02  0.12700000000E+01 0. -1.
         -4   -1    0    0    0  501 -0.00000000000E+00 -0.00000000000E+00 -0.55624302365E+02  0.55638798635E+02  0.12700000000E+01 0. -1.
         25    2    1    2    0    0  0.00000000000E+00  0.00000000000E+00  0.14561070105E+02  0.12583566045E+03  0.12499035434E+03 0.  0.
    9000005    1    3    3    0    0  0.57888205002E+02  0.17407200328E+02  0.23217699980E+02  0.64761998841E+02  0.10000000000E+01 0.  0.
    9000005    1    3    3    0    0 -0.57888205002E+02 -0.17407200328E+02 -0.86566298752E+01  0.61073661609E+02  0.10000000000E+01 0.  0.
<mgrwt>
<rscale>  0 0.12499035E+03</rscale>
<asrwt>0</asrwt>
<pdfrwt beam="1">  1        4 0.10799748E-01 0.12499035E+03</pdfrwt>
<pdfrwt beam="2">  1       -4 0.85595839E-02 0.12499035E+03</pdfrwt>
<totfact> 0.10436833E+04</totfact>
</mgrwt>
</event>
<event>
 5    1  0.3487578E-002  0.1249947E+03  0.7818608E-02  0.1235078E+00
          4   -1    0    0  501    0  0.00000000000E+00  0.00000000000E+00  0.26738753816E+02  0.26768897168E+02  0.12700000000E+01 0. -1.
         -4   -1    0    0    0  501 -0.00000000000E+00 -0.00000000000E+00 -0.14596184861E+03  0.14596737358E+03  0.12700000000E+01 0. -1.
         25    2    1    2    0    0  0.00000000000E+00  0.00000000000E+00 -0.11922309480E+03  0.17273627075E+03  0.12499469149E+03 0.  0.
    9000005    1    3    3    0    0 -0.56355911047E+02  0.15655736140E+02 -0.90009001998E+02  0.10734855018E+03  0.10000000000E+01 0.  0.
    9000005    1    3    3    0    0  0.56355911047E+02 -0.15655736140E+02 -0.29214092801E+02  0.65387720577E+02  0.10000000000E+01 0.  0.
<mgrwt>
<rscale>  0 0.12499469E+03</rscale>
<asrwt>0</asrwt>
<pdfrwt beam="1">  1        4 0.41163982E-02 0.12499469E+03</pdfrwt>
<pdfrwt beam="2">  1       -4 0.22458412E-01 0.12499469E+03</pdfrwt>
<totfact> 0.94952390E+03</totfact>
</mgrwt>
</event>
<event>
 5    1  0.3487578E-002  0.1250010E+03  0.7818608E-02  0.1235068E+00
          4   -1    0    0  501    0  0.00000000000E+00  0.00000000000E+00  0.23726525793E+02  0.23760490867E+02  0.12700000000E+01 0.  1.
         -4   -1    0    0    0  501 -0.00000000000E+00 -0.00000000000E+00 -0.16448498809E+03  0.16448989090E+03  0.12700000000E+01 0.  1.
         25    2    1    2    0    0  0.00000000000E+00  0.00000000000E+00 -0.14075846230E+03  0.18825038176E+03  0.12500104610E+03 0.  0.
    9000005    1    3    3    0    0 -0.11963935851E+02  0.38408784192E+02 -0.14239872591E+03  0.14797556421E+03  0.10000000000E+01 0.  0.
    9000005    1    3    3    0    0  0.11963935851E+02 -0.38408784192E+02  0.16402636078E+01  0.40274817552E+02  0.10000000000E+01 0.  0.
<mgrwt>
<rscale>  0 0.12500105E+03</rscale>
<asrwt>0</asrwt>
<pdfrwt beam="1">  1        4 0.36532247E-02 0.12500105E+03</pdfrwt>
<pdfrwt beam="2">  1       -4 0.25308372E-01 0.12500105E+03</pdfrwt>
<totfact> 0.92150477E+03</totfact>
</mgrwt>
</event>
<event>
 5    1  0.3487578E-002  0.1249997E+03  0.7818608E-02  0.1235070E+00
         -4   -1    0    0    0  501 -0.00000000000E+00  0.00000000000E+00  0.62245664181E+02  0.62258618755E+02  0.12700000000E+01 0. -1.
          4   -1    0    0  501    0  0.00000000000E+00 -0.00000000000E+00 -0.62729118733E+02  0.62741973487E+02  0.12700000000E+01 0. -1.
         25    2    1    2    0    0  0.00000000000E+00  0.00000000000E+00 -0.48345455226E+00  0.12500059224E+03  0.12499965733E+03 0.  0.
    9000005    1    3    3    0    0  0.54187106602E+02  0.30917649219E+02 -0.38590776621E+01  0.62514286651E+02  0.10000000000E+01 0.  0.
    9000005    1    3    3    0    0 -0.54187106602E+02 -0.30917649219E+02  0.33756231099E+01  0.62486305591E+02  0.10000000000E+01 0.  0.
<mgrwt>
<rscale>  0 0.12499966E+03</rscale>
<asrwt>0</asrwt>
<pdfrwt beam="2">  1        4 0.96526190E-02 0.12499966E+03</pdfrwt>
<pdfrwt beam="1">  1       -4 0.95782414E-02 0.12499966E+03</pdfrwt>
<totfact> 0.10452931E+04</totfact>
</mgrwt>
</event>
<event>
 5    1  0.3487578E-002  0.1249999E+03  0.7818608E-02  0.1235069E+00
         -4   -1    0    0    0  501 -0.00000000000E+00  0.00000000000E+00  0.90875268375E+02  0.90884142194E+02  0.12700000000E+01 0.  1.
          4   -1    0    0  501    0  0.00000000000E+00 -0.00000000000E+00 -0.42964351895E+02  0.42983118008E+02  0.12700000000E+01 0.  1.
         25    2    1    2    0    0  0.00000000000E+00  0.00000000000E+00  0.47910916481E+02  0.13386726020E+03  0.12499994974E+03 0.  0.
    9000005    1    3    3    0    0 -0.61105747666E+02 -0.35061794316E+01  0.10449689363E+02  0.62099933171E+02  0.10000000000E+01 0.  0.
    9000005    1    3    3    0    0  0.61105747666E+02  0.35061794316E+01  0.37461227118E+02  0.71767327031E+02  0.10000000000E+01 0.  0.
<mgrwt>
<rscale>  0 0.12499995E+03</rscale>
<asrwt>0</asrwt>
<pdfrwt beam="2">  1        4 0.66120265E-02 0.12499995E+03</pdfrwt>
<pdfrwt beam="1">  1       -4 0.13982937E-01 0.12499995E+03</pdfrwt>
<totfact> 0.10262013E+04</totfact>
</mgrwt>
</event>
<event>
 5    1  0.3487578E-002  0.1250022E+03  0.7818608E-02  0.1235066E+00
          4   -1    0    0  501    0  0.00000000000E+00  0.00000000000E+00  0.21138660829E+02  0.21176776941E+02  0.12700000000E+01 0.  1.
         -4   -1    0    0    0  501 -0.00000000000E+00 -0.00000000000E+00 -0.18459156508E+03  0.18459593386E+03  0.12700000000E+01 0.  1.
         25    2    1    2    0    0  0.00000000000E+00  0.00000000000E+00 -0.16345290425E+03  0.20577271080E+03  0.12500222639E+03 0.  0.
    9000005    1    3    3    0    0  0.54156646933E+02  0.18970665002E+02 -0.40984243800E+02  0.70523306626E+02  0.10000000000E+01 0.  0.
    9000005    1    3    3    0    0 -0.54156646933E+02 -0.18970665002E+02 -0.12246866045E+03  0.13524940417E+03  0.10000000000E+01 0.  0.
<mgrwt>
<rscale>  0 0.12500223E+03</rscale>
<asrwt>0</asrwt>
<pdfrwt beam="1">  1        4 0.32553699E-02 0.12500223E+03</pdfrwt>
<pdfrwt beam="2">  1       -4 0.28401969E-01 0.12500223E+03</pdfrwt>
<totfact> 0.89166500E+03</totfact>
</mgrwt>
</event>
<event>
 5    1  0.3487578E-002  0.1249994E+03  0.7818608E-02  0.1235070E+00
         -4   -1    0    0    0  501 -0.00000000000E+00  0.00000000000E+00  0.88271789184E+01  0.89180708485E+01  0.12700000000E+01 0.  1.
          4   -1    0    0  501    0  0.00000000000E+00 -0.00000000000E+00 -0.44016240192E+03  0.44016423408E+03  0.12700000000E+01 0.  1.
         25    2    1    2    0    0  0.00000000000E+00  0.00000000000E+00 -0.43133522300E+03  0.44908230493E+03  0.12499936799E+03 0.  0.
    9000005    1    3    3    0    0  0.27921897504E+02 -0.47510490041E+01 -0.41579632823E+03  0.41676107232E+03  0.10000000000E+01 0.  0.
    9000005    1    3    3    0    0 -0.27921897504E+02  0.47510490041E+01 -0.15538894767E+02  0.32321232610E+02  0.10000000000E+01 0.  0.
<mgrwt>
<rscale>  0 0.12499937E+03</rscale>
<asrwt>0</asrwt>
<pdfrwt beam="2">  1        4 0.67724408E-01 0.12499937E+03</pdfrwt>
<pdfrwt beam="1">  1       -4 0.13651605E-02 0.12499937E+03</pdfrwt>
<totfact> 0.60044220E+03</totfact>
</mgrwt>
</event>
<event>
 5    1  0.3487578E-002  0.1250007E+03  0.7818608E-02  0.1235068E+00
          4   -1    0    0  501    0  0.00000000000E+00  0.00000000000E+00  0.31559275095E+03  0.31559530629E+03  0.12700000000E+01 0.  1.
         -4   -1    0    0    0  501 -0.00000000000E+00 -0.00000000000E+00 -0.12342451068E+02  0.12407618562E+02  0.12700000000E+01 0.  1.
         25    2    1    2    0    0  0.00000000000E+00  0.00000000000E+00  0.30325029988E+03  0.32800292485E+03  0.12500069733E+03 0.  0.
    9000005    1    3    3    0    0  0.15318447485E+02  0.12408095108E+02 -0.39827273257E+01  0.20136478702E+02  0.10000000000E+01 0.  0.
    9000005    1    3    3    0    0 -0.15318447485E+02 -0.12408095108E+02  0.30723302721E+03  0.30786644615E+03  0.10000000000E+01 0.  0.
<mgrwt>
<rscale>  0 0.12500070E+03</rscale>
<asrwt>0</asrwt>
<pdfrwt beam="1">  1        4 0.48557930E-01 0.12500070E+03</pdfrwt>
<pdfrwt beam="2">  1       -4 0.19040485E-02 0.12500070E+03</pdfrwt>
<totfact> 0.72213176E+03</totfact>
</mgrwt>
</event>
<event>
 5    1  0.3487578E-002  0.1249985E+03  0.7818608E-02  0.1235072E+00
         -4   -1    0    0    0  501 -0.00000000000E+00  0.00000000000E+00  0.34136834177E+02  0.34160450051E+02  0.12700000000E+01 0.  1.
          4   -1    0    0  501    0  0.00000000000E+00 -0.00000000000E+00 -0.11435975285E+03  0.11436680450E+03  0.12700000000E+01 0.  1.
         25    2    1    2    0    0  0.00000000000E+00  0.00000000000E+00 -0.80222918668E+02  0.14852725455E+03  0.12499851465E+03 0.  0.
    9000005    1    3    3    0    0  0.45245757838E+02 -0.32475254777E+02 -0.64331701724E+01  0.56073224034E+02  0.10000000000E+01 0.  0.
    9000005    1    3    3    0    0 -0.45245757838E+02  0.32475254777E+02 -0.73789748496E+02  0.92454030513E+02  0.10000000000E+01 0.  0.
<mgrwt>
<rscale>  0 0.12499851E+03</rscale>
<asrwt>0</asrwt>
<pdfrwt beam="2">  1        4 0.17596167E-01 0.12499851E+03</pdfrwt>
<pdfrwt beam="1">  1       -4 0.52541798E-02 0.12499851E+03</pdfrwt>
<totfact> 0.99601411E+03</totfact>
</mgrwt>
</event>
<event>
 5    1  0.3487578E-002  0.1250008E+03  0.7818608E-02  0.1235068E+00
         -4   -1    0    0    0  501 -0.00000000000E+00  0.00000000000E+00  0.17965676942E+02  0.18010509376E+02  0.12700000000E+01 0.  1.
          4   -1    0    0  501    0  0.00000000000E+00 -0.00000000000E+00 -0.21711378586E+03  0.21711750024E+03  0.12700000000E+01 0.  1.
         25    2    1    2    0    0  0.00000000000E+00  0.00000000000E+00 -0.19914810891E+03  0.23512800961E+03  0.12500084648E+03 0.  0.
    9000005    1    3    3    0    0 -0.18190109379E+01  0.56599278836E+02 -0.49859962450E+02  0.75457292697E+02  0.10000000000E+01 0.  0.
    9000005    1    3    3    0    0  0.18190109379E+01 -0.56599278836E+02 -0.14928814646E+03  0.15967071691E+03  0.10000000000E+01 0.  0.
<mgrwt>
<rscale>  0 0.12500085E+03</rscale>
<asrwt>0</asrwt>
<pdfrwt beam="2">  1        4 0.33405853E-01 0.12500085E+03</pdfrwt>
<pdfrwt beam="1">  1       -4 0.27676848E-02 0.12500085E+03</pdfrwt>
<totfact> 0.84526761E+03</totfact>
</mgrwt>
</event>
<event>
 5    1  0.3487578E-002  0.1249985E+03  0.7818608E-02  0.1235072E+00
          4   -1    0    0  501    0  0.00000000000E+00  0.00000000000E+00  0.21792452700E+03  0.21792822756E+03  0.12700000000E+01 0.  1.
         -4   -1    0    0    0  501 -0.00000000000E+00 -0.00000000000E+00 -0.17898009840E+02  0.17943011348E+02  0.12700000000E+01 0.  1.
         25    2    1    2    0    0  0.00000000000E+00  0.00000000000E+00  0.20002651716E+03  0.23587123891E+03  0.12499853510E+03 0.  0.
    9000005    1    3    3    0    0  0.10194624084E+02  0.38819902739E+02  0.96296254220E+01  0.41287345454E+02  0.10000000000E+01 0.  0.
    9000005    1    3    3    0    0 -0.10194624084E+02 -0.38819902739E+02  0.19039689174E+03  0.19458389346E+03  0.10000000000E+01 0.  0.
<mgrwt>
<rscale>  0 0.12499854E+03</rscale>
<asrwt>0</asrwt>
<pdfrwt beam="1">  1        4 0.33530596E-01 0.12499854E+03</pdfrwt>
<pdfrwt beam="2">  1       -4 0.27572863E-02 0.12499854E+03</pdfrwt>
<totfact> 0.84418899E+03</totfact>
</mgrwt>
</event>
<event>
 5    1  0.3487578E-002  0.1250008E+03  0.7818608E-02  0.1235068E+00
         -4   -1    0    0    0  501 -0.00000000000E+00  0.00000000000E+00  0.39331947145E+01  0.41331490008E+01  0.12700000000E+01 0. -1.
          4   -1    0    0  501    0  0.00000000000E+00 -0.00000000000E+00 -0.96834259347E+03  0.96834342628E+03  0.12700000000E+01 0. -1.
         25    2    1    2    0    0  0.00000000000E+00  0.00000000000E+00 -0.96440939875E+03  0.97247657528E+03  0.12500080428E+03 0.  0.
    9000005    1    3    3    0    0 -0.39755919234E+01  0.16869104781E+02 -0.94930984733E+03  0.94946856623E+03  0.10000000000E+01 0.  0.
    9000005    1    3    3    0    0  0.39755919234E+01 -0.16869104781E+02 -0.15099551423E+02  0.23008009049E+02  0.10000000000E+01 0.  0.
<mgrwt>
<rscale>  0 0.12500080E+03</rscale>
<asrwt>0</asrwt>
<pdfrwt beam="2">  1        4 0.14899104E+00 0.12500080E+03</pdfrwt>
<pdfrwt beam="1">  1       -4 0.62055281E-03 0.12500080E+03</pdfrwt>
<totfact> 0.31530653E+03</totfact>
</mgrwt>
</event>
<event>
 5    1  0.3487578E-002  0.1249928E+03  0.7818608E-02  0.1235080E+00
          4   -1    0    0  501    0  0.00000000000E+00  0.00000000000E+00  0.78653097692E+02  0.78663350276E+02  0.12700000000E+01 0. -1.
         -4   -1    0    0    0  501 -0.00000000000E+00 -0.00000000000E+00 -0.49636978660E+02  0.49653222962E+02  0.12700000000E+01 0. -1.
         25    2    1    2    0    0  0.00000000000E+00  0.00000000000E+00  0.29016119032E+02  0.12831657324E+03  0.12499283101E+03 0.  0.
    9000005    1    3    3    0    0 -0.62172200251E+02 -0.53360387598E+01  0.11111583997E+02  0.63390244460E+02  0.10000000000E+01 0.  0.
    9000005    1    3    3    0    0  0.62172200251E+02  0.53360387598E+01  0.17904535035E+02  0.64926328778E+02  0.10000000000E+01 0.  0.
<mgrwt>
<rscale>  0 0.12499283E+03</rscale>
<asrwt>0</asrwt>
<pdfrwt beam="1">  1        4 0.12102515E-01 0.12499283E+03</pdfrwt>
<pdfrwt beam="2">  1       -4 0.76384965E-02 0.12499283E+03</pdfrwt>
<totfact> 0.10382337E+04</totfact>
</mgrwt>
</event>
<event>
 5    1  0.3487578E-002  0.1250012E+03  0.7818608E-02  0.1235067E+00
         -4   -1    0    0    0  501 -0.00000000000E+00  0.00000000000E+00  0.11079256416E+03  0.11079984284E+03  0.12700000000E+01 0.  1.
          4   -1    0    0  501    0  0.00000000000E+00 -0.00000000000E+00 -0.35238128562E+02  0.35261006857E+02  0.12700000000E+01 0.  1.
         25    2    1    2    0    0  0.00000000000E+00  0.00000000000E+00  0.75554435594E+02  0.14606084969E+03  0.12500119629E+03 0.  0.
    9000005    1    3    3    0    0  0.28724727558E+02  0.30656175701E+02  0.91836280708E+02  0.10099412625E+03  0.10000000000E+01 0.  0.
    9000005    1    3    3    0    0 -0.28724727558E+02 -0.30656175701E+02 -0.16281845114E+02  0.45066723447E+02  0.10000000000E+01 0.  0.
<mgrwt>
<rscale>  0 0.12500120E+03</rscale>
<asrwt>0</asrwt>
<pdfrwt beam="2">  1        4 0.54235704E-02 0.12500120E+03</pdfrwt>
<pdfrwt beam="1">  1       -4 0.17047329E-01 0.12500120E+03</pdfrwt>
<totfact> 0.10009209E+04</totfact>
</mgrwt>
</event>
<event>
 5    1  0.3487578E-002  0.1249932E+03  0.7818608E-02  0.1235080E+00
         -4   -1    0    0    0  501 -0.00000000000E+00  0.00000000000E+00  0.41549249234E+02  0.41568654199E+02  0.12700000000E+01 0.  1.
          4   -1    0    0  501    0  0.00000000000E+00 -0.00000000000E+00 -0.93959115468E+02  0.93967698064E+02  0.12700000000E+01 0.  1.
         25    2    1    2    0    0  0.00000000000E+00  0.00000000000E+00 -0.52409866234E+02  0.13553635226E+03  0.12499323464E+03 0.  0.
    9000005    1    3    3    0    0 -0.33427403232E+02  0.21657049702E+01 -0.83406251596E+02  0.89887064532E+02  0.10000000000E+01 0.  0.
    9000005    1    3    3    0    0  0.33427403232E+02 -0.21657049702E+01  0.30996385362E+02  0.45649287731E+02  0.10000000000E+01 0.  0.
<mgrwt>
<rscale>  0 0.12499323E+03</rscale>
<asrwt>0</asrwt>
<pdfrwt beam="2">  1        4 0.14457401E-01 0.12499323E+03</pdfrwt>
<pdfrwt beam="1">  1       -4 0.63943451E-02 0.12499323E+03</pdfrwt>
<totfact> 0.10228339E+04</totfact>
</mgrwt>
</event>
<event>
 5    1  0.3487578E-002  0.1250013E+03  0.7818608E-02  0.1235067E+00
         -4   -1    0    0    0  501 -0.00000000000E+00  0.00000000000E+00  0.55696537325E+01  0.57126125984E+01  0.12700000000E+01 0.  1.
          4   -1    0    0  501    0  0.00000000000E+00 -0.00000000000E+00 -0.69232956754E+03  0.69233073238E+03  0.12700000000E+01 0.  1.
         25    2    1    2    0    0  0.00000000000E+00  0.00000000000E+00 -0.68675991381E+03  0.69804334497E+03  0.12500132899E+03 0.  0.
    9000005    1    3    3    0    0  0.23150661126E+02 -0.26227295428E+02 -0.54207194268E+02  0.64523205488E+02  0.10000000000E+01 0.  0.
    9000005    1    3    3    0    0 -0.23150661126E+02  0.26227295428E+02 -0.63255271954E+03  0.63352013949E+03  0.10000000000E+01 0.  0.
<mgrwt>
<rscale>  0 0.12500133E+03</rscale>
<asrwt>0</asrwt>
<pdfrwt beam="2">  1        4 0.10652326E+00 0.12500133E+03</pdfrwt>
<pdfrwt beam="1">  1       -4 0.86795679E-03 0.12500133E+03</pdfrwt>
<totfact> 0.43188945E+03</totfact>
</mgrwt>
</event>
<event>
 5    1  0.3487578E-002  0.1250010E+03  0.7818608E-02  0.1235068E+00
         -4   -1    0    0    0  501 -0.00000000000E+00  0.00000000000E+00  0.14816406328E+03  0.14816950614E+03  0.12700000000E+01 0. -1.
          4   -1    0    0  501    0  0.00000000000E+00 -0.00000000000E+00 -0.26343564264E+02  0.26374159288E+02  0.12700000000E+01 0. -1.
         25    2    1    2    0    0  0.00000000000E+00  0.00000000000E+00  0.12182049902E+03  0.17454366542E+03  0.12500102863E+03 0.  0.
    9000005    1    3    3    0    0 -0.54974061896E+02 -0.23809394425E+02  0.85743070509E+02  0.10460357969E+03  0.10000000000E+01 0.  0.
    9000005    1    3    3    0    0  0.54974061896E+02  0.23809394425E+02  0.36077428511E+02  0.69940085732E+02  0.10000000000E+01 0.  0.
<mgrwt>
<rscale>  0 0.12500103E+03</rscale>
<asrwt>0</asrwt>
<pdfrwt beam="2">  1        4 0.40556282E-02 0.12500103E+03</pdfrwt>
<pdfrwt beam="1">  1       -4 0.22797243E-01 0.12500103E+03</pdfrwt>
<totfact> 0.94606300E+03</totfact>
</mgrwt>
</event>
<event>
 5    1  0.3487578E-002  0.1249996E+03  0.7818608E-02  0.1235070E+00
         -4   -1    0    0    0  501 -0.00000000000E+00  0.00000000000E+00  0.51824554706E+02  0.51840113527E+02  0.12700000000E+01 0.  1.
          4   -1    0    0  501    0  0.00000000000E+00 -0.00000000000E+00 -0.75341842614E+02  0.75352545733E+02  0.12700000000E+01 0.  1.
         25    2    1    2    0    0  0.00000000000E+00  0.00000000000E+00 -0.23517287908E+02  0.12719265926E+03  0.12499963896E+03 0.  0.
    9000005    1    3    3    0    0 -0.74486690643E+01  0.61863029670E+02 -0.69095013699E+01  0.62699747367E+02  0.10000000000E+01 0.  0.
    9000005    1    3    3    0    0  0.74486690643E+01 -0.61863029670E+02 -0.16607786538E+02  0.64492911893E+02  0.10000000000E+01 0.  0.
<mgrwt>
<rscale>  0 0.12499964E+03</rscale>
<asrwt>0</asrwt>
<pdfrwt beam="2">  1        4 0.11593073E-01 0.12499964E+03</pdfrwt>
<pdfrwt beam="1">  1       -4 0.79750286E-02 0.12499964E+03</pdfrwt>
<totfact> 0.10405048E+04</totfact>
</mgrwt>
</event>
<event>
 5    1  0.3487578E-002  0.1249999E+03  0.7818608E-02  0.1235069E+00
          4   -1    0    0  501    0  0.00000000000E+00  0.00000000000E+00  0.17557721004E+02  0.17603592442E+02  0.12700000000E+01 0.  1.
         -4   -1    0    0    0  501 -0.00000000000E+00 -0.00000000000E+00 -0.22214207604E+03  0.22214570634E+03  0.12700000000E+01 0.  1.
         25    2    1    2    0    0  0.00000000000E+00  0.00000000000E+00 -0.20458435503E+03  0.23974929878E+03  0.12499987177E+03 0.  0.
    9000005    1    3    3    0    0  0.18271596940E+02 -0.81990968147E+01  0.11245520727E+02  0.22989958237E+02  0.10000000000E+01 0.  0.
    9000005    1    3    3    0    0 -0.18271596940E+02  0.81990968147E+01 -0.21582987576E+03  0.21675934055E+03  0.10000000000E+01 0.  0.
<mgrwt>
<rscale>  0 0.12499987E+03</rscale>
<asrwt>0</asrwt>
<pdfrwt beam="1">  1        4 0.27049958E-02 0.12499987E+03</pdfrwt>
<pdfrwt beam="2">  1       -4 0.34179510E-01 0.12499987E+03</pdfrwt>
<totfact> 0.83834960E+03</totfact>
</mgrwt>
</event>
<event>
 5    1  0.3487578E-002  0.1249930E+03  0.7818608E-02  0.1235080E+00
         -4   -1    0    0    0  501 -0.00000000000E+00  0.00000000000E+00  0.30345181458E+02  0.30371745714E+02  0.12700000000E+01 0.  1.
          4   -1    0    0  501    0  0.00000000000E+00 -0.00000000000E+00 -0.12862678912E+03  0.12863305865E+03  0.12700000000E+01 0.  1.
         25    2    1    2    0    0  0.00000000000E+00  0.00000000000E+00 -0.98281607659E+02  0.15900480437E+03  0.12499301344E+03 0.  0.
    9000005    1    3    3    0    0  0.69948852886E+01 -0.17180493575E+02  0.26768175203E+02  0.32582709884E+02  0.10000000000E+01 0.  0.
    9000005    1    3    3    0    0 -0.69948852886E+01  0.17180493575E+02 -0.12504978286E+03  0.12642209448E+03  0.10000000000E+01 0.  0.
<mgrwt>
<rscale>  0 0.12499301E+03</rscale>
<asrwt>0</asrwt>
<pdfrwt beam="2">  1        4 0.19791262E-01 0.12499301E+03</pdfrwt>
<pdfrwt beam="1">  1       -4 0.46710152E-02 0.12499301E+03</pdfrwt>
<totfact> 0.97550315E+03</totfact>
</mgrwt>
</event>
<event>
 5    1  0.3487578E-002  0.1249940E+03  0.7818608E-02  0.1235079E+00
         -4   -1    0    0    0  501 -0.00000000000E+00  0.00000000000E+00  0.23283166069E+03  0.23283512433E+03  0.12700000000E+01 0.  1.
          4   -1    0    0  501    0  0.00000000000E+00 -0.00000000000E+00 -0.16747895281E+02  0.16795978577E+02  0.12700000000E+01 0.  1.
         25    2    1    2    0    0  0.00000000000E+00  0.00000000000E+00  0.21608376541E+03  0.24963110290E+03  0.12499397531E+03 0.  0.
    9000005    1    3    3    0    0 -0.91874191372E+01  0.23491728908E+02  0.22222206539E+03  0.22365132761E+03  0.10000000000E+01 0.  0.
    9000005    1    3    3    0    0  0.91874191372E+01 -0.23491728908E+02 -0.61382999794E+01  0.25979775290E+02  0.10000000000E+01 0.  0.
<mgrwt>
<rscale>  0 0.12499398E+03</rscale>
<asrwt>0</asrwt>
<pdfrwt beam="2">  1        4 0.25805643E-02 0.12499398E+03</pdfrwt>
<pdfrwt beam="1">  1       -4 0.35824223E-01 0.12499398E+03</pdfrwt>
<totfact> 0.82394629E+03</totfact>
</mgrwt>
</event>
<event>
 5    1  0.3487578E-002  0.1250025E+03  0.7818608E-02  0.1235065E+00
         -4   -1    0    0    0  501 -0.00000000000E+00  0.00000000000E+00  0.89207331849E+03  0.89207422250E+03  0.12700000000E+01 0. -1.
          4   -1    0    0  501    0  0.00000000000E+00 -0.00000000000E+00 -0.42860144297E+01  0.44702147254E+01  0.12700000000E+01 0. -1.
         25    2    1    2    0    0  0.00000000000E+00  0.00000000000E+00  0.88778730406E+03  0.89654443723E+03  0.12500252270E+03 0.  0.
    9000005    1    3    3    0    0  0.16169338082E+02  0.46637609885E+02  0.16901045063E+03  0.17607398040E+03  0.10000000000E+01 0.  0.
    9000005    1    3    3    0    0 -0.16169338082E+02 -0.46637609885E+02  0.71877685342E+03  0.72047045683E+03  0.10000000000E+01 0.  0.
<mgrwt>
<rscale>  0 0.12500252E+03</rscale>
<asrwt>0</asrwt>
<pdfrwt beam="2">  1        4 0.67362484E-03 0.12500252E+03</pdfrwt>
<pdfrwt beam="1">  1       -4 0.13725645E+00 0.12500252E+03</pdfrwt>
<totfact> 0.34290650E+03</totfact>
</mgrwt>
</event>
<event>
 5    1  0.3487578E-002  0.1249927E+03  0.7818608E-02  0.1235081E+00
         -4   -1    0    0    0  501 -0.00000000000E+00  0.00000000000E+00  0.20268057578E+02  0.20307807808E+02  0.12700000000E+01 0. -1.
          4   -1    0    0  501    0  0.00000000000E+00 -0.00000000000E+00 -0.19247623692E+03  0.19248042675E+03  0.12700000000E+01 0. -1.
         25    2    1    2    0    0  0.00000000000E+00  0.00000000000E+00 -0.17220817935E+03  0.21278823455E+03  0.12499270271E+03 0.  0.
    9000005    1    3    3    0    0 -0.36153527472E+02 -0.50163237241E+02 -0.10146031485E+03  0.11882181369E+03  0.10000000000E+01 0.  0.
    9000005    1    3    3    0    0  0.36153527472E+02  0.50163237241E+02 -0.70747864497E+02  0.93966420865E+02  0.10000000000E+01 0.  0.
<mgrwt>
<rscale>  0 0.12499270E+03</rscale>
<asrwt>0</asrwt>
<pdfrwt beam="2">  1        4 0.29615108E-01 0.12499270E+03</pdfrwt>
<pdfrwt beam="1">  1       -4 0.31215428E-02 0.12499270E+03</pdfrwt>
<totfact> 0.88036899E+03</totfact>
</mgrwt>
</event>
<event>
 5    1  0.3487578E-002  0.1249975E+03  0.7818608E-02  0.1235073E+00
         -4   -1    0    0    0  501 -0.00000000000E+00  0.00000000000E+00  0.12801493454E+03  0.12802123404E+03  0.12700000000E+01 0.  1.
          4   -1    0    0  501    0  0.00000000000E+00 -0.00000000000E+00 -0.30492531368E+02  0.30518967369E+02  0.12700000000E+01 0.  1.
         25    2    1    2    0    0  0.00000000000E+00  0.00000000000E+00  0.97522403171E+02  0.15854020141E+03  0.12499750535E+03 0.  0.
    9000005    1    3    3    0    0  0.36368992938E+02 -0.35160318626E+02  0.95296613987E+02  0.10789530245E+03  0.10000000000E+01 0.  0.
    9000005    1    3    3    0    0 -0.36368992938E+02  0.35160318626E+02  0.22257891839E+01  0.50644898960E+02  0.10000000000E+01 0.  0.
<mgrwt>
<rscale>  0 0.12499751E+03</rscale>
<asrwt>0</asrwt>
<pdfrwt beam="2">  1        4 0.46936768E-02 0.12499751E+03</pdfrwt>
<pdfrwt beam="1">  1       -4 0.19697123E-01 0.12499751E+03</pdfrwt>
<totfact> 0.97630438E+03</totfact>
</mgrwt>
</event>
<event>
 5    1  0.3487578E-002  0.1250031E+03  0.7818608E-02  0.1235064E+00
         -4   -1    0    0    0  501 -0.00000000000E+00  0.00000000000E+00  0.37353435616E+02  0.37375019095E+02  0.12700000000E+01 0. -1.
          4   -1    0    0  501    0  0.00000000000E+00 -0.00000000000E+00 -0.10452495088E+03  0.10453266598E+03  0.12700000000E+01 0. -1.
         25    2    1    2    0    0  0.00000000000E+00  0.00000000000E+00 -0.67171515261E+02  0.14190768507E+03  0.12500311444E+03 0.  0.
    9000005    1    3    3    0    0 -0.43218783100E+02 -0.35497714485E+02 -0.19313986177E+01  0.55970360432E+02  0.10000000000E+01 0.  0.
    9000005    1    3    3    0    0  0.43218783100E+02  0.35497714485E+02 -0.65240116644E+02  0.85937324638E+02  0.10000000000E+01 0.  0.
<mgrwt>
<rscale>  0 0.12500311E+03</rscale>
<asrwt>0</asrwt>
<pdfrwt beam="2">  1        4 0.16083015E-01 0.12500311E+03</pdfrwt>
<pdfrwt beam="1">  1       -4 0.57489362E-02 0.12500311E+03</pdfrwt>
<totfact> 0.10093492E+04</totfact>
</mgrwt>
</event>
<event>
 5    1  0.3487578E-002  0.1250004E+03  0.7818608E-02  0.1235069E+00
         -4   -1    0    0    0  501 -0.00000000000E+00  0.00000000000E+00  0.24782931361E+03  0.24783256764E+03  0.12700000000E+01 0.  1.
          4   -1    0    0  501    0  0.00000000000E+00 -0.00000000000E+00 -0.15733004960E+02  0.15784180215E+02  0.12700000000E+01 0.  1.
         25    2    1    2    0    0  0.00000000000E+00  0.00000000000E+00  0.23209630865E+03  0.26361674786E+03  0.12500037305E+03 0.  0.
    9000005    1    3    3    0    0  0.22980768375E+02 -0.41011775674E+02  0.29217891098E+02  0.55360334348E+02  0.10000000000E+01 0.  0.
    9000005    1    3    3    0    0 -0.22980768375E+02  0.41011775674E+02  0.20287841755E+03  0.20825641351E+03  0.10000000000E+01 0.  0.
<mgrwt>
<rscale>  0 0.12500037E+03</rscale>
<asrwt>0</asrwt>
<pdfrwt beam="2">  1        4 0.24246491E-02 0.12500037E+03</pdfrwt>
<pdfrwt beam="1">  1       -4 0.38131774E-01 0.12500037E+03</pdfrwt>
<totfact> 0.80400497E+03</totfact>
</mgrwt>
</event>
<event>
 5    1  0.3487578E-002  0.1249923E+03  0.7818608E-02  0.1235081E+00
          4   -1    0    0  501    0  0.00000000000E+00  0.00000000000E+00  0.20398922727E+02  0.20438418442E+02  0.12700000000E+01 0.  1.
         -4   -1    0    0    0  501 -0.00000000000E+00 -0.00000000000E+00 -0.19124254823E+03  0.19124676508E+03  0.12700000000E+01 0.  1.
         25    2    1    2    0    0  0.00000000000E+00  0.00000000000E+00 -0.17084362550E+03  0.21168518352E+03  0.12499228995E+03 0.  0.
    9000005    1    3    3    0    0 -0.34496458099E+02 -0.17057186966E+01  0.27724455122E+01  0.34664124852E+02  0.10000000000E+01 0.  0.
    9000005    1    3    3    0    0  0.34496458099E+02  0.17057186966E+01 -0.17361607101E+03  0.17702105866E+03  0.10000000000E+01 0.  0.
<mgrwt>
<rscale>  0 0.12499229E+03</rscale>
<asrwt>0</asrwt>
<pdfrwt beam="1">  1        4 0.31416584E-02 0.12499229E+03</pdfrwt>
<pdfrwt beam="2">  1       -4 0.29425292E-01 0.12499229E+03</pdfrwt>
<totfact> 0.88216609E+03</totfact>
</mgrwt>
</event>
<event>
 5    1  0.3487578E-002  0.1250099E+03  0.7818608E-02  0.1235054E+00
         -4   -1    0    0    0  501 -0.00000000000E+00  0.00000000000E+00  0.12150911031E+03  0.12151574708E+03  0.12700000000E+01 0. -1.
          4   -1    0    0  501    0  0.00000000000E+00 -0.00000000000E+00 -0.32132843493E+02  0.32157931074E+02  0.12700000000E+01 0. -1.
         25    2    1    2    0    0  0.00000000000E+00  0.00000000000E+00  0.89376266818E+02  0.15367367815E+03  0.12500992875E+03 0.  0.
    9000005    1    3    3    0    0 -0.49508388381E+02 -0.18616500203E+02  0.37651600417E+01  0.53036129479E+02  0.10000000000E+01 0.  0.
    9000005    1    3    3    0    0  0.49508388381E+02  0.18616500203E+02  0.85611106776E+02  0.10063754868E+03  0.10000000000E+01 0.  0.
<mgrwt>
<rscale>  0 0.12500993E+03</rscale>
<asrwt>0</asrwt>
<pdfrwt beam="2">  1        4 0.49459547E-02 0.12500993E+03</pdfrwt>
<pdfrwt beam="1">  1       -4 0.18696150E-01 0.12500993E+03</pdfrwt>
<totfact> 0.98554366E+03</totfact>
</mgrwt>
</event>
<event>
 5    1  0.3487578E-002  0.1250020E+03  0.7818608E-02  0.1235066E+00
          4   -1    0    0  501    0  0.00000000000E+00  0.00000000000E+00  0.43006096235E+02  0.43024844142E+02  0.12700000000E+01 0. -1.
         -4   -1    0    0    0  501 -0.00000000000E+00 -0.00000000000E+00 -0.90790013907E+02  0.90798896057E+02  0.12700000000E+01 0. -1.
         25    2    1    2    0    0  0.00000000000E+00  0.00000000000E+00 -0.47783917671E+02  0.13382374020E+03  0.12500196260E+03 0.  0.
    9000005    1    3    3    0    0 -0.41754490096E+02 -0.23401584351E+02  0.19121919191E+02  0.51553073496E+02  0.10000000000E+01 0.  0.
    9000005    1    3    3    0    0  0.41754490096E+02  0.23401584351E+02 -0.66905836863E+02  0.82270666702E+02  0.10000000000E+01 0.  0.
<mgrwt>
<rscale>  0 0.12500196E+03</rscale>
<asrwt>0</asrwt>
<pdfrwt beam="1">  1        4 0.66184479E-02 0.12500196E+03</pdfrwt>
<pdfrwt beam="2">  1       -4 0.13969820E-01 0.12500196E+03</pdfrwt>
<totfact> 0.10262469E+04</totfact>
</mgrwt>
</event>
<event>
 5    1  0.3487578E-002  0.1250009E+03  0.7818608E-02  0.1235068E+00
         -4   -1    0    0    0  501 -0.00000000000E+00  0.00000000000E+00  0.22177282338E+03  0.22177645973E+03  0.12700000000E+01 0. -1.
          4   -1    0    0  501    0  0.00000000000E+00 -0.00000000000E+00 -0.17587318184E+02  0.17633112627E+02  0.12700000000E+01 0. -1.
         25    2    1    2    0    0  0.00000000000E+00  0.00000000000E+00  0.20418550519E+03  0.23940957235E+03  0.12500089121E+03 0.  0.
    9000005    1    3    3    0    0 -0.60283845680E+02 -0.49866873356E+01  0.72034923543E+02  0.94069332465E+02  0.10000000000E+01 0.  0.
    9000005    1    3    3    0    0  0.60283845680E+02  0.49866873356E+01  0.13215058165E+03  0.14534023989E+03  0.10000000000E+01 0.  0.
<mgrwt>
<rscale>  0 0.12500089E+03</rscale>
<asrwt>0</asrwt>
<pdfrwt beam="2">  1        4 0.27095435E-02 0.12500089E+03</pdfrwt>
<pdfrwt beam="1">  1       -4 0.34122699E-01 0.12500089E+03</pdfrwt>
<totfact> 0.83883711E+03</totfact>
</mgrwt>
</event>
<event>
 5    1  0.3487578E-002  0.1249951E+03  0.7818608E-02  0.1235077E+00
         -4   -1    0    0    0  501 -0.00000000000E+00  0.00000000000E+00  0.13369646931E+03  0.13370250112E+03  0.12700000000E+01 0.  1.
          4   -1    0    0  501    0  0.00000000000E+00 -0.00000000000E+00 -0.29194495102E+02  0.29222105404E+02  0.12700000000E+01 0.  1.
         25    2    1    2    0    0  0.00000000000E+00  0.00000000000E+00  0.10450197421E+03  0.16292460653E+03  0.12499505909E+03 0.  0.
    9000005    1    3    3    0    0  0.34914745729E+02  0.98145655336E+01  0.11858070773E+03  0.12400705388E+03  0.10000000000E+01 0.  0.
    9000005    1    3    3    0    0 -0.34914745729E+02 -0.98145655336E+01 -0.14078733527E+02  0.38917552642E+02  0.10000000000E+01 0.  0.
<mgrwt>
<rscale>  0 0.12499506E+03</rscale>
<asrwt>0</asrwt>
<pdfrwt beam="2">  1        4 0.44940486E-02 0.12499506E+03</pdfrwt>
<pdfrwt beam="1">  1       -4 0.20571276E-01 0.12499506E+03</pdfrwt>
<totfact> 0.96792634E+03</totfact>
</mgrwt>
</event>
<event>
 5    1  0.3487578E-002  0.1250025E+03  0.7818608E-02  0.1235065E+00
          4   -1    0    0  501    0  0.00000000000E+00  0.00000000000E+00  0.45225194343E+02  0.45243022703E+02  0.12700000000E+01 0. -1.
         -4   -1    0    0    0  501 -0.00000000000E+00 -0.00000000000E+00 -0.86337210582E+02  0.86346550777E+02  0.12700000000E+01 0. -1.
         25    2    1    2    0    0  0.00000000000E+00  0.00000000000E+00 -0.41112016240E+02  0.13158957348E+03  0.12500247185E+03 0.  0.
    9000005    1    3    3    0    0 -0.12107328526E+02 -0.17382441261E+02  0.41335590699E+02  0.46458236371E+02  0.10000000000E+01 0.  0.
    9000005    1    3    3    0    0  0.12107328526E+02  0.17382441261E+02 -0.82447606938E+02  0.85131337110E+02  0.10000000000E+01 0.  0.
<mgrwt>
<rscale>  0 0.12500247E+03</rscale>
<asrwt>0</asrwt>
<pdfrwt beam="1">  1        4 0.69598121E-02 0.12500247E+03</pdfrwt>
<pdfrwt beam="2">  1       -4 0.13284738E-01 0.12500247E+03</pdfrwt>
<totfact> 0.10309891E+04</totfact>
</mgrwt>
</event>
<event>
 5    1  0.3487578E-002  0.1250058E+03  0.7818608E-02  0.1235060E+00
         -4   -1    0    0    0  501 -0.00000000000E+00  0.00000000000E+00  0.45943327986E+02  0.45960877782E+02  0.12700000000E+01 0.  1.
          4   -1    0    0  501    0  0.00000000000E+00 -0.00000000000E+00 -0.84992571154E+02  0.85002059100E+02  0.12700000000E+01 0.  1.
         25    2    1    2    0    0  0.00000000000E+00  0.00000000000E+00 -0.39049243167E+02  0.13096293688E+03  0.12500578965E+03 0.  0.
    9000005    1    3    3    0    0  0.48787153974E+02 -0.35106644936E+02 -0.15932194409E+01  0.60134858940E+02  0.10000000000E+01 0.  0.
    9000005    1    3    3    0    0 -0.48787153974E+02  0.35106644936E+02 -0.37456023726E+02  0.70828077942E+02  0.10000000000E+01 0.  0.
<mgrwt>
<rscale>  0 0.12500579E+03</rscale>
<asrwt>0</asrwt>
<pdfrwt beam="2">  1        4 0.13077860E-01 0.12500579E+03</pdfrwt>
<pdfrwt beam="1">  1       -4 0.70702842E-02 0.12500579E+03</pdfrwt>
<totfact> 0.10322536E+04</totfact>
</mgrwt>
</event>
<event>
 5    1  0.3487578E-002  0.1250003E+03  0.7818608E-02  0.1235069E+00
          4   -1    0    0  501    0  0.00000000000E+00  0.00000000000E+00  0.23291586321E+03  0.23291932559E+03  0.12700000000E+01 0.  1.
         -4   -1    0    0    0  501 -0.00000000000E+00 -0.00000000000E+00 -0.16743522685E+02  0.16791618502E+02  0.12700000000E+01 0.  1.
         25    2    1    2    0    0  0.00000000000E+00  0.00000000000E+00  0.21617234053E+03  0.24971094410E+03  0.12500029917E+03 0.  0.
    9000005    1    3    3    0    0 -0.38389246611E+02  0.30927987811E+02  0.31363863342E+02  0.58437715639E+02  0.10000000000E+01 0.  0.
    9000005    1    3    3    0    0  0.38389246611E+02 -0.30927987811E+02  0.18480847718E+03  0.19127322846E+03  0.10000000000E+01 0.  0.
<mgrwt>
<rscale>  0 0.12500030E+03</rscale>
<asrwt>0</asrwt>
<pdfrwt beam="1">  1        4 0.35837171E-01 0.12500030E+03</pdfrwt>
<pdfrwt beam="2">  1       -4 0.25798929E-02 0.12500030E+03</pdfrwt>
<totfact> 0.82371477E+03</totfact>
</mgrwt>
</event>
<event>
 4    1  0.3487578E-002  0.1246346E+03  0.7818608E-02  0.1235641E+00
         -4   -1    0    0    0  501 -0.00000000000E+00  0.00000000000E+00  0.40763448433E+02  0.40783227289E+02  0.12700000000E+01 0. -1.
          4   -1    0    0  501    0  0.00000000000E+00 -0.00000000000E+00 -0.95220673161E+02  0.95229142059E+02  0.12700000000E+01 0. -1.
    9000005    1    1    2    0    0 -0.48322068833E+02  0.12914530667E+02 -0.67777556876E+02  0.84241347655E+02  0.10000000000E+01 0.  0.
    9000005    1    1    2    0    0  0.48322068833E+02 -0.12914530667E+02  0.13320332147E+02  0.51771021694E+02  0.10000000000E+01 0.  0.
<mgrwt>
<rscale>  0 0.12463457E+03</rscale>
<asrwt>0</asrwt>
<pdfrwt beam="2">  1        4 0.14651507E-01 0.12463457E+03</pdfrwt>
<pdfrwt beam="1">  1       -4 0.62734727E-02 0.12463457E+03</pdfrwt>
<totfact> 0.10301425E+04</totfact>
</mgrwt>
</event>
<event>
 5    1  0.3487578E-002  0.1249988E+03  0.7818608E-02  0.1235071E+00
         -4   -1    0    0    0  501 -0.00000000000E+00  0.00000000000E+00  0.12973930682E+03  0.12974552260E+03  0.12700000000E+01 0.  1.
          4   -1    0    0  501    0  0.00000000000E+00 -0.00000000000E+00 -0.30087530214E+02  0.30114321748E+02  0.12700000000E+01 0.  1.
         25    2    1    2    0    0  0.00000000000E+00  0.00000000000E+00  0.99651776606E+02  0.15985984435E+03  0.12499877301E+03 0.  0.
    9000005    1    3    3    0    0 -0.35945386635E+02 -0.43876868978E+02  0.16282764349E+02  0.59020156443E+02  0.10000000000E+01 0.  0.
    9000005    1    3    3    0    0  0.35945386635E+02  0.43876868978E+02  0.83369012257E+02  0.10083968790E+03  0.10000000000E+01 0.  0.
<mgrwt>
<rscale>  0 0.12499877E+03</rscale>
<asrwt>0</asrwt>
<pdfrwt beam="2">  1        4 0.46313898E-02 0.12499877E+03</pdfrwt>
<pdfrwt beam="1">  1       -4 0.19962432E-01 0.12499877E+03</pdfrwt>
<totfact> 0.97372498E+03</totfact>
</mgrwt>
</event>
<event>
 5    1  0.3487578E-002  0.1250003E+03  0.7818608E-02  0.1235069E+00
         -4   -1    0    0    0  501 -0.00000000000E+00  0.00000000000E+00  0.30827391824E+02  0.30853540910E+02  0.12700000000E+01 0. -1.
          4   -1    0    0  501    0  0.00000000000E+00 -0.00000000000E+00 -0.12663122063E+03  0.12663758896E+03  0.12700000000E+01 0. -1.
         25    2    1    2    0    0  0.00000000000E+00  0.00000000000E+00 -0.95803828801E+02  0.15749112987E+03  0.12500032950E+03 0.  0.
    9000005    1    3    3    0    0  0.11718918541E+02  0.14123302768E+00 -0.12524039560E+03  0.12579153266E+03  0.10000000000E+01 0.  0.
    9000005    1    3    3    0    0 -0.11718918541E+02 -0.14123302768E+00  0.29436566798E+02  0.31699597211E+02  0.10000000000E+01 0.  0.
<mgrwt>
<rscale>  0 0.12500033E+03</rscale>
<asrwt>0</asrwt>
<pdfrwt beam="2">  1        4 0.19484227E-01 0.12500033E+03</pdfrwt>
<pdfrwt beam="1">  1       -4 0.47451771E-02 0.12500033E+03</pdfrwt>
<totfact> 0.97827943E+03</totfact>
</mgrwt>
</event>
<event>
 5    1  0.3487578E-002  0.1249995E+03  0.7818608E-02  0.1235070E+00
          4   -1    0    0  501    0  0.00000000000E+00  0.00000000000E+00  0.17758246717E+02  0.17803601502E+02  0.12700000000E+01 0.  1.
         -4   -1    0    0    0  501 -0.00000000000E+00 -0.00000000000E+00 -0.21963872734E+03  0.21964239902E+03  0.12700000000E+01 0.  1.
         25    2    1    2    0    0  0.00000000000E+00  0.00000000000E+00 -0.20188048062E+03  0.23744600052E+03  0.12499949883E+03 0.  0.
    9000005    1    3    3    0    0  0.12695232699E+01  0.11393742263E+02  0.15752927654E+02  0.19508556630E+02  0.10000000000E+01 0.  0.
    9000005    1    3    3    0    0 -0.12695232699E+01 -0.11393742263E+02 -0.21763340828E+03  0.21793744389E+03  0.10000000000E+01 0.  0.
<mgrwt>
<rscale>  0 0.12499950E+03</rscale>
<asrwt>0</asrwt>
<pdfrwt beam="1">  1        4 0.27358094E-02 0.12499950E+03</pdfrwt>
<pdfrwt beam="2">  1       -4 0.33794343E-01 0.12499950E+03</pdfrwt>
<totfact> 0.84180158E+03</totfact>
</mgrwt>
</event>
<event>
 5    1  0.3487578E-002  0.1250015E+03  0.7818608E-02  0.1235067E+00
          4   -1    0    0  501    0  0.00000000000E+00  0.00000000000E+00  0.11395384101E+03  0.11396091778E+03  0.12700000000E+01 0.  1.
         -4   -1    0    0    0  501 -0.00000000000E+00 -0.00000000000E+00 -0.34260171537E+02  0.34283702450E+02  0.12700000000E+01 0.  1.
         25    2    1    2    0    0  0.00000000000E+00  0.00000000000E+00  0.79693669474E+02  0.14824462023E+03  0.12500154588E+03 0.  0.
    9000005    1    3    3    0    0  0.49392913451E+02  0.10548852228E+02 -0.37985557051E+01  0.50659324985E+02  0.10000000000E+01 0.  0.
    9000005    1    3    3    0    0 -0.49392913451E+02 -0.10548852228E+02  0.83492225179E+02  0.97585295244E+02  0.10000000000E+01 0.  0.
<mgrwt>
<rscale>  0 0.12500155E+03</rscale>
<asrwt>0</asrwt>
<pdfrwt beam="1">  1        4 0.17533714E-01 0.12500155E+03</pdfrwt>
<pdfrwt beam="2">  1       -4 0.52731501E-02 0.12500155E+03</pdfrwt>
<totfact> 0.99651296E+03</totfact>
</mgrwt>
</event>
<event>
 5    1  0.3487578E-002  0.1249872E+03  0.7818608E-02  0.1235089E+00
          4   -1    0    0  501    0  0.00000000000E+00  0.00000000000E+00  0.10330189335E+02  0.10407963859E+02  0.12700000000E+01 0.  1.
         -4   -1    0    0    0  501 -0.00000000000E+00 -0.00000000000E+00 -0.37656497396E+03  0.37656711555E+03  0.12700000000E+01 0.  1.
         25    2    1    2    0    0  0.00000000000E+00  0.00000000000E+00 -0.36623478462E+03  0.38697507941E+03  0.12498717780E+03 0.  0.
    9000005    1    3    3    0    0  0.54490774143E-01 -0.40640086127E+02 -0.36163308905E+02  0.54409599159E+02  0.10000000000E+01 0.  0.
    9000005    1    3    3    0    0 -0.54490774143E-01  0.40640086127E+02 -0.33007147572E+03  0.33256548025E+03  0.10000000000E+01 0.  0.
<mgrwt>
<rscale>  0 0.12498718E+03</rscale>
<asrwt>0</asrwt>
<pdfrwt beam="1">  1        4 0.15954076E-02 0.12498718E+03</pdfrwt>
<pdfrwt beam="2">  1       -4 0.57939210E-01 0.12498718E+03</pdfrwt>
<totfact> 0.65858259E+03</totfact>
</mgrwt>
</event>
<event>
 5    1  0.3487578E-002  0.1249980E+03  0.7818608E-02  0.1235072E+00
          4   -1    0    0  501    0  0.00000000000E+00  0.00000000000E+00  0.24593488944E+01  0.27679048005E+01  0.12700000000E+01 0. -1.
         -4   -1    0    0    0  501 -0.00000000000E+00 -0.00000000000E+00 -0.14942137158E+04  0.14942142555E+04  0.12700000000E+01 0. -1.
         25    2    1    2    0    0  0.00000000000E+00  0.00000000000E+00 -0.14917543669E+04  0.14969821603E+04  0.12499798847E+03 0.  0.
    9000005    1    3    3    0    0 -0.57954285904E+02 -0.11157686609E+02 -0.99187675267E+03  0.99363156437E+03  0.10000000000E+01 0.  0.
    9000005    1    3    3    0    0  0.57954285904E+02  0.11157686609E+02 -0.49987761425E+03  0.50335059596E+03  0.10000000000E+01 0.  0.
<mgrwt>
<rscale>  0 0.12499799E+03</rscale>
<asrwt>0</asrwt>
<pdfrwt beam="1">  1        4 0.40213915E-03 0.12499799E+03</pdfrwt>
<pdfrwt beam="2">  1       -4 0.22990213E+00 0.12499799E+03</pdfrwt>
<totfact> 0.17990733E+03</totfact>
</mgrwt>
</event>
<event>
 5    1  0.3487578E-002  0.1250036E+03  0.7818608E-02  0.1235064E+00
          4   -1    0    0  501    0  0.00000000000E+00  0.00000000000E+00  0.48361096102E+02  0.48377768822E+02  0.12700000000E+01 0.  1.
         -4   -1    0    0    0  501 -0.00000000000E+00 -0.00000000000E+00 -0.80741691063E+02  0.80751678470E+02  0.12700000000E+01 0.  1.
         25    2    1    2    0    0  0.00000000000E+00  0.00000000000E+00 -0.32380594961E+02  0.12912944729E+03  0.12500364486E+03 0.  0.
    9000005    1    3    3    0    0 -0.34968309304E+02  0.51690864225E+02 -0.19577186212E+02  0.65414022349E+02  0.10000000000E+01 0.  0.
    9000005    1    3    3    0    0  0.34968309304E+02 -0.51690864225E+02 -0.12803408749E+02  0.63715424942E+02  0.10000000000E+01 0.  0.
<mgrwt>
<rscale>  0 0.12500364E+03</rscale>
<asrwt>0</asrwt>
<pdfrwt beam="1">  1        4 0.74422195E-02 0.12500364E+03</pdfrwt>
<pdfrwt beam="2">  1       -4 0.12423849E-01 0.12500364E+03</pdfrwt>
<totfact> 0.10362313E+04</totfact>
</mgrwt>
</event>
<event>
 5    1  0.3487578E-002  0.1250040E+03  0.7818608E-02  0.1235063E+00
         -4   -1    0    0    0  501 -0.00000000000E+00  0.00000000000E+00  0.80224958433E+01  0.81223974020E+01  0.12700000000E+01 0.  1.
          4   -1    0    0  501    0  0.00000000000E+00 -0.00000000000E+00 -0.48382972150E+03  0.48383138831E+03  0.12700000000E+01 0.  1.
         25    2    1    2    0    0  0.00000000000E+00  0.00000000000E+00 -0.47580722566E+03  0.49195378571E+03  0.12500404506E+03 0.  0.
    9000005    1    3    3    0    0 -0.31654928299E+02  0.44246017457E+02 -0.11687437040E+03  0.12891998682E+03  0.10000000000E+01 0.  0.
    9000005    1    3    3    0    0  0.31654928299E+02 -0.44246017457E+02 -0.35893285526E+03  0.36303379889E+03  0.10000000000E+01 0.  0.
<mgrwt>
<rscale>  0 0.12500405E+03</rscale>
<asrwt>0</asrwt>
<pdfrwt beam="2">  1        4 0.74443132E-01 0.12500405E+03</pdfrwt>
<pdfrwt beam="1">  1       -4 0.12420435E-02 0.12500405E+03</pdfrwt>
<totfact> 0.56489087E+03</totfact>
</mgrwt>
</event>
<event>
 5    1  0.3487578E-002  0.1249992E+03  0.7818608E-02  0.1235071E+00
         -4   -1    0    0    0  501 -0.00000000000E+00  0.00000000000E+00  0.14311846255E+04  0.14311851890E+04  0.12700000000E+01 0. -1.
          4   -1    0    0  501    0  0.00000000000E+00 -0.00000000000E+00 -0.25810148447E+01  0.28765496048E+01  0.12700000000E+01 0. -1.
         25    2    1    2    0    0  0.00000000000E+00  0.00000000000E+00  0.14286036106E+04  0.14340617386E+04  0.12499917483E+03 0.  0.
    9000005    1    3    3    0    0  0.13021169654E+02  0.60116831808E+02  0.58778370287E+03  0.59099430258E+03  0.10000000000E+01 0.  0.
    9000005    1    3    3    0    0 -0.13021169654E+02 -0.60116831808E+02  0.84081990776E+03  0.84306743598E+03  0.10000000000E+01 0.  0.
<mgrwt>
<rscale>  0 0.12499917E+03</rscale>
<asrwt>0</asrwt>
<pdfrwt beam="2">  1        4 0.41985482E-03 0.12499917E+03</pdfrwt>
<pdfrwt beam="1">  1       -4 0.22020564E+00 0.12499917E+03</pdfrwt>
<totfact> 0.19261840E+03</totfact>
</mgrwt>
</event>
<event>
 5    1  0.3487578E-002  0.1250014E+03  0.7818608E-02  0.1235067E+00
          4   -1    0    0  501    0  0.00000000000E+00  0.00000000000E+00  0.93154915909E+02  0.93163572591E+02  0.12700000000E+01 0.  1.
         -4   -1    0    0    0  501 -0.00000000000E+00 -0.00000000000E+00 -0.41913551203E+02  0.41932787582E+02  0.12700000000E+01 0.  1.
         25    2    1    2    0    0  0.00000000000E+00  0.00000000000E+00  0.51241364706E+02  0.13509636017E+03  0.12500139629E+03 0.  0.
    9000005    1    3    3    0    0 -0.39207131765E+02  0.28576739106E+02  0.68190893415E+02  0.83694845385E+02  0.10000000000E+01 0.  0.
    9000005    1    3    3    0    0  0.39207131765E+02 -0.28576739106E+02 -0.16949528709E+02  0.51401514789E+02  0.10000000000E+01 0.  0.
<mgrwt>
<rscale>  0 0.12500140E+03</rscale>
<asrwt>0</asrwt>
<pdfrwt beam="1">  1        4 0.14333671E-01 0.12500140E+03</pdfrwt>
<pdfrwt beam="2">  1       -4 0.64503843E-02 0.12500140E+03</pdfrwt>
<totfact> 0.10235718E+04</totfact>
</mgrwt>
</event>
<event>
 5    1  0.3487578E-002  0.1249954E+03  0.7818608E-02  0.1235077E+00
         -4   -1    0    0    0  501 -0.00000000000E+00  0.00000000000E+00  0.80806341711E+01  0.81798257077E+01  0.12700000000E+01 0. -1.
          4   -1    0    0  501    0  0.00000000000E+00 -0.00000000000E+00 -0.48032430583E+03  0.48032598480E+03  0.12700000000E+01 0. -1.
         25    2    1    2    0    0  0.00000000000E+00  0.00000000000E+00 -0.47224367166E+03  0.48850581051E+03  0.12499536581E+03 0.  0.
    9000005    1    3    3    0    0 -0.32308854143E+01  0.47504500112E+02 -0.39428746662E+03  0.39715327329E+03  0.10000000000E+01 0.  0.
    9000005    1    3    3    0    0  0.32308854143E+01 -0.47504500112E+02 -0.77956205040E+02  0.91352537216E+02  0.10000000000E+01 0.  0.
<mgrwt>
<rscale>  0 0.12499537E+03</rscale>
<asrwt>0</asrwt>
<pdfrwt beam="2">  1        4 0.73903785E-01 0.12499537E+03</pdfrwt>
<pdfrwt beam="1">  1       -4 0.12509341E-02 0.12499537E+03</pdfrwt>
<totfact> 0.56773130E+03</totfact>
</mgrwt>
</event>
<event>
 5    1  0.3487578E-002  0.1250045E+03  0.7818608E-02  0.1235062E+00
          4   -1    0    0  501    0  0.00000000000E+00  0.00000000000E+00  0.74542547349E+01  0.75616673857E+01  0.12700000000E+01 0. -1.
         -4   -1    0    0    0  501 -0.00000000000E+00 -0.00000000000E+00 -0.52021064646E+03  0.52021219669E+03  0.12700000000E+01 0. -1.
         25    2    1    2    0    0  0.00000000000E+00  0.00000000000E+00 -0.51275639172E+03  0.52777386408E+03  0.12500453732E+03 0.  0.
    9000005    1    3    3    0    0 -0.37799745595E+02 -0.49004538398E+02 -0.29300739288E+03  0.29947386836E+03  0.10000000000E+01 0.  0.
    9000005    1    3    3    0    0  0.37799745595E+02  0.49004538398E+02 -0.21974899884E+03  0.22829999572E+03  0.10000000000E+01 0.  0.
<mgrwt>
<rscale>  0 0.12500454E+03</rscale>
<asrwt>0</asrwt>
<pdfrwt beam="1">  1        4 0.11551906E-02 0.12500454E+03</pdfrwt>
<pdfrwt beam="2">  1       -4 0.80040760E-01 0.12500454E+03</pdfrwt>
<totfact> 0.53766714E+03</totfact>
</mgrwt>
</event>
<event>
 5    1  0.3487578E-002  0.1250060E+03  0.7818608E-02  0.1235060E+00
          4   -1    0    0  501    0  0.00000000000E+00  0.00000000000E+00  0.56209019722E+02  0.56223365233E+02  0.12700000000E+01 0.  1.
         -4   -1    0    0    0  501 -0.00000000000E+00 -0.00000000000E+00 -0.69472681917E+02  0.69484289108E+02  0.12700000000E+01 0.  1.
         25    2    1    2    0    0  0.00000000000E+00  0.00000000000E+00 -0.13263662195E+02  0.12570765434E+03  0.12500595836E+03 0.  0.
    9000005    1    3    3    0    0 -0.68852383700E+01  0.57308268048E+02  0.17460495960E+02  0.60311798292E+02  0.10000000000E+01 0.  0.
    9000005    1    3    3    0    0  0.68852383700E+01 -0.57308268048E+02 -0.30724158155E+02  0.65395856049E+02  0.10000000000E+01 0.  0.
<mgrwt>
<rscale>  0 0.12500596E+03</rscale>
<asrwt>0</asrwt>
<pdfrwt beam="1">  1        4 0.86495379E-02 0.12500596E+03</pdfrwt>
<pdfrwt beam="2">  1       -4 0.10690101E-01 0.12500596E+03</pdfrwt>
<totfact> 0.10435973E+04</totfact>
</mgrwt>
</event>
<event>
 5    1  0.3487578E-002  0.1250055E+03  0.7818608E-02  0.1235061E+00
         -4   -1    0    0    0  501 -0.00000000000E+00  0.00000000000E+00  0.32270638850E+01  0.34679736617E+01  0.12700000000E+01 0.  1.
          4   -1    0    0  501    0  0.00000000000E+00 -0.00000000000E+00 -0.11667712133E+04  0.11667719045E+04  0.12700000000E+01 0.  1.
         25    2    1    2    0    0  0.00000000000E+00  0.00000000000E+00 -0.11635441495E+04  0.11702398782E+04  0.12500553891E+03 0.  0.
    9000005    1    3    3    0    0  0.41990146541E+02  0.90952110376E+01 -0.15691024208E+03  0.16268902648E+03  0.10000000000E+01 0.  0.
    9000005    1    3    3    0    0 -0.41990146541E+02 -0.90952110376E+01 -0.10066339074E+04  0.10075508517E+04  0.10000000000E+01 0.  0.
<mgrwt>
<rscale>  0 0.12500554E+03</rscale>
<asrwt>0</asrwt>
<pdfrwt beam="2">  1        4 0.17952152E+00 0.12500554E+03</pdfrwt>
<pdfrwt beam="1">  1       -4 0.51505699E-03 0.12500554E+03</pdfrwt>
<totfact> 0.25502252E+03</totfact>
</mgrwt>
</event>
<event>
 5    1  0.3487578E-002  0.1249989E+03  0.7818608E-02  0.1235071E+00
         -4   -1    0    0    0  501 -0.00000000000E+00  0.00000000000E+00  0.72245818645E+02  0.72256980366E+02  0.12700000000E+01 0.  1.
          4   -1    0    0  501    0  0.00000000000E+00 -0.00000000000E+00 -0.54045142965E+02  0.54060062691E+02  0.12700000000E+01 0.  1.
         25    2    1    2    0    0  0.00000000000E+00  0.00000000000E+00  0.18200675679E+02  0.12631704306E+03  0.12499892308E+03 0.  0.
    9000005    1    3    3    0    0  0.26425503337E+02 -0.22777249524E+02  0.61493686631E+02  0.70707735206E+02  0.10000000000E+01 0.  0.
    9000005    1    3    3    0    0 -0.26425503337E+02  0.22777249524E+02 -0.43293010951E+02  0.55609307851E+02  0.10000000000E+01 0.  0.
<mgrwt>
<rscale>  0 0.12499892E+03</rscale>
<asrwt>0</asrwt>
<pdfrwt beam="2">  1        4 0.83166437E-02 0.12499892E+03</pdfrwt>
<pdfrwt beam="1">  1       -4 0.11116748E-01 0.12499892E+03</pdfrwt>
<totfact> 0.10424274E+04</totfact>
</mgrwt>
</event>
<event>
 5    1  0.3487578E-002  0.1250013E+03  0.7818608E-02  0.1235067E+00
          4   -1    0    0  501    0  0.00000000000E+00  0.00000000000E+00  0.79198805333E+03  0.79198907159E+03  0.12700000000E+01 0.  1.
         -4   -1    0    0    0  501 -0.00000000000E+00 -0.00000000000E+00 -0.48495183344E+01  0.50130557623E+01  0.12700000000E+01 0.  1.
         25    2    1    2    0    0  0.00000000000E+00  0.00000000000E+00  0.78713853500E+03  0.79700212735E+03  0.12500127091E+03 0.  0.
    9000005    1    3    3    0    0  0.59484058455E+01  0.35723452582E+01  0.78955564368E+03  0.78958676512E+03  0.10000000000E+01 0.  0.
    9000005    1    3    3    0    0 -0.59484058455E+01 -0.35723452582E+01 -0.24171086803E+01  0.74153622379E+01  0.10000000000E+01 0.  0.
<mgrwt>
<rscale>  0 0.12500127E+03</rscale>
<asrwt>0</asrwt>
<pdfrwt beam="1">  1        4 0.12185694E+00 0.12500127E+03</pdfrwt>
<pdfrwt beam="2">  1       -4 0.75873808E-03 0.12500127E+03</pdfrwt>
<totfact> 0.38397851E+03</totfact>
</mgrwt>
</event>
<event>
 5    1  0.3487578E-002  0.1249998E+03  0.7818608E-02  0.1235070E+00
         -4   -1    0    0    0  501 -0.00000000000E+00  0.00000000000E+00  0.39714706543E+03  0.39714909603E+03  0.12700000000E+01 0. -1.
          4   -1    0    0  501    0  0.00000000000E+00 -0.00000000000E+00 -0.97926836091E+01  0.98746925151E+01  0.12700000000E+01 0. -1.
         25    2    1    2    0    0  0.00000000000E+00  0.00000000000E+00  0.38735438182E+03  0.40702378855E+03  0.12499978931E+03 0.  0.
    9000005    1    3    3    0    0 -0.11062225468E+02 -0.15712607557E+02  0.38730390984E+03  0.38778161050E+03  0.10000000000E+01 0.  0.
    9000005    1    3    3    0    0  0.11062225468E+02  0.15712607557E+02  0.50471984261E-01  0.19242178046E+02  0.10000000000E+01 0.  0.
<mgrwt>
<rscale>  0 0.12499979E+03</rscale>
<asrwt>0</asrwt>
<pdfrwt beam="2">  1        4 0.15130314E-02 0.12499979E+03</pdfrwt>
<pdfrwt beam="1">  1       -4 0.61106007E-01 0.12499979E+03</pdfrwt>
<totfact> 0.63875648E+03</totfact>
</mgrwt>
</event>
<event>
 5    1  0.3487578E-002  0.1249928E+03  0.7818608E-02  0.1235080E+00
          4   -1    0    0  501    0  0.00000000000E+00  0.00000000000E+00  0.86434471586E+01  0.87362508425E+01  0.12700000000E+01 0.  1.
         -4   -1    0    0    0  501 -0.00000000000E+00 -0.00000000000E+00 -0.44937346948E+03  0.44937526409E+03  0.12700000000E+01 0.  1.
         25    2    1    2    0    0  0.00000000000E+00  0.00000000000E+00 -0.44073002232E+03  0.45811151493E+03  0.12499282993E+03 0.  0.
    9000005    1    3    3    0    0  0.81701552000E+01 -0.56841920280E+02 -0.13006306636E+03  0.14218001466E+03  0.10000000000E+01 0.  0.
    9000005    1    3    3    0    0 -0.81701552000E+01  0.56841920280E+02 -0.31066695596E+03  0.31593150027E+03  0.10000000000E+01 0.  0.
<mgrwt>
<rscale>  0 0.12499283E+03</rscale>
<asrwt>0</asrwt>
<pdfrwt beam="1">  1        4 0.13370382E-02 0.12499283E+03</pdfrwt>
<pdfrwt beam="2">  1       -4 0.69141639E-01 0.12499283E+03</pdfrwt>
<totfact> 0.59276847E+03</totfact>
</mgrwt>
</event>
<event>
 5    1  0.3487578E-002  0.1250001E+03  0.7818608E-02  0.1235069E+00
         -4   -1    0    0    0  501 -0.00000000000E+00  0.00000000000E+00  0.12648738226E+04  0.12648744602E+04  0.12700000000E+01 0.  1.
          4   -1    0    0  501    0  0.00000000000E+00 -0.00000000000E+00 -0.29570260434E+01  0.32182142597E+01  0.12700000000E+01 0.  1.
         25    2    1    2    0    0  0.00000000000E+00  0.00000000000E+00  0.12619167966E+04  0.12680926744E+04  0.12500011807E+03 0.  0.
    9000005    1    3    3    0    0 -0.10139460838E+02  0.30603133981E+02  0.11740472053E+04  0.11744901876E+04  0.10000000000E+01 0.  0.
    9000005    1    3    3    0    0  0.10139460838E+02 -0.30603133981E+02  0.87869591278E+02  0.93602486863E+02  0.10000000000E+01 0.  0.
<mgrwt>
<rscale>  0 0.12500012E+03</rscale>
<asrwt>0</asrwt>
<pdfrwt beam="2">  1        4 0.47506807E-03 0.12500012E+03</pdfrwt>
<pdfrwt beam="1">  1       -4 0.19461589E+00 0.12500012E+03</pdfrwt>
<totfact> 0.22994312E+03</totfact>
</mgrwt>
</event>
<event>
 5    1  0.3487578E-002  0.1250096E+03  0.7818608E-02  0.1235054E+00
         -4   -1    0    0    0  501 -0.00000000000E+00  0.00000000000E+00  0.30615255283E+02  0.30641585404E+02  0.12700000000E+01 0.  1.
          4   -1    0    0  501    0  0.00000000000E+00 -0.00000000000E+00 -0.12752696230E+03  0.12753328590E+03  0.12700000000E+01 0.  1.
         25    2    1    2    0    0  0.00000000000E+00  0.00000000000E+00 -0.96911707015E+02  0.15817487131E+03  0.12500964345E+03 0.  0.
    9000005    1    3    3    0    0 -0.25820490950E+01  0.56705966843E+02 -0.15373144652E+02  0.58818085905E+02  0.10000000000E+01 0.  0.
    9000005    1    3    3    0    0  0.25820490950E+01 -0.56705966843E+02 -0.81538562363E+02  0.99356785401E+02  0.10000000000E+01 0.  0.
<mgrwt>
<rscale>  0 0.12500964E+03</rscale>
<asrwt>0</asrwt>
<pdfrwt beam="2">  1        4 0.19622044E-01 0.12500964E+03</pdfrwt>
<pdfrwt beam="1">  1       -4 0.47125512E-02 0.12500964E+03</pdfrwt>
<totfact> 0.97674636E+03</totfact>
</mgrwt>
</event>
<event>
 5    1  0.3487578E-002  0.1250020E+03  0.7818608E-02  0.1235066E+00
         -4   -1    0    0    0  501 -0.00000000000E+00  0.00000000000E+00  0.15394044997E+03  0.15394568859E+03  0.12700000000E+01 0.  1.
          4   -1    0    0  501    0  0.00000000000E+00 -0.00000000000E+00 -0.25354305447E+02  0.25386092742E+02  0.12700000000E+01 0.  1.
         25    2    1    2    0    0  0.00000000000E+00  0.00000000000E+00  0.12858614452E+03  0.17933178134E+03  0.12500196492E+03 0.  0.
    9000005    1    3    3    0    0 -0.14838125257E+02  0.27167999980E+02 -0.13589099290E+02  0.33822090467E+02  0.10000000000E+01 0.  0.
    9000005    1    3    3    0    0  0.14838125257E+02 -0.27167999980E+02  0.14217524381E+03  0.14550969087E+03  0.10000000000E+01 0.  0.
<mgrwt>
<rscale>  0 0.12500196E+03</rscale>
<asrwt>0</asrwt>
<pdfrwt beam="2">  1        4 0.39035105E-02 0.12500196E+03</pdfrwt>
<pdfrwt beam="1">  1       -4 0.23685994E-01 0.12500196E+03</pdfrwt>
<totfact> 0.93733293E+03</totfact>
</mgrwt>
</event>
<event>
 5    1  0.3487578E-002  0.1249953E+03  0.7818608E-02  0.1235077E+00
         -4   -1    0    0    0  501 -0.00000000000E+00  0.00000000000E+00  0.12086040728E+04  0.12086047400E+04  0.12700000000E+01 0. -1.
          4   -1    0    0  501    0  0.00000000000E+00 -0.00000000000E+00 -0.31063310039E+01  0.33559189958E+01  0.12700000000E+01 0. -1.
         25    2    1    2    0    0  0.00000000000E+00  0.00000000000E+00  0.12054977418E+04  0.12119606590E+04  0.12499533438E+03 0.  0.
    9000005    1    3    3    0    0  0.95386975967E+01  0.35921124032E+02  0.10898384164E+04  0.10904724150E+04  0.10000000000E+01 0.  0.
    9000005    1    3    3    0    0 -0.95386975967E+01 -0.35921124032E+02  0.11565932533E+03  0.12148824404E+03  0.10000000000E+01 0.  0.
<mgrwt>
<rscale>  0 0.12499533E+03</rscale>
<asrwt>0</asrwt>
<pdfrwt beam="2">  1        4 0.49714792E-03 0.12499533E+03</pdfrwt>
<pdfrwt beam="1">  1       -4 0.18595817E+00 0.12499533E+03</pdfrwt>
<totfact> 0.24404323E+03</totfact>
</mgrwt>
</event>
<event>
 5    1  0.3487578E-002  0.1249940E+03  0.7818608E-02  0.1235079E+00
          4   -1    0    0  501    0  0.00000000000E+00  0.00000000000E+00  0.10782882000E+03  0.10783629873E+03  0.12700000000E+01 0.  1.
         -4   -1    0    0    0  501 -0.00000000000E+00 -0.00000000000E+00 -0.36203029601E+02  0.36225298512E+02  0.12700000000E+01 0.  1.
         25    2    1    2    0    0  0.00000000000E+00  0.00000000000E+00  0.71625790399E+02  0.14406159724E+03  0.12499395965E+03 0.  0.
    9000005    1    3    3    0    0  0.41975309655E+02  0.11077862330E+02  0.87616414759E+02  0.97786920341E+02  0.10000000000E+01 0.  0.
    9000005    1    3    3    0    0 -0.41975309655E+02 -0.11077862330E+02 -0.15990624360E+02  0.46274676897E+02  0.10000000000E+01 0.  0.
<mgrwt>
<rscale>  0 0.12499396E+03</rscale>
<asrwt>0</asrwt>
<pdfrwt beam="1">  1        4 0.16591337E-01 0.12499396E+03</pdfrwt>
<pdfrwt beam="2">  1       -4 0.55719852E-02 0.12499396E+03</pdfrwt>
<totfact> 0.10051457E+04</totfact>
</mgrwt>
</event>
<event>
 5    1  0.3487578E-002  0.1250008E+03  0.7818608E-02  0.1235068E+00
         -4   -1    0    0    0  501 -0.00000000000E+00  0.00000000000E+00  0.74740172858E+02  0.74750962127E+02  0.12700000000E+01 0. -1.
          4   -1    0    0  501    0  0.00000000000E+00 -0.00000000000E+00 -0.52242770915E+02  0.52258205220E+02  0.12700000000E+01 0. -1.
         25    2    1    2    0    0  0.00000000000E+00  0.00000000000E+00  0.22497401944E+02  0.12700916735E+03  0.12500078198E+03 0.  0.
    9000005    1    3    3    0    0  0.41022940521E+02  0.62088780082E+01 -0.36234002477E+02  0.55093872170E+02  0.10000000000E+01 0.  0.
    9000005    1    3    3    0    0 -0.41022940521E+02 -0.62088780082E+01  0.58731404421E+02  0.71915295177E+02  0.10000000000E+01 0.  0.
<mgrwt>
<rscale>  0 0.12500078E+03</rscale>
<asrwt>0</asrwt>
<pdfrwt beam="2">  1        4 0.80393666E-02 0.12500078E+03</pdfrwt>
<pdfrwt beam="1">  1       -4 0.11500505E-01 0.12500078E+03</pdfrwt>
<totfact> 0.10408763E+04</totfact>
</mgrwt>
</event>
<event>
 5    1  0.3487578E-002  0.1250088E+03  0.7818608E-02  0.1235055E+00
          4   -1    0    0  501    0  0.00000000000E+00  0.00000000000E+00  0.90118396656E+01  0.91008875478E+01  0.12700000000E+01 0.  1.
         -4   -1    0    0    0  501 -0.00000000000E+00 -0.00000000000E+00 -0.43129747767E+03  0.43129934749E+03  0.12700000000E+01 0.  1.
         25    2    1    2    0    0  0.00000000000E+00  0.00000000000E+00 -0.42228563801E+03  0.44040023504E+03  0.12500882751E+03 0.  0.
    9000005    1    3    3    0    0  0.61544198676E+02 -0.68871963743E+01 -0.24076075188E+03  0.24859980192E+03  0.10000000000E+01 0.  0.
    9000005    1    3    3    0    0 -0.61544198676E+02  0.68871963743E+01 -0.18152488612E+03  0.19180043312E+03  0.10000000000E+01 0.  0.
<mgrwt>
<rscale>  0 0.12500883E+03</rscale>
<asrwt>0</asrwt>
<pdfrwt beam="1">  1        4 0.13934309E-02 0.12500883E+03</pdfrwt>
<pdfrwt beam="2">  1       -4 0.66360436E-01 0.12500883E+03</pdfrwt>
<totfact> 0.60792635E+03</totfact>
</mgrwt>
</event>
<event>
 5    1  0.3487578E-002  0.1250029E+03  0.7818608E-02  0.1235065E+00
          4   -1    0    0  501    0  0.00000000000E+00  0.00000000000E+00  0.39490917417E+03  0.39491121628E+03  0.12700000000E+01 0.  1.
         -4   -1    0    0    0  501 -0.00000000000E+00 -0.00000000000E+00 -0.98491328863E+01  0.99306756372E+01  0.12700000000E+01 0.  1.
         25    2    1    2    0    0  0.00000000000E+00  0.00000000000E+00  0.38506004128E+03  0.40484189191E+03  0.12500288820E+03 0.  0.
    9000005    1    3    3    0    0  0.38075481481E+02 -0.19854268922E+02  0.33957719063E+03  0.34228292783E+03  0.10000000000E+01 0.  0.
    9000005    1    3    3    0    0 -0.38075481481E+02  0.19854268922E+02  0.45482850647E+02  0.62558964085E+02  0.10000000000E+01 0.  0.
<mgrwt>
<rscale>  0 0.12500289E+03</rscale>
<asrwt>0</asrwt>
<pdfrwt beam="1">  1        4 0.60761677E-01 0.12500289E+03</pdfrwt>
<pdfrwt beam="2">  1       -4 0.15216811E-02 0.12500289E+03</pdfrwt>
<totfact> 0.64080501E+03</totfact>
</mgrwt>
</event>
<event>
 5    1  0.3487578E-002  0.1249992E+03  0.7818608E-02  0.1235070E+00
         -4   -1    0    0    0  501 -0.00000000000E+00  0.00000000000E+00  0.13281678961E+02  0.13342259779E+02  0.12700000000E+01 0. -1.
          4   -1    0    0  501    0  0.00000000000E+00 -0.00000000000E+00 -0.29337339169E+03  0.29337614056E+03  0.12700000000E+01 0. -1.
         25    2    1    2    0    0  0.00000000000E+00  0.00000000000E+00 -0.28009171273E+03  0.30671840034E+03  0.12499923827E+03 0.  0.
    9000005    1    3    3    0    0  0.22552245018E+02 -0.51683875027E+02 -0.73959171749E+02  0.93009600467E+02  0.10000000000E+01 0.  0.
    9000005    1    3    3    0    0 -0.22552245018E+02  0.51683875027E+02 -0.20613254098E+03  0.21370879987E+03  0.10000000000E+01 0.  0.
<mgrwt>
<rscale>  0 0.12499924E+03</rscale>
<asrwt>0</asrwt>
<pdfrwt beam="2">  1        4 0.45139235E-01 0.12499924E+03</pdfrwt>
<pdfrwt beam="1">  1       -4 0.20482070E-02 0.12499924E+03</pdfrwt>
<totfact> 0.74765016E+03</totfact>
</mgrwt>
</event>
<event>
 5    1  0.3487578E-002  0.1250068E+03  0.7818608E-02  0.1235059E+00
          4   -1    0    0  501    0  0.00000000000E+00  0.00000000000E+00  0.37865828952E+01  0.39938840772E+01  0.12700000000E+01 0. -1.
         -4   -1    0    0    0  501 -0.00000000000E+00 -0.00000000000E+00 -0.10040190994E+04  0.10040199026E+04  0.12700000000E+01 0. -1.
         25    2    1    2    0    0  0.00000000000E+00  0.00000000000E+00 -0.10002325165E+04  0.10080137867E+04  0.12500682822E+03 0.  0.
    9000005    1    3    3    0    0  0.55468650009E+01  0.50831754757E+02 -0.78985254045E+03  0.79150658283E+03  0.10000000000E+01 0.  0.
    9000005    1    3    3    0    0 -0.55468650009E+01 -0.50831754757E+02 -0.21037997601E+03  0.21650720383E+03  0.10000000000E+01 0.  0.
<mgrwt>
<rscale>  0 0.12500683E+03</rscale>
<asrwt>0</asrwt>
<pdfrwt beam="1">  1        4 0.59856004E-03 0.12500683E+03</pdfrwt>
<pdfrwt beam="2">  1       -4 0.15448028E+00 0.12500683E+03</pdfrwt>
<totfact> 0.30336860E+03</totfact>
</mgrwt>
</event>
<event>
 5    1  0.3487578E-002  0.1249997E+03  0.7818608E-02  0.1235070E+00
          4   -1    0    0  501    0  0.00000000000E+00  0.00000000000E+00  0.14461396534E+02  0.14517055132E+02  0.12700000000E+01 0. -1.
         -4   -1    0    0    0  501 -0.00000000000E+00 -0.00000000000E+00 -0.26953838461E+03  0.26954137657E+03  0.12700000000E+01 0. -1.
         25    2    1    2    0    0  0.00000000000E+00  0.00000000000E+00 -0.25507698808E+03  0.28405843170E+03  0.12499969108E+03 0.  0.
    9000005    1    3    3    0    0 -0.65866074569E+01  0.61134698690E+02 -0.15288404856E+03  0.16478885607E+03  0.10000000000E+01 0.  0.
    9000005    1    3    3    0    0  0.65866074569E+01 -0.61134698690E+02 -0.10219293952E+03  0.11926957563E+03  0.10000000000E+01 0.  0.
<mgrwt>
<rscale>  0 0.12499969E+03</rscale>
<asrwt>0</asrwt>
<pdfrwt beam="1">  1        4 0.22293420E-02 0.12499969E+03</pdfrwt>
<pdfrwt beam="2">  1       -4 0.41471952E-01 0.12499969E+03</pdfrwt>
<totfact> 0.77643581E+03</totfact>
</mgrwt>
</event>
<event>
 5    1  0.3487578E-002  0.1249967E+03  0.7818608E-02  0.1235074E+00
         -4   -1    0    0    0  501 -0.00000000000E+00  0.00000000000E+00  0.13598830925E+03  0.13599423941E+03  0.12700000000E+01 0. -1.
          4   -1    0    0  501    0  0.00000000000E+00 -0.00000000000E+00 -0.28702764881E+02  0.28730847739E+02  0.12700000000E+01 0. -1.
         25    2    1    2    0    0  0.00000000000E+00  0.00000000000E+00  0.10728554437E+03  0.16472508715E+03  0.12499666518E+03 0.  0.
    9000005    1    3    3    0    0  0.15879469035E+02  0.32339809119E+02 -0.13644599772E+02  0.38538239368E+02  0.10000000000E+01 0.  0.
    9000005    1    3    3    0    0 -0.15879469035E+02 -0.32339809119E+02  0.12093014414E+03  0.12618684778E+03  0.10000000000E+01 0.  0.
<mgrwt>
<rscale>  0 0.12499667E+03</rscale>
<asrwt>0</asrwt>
<pdfrwt beam="2">  1        4 0.44184263E-02 0.12499667E+03</pdfrwt>
<pdfrwt beam="1">  1       -4 0.20923895E-01 0.12499667E+03</pdfrwt>
<totfact> 0.96446707E+03</totfact>
</mgrwt>
</event>
<event>
 5    1  0.3487578E-002  0.1249988E+03  0.7818608E-02  0.1235071E+00
          4   -1    0    0  501    0  0.00000000000E+00  0.00000000000E+00  0.34787888572E+03  0.34788120390E+03  0.12700000000E+01 0. -1.
         -4   -1    0    0    0  501 -0.00000000000E+00 -0.00000000000E+00 -0.11190283148E+02  0.11262119558E+02  0.12700000000E+01 0. -1.
         25    2    1    2    0    0  0.00000000000E+00  0.00000000000E+00  0.33668860257E+03  0.35914332346E+03  0.12499884674E+03 0.  0.
    9000005    1    3    3    0    0  0.33430054557E+02  0.22297853069E+02  0.30584942853E+03  0.30847955480E+03  0.10000000000E+01 0.  0.
    9000005    1    3    3    0    0 -0.33430054557E+02 -0.22297853069E+02  0.30839174043E+02  0.50663768660E+02  0.10000000000E+01 0.  0.
<mgrwt>
<rscale>  0 0.12499885E+03</rscale>
<asrwt>0</asrwt>
<pdfrwt beam="1">  1        4 0.53525525E-01 0.12499885E+03</pdfrwt>
<pdfrwt beam="2">  1       -4 0.17272865E-02 0.12499885E+03</pdfrwt>
<totfact> 0.68732011E+03</totfact>
</mgrwt>
</event>
<event>
 5    1  0.3487578E-002  0.1249964E+03  0.7818608E-02  0.1235075E+00
         -4   -1    0    0    0  501 -0.00000000000E+00  0.00000000000E+00  0.64445572969E+01  0.65685020174E+01  0.12700000000E+01 0.  1.
          4   -1    0    0  501    0  0.00000000000E+00 -0.00000000000E+00 -0.60019892571E+03  0.60020026934E+03  0.12700000000E+01 0.  1.
         25    2    1    2    0    0  0.00000000000E+00  0.00000000000E+00 -0.59375436841E+03  0.60676877136E+03  0.12499636752E+03 0.  0.
    9000005    1    3    3    0    0  0.38051301345E+02 -0.14253438301E+02 -0.66415346338E+02  0.77865655244E+02  0.10000000000E+01 0.  0.
    9000005    1    3    3    0    0 -0.38051301345E+02  0.14253438301E+02 -0.52733902207E+03  0.52890311612E+03  0.10000000000E+01 0.  0.
<mgrwt>
<rscale>  0 0.12499637E+03</rscale>
<asrwt>0</asrwt>
<pdfrwt beam="2">  1        4 0.92347891E-01 0.12499637E+03</pdfrwt>
<pdfrwt beam="1">  1       -4 0.10011084E-02 0.12499637E+03</pdfrwt>
<totfact> 0.48446990E+03</totfact>
</mgrwt>
</event>
<event>
 5    1  0.3487578E-002  0.1249997E+03  0.7818608E-02  0.1235070E+00
         -4   -1    0    0    0  501 -0.00000000000E+00  0.00000000000E+00  0.39446169818E+02  0.39466608839E+02  0.12700000000E+01 0. -1.
          4   -1    0    0  501    0  0.00000000000E+00 -0.00000000000E+00 -0.98976700100E+02  0.98984847642E+02  0.12700000000E+01 0. -1.
         25    2    1    2    0    0  0.00000000000E+00  0.00000000000E+00 -0.59530530283E+02  0.13845145648E+03  0.12499968706E+03 0.  0.
    9000005    1    3    3    0    0  0.52515589225E+02  0.24666482816E+01  0.76527465385E+01  0.53136955078E+02  0.10000000000E+01 0.  0.
    9000005    1    3    3    0    0 -0.52515589225E+02 -0.24666482816E+01 -0.67183276821E+02  0.85314501404E+02  0.10000000000E+01 0.  0.
<mgrwt>
<rscale>  0 0.12499969E+03</rscale>
<asrwt>0</asrwt>
<pdfrwt beam="2">  1        4 0.15229384E-01 0.12499969E+03</pdfrwt>
<pdfrwt beam="1">  1       -4 0.60708405E-02 0.12499969E+03</pdfrwt>
<totfact> 0.10165853E+04</totfact>
</mgrwt>
</event>
<event>
 5    1  0.3487578E-002  0.1250003E+03  0.7818608E-02  0.1235069E+00
          4   -1    0    0  501    0  0.00000000000E+00  0.00000000000E+00  0.94555122050E+01  0.95404198575E+01  0.12700000000E+01 0. -1.
         -4   -1    0    0    0  501 -0.00000000000E+00 -0.00000000000E+00 -0.41118856821E+03  0.41119052947E+03  0.12700000000E+01 0. -1.
         25    2    1    2    0    0  0.00000000000E+00  0.00000000000E+00 -0.40173305600E+03  0.42073094932E+03  0.12500033374E+03 0.  0.
    9000005    1    3    3    0    0  0.26226790366E+02  0.55456040726E+02 -0.24098273163E+03  0.24867025140E+03  0.10000000000E+01 0.  0.
    9000005    1    3    3    0    0 -0.26226790366E+02 -0.55456040726E+02 -0.16075032437E+03  0.17206069792E+03  0.10000000000E+01 0.  0.
<mgrwt>
<rscale>  0 0.12500033E+03</rscale>
<asrwt>0</asrwt>
<pdfrwt beam="1">  1        4 0.14613767E-02 0.12500033E+03</pdfrwt>
<pdfrwt beam="2">  1       -4 0.63266448E-01 0.12500033E+03</pdfrwt>
<totfact> 0.62584801E+03</totfact>
</mgrwt>
</event>
<event>
 5    1  0.3487578E-002  0.1250020E+03  0.7818608E-02  0.1235066E+00
         -4   -1    0    0    0  501 -0.00000000000E+00  0.00000000000E+00  0.45179590319E+02  0.45197436668E+02  0.12700000000E+01 0. -1.
          4   -1    0    0  501    0  0.00000000000E+00 -0.00000000000E+00 -0.86423629930E+02  0.86432960786E+02  0.12700000000E+01 0. -1.
         25    2    1    2    0    0  0.00000000000E+00  0.00000000000E+00 -0.41244039611E+02  0.13163039745E+03  0.12500196291E+03 0.  0.
    9000005    1    3    3    0    0  0.29688890818E+02  0.94259003354E+01 -0.77671334243E+02  0.83690584884E+02  0.10000000000E+01 0.  0.
    9000005    1    3    3    0    0 -0.29688890818E+02 -0.94259003354E+01  0.36427294632E+02  0.47939812571E+02  0.10000000000E+01 0.  0.
<mgrwt>
<rscale>  0 0.12500196E+03</rscale>
<asrwt>0</asrwt>
<pdfrwt beam="2">  1        4 0.13298034E-01 0.12500196E+03</pdfrwt>
<pdfrwt beam="1">  1       -4 0.69527968E-02 0.12500196E+03</pdfrwt>
<totfact> 0.10309137E+04</totfact>
</mgrwt>
</event>
<event>
 5    1  0.3487578E-002  0.1250010E+03  0.7818608E-02  0.1235068E+00
          4   -1    0    0  501    0  0.00000000000E+00  0.00000000000E+00  0.42585119866E+03  0.42585309239E+03  0.12700000000E+01 0.  1.
         -4   -1    0    0    0  501 -0.00000000000E+00 -0.00000000000E+00 -0.91270665548E+01  0.92150010253E+01  0.12700000000E+01 0.  1.
         25    2    1    2    0    0  0.00000000000E+00  0.00000000000E+00  0.41672413211E+03  0.43506809342E+03  0.12500097452E+03 0.  0.
    9000005    1    3    3    0    0  0.54747942924E+02 -0.19595749555E+01  0.10370702100E+03  0.11729161689E+03  0.10000000000E+01 0.  0.
    9000005    1    3    3    0    0 -0.54747942924E+02  0.19595749555E+01  0.31301711111E+03  0.31777647653E+03  0.10000000000E+01 0.  0.
<mgrwt>
<rscale>  0 0.12500097E+03</rscale>
<asrwt>0</asrwt>
<pdfrwt beam="1">  1        4 0.65522489E-01 0.12500097E+03</pdfrwt>
<pdfrwt beam="2">  1       -4 0.14110737E-02 0.12500097E+03</pdfrwt>
<totfact> 0.61277947E+03</totfact>
</mgrwt>
</event>
<event>
 5    1  0.3487578E-002  0.1250000E+03  0.7818608E-02  0.1235069E+00
         -4   -1    0    0    0  501 -0.00000000000E+00  0.00000000000E+00  0.37458607720E+02  0.37480130634E+02  0.12700000000E+01 0. -1.
          4   -1    0    0  501    0  0.00000000000E+00 -0.00000000000E+00 -0.10422640880E+03  0.10423414599E+03  0.12700000000E+01 0. -1.
         25    2    1    2    0    0  0.00000000000E+00  0.00000000000E+00 -0.66767801080E+02  0.14171427663E+03  0.12499998776E+03 0.  0.
    9000005    1    3    3    0    0  0.12390047249E+02 -0.54310452979E+02 -0.12753442815E+01  0.55729391497E+02  0.10000000000E+01 0.  0.
    9000005    1    3    3    0    0 -0.12390047249E+02  0.54310452979E+02 -0.65492456798E+02  0.85984885132E+02  0.10000000000E+01 0.  0.
<mgrwt>
<rscale>  0 0.12499999E+03</rscale>
<asrwt>0</asrwt>
<pdfrwt beam="2">  1        4 0.16037083E-01 0.12499999E+03</pdfrwt>
<pdfrwt beam="1">  1       -4 0.57651135E-02 0.12499999E+03</pdfrwt>
<totfact> 0.10098182E+04</totfact>
</mgrwt>
</event>
<event>
 5    1  0.3487578E-002  0.1249973E+03  0.7818608E-02  0.1235074E+00
         -4   -1    0    0    0  501 -0.00000000000E+00  0.00000000000E+00  0.23369328884E+02  0.23403812349E+02  0.12700000000E+01 0. -1.
          4   -1    0    0  501    0  0.00000000000E+00 -0.00000000000E+00 -0.16698546646E+03  0.16699029586E+03  0.12700000000E+01 0. -1.
         25    2    1    2    0    0  0.00000000000E+00  0.00000000000E+00 -0.14361613758E+03  0.19039410820E+03  0.12499728583E+03 0.  0.
    9000005    1    3    3    0    0  0.50943156805E+02 -0.36142811712E+02 -0.68929165679E+02  0.93025469334E+02  0.10000000000E+01 0.  0.
    9000005    1    3    3    0    0 -0.50943156805E+02  0.36142811712E+02 -0.74686971901E+02  0.97368638870E+02  0.10000000000E+01 0.  0.
<mgrwt>
<rscale>  0 0.12499729E+03</rscale>
<asrwt>0</asrwt>
<pdfrwt beam="2">  1        4 0.25693095E-01 0.12499729E+03</pdfrwt>
<pdfrwt beam="1">  1       -4 0.35983055E-02 0.12499729E+03</pdfrwt>
<totfact> 0.91784366E+03</totfact>
</mgrwt>
</event>
<event>
 5    1  0.3487578E-002  0.1249986E+03  0.7818608E-02  0.1235072E+00
         -4   -1    0    0    0  501 -0.00000000000E+00  0.00000000000E+00  0.96979591775E+01  0.97807623531E+01  0.12700000000E+01 0.  1.
          4   -1    0    0  501    0  0.00000000000E+00 -0.00000000000E+00 -0.40098561541E+03  0.40098762657E+03  0.12700000000E+01 0.  1.
         25    2    1    2    0    0  0.00000000000E+00  0.00000000000E+00 -0.39128765623E+03  0.41076838893E+03  0.12499855768E+03 0.  0.
    9000005    1    3    3    0    0  0.32812332599E+02  0.47228006148E+02 -0.27600607843E+03  0.28193525687E+03  0.10000000000E+01 0.  0.
    9000005    1    3    3    0    0 -0.32812332599E+02 -0.47228006148E+02 -0.11528157780E+03  0.12883313206E+03  0.10000000000E+01 0.  0.
<mgrwt>
<rscale>  0 0.12499856E+03</rscale>
<asrwt>0</asrwt>
<pdfrwt beam="2">  1        4 0.61696606E-01 0.12499856E+03</pdfrwt>
<pdfrwt beam="1">  1       -4 0.14985182E-02 0.12499856E+03</pdfrwt>
<totfact> 0.63520800E+03</totfact>
</mgrwt>
</event>
<event>
 5    1  0.3487578E-002  0.1250028E+03  0.7818608E-02  0.1235065E+00
         -4   -1    0    0    0  501 -0.00000000000E+00  0.00000000000E+00  0.18422764834E+03  0.18423202575E+03  0.12700000000E+01 0. -1.
          4   -1    0    0  501    0  0.00000000000E+00 -0.00000000000E+00 -0.21180688443E+02  0.21218729060E+02  0.12700000000E+01 0. -1.
         25    2    1    2    0    0  0.00000000000E+00  0.00000000000E+00  0.16304695990E+03  0.20545075481E+03  0.12500280605E+03 0.  0.
    9000005    1    3    3    0    0 -0.72015475684E+01  0.58348985603E+02  0.46698465403E+02  0.75088035527E+02  0.10000000000E+01 0.  0.
    9000005    1    3    3    0    0  0.72015475684E+01 -0.58348985603E+02  0.11634849449E+03  0.13036271928E+03  0.10000000000E+01 0.  0.
<mgrwt>
<rscale>  0 0.12500281E+03</rscale>
<asrwt>0</asrwt>
<pdfrwt beam="2">  1        4 0.32618305E-02 0.12500281E+03</pdfrwt>
<pdfrwt beam="1">  1       -4 0.28345977E-01 0.12500281E+03</pdfrwt>
<totfact> 0.89218664E+03</totfact>
</mgrwt>
</event>
<event>
 5    1  0.3487578E-002  0.1250091E+03  0.7818608E-02  0.1235055E+00
          4   -1    0    0  501    0  0.00000000000E+00  0.00000000000E+00  0.23101554662E+02  0.23136437232E+02  0.12700000000E+01 0.  1.
         -4   -1    0    0    0  501 -0.00000000000E+00 -0.00000000000E+00 -0.16895004515E+03  0.16895481839E+03  0.12700000000E+01 0.  1.
         25    2    1    2    0    0  0.00000000000E+00  0.00000000000E+00 -0.14584849049E+03  0.19209125562E+03  0.12500907290E+03 0.  0.
    9000005    1    3    3    0    0 -0.25699430052E+02  0.17951830794E+02  0.10153942945E+02  0.32967127433E+02  0.10000000000E+01 0.  0.
    9000005    1    3    3    0    0  0.25699430052E+02 -0.17951830794E+02 -0.15600243343E+03  0.15912412819E+03  0.10000000000E+01 0.  0.
<mgrwt>
<rscale>  0 0.12500907E+03</rscale>
<asrwt>0</asrwt>
<pdfrwt beam="1">  1        4 0.35571359E-02 0.12500907E+03</pdfrwt>
<pdfrwt beam="2">  1       -4 0.25995364E-01 0.12500907E+03</pdfrwt>
<totfact> 0.91466125E+03</totfact>
</mgrwt>
</event>
<event>
 5    1  0.3487578E-002  0.1249986E+03  0.7818608E-02  0.1235071E+00
         -4   -1    0    0    0  501 -0.00000000000E+00  0.00000000000E+00  0.98939950443E+02  0.98948101011E+02  0.12700000000E+01 0.  1.
          4   -1    0    0  501    0  0.00000000000E+00 -0.00000000000E+00 -0.39460170279E+02  0.39480602053E+02  0.12700000000E+01 0.  1.
         25    2    1    2    0    0  0.00000000000E+00  0.00000000000E+00  0.59479780164E+02  0.13842870306E+03  0.12499864633E+03 0.  0.
    9000005    1    3    3    0    0 -0.35437928834E+02  0.29737132697E+02  0.76265903804E+02  0.89205560052E+02  0.10000000000E+01 0.  0.
    9000005    1    3    3    0    0  0.35437928834E+02 -0.29737132697E+02 -0.16786123640E+02  0.49223143012E+02  0.10000000000E+01 0.  0.
<mgrwt>
<rscale>  0 0.12499865E+03</rscale>
<asrwt>0</asrwt>
<pdfrwt beam="2">  1        4 0.60729941E-02 0.12499865E+03</pdfrwt>
<pdfrwt beam="1">  1       -4 0.15223729E-01 0.12499865E+03</pdfrwt>
<totfact> 0.10166566E+04</totfact>
</mgrwt>
</event>
<event>
 5    1  0.3487578E-002  0.1250083E+03  0.7818608E-02  0.1235056E+00
         -4   -1    0    0    0  501 -0.00000000000E+00  0.00000000000E+00  0.16569659168E+03  0.16570145864E+03  0.12700000000E+01 0.  1.
          4   -1    0    0  501    0  0.00000000000E+00 -0.00000000000E+00 -0.23555533973E+02  0.23589745246E+02  0.12700000000E+01 0.  1.
         25    2    1    2    0    0  0.00000000000E+00  0.00000000000E+00  0.14214105771E+03  0.18929120388E+03  0.12500831805E+03 0.  0.
    9000005    1    3    3    0    0  0.43067705885E+02 -0.13911968296E+02  0.13633009948E+03  0.14364980395E+03  0.10000000000E+01 0.  0.
    9000005    1    3    3    0    0 -0.43067705885E+02  0.13911968296E+02  0.58109582305E+01  0.45641399931E+02  0.10000000000E+01 0.  0.
<mgrwt>
<rscale>  0 0.12500832E+03</rscale>
<asrwt>0</asrwt>
<pdfrwt beam="2">  1        4 0.36269344E-02 0.12500832E+03</pdfrwt>
<pdfrwt beam="1">  1       -4 0.25494789E-01 0.12500832E+03</pdfrwt>
<totfact> 0.91953654E+03</totfact>
</mgrwt>
</event>
<event>
 5    1  0.3487578E-002  0.1250014E+03  0.7818608E-02  0.1235067E+00
         -4   -1    0    0    0  501 -0.00000000000E+00  0.00000000000E+00  0.45895795118E+02  0.45913363082E+02  0.12700000000E+01 0.  1.
          4   -1    0    0  501    0  0.00000000000E+00 -0.00000000000E+00 -0.85074657100E+02  0.85084135893E+02  0.12700000000E+01 0.  1.
         25    2    1    2    0    0  0.00000000000E+00  0.00000000000E+00 -0.39178861982E+02  0.13099749897E+03  0.12500144604E+03 0.  0.
    9000005    1    3    3    0    0 -0.46317652972E+02 -0.41870257931E+02 -0.16837262691E+02  0.64675628261E+02  0.10000000000E+01 0.  0.
    9000005    1    3    3    0    0  0.46317652972E+02  0.41870257931E+02 -0.22341599291E+02  0.66321870714E+02  0.10000000000E+01 0.  0.
<mgrwt>
<rscale>  0 0.12500145E+03</rscale>
<asrwt>0</asrwt>
<pdfrwt beam="2">  1        4 0.13090489E-01 0.12500145E+03</pdfrwt>
<pdfrwt beam="1">  1       -4 0.70629721E-02 0.12500145E+03</pdfrwt>
<totfact> 0.10322806E+04</totfact>
</mgrwt>
</event>
<event>
 5    1  0.3487578E-002  0.1250038E+03  0.7818608E-02  0.1235063E+00
          4   -1    0    0  501    0  0.00000000000E+00  0.00000000000E+00  0.10944323266E+03  0.10945060107E+03  0.12700000000E+01 0.  1.
         -4   -1    0    0    0  501 -0.00000000000E+00 -0.00000000000E+00 -0.35674342845E+02  0.35696941569E+02  0.12700000000E+01 0.  1.
         25    2    1    2    0    0  0.00000000000E+00  0.00000000000E+00  0.73768889817E+02  0.14514754264E+03  0.12500384006E+03 0.  0.
    9000005    1    3    3    0    0 -0.22426882522E+02 -0.45805774216E+02 -0.50513039364E+01  0.51260605562E+02  0.10000000000E+01 0.  0.
    9000005    1    3    3    0    0  0.22426882522E+02  0.45805774216E+02  0.78820193753E+02  0.93886937081E+02  0.10000000000E+01 0.  0.
<mgrwt>
<rscale>  0 0.12500384E+03</rscale>
<asrwt>0</asrwt>
<pdfrwt beam="1">  1        4 0.16839726E-01 0.12500384E+03</pdfrwt>
<pdfrwt beam="2">  1       -4 0.54906656E-02 0.12500384E+03</pdfrwt>
<totfact> 0.10027124E+04</totfact>
</mgrwt>
</event>
<event>
 5    1  0.3487578E-002  0.1250003E+03  0.7818608E-02  0.1235069E+00
          4   -1    0    0  501    0  0.00000000000E+00  0.00000000000E+00  0.29276730504E+02  0.29304263325E+02  0.12700000000E+01 0. -1.
         -4   -1    0    0    0  501 -0.00000000000E+00 -0.00000000000E+00 -0.13333254211E+03  0.13333859038E+03  0.12700000000E+01 0. -1.
         25    2    1    2    0    0  0.00000000000E+00  0.00000000000E+00 -0.10405581160E+03  0.16264285371E+03  0.12500034373E+03 0.  0.
    9000005    1    3    3    0    0  0.12622260486E+02 -0.59372594200E+02 -0.71363950625E+02  0.93692261424E+02  0.10000000000E+01 0.  0.
    9000005    1    3    3    0    0 -0.12622260486E+02  0.59372594200E+02 -0.32691860978E+02  0.68950592282E+02  0.10000000000E+01 0.  0.
<mgrwt>
<rscale>  0 0.12500034E+03</rscale>
<asrwt>0</asrwt>
<pdfrwt beam="1">  1        4 0.45066956E-02 0.12500034E+03</pdfrwt>
<pdfrwt beam="2">  1       -4 0.20515282E-01 0.12500034E+03</pdfrwt>
<totfact> 0.96834922E+03</totfact>
</mgrwt>
</event>
<event>
 5    1  0.3487578E-002  0.1249988E+03  0.7818608E-02  0.1235071E+00
          4   -1    0    0  501    0  0.00000000000E+00  0.00000000000E+00  0.43821390144E+01  0.45624601195E+01  0.12700000000E+01 0. -1.
         -4   -1    0    0    0  501 -0.00000000000E+00 -0.00000000000E+00 -0.87323384268E+03  0.87323476620E+03  0.12700000000E+01 0. -1.
         25    2    1    2    0    0  0.00000000000E+00  0.00000000000E+00 -0.86885170367E+03  0.87779722632E+03  0.12499875029E+03 0.  0.
    9000005    1    3    3    0    0  0.56178074098E+02 -0.26008507547E+02 -0.49432425395E+03  0.49818659810E+03  0.10000000000E+01 0.  0.
    9000005    1    3    3    0    0 -0.56178074098E+02  0.26008507547E+02 -0.37452744971E+03  0.37961062823E+03  0.10000000000E+01 0.  0.
<mgrwt>
<rscale>  0 0.12499875E+03</rscale>
<asrwt>0</asrwt>
<pdfrwt beam="1">  1        4 0.68811782E-03 0.12499875E+03</pdfrwt>
<pdfrwt beam="2">  1       -4 0.13435747E+00 0.12499875E+03</pdfrwt>
<totfact> 0.35017031E+03</totfact>
</mgrwt>
</event>
<event>
 5    1  0.3487578E-002  0.1249993E+03  0.7818608E-02  0.1235070E+00
         -4   -1    0    0    0  501 -0.00000000000E+00  0.00000000000E+00  0.24074715375E+03  0.24075050351E+03  0.12700000000E+01 0. -1.
          4   -1    0    0  501    0  0.00000000000E+00 -0.00000000000E+00 -0.16197020958E+02  0.16246734685E+02  0.12700000000E+01 0. -1.
         25    2    1    2    0    0  0.00000000000E+00  0.00000000000E+00  0.22455013279E+03  0.25699723819E+03  0.12499927320E+03 0.  0.
    9000005    1    3    3    0    0  0.48477155915E+02 -0.31644649142E+01  0.31457243404E+02  0.57884424903E+02  0.10000000000E+01 0.  0.
    9000005    1    3    3    0    0 -0.48477155915E+02  0.31644649142E+01  0.19309288939E+03  0.19911281329E+03  0.10000000000E+01 0.  0.
<mgrwt>
<rscale>  0 0.12499927E+03</rscale>
<asrwt>0</asrwt>
<pdfrwt beam="2">  1        4 0.24959315E-02 0.12499927E+03</pdfrwt>
<pdfrwt beam="1">  1       -4 0.37042101E-01 0.12499927E+03</pdfrwt>
<totfact> 0.81330630E+03</totfact>
</mgrwt>
</event>
<event>
 5    1  0.3487578E-002  0.1249921E+03  0.7818608E-02  0.1235082E+00
          4   -1    0    0  501    0  0.00000000000E+00  0.00000000000E+00  0.25300467116E+02  0.25332321968E+02  0.12700000000E+01 0.  1.
         -4   -1    0    0    0  501 -0.00000000000E+00 -0.00000000000E+00 -0.15424332802E+03  0.15424855636E+03  0.12700000000E+01 0.  1.
         25    2    1    2    0    0  0.00000000000E+00  0.00000000000E+00 -0.12894286090E+03  0.17958087833E+03  0.12499212168E+03 0.  0.
    9000005    1    3    3    0    0  0.16634418962E+02  0.56481019286E+02 -0.34404519065E+02  0.68201762190E+02  0.10000000000E+01 0.  0.
    9000005    1    3    3    0    0 -0.16634418962E+02 -0.56481019286E+02 -0.94538341839E+02  0.11137911614E+03  0.10000000000E+01 0.  0.
<mgrwt>
<rscale>  0 0.12499212E+03</rscale>
<asrwt>0</asrwt>
<pdfrwt beam="1">  1        4 0.38952322E-02 0.12499212E+03</pdfrwt>
<pdfrwt beam="2">  1       -4 0.23732595E-01 0.12499212E+03</pdfrwt>
<totfact> 0.93709054E+03</totfact>
</mgrwt>
</event>
<event>
 5    1  0.3487578E-002  0.1250000E+03  0.7818608E-02  0.1235069E+00
         -4   -1    0    0    0  501 -0.00000000000E+00  0.00000000000E+00  0.44742656926E+03  0.44742837167E+03  0.12700000000E+01 0. -1.
          4   -1    0    0  501    0  0.00000000000E+00 -0.00000000000E+00 -0.86824654370E+01  0.87748564697E+01  0.12700000000E+01 0. -1.
         25    2    1    2    0    0  0.00000000000E+00  0.00000000000E+00  0.43874410382E+03  0.45620322814E+03  0.12499998692E+03 0.  0.
    9000005    1    3    3    0    0  0.25907345447E+02 -0.16066382690E+02  0.20277332719E+02  0.36626348754E+02  0.10000000000E+01 0.  0.
    9000005    1    3    3    0    0 -0.25907345447E+02  0.16066382690E+02  0.41846677110E+03  0.41957687939E+03  0.10000000000E+01 0.  0.
<mgrwt>
<rscale>  0 0.12499999E+03</rscale>
<asrwt>0</asrwt>
<pdfrwt beam="2">  1        4 0.13430094E-02 0.12499999E+03</pdfrwt>
<pdfrwt beam="1">  1       -4 0.68842110E-01 0.12499999E+03</pdfrwt>
<totfact> 0.59430163E+03</totfact>
</mgrwt>
</event>
<event>
 5    1  0.3487578E-002  0.1250002E+03  0.7818608E-02  0.1235069E+00
          4   -1    0    0  501    0  0.00000000000E+00  0.00000000000E+00  0.30268677272E+03  0.30268943701E+03  0.12700000000E+01 0.  1.
         -4   -1    0    0    0  501 -0.00000000000E+00 -0.00000000000E+00 -0.12871332620E+02  0.12933835603E+02  0.12700000000E+01 0.  1.
         25    2    1    2    0    0  0.00000000000E+00  0.00000000000E+00  0.28981544010E+03  0.31562327261E+03  0.12500024359E+03 0.  0.
    9000005    1    3    3    0    0  0.15919004837E+01 -0.62131518398E+02  0.12846516719E+03  0.14271355544E+03  0.10000000000E+01 0.  0.
    9000005    1    3    3    0    0 -0.15919004837E+01  0.62131518398E+02  0.16135027291E+03  0.17290971717E+03  0.10000000000E+01 0.  0.
<mgrwt>
<rscale>  0 0.12500024E+03</rscale>
<asrwt>0</asrwt>
<pdfrwt beam="1">  1        4 0.46572207E-01 0.12500024E+03</pdfrwt>
<pdfrwt beam="2">  1       -4 0.19852180E-02 0.12500024E+03</pdfrwt>
<totfact> 0.73679322E+03</totfact>
</mgrwt>
</event>
<event>
 5    1  0.3487578E-002  0.1250017E+03  0.7818608E-02  0.1235067E+00
         -4   -1    0    0    0  501 -0.00000000000E+00  0.00000000000E+00  0.34052907379E+03  0.34053144201E+03  0.12700000000E+01 0. -1.
          4   -1    0    0  501    0  0.00000000000E+00 -0.00000000000E+00 -0.11433873084E+02  0.11504188529E+02  0.12700000000E+01 0. -1.
         25    2    1    2    0    0  0.00000000000E+00  0.00000000000E+00  0.32909520070E+03  0.35203563053E+03  0.12500173615E+03 0.  0.
    9000005    1    3    3    0    0  0.54322841250E+02  0.29147043323E+02  0.19338316621E+03  0.20297430918E+03  0.10000000000E+01 0.  0.
    9000005    1    3    3    0    0 -0.54322841250E+02 -0.29147043323E+02  0.13571203449E+03  0.14906132135E+03  0.10000000000E+01 0.  0.
<mgrwt>
<rscale>  0 0.12500174E+03</rscale>
<asrwt>0</asrwt>
<pdfrwt beam="2">  1        4 0.17646484E-02 0.12500174E+03</pdfrwt>
<pdfrwt beam="1">  1       -4 0.52394680E-01 0.12500174E+03</pdfrwt>
<totfact> 0.69498518E+03</totfact>
</mgrwt>
</event>
<event>
 5    1  0.3487578E-002  0.1249991E+03  0.7818608E-02  0.1235071E+00
         -4   -1    0    0    0  501 -0.00000000000E+00  0.00000000000E+00  0.39092778630E+02  0.39113402320E+02  0.12700000000E+01 0. -1.
          4   -1    0    0  501    0  0.00000000000E+00 -0.00000000000E+00 -0.99870151394E+02  0.99878226052E+02  0.12700000000E+01 0. -1.
         25    2    1    2    0    0  0.00000000000E+00  0.00000000000E+00 -0.60777372763E+02  0.13899162837E+03  0.12499913487E+03 0.  0.
    9000005    1    3    3    0    0  0.51365336339E+02  0.58088837563E+01  0.86569822170E+01  0.52422173255E+02  0.10000000000E+01 0.  0.
    9000005    1    3    3    0    0 -0.51365336339E+02 -0.58088837563E+01 -0.69434354980E+02  0.86569455117E+02  0.10000000000E+01 0.  0.
<mgrwt>
<rscale>  0 0.12499913E+03</rscale>
<asrwt>0</asrwt>
<pdfrwt beam="2">  1        4 0.15366846E-01 0.12499913E+03</pdfrwt>
<pdfrwt beam="1">  1       -4 0.60164812E-02 0.12499913E+03</pdfrwt>
<totfact> 0.10154726E+04</totfact>
</mgrwt>
</event>
<event>
 5    1  0.3487578E-002  0.1250019E+03  0.7818608E-02  0.1235066E+00
          4   -1    0    0  501    0  0.00000000000E+00  0.00000000000E+00  0.98227835566E+03  0.98227917666E+03  0.12700000000E+01 0. -1.
         -4   -1    0    0    0  501 -0.00000000000E+00 -0.00000000000E+00 -0.38746107601E+01  0.40774389685E+01  0.12700000000E+01 0. -1.
         25    2    1    2    0    0  0.00000000000E+00  0.00000000000E+00  0.97840374490E+03  0.98635661563E+03  0.12500194062E+03 0.  0.
    9000005    1    3    3    0    0  0.59864435504E+02 -0.19879895188E+00  0.34769990280E+03  0.35281725095E+03  0.10000000000E+01 0.  0.
    9000005    1    3    3    0    0 -0.59864435504E+02  0.19879895188E+00  0.63070384211E+03  0.63353936469E+03  0.10000000000E+01 0.  0.
<mgrwt>
<rscale>  0 0.12500194E+03</rscale>
<asrwt>0</asrwt>
<pdfrwt beam="1">  1        4 0.15113554E+00 0.12500194E+03</pdfrwt>
<pdfrwt beam="2">  1       -4 0.61175876E-03 0.12500194E+03</pdfrwt>
<totfact> 0.31057947E+03</totfact>
</mgrwt>
</event>
<event>
 5    1  0.3487578E-002  0.1249901E+03  0.7818608E-02  0.1235085E+00
         -4   -1    0    0    0  501 -0.00000000000E+00  0.00000000000E+00  0.14502444763E+02  0.14557946425E+02  0.12700000000E+01 0.  1.
          4   -1    0    0  501    0  0.00000000000E+00 -0.00000000000E+00 -0.26873692814E+03  0.26873992901E+03  0.12700000000E+01 0.  1.
         25    2    1    2    0    0  0.00000000000E+00  0.00000000000E+00 -0.25423448338E+03  0.28329787544E+03  0.12499005436E+03 0.  0.
    9000005    1    3    3    0    0 -0.85664692712E+01 -0.88039921891E+01  0.11749930894E+02  0.17028081227E+02  0.10000000000E+01 0.  0.
    9000005    1    3    3    0    0  0.85664692712E+01  0.88039921891E+01 -0.26598441427E+03  0.26626979421E+03  0.10000000000E+01 0.  0.
<mgrwt>
<rscale>  0 0.12499005E+03</rscale>
<asrwt>0</asrwt>
<pdfrwt beam="2">  1        4 0.41348639E-01 0.12499005E+03</pdfrwt>
<pdfrwt beam="1">  1       -4 0.22356457E-02 0.12499005E+03</pdfrwt>
<totfact> 0.77760041E+03</totfact>
</mgrwt>
</event>
<event>
 5    1  0.3487578E-002  0.1250014E+03  0.7818608E-02  0.1235067E+00
         -4   -1    0    0    0  501 -0.00000000000E+00  0.00000000000E+00  0.32685204088E+02  0.32709868026E+02  0.12700000000E+01 0.  1.
          4   -1    0    0  501    0  0.00000000000E+00 -0.00000000000E+00 -0.11944090522E+03  0.11944765690E+03  0.12700000000E+01 0.  1.
         25    2    1    2    0    0  0.00000000000E+00  0.00000000000E+00 -0.86755701130E+02  0.15215752493E+03  0.12500144285E+03 0.  0.
    9000005    1    3    3    0    0 -0.21138268895E+02  0.55926862498E+02 -0.65513658963E+02  0.88699942906E+02  0.10000000000E+01 0.  0.
    9000005    1    3    3    0    0  0.21138268895E+02 -0.55926862498E+02 -0.21242042167E+02  0.63457582023E+02  0.10000000000E+01 0.  0.
<mgrwt>
<rscale>  0 0.12500144E+03</rscale>
<asrwt>0</asrwt>
<pdfrwt beam="2">  1        4 0.18377940E-01 0.12500144E+03</pdfrwt>
<pdfrwt beam="1">  1       -4 0.50309096E-02 0.12500144E+03</pdfrwt>
<totfact> 0.98872144E+03</totfact>
</mgrwt>
</event>
<event>
 5    1  0.3487578E-002  0.1249959E+03  0.7818608E-02  0.1235076E+00
          4   -1    0    0  501    0  0.00000000000E+00  0.00000000000E+00  0.16565351474E+04  0.16565356343E+04  0.12700000000E+01 0. -1.
         -4   -1    0    0    0  501 -0.00000000000E+00 -0.00000000000E+00 -0.21863997538E+01  0.25284864807E+01  0.12700000000E+01 0. -1.
         25    2    1    2    0    0  0.00000000000E+00  0.00000000000E+00  0.16543487477E+04  0.16590641207E+04  0.12499591109E+03 0.  0.
    9000005    1    3    3    0    0 -0.36967816233E+02  0.47751717218E+02  0.61391792221E+03  0.61688172379E+03  0.10000000000E+01 0.  0.
    9000005    1    3    3    0    0  0.36967816233E+02 -0.47751717218E+02  0.10404308255E+04  0.10421823970E+04  0.10000000000E+01 0.  0.
<mgrwt>
<rscale>  0 0.12499591E+03</rscale>
<asrwt>0</asrwt>
<pdfrwt beam="1">  1        4 0.25487803E+00 0.12499591E+03</pdfrwt>
<pdfrwt beam="2">  1       -4 0.36272084E-03 0.12499591E+03</pdfrwt>
<totfact> 0.15003779E+03</totfact>
</mgrwt>
</event>
<event>
 5    1  0.3487578E-002  0.1249959E+03  0.7818608E-02  0.1235076E+00
          4   -1    0    0  501    0  0.00000000000E+00  0.00000000000E+00  0.37803442077E+02  0.37824768774E+02  0.12700000000E+01 0.  1.
         -4   -1    0    0    0  501 -0.00000000000E+00 -0.00000000000E+00 -0.10326944329E+03  0.10327725218E+03  0.12700000000E+01 0.  1.
         25    2    1    2    0    0  0.00000000000E+00  0.00000000000E+00 -0.65466001211E+02  0.14110202095E+03  0.12499593194E+03 0.  0.
    9000005    1    3    3    0    0  0.53450545808E+02 -0.28930004624E+02 -0.49134022683E+02  0.78160464429E+02  0.10000000000E+01 0.  0.
    9000005    1    3    3    0    0 -0.53450545808E+02  0.28930004624E+02 -0.16331978528E+02  0.62941556521E+02  0.10000000000E+01 0.  0.
<mgrwt>
<rscale>  0 0.12499593E+03</rscale>
<asrwt>0</asrwt>
<pdfrwt beam="1">  1        4 0.58181554E-02 0.12499593E+03</pdfrwt>
<pdfrwt beam="2">  1       -4 0.15889848E-01 0.12499593E+03</pdfrwt>
<totfact> 0.10111723E+04</totfact>
</mgrwt>
</event>
<event>
 5    1  0.3487578E-002  0.1250026E+03  0.7818608E-02  0.1235065E+00
          4   -1    0    0  501    0  0.00000000000E+00  0.00000000000E+00  0.41850563376E+02  0.41869828695E+02  0.12700000000E+01 0. -1.
         -4   -1    0    0    0  501 -0.00000000000E+00 -0.00000000000E+00 -0.93296897456E+02  0.93305540966E+02  0.12700000000E+01 0. -1.
         25    2    1    2    0    0  0.00000000000E+00  0.00000000000E+00 -0.51446334080E+02  0.13517536966E+03  0.12500262106E+03 0.  0.
    9000005    1    3    3    0    0  0.55015492271E+02 -0.18930979001E+02 -0.10561393947E+01  0.58199671702E+02  0.10000000000E+01 0.  0.
    9000005    1    3    3    0    0 -0.55015492271E+02  0.18930979001E+02 -0.50390194685E+02  0.76975697958E+02  0.10000000000E+01 0.  0.
<mgrwt>
<rscale>  0 0.12500262E+03</rscale>
<asrwt>0</asrwt>
<pdfrwt beam="1">  1        4 0.64406950E-02 0.12500262E+03</pdfrwt>
<pdfrwt beam="2">  1       -4 0.14355516E-01 0.12500262E+03</pdfrwt>
<totfact> 0.10233771E+04</totfact>
</mgrwt>
</event>
<event>
 5    1  0.3487578E-002  0.1250015E+03  0.7818608E-02  0.1235067E+00
         -4   -1    0    0    0  501 -0.00000000000E+00  0.00000000000E+00  0.10061380334E+04  0.10061388349E+04  0.12700000000E+01 0. -1.
          4   -1    0    0  501    0  0.00000000000E+00 -0.00000000000E+00 -0.37778294299E+01  0.39855859295E+01  0.12700000000E+01 0. -1.
         25    2    1    2    0    0  0.00000000000E+00  0.00000000000E+00  0.10023602039E+04  0.10101244208E+04  0.12500146844E+03 0.  0.
    9000005    1    3    3    0    0  0.48718905647E+02 -0.28907735217E+02  0.71439230636E+03  0.71663558125E+03  0.10000000000E+01 0.  0.
    9000005    1    3    3    0    0 -0.48718905647E+02  0.28907735217E+02  0.28796789758E+03  0.29348883959E+03  0.10000000000E+01 0.  0.
<mgrwt>
<rscale>  0 0.12500147E+03</rscale>
<asrwt>0</asrwt>
<pdfrwt beam="2">  1        4 0.59724665E-03 0.12500147E+03</pdfrwt>
<pdfrwt beam="1">  1       -4 0.15480672E+00 0.12500147E+03</pdfrwt>
<totfact> 0.30271492E+03</totfact>
</mgrwt>
</event>
<event>
 5    1  0.3487578E-002  0.1249991E+03  0.7818608E-02  0.1235071E+00
          4   -1    0    0  501    0  0.00000000000E+00  0.00000000000E+00  0.65713245194E+02  0.65725516308E+02  0.12700000000E+01 0. -1.
         -4   -1    0    0    0  501 -0.00000000000E+00 -0.00000000000E+00 -0.59418440252E+02  0.59432011088E+02  0.12700000000E+01 0. -1.
         25    2    1    2    0    0  0.00000000000E+00  0.00000000000E+00  0.62948049420E+01  0.12515752740E+03  0.12499912838E+03 0.  0.
    9000005    1    3    3    0    0 -0.37284185630E+02  0.23095760785E+02 -0.41424970049E+02  0.60336993693E+02  0.10000000000E+01 0.  0.
    9000005    1    3    3    0    0  0.37284185630E+02 -0.23095760785E+02  0.47719774991E+02  0.64820533703E+02  0.10000000000E+01 0.  0.
<mgrwt>
<rscale>  0 0.12499913E+03</rscale>
<asrwt>0</asrwt>
<pdfrwt beam="1">  1        4 0.10111718E-01 0.12499913E+03</pdfrwt>
<pdfrwt beam="2">  1       -4 0.91432863E-02 0.12499913E+03</pdfrwt>
<totfact> 0.10449648E+04</totfact>
</mgrwt>
</event>
<event>
 5    1  0.3487578E-002  0.1249993E+03  0.7818608E-02  0.1235070E+00
         -4   -1    0    0    0  501 -0.00000000000E+00  0.00000000000E+00  0.94463363011E+01  0.95313256954E+01  0.12700000000E+01 0. -1.
          4   -1    0    0  501    0  0.00000000000E+00 -0.00000000000E+00 -0.41157777351E+03  0.41157973292E+03  0.12700000000E+01 0. -1.
         25    2    1    2    0    0  0.00000000000E+00  0.00000000000E+00 -0.40213143721E+03  0.42111105862E+03  0.12499932357E+03 0.  0.
    9000005    1    3    3    0    0  0.46354005616E+01 -0.30611827080E-01 -0.41101429339E+03  0.41104164904E+03  0.10000000000E+01 0.  0.
    9000005    1    3    3    0    0 -0.46354005616E+01  0.30611827080E-01  0.88828561737E+01  0.10069409578E+02  0.10000000000E+01 0.  0.
<mgrwt>
<rscale>  0 0.12499932E+03</rscale>
<asrwt>0</asrwt>
<pdfrwt beam="2">  1        4 0.63326332E-01 0.12499932E+03</pdfrwt>
<pdfrwt beam="1">  1       -4 0.14599712E-02 0.12499932E+03</pdfrwt>
<totfact> 0.62551007E+03</totfact>
</mgrwt>
</event>
<event>
 5    1  0.3487578E-002  0.1250014E+03  0.7818608E-02  0.1235067E+00
          4   -1    0    0  501    0  0.00000000000E+00  0.00000000000E+00  0.40700984144E+02  0.40720793340E+02  0.12700000000E+01 0.  1.
         -4   -1    0    0    0  501 -0.00000000000E+00 -0.00000000000E+00 -0.95929157193E+02  0.95937563549E+02  0.12700000000E+01 0.  1.
         25    2    1    2    0    0  0.00000000000E+00  0.00000000000E+00 -0.55228173049E+02  0.13665835689E+03  0.12500142163E+03 0.  0.
    9000005    1    3    3    0    0  0.32709152432E+02 -0.23599641405E+01 -0.85771530549E+02  0.91832529837E+02  0.10000000000E+01 0.  0.
    9000005    1    3    3    0    0 -0.32709152432E+02  0.23599641405E+01  0.30543357500E+02  0.44825827052E+02  0.10000000000E+01 0.  0.
<mgrwt>
<rscale>  0 0.12500142E+03</rscale>
<asrwt>0</asrwt>
<pdfrwt beam="1">  1        4 0.62638603E-02 0.12500142E+03</pdfrwt>
<pdfrwt beam="2">  1       -4 0.14760502E-01 0.12500142E+03</pdfrwt>
<totfact> 0.10202907E+04</totfact>
</mgrwt>
</event>
<event>
 5    1  0.3487578E-002  0.1250021E+03  0.7818608E-02  0.1235066E+00
         -4   -1    0    0    0  501 -0.00000000000E+00  0.00000000000E+00  0.70919444467E+02  0.70930814908E+02  0.12700000000E+01 0. -1.
          4   -1    0    0  501    0  0.00000000000E+00 -0.00000000000E+00 -0.55058837933E+02  0.55073483043E+02  0.12700000000E+01 0. -1.
         25    2    1    2    0    0  0.00000000000E+00  0.00000000000E+00  0.15860606535E+02  0.12600429795E+03  0.12500209703E+03 0.  0.
    9000005    1    3    3    0    0 -0.27185849777E+02  0.56269824777E+02  0.77971188600E+01  0.62985384583E+02  0.10000000000E+01 0.  0.
    9000005    1    3    3    0    0  0.27185849777E+02 -0.56269824777E+02  0.80634876747E+01  0.63018913368E+02  0.10000000000E+01 0.  0.
<mgrwt>
<rscale>  0 0.12500210E+03</rscale>
<asrwt>0</asrwt>
<pdfrwt beam="2">  1        4 0.84725917E-02 0.12500210E+03</pdfrwt>
<pdfrwt beam="1">  1       -4 0.10912685E-01 0.12500210E+03</pdfrwt>
<totfact> 0.10430369E+04</totfact>
</mgrwt>
</event>
<event>
 5    1  0.3487578E-002  0.1250014E+03  0.7818608E-02  0.1235067E+00
          4   -1    0    0  501    0  0.00000000000E+00  0.00000000000E+00  0.30958008917E+02  0.30984047768E+02  0.12700000000E+01 0. -1.
         -4   -1    0    0    0  501 -0.00000000000E+00 -0.00000000000E+00 -0.12609949703E+03  0.12610589222E+03  0.12700000000E+01 0. -1.
         25    2    1    2    0    0  0.00000000000E+00  0.00000000000E+00 -0.95141488116E+02  0.15708993999E+03  0.12500138593E+03 0.  0.
    9000005    1    3    3    0    0  0.78184254993E+01  0.19497482492E+02 -0.12153571001E+03  0.12334183559E+03  0.10000000000E+01 0.  0.
    9000005    1    3    3    0    0 -0.78184254993E+01 -0.19497482492E+02  0.26394221891E+02  0.33748104392E+02  0.10000000000E+01 0.  0.
<mgrwt>
<rscale>  0 0.12500139E+03</rscale>
<asrwt>0</asrwt>
<pdfrwt beam="1">  1        4 0.47652656E-02 0.12500139E+03</pdfrwt>
<pdfrwt beam="2">  1       -4 0.19402417E-01 0.12500139E+03</pdfrwt>
<totfact> 0.97903722E+03</totfact>
</mgrwt>
</event>
<event>
 5    1  0.3487578E-002  0.1249958E+03  0.7818608E-02  0.1235076E+00
         -4   -1    0    0    0  501 -0.00000000000E+00  0.00000000000E+00  0.14563660184E+03  0.14564213915E+03  0.12700000000E+01 0.  1.
          4   -1    0    0  501    0  0.00000000000E+00 -0.00000000000E+00 -0.26798994359E+02  0.26829070030E+02  0.12700000000E+01 0.  1.
         25    2    1    2    0    0  0.00000000000E+00  0.00000000000E+00  0.11883760748E+03  0.17247120918E+03  0.12499576410E+03 0.  0.
    9000005    1    3    3    0    0  0.97752234357E+01 -0.56793091315E+02  0.26074745380E+02  0.63260592480E+02  0.10000000000E+01 0.  0.
    9000005    1    3    3    0    0 -0.97752234357E+01  0.56793091315E+02  0.92762862101E+02  0.10921061670E+03  0.10000000000E+01 0.  0.
<mgrwt>
<rscale>  0 0.12499576E+03</rscale>
<asrwt>0</asrwt>
<pdfrwt beam="2">  1        4 0.41256617E-02 0.12499576E+03</pdfrwt>
<pdfrwt beam="1">  1       -4 0.22408370E-01 0.12499576E+03</pdfrwt>
<totfact> 0.94999063E+03</totfact>
</mgrwt>
</event>
<event>
 5    1  0.3487578E-002  0.1250059E+03  0.7818608E-02  0.1235060E+00
         -4   -1    0    0    0  501 -0.00000000000E+00  0.00000000000E+00  0.11484224933E+03  0.11484927136E+03  0.12700000000E+01 0. -1.
          4   -1    0    0  501    0  0.00000000000E+00 -0.00000000000E+00 -0.33997344566E+02  0.34021057267E+02  0.12700000000E+01 0. -1.
         25    2    1    2    0    0  0.00000000000E+00  0.00000000000E+00  0.80844904763E+02  0.14887032862E+03  0.12500590433E+03 0.  0.
    9000005    1    3    3    0    0 -0.20042905458E+02  0.10129072129E+02 -0.29032029103E+02  0.36717500939E+02  0.10000000000E+01 0.  0.
    9000005    1    3    3    0    0  0.20042905458E+02 -0.10129072129E+02  0.10987693387E+03  0.11215282768E+03  0.10000000000E+01 0.  0.
<mgrwt>
<rscale>  0 0.12500590E+03</rscale>
<asrwt>0</asrwt>
<pdfrwt beam="2">  1        4 0.52327249E-02 0.12500590E+03</pdfrwt>
<pdfrwt beam="1">  1       -4 0.17670403E-01 0.12500590E+03</pdfrwt>
<totfact> 0.99516133E+03</totfact>
</mgrwt>
</event>
<event>
 5    1  0.3487578E-002  0.1249992E+03  0.7818608E-02  0.1235070E+00
         -4   -1    0    0    0  501 -0.00000000000E+00  0.00000000000E+00  0.24098280788E+02  0.24131722627E+02  0.12700000000E+01 0. -1.
          4   -1    0    0  501    0  0.00000000000E+00 -0.00000000000E+00 -0.16194634016E+03  0.16195131982E+03  0.12700000000E+01 0. -1.
         25    2    1    2    0    0  0.00000000000E+00  0.00000000000E+00 -0.13784805938E+03  0.18608304245E+03  0.12499924485E+03 0.  0.
    9000005    1    3    3    0    0 -0.38666557513E+02  0.36420598772E+02 -0.11792920491E+03  0.12934396026E+03  0.10000000000E+01 0.  0.
    9000005    1    3    3    0    0  0.38666557513E+02 -0.36420598772E+02 -0.19918854469E+02  0.56739082194E+02  0.10000000000E+01 0.  0.
<mgrwt>
<rscale>  0 0.12499924E+03</rscale>
<asrwt>0</asrwt>
<pdfrwt beam="2">  1        4 0.24917776E-01 0.12499924E+03</pdfrwt>
<pdfrwt beam="1">  1       -4 0.37103834E-02 0.12499924E+03</pdfrwt>
<totfact> 0.92534920E+03</totfact>
</mgrwt>
</event>
<event>
 5    1  0.3487578E-002  0.1249987E+03  0.7818608E-02  0.1235071E+00
         -4   -1    0    0    0  501 -0.00000000000E+00  0.00000000000E+00  0.17912741606E+03  0.17913191810E+03  0.12700000000E+01 0.  1.
          4   -1    0    0  501    0  0.00000000000E+00 -0.00000000000E+00 -0.21783366082E+02  0.21820356044E+02  0.12700000000E+01 0.  1.
         25    2    1    2    0    0  0.00000000000E+00  0.00000000000E+00  0.15734404998E+03  0.20095227415E+03  0.12499866568E+03 0.  0.
    9000005    1    3    3    0    0  0.10361215106E+02  0.34143667610E+02 -0.38048672982E+01  0.35897379173E+02  0.10000000000E+01 0.  0.
    9000005    1    3    3    0    0 -0.10361215106E+02 -0.34143667610E+02  0.16114891727E+03  0.16505489497E+03  0.10000000000E+01 0.  0.
<mgrwt>
<rscale>  0 0.12499867E+03</rscale>
<asrwt>0</asrwt>
<pdfrwt beam="2">  1        4 0.33544789E-02 0.12499867E+03</pdfrwt>
<pdfrwt beam="1">  1       -4 0.27561255E-01 0.12499867E+03</pdfrwt>
<totfact> 0.89977832E+03</totfact>
</mgrwt>
</event>
<event>
 5    1  0.3487578E-002  0.1250026E+03  0.7818608E-02  0.1235065E+00
          4   -1    0    0  501    0  0.00000000000E+00  0.00000000000E+00  0.90897717131E+03  0.90897805851E+03  0.12700000000E+01 0.  1.
         -4   -1    0    0    0  501 -0.00000000000E+00 -0.00000000000E+00 -0.42028568627E+01  0.43905473245E+01  0.12700000000E+01 0.  1.
         25    2    1    2    0    0  0.00000000000E+00  0.00000000000E+00  0.90477431444E+03  0.91336860584E+03  0.12500260017E+03 0.  0.
    9000005    1    3    3    0    0 -0.41398972935E+02  0.44111501117E+02  0.33785139257E+03  0.34322625621E+03  0.10000000000E+01 0.  0.
    9000005    1    3    3    0    0  0.41398972935E+02 -0.44111501117E+02  0.56692292187E+03  0.57014234962E+03  0.10000000000E+01 0.  0.
<mgrwt>
<rscale>  0 0.12500260E+03</rscale>
<asrwt>0</asrwt>
<pdfrwt beam="1">  1        4 0.13985708E+00 0.12500260E+03</pdfrwt>
<pdfrwt beam="2">  1       -4 0.66109964E-03 0.12500260E+03</pdfrwt>
<totfact> 0.33651274E+03</totfact>
</mgrwt>
</event>
<event>
 5    1  0.3487578E-002  0.1249854E+03  0.7818608E-02  0.1235092E+00
          4   -1    0    0  501    0  0.00000000000E+00  0.00000000000E+00  0.13492062549E+02  0.13551702913E+02  0.12700000000E+01 0.  1.
         -4   -1    0    0    0  501 -0.00000000000E+00 -0.00000000000E+00 -0.28875529735E+03  0.28875809018E+03  0.12700000000E+01 0.  1.
         25    2    1    2    0    0  0.00000000000E+00  0.00000000000E+00 -0.27526323480E+03  0.30230979309E+03  0.12498544943E+03 0.  0.
    9000005    1    3    3    0    0  0.17579711958E+02  0.59489783271E+02 -0.15577393816E+03  0.16767408982E+03  0.10000000000E+01 0.  0.
    9000005    1    3    3    0    0 -0.17579711958E+02 -0.59489783271E+02 -0.11948929664E+03  0.13463570328E+03  0.10000000000E+01 0.  0.
<mgrwt>
<rscale>  0 0.12498545E+03</rscale>
<asrwt>0</asrwt>
<pdfrwt beam="1">  1        4 0.20805047E-02 0.12498545E+03</pdfrwt>
<pdfrwt beam="2">  1       -4 0.44428690E-01 0.12498545E+03</pdfrwt>
<totfact> 0.75334342E+03</totfact>
</mgrwt>
</event>
<event>
 5    1  0.3487578E-002  0.1250006E+03  0.7818608E-02  0.1235068E+00
         -4   -1    0    0    0  501 -0.00000000000E+00  0.00000000000E+00  0.26791416833E+03  0.26791717842E+03  0.12700000000E+01 0. -1.
          4   -1    0    0  501    0  0.00000000000E+00 -0.00000000000E+00 -0.14549614627E+02  0.14604937035E+02  0.12700000000E+01 0. -1.
         25    2    1    2    0    0  0.00000000000E+00  0.00000000000E+00  0.25336455371E+03  0.28252211546E+03  0.12500059459E+03 0.  0.
    9000005    1    3    3    0    0  0.53531723413E+02 -0.25826052560E+02  0.17031324726E+03  0.18038911440E+03  0.10000000000E+01 0.  0.
    9000005    1    3    3    0    0 -0.53531723413E+02  0.25826052560E+02  0.83051306447E+02  0.10213300106E+03  0.10000000000E+01 0.  0.
<mgrwt>
<rscale>  0 0.12500059E+03</rscale>
<asrwt>0</asrwt>
<pdfrwt beam="2">  1        4 0.22428893E-02 0.12500059E+03</pdfrwt>
<pdfrwt beam="1">  1       -4 0.41222052E-01 0.12500059E+03</pdfrwt>
<totfact> 0.77843845E+03</totfact>
</mgrwt>
</event>
<event>
 5    1  0.3487578E-002  0.1250040E+03  0.7818608E-02  0.1235063E+00
          4   -1    0    0  501    0  0.00000000000E+00  0.00000000000E+00  0.53434724781E+01  0.54923217426E+01  0.12700000000E+01 0.  1.
         -4   -1    0    0    0  501 -0.00000000000E+00 -0.00000000000E+00 -0.72088628182E+03  0.72088740052E+03  0.12700000000E+01 0.  1.
         25    2    1    2    0    0  0.00000000000E+00  0.00000000000E+00 -0.71554280935E+03  0.72637972226E+03  0.12500395554E+03 0.  0.
    9000005    1    3    3    0    0 -0.36057285423E+02  0.29994151668E+02 -0.59776179933E+03  0.59959982130E+03  0.10000000000E+01 0.  0.
    9000005    1    3    3    0    0  0.36057285423E+02 -0.29994151668E+02 -0.11778101002E+03  0.12677990096E+03  0.10000000000E+01 0.  0.
<mgrwt>
<rscale>  0 0.12500396E+03</rscale>
<asrwt>0</asrwt>
<pdfrwt beam="1">  1        4 0.83360926E-03 0.12500396E+03</pdfrwt>
<pdfrwt beam="2">  1       -4 0.11091704E+00 0.12500396E+03</pdfrwt>
<totfact> 0.41726577E+03</totfact>
</mgrwt>
</event>
<event>
 5    1  0.3487578E-002  0.1249981E+03  0.7818608E-02  0.1235072E+00
          4   -1    0    0  501    0  0.00000000000E+00  0.00000000000E+00  0.39544804810E+02  0.39565192878E+02  0.12700000000E+01 0. -1.
         -4   -1    0    0    0  501 -0.00000000000E+00 -0.00000000000E+00 -0.98727454947E+02  0.98735623057E+02  0.12700000000E+01 0. -1.
         25    2    1    2    0    0  0.00000000000E+00  0.00000000000E+00 -0.59182650138E+02  0.13830081593E+03  0.12499811843E+03 0.  0.
    9000005    1    3    3    0    0  0.28625227030E+02  0.55371872449E+02 -0.24682430558E+02  0.67049759576E+02  0.10000000000E+01 0.  0.
    9000005    1    3    3    0    0 -0.28625227030E+02 -0.55371872449E+02 -0.34500219580E+02  0.71251056358E+02  0.10000000000E+01 0.  0.
<mgrwt>
<rscale>  0 0.12499812E+03</rscale>
<asrwt>0</asrwt>
<pdfrwt beam="1">  1        4 0.60860128E-02 0.12499812E+03</pdfrwt>
<pdfrwt beam="2">  1       -4 0.15191036E-01 0.12499812E+03</pdfrwt>
<totfact> 0.10169355E+04</totfact>
</mgrwt>
</event>
<event>
 5    1  0.3487578E-002  0.1249935E+03  0.7818608E-02  0.1235079E+00
          4   -1    0    0  501    0  0.00000000000E+00  0.00000000000E+00  0.17274853754E+02  0.17321474308E+02  0.12700000000E+01 0.  1.
         -4   -1    0    0    0  501 -0.00000000000E+00 -0.00000000000E+00 -0.22574686601E+03  0.22575043834E+03  0.12700000000E+01 0.  1.
         25    2    1    2    0    0  0.00000000000E+00  0.00000000000E+00 -0.20847201225E+03  0.24307191265E+03  0.12499349914E+03 0.  0.
    9000005    1    3    3    0    0 -0.11386492383E+02  0.27126591617E+02  0.29744049315E+01  0.29586335803E+02  0.10000000000E+01 0.  0.
    9000005    1    3    3    0    0  0.11386492383E+02 -0.27126591617E+02 -0.21144641719E+03  0.21348557685E+03  0.10000000000E+01 0.  0.
<mgrwt>
<rscale>  0 0.12499350E+03</rscale>
<asrwt>0</asrwt>
<pdfrwt beam="1">  1        4 0.26615310E-02 0.12499350E+03</pdfrwt>
<pdfrwt beam="2">  1       -4 0.34734146E-01 0.12499350E+03</pdfrwt>
<totfact> 0.83354055E+03</totfact>
</mgrwt>
</event>
<event>
 5    1  0.3487578E-002  0.1250008E+03  0.7818608E-02  0.1235068E+00
          4   -1    0    0  501    0  0.00000000000E+00  0.00000000000E+00  0.11587781641E+02  0.11657168754E+02  0.12700000000E+01 0. -1.
         -4   -1    0    0    0  501 -0.00000000000E+00 -0.00000000000E+00 -0.33602813424E+03  0.33603053418E+03  0.12700000000E+01 0. -1.
         25    2    1    2    0    0  0.00000000000E+00  0.00000000000E+00 -0.32444035260E+03  0.34768770293E+03  0.12500078550E+03 0.  0.
    9000005    1    3    3    0    0 -0.16053503215E+02  0.18180728639E+02 -0.20239483860E+01  0.24358781299E+02  0.10000000000E+01 0.  0.
    9000005    1    3    3    0    0  0.16053503215E+02 -0.18180728639E+02 -0.32241640421E+03  0.32332892163E+03  0.10000000000E+01 0.  0.
<mgrwt>
<rscale>  0 0.12500079E+03</rscale>
<asrwt>0</asrwt>
<pdfrwt beam="1">  1        4 0.17882580E-02 0.12500079E+03</pdfrwt>
<pdfrwt beam="2">  1       -4 0.51702151E-01 0.12500079E+03</pdfrwt>
<totfact> 0.69978475E+03</totfact>
</mgrwt>
</event>
<event>
 5    1  0.3487578E-002  0.1249969E+03  0.7818608E-02  0.1235074E+00
         -4   -1    0    0    0  501 -0.00000000000E+00  0.00000000000E+00  0.76127449610E+03  0.76127555544E+03  0.12700000000E+01 0.  1.
          4   -1    0    0  501    0  0.00000000000E+00 -0.00000000000E+00 -0.50512760827E+01  0.52084825106E+01  0.12700000000E+01 0.  1.
         25    2    1    2    0    0  0.00000000000E+00  0.00000000000E+00  0.75622322001E+03  0.76648403795E+03  0.12499688773E+03 0.  0.
    9000005    1    3    3    0    0 -0.10833172269E+02 -0.33529959611E+02  0.69457636377E+03  0.69547030197E+03  0.10000000000E+01 0.  0.
    9000005    1    3    3    0    0  0.10833172269E+02  0.33529959611E+02  0.61646856240E+02  0.71013735976E+02  0.10000000000E+01 0.  0.
<mgrwt>
<rscale>  0 0.12499689E+03</rscale>
<asrwt>0</asrwt>
<pdfrwt beam="2">  1        4 0.78929432E-03 0.12499689E+03</pdfrwt>
<pdfrwt beam="1">  1       -4 0.11713123E+00 0.12499689E+03</pdfrwt>
<totfact> 0.39800576E+03</totfact>
</mgrwt>
</event>
<event>
 5    1  0.3487578E-002  0.1249940E+03  0.7818608E-02  0.1235079E+00
          4   -1    0    0  501    0  0.00000000000E+00  0.00000000000E+00  0.72137405202E+02  0.72148583696E+02  0.12700000000E+01 0. -1.
         -4   -1    0    0    0  501 -0.00000000000E+00 -0.00000000000E+00 -0.54122111068E+02  0.54137009582E+02  0.12700000000E+01 0. -1.
         25    2    1    2    0    0  0.00000000000E+00  0.00000000000E+00  0.18015294134E+02  0.12628559328E+03  0.12499400084E+03 0.  0.
    9000005    1    3    3    0    0 -0.18646595798E+02 -0.97387579214E+01 -0.50441996185E+02  0.54661997035E+02  0.10000000000E+01 0.  0.
    9000005    1    3    3    0    0  0.18646595798E+02  0.97387579214E+01  0.68457290320E+02  0.71623596242E+02  0.10000000000E+01 0.  0.
<mgrwt>
<rscale>  0 0.12499400E+03</rscale>
<asrwt>0</asrwt>
<pdfrwt beam="1">  1        4 0.11100068E-01 0.12499400E+03</pdfrwt>
<pdfrwt beam="2">  1       -4 0.83284846E-02 0.12499400E+03</pdfrwt>
<totfact> 0.10426120E+04</totfact>
</mgrwt>
</event>
<event>
 5    1  0.3487578E-002  0.1249430E+03  0.7818608E-02  0.1235158E+00
          4   -1    0    0  501    0  0.00000000000E+00  0.00000000000E+00  0.18012736033E+02  0.18057451630E+02  0.12700000000E+01 0.  1.
         -4   -1    0    0    0  501 -0.00000000000E+00 -0.00000000000E+00 -0.21634740218E+03  0.21635112972E+03  0.12700000000E+01 0.  1.
         25    2    1    2    0    0  0.00000000000E+00  0.00000000000E+00 -0.19833466615E+03  0.23440858135E+03  0.12494295984E+03 0.  0.
    9000005    1    3    3    0    0  0.11750723323E+02 -0.53639407366E+02 -0.15502484139E+03  0.16446570150E+03  0.10000000000E+01 0.  0.
    9000005    1    3    3    0    0 -0.11750723323E+02  0.53639407366E+02 -0.43309824758E+02  0.69942879850E+02  0.10000000000E+01 0.  0.
<mgrwt>
<rscale>  0 0.12494296E+03</rscale>
<asrwt>0</asrwt>
<pdfrwt beam="1">  1        4 0.27749167E-02 0.12494296E+03</pdfrwt>
<pdfrwt beam="2">  1       -4 0.33287940E-01 0.12494296E+03</pdfrwt>
<totfact> 0.84744987E+03</totfact>
</mgrwt>
</event>
<event>
 5    1  0.3487578E-002  0.1249978E+03  0.7818608E-02  0.1235073E+00
          4   -1    0    0  501    0  0.00000000000E+00  0.00000000000E+00  0.25903604971E+02  0.25934719017E+02  0.12700000000E+01 0. -1.
         -4   -1    0    0    0  501 -0.00000000000E+00 -0.00000000000E+00 -0.15066978848E+03  0.15067514082E+03  0.12700000000E+01 0. -1.
         25    2    1    2    0    0  0.00000000000E+00  0.00000000000E+00 -0.12476618351E+03  0.17660985984E+03  0.12499776816E+03 0.  0.
    9000005    1    3    3    0    0 -0.60238058900E+02  0.27985898739E+01 -0.39224620840E+02  0.71944608730E+02  0.10000000000E+01 0.  0.
    9000005    1    3    3    0    0  0.60238058900E+02 -0.27985898739E+01 -0.85541562674E+02  0.10466525111E+03  0.10000000000E+01 0.  0.
<mgrwt>
<rscale>  0 0.12499777E+03</rscale>
<asrwt>0</asrwt>
<pdfrwt beam="1">  1        4 0.39879752E-02 0.12499777E+03</pdfrwt>
<pdfrwt beam="2">  1       -4 0.23182772E-01 0.12499777E+03</pdfrwt>
<totfact> 0.94235541E+03</totfact>
</mgrwt>
</event>
<event>
 5    1  0.3487578E-002  0.1249992E+03  0.7818608E-02  0.1235070E+00
         -4   -1    0    0    0  501 -0.00000000000E+00  0.00000000000E+00  0.31553533164E+02  0.31579080974E+02  0.12700000000E+01 0.  1.
          4   -1    0    0  501    0  0.00000000000E+00 -0.00000000000E+00 -0.12371712405E+03  0.12372364238E+03  0.12700000000E+01 0.  1.
         25    2    1    2    0    0  0.00000000000E+00  0.00000000000E+00 -0.92163590887E+02  0.15530272335E+03  0.12499923358E+03 0.  0.
    9000005    1    3    3    0    0  0.59242226362E+02 -0.25002588316E+01 -0.70596077439E+02  0.92199234424E+02  0.10000000000E+01 0.  0.
    9000005    1    3    3    0    0 -0.59242226362E+02  0.25002588316E+01 -0.21567513448E+02  0.63103488928E+02  0.10000000000E+01 0.  0.
<mgrwt>
<rscale>  0 0.12499923E+03</rscale>
<asrwt>0</asrwt>
<pdfrwt beam="2">  1        4 0.19035870E-01 0.12499923E+03</pdfrwt>
<pdfrwt beam="1">  1       -4 0.48568564E-02 0.12499923E+03</pdfrwt>
<totfact> 0.98257797E+03</totfact>
</mgrwt>
</event>
<event>
 5    1  0.3487578E-002  0.1249982E+03  0.7818608E-02  0.1235072E+00
          4   -1    0    0  501    0  0.00000000000E+00  0.00000000000E+00  0.62484657474E+03  0.62484786538E+03  0.12700000000E+01 0.  1.
         -4   -1    0    0    0  501 -0.00000000000E+00 -0.00000000000E+00 -0.61855408430E+01  0.63145716815E+01  0.12700000000E+01 0.  1.
         25    2    1    2    0    0  0.00000000000E+00  0.00000000000E+00  0.61866103390E+03  0.63116243706E+03  0.12499818834E+03 0.  0.
    9000005    1    3    3    0    0 -0.44756990880E+02 -0.38454666766E+02  0.41320375222E+03  0.41739704177E+03  0.10000000000E+01 0.  0.
    9000005    1    3    3    0    0  0.44756990880E+02  0.38454666766E+02  0.20545728168E+03  0.21376539529E+03  0.10000000000E+01 0.  0.
<mgrwt>
<rscale>  0 0.12499819E+03</rscale>
<asrwt>0</asrwt>
<pdfrwt beam="1">  1        4 0.96140307E-01 0.12499819E+03</pdfrwt>
<pdfrwt beam="2">  1       -4 0.96164600E-03 0.12499819E+03</pdfrwt>
<totfact> 0.46959682E+03</totfact>
</mgrwt>
</event>
<event>
 5    1  0.3487578E-002  0.1249987E+03  0.7818608E-02  0.1235071E+00
         -4   -1    0    0    0  501 -0.00000000000E+00  0.00000000000E+00  0.21602928512E+02  0.21640226900E+02  0.12700000000E+01 0. -1.
          4   -1    0    0  501    0  0.00000000000E+00 -0.00000000000E+00 -0.18062112797E+03  0.18062559279E+03  0.12700000000E+01 0. -1.
         25    2    1    2    0    0  0.00000000000E+00  0.00000000000E+00 -0.15901819946E+03  0.20226581969E+03  0.12499869621E+03 0.  0.
    9000005    1    3    3    0    0  0.28755179269E+02 -0.42425675384E+02 -0.21653507600E+02  0.55647755193E+02  0.10000000000E+01 0.  0.
    9000005    1    3    3    0    0 -0.28755179269E+02  0.42425675384E+02 -0.13736469186E+03  0.14661806450E+03  0.10000000000E+01 0.  0.
<mgrwt>
<rscale>  0 0.12499870E+03</rscale>
<asrwt>0</asrwt>
<pdfrwt beam="2">  1        4 0.27791077E-01 0.12499870E+03</pdfrwt>
<pdfrwt beam="1">  1       -4 0.33267401E-02 0.12499870E+03</pdfrwt>
<totfact> 0.89757378E+03</totfact>
</mgrwt>
</event>
<event>
 5    1  0.3487578E-002  0.1249995E+03  0.7818608E-02  0.1235070E+00
          4   -1    0    0  501    0  0.00000000000E+00  0.00000000000E+00  0.48925027370E+01  0.50546496448E+01  0.12700000000E+01 0. -1.
         -4   -1    0    0    0  501 -0.00000000000E+00 -0.00000000000E+00 -0.78523198451E+03  0.78523301153E+03  0.12700000000E+01 0. -1.
         25    2    1    2    0    0  0.00000000000E+00  0.00000000000E+00 -0.78033948178E+03  0.79028766118E+03  0.12499952237E+03 0.  0.
    9000005    1    3    3    0    0  0.62228911440E+01 -0.27571275225E+02 -0.37798883549E+02  0.47208634690E+02  0.10000000000E+01 0.  0.
    9000005    1    3    3    0    0 -0.62228911440E+01  0.27571275225E+02 -0.74254059823E+03  0.74307902649E+03  0.10000000000E+01 0.  0.
<mgrwt>
<rscale>  0 0.12499952E+03</rscale>
<asrwt>0</asrwt>
<pdfrwt beam="1">  1        4 0.76524520E-03 0.12499952E+03</pdfrwt>
<pdfrwt beam="2">  1       -4 0.12081737E+00 0.12499952E+03</pdfrwt>
<totfact> 0.38702438E+03</totfact>
</mgrwt>
</event>
<event>
 5    1  0.3487578E-002  0.1249983E+03  0.7818608E-02  0.1235072E+00
          4   -1    0    0  501    0  0.00000000000E+00  0.00000000000E+00  0.96652368433E+02  0.96660711893E+02  0.12700000000E+01 0.  1.
         -4   -1    0    0    0  501 -0.00000000000E+00 -0.00000000000E+00 -0.40394286582E+02  0.40414246108E+02  0.12700000000E+01 0.  1.
         25    2    1    2    0    0  0.00000000000E+00  0.00000000000E+00  0.56258081851E+02  0.13707495800E+03  0.12499828934E+03 0.  0.
    9000005    1    3    3    0    0  0.13413771207E+02  0.56122022345E+02  0.54437108802E+02  0.79334793532E+02  0.10000000000E+01 0.  0.
    9000005    1    3    3    0    0 -0.13413771207E+02 -0.56122022345E+02  0.18209730494E+01  0.57740164469E+02  0.10000000000E+01 0.  0.
<mgrwt>
<rscale>  0 0.12499829E+03</rscale>
<asrwt>0</asrwt>
<pdfrwt beam="1">  1        4 0.14871772E-01 0.12499829E+03</pdfrwt>
<pdfrwt beam="2">  1       -4 0.62166828E-02 0.12499829E+03</pdfrwt>
<totfact> 0.10194912E+04</totfact>
</mgrwt>
</event>
<event>
 5    1  0.3487578E-002  0.1250023E+03  0.7818608E-02  0.1235066E+00
          4   -1    0    0  501    0  0.00000000000E+00  0.00000000000E+00  0.90354772206E+02  0.90363697138E+02  0.12700000000E+01 0.  1.
         -4   -1    0    0    0  501 -0.00000000000E+00 -0.00000000000E+00 -0.43213534806E+02  0.43232192755E+02  0.12700000000E+01 0.  1.
         25    2    1    2    0    0  0.00000000000E+00  0.00000000000E+00  0.47141237400E+02  0.13359588989E+03  0.12500226211E+03 0.  0.
    9000005    1    3    3    0    0 -0.14015270353E+02 -0.58347003304E+02  0.42222970814E+02  0.73379696524E+02  0.10000000000E+01 0.  0.
    9000005    1    3    3    0    0  0.14015270353E+02  0.58347003304E+02  0.49182665857E+01  0.60216193369E+02  0.10000000000E+01 0.  0.
<mgrwt>
<rscale>  0 0.12500226E+03</rscale>
<asrwt>0</asrwt>
<pdfrwt beam="1">  1        4 0.13902856E-01 0.12500226E+03</pdfrwt>
<pdfrwt beam="2">  1       -4 0.66503579E-02 0.12500226E+03</pdfrwt>
<totfact> 0.10267228E+04</totfact>
</mgrwt>
</event>
<event>
 5    1  0.3487578E-002  0.1249978E+03  0.7818608E-02  0.1235073E+00
          4   -1    0    0  501    0  0.00000000000E+00  0.00000000000E+00  0.13408940306E+03  0.13409541719E+03  0.12700000000E+01 0.  1.
         -4   -1    0    0    0  501 -0.00000000000E+00 -0.00000000000E+00 -0.29110140248E+02  0.29137830483E+02  0.12700000000E+01 0.  1.
         25    2    1    2    0    0  0.00000000000E+00  0.00000000000E+00  0.10497926281E+03  0.16323324768E+03  0.12499779009E+03 0.  0.
    9000005    1    3    3    0    0  0.47157346056E+02  0.32010027503E+02  0.19025864514E+02  0.60095263277E+02  0.10000000000E+01 0.  0.
    9000005    1    3    3    0    0 -0.47157346056E+02 -0.32010027503E+02  0.85953398296E+02  0.10313798440E+03  0.10000000000E+01 0.  0.
<mgrwt>
<rscale>  0 0.12499779E+03</rscale>
<asrwt>0</asrwt>
<pdfrwt beam="1">  1        4 0.20631732E-01 0.12499779E+03</pdfrwt>
<pdfrwt beam="2">  1       -4 0.44810757E-02 0.12499779E+03</pdfrwt>
<totfact> 0.96727839E+03</totfact>
</mgrwt>
</event>
<event>
 5    1  0.3487578E-002  0.1249889E+03  0.7818608E-02  0.1235087E+00
         -4   -1    0    0    0  501 -0.00000000000E+00  0.00000000000E+00  0.30553729567E+02  0.30580112663E+02  0.12700000000E+01 0. -1.
          4   -1    0    0  501    0  0.00000000000E+00 -0.00000000000E+00 -0.12774111914E+03  0.12774743215E+03  0.12700000000E+01 0. -1.
         25    2    1    2    0    0  0.00000000000E+00  0.00000000000E+00 -0.97187389577E+02  0.15832754481E+03  0.12498889052E+03 0.  0.
    9000005    1    3    3    0    0 -0.23403070996E+02 -0.39089860293E+02  0.55779846929E+01  0.45911162292E+02  0.10000000000E+01 0.  0.
    9000005    1    3    3    0    0  0.23403070996E+02  0.39089860293E+02 -0.10276537427E+03  0.11241638252E+03  0.10000000000E+01 0.  0.
<mgrwt>
<rscale>  0 0.12498889E+03</rscale>
<asrwt>0</asrwt>
<pdfrwt beam="2">  1        4 0.19654995E-01 0.12498889E+03</pdfrwt>
<pdfrwt beam="1">  1       -4 0.47030889E-02 0.12498889E+03</pdfrwt>
<totfact> 0.97690590E+03</totfact>
</mgrwt>
</event>
<event>
 5    1  0.3487578E-002  0.1249835E+03  0.7818608E-02  0.1235095E+00
         -4   -1    0    0    0  501 -0.00000000000E+00  0.00000000000E+00  0.71871483995E+03  0.71871596202E+03  0.12700000000E+01 0.  1.
          4   -1    0    0  501    0  0.00000000000E+00 -0.00000000000E+00 -0.53582616580E+01  0.55067111778E+01  0.12700000000E+01 0.  1.
         25    2    1    2    0    0  0.00000000000E+00  0.00000000000E+00  0.71335657829E+03  0.72422267320E+03  0.12498348924E+03 0.  0.
    9000005    1    3    3    0    0 -0.45321756861E+01  0.23509293778E+02  0.22247558226E+02  0.32698338756E+02  0.10000000000E+01 0.  0.
    9000005    1    3    3    0    0  0.45321756861E+01 -0.23509293778E+02  0.69110902007E+03  0.69152433444E+03  0.10000000000E+01 0.  0.
<mgrwt>
<rscale>  0 0.12498349E+03</rscale>
<asrwt>0</asrwt>
<pdfrwt beam="2">  1        4 0.83585402E-03 0.12498349E+03</pdfrwt>
<pdfrwt beam="1">  1       -4 0.11058294E+00 0.12498349E+03</pdfrwt>
<totfact> 0.41853565E+03</totfact>
</mgrwt>
</event>
<event>
 5    1  0.3487578E-002  0.1250039E+03  0.7818608E-02  0.1235063E+00
         -4   -1    0    0    0  501 -0.00000000000E+00  0.00000000000E+00  0.60430172322E+02  0.60443516004E+02  0.12700000000E+01 0.  1.
          4   -1    0    0  501    0  0.00000000000E+00 -0.00000000000E+00 -0.64617984234E+02  0.64630463300E+02  0.12700000000E+01 0.  1.
         25    2    1    2    0    0  0.00000000000E+00  0.00000000000E+00 -0.41878119113E+01  0.12507397930E+03  0.12500385006E+03 0.  0.
    9000005    1    3    3    0    0 -0.11080864795E+02  0.57651546175E+02  0.19342498926E+02  0.61819241387E+02  0.10000000000E+01 0.  0.
    9000005    1    3    3    0    0  0.11080864795E+02 -0.57651546175E+02 -0.23530310837E+02  0.63254737918E+02  0.10000000000E+01 0.  0.
<mgrwt>
<rscale>  0 0.12500385E+03</rscale>
<asrwt>0</asrwt>
<pdfrwt beam="2">  1        4 0.99432147E-02 0.12500385E+03</pdfrwt>
<pdfrwt beam="1">  1       -4 0.92989359E-02 0.12500385E+03</pdfrwt>
<totfact> 0.10450347E+04</totfact>
</mgrwt>
</event>
<event>
 5    1  0.3487578E-002  0.1250167E+03  0.7818608E-02  0.1235043E+00
          4   -1    0    0  501    0  0.00000000000E+00  0.00000000000E+00  0.69494972354E+01  0.70645885814E+01  0.12700000000E+01 0. -1.
         -4   -1    0    0    0  501 -0.00000000000E+00 -0.00000000000E+00 -0.55750825715E+03  0.55750970367E+03  0.12700000000E+01 0. -1.
         25    2    1    2    0    0  0.00000000000E+00  0.00000000000E+00 -0.55055875991E+03  0.56457429226E+03  0.12501673231E+03 0.  0.
    9000005    1    3    3    0    0  0.34982807509E+02  0.26669850201E+02 -0.47578211247E+03  0.47781240700E+03  0.10000000000E+01 0.  0.
    9000005    1    3    3    0    0 -0.34982807509E+02 -0.26669850201E+02 -0.74776647440E+02  0.86761885257E+02  0.10000000000E+01 0.  0.
<mgrwt>
<rscale>  0 0.12501673E+03</rscale>
<asrwt>0</asrwt>
<pdfrwt beam="1">  1        4 0.10781183E-02 0.12501673E+03</pdfrwt>
<pdfrwt beam="2">  1       -4 0.85779431E-01 0.12501673E+03</pdfrwt>
<totfact> 0.51164186E+03</totfact>
</mgrwt>
</event>
<event>
 5    1  0.3487578E-002  0.1250008E+03  0.7818608E-02  0.1235068E+00
          4   -1    0    0  501    0  0.00000000000E+00  0.00000000000E+00  0.79970280843E+01  0.80972438632E+01  0.12700000000E+01 0.  1.
         -4   -1    0    0    0  501 -0.00000000000E+00 -0.00000000000E+00 -0.48532633084E+03  0.48532799250E+03  0.12700000000E+01 0.  1.
         25    2    1    2    0    0  0.00000000000E+00  0.00000000000E+00 -0.47732930275E+03  0.49342523636E+03  0.12500080245E+03 0.  0.
    9000005    1    3    3    0    0  0.12610611398E+01  0.56928509759E+02 -0.13703563740E+03  0.14839882552E+03  0.10000000000E+01 0.  0.
    9000005    1    3    3    0    0 -0.12610611398E+01 -0.56928509759E+02 -0.34029366536E+03  0.34502641084E+03  0.10000000000E+01 0.  0.
<mgrwt>
<rscale>  0 0.12500080E+03</rscale>
<asrwt>0</asrwt>
<pdfrwt beam="1">  1        4 0.12381491E-02 0.12500080E+03</pdfrwt>
<pdfrwt beam="2">  1       -4 0.74673403E-01 0.12500080E+03</pdfrwt>
<totfact> 0.56377135E+03</totfact>
</mgrwt>
</event>
<event>
 5    1  0.3487578E-002  0.1250041E+03  0.7818608E-02  0.1235063E+00
          4   -1    0    0  501    0  0.00000000000E+00  0.00000000000E+00  0.32036893296E+02  0.32062055955E+02  0.12700000000E+01 0. -1.
         -4   -1    0    0    0  501 -0.00000000000E+00 -0.00000000000E+00 -0.12186139708E+03  0.12186801466E+03  0.12700000000E+01 0. -1.
         25    2    1    2    0    0  0.00000000000E+00  0.00000000000E+00 -0.89824503782E+02  0.15393007062E+03  0.12500410058E+03 0.  0.
    9000005    1    3    3    0    0  0.53718674548E+02  0.28908171994E+02 -0.28202923529E+02  0.67214457514E+02  0.10000000000E+01 0.  0.
    9000005    1    3    3    0    0 -0.53718674548E+02 -0.28908171994E+02 -0.61621580252E+02  0.86715613104E+02  0.10000000000E+01 0.  0.
<mgrwt>
<rscale>  0 0.12500410E+03</rscale>
<asrwt>0</asrwt>
<pdfrwt beam="1">  1        4 0.49311975E-02 0.12500410E+03</pdfrwt>
<pdfrwt beam="2">  1       -4 0.18750352E-01 0.12500410E+03</pdfrwt>
<totfact> 0.98516863E+03</totfact>
</mgrwt>
</event>
<event>
 5    1  0.3487578E-002  0.1250326E+03  0.7818608E-02  0.1235018E+00
          4   -1    0    0  501    0  0.00000000000E+00  0.00000000000E+00  0.38403525055E+02  0.38424518691E+02  0.12700000000E+01 0.  1.
         -4   -1    0    0    0  501 -0.00000000000E+00 -0.00000000000E+00 -0.10171624900E+03  0.10172417712E+03  0.12700000000E+01 0.  1.
         25    2    1    2    0    0  0.00000000000E+00  0.00000000000E+00 -0.63312723941E+02  0.14014869581E+03  0.12503261944E+03 0.  0.
    9000005    1    3    3    0    0  0.48301481310E+01  0.51582135893E+02  0.75468730736E+01  0.52364132452E+02  0.10000000000E+01 0.  0.
    9000005    1    3    3    0    0 -0.48301481310E+01 -0.51582135893E+02 -0.70859597014E+02  0.87784563354E+02  0.10000000000E+01 0.  0.
<mgrwt>
<rscale>  0 0.12503262E+03</rscale>
<asrwt>0</asrwt>
<pdfrwt beam="1">  1        4 0.59104594E-02 0.12503262E+03</pdfrwt>
<pdfrwt beam="2">  1       -4 0.15650878E-01 0.12503262E+03</pdfrwt>
<totfact> 0.10123064E+04</totfact>
</mgrwt>
</event>
<event>
 5    1  0.3487578E-002  0.1249989E+03  0.7818608E-02  0.1235071E+00
         -4   -1    0    0    0  501 -0.00000000000E+00  0.00000000000E+00  0.62780374812E+02  0.62793219073E+02  0.12700000000E+01 0.  1.
          4   -1    0    0  501    0  0.00000000000E+00 -0.00000000000E+00 -0.62194091031E+02  0.62207056346E+02  0.12700000000E+01 0.  1.
         25    2    1    2    0    0  0.00000000000E+00  0.00000000000E+00  0.58628378080E+00  0.12500027542E+03  0.12499890050E+03 0.  0.
    9000005    1    3    3    0    0 -0.55319909428E+02  0.28370007678E+02 -0.60339780985E+01  0.62470461872E+02  0.10000000000E+01 0.  0.
    9000005    1    3    3    0    0  0.55319909428E+02 -0.28370007678E+02  0.66202618793E+01  0.62529813547E+02  0.10000000000E+01 0.  0.
<mgrwt>
<rscale>  0 0.12499890E+03</rscale>
<asrwt>0</asrwt>
<pdfrwt beam="2">  1        4 0.95703070E-02 0.12499890E+03</pdfrwt>
<pdfrwt beam="1">  1       -4 0.96605046E-02 0.12499890E+03</pdfrwt>
<totfact> 0.10453116E+04</totfact>
</mgrwt>
</event>
<event>
 5    1  0.3487578E-002  0.1250300E+03  0.7818608E-02  0.1235022E+00
         -4   -1    0    0    0  501 -0.00000000000E+00  0.00000000000E+00  0.45010444567E+02  0.45028357955E+02  0.12700000000E+01 0.  1.
          4   -1    0    0  501    0  0.00000000000E+00 -0.00000000000E+00 -0.86787226503E+02  0.86796518272E+02  0.12700000000E+01 0.  1.
         25    2    1    2    0    0  0.00000000000E+00  0.00000000000E+00 -0.41776781937E+02  0.13182487623E+03  0.12502999034E+03 0.  0.
    9000005    1    3    3    0    0  0.86495513639E+01 -0.50999053972E+02 -0.57886870218E+02  0.77637671194E+02  0.10000000000E+01 0.  0.
    9000005    1    3    3    0    0 -0.86495513639E+01  0.50999053972E+02  0.16110088282E+02  0.54187205033E+02  0.10000000000E+01 0.  0.
<mgrwt>
<rscale>  0 0.12502999E+03</rscale>
<asrwt>0</asrwt>
<pdfrwt beam="2">  1        4 0.13353974E-01 0.12502999E+03</pdfrwt>
<pdfrwt beam="1">  1       -4 0.69267765E-02 0.12502999E+03</pdfrwt>
<totfact> 0.10298469E+04</totfact>
</mgrwt>
</event>
<event>
 5    1  0.3487578E-002  0.1250034E+03  0.7818608E-02  0.1235064E+00
          4   -1    0    0  501    0  0.00000000000E+00  0.00000000000E+00  0.29006666214E+03  0.29006944235E+03  0.12700000000E+01 0. -1.
         -4   -1    0    0    0  501 -0.00000000000E+00 -0.00000000000E+00 -0.13434665116E+02  0.13494559155E+02  0.12700000000E+01 0. -1.
         25    2    1    2    0    0  0.00000000000E+00  0.00000000000E+00  0.27663199702E+03  0.30356400150E+03  0.12500336488E+03 0.  0.
    9000005    1    3    3    0    0 -0.37620232156E+02 -0.22182010924E+02  0.29763161554E+02  0.52859902211E+02  0.10000000000E+01 0.  0.
    9000005    1    3    3    0    0  0.37620232156E+02  0.22182010924E+02  0.24686883547E+03  0.25070409929E+03  0.10000000000E+01 0.  0.
<mgrwt>
<rscale>  0 0.12500336E+03</rscale>
<asrwt>0</asrwt>
<pdfrwt beam="1">  1        4 0.44630459E-01 0.12500336E+03</pdfrwt>
<pdfrwt beam="2">  1       -4 0.20716928E-02 0.12500336E+03</pdfrwt>
<totfact> 0.75148329E+03</totfact>
</mgrwt>
</event>
<event>
 5    1  0.3487578E-002  0.1250002E+03  0.7818608E-02  0.1235069E+00
         -4   -1    0    0    0  501 -0.00000000000E+00  0.00000000000E+00  0.27284157401E+02  0.27313698854E+02  0.12700000000E+01 0. -1.
          4   -1    0    0  501    0  0.00000000000E+00 -0.00000000000E+00 -0.14305978702E+03  0.14306542406E+03  0.12700000000E+01 0. -1.
         25    2    1    2    0    0  0.00000000000E+00  0.00000000000E+00 -0.11577562962E+03  0.17037912292E+03  0.12500019645E+03 0.  0.
    9000005    1    3    3    0    0  0.27391489887E+02 -0.56019227919E+02 -0.63477016340E+02  0.88987522823E+02  0.10000000000E+01 0.  0.
    9000005    1    3    3    0    0 -0.27391489887E+02  0.56019227919E+02 -0.52298613282E+02  0.81391600095E+02  0.10000000000E+01 0.  0.
<mgrwt>
<rscale>  0 0.12500020E+03</rscale>
<asrwt>0</asrwt>
<pdfrwt beam="2">  1        4 0.22011904E-01 0.12500020E+03</pdfrwt>
<pdfrwt beam="1">  1       -4 0.42002688E-02 0.12500020E+03</pdfrwt>
<totfact> 0.95377600E+03</totfact>
</mgrwt>
</event>
<event>
 5    1  0.3487578E-002  0.1250076E+03  0.7818608E-02  0.1235057E+00
         -4   -1    0    0    0  501 -0.00000000000E+00  0.00000000000E+00  0.74780651328E+01  0.75851406137E+01  0.12700000000E+01 0.  1.
          4   -1    0    0  501    0  0.00000000000E+00 -0.00000000000E+00 -0.51860346941E+03  0.51860502445E+03  0.12700000000E+01 0.  1.
         25    2    1    2    0    0  0.00000000000E+00  0.00000000000E+00 -0.51112540428E+03  0.52619016506E+03  0.12500764341E+03 0.  0.
    9000005    1    3    3    0    0  0.80329986457E+01 -0.79124542840E+01  0.31818074620E+01  0.11758396947E+02  0.10000000000E+01 0.  0.
    9000005    1    3    3    0    0 -0.80329986457E+01  0.79124542840E+01 -0.51430721174E+03  0.51443176812E+03  0.10000000000E+01 0.  0.
<mgrwt>
<rscale>  0 0.12500764E+03</rscale>
<asrwt>0</asrwt>
<pdfrwt beam="2">  1        4 0.79793477E-01 0.12500764E+03</pdfrwt>
<pdfrwt beam="1">  1       -4 0.11588282E-02 0.12500764E+03</pdfrwt>
<totfact> 0.53879053E+03</totfact>
</mgrwt>
</event>
<event>
 5    1  0.3487578E-002  0.1250002E+03  0.7818608E-02  0.1235069E+00
          4   -1    0    0  501    0  0.00000000000E+00  0.00000000000E+00  0.20324233474E+03  0.20324630262E+03  0.12700000000E+01 0.  1.
         -4   -1    0    0    0  501 -0.00000000000E+00 -0.00000000000E+00 -0.19194583633E+02  0.19236552208E+02  0.12700000000E+01 0.  1.
         25    2    1    2    0    0  0.00000000000E+00  0.00000000000E+00  0.18404775111E+03  0.22248285483E+03  0.12500018403E+03 0.  0.
    9000005    1    3    3    0    0 -0.77000501012E+01  0.25565525040E+02  0.19258794138E+03  0.19443251273E+03  0.10000000000E+01 0.  0.
    9000005    1    3    3    0    0  0.77000501012E+01 -0.25565525040E+02 -0.85401902719E+01  0.28050342102E+02  0.10000000000E+01 0.  0.
<mgrwt>
<rscale>  0 0.12500018E+03</rscale>
<asrwt>0</asrwt>
<pdfrwt beam="1">  1        4 0.31271584E-01 0.12500018E+03</pdfrwt>
<pdfrwt beam="2">  1       -4 0.29565466E-02 0.12500018E+03</pdfrwt>
<totfact> 0.86476634E+03</totfact>
</mgrwt>
</event>
<event>
 5    1  0.3487578E-002  0.1249977E+03  0.7818608E-02  0.1235073E+00
         -4   -1    0    0    0  501 -0.00000000000E+00  0.00000000000E+00  0.32808478325E+03  0.32808724129E+03  0.12700000000E+01 0.  1.
          4   -1    0    0  501    0  0.00000000000E+00 -0.00000000000E+00 -0.11869410917E+02  0.11937161117E+02  0.12700000000E+01 0.  1.
         25    2    1    2    0    0  0.00000000000E+00  0.00000000000E+00  0.31621537233E+03  0.34002440241E+03  0.12499773012E+03 0.  0.
    9000005    1    3    3    0    0  0.21572081360E+01 -0.62186484727E+02  0.17380415863E+03  0.18460958260E+03  0.10000000000E+01 0.  0.
    9000005    1    3    3    0    0 -0.21572081360E+01  0.62186484727E+02  0.14241121370E+03  0.15541481981E+03  0.10000000000E+01 0.  0.
<mgrwt>
<rscale>  0 0.12499773E+03</rscale>
<asrwt>0</asrwt>
<pdfrwt beam="2">  1        4 0.18314637E-02 0.12499773E+03</pdfrwt>
<pdfrwt beam="1">  1       -4 0.50479988E-01 0.12499773E+03</pdfrwt>
<totfact> 0.70839672E+03</totfact>
</mgrwt>
</event>
<event>
 5    1  0.3487578E-002  0.1250039E+03  0.7818608E-02  0.1235063E+00
          4   -1    0    0  501    0  0.00000000000E+00  0.00000000000E+00  0.63245343082E+02  0.63258092933E+02  0.12700000000E+01 0.  1.
         -4   -1    0    0    0  501 -0.00000000000E+00 -0.00000000000E+00 -0.61741742238E+02  0.61754802522E+02  0.12700000000E+01 0.  1.
         25    2    1    2    0    0  0.00000000000E+00  0.00000000000E+00  0.15036008438E+01  0.12501289546E+03  0.12500385280E+03 0.  0.
    9000005    1    3    3    0    0  0.50741302228E+02  0.35259802344E+02  0.10109687929E+02  0.62619000337E+02  0.10000000000E+01 0.  0.
    9000005    1    3    3    0    0 -0.50741302228E+02 -0.35259802344E+02 -0.86060870847E+01  0.62393895119E+02  0.10000000000E+01 0.  0.
<mgrwt>
<rscale>  0 0.12500385E+03</rscale>
<asrwt>0</asrwt>
<pdfrwt beam="1">  1        4 0.97320382E-02 0.12500385E+03</pdfrwt>
<pdfrwt beam="2">  1       -4 0.95007150E-02 0.12500385E+03</pdfrwt>
<totfact> 0.10451672E+04</totfact>
</mgrwt>
</event>
<event>
 5    1  0.3487578E-002  0.1250034E+03  0.7818608E-02  0.1235064E+00
         -4   -1    0    0    0  501 -0.00000000000E+00  0.00000000000E+00  0.18417034824E+03  0.18417472702E+03  0.12700000000E+01 0. -1.
          4   -1    0    0  501    0  0.00000000000E+00 -0.00000000000E+00 -0.21187479446E+02  0.21225507892E+02  0.12700000000E+01 0. -1.
         25    2    1    2    0    0  0.00000000000E+00  0.00000000000E+00  0.16298286880E+03  0.20540023491E+03  0.12500336387E+03 0.  0.
    9000005    1    3    3    0    0 -0.37277386784E+01  0.37475356057E+02  0.16343809563E+03  0.16772390841E+03  0.10000000000E+01 0.  0.
    9000005    1    3    3    0    0  0.37277386784E+01 -0.37475356057E+02 -0.45522683473E+00  0.37676326503E+02  0.10000000000E+01 0.  0.
<mgrwt>
<rscale>  0 0.12500336E+03</rscale>
<asrwt>0</asrwt>
<pdfrwt beam="2">  1        4 0.32628744E-02 0.12500336E+03</pdfrwt>
<pdfrwt beam="1">  1       -4 0.28337161E-01 0.12500336E+03</pdfrwt>
<totfact> 0.89225923E+03</totfact>
</mgrwt>
</event>
<event>
 5    1  0.3487578E-002  0.1250003E+03  0.7818608E-02  0.1235069E+00
         -4   -1    0    0    0  501 -0.00000000000E+00  0.00000000000E+00  0.84370358392E+03  0.84370453976E+03  0.12700000000E+01 0.  1.
          4   -1    0    0  501    0  0.00000000000E+00 -0.00000000000E+00 -0.45418366154E+01  0.47160555384E+01  0.12700000000E+01 0.  1.
         25    2    1    2    0    0  0.00000000000E+00  0.00000000000E+00  0.83916174730E+03  0.84842059530E+03  0.12500027358E+03 0.  0.
    9000005    1    3    3    0    0  0.42897277067E+02  0.24373679440E+02  0.67990157834E+03  0.68169011204E+03  0.10000000000E+01 0.  0.
    9000005    1    3    3    0    0 -0.42897277067E+02 -0.24373679440E+02  0.15926016897E+03  0.16673048326E+03  0.10000000000E+01 0.  0.
<mgrwt>
<rscale>  0 0.12500027E+03</rscale>
<asrwt>0</asrwt>
<pdfrwt beam="2">  1        4 0.71221980E-03 0.12500027E+03</pdfrwt>
<pdfrwt beam="1">  1       -4 0.12981389E+00 0.12500027E+03</pdfrwt>
<totfact> 0.36191858E+03</totfact>
</mgrwt>
</event>
<event>
 5    1  0.3487578E-002  0.1250002E+03  0.7818608E-02  0.1235069E+00
         -4   -1    0    0    0  501 -0.00000000000E+00  0.00000000000E+00  0.51644436652E+02  0.51660049721E+02  0.12700000000E+01 0.  1.
          4   -1    0    0  501    0  0.00000000000E+00 -0.00000000000E+00 -0.75605300549E+02  0.75615966377E+02  0.12700000000E+01 0.  1.
         25    2    1    2    0    0  0.00000000000E+00  0.00000000000E+00 -0.23960863897E+02  0.12727601610E+03  0.12500024510E+03 0.  0.
    9000005    1    3    3    0    0 -0.36478781178E+02  0.36344497582E+02 -0.48031850702E+02  0.70425014466E+02  0.10000000000E+01 0.  0.
    9000005    1    3    3    0    0  0.36478781178E+02 -0.36344497582E+02  0.24070986805E+02  0.56851001631E+02  0.10000000000E+01 0.  0.
<mgrwt>
<rscale>  0 0.12500025E+03</rscale>
<asrwt>0</asrwt>
<pdfrwt beam="2">  1        4 0.11633606E-01 0.12500025E+03</pdfrwt>
<pdfrwt beam="1">  1       -4 0.79473194E-02 0.12500025E+03</pdfrwt>
<totfact> 0.10403097E+04</totfact>
</mgrwt>
</event>
<event>
 5    1  0.3487578E-002  0.1250008E+03  0.7818608E-02  0.1235068E+00
         -4   -1    0    0    0  501 -0.00000000000E+00  0.00000000000E+00  0.40353957721E+03  0.40354157565E+03  0.12700000000E+01 0. -1.
          4   -1    0    0  501    0  0.00000000000E+00 -0.00000000000E+00 -0.96364074844E+01  0.97197350378E+01  0.12700000000E+01 0. -1.
         25    2    1    2    0    0  0.00000000000E+00  0.00000000000E+00  0.39390316973E+03  0.41326131068E+03  0.12500081515E+03 0.  0.
    9000005    1    3    3    0    0  0.58833946013E+02 -0.20022339640E+02  0.21862428739E+03  0.22728815702E+03  0.10000000000E+01 0.  0.
    9000005    1    3    3    0    0 -0.58833946013E+02  0.20022339640E+02  0.17527888234E+03  0.18597315366E+03  0.10000000000E+01 0.  0.
<mgrwt>
<rscale>  0 0.12500082E+03</rscale>
<asrwt>0</asrwt>
<pdfrwt beam="2">  1        4 0.14890883E-02 0.12500082E+03</pdfrwt>
<pdfrwt beam="1">  1       -4 0.62089553E-01 0.12500082E+03</pdfrwt>
<totfact> 0.63282000E+03</totfact>
</mgrwt>
</event>
<event>
 5    1  0.3487578E-002  0.1249993E+03  0.7818608E-02  0.1235070E+00
         -4   -1    0    0    0  501 -0.00000000000E+00  0.00000000000E+00  0.20273051963E+02  0.20312792420E+02  0.12700000000E+01 0.  1.
          4   -1    0    0  501    0  0.00000000000E+00 -0.00000000000E+00 -0.19244922240E+03  0.19245341281E+03  0.12700000000E+01 0.  1.
         25    2    1    2    0    0  0.00000000000E+00  0.00000000000E+00 -0.17217617044E+03  0.21276620523E+03  0.12499929769E+03 0.  0.
    9000005    1    3    3    0    0  0.16954756687E+02  0.57226791898E+02 -0.11760463570E+03  0.13188714806E+03  0.10000000000E+01 0.  0.
    9000005    1    3    3    0    0 -0.16954756687E+02 -0.57226791898E+02 -0.54571534740E+02  0.80879057173E+02  0.10000000000E+01 0.  0.
<mgrwt>
<rscale>  0 0.12499930E+03</rscale>
<asrwt>0</asrwt>
<pdfrwt beam="2">  1        4 0.29610951E-01 0.12499930E+03</pdfrwt>
<pdfrwt beam="1">  1       -4 0.31223105E-02 0.12499930E+03</pdfrwt>
<totfact> 0.88027489E+03</totfact>
</mgrwt>
</event>
<event>
 5    1  0.3487578E-002  0.1249983E+03  0.7818608E-02  0.1235072E+00
          4   -1    0    0  501    0  0.00000000000E+00  0.00000000000E+00  0.13080898682E+02  0.13142405043E+02  0.12700000000E+01 0.  1.
         -4   -1    0    0    0  501 -0.00000000000E+00 -0.00000000000E+00 -0.29785096510E+03  0.29785367265E+03  0.12700000000E+01 0.  1.
         25    2    1    2    0    0  0.00000000000E+00  0.00000000000E+00 -0.28477006642E+03  0.31099607770E+03  0.12499827844E+03 0.  0.
    9000005    1    3    3    0    0  0.58686971572E+02  0.17522026827E+02 -0.11151370462E+03  0.12723006082E+03  0.10000000000E+01 0.  0.
    9000005    1    3    3    0    0 -0.58686971572E+02 -0.17522026827E+02 -0.17325636180E+03  0.18376601688E+03  0.10000000000E+01 0.  0.
<mgrwt>
<rscale>  0 0.12499828E+03</rscale>
<asrwt>0</asrwt>
<pdfrwt beam="1">  1        4 0.20173857E-02 0.12499828E+03</pdfrwt>
<pdfrwt beam="2">  1       -4 0.45828160E-01 0.12499828E+03</pdfrwt>
<totfact> 0.74242731E+03</totfact>
</mgrwt>
</event>
<event>
 5    1  0.3487578E-002  0.1250024E+03  0.7818608E-02  0.1235065E+00
         -4   -1    0    0    0  501 -0.00000000000E+00  0.00000000000E+00  0.49477902595E+03  0.49478065586E+03  0.12700000000E+01 0.  1.
          4   -1    0    0  501    0  0.00000000000E+00 -0.00000000000E+00 -0.78425189170E+01  0.79446839436E+01  0.12700000000E+01 0.  1.
         25    2    1    2    0    0  0.00000000000E+00  0.00000000000E+00  0.48693650703E+03  0.50272533981E+03  0.12500242160E+03 0.  0.
    9000005    1    3    3    0    0 -0.54056383338E+02  0.77940519061E+01  0.36562290800E+03  0.36968087681E+03  0.10000000000E+01 0.  0.
    9000005    1    3    3    0    0  0.54056383338E+02 -0.77940519061E+01  0.12131359903E+03  0.13304446300E+03  0.10000000000E+01 0.  0.
<mgrwt>
<rscale>  0 0.12500242E+03</rscale>
<asrwt>0</asrwt>
<pdfrwt beam="2">  1        4 0.12145253E-02 0.12500242E+03</pdfrwt>
<pdfrwt beam="1">  1       -4 0.76127850E-01 0.12500242E+03</pdfrwt>
<totfact> 0.55650560E+03</totfact>
</mgrwt>
</event>
<event>
 5    1  0.3487578E-002  0.1250014E+03  0.7818608E-02  0.1235067E+00
          4   -1    0    0  501    0  0.00000000000E+00  0.00000000000E+00  0.15272418220E+03  0.15272946254E+03  0.12700000000E+01 0.  1.
         -4   -1    0    0    0  501 -0.00000000000E+00 -0.00000000000E+00 -0.25556220006E+02  0.25587756466E+02  0.12700000000E+01 0.  1.
         25    2    1    2    0    0  0.00000000000E+00  0.00000000000E+00  0.12716796220E+03  0.17831721901E+03  0.12500135994E+03 0.  0.
    9000005    1    3    3    0    0 -0.60627787660E+02 -0.99366869654E+01  0.47264877738E+02  0.77520545999E+02  0.10000000000E+01 0.  0.
    9000005    1    3    3    0    0  0.60627787660E+02  0.99366869654E+01  0.79903084458E+02  0.10079667301E+03  0.10000000000E+01 0.  0.
<mgrwt>
<rscale>  0 0.12500136E+03</rscale>
<asrwt>0</asrwt>
<pdfrwt beam="1">  1        4 0.23498860E-01 0.12500136E+03</pdfrwt>
<pdfrwt beam="2">  1       -4 0.39345582E-02 0.12500136E+03</pdfrwt>
<totfact> 0.93917924E+03</totfact>
</mgrwt>
</event>
<event>
 5    1  0.3487578E-002  0.1249986E+03  0.7818608E-02  0.1235071E+00
          4   -1    0    0  501    0  0.00000000000E+00  0.00000000000E+00  0.26441160350E+02  0.26471642576E+02  0.12700000000E+01 0.  1.
         -4   -1    0    0    0  501 -0.00000000000E+00 -0.00000000000E+00 -0.14761205122E+03  0.14761751443E+03  0.12700000000E+01 0.  1.
         25    2    1    2    0    0  0.00000000000E+00  0.00000000000E+00 -0.12117089087E+03  0.17408915700E+03  0.12499859916E+03 0.  0.
    9000005    1    3    3    0    0  0.57117346386E+02  0.25243922300E+02 -0.57314584810E+02  0.84767968616E+02  0.10000000000E+01 0.  0.
    9000005    1    3    3    0    0 -0.57117346386E+02 -0.25243922300E+02 -0.63856306062E+02  0.89321188389E+02  0.10000000000E+01 0.  0.
<mgrwt>
<rscale>  0 0.12499860E+03</rscale>
<asrwt>0</asrwt>
<pdfrwt beam="1">  1        4 0.40706359E-02 0.12499860E+03</pdfrwt>
<pdfrwt beam="2">  1       -4 0.22712311E-01 0.12499860E+03</pdfrwt>
<totfact> 0.94694901E+03</totfact>
</mgrwt>
</event>
<event>
 5    1  0.3487578E-002  0.1250005E+03  0.7818608E-02  0.1235069E+00
         -4   -1    0    0    0  501 -0.00000000000E+00  0.00000000000E+00  0.18150770351E+03  0.18151214652E+03  0.12700000000E+01 0.  1.
          4   -1    0    0  501    0  0.00000000000E+00 -0.00000000000E+00 -0.21497840283E+02  0.21535320681E+02  0.12700000000E+01 0.  1.
         25    2    1    2    0    0  0.00000000000E+00  0.00000000000E+00  0.16000986323E+03  0.20304746720E+03  0.12500047042E+03 0.  0.
    9000005    1    3    3    0    0 -0.19247991572E+02 -0.28551837854E+02  0.16471545977E+03  0.16827915888E+03  0.10000000000E+01 0.  0.
    9000005    1    3    3    0    0  0.19247991572E+02  0.28551837854E+02 -0.47055965483E+01  0.34768308318E+02  0.10000000000E+01 0.  0.
<mgrwt>
<rscale>  0 0.12500047E+03</rscale>
<asrwt>0</asrwt>
<pdfrwt beam="2">  1        4 0.33105850E-02 0.12500047E+03</pdfrwt>
<pdfrwt beam="1">  1       -4 0.27927486E-01 0.12500047E+03</pdfrwt>
<totfact> 0.89623116E+03</totfact>
</mgrwt>
</event>
<event>
 5    1  0.3487578E-002  0.1249996E+03  0.7818608E-02  0.1235070E+00
         -4   -1    0    0    0  501 -0.00000000000E+00  0.00000000000E+00  0.61372597334E+02  0.61385736157E+02  0.12700000000E+01 0.  1.
          4   -1    0    0  501    0  0.00000000000E+00 -0.00000000000E+00 -0.63621442172E+02  0.63634116667E+02  0.12700000000E+01 0.  1.
         25    2    1    2    0    0  0.00000000000E+00  0.00000000000E+00 -0.22488448374E+01  0.12501985282E+03  0.12499962519E+03 0.  0.
    9000005    1    3    3    0    0  0.20881505772E+01  0.25022356958E+02  0.56110250544E+02  0.61480394734E+02  0.10000000000E+01 0.  0.
    9000005    1    3    3    0    0 -0.20881505772E+01 -0.25022356958E+02 -0.58359095382E+02  0.63539458090E+02  0.10000000000E+01 0.  0.
<mgrwt>
<rscale>  0 0.12499963E+03</rscale>
<asrwt>0</asrwt>
<pdfrwt beam="2">  1        4 0.97898999E-02 0.12499963E+03</pdfrwt>
<pdfrwt beam="1">  1       -4 0.94439237E-02 0.12499963E+03</pdfrwt>
<totfact> 0.10452520E+04</totfact>
</mgrwt>
</event>
<event>
 5    1  0.3487578E-002  0.1250008E+03  0.7818608E-02  0.1235068E+00
          4   -1    0    0  501    0  0.00000000000E+00  0.00000000000E+00  0.29121828668E+02  0.29149507799E+02  0.12700000000E+01 0.  1.
         -4   -1    0    0    0  501 -0.00000000000E+00 -0.00000000000E+00 -0.13404218572E+03  0.13404820198E+03  0.12700000000E+01 0.  1.
         25    2    1    2    0    0  0.00000000000E+00  0.00000000000E+00 -0.10492035705E+03  0.16319770978E+03  0.12500084460E+03 0.  0.
    9000005    1    3    3    0    0 -0.50069627863E+02  0.37342572360E+02 -0.55027694061E+02  0.83249519269E+02  0.10000000000E+01 0.  0.
    9000005    1    3    3    0    0  0.50069627863E+02 -0.37342572360E+02 -0.49892662994E+02  0.79948190508E+02  0.10000000000E+01 0.  0.
<mgrwt>
<rscale>  0 0.12500084E+03</rscale>
<asrwt>0</asrwt>
<pdfrwt beam="1">  1        4 0.44828734E-02 0.12500084E+03</pdfrwt>
<pdfrwt beam="2">  1       -4 0.20624466E-01 0.12500084E+03</pdfrwt>
<totfact> 0.96727975E+03</totfact>
</mgrwt>
</event>
<event>
 5    1  0.3487578E-002  0.1250042E+03  0.7818608E-02  0.1235063E+00
         -4   -1    0    0    0  501 -0.00000000000E+00  0.00000000000E+00  0.15106303595E+03  0.15106837436E+03  0.12700000000E+01 0. -1.
          4   -1    0    0  501    0  0.00000000000E+00 -0.00000000000E+00 -0.25838762546E+02  0.25869954579E+02  0.12700000000E+01 0. -1.
         25    2    1    2    0    0  0.00000000000E+00  0.00000000000E+00  0.12522427341E+03  0.17693832894E+03  0.12500421432E+03 0.  0.
    9000005    1    3    3    0    0 -0.21485732382E+02 -0.85600983093E+01 -0.19564992656E+02  0.30310079457E+02  0.10000000000E+01 0.  0.
    9000005    1    3    3    0    0  0.21485732382E+02  0.85600983093E+01  0.14478926606E+03  0.14662824948E+03  0.10000000000E+01 0.  0.
<mgrwt>
<rscale>  0 0.12500421E+03</rscale>
<asrwt>0</asrwt>
<pdfrwt beam="2">  1        4 0.39780043E-02 0.12500421E+03</pdfrwt>
<pdfrwt beam="1">  1       -4 0.23243277E-01 0.12500421E+03</pdfrwt>
<totfact> 0.94162134E+03</totfact>
</mgrwt>
</event>
<event>
 5    1  0.3487578E-002  0.1249974E+03  0.7818608E-02  0.1235073E+00
         -4   -1    0    0    0  501 -0.00000000000E+00  0.00000000000E+00  0.22311120501E+02  0.22347236921E+02  0.12700000000E+01 0. -1.
          4   -1    0    0  501    0  0.00000000000E+00 -0.00000000000E+00 -0.17489346075E+03  0.17489807178E+03  0.12700000000E+01 0. -1.
         25    2    1    2    0    0  0.00000000000E+00  0.00000000000E+00 -0.15258234025E+03  0.19724530870E+03  0.12499736497E+03 0.  0.
    9000005    1    3    3    0    0  0.16167914965E+01  0.59092359991E+02 -0.10826512886E+03  0.12335663400E+03  0.10000000000E+01 0.  0.
    9000005    1    3    3    0    0 -0.16167914965E+01 -0.59092359991E+02 -0.44317211382E+02  0.73888674699E+02  0.10000000000E+01 0.  0.
<mgrwt>
<rscale>  0 0.12499736E+03</rscale>
<asrwt>0</asrwt>
<pdfrwt beam="2">  1        4 0.26909818E-01 0.12499736E+03</pdfrwt>
<pdfrwt beam="1">  1       -4 0.34356131E-02 0.12499736E+03</pdfrwt>
<totfact> 0.90607058E+03</totfact>
</mgrwt>
</event>
<event>
 5    1  0.3487578E-002  0.1250022E+03  0.7818608E-02  0.1235066E+00
          4   -1    0    0  501    0  0.00000000000E+00  0.00000000000E+00  0.55904604164E+01  0.57329004585E+01  0.12700000000E+01 0. -1.
         -4   -1    0    0    0  501 -0.00000000000E+00 -0.00000000000E+00 -0.68982692228E+03  0.68982809134E+03  0.12700000000E+01 0. -1.
         25    2    1    2    0    0  0.00000000000E+00  0.00000000000E+00 -0.68423646187E+03  0.69556099180E+03  0.12500223025E+03 0.  0.
    9000005    1    3    3    0    0  0.45551509220E+02 -0.30439880179E+00 -0.10405883460E+03  0.11359697931E+03  0.10000000000E+01 0.  0.
    9000005    1    3    3    0    0 -0.45551509220E+02  0.30439880179E+00 -0.58017762727E+03  0.58196401249E+03  0.10000000000E+01 0.  0.
<mgrwt>
<rscale>  0 0.12500223E+03</rscale>
<asrwt>0</asrwt>
<pdfrwt beam="1">  1        4 0.87111823E-03 0.12500223E+03</pdfrwt>
<pdfrwt beam="2">  1       -4 0.10613820E+00 0.12500223E+03</pdfrwt>
<totfact> 0.43319963E+03</totfact>
</mgrwt>
</event>
<event>
 5    1  0.3487578E-002  0.1250015E+03  0.7818608E-02  0.1235067E+00
          4   -1    0    0  501    0  0.00000000000E+00  0.00000000000E+00  0.10325284962E+02  0.10403096152E+02  0.12700000000E+01 0.  1.
         -4   -1    0    0    0  501 -0.00000000000E+00 -0.00000000000E+00 -0.37682905202E+03  0.37683119211E+03  0.12700000000E+01 0.  1.
         25    2    1    2    0    0  0.00000000000E+00  0.00000000000E+00 -0.36650376706E+03  0.38723428826E+03  0.12500153094E+03 0.  0.
    9000005    1    3    3    0    0  0.40254076430E+02 -0.75106350809E+00 -0.35189858081E+02  0.53481593818E+02  0.10000000000E+01 0.  0.
    9000005    1    3    3    0    0 -0.40254076430E+02  0.75106350809E+00 -0.33131390898E+03  0.33375269445E+03  0.10000000000E+01 0.  0.
<mgrwt>
<rscale>  0 0.12500153E+03</rscale>
<asrwt>0</asrwt>
<pdfrwt beam="1">  1        4 0.15946558E-02 0.12500153E+03</pdfrwt>
<pdfrwt beam="2">  1       -4 0.57979840E-01 0.12500153E+03</pdfrwt>
<totfact> 0.65811376E+03</totfact>
</mgrwt>
</event>
<event>
 5    1  0.3487578E-002  0.1249985E+03  0.7818608E-02  0.1235072E+00
          4   -1    0    0  501    0  0.00000000000E+00  0.00000000000E+00  0.12337201510E+02  0.12402396587E+02  0.12700000000E+01 0.  1.
         -4   -1    0    0    0  501 -0.00000000000E+00 -0.00000000000E+00 -0.31571505162E+03  0.31571760597E+03  0.12700000000E+01 0.  1.
         25    2    1    2    0    0  0.00000000000E+00  0.00000000000E+00 -0.30337785011E+03  0.32812000255E+03  0.12499846455E+03 0.  0.
    9000005    1    3    3    0    0 -0.50064969110E+02  0.36614531383E+02 -0.17168526685E+03  0.18254850285E+03  0.10000000000E+01 0.  0.
    9000005    1    3    3    0    0  0.50064969110E+02 -0.36614531383E+02 -0.13169258326E+03  0.14557149971E+03  0.10000000000E+01 0.  0.
<mgrwt>
<rscale>  0 0.12499846E+03</rscale>
<asrwt>0</asrwt>
<pdfrwt beam="1">  1        4 0.19032427E-02 0.12499846E+03</pdfrwt>
<pdfrwt beam="2">  1       -4 0.48576752E-01 0.12499846E+03</pdfrwt>
<totfact> 0.72203113E+03</totfact>
</mgrwt>
</event>
<event>
 5    1  0.3487578E-002  0.1250042E+03  0.7818608E-02  0.1235063E+00
         -4   -1    0    0    0  501 -0.00000000000E+00  0.00000000000E+00  0.30991284591E+02  0.31017295507E+02  0.12700000000E+01 0.  1.
          4   -1    0    0  501    0  0.00000000000E+00 -0.00000000000E+00 -0.12596996912E+03  0.12597637088E+03  0.12700000000E+01 0.  1.
         25    2    1    2    0    0  0.00000000000E+00  0.00000000000E+00 -0.94978684524E+02  0.15699366638E+03  0.12500424301E+03 0.  0.
    9000005    1    3    3    0    0 -0.57360672269E+02 -0.20156166222E+02 -0.29333021234E+02  0.67512546202E+02  0.10000000000E+01 0.  0.
    9000005    1    3    3    0    0  0.57360672269E+02  0.20156166222E+02 -0.65645663291E+02  0.89481120181E+02  0.10000000000E+01 0.  0.
<mgrwt>
<rscale>  0 0.12500424E+03</rscale>
<asrwt>0</asrwt>
<pdfrwt beam="2">  1        4 0.19382488E-01 0.12500424E+03</pdfrwt>
<pdfrwt beam="1">  1       -4 0.47703833E-02 0.12500424E+03</pdfrwt>
<totfact> 0.97916191E+03</totfact>
</mgrwt>
</event>
<event>
 5    1  0.3487578E-002  0.1249999E+03  0.7818608E-02  0.1235069E+00
          4   -1    0    0  501    0  0.00000000000E+00  0.00000000000E+00  0.15583887368E+03  0.15584404849E+03  0.12700000000E+01 0. -1.
         -4   -1    0    0    0  501 -0.00000000000E+00 -0.00000000000E+00 -0.25044245752E+02  0.25076426087E+02  0.12700000000E+01 0. -1.
         25    2    1    2    0    0  0.00000000000E+00  0.00000000000E+00  0.13079462793E+03  0.18092047458E+03  0.12499993370E+03 0.  0.
    9000005    1    3    3    0    0 -0.35582039767E+02 -0.12324234783E+02 -0.67865389944E+01  0.38275650595E+02  0.10000000000E+01 0.  0.
    9000005    1    3    3    0    0  0.35582039767E+02  0.12324234783E+02  0.13758116692E+03  0.14264482398E+03  0.10000000000E+01 0.  0.
<mgrwt>
<rscale>  0 0.12499993E+03</rscale>
<asrwt>0</asrwt>
<pdfrwt beam="1">  1        4 0.23978084E-01 0.12499993E+03</pdfrwt>
<pdfrwt beam="2">  1       -4 0.38558344E-02 0.12499993E+03</pdfrwt>
<totfact> 0.93451716E+03</totfact>
</mgrwt>
</event>
<event>
 5    1  0.3487578E-002  0.1249965E+03  0.7818608E-02  0.1235075E+00
          4   -1    0    0  501    0  0.00000000000E+00  0.00000000000E+00  0.43173278871E+03  0.43173465664E+03  0.12700000000E+01 0.  1.
         -4   -1    0    0    0  501 -0.00000000000E+00 -0.00000000000E+00 -0.90008760960E+01  0.90900313804E+01  0.12700000000E+01 0.  1.
         25    2    1    2    0    0  0.00000000000E+00  0.00000000000E+00  0.42273191262E+03  0.44082468803E+03  0.12499654247E+03 0.  0.
    9000005    1    3    3    0    0 -0.47559288236E+02  0.40267059899E+02  0.19493295867E+03  0.20465380619E+03  0.10000000000E+01 0.  0.
    9000005    1    3    3    0    0  0.47559288236E+02 -0.40267059899E+02  0.22779895394E+03  0.23617088184E+03  0.10000000000E+01 0.  0.
<mgrwt>
<rscale>  0 0.12499654E+03</rscale>
<asrwt>0</asrwt>
<pdfrwt beam="1">  1        4 0.66427432E-01 0.12499654E+03</pdfrwt>
<pdfrwt beam="2">  1       -4 0.13917519E-02 0.12499654E+03</pdfrwt>
<totfact> 0.60771535E+03</totfact>
</mgrwt>
</event>
<event>
 5    1  0.3487578E-002  0.1250001E+03  0.7818608E-02  0.1235069E+00
          4   -1    0    0  501    0  0.00000000000E+00  0.00000000000E+00  0.86981164107E+02  0.86990435160E+02  0.12700000000E+01 0.  1.
         -4   -1    0    0    0  501 -0.00000000000E+00 -0.00000000000E+00 -0.44888551951E+02  0.44906513963E+02  0.12700000000E+01 0.  1.
         25    2    1    2    0    0  0.00000000000E+00  0.00000000000E+00  0.42092612156E+02  0.13189694912E+03  0.12500006876E+03 0.  0.
    9000005    1    3    3    0    0  0.61999980798E+02 -0.62097118405E+01  0.26073210930E+02  0.67552723619E+02  0.10000000000E+01 0.  0.
    9000005    1    3    3    0    0 -0.61999980798E+02  0.62097118405E+01  0.16019401226E+02  0.64344225504E+02  0.10000000000E+01 0.  0.
<mgrwt>
<rscale>  0 0.12500007E+03</rscale>
<asrwt>0</asrwt>
<pdfrwt beam="1">  1        4 0.13383812E-01 0.12500007E+03</pdfrwt>
<pdfrwt beam="2">  1       -4 0.69080259E-02 0.12500007E+03</pdfrwt>
<totfact> 0.10303882E+04</totfact>
</mgrwt>
</event>
<event>
 5    1  0.3487578E-002  0.1249996E+03  0.7818608E-02  0.1235070E+00
         -4   -1    0    0    0  501 -0.00000000000E+00  0.00000000000E+00  0.93223237854E+03  0.93223324362E+03  0.12700000000E+01 0.  1.
          4   -1    0    0  501    0  0.00000000000E+00 -0.00000000000E+00 -0.40930677531E+01  0.42855692307E+01  0.12700000000E+01 0.  1.
         25    2    1    2    0    0  0.00000000000E+00  0.00000000000E+00  0.92813931079E+03  0.93651881285E+03  0.12499962633E+03 0.  0.
    9000005    1    3    3    0    0 -0.30159372498E+02 -0.53780813778E+02  0.38793540289E+03  0.39280636514E+03  0.10000000000E+01 0.  0.
    9000005    1    3    3    0    0  0.30159372498E+02  0.53780813778E+02  0.54020390790E+03  0.54371244771E+03  0.10000000000E+01 0.  0.
<mgrwt>
<rscale>  0 0.12499963E+03</rscale>
<asrwt>0</asrwt>
<pdfrwt beam="2">  1        4 0.64457702E-03 0.12499963E+03</pdfrwt>
<pdfrwt beam="1">  1       -4 0.14343525E+00 0.12499963E+03</pdfrwt>
<totfact> 0.32799760E+03</totfact>
</mgrwt>
</event>
<event>
 5    1  0.3487578E-002  0.1249991E+03  0.7818608E-02  0.1235071E+00
          4   -1    0    0  501    0  0.00000000000E+00  0.00000000000E+00  0.54078421917E+03  0.54078571043E+03  0.12700000000E+01 0. -1.
         -4   -1    0    0    0  501 -0.00000000000E+00 -0.00000000000E+00 -0.71658702117E+01  0.72775405111E+01  0.12700000000E+01 0. -1.
         25    2    1    2    0    0  0.00000000000E+00  0.00000000000E+00  0.53361834896E+03  0.54806325094E+03  0.12499913874E+03 0.  0.
    9000005    1    3    3    0    0  0.29949428670E+02  0.27621927275E+02  0.59051682467E+02  0.71749845618E+02  0.10000000000E+01 0.  0.
    9000005    1    3    3    0    0 -0.29949428670E+02 -0.27621927275E+02  0.47456666650E+03  0.47631340533E+03  0.10000000000E+01 0.  0.
<mgrwt>
<rscale>  0 0.12499914E+03</rscale>
<asrwt>0</asrwt>
<pdfrwt beam="1">  1        4 0.83206285E-01 0.12499914E+03</pdfrwt>
<pdfrwt beam="2">  1       -4 0.11111462E-02 0.12499914E+03</pdfrwt>
<totfact> 0.52320174E+03</totfact>
</mgrwt>
</event>
<event>
 5    1  0.3487578E-002  0.1250023E+03  0.7818608E-02  0.1235066E+00
         -4   -1    0    0    0  501 -0.00000000000E+00  0.00000000000E+00  0.30665129719E+02  0.30691417053E+02  0.12700000000E+01 0.  1.
          4   -1    0    0  501    0  0.00000000000E+00 -0.00000000000E+00 -0.12730466496E+03  0.12731099960E+03  0.12700000000E+01 0.  1.
         25    2    1    2    0    0  0.00000000000E+00  0.00000000000E+00 -0.96639535237E+02  0.15800241665E+03  0.12500225557E+03 0.  0.
    9000005    1    3    3    0    0  0.21744959100E+02 -0.55717955980E+02 -0.71213711137E+02  0.93003905933E+02  0.10000000000E+01 0.  0.
    9000005    1    3    3    0    0 -0.21744959100E+02  0.55717955980E+02 -0.25425824101E+02  0.64998510722E+02  0.10000000000E+01 0.  0.
<mgrwt>
<rscale>  0 0.12500226E+03</rscale>
<asrwt>0</asrwt>
<pdfrwt beam="2">  1        4 0.19587842E-01 0.12500226E+03</pdfrwt>
<pdfrwt beam="1">  1       -4 0.47202217E-02 0.12500226E+03</pdfrwt>
<totfact> 0.97724336E+03</totfact>
</mgrwt>
</event>
<event>
 5    1  0.3487578E-002  0.1249958E+03  0.7818608E-02  0.1235076E+00
          4   -1    0    0  501    0  0.00000000000E+00  0.00000000000E+00  0.10701488898E+02  0.10776584089E+02  0.12700000000E+01 0.  1.
         -4   -1    0    0    0  501 -0.00000000000E+00 -0.00000000000E+00 -0.36364239658E+03  0.36364461427E+03  0.12700000000E+01 0.  1.
         25    2    1    2    0    0  0.00000000000E+00  0.00000000000E+00 -0.35294090768E+03  0.37442119836E+03  0.12499579780E+03 0.  0.
    9000005    1    3    3    0    0 -0.33869048051E+02 -0.48478968379E+02 -0.23695111131E+03  0.24422152227E+03  0.10000000000E+01 0.  0.
    9000005    1    3    3    0    0  0.33869048051E+02  0.48478968379E+02 -0.11598979637E+03  0.13019967609E+03  0.10000000000E+01 0.  0.
<mgrwt>
<rscale>  0 0.12499580E+03</rscale>
<asrwt>0</asrwt>
<pdfrwt beam="1">  1        4 0.16523303E-02 0.12499580E+03</pdfrwt>
<pdfrwt beam="2">  1       -4 0.55950922E-01 0.12499580E+03</pdfrwt>
<totfact> 0.67125158E+03</totfact>
</mgrwt>
</event>
<event>
 5    1  0.3487578E-002  0.1249986E+03  0.7818608E-02  0.1235071E+00
         -4   -1    0    0    0  501 -0.00000000000E+00  0.00000000000E+00  0.18105783080E+03  0.18106228485E+03  0.12700000000E+01 0. -1.
          4   -1    0    0  501    0  0.00000000000E+00 -0.00000000000E+00 -0.21550700182E+02  0.21588088807E+02  0.12700000000E+01 0. -1.
         25    2    1    2    0    0  0.00000000000E+00  0.00000000000E+00  0.15950713062E+03  0.20265037365E+03  0.12499859689E+03 0.  0.
    9000005    1    3    3    0    0 -0.35713833831E+02  0.43734391690E+02  0.12316438849E+03  0.13549406458E+03  0.10000000000E+01 0.  0.
    9000005    1    3    3    0    0  0.35713833831E+02 -0.43734391690E+02  0.36342742124E+02  0.67156309074E+02  0.10000000000E+01 0.  0.
<mgrwt>
<rscale>  0 0.12499860E+03</rscale>
<asrwt>0</asrwt>
<pdfrwt beam="2">  1        4 0.33187109E-02 0.12499860E+03</pdfrwt>
<pdfrwt beam="1">  1       -4 0.27858270E-01 0.12499860E+03</pdfrwt>
<totfact> 0.89693231E+03</totfact>
</mgrwt>
</event>
<event>
 5    1  0.3487578E-002  0.1249982E+03  0.7818608E-02  0.1235072E+00
          4   -1    0    0  501    0  0.00000000000E+00  0.00000000000E+00  0.48516769878E+03  0.48516936099E+03  0.12700000000E+01 0.  1.
         -4   -1    0    0    0  501 -0.00000000000E+00 -0.00000000000E+00 -0.79993441103E+01  0.80995312330E+01  0.12700000000E+01 0.  1.
         25    2    1    2    0    0  0.00000000000E+00  0.00000000000E+00  0.47716835467E+03  0.49326889222E+03  0.12499824532E+03 0.  0.
    9000005    1    3    3    0    0 -0.59921702790E+02  0.62514793323E+01  0.17309035884E+03  0.18327837784E+03  0.10000000000E+01 0.  0.
    9000005    1    3    3    0    0  0.59921702790E+02 -0.62514793323E+01  0.30407799583E+03  0.30999051438E+03  0.10000000000E+01 0.  0.
<mgrwt>
<rscale>  0 0.12499825E+03</rscale>
<asrwt>0</asrwt>
<pdfrwt beam="1">  1        4 0.74649025E-01 0.12499825E+03</pdfrwt>
<pdfrwt beam="2">  1       -4 0.12385028E-02 0.12499825E+03</pdfrwt>
<totfact> 0.56392597E+03</totfact>
</mgrwt>
</event>
<event>
 5    1  0.3487578E-002  0.1249983E+03  0.7818608E-02  0.1235072E+00
          4   -1    0    0  501    0  0.00000000000E+00  0.00000000000E+00  0.12452401475E+03  0.12453049084E+03  0.12700000000E+01 0.  1.
         -4   -1    0    0    0  501 -0.00000000000E+00 -0.00000000000E+00 -0.31348436915E+02  0.31374151734E+02  0.12700000000E+01 0.  1.
         25    2    1    2    0    0  0.00000000000E+00  0.00000000000E+00  0.93175577837E+02  0.15590464258E+03  0.12499827708E+03 0.  0.
    9000005    1    3    3    0    0 -0.17467796465E+02 -0.35416058657E+02 -0.13820038557E+02  0.41849905494E+02  0.10000000000E+01 0.  0.
    9000005    1    3    3    0    0  0.17467796465E+02  0.35416058657E+02  0.10699561639E+03  0.11405473708E+03  0.10000000000E+01 0.  0.
<mgrwt>
<rscale>  0 0.12499828E+03</rscale>
<asrwt>0</asrwt>
<pdfrwt beam="1">  1        4 0.19160017E-01 0.12499828E+03</pdfrwt>
<pdfrwt beam="2">  1       -4 0.48253127E-02 0.12499828E+03</pdfrwt>
<totfact> 0.98142001E+03</totfact>
</mgrwt>
</event>
<event>
 5    1  0.3487578E-002  0.1250015E+03  0.7818608E-02  0.1235067E+00
         -4   -1    0    0    0  501 -0.00000000000E+00  0.00000000000E+00  0.71330569265E+02  0.71341874181E+02  0.12700000000E+01 0.  1.
          4   -1    0    0  501    0  0.00000000000E+00 -0.00000000000E+00 -0.54740965292E+02  0.54755695422E+02  0.12700000000E+01 0.  1.
         25    2    1    2    0    0  0.00000000000E+00  0.00000000000E+00  0.16589603972E+02  0.12609756960E+03  0.12500152839E+03 0.  0.
    9000005    1    3    3    0    0 -0.57996522175E+02 -0.22796229218E+02  0.13035033170E+02  0.63672417424E+02  0.10000000000E+01 0.  0.
    9000005    1    3    3    0    0  0.57996522175E+02  0.22796229218E+02  0.35545708022E+01  0.62425152178E+02  0.10000000000E+01 0.  0.
<mgrwt>
<rscale>  0 0.12500153E+03</rscale>
<asrwt>0</asrwt>
<pdfrwt beam="2">  1        4 0.84236896E-02 0.12500153E+03</pdfrwt>
<pdfrwt beam="1">  1       -4 0.10975936E-01 0.12500153E+03</pdfrwt>
<totfact> 0.10428460E+04</totfact>
</mgrwt>
</event>
<event>
 5    1  0.3487578E-002  0.1249985E+03  0.7818608E-02  0.1235072E+00
         -4   -1    0    0    0  501 -0.00000000000E+00  0.00000000000E+00  0.30277559722E+03  0.30277826073E+03  0.12700000000E+01 0. -1.
          4   -1    0    0  501    0  0.00000000000E+00 -0.00000000000E+00 -0.12867173651E+02  0.12929696740E+02  0.12700000000E+01 0. -1.
         25    2    1    2    0    0  0.00000000000E+00  0.00000000000E+00  0.28990842357E+03  0.31570795747E+03  0.12499848141E+03 0.  0.
    9000005    1    3    3    0    0  0.41215850416E+02 -0.25097937515E+02  0.44671032172E+02  0.65765902323E+02  0.10000000000E+01 0.  0.
    9000005    1    3    3    0    0 -0.41215850416E+02  0.25097937515E+02  0.24523739139E+03  0.24994205515E+03  0.10000000000E+01 0.  0.
<mgrwt>
<rscale>  0 0.12499848E+03</rscale>
<asrwt>0</asrwt>
<pdfrwt beam="2">  1        4 0.19845796E-02 0.12499848E+03</pdfrwt>
<pdfrwt beam="1">  1       -4 0.46585874E-01 0.12499848E+03</pdfrwt>
<totfact> 0.73672011E+03</totfact>
</mgrwt>
</event>
<event>
 5    1  0.3487578E-002  0.1250019E+03  0.7818608E-02  0.1235066E+00
          4   -1    0    0  501    0  0.00000000000E+00  0.00000000000E+00  0.55106860552E+02  0.55121492904E+02  0.12700000000E+01 0.  1.
         -4   -1    0    0    0  501 -0.00000000000E+00 -0.00000000000E+00 -0.70857444473E+02  0.70868824861E+02  0.12700000000E+01 0.  1.
         25    2    1    2    0    0  0.00000000000E+00  0.00000000000E+00 -0.15750583920E+02  0.12599031777E+03  0.12500191709E+03 0.  0.
    9000005    1    3    3    0    0  0.25487029142E+02 -0.43129109153E+02  0.29778653218E+02  0.58287879514E+02  0.10000000000E+01 0.  0.
    9000005    1    3    3    0    0 -0.25487029142E+02  0.43129109153E+02 -0.45529237138E+02  0.67702438251E+02  0.10000000000E+01 0.  0.
<mgrwt>
<rscale>  0 0.12500192E+03</rscale>
<asrwt>0</asrwt>
<pdfrwt beam="1">  1        4 0.84799795E-02 0.12500192E+03</pdfrwt>
<pdfrwt beam="2">  1       -4 0.10903146E-01 0.12500192E+03</pdfrwt>
<totfact> 0.10430718E+04</totfact>
</mgrwt>
</event>
<event>
 5    1  0.3487578E-002  0.1250004E+03  0.7818608E-02  0.1235069E+00
         -4   -1    0    0    0  501 -0.00000000000E+00  0.00000000000E+00  0.12283508814E+04  0.12283515379E+04  0.12700000000E+01 0. -1.
          4   -1    0    0  501    0  0.00000000000E+00 -0.00000000000E+00 -0.30526192924E+01  0.33062644395E+01  0.12700000000E+01 0. -1.
         25    2    1    2    0    0  0.00000000000E+00  0.00000000000E+00  0.12252982621E+04  0.12316578024E+04  0.12500044406E+03 0.  0.
    9000005    1    3    3    0    0 -0.97129248239E+01  0.61623618173E+02  0.64880729191E+03  0.65180036304E+03  0.10000000000E+01 0.  0.
    9000005    1    3    3    0    0  0.97129248239E+01 -0.61623618173E+02  0.57649097020E+03  0.57985743933E+03  0.10000000000E+01 0.  0.
<mgrwt>
<rscale>  0 0.12500044E+03</rscale>
<asrwt>0</asrwt>
<pdfrwt beam="2">  1        4 0.48919518E-03 0.12500044E+03</pdfrwt>
<pdfrwt beam="1">  1       -4 0.18899671E+00 0.12500044E+03</pdfrwt>
<totfact> 0.23898582E+03</totfact>
</mgrwt>
</event>
<event>
 5    1  0.3487578E-002  0.1249970E+03  0.7818608E-02  0.1235074E+00
          4   -1    0    0  501    0  0.00000000000E+00  0.00000000000E+00  0.10299551012E+03  0.10300333978E+03  0.12700000000E+01 0. -1.
         -4   -1    0    0    0  501 -0.00000000000E+00 -0.00000000000E+00 -0.37904673531E+02  0.37925943304E+02  0.12700000000E+01 0. -1.
         25    2    1    2    0    0  0.00000000000E+00  0.00000000000E+00  0.65090836590E+02  0.14092928308E+03  0.12499698325E+03 0.  0.
    9000005    1    3    3    0    0 -0.36433209308E+02 -0.46062158895E+02  0.56620357240E+02  0.81584104313E+02  0.10000000000E+01 0.  0.
    9000005    1    3    3    0    0  0.36433209308E+02  0.46062158895E+02  0.84704793499E+01  0.59345178767E+02  0.10000000000E+01 0.  0.
<mgrwt>
<rscale>  0 0.12499698E+03</rscale>
<asrwt>0</asrwt>
<pdfrwt beam="1">  1        4 0.15847701E-01 0.12499698E+03</pdfrwt>
<pdfrwt beam="2">  1       -4 0.58337267E-02 0.12499698E+03</pdfrwt>
<totfact> 0.10115050E+04</totfact>
</mgrwt>
</event>
<event>
 5    1  0.3487578E-002  0.1250061E+03  0.7818608E-02  0.1235060E+00
          4   -1    0    0  501    0  0.00000000000E+00  0.00000000000E+00  0.88408593835E+01  0.89316120963E+01  0.12700000000E+01 0.  1.
         -4   -1    0    0    0  501 -0.00000000000E+00 -0.00000000000E+00 -0.43953546246E+03  0.43953729723E+03  0.12700000000E+01 0.  1.
         25    2    1    2    0    0  0.00000000000E+00  0.00000000000E+00 -0.43069460307E+03  0.44846890933E+03  0.12500608592E+03 0.  0.
    9000005    1    3    3    0    0  0.79352354639E+01  0.48702465551E+02 -0.35293132116E+03  0.35636556451E+03  0.10000000000E+01 0.  0.
    9000005    1    3    3    0    0 -0.79352354639E+01 -0.48702465551E+02 -0.77763281912E+02  0.92103344816E+02  0.10000000000E+01 0.  0.
<mgrwt>
<rscale>  0 0.12500609E+03</rscale>
<asrwt>0</asrwt>
<pdfrwt beam="1">  1        4 0.13672547E-02 0.12500609E+03</pdfrwt>
<pdfrwt beam="2">  1       -4 0.67627946E-01 0.12500609E+03</pdfrwt>
<totfact> 0.60088614E+03</totfact>
</mgrwt>
</event>
<event>
 5    1  0.3487578E-002  0.1249975E+03  0.7818608E-02  0.1235073E+00
          4   -1    0    0  501    0  0.00000000000E+00  0.00000000000E+00  0.20389388146E+03  0.20389783667E+03  0.12700000000E+01 0.  1.
         -4   -1    0    0    0  501 -0.00000000000E+00 -0.00000000000E+00 -0.19132298464E+02  0.19174403368E+02  0.12700000000E+01 0.  1.
         25    2    1    2    0    0  0.00000000000E+00  0.00000000000E+00  0.18476158300E+03  0.22307224004E+03  0.12499752687E+03 0.  0.
    9000005    1    3    3    0    0  0.34873279394E+02 -0.18441046258E+02  0.58891173015E+01  0.39898615331E+02  0.10000000000E+01 0.  0.
    9000005    1    3    3    0    0 -0.34873279394E+02  0.18441046258E+02  0.17887246570E+03  0.18317362471E+03  0.10000000000E+01 0.  0.
<mgrwt>
<rscale>  0 0.12499753E+03</rscale>
<asrwt>0</asrwt>
<pdfrwt beam="1">  1        4 0.31371833E-01 0.12499753E+03</pdfrwt>
<pdfrwt beam="2">  1       -4 0.29469736E-02 0.12499753E+03</pdfrwt>
<totfact> 0.86389300E+03</totfact>
</mgrwt>
</event>
<event>
 5    1  0.3487578E-002  0.1249974E+03  0.7818608E-02  0.1235073E+00
          4   -1    0    0  501    0  0.00000000000E+00  0.00000000000E+00  0.68448960921E+02  0.68460741679E+02  0.12700000000E+01 0. -1.
         -4   -1    0    0    0  501 -0.00000000000E+00 -0.00000000000E+00 -0.57041962034E+02  0.57056098120E+02  0.12700000000E+01 0. -1.
         25    2    1    2    0    0  0.00000000000E+00  0.00000000000E+00  0.11406998888E+02  0.12551683980E+03  0.12499742977E+03 0.  0.
    9000005    1    3    3    0    0 -0.55662357239E+02  0.17119905356E+01 -0.22766747933E+02  0.60171037356E+02  0.10000000000E+01 0.  0.
    9000005    1    3    3    0    0  0.55662357239E+02 -0.17119905356E+01  0.34173746821E+02  0.65345802442E+02  0.10000000000E+01 0.  0.
<mgrwt>
<rscale>  0 0.12499743E+03</rscale>
<asrwt>0</asrwt>
<pdfrwt beam="1">  1        4 0.10532603E-01 0.12499743E+03</pdfrwt>
<pdfrwt beam="2">  1       -4 0.87776801E-02 0.12499743E+03</pdfrwt>
<totfact> 0.10442187E+04</totfact>
</mgrwt>
</event>
<event>
 5    1  0.3487578E-002  0.1250024E+03  0.7818608E-02  0.1235066E+00
         -4   -1    0    0    0  501 -0.00000000000E+00  0.00000000000E+00  0.64281262806E+02  0.64293807229E+02  0.12700000000E+01 0.  1.
          4   -1    0    0  501    0  0.00000000000E+00 -0.00000000000E+00 -0.60745326670E+02  0.60758601138E+02  0.12700000000E+01 0.  1.
         25    2    1    2    0    0  0.00000000000E+00  0.00000000000E+00  0.35359361365E+01  0.12505240837E+03  0.12500240795E+03 0.  0.
    9000005    1    3    3    0    0 -0.55949947247E+02  0.19693432238E+02 -0.17916605203E+02  0.61969610393E+02  0.10000000000E+01 0.  0.
    9000005    1    3    3    0    0  0.55949947247E+02 -0.19693432238E+02  0.21452541339E+02  0.63082797974E+02  0.10000000000E+01 0.  0.
<mgrwt>
<rscale>  0 0.12500241E+03</rscale>
<asrwt>0</asrwt>
<pdfrwt beam="2">  1        4 0.93474210E-02 0.12500241E+03</pdfrwt>
<pdfrwt beam="1">  1       -4 0.98914110E-02 0.12500241E+03</pdfrwt>
<totfact> 0.10451156E+04</totfact>
</mgrwt>
</event>
<event>
 5    1  0.3487578E-002  0.1249771E+03  0.7818608E-02  0.1235105E+00
          4   -1    0    0  501    0  0.00000000000E+00  0.00000000000E+00  0.11762496804E+03  0.11763182396E+03  0.12700000000E+01 0. -1.
         -4   -1    0    0    0  501 -0.00000000000E+00 -0.00000000000E+00 -0.33177209077E+02  0.33201507528E+02  0.12700000000E+01 0. -1.
         25    2    1    2    0    0  0.00000000000E+00  0.00000000000E+00  0.84447758967E+02  0.15083333148E+03  0.12497707747E+03 0.  0.
    9000005    1    3    3    0    0  0.33497522132E+02 -0.48922065186E+02  0.66007995412E+02  0.88732789370E+02  0.10000000000E+01 0.  0.
    9000005    1    3    3    0    0 -0.33497522132E+02  0.48922065186E+02  0.18439763555E+02  0.62100542115E+02  0.10000000000E+01 0.  0.
<mgrwt>
<rscale>  0 0.12497708E+03</rscale>
<asrwt>0</asrwt>
<pdfrwt beam="1">  1        4 0.18098545E-01 0.12497708E+03</pdfrwt>
<pdfrwt beam="2">  1       -4 0.51065826E-02 0.12497708E+03</pdfrwt>
<totfact> 0.99189002E+03</totfact>
</mgrwt>
</event>
<event>
 5    1  0.3487578E-002  0.1249938E+03  0.7818608E-02  0.1235079E+00
          4   -1    0    0  501    0  0.00000000000E+00  0.00000000000E+00  0.68523151632E+02  0.68534919636E+02  0.12700000000E+01 0. -1.
         -4   -1    0    0    0  501 -0.00000000000E+00 -0.00000000000E+00 -0.56976905666E+02  0.56991057889E+02  0.12700000000E+01 0. -1.
         25    2    1    2    0    0  0.00000000000E+00  0.00000000000E+00  0.11546245965E+02  0.12552597753E+03  0.12499382080E+03 0.  0.
    9000005    1    3    3    0    0  0.55210943594E+02  0.18388815697E+02  0.28639934766E+02  0.64866344885E+02  0.10000000000E+01 0.  0.
    9000005    1    3    3    0    0 -0.55210943594E+02 -0.18388815697E+02 -0.17093688801E+02  0.60659632641E+02  0.10000000000E+01 0.  0.
<mgrwt>
<rscale>  0 0.12499382E+03</rscale>
<asrwt>0</asrwt>
<pdfrwt beam="1">  1        4 0.10544017E-01 0.12499382E+03</pdfrwt>
<pdfrwt beam="2">  1       -4 0.87676717E-02 0.12499382E+03</pdfrwt>
<totfact> 0.10442836E+04</totfact>
</mgrwt>
</event>
<event>
 5    1  0.3487578E-002  0.1249994E+03  0.7818608E-02  0.1235070E+00
         -4   -1    0    0    0  501 -0.00000000000E+00  0.00000000000E+00  0.76553435785E+02  0.76563969532E+02  0.12700000000E+01 0. -1.
          4   -1    0    0  501    0  0.00000000000E+00 -0.00000000000E+00 -0.51003988040E+02  0.51019797099E+02  0.12700000000E+01 0. -1.
         25    2    1    2    0    0  0.00000000000E+00  0.00000000000E+00  0.25549447745E+02  0.12758376663E+03  0.12499937291E+03 0.  0.
    9000005    1    3    3    0    0 -0.43257160726E+02 -0.27013621854E+02 -0.24086960960E+02  0.56410100231E+02  0.10000000000E+01 0.  0.
    9000005    1    3    3    0    0  0.43257160726E+02  0.27013621854E+02  0.49636408705E+02  0.71173666400E+02  0.10000000000E+01 0.  0.
<mgrwt>
<rscale>  0 0.12499937E+03</rscale>
<asrwt>0</asrwt>
<pdfrwt beam="2">  1        4 0.78487937E-02 0.12499937E+03</pdfrwt>
<pdfrwt beam="1">  1       -4 0.11779478E-01 0.12499937E+03</pdfrwt>
<totfact> 0.10396634E+04</totfact>
</mgrwt>
</event>
<event>
 5    1  0.3487578E-002  0.1249916E+03  0.7818608E-02  0.1235082E+00
         -4   -1    0    0    0  501 -0.00000000000E+00  0.00000000000E+00  0.49388713317E+03  0.49388876603E+03  0.12700000000E+01 0.  1.
          4   -1    0    0  501    0  0.00000000000E+00 -0.00000000000E+00 -0.78554912905E+01  0.79574897684E+01  0.12700000000E+01 0.  1.
         25    2    1    2    0    0  0.00000000000E+00  0.00000000000E+00  0.48603164188E+03  0.50184625580E+03  0.12499162992E+03 0.  0.
    9000005    1    3    3    0    0 -0.27292582464E+02 -0.46448023036E+02  0.37013622518E+03  0.37403760385E+03  0.10000000000E+01 0.  0.
    9000005    1    3    3    0    0  0.27292582464E+02  0.46448023036E+02  0.11589541669E+03  0.12780865195E+03  0.10000000000E+01 0.  0.
<mgrwt>
<rscale>  0 0.12499163E+03</rscale>
<asrwt>0</asrwt>
<pdfrwt beam="2">  1        4 0.12165090E-02 0.12499163E+03</pdfrwt>
<pdfrwt beam="1">  1       -4 0.75990594E-01 0.12499163E+03</pdfrwt>
<totfact> 0.55731665E+03</totfact>
</mgrwt>
</event>
<event>
 5    1  0.3487578E-002  0.1249620E+03  0.7818608E-02  0.1235129E+00
         -4   -1    0    0    0  501 -0.00000000000E+00  0.00000000000E+00  0.60035113691E+03  0.60035248021E+03  0.12700000000E+01 0. -1.
          4   -1    0    0  501    0  0.00000000000E+00 -0.00000000000E+00 -0.64392820632E+01  0.65633264043E+01  0.12700000000E+01 0. -1.
         25    2    1    2    0    0  0.00000000000E+00  0.00000000000E+00  0.59391185485E+03  0.60691580661E+03  0.12496201417E+03 0.  0.
    9000005    1    3    3    0    0  0.21993822017E+02  0.41564170355E+02  0.49670976626E+03  0.49893175923E+03  0.10000000000E+01 0.  0.
    9000005    1    3    3    0    0 -0.21993822017E+02 -0.41564170355E+02  0.97202088587E+02  0.10798404739E+03  0.10000000000E+01 0.  0.
<mgrwt>
<rscale>  0 0.12496201E+03</rscale>
<asrwt>0</asrwt>
<pdfrwt beam="2">  1        4 0.10003034E-02 0.12496201E+03</pdfrwt>
<pdfrwt beam="1">  1       -4 0.92371413E-01 0.12496201E+03</pdfrwt>
<totfact> 0.48474290E+03</totfact>
</mgrwt>
</event>
<event>
 5    1  0.3487578E-002  0.1249974E+03  0.7818608E-02  0.1235073E+00
          4   -1    0    0  501    0  0.00000000000E+00  0.00000000000E+00  0.15517071827E+03  0.15517591536E+03  0.12700000000E+01 0.  1.
         -4   -1    0    0    0  501 -0.00000000000E+00 -0.00000000000E+00 -0.25151201522E+02  0.25183245184E+02  0.12700000000E+01 0.  1.
         25    2    1    2    0    0  0.00000000000E+00  0.00000000000E+00  0.13001951674E+03  0.18035916054E+03  0.12499740820E+03 0.  0.
    9000005    1    3    3    0    0 -0.54228586833E+02  0.66235407612E+01  0.10878652584E+03  0.12173791162E+03  0.10000000000E+01 0.  0.
    9000005    1    3    3    0    0  0.54228586833E+02 -0.66235407612E+01  0.21232990906E+02  0.58621248920E+02  0.10000000000E+01 0.  0.
<mgrwt>
<rscale>  0 0.12499741E+03</rscale>
<asrwt>0</asrwt>
<pdfrwt beam="1">  1        4 0.23875283E-01 0.12499741E+03</pdfrwt>
<pdfrwt beam="2">  1       -4 0.38722803E-02 0.12499741E+03</pdfrwt>
<totfact> 0.93557829E+03</totfact>
</mgrwt>
</event>
<event>
 5    1  0.3487578E-002  0.1250022E+03  0.7818608E-02  0.1235066E+00
          4   -1    0    0  501    0  0.00000000000E+00  0.00000000000E+00  0.14982480859E+02  0.15036210715E+02  0.12700000000E+01 0. -1.
         -4   -1    0    0    0  501 -0.00000000000E+00 -0.00000000000E+00 -0.26020838728E+03  0.26021148651E+03  0.12700000000E+01 0. -1.
         25    2    1    2    0    0  0.00000000000E+00  0.00000000000E+00 -0.24522590642E+03  0.27524769722E+03  0.12500219857E+03 0.  0.
    9000005    1    3    3    0    0 -0.40005727225E+02  0.43971114499E+02 -0.80173665574E+02  0.99813494943E+02  0.10000000000E+01 0.  0.
    9000005    1    3    3    0    0  0.40005727225E+02 -0.43971114499E+02 -0.16505224085E+03  0.17543420228E+03  0.10000000000E+01 0.  0.
<mgrwt>
<rscale>  0 0.12500220E+03</rscale>
<asrwt>0</asrwt>
<pdfrwt beam="1">  1        4 0.23093687E-02 0.12500220E+03</pdfrwt>
<pdfrwt beam="2">  1       -4 0.40036428E-01 0.12500220E+03</pdfrwt>
<totfact> 0.78808624E+03</totfact>
</mgrwt>
</event>
<event>
 5    1  0.3487578E-002  0.1249989E+03  0.7818608E-02  0.1235071E+00
          4   -1    0    0  501    0  0.00000000000E+00  0.00000000000E+00  0.20873210347E+03  0.20873596700E+03  0.12700000000E+01 0. -1.
         -4   -1    0    0    0  501 -0.00000000000E+00 -0.00000000000E+00 -0.18688251070E+02  0.18731354144E+02  0.12700000000E+01 0. -1.
         25    2    1    2    0    0  0.00000000000E+00  0.00000000000E+00  0.19004385240E+03  0.22746732114E+03  0.12499886541E+03 0.  0.
    9000005    1    3    3    0    0  0.61728802901E+01 -0.33879685673E+02  0.18991550693E+03  0.19301512201E+03  0.10000000000E+01 0.  0.
    9000005    1    3    3    0    0 -0.61728802901E+01  0.33879685673E+02  0.12834546885E+00  0.34452199131E+02  0.10000000000E+01 0.  0.
<mgrwt>
<rscale>  0 0.12499887E+03</rscale>
<asrwt>0</asrwt>
<pdfrwt beam="1">  1        4 0.32116245E-01 0.12499887E+03</pdfrwt>
<pdfrwt beam="2">  1       -4 0.28787283E-02 0.12499887E+03</pdfrwt>
<totfact> 0.85702183E+03</totfact>
</mgrwt>
</event>
<event>
 5    1  0.3487578E-002  0.1249983E+03  0.7818608E-02  0.1235072E+00
         -4   -1    0    0    0  501 -0.00000000000E+00  0.00000000000E+00  0.20271537974E+02  0.20311281393E+02  0.12700000000E+01 0. -1.
          4   -1    0    0  501    0  0.00000000000E+00 -0.00000000000E+00 -0.19246048574E+03  0.19246467591E+03  0.12700000000E+01 0. -1.
         25    2    1    2    0    0  0.00000000000E+00  0.00000000000E+00 -0.17218894777E+03  0.21277595730E+03  0.12499829708E+03 0.  0.
    9000005    1    3    3    0    0 -0.95242272478E+01  0.38765379910E+02 -0.42513636716E+01  0.40156440048E+02  0.10000000000E+01 0.  0.
    9000005    1    3    3    0    0  0.95242272478E+01 -0.38765379910E+02 -0.16793758410E+03  0.17261951726E+03  0.10000000000E+01 0.  0.
<mgrwt>
<rscale>  0 0.12499830E+03</rscale>
<asrwt>0</asrwt>
<pdfrwt beam="2">  1        4 0.29612684E-01 0.12499830E+03</pdfrwt>
<pdfrwt beam="1">  1       -4 0.31220778E-02 0.12499830E+03</pdfrwt>
<totfact> 0.88027879E+03</totfact>
</mgrwt>
</event>
<event>
 5    1  0.3487578E-002  0.1249968E+03  0.7818608E-02  0.1235074E+00
         -4   -1    0    0    0  501 -0.00000000000E+00  0.00000000000E+00  0.41192319323E+02  0.41211892352E+02  0.12700000000E+01 0.  1.
          4   -1    0    0  501    0  0.00000000000E+00 -0.00000000000E+00 -0.94778385170E+02  0.94786893584E+02  0.12700000000E+01 0.  1.
         25    2    1    2    0    0  0.00000000000E+00  0.00000000000E+00 -0.53586065847E+02  0.13599878594E+03  0.12499681325E+03 0.  0.
    9000005    1    3    3    0    0 -0.50833466939E+02 -0.11435812391E+02 -0.64329365680E+02  0.82789410282E+02  0.10000000000E+01 0.  0.
    9000005    1    3    3    0    0  0.50833466939E+02  0.11435812391E+02  0.10743299833E+02  0.53209375653E+02  0.10000000000E+01 0.  0.
<mgrwt>
<rscale>  0 0.12499681E+03</rscale>
<asrwt>0</asrwt>
<pdfrwt beam="2">  1        4 0.14583450E-01 0.12499681E+03</pdfrwt>
<pdfrwt beam="1">  1       -4 0.63394401E-02 0.12499681E+03</pdfrwt>
<totfact> 0.10217796E+04</totfact>
</mgrwt>
</event>
<event>
 5    1  0.3487578E-002  0.1250006E+03  0.7818608E-02  0.1235068E+00
          4   -1    0    0  501    0  0.00000000000E+00  0.00000000000E+00  0.26583139234E+02  0.26613458842E+02  0.12700000000E+01 0.  1.
         -4   -1    0    0    0  501 -0.00000000000E+00 -0.00000000000E+00 -0.14682915046E+03  0.14683464280E+03  0.12700000000E+01 0.  1.
         25    2    1    2    0    0  0.00000000000E+00  0.00000000000E+00 -0.12024601123E+03  0.17344810164E+03  0.12500056298E+03 0.  0.
    9000005    1    3    3    0    0  0.15358097204E+02  0.38422115807E+02 -0.12510488241E+03  0.13177390385E+03  0.10000000000E+01 0.  0.
    9000005    1    3    3    0    0 -0.15358097204E+02 -0.38422115807E+02  0.48588711770E+01  0.41674197795E+02  0.10000000000E+01 0.  0.
<mgrwt>
<rscale>  0 0.12500056E+03</rscale>
<asrwt>0</asrwt>
<pdfrwt beam="1">  1        4 0.40924686E-02 0.12500056E+03</pdfrwt>
<pdfrwt beam="2">  1       -4 0.22591854E-01 0.12500056E+03</pdfrwt>
<totfact> 0.94808641E+03</totfact>
</mgrwt>
</event>
<event>
 5    1  0.3487578E-002  0.1250008E+03  0.7818608E-02  0.1235068E+00
         -4   -1    0    0    0  501 -0.00000000000E+00  0.00000000000E+00  0.38243909203E+03  0.38244120072E+03  0.12700000000E+01 0. -1.
          4   -1    0    0  501    0  0.00000000000E+00 -0.00000000000E+00 -0.10172552721E+02  0.10251523246E+02  0.12700000000E+01 0. -1.
         25    2    1    2    0    0  0.00000000000E+00  0.00000000000E+00  0.37226653931E+03  0.39269272397E+03  0.12500079668E+03 0.  0.
    9000005    1    3    3    0    0 -0.45051090369E+02  0.36068624749E+02  0.11081838206E+03  0.12494903056E+03  0.10000000000E+01 0.  0.
    9000005    1    3    3    0    0  0.45051090369E+02 -0.36068624749E+02  0.26144815725E+03  0.26774369341E+03  0.10000000000E+01 0.  0.
<mgrwt>
<rscale>  0 0.12500080E+03</rscale>
<asrwt>0</asrwt>
<pdfrwt beam="2">  1        4 0.15712452E-02 0.12500080E+03</pdfrwt>
<pdfrwt beam="1">  1       -4 0.58843012E-01 0.12500080E+03</pdfrwt>
<totfact> 0.65268600E+03</totfact>
</mgrwt>
</event>
<event>
 5    1  0.3487578E-002  0.1250139E+03  0.7818608E-02  0.1235048E+00
         -4   -1    0    0    0  501 -0.00000000000E+00  0.00000000000E+00  0.53552547905E+02  0.53567604829E+02  0.12700000000E+01 0. -1.
          4   -1    0    0  501    0  0.00000000000E+00 -0.00000000000E+00 -0.72927769164E+02  0.72938826528E+02  0.12700000000E+01 0. -1.
         25    2    1    2    0    0  0.00000000000E+00  0.00000000000E+00 -0.19375221260E+02  0.12650643136E+03  0.12501391113E+03 0.  0.
    9000005    1    3    3    0    0  0.43686955640E+02  0.37912668022E+02 -0.33638708675E+02  0.66921470478E+02  0.10000000000E+01 0.  0.
    9000005    1    3    3    0    0 -0.43686955640E+02 -0.37912668022E+02  0.14263487416E+02  0.59584960879E+02  0.10000000000E+01 0.  0.
<mgrwt>
<rscale>  0 0.12501391E+03</rscale>
<asrwt>0</asrwt>
<pdfrwt beam="2">  1        4 0.11221666E-01 0.12501391E+03</pdfrwt>
<pdfrwt beam="1">  1       -4 0.82408623E-02 0.12501391E+03</pdfrwt>
<totfact> 0.10416617E+04</totfact>
</mgrwt>
</event>
<event>
 5    1  0.3487578E-002  0.1249976E+03  0.7818608E-02  0.1235073E+00
          4   -1    0    0  501    0  0.00000000000E+00  0.00000000000E+00  0.73373101966E+02  0.73384092228E+02  0.12700000000E+01 0. -1.
         -4   -1    0    0    0  501 -0.00000000000E+00 -0.00000000000E+00 -0.53213615064E+02  0.53228767863E+02  0.12700000000E+01 0. -1.
         25    2    1    2    0    0  0.00000000000E+00  0.00000000000E+00  0.20159486902E+02  0.12661286009E+03  0.12499764569E+03 0.  0.
    9000005    1    3    3    0    0 -0.24968503835E+02  0.20557062160E+02  0.64241087568E+02  0.71930079385E+02  0.10000000000E+01 0.  0.
    9000005    1    3    3    0    0  0.24968503835E+02 -0.20557062160E+02 -0.44081600666E+02  0.54682780706E+02  0.10000000000E+01 0.  0.
<mgrwt>
<rscale>  0 0.12499765E+03</rscale>
<asrwt>0</asrwt>
<pdfrwt beam="1">  1        4 0.11290180E-01 0.12499765E+03</pdfrwt>
<pdfrwt beam="2">  1       -4 0.81887210E-02 0.12499765E+03</pdfrwt>
<totfact> 0.10418122E+04</totfact>
</mgrwt>
</event>
<event>
 4    1  0.3487578E-002  0.1250815E+03  0.7818608E-02  0.1234942E+00
         -4   -1    0    0    0  501 -0.00000000000E+00  0.00000000000E+00  0.41856914524E+02  0.41876176920E+02  0.12700000000E+01 0. -1.
          4   -1    0    0  501    0  0.00000000000E+00 -0.00000000000E+00 -0.93400518406E+02  0.93409152328E+02  0.12700000000E+01 0. -1.
    9000005    1    1    2    0    0 -0.13215124616E+02 -0.76624651364E+01  0.39813117809E+02  0.42654861859E+02  0.10000000000E+01 0.  0.
    9000005    1    1    2    0    0  0.13215124616E+02  0.76624651364E+01 -0.91356721691E+02  0.92630467389E+02  0.10000000000E+01 0.  0.
<mgrwt>
<rscale>  0 0.12508148E+03</rscale>
<asrwt>0</asrwt>
<pdfrwt beam="2">  1        4 0.14371456E-01 0.12508148E+03</pdfrwt>
<pdfrwt beam="1">  1       -4 0.64416712E-02 0.12508148E+03</pdfrwt>
<totfact> 0.10213281E+04</totfact>
</mgrwt>
</event>
<event>
 5    1  0.3487578E-002  0.1249991E+03  0.7818608E-02  0.1235071E+00
         -4   -1    0    0    0  501 -0.00000000000E+00  0.00000000000E+00  0.43243136898E+03  0.43243323390E+03  0.12700000000E+01 0. -1.
          4   -1    0    0  501    0  0.00000000000E+00 -0.00000000000E+00 -0.89865571904E+01  0.90758531354E+01  0.12700000000E+01 0. -1.
         25    2    1    2    0    0  0.00000000000E+00  0.00000000000E+00  0.42344481179E+03  0.44150908703E+03  0.12499906120E+03 0.  0.
    9000005    1    3    3    0    0  0.59613555255E+02 -0.18201548443E+02  0.19587945872E+03  0.20555980805E+03  0.10000000000E+01 0.  0.
    9000005    1    3    3    0    0 -0.59613555255E+02  0.18201548443E+02  0.22756535307E+03  0.23594927899E+03  0.10000000000E+01 0.  0.
<mgrwt>
<rscale>  0 0.12499906E+03</rscale>
<asrwt>0</asrwt>
<pdfrwt beam="2">  1        4 0.13895598E-02 0.12499906E+03</pdfrwt>
<pdfrwt beam="1">  1       -4 0.66534906E-01 0.12499906E+03</pdfrwt>
<totfact> 0.60707698E+03</totfact>
</mgrwt>
</event>
<event>
 5    1  0.3487578E-002  0.1250004E+03  0.7818608E-02  0.1235069E+00
         -4   -1    0    0    0  501 -0.00000000000E+00  0.00000000000E+00  0.29285184781E+01  0.31920401746E+01  0.12700000000E+01 0. -1.
          4   -1    0    0  501    0  0.00000000000E+00 -0.00000000000E+00 -0.12761798544E+04  0.12761804863E+04  0.12700000000E+01 0. -1.
         25    2    1    2    0    0  0.00000000000E+00  0.00000000000E+00 -0.12732513359E+04  0.12793725265E+04  0.12500038854E+03 0.  0.
    9000005    1    3    3    0    0  0.21515233476E+02 -0.31260118360E+02 -0.12845517058E+03  0.13394712061E+03  0.10000000000E+01 0.  0.
    9000005    1    3    3    0    0 -0.21515233476E+02  0.31260118360E+02 -0.11447961653E+04  0.11454254058E+04  0.10000000000E+01 0.  0.
<mgrwt>
<rscale>  0 0.12500039E+03</rscale>
<asrwt>0</asrwt>
<pdfrwt beam="2">  1        4 0.19635526E+00 0.12500039E+03</pdfrwt>
<pdfrwt beam="1">  1       -4 0.47086183E-03 0.12500039E+03</pdfrwt>
<totfact> 0.22720531E+03</totfact>
</mgrwt>
</event>
<event>
 5    1  0.3487578E-002  0.1250032E+03  0.7818608E-02  0.1235064E+00
         -4   -1    0    0    0  501 -0.00000000000E+00  0.00000000000E+00  0.33233695834E+01  0.35577640995E+01  0.12700000000E+01 0. -1.
          4   -1    0    0  501    0  0.00000000000E+00 -0.00000000000E+00 -0.11351735230E+04  0.11351742334E+04  0.12700000000E+01 0. -1.
         25    2    1    2    0    0  0.00000000000E+00  0.00000000000E+00 -0.11318501534E+04  0.11387319975E+04  0.12500316950E+03 0.  0.
    9000005    1    3    3    0    0  0.32857263112E+02 -0.45277010503E+01 -0.83428882235E+02  0.89785734986E+02  0.10000000000E+01 0.  0.
    9000005    1    3    3    0    0 -0.32857263112E+02  0.45277010503E+01 -0.10484212712E+04  0.10489462625E+04  0.10000000000E+01 0.  0.
<mgrwt>
<rscale>  0 0.12500317E+03</rscale>
<asrwt>0</asrwt>
<pdfrwt beam="2">  1        4 0.17465987E+00 0.12500317E+03</pdfrwt>
<pdfrwt beam="1">  1       -4 0.52937353E-03 0.12500317E+03</pdfrwt>
<totfact> 0.26373188E+03</totfact>
</mgrwt>
</event>
<event>
 5    1  0.3487578E-002  0.1249965E+03  0.7818608E-02  0.1235075E+00
         -4   -1    0    0    0  501 -0.00000000000E+00  0.00000000000E+00  0.23357822241E+03  0.23358167498E+03  0.12700000000E+01 0. -1.
          4   -1    0    0  501    0  0.00000000000E+00 -0.00000000000E+00 -0.16694896830E+02  0.16743132329E+02  0.12700000000E+01 0. -1.
         25    2    1    2    0    0  0.00000000000E+00  0.00000000000E+00  0.21688332558E+03  0.25032480731E+03  0.12499652890E+03 0.  0.
    9000005    1    3    3    0    0 -0.50224489150E+02  0.34353223974E+02  0.13693217100E+03  0.14984679764E+03  0.10000000000E+01 0.  0.
    9000005    1    3    3    0    0  0.50224489150E+02 -0.34353223974E+02  0.79951154581E+02  0.10047800967E+03  0.10000000000E+01 0.  0.
<mgrwt>
<rscale>  0 0.12499653E+03</rscale>
<asrwt>0</asrwt>
<pdfrwt beam="2">  1        4 0.25724216E-02 0.12499653E+03</pdfrwt>
<pdfrwt beam="1">  1       -4 0.35939088E-01 0.12499653E+03</pdfrwt>
<totfact> 0.82289667E+03</totfact>
</mgrwt>
</event>
<event>
 5    1  0.3487578E-002  0.1249917E+03  0.7818608E-02  0.1235082E+00
          4   -1    0    0  501    0  0.00000000000E+00  0.00000000000E+00  0.82815499535E+02  0.82825236874E+02  0.12700000000E+01 0. -1.
         -4   -1    0    0    0  501 -0.00000000000E+00 -0.00000000000E+00 -0.47140794355E+02  0.47157898516E+02  0.12700000000E+01 0. -1.
         25    2    1    2    0    0  0.00000000000E+00  0.00000000000E+00  0.35674705179E+02  0.12998313539E+03  0.12499172331E+03 0.  0.
    9000005    1    3    3    0    0  0.21838679185E+02  0.23899138089E+02  0.73419229263E+02  0.80246370233E+02  0.10000000000E+01 0.  0.
    9000005    1    3    3    0    0 -0.21838679185E+02 -0.23899138089E+02 -0.37744524084E+02  0.49736765157E+02  0.10000000000E+01 0.  0.
<mgrwt>
<rscale>  0 0.12499172E+03</rscale>
<asrwt>0</asrwt>
<pdfrwt beam="1">  1        4 0.12742911E-01 0.12499172E+03</pdfrwt>
<pdfrwt beam="2">  1       -4 0.72544948E-02 0.12499172E+03</pdfrwt>
<totfact> 0.10346801E+04</totfact>
</mgrwt>
</event>
<event>
 5    1  0.3487578E-002  0.1250007E+03  0.7818608E-02  0.1235068E+00
          4   -1    0    0  501    0  0.00000000000E+00  0.00000000000E+00  0.65704889549E+03  0.65705012287E+03  0.12700000000E+01 0. -1.
         -4   -1    0    0    0  501 -0.00000000000E+00 -0.00000000000E+00 -0.58761410513E+01  0.60118161694E+01  0.12700000000E+01 0. -1.
         25    2    1    2    0    0  0.00000000000E+00  0.00000000000E+00  0.65117275444E+03  0.66306193904E+03  0.12500071552E+03 0.  0.
    9000005    1    3    3    0    0 -0.14117794264E+02 -0.46584406091E+02  0.11770306062E+03  0.12737515254E+03  0.10000000000E+01 0.  0.
    9000005    1    3    3    0    0  0.14117794264E+02  0.46584406091E+02  0.53346969382E+03  0.53568678650E+03  0.10000000000E+01 0.  0.
<mgrwt>
<rscale>  0 0.12500072E+03</rscale>
<asrwt>0</asrwt>
<pdfrwt beam="1">  1        4 0.10109500E+00 0.12500072E+03</pdfrwt>
<pdfrwt beam="2">  1       -4 0.91455245E-03 0.12500072E+03</pdfrwt>
<totfact> 0.45108828E+03</totfact>
</mgrwt>
</event>
<event>
 5    1  0.3487578E-002  0.1250064E+03  0.7818608E-02  0.1235059E+00
          4   -1    0    0  501    0  0.00000000000E+00  0.00000000000E+00  0.16693861644E+02  0.16742100125E+02  0.12700000000E+01 0.  1.
         -4   -1    0    0    0  501 -0.00000000000E+00 -0.00000000000E+00 -0.23362940149E+03  0.23363285329E+03  0.12700000000E+01 0.  1.
         25    2    1    2    0    0  0.00000000000E+00  0.00000000000E+00 -0.21693553984E+03  0.25037495342E+03  0.12500635525E+03 0.  0.
    9000005    1    3    3    0    0 -0.19109149613E+01  0.14599244925E+02  0.13180164151E+02  0.19786517516E+02  0.10000000000E+01 0.  0.
    9000005    1    3    3    0    0  0.19109149613E+01 -0.14599244925E+02 -0.23011570399E+03  0.23058843590E+03  0.10000000000E+01 0.  0.
<mgrwt>
<rscale>  0 0.12500636E+03</rscale>
<asrwt>0</asrwt>
<pdfrwt beam="1">  1        4 0.25722628E-02 0.12500636E+03</pdfrwt>
<pdfrwt beam="2">  1       -4 0.35946959E-01 0.12500636E+03</pdfrwt>
<totfact> 0.82264420E+03</totfact>
</mgrwt>
</event>
<event>
 4    1  0.3487578E-002  0.1251447E+03  0.7818608E-02  0.1234843E+00
         -4   -1    0    0    0  501 -0.00000000000E+00  0.00000000000E+00  0.11912924363E+04  0.11912931133E+04  0.12700000000E+01 0. -1.
          4   -1    0    0  501    0  0.00000000000E+00 -0.00000000000E+00 -0.31632052962E+01  0.34086313597E+01  0.12700000000E+01 0. -1.
    9000005    1    1    2    0    0  0.50676252288E+02  0.24426612493E+02  0.33269868555E+03  0.33742281682E+03  0.10000000000E+01 0.  0.
    9000005    1    1    2    0    0 -0.50676252288E+02 -0.24426612493E+02  0.85543054549E+03  0.85727892783E+03  0.10000000000E+01 0.  0.
<mgrwt>
<rscale>  0 0.12514467E+03</rscale>
<asrwt>0</asrwt>
<pdfrwt beam="2">  1        4 0.50557747E-03 0.12514467E+03</pdfrwt>
<pdfrwt beam="1">  1       -4 0.18329487E+00 0.12514467E+03</pdfrwt>
<totfact> 0.24773553E+03</totfact>
</mgrwt>
</event>
<event>
 5    1  0.3487578E-002  0.1249940E+03  0.7818608E-02  0.1235079E+00
         -4   -1    0    0    0  501 -0.00000000000E+00  0.00000000000E+00  0.23006868860E+03  0.23007219383E+03  0.12700000000E+01 0.  1.
          4   -1    0    0  501    0  0.00000000000E+00 -0.00000000000E+00 -0.16949598733E+02  0.16997111437E+02  0.12700000000E+01 0.  1.
         25    2    1    2    0    0  0.00000000000E+00  0.00000000000E+00  0.21311908987E+03  0.24706930527E+03  0.12499398042E+03 0.  0.
    9000005    1    3    3    0    0  0.45399476318E+01  0.99399791127E+00 -0.16617207129E+02  0.17283828543E+02  0.10000000000E+01 0.  0.
    9000005    1    3    3    0    0 -0.45399476318E+01 -0.99399791127E+00  0.22973629700E+03  0.22978547673E+03  0.10000000000E+01 0.  0.
<mgrwt>
<rscale>  0 0.12499398E+03</rscale>
<asrwt>0</asrwt>
<pdfrwt beam="2">  1        4 0.26115551E-02 0.12499398E+03</pdfrwt>
<pdfrwt beam="1">  1       -4 0.35399107E-01 0.12499398E+03</pdfrwt>
<totfact> 0.82766758E+03</totfact>
</mgrwt>
</event>
<event>
 5    1  0.3487578E-002  0.1249994E+03  0.7818608E-02  0.1235070E+00
         -4   -1    0    0    0  501 -0.00000000000E+00  0.00000000000E+00  0.35378636940E+02  0.35401424430E+02  0.12700000000E+01 0.  1.
          4   -1    0    0  501    0  0.00000000000E+00 -0.00000000000E+00 -0.11034959528E+03  0.11035690318E+03  0.12700000000E+01 0.  1.
         25    2    1    2    0    0  0.00000000000E+00  0.00000000000E+00 -0.74970958344E+02  0.14575832761E+03  0.12499938189E+03 0.  0.
    9000005    1    3    3    0    0  0.46861988354E+02 -0.19502089606E+02  0.50215607987E+01  0.51015620395E+02  0.10000000000E+01 0.  0.
    9000005    1    3    3    0    0 -0.46861988354E+02  0.19502089606E+02 -0.79992519143E+02  0.94742707214E+02  0.10000000000E+01 0.  0.
<mgrwt>
<rscale>  0 0.12499938E+03</rscale>
<asrwt>0</asrwt>
<pdfrwt beam="2">  1        4 0.16979176E-01 0.12499938E+03</pdfrwt>
<pdfrwt beam="1">  1       -4 0.54451823E-02 0.12499938E+03</pdfrwt>
<totfact> 0.10015743E+04</totfact>
</mgrwt>
</event>
<event>
 5    1  0.3487578E-002  0.1250025E+03  0.7818608E-02  0.1235065E+00
          4   -1    0    0  501    0  0.00000000000E+00  0.00000000000E+00  0.22826817608E+03  0.22827170896E+03  0.12700000000E+01 0.  1.
         -4   -1    0    0    0  501 -0.00000000000E+00 -0.00000000000E+00 -0.17086005144E+02  0.17133139578E+02  0.12700000000E+01 0.  1.
         25    2    1    2    0    0  0.00000000000E+00  0.00000000000E+00  0.21118217094E+03  0.24540484854E+03  0.12500252143E+03 0.  0.
    9000005    1    3    3    0    0  0.40407409339E+02  0.45866198755E+02  0.80073976040E+02  0.10074377676E+03  0.10000000000E+01 0.  0.
    9000005    1    3    3    0    0 -0.40407409339E+02 -0.45866198755E+02  0.13110819489E+03  0.14466107177E+03  0.10000000000E+01 0.  0.
<mgrwt>
<rscale>  0 0.12500252E+03</rscale>
<asrwt>0</asrwt>
<pdfrwt beam="1">  1        4 0.35122077E-01 0.12500252E+03</pdfrwt>
<pdfrwt beam="2">  1       -4 0.26325138E-02 0.12500252E+03</pdfrwt>
<totfact> 0.82994276E+03</totfact>
</mgrwt>
</event>
<event>
 5    1  0.3487578E-002  0.1250023E+03  0.7818608E-02  0.1235066E+00
         -4   -1    0    0    0  501 -0.00000000000E+00  0.00000000000E+00  0.67239452854E+03  0.67239572791E+03  0.12700000000E+01 0. -1.
          4   -1    0    0  501    0  0.00000000000E+00 -0.00000000000E+00 -0.57390535658E+01  0.58778938262E+01  0.12700000000E+01 0. -1.
         25    2    1    2    0    0  0.00000000000E+00  0.00000000000E+00  0.66665547497E+03  0.67827362174E+03  0.12500233449E+03 0.  0.
    9000005    1    3    3    0    0  0.55780215838E+00 -0.61798023498E+02  0.38367325113E+03  0.38861995637E+03  0.10000000000E+01 0.  0.
    9000005    1    3    3    0    0 -0.55780215838E+00  0.61798023498E+02  0.28298222384E+03  0.28965366537E+03  0.10000000000E+01 0.  0.
<mgrwt>
<rscale>  0 0.12500233E+03</rscale>
<asrwt>0</asrwt>
<pdfrwt beam="2">  1        4 0.89370362E-03 0.12500233E+03</pdfrwt>
<pdfrwt beam="1">  1       -4 0.10345608E+00 0.12500233E+03</pdfrwt>
<totfact> 0.44256427E+03</totfact>
</mgrwt>
</event>
<event>
 5    1  0.3487578E-002  0.1249971E+03  0.7818608E-02  0.1235074E+00
         -4   -1    0    0    0  501 -0.00000000000E+00  0.00000000000E+00  0.82640201957E+02  0.82649959949E+02  0.12700000000E+01 0.  1.
          4   -1    0    0  501    0  0.00000000000E+00 -0.00000000000E+00 -0.47244844819E+02  0.47261911324E+02  0.12700000000E+01 0.  1.
         25    2    1    2    0    0  0.00000000000E+00  0.00000000000E+00  0.35395357138E+02  0.12991187127E+03  0.12499705193E+03 0.  0.
    9000005    1    3    3    0    0  0.19981404974E+02 -0.80029317423E+01  0.78670950965E+02  0.81568511002E+02  0.10000000000E+01 0.  0.
    9000005    1    3    3    0    0 -0.19981404974E+02  0.80029317423E+01 -0.43275593827E+02  0.48343360271E+02  0.10000000000E+01 0.  0.
<mgrwt>
<rscale>  0 0.12499705E+03</rscale>
<asrwt>0</asrwt>
<pdfrwt beam="2">  1        4 0.72705011E-02 0.12499705E+03</pdfrwt>
<pdfrwt beam="1">  1       -4 0.12715941E-01 0.12499705E+03</pdfrwt>
<totfact> 0.10347082E+04</totfact>
</mgrwt>
</event>
<event>
 5    1  0.3487578E-002  0.1249983E+03  0.7818608E-02  0.1235072E+00
          4   -1    0    0  501    0  0.00000000000E+00  0.00000000000E+00  0.41990163207E+02  0.42009364506E+02  0.12700000000E+01 0.  1.
         -4   -1    0    0    0  501 -0.00000000000E+00 -0.00000000000E+00 -0.92980463112E+02  0.92989136035E+02  0.12700000000E+01 0.  1.
         25    2    1    2    0    0  0.00000000000E+00  0.00000000000E+00 -0.50990299905E+02  0.13499850054E+03  0.12499833784E+03 0.  0.
    9000005    1    3    3    0    0  0.82551696983E+01  0.61433836713E+02 -0.16930928955E+02  0.64264457326E+02  0.10000000000E+01 0.  0.
    9000005    1    3    3    0    0 -0.82551696983E+01 -0.61433836713E+02 -0.34059370950E+02  0.70734043215E+02  0.10000000000E+01 0.  0.
<mgrwt>
<rscale>  0 0.12499834E+03</rscale>
<asrwt>0</asrwt>
<pdfrwt beam="1">  1        4 0.64621693E-02 0.12499834E+03</pdfrwt>
<pdfrwt beam="2">  1       -4 0.14306831E-01 0.12499834E+03</pdfrwt>
<totfact> 0.10238486E+04</totfact>
</mgrwt>
</event>
<event>
 5    1  0.3487578E-002  0.1250004E+03  0.7818608E-02  0.1235069E+00
          4   -1    0    0  501    0  0.00000000000E+00  0.00000000000E+00  0.22063463583E+02  0.22099984735E+02  0.12700000000E+01 0.  1.
         -4   -1    0    0    0  501 -0.00000000000E+00 -0.00000000000E+00 -0.17686208867E+03  0.17686664838E+03  0.12700000000E+01 0.  1.
         25    2    1    2    0    0  0.00000000000E+00  0.00000000000E+00 -0.15479862509E+03  0.19896663311E+03  0.12500042705E+03 0.  0.
    9000005    1    3    3    0    0 -0.27939997852E+01  0.39980732245E+02 -0.10791463082E+01  0.40105235847E+02  0.10000000000E+01 0.  0.
    9000005    1    3    3    0    0  0.27939997852E+01 -0.39980732245E+02 -0.15371947878E+03  0.15886139727E+03  0.10000000000E+01 0.  0.
<mgrwt>
<rscale>  0 0.12500043E+03</rscale>
<asrwt>0</asrwt>
<pdfrwt beam="1">  1        4 0.33975392E-02 0.12500043E+03</pdfrwt>
<pdfrwt beam="2">  1       -4 0.27212711E-01 0.12500043E+03</pdfrwt>
<totfact> 0.90309222E+03</totfact>
</mgrwt>
</event>
<event>
 5    1  0.3487578E-002  0.1250024E+03  0.7818608E-02  0.1235065E+00
          4   -1    0    0  501    0  0.00000000000E+00  0.00000000000E+00  0.92147272157E+01  0.93018330269E+01  0.12700000000E+01 0. -1.
         -4   -1    0    0    0  501 -0.00000000000E+00 -0.00000000000E+00 -0.42184795810E+03  0.42184986981E+03  0.12700000000E+01 0. -1.
         25    2    1    2    0    0  0.00000000000E+00  0.00000000000E+00 -0.41263323089E+03  0.43115170283E+03  0.12500243047E+03 0.  0.
    9000005    1    3    3    0    0 -0.94049133870E+01  0.59337020398E+02 -0.26566474439E+03  0.27237490854E+03  0.10000000000E+01 0.  0.
    9000005    1    3    3    0    0  0.94049133870E+01 -0.59337020398E+02 -0.14696848649E+03  0.15877679430E+03  0.10000000000E+01 0.  0.
<mgrwt>
<rscale>  0 0.12500243E+03</rscale>
<asrwt>0</asrwt>
<pdfrwt beam="1">  1        4 0.14244982E-02 0.12500243E+03</pdfrwt>
<pdfrwt beam="2">  1       -4 0.64906518E-01 0.12500243E+03</pdfrwt>
<totfact> 0.61628440E+03</totfact>
</mgrwt>
</event>
<event>
 5    1  0.3487578E-002  0.1249915E+03  0.7818608E-02  0.1235083E+00
          4   -1    0    0  501    0  0.00000000000E+00  0.00000000000E+00  0.28825636143E+03  0.28825915910E+03  0.12700000000E+01 0.  1.
         -4   -1    0    0    0  501 -0.00000000000E+00 -0.00000000000E+00 -0.13516824171E+02  0.13576355758E+02  0.12700000000E+01 0.  1.
         25    2    1    2    0    0  0.00000000000E+00  0.00000000000E+00  0.27473953726E+03  0.30183551485E+03  0.12499145849E+03 0.  0.
    9000005    1    3    3    0    0  0.43220777441E+02  0.45126758894E+02  0.13859208080E+03  0.15203034181E+03  0.10000000000E+01 0.  0.
    9000005    1    3    3    0    0 -0.43220777441E+02 -0.45126758894E+02  0.13614745646E+03  0.14980517305E+03  0.10000000000E+01 0.  0.
<mgrwt>
<rscale>  0 0.12499146E+03</rscale>
<asrwt>0</asrwt>
<pdfrwt beam="1">  1        4 0.44351925E-01 0.12499146E+03</pdfrwt>
<pdfrwt beam="2">  1       -4 0.20843061E-02 0.12499146E+03</pdfrwt>
<totfact> 0.75383461E+03</totfact>
</mgrwt>
</event>
<event>
 5    1  0.3487578E-002  0.1250051E+03  0.7818608E-02  0.1235061E+00
          4   -1    0    0  501    0  0.00000000000E+00  0.00000000000E+00  0.37363373210E+03  0.37363589049E+03  0.12700000000E+01 0.  1.
         -4   -1    0    0    0  501 -0.00000000000E+00 -0.00000000000E+00 -0.10414849038E+02  0.10491996020E+02  0.12700000000E+01 0.  1.
         25    2    1    2    0    0  0.00000000000E+00  0.00000000000E+00  0.36321888306E+03  0.38412788651E+03  0.12500510462E+03 0.  0.
    9000005    1    3    3    0    0  0.24065904182E+00 -0.51996500854E+01  0.37298152013E+03  0.37301917999E+03  0.10000000000E+01 0.  0.
    9000005    1    3    3    0    0 -0.24065904182E+00  0.51996500854E+01 -0.97626370769E+01  0.11108706517E+02  0.10000000000E+01 0.  0.
<mgrwt>
<rscale>  0 0.12500510E+03</rscale>
<asrwt>0</asrwt>
<pdfrwt beam="1">  1        4 0.57488218E-01 0.12500510E+03</pdfrwt>
<pdfrwt beam="2">  1       -4 0.16083847E-02 0.12500510E+03</pdfrwt>
<totfact> 0.66118870E+03</totfact>
</mgrwt>
</event>
<event>
 5    1  0.3487578E-002  0.1250015E+03  0.7818608E-02  0.1235067E+00
         -4   -1    0    0    0  501 -0.00000000000E+00  0.00000000000E+00  0.62719496166E+03  0.62719624747E+03  0.12700000000E+01 0. -1.
          4   -1    0    0  501    0  0.00000000000E+00 -0.00000000000E+00 -0.61622283908E+01  0.62917373388E+01  0.12700000000E+01 0. -1.
         25    2    1    2    0    0  0.00000000000E+00  0.00000000000E+00  0.62103273327E+03  0.63348798481E+03  0.12500148438E+03 0.  0.
    9000005    1    3    3    0    0 -0.44448874617E+02 -0.41715888852E+02  0.24076675604E+03  0.24836575580E+03  0.10000000000E+01 0.  0.
    9000005    1    3    3    0    0  0.44448874617E+02  0.41715888852E+02  0.38026597723E+03  0.38512222901E+03  0.10000000000E+01 0.  0.
<mgrwt>
<rscale>  0 0.12500148E+03</rscale>
<asrwt>0</asrwt>
<pdfrwt beam="2">  1        4 0.95809592E-03 0.12500148E+03</pdfrwt>
<pdfrwt beam="1">  1       -4 0.96501629E-01 0.12500148E+03</pdfrwt>
<totfact> 0.46818221E+03</totfact>
</mgrwt>
</event>
<event>
 5    1  0.3487578E-002  0.1249887E+03  0.7818608E-02  0.1235087E+00
          4   -1    0    0  501    0  0.00000000000E+00  0.00000000000E+00  0.50549609518E+02  0.50565560636E+02  0.12700000000E+01 0.  1.
         -4   -1    0    0    0  501 -0.00000000000E+00 -0.00000000000E+00 -0.77228237571E+02  0.77238679289E+02  0.12700000000E+01 0.  1.
         25    2    1    2    0    0  0.00000000000E+00  0.00000000000E+00 -0.26678628053E+02  0.12780423993E+03  0.12498869768E+03 0.  0.
    9000005    1    3    3    0    0 -0.18871993603E+02 -0.56397347302E+02 -0.32947592681E+02  0.67995270341E+02  0.10000000000E+01 0.  0.
    9000005    1    3    3    0    0  0.18871993603E+02  0.56397347302E+02  0.62689646282E+01  0.59808969585E+02  0.10000000000E+01 0.  0.
<mgrwt>
<rscale>  0 0.12498870E+03</rscale>
<asrwt>0</asrwt>
<pdfrwt beam="1">  1        4 0.77788933E-02 0.12498870E+03</pdfrwt>
<pdfrwt beam="2">  1       -4 0.11883297E-01 0.12498870E+03</pdfrwt>
<totfact> 0.10394369E+04</totfact>
</mgrwt>
</event>
<event>
 5    1  0.3487578E-002  0.1249825E+03  0.7818608E-02  0.1235097E+00
          4   -1    0    0  501    0  0.00000000000E+00  0.00000000000E+00  0.27414643138E+01  0.30213451613E+01  0.12700000000E+01 0.  1.
         -4   -1    0    0    0  501 -0.00000000000E+00 -0.00000000000E+00 -0.13550154757E+04  0.13550160709E+04  0.12700000000E+01 0.  1.
         25    2    1    2    0    0  0.00000000000E+00  0.00000000000E+00 -0.13522740114E+04  0.13580374160E+04  0.12498248454E+03 0.  0.
    9000005    1    3    3    0    0  0.27819843476E+02 -0.51089908640E+02 -0.42835030460E+03  0.43228359431E+03  0.10000000000E+01 0.  0.
    9000005    1    3    3    0    0 -0.27819843476E+02  0.51089908640E+02 -0.92392370677E+03  0.92575382170E+03  0.10000000000E+01 0.  0.
<mgrwt>
<rscale>  0 0.12498248E+03</rscale>
<asrwt>0</asrwt>
<pdfrwt beam="1">  1        4 0.44333990E-03 0.12498248E+03</pdfrwt>
<pdfrwt beam="2">  1       -4 0.20848499E+00 0.12498248E+03</pdfrwt>
<totfact> 0.20906760E+03</totfact>
</mgrwt>
</event>
<event>
 5    1  0.3487578E-002  0.1250026E+03  0.7818608E-02  0.1235065E+00
          4   -1    0    0  501    0  0.00000000000E+00  0.00000000000E+00  0.25823258855E+03  0.25823571149E+03  0.12700000000E+01 0.  1.
         -4   -1    0    0    0  501 -0.00000000000E+00 -0.00000000000E+00 -0.15097621765E+02  0.15150943302E+02  0.12700000000E+01 0.  1.
         25    2    1    2    0    0  0.00000000000E+00  0.00000000000E+00  0.24313496679E+03  0.27338665479E+03  0.12500260375E+03 0.  0.
    9000005    1    3    3    0    0  0.11101020025E+02  0.53607207251E+02  0.18748610993E+03  0.19531770716E+03  0.10000000000E+01 0.  0.
    9000005    1    3    3    0    0 -0.11101020025E+02 -0.53607207251E+02  0.55648856856E+02  0.78068947631E+02  0.10000000000E+01 0.  0.
<mgrwt>
<rscale>  0 0.12500260E+03</rscale>
<asrwt>0</asrwt>
<pdfrwt beam="1">  1        4 0.39732427E-01 0.12500260E+03</pdfrwt>
<pdfrwt beam="2">  1       -4 0.23270533E-02 0.12500260E+03</pdfrwt>
<totfact> 0.79058664E+03</totfact>
</mgrwt>
</event>
<event>
 5    1  0.3487578E-002  0.1250015E+03  0.7818608E-02  0.1235067E+00
          4   -1    0    0  501    0  0.00000000000E+00  0.00000000000E+00  0.19932724437E+02  0.19973142053E+02  0.12700000000E+01 0. -1.
         -4   -1    0    0    0  501 -0.00000000000E+00 -0.00000000000E+00 -0.19573556620E+03  0.19573968625E+03  0.12700000000E+01 0. -1.
         25    2    1    2    0    0  0.00000000000E+00  0.00000000000E+00 -0.17580284176E+03  0.21571282831E+03  0.12500154049E+03 0.  0.
    9000005    1    3    3    0    0 -0.31421980422E+02 -0.44589459142E+01  0.49992888406E+01  0.32143676535E+02  0.10000000000E+01 0.  0.
    9000005    1    3    3    0    0  0.31421980422E+02  0.44589459142E+01 -0.18080213060E+03  0.18356915177E+03  0.10000000000E+01 0.  0.
<mgrwt>
<rscale>  0 0.12500154E+03</rscale>
<asrwt>0</asrwt>
<pdfrwt beam="1">  1        4 0.30699991E-02 0.12500154E+03</pdfrwt>
<pdfrwt beam="2">  1       -4 0.30116589E-01 0.12500154E+03</pdfrwt>
<totfact> 0.87548304E+03</totfact>
</mgrwt>
</event>
<event>
 5    1  0.3487578E-002  0.1249973E+03  0.7818608E-02  0.1235074E+00
         -4   -1    0    0    0  501 -0.00000000000E+00  0.00000000000E+00  0.14360839869E+02  0.14416886687E+02  0.12700000000E+01 0.  1.
          4   -1    0    0  501    0  0.00000000000E+00 -0.00000000000E+00 -0.27140791032E+03  0.27141088166E+03  0.12700000000E+01 0.  1.
         25    2    1    2    0    0  0.00000000000E+00  0.00000000000E+00 -0.25704707045E+03  0.28582776834E+03  0.12499726690E+03 0.  0.
    9000005    1    3    3    0    0 -0.36872606793E+02  0.43469058593E+02 -0.18708783816E+03  0.19558120404E+03  0.10000000000E+01 0.  0.
    9000005    1    3    3    0    0  0.36872606793E+02 -0.43469058593E+02 -0.69959232289E+02  0.90246564307E+02  0.10000000000E+01 0.  0.
<mgrwt>
<rscale>  0 0.12499727E+03</rscale>
<asrwt>0</asrwt>
<pdfrwt beam="2">  1        4 0.41759599E-01 0.12499727E+03</pdfrwt>
<pdfrwt beam="1">  1       -4 0.22139000E-02 0.12499727E+03</pdfrwt>
<totfact> 0.77416380E+03</totfact>
</mgrwt>
</event>
<event>
 5    1  0.3487578E-002  0.1250068E+03  0.7818608E-02  0.1235059E+00
         -4   -1    0    0    0  501 -0.00000000000E+00  0.00000000000E+00  0.26363458362E+02  0.26394030325E+02  0.12700000000E+01 0. -1.
          4   -1    0    0  501    0  0.00000000000E+00 -0.00000000000E+00 -0.14806596099E+03  0.14807140745E+03  0.12700000000E+01 0. -1.
         25    2    1    2    0    0  0.00000000000E+00  0.00000000000E+00 -0.12170250263E+03  0.17446543777E+03  0.12500675914E+03 0.  0.
    9000005    1    3    3    0    0 -0.45042679526E+02 -0.13686791745E+02 -0.34851729080E+01  0.47215650767E+02  0.10000000000E+01 0.  0.
    9000005    1    3    3    0    0  0.45042679526E+02  0.13686791745E+02 -0.11821732972E+03  0.12724978700E+03  0.10000000000E+01 0.  0.
<mgrwt>
<rscale>  0 0.12500676E+03</rscale>
<asrwt>0</asrwt>
<pdfrwt beam="2">  1        4 0.22782149E-01 0.12500676E+03</pdfrwt>
<pdfrwt beam="1">  1       -4 0.40586874E-02 0.12500676E+03</pdfrwt>
<totfact> 0.94608489E+03</totfact>
</mgrwt>
</event>
<event>
 5    1  0.3487578E-002  0.1250016E+03  0.7818608E-02  0.1235067E+00
         -4   -1    0    0    0  501 -0.00000000000E+00  0.00000000000E+00  0.94229683913E+01  0.95081666636E+01  0.12700000000E+01 0. -1.
          4   -1    0    0  501    0  0.00000000000E+00 -0.00000000000E+00 -0.41260424868E+03  0.41260620321E+03  0.12700000000E+01 0. -1.
         25    2    1    2    0    0  0.00000000000E+00  0.00000000000E+00 -0.40318128028E+03  0.42211436987E+03  0.12500158591E+03 0.  0.
    9000005    1    3    3    0    0 -0.20262957702E+02 -0.39143050410E+01 -0.40078144317E+03  0.40131368582E+03  0.10000000000E+01 0.  0.
    9000005    1    3    3    0    0  0.20262957702E+02  0.39143050410E+01 -0.23998371163E+01  0.20800684051E+02  0.10000000000E+01 0.  0.
<mgrwt>
<rscale>  0 0.12500159E+03</rscale>
<asrwt>0</asrwt>
<pdfrwt beam="2">  1        4 0.63484267E-01 0.12500159E+03</pdfrwt>
<pdfrwt beam="1">  1       -4 0.14563918E-02 0.12500159E+03</pdfrwt>
<totfact> 0.62455159E+03</totfact>
</mgrwt>
</event>
<event>
 5    1  0.3487578E-002  0.1249995E+03  0.7818608E-02  0.1235070E+00
         -4   -1    0    0    0  501 -0.00000000000E+00  0.00000000000E+00  0.74525847935E+02  0.74536668228E+02  0.12700000000E+01 0. -1.
          4   -1    0    0  501    0  0.00000000000E+00 -0.00000000000E+00 -0.52391944948E+02  0.52407335321E+02  0.12700000000E+01 0. -1.
         25    2    1    2    0    0  0.00000000000E+00  0.00000000000E+00  0.22133902988E+02  0.12694400355E+03  0.12499948150E+03 0.  0.
    9000005    1    3    3    0    0 -0.82690450187E+01  0.32082617104E+02 -0.42743598716E+02  0.54089616905E+02  0.10000000000E+01 0.  0.
    9000005    1    3    3    0    0  0.82690450187E+01 -0.32082617104E+02  0.64877501704E+02  0.72854386643E+02  0.10000000000E+01 0.  0.
<mgrwt>
<rscale>  0 0.12499948E+03</rscale>
<asrwt>0</asrwt>
<pdfrwt beam="2">  1        4 0.80623155E-02 0.12499948E+03</pdfrwt>
<pdfrwt beam="1">  1       -4 0.11467531E-01 0.12499948E+03</pdfrwt>
<totfact> 0.10410484E+04</totfact>
</mgrwt>
</event>
<event>
 5    1  0.3487578E-002  0.1250050E+03  0.7818608E-02  0.1235061E+00
         -4   -1    0    0    0  501 -0.00000000000E+00  0.00000000000E+00  0.31273549373E+02  0.31299325717E+02  0.12700000000E+01 0. -1.
          4   -1    0    0  501    0  0.00000000000E+00 -0.00000000000E+00 -0.12483547409E+03  0.12484193402E+03  0.12700000000E+01 0. -1.
         25    2    1    2    0    0  0.00000000000E+00  0.00000000000E+00 -0.93561924715E+02  0.15614125974E+03  0.12500503685E+03 0.  0.
    9000005    1    3    3    0    0  0.14625872893E+02  0.11636141992E+00 -0.12267358313E+03  0.12354650014E+03  0.10000000000E+01 0.  0.
    9000005    1    3    3    0    0 -0.14625872893E+02 -0.11636141992E+00  0.29111658417E+02  0.32594759604E+02  0.10000000000E+01 0.  0.
<mgrwt>
<rscale>  0 0.12500504E+03</rscale>
<asrwt>0</asrwt>
<pdfrwt beam="2">  1        4 0.19207937E-01 0.12500504E+03</pdfrwt>
<pdfrwt beam="1">  1       -4 0.48137951E-02 0.12500504E+03</pdfrwt>
<totfact> 0.98080811E+03</totfact>
</mgrwt>
</event>
<event>
 5    1  0.3487578E-002  0.1249984E+03  0.7818608E-02  0.1235072E+00
         -4   -1    0    0    0  501 -0.00000000000E+00  0.00000000000E+00  0.13527918979E+03  0.13528515104E+03  0.12700000000E+01 0. -1.
          4   -1    0    0  501    0  0.00000000000E+00 -0.00000000000E+00 -0.28854164280E+02  0.28882099929E+02  0.12700000000E+01 0. -1.
         25    2    1    2    0    0  0.00000000000E+00  0.00000000000E+00  0.10642502551E+03  0.16416725096E+03  0.12499840093E+03 0.  0.
    9000005    1    3    3    0    0 -0.40719856976E+02 -0.38868260913E+02  0.88850235168E+02  0.10518656163E+03  0.10000000000E+01 0.  0.
    9000005    1    3    3    0    0  0.40719856976E+02  0.38868260913E+02  0.17574790344E+02  0.58980689333E+02  0.10000000000E+01 0.  0.
<mgrwt>
<rscale>  0 0.12499840E+03</rscale>
<asrwt>0</asrwt>
<pdfrwt beam="2">  1        4 0.44417096E-02 0.12499840E+03</pdfrwt>
<pdfrwt beam="1">  1       -4 0.20814791E-01 0.12499840E+03</pdfrwt>
<totfact> 0.96548803E+03</totfact>
</mgrwt>
</event>
<event>
 5    1  0.3487578E-002  0.1250431E+03  0.7818608E-02  0.1235002E+00
          4   -1    0    0  501    0  0.00000000000E+00  0.00000000000E+00  0.13308828966E+03  0.13309434904E+03  0.12700000000E+01 0. -1.
         -4   -1    0    0    0  501 -0.00000000000E+00 -0.00000000000E+00 -0.29350609661E+02  0.29378073243E+02  0.12700000000E+01 0. -1.
         25    2    1    2    0    0  0.00000000000E+00  0.00000000000E+00  0.10373768000E+03  0.16247242228E+03  0.12504311956E+03 0.  0.
    9000005    1    3    3    0    0 -0.44795087458E+02 -0.43103762852E+02  0.43307913361E+02  0.75770110150E+02  0.10000000000E+01 0.  0.
    9000005    1    3    3    0    0  0.44795087458E+02  0.43103762852E+02  0.60429766641E+02  0.86702312130E+02  0.10000000000E+01 0.  0.
<mgrwt>
<rscale>  0 0.12504312E+03</rscale>
<asrwt>0</asrwt>
<pdfrwt beam="1">  1        4 0.20477701E-01 0.12504312E+03</pdfrwt>
<pdfrwt beam="2">  1       -4 0.45180570E-02 0.12504312E+03</pdfrwt>
<totfact> 0.96774427E+03</totfact>
</mgrwt>
</event>
<event>
 5    1  0.3487578E-002  0.1250089E+03  0.7818608E-02  0.1235055E+00
         -4   -1    0    0    0  501 -0.00000000000E+00  0.00000000000E+00  0.79339952596E+02  0.79350116433E+02  0.12700000000E+01 0. -1.
          4   -1    0    0  501    0  0.00000000000E+00 -0.00000000000E+00 -0.49219828318E+02  0.49236210249E+02  0.12700000000E+01 0. -1.
         25    2    1    2    0    0  0.00000000000E+00  0.00000000000E+00  0.30120124278E+02  0.12858632668E+03  0.12500888578E+03 0.  0.
    9000005    1    3    3    0    0 -0.15976216497E+02  0.10129527577E+02  0.76329398316E+02  0.78644922721E+02  0.10000000000E+01 0.  0.
    9000005    1    3    3    0    0  0.15976216497E+02 -0.10129527577E+02 -0.46209274038E+02  0.49941403961E+02  0.10000000000E+01 0.  0.
<mgrwt>
<rscale>  0 0.12500889E+03</rscale>
<asrwt>0</asrwt>
<pdfrwt beam="2">  1        4 0.75743233E-02 0.12500889E+03</pdfrwt>
<pdfrwt beam="1">  1       -4 0.12208188E-01 0.12500889E+03</pdfrwt>
<totfact> 0.10372764E+04</totfact>
</mgrwt>
</event>
<event>
 5    1  0.3487578E-002  0.1249988E+03  0.7818608E-02  0.1235071E+00
          4   -1    0    0  501    0  0.00000000000E+00  0.00000000000E+00  0.39136261610E+02  0.39156862398E+02  0.12700000000E+01 0. -1.
         -4   -1    0    0    0  501 -0.00000000000E+00 -0.00000000000E+00 -0.99758634185E+02  0.99766717870E+02  0.12700000000E+01 0. -1.
         25    2    1    2    0    0  0.00000000000E+00  0.00000000000E+00 -0.60622372575E+02  0.13892358027E+03  0.12499875638E+03 0.  0.
    9000005    1    3    3    0    0  0.51898905904E+02 -0.31489958109E+02 -0.13824277722E+02  0.62267363444E+02  0.10000000000E+01 0.  0.
    9000005    1    3    3    0    0 -0.51898905904E+02  0.31489958109E+02 -0.46798094853E+02  0.76656216823E+02  0.10000000000E+01 0.  0.
<mgrwt>
<rscale>  0 0.12499876E+03</rscale>
<asrwt>0</asrwt>
<pdfrwt beam="1">  1        4 0.60231699E-02 0.12499876E+03</pdfrwt>
<pdfrwt beam="2">  1       -4 0.15349689E-01 0.12499876E+03</pdfrwt>
<totfact> 0.10156229E+04</totfact>
</mgrwt>
</event>
<event>
 5    1  0.3487578E-002  0.1250011E+03  0.7818608E-02  0.1235068E+00
         -4   -1    0    0    0  501 -0.00000000000E+00  0.00000000000E+00  0.15595815116E+02  0.15647439060E+02  0.12700000000E+01 0. -1.
          4   -1    0    0  501    0  0.00000000000E+00 -0.00000000000E+00 -0.25000507650E+03  0.25000830221E+03  0.12700000000E+01 0. -1.
         25    2    1    2    0    0  0.00000000000E+00  0.00000000000E+00 -0.23440926138E+03  0.26565574127E+03  0.12500108419E+03 0.  0.
    9000005    1    3    3    0    0  0.48595383255E+02 -0.23388045194E+01 -0.20055952326E+03  0.20637854455E+03  0.10000000000E+01 0.  0.
    9000005    1    3    3    0    0 -0.48595383255E+02  0.23388045194E+01 -0.33849738123E+02  0.59277196723E+02  0.10000000000E+01 0.  0.
<mgrwt>
<rscale>  0 0.12500108E+03</rscale>
<asrwt>0</asrwt>
<pdfrwt beam="2">  1        4 0.38466536E-01 0.12500108E+03</pdfrwt>
<pdfrwt beam="1">  1       -4 0.24035756E-02 0.12500108E+03</pdfrwt>
<totfact> 0.80116920E+03</totfact>
</mgrwt>
</event>
<event>
 5    1  0.3487578E-002  0.1249989E+03  0.7818608E-02  0.1235071E+00
          4   -1    0    0  501    0  0.00000000000E+00  0.00000000000E+00  0.57009181268E+01  0.58406649868E+01  0.12700000000E+01 0.  1.
         -4   -1    0    0    0  501 -0.00000000000E+00 -0.00000000000E+00 -0.67674778696E+03  0.67674897862E+03  0.12700000000E+01 0.  1.
         25    2    1    2    0    0  0.00000000000E+00  0.00000000000E+00 -0.67104686884E+03  0.68258964360E+03  0.12499888552E+03 0.  0.
    9000005    1    3    3    0    0  0.61310785912E+02  0.83163411755E+01 -0.38344343453E+03  0.38840448181E+03  0.10000000000E+01 0.  0.
    9000005    1    3    3    0    0 -0.61310785912E+02 -0.83163411755E+01 -0.28760343430E+03  0.29418516180E+03  0.10000000000E+01 0.  0.
<mgrwt>
<rscale>  0 0.12499889E+03</rscale>
<asrwt>0</asrwt>
<pdfrwt beam="1">  1        4 0.88790629E-03 0.12499889E+03</pdfrwt>
<pdfrwt beam="2">  1       -4 0.10412582E+00 0.12499889E+03</pdfrwt>
<totfact> 0.44022935E+03</totfact>
</mgrwt>
</event>
<event>
 5    1  0.3487578E-002  0.1249998E+03  0.7818608E-02  0.1235070E+00
          4   -1    0    0  501    0  0.00000000000E+00  0.00000000000E+00  0.52114599399E+02  0.52130071652E+02  0.12700000000E+01 0. -1.
         -4   -1    0    0    0  501 -0.00000000000E+00 -0.00000000000E+00 -0.74922765804E+02  0.74933528782E+02  0.12700000000E+01 0. -1.
         25    2    1    2    0    0  0.00000000000E+00  0.00000000000E+00 -0.22808166406E+02  0.12706360043E+03  0.12499978440E+03 0.  0.
    9000005    1    3    3    0    0 -0.11106981138E+02  0.60542725712E+02 -0.43472102862E+00  0.61562778114E+02  0.10000000000E+01 0.  0.
    9000005    1    3    3    0    0  0.11106981138E+02 -0.60542725712E+02 -0.22373445377E+02  0.65500822321E+02  0.10000000000E+01 0.  0.
<mgrwt>
<rscale>  0 0.12499978E+03</rscale>
<asrwt>0</asrwt>
<pdfrwt beam="1">  1        4 0.80196488E-02 0.12499978E+03</pdfrwt>
<pdfrwt beam="2">  1       -4 0.11528597E-01 0.12499978E+03</pdfrwt>
<totfact> 0.10407815E+04</totfact>
</mgrwt>
</event>
<event>
 5    1  0.3487578E-002  0.1250177E+03  0.7818608E-02  0.1235042E+00
          4   -1    0    0  501    0  0.00000000000E+00  0.00000000000E+00  0.17683054604E+02  0.17728601753E+02  0.12700000000E+01 0.  1.
         -4   -1    0    0    0  501 -0.00000000000E+00 -0.00000000000E+00 -0.22063441622E+03  0.22063807133E+03  0.12700000000E+01 0.  1.
         25    2    1    2    0    0  0.00000000000E+00  0.00000000000E+00 -0.20295136162E+03  0.23836667308E+03  0.12501766137E+03 0.  0.
    9000005    1    3    3    0    0 -0.38123789473E+02 -0.13915136441E+02 -0.10847956663E+02  0.42020620054E+02  0.10000000000E+01 0.  0.
    9000005    1    3    3    0    0  0.38123789473E+02  0.13915136441E+02 -0.19210340495E+03  0.19634605303E+03  0.10000000000E+01 0.  0.
<mgrwt>
<rscale>  0 0.12501766E+03</rscale>
<asrwt>0</asrwt>
<pdfrwt beam="1">  1        4 0.27242549E-02 0.12501766E+03</pdfrwt>
<pdfrwt beam="2">  1       -4 0.33947539E-01 0.12501766E+03</pdfrwt>
<totfact> 0.84008140E+03</totfact>
</mgrwt>
</event>
<event>
 5    1  0.3487578E-002  0.1250024E+03  0.7818608E-02  0.1235066E+00
         -4   -1    0    0    0  501 -0.00000000000E+00  0.00000000000E+00  0.57876514029E+03  0.57876653369E+03  0.12700000000E+01 0.  1.
          4   -1    0    0  501    0  0.00000000000E+00 -0.00000000000E+00 -0.66883846204E+01  0.68078916582E+01  0.12700000000E+01 0.  1.
         25    2    1    2    0    0  0.00000000000E+00  0.00000000000E+00  0.57207675567E+03  0.58557442535E+03  0.12500237294E+03 0.  0.
    9000005    1    3    3    0    0 -0.48545917087E+02 -0.39322191650E+02  0.29338198682E+03  0.29996154923E+03  0.10000000000E+01 0.  0.
    9000005    1    3    3    0    0  0.48545917087E+02  0.39322191650E+02  0.27869476885E+03  0.28561287612E+03  0.10000000000E+01 0.  0.
<mgrwt>
<rscale>  0 0.12500237E+03</rscale>
<asrwt>0</asrwt>
<pdfrwt beam="2">  1        4 0.10382820E-02 0.12500237E+03</pdfrwt>
<pdfrwt beam="1">  1       -4 0.89050118E-01 0.12500237E+03</pdfrwt>
<totfact> 0.49788438E+03</totfact>
</mgrwt>
</event>
<event>
 5    1  0.3487578E-002  0.1250058E+03  0.7818608E-02  0.1235060E+00
         -4   -1    0    0    0  501 -0.00000000000E+00  0.00000000000E+00  0.81063563684E+03  0.81063663168E+03  0.12700000000E+01 0.  1.
          4   -1    0    0  501    0  0.00000000000E+00 -0.00000000000E+00 -0.47345069682E+01  0.49018829271E+01  0.12700000000E+01 0.  1.
         25    2    1    2    0    0  0.00000000000E+00  0.00000000000E+00  0.80590112987E+03  0.81553851461E+03  0.12500575056E+03 0.  0.
    9000005    1    3    3    0    0  0.33901739781E+02  0.18833567804E+02  0.83235685640E+02  0.91832513852E+02  0.10000000000E+01 0.  0.
    9000005    1    3    3    0    0 -0.33901739781E+02 -0.18833567804E+02  0.72266544423E+03  0.72370600075E+03  0.10000000000E+01 0.  0.
<mgrwt>
<rscale>  0 0.12500575E+03</rscale>
<asrwt>0</asrwt>
<pdfrwt beam="2">  1        4 0.74133781E-03 0.12500575E+03</pdfrwt>
<pdfrwt beam="1">  1       -4 0.12472604E+00 0.12500575E+03</pdfrwt>
<totfact> 0.37575695E+03</totfact>
</mgrwt>
</event>
<event>
 5    1  0.3487578E-002  0.1249980E+03  0.7818608E-02  0.1235072E+00
          4   -1    0    0  501    0  0.00000000000E+00  0.00000000000E+00  0.39742997004E+02  0.39763283452E+02  0.12700000000E+01 0.  1.
         -4   -1    0    0    0  501 -0.00000000000E+00 -0.00000000000E+00 -0.98235095585E+02  0.98243304630E+02  0.12700000000E+01 0.  1.
         25    2    1    2    0    0  0.00000000000E+00  0.00000000000E+00 -0.58492098580E+02  0.13800658808E+03  0.12499797101E+03 0.  0.
    9000005    1    3    3    0    0 -0.22670580883E+02 -0.58133421316E+02 -0.33018236769E+02  0.70602081207E+02  0.10000000000E+01 0.  0.
    9000005    1    3    3    0    0  0.22670580883E+02  0.58133421316E+02 -0.25473861811E+02  0.67404506875E+02  0.10000000000E+01 0.  0.
<mgrwt>
<rscale>  0 0.12499797E+03</rscale>
<asrwt>0</asrwt>
<pdfrwt beam="1">  1        4 0.61164992E-02 0.12499797E+03</pdfrwt>
<pdfrwt beam="2">  1       -4 0.15115284E-01 0.12499797E+03</pdfrwt>
<totfact> 0.10175534E+04</totfact>
</mgrwt>
</event>
<event>
 5    1  0.3487578E-002  0.1249989E+03  0.7818608E-02  0.1235071E+00
         -4   -1    0    0    0  501 -0.00000000000E+00  0.00000000000E+00  0.35938925669E+03  0.35939150063E+03  0.12700000000E+01 0. -1.
          4   -1    0    0  501    0  0.00000000000E+00 -0.00000000000E+00 -0.10829556292E+02  0.10903769508E+02  0.12700000000E+01 0. -1.
         25    2    1    2    0    0  0.00000000000E+00  0.00000000000E+00  0.34855970040E+03  0.37029527013E+03  0.12499888937E+03 0.  0.
    9000005    1    3    3    0    0 -0.46728037125E+02  0.12376736647E+02  0.29160268406E+03  0.29558386020E+03  0.10000000000E+01 0.  0.
    9000005    1    3    3    0    0  0.46728037125E+02 -0.12376736647E+02  0.56957016339E+02  0.74711409930E+02  0.10000000000E+01 0.  0.
<mgrwt>
<rscale>  0 0.12499889E+03</rscale>
<asrwt>0</asrwt>
<pdfrwt beam="2">  1        4 0.16719667E-02 0.12499889E+03</pdfrwt>
<pdfrwt beam="1">  1       -4 0.55296543E-01 0.12499889E+03</pdfrwt>
<totfact> 0.67549709E+03</totfact>
</mgrwt>
</event>
<event>
 5    1  0.3487578E-002  0.1250030E+03  0.7818608E-02  0.1235065E+00
          4   -1    0    0  501    0  0.00000000000E+00  0.00000000000E+00  0.27754446407E+03  0.27754736972E+03  0.12700000000E+01 0. -1.
         -4   -1    0    0    0  501 -0.00000000000E+00 -0.00000000000E+00 -0.14043370750E+02  0.14100679488E+02  0.12700000000E+01 0. -1.
         25    2    1    2    0    0  0.00000000000E+00  0.00000000000E+00  0.26350109332E+03  0.29164804920E+03  0.12500303366E+03 0.  0.
    9000005    1    3    3    0    0  0.12601797229E+02  0.28207478336E+02  0.50083871769E+01  0.31313752084E+02  0.10000000000E+01 0.  0.
    9000005    1    3    3    0    0 -0.12601797229E+02 -0.28207478336E+02  0.25849270614E+03  0.26033429712E+03  0.10000000000E+01 0.  0.
<mgrwt>
<rscale>  0 0.12500303E+03</rscale>
<asrwt>0</asrwt>
<pdfrwt beam="1">  1        4 0.42703779E-01 0.12500303E+03</pdfrwt>
<pdfrwt beam="2">  1       -4 0.21651505E-02 0.12500303E+03</pdfrwt>
<totfact> 0.76653413E+03</totfact>
</mgrwt>
</event>
<event>
 5    1  0.3487578E-002  0.1249576E+03  0.7818608E-02  0.1235136E+00
          4   -1    0    0  501    0  0.00000000000E+00  0.00000000000E+00  0.23924291356E+02  0.23957976060E+02  0.12700000000E+01 0. -1.
         -4   -1    0    0    0  501 -0.00000000000E+00 -0.00000000000E+00 -0.16301377474E+03  0.16301872179E+03  0.12700000000E+01 0. -1.
         25    2    1    2    0    0  0.00000000000E+00  0.00000000000E+00 -0.13908948338E+03  0.18697669785E+03  0.12495759742E+03 0.  0.
    9000005    1    3    3    0    0 -0.39802848772E+02  0.39892576302E+02 -0.10988762142E+03  0.12349888160E+03  0.10000000000E+01 0.  0.
    9000005    1    3    3    0    0  0.39802848772E+02 -0.39892576302E+02 -0.29201861961E+02  0.63477816253E+02  0.10000000000E+01 0.  0.
<mgrwt>
<rscale>  0 0.12495760E+03</rscale>
<asrwt>0</asrwt>
<pdfrwt beam="1">  1        4 0.36836320E-02 0.12495760E+03</pdfrwt>
<pdfrwt beam="2">  1       -4 0.25082013E-01 0.12495760E+03</pdfrwt>
<totfact> 0.92463857E+03</totfact>
</mgrwt>
</event>
<event>
 5    1  0.3487578E-002  0.1249981E+03  0.7818608E-02  0.1235072E+00
         -4   -1    0    0    0  501 -0.00000000000E+00  0.00000000000E+00  0.88116665030E+02  0.88125816626E+02  0.12700000000E+01 0.  1.
          4   -1    0    0  501    0  0.00000000000E+00 -0.00000000000E+00 -0.44308551410E+02  0.44326748449E+02  0.12700000000E+01 0.  1.
         25    2    1    2    0    0  0.00000000000E+00  0.00000000000E+00  0.43808113620E+02  0.13245256508E+03  0.12499812469E+03 0.  0.
    9000005    1    3    3    0    0 -0.74783252143E+01  0.59224911188E+02  0.41489203543E+02  0.72703985200E+02  0.10000000000E+01 0.  0.
    9000005    1    3    3    0    0  0.74783252143E+01 -0.59224911188E+02  0.23189100770E+01  0.59748579876E+02  0.10000000000E+01 0.  0.
<mgrwt>
<rscale>  0 0.12499812E+03</rscale>
<asrwt>0</asrwt>
<pdfrwt beam="2">  1        4 0.68188040E-02 0.12499812E+03</pdfrwt>
<pdfrwt beam="1">  1       -4 0.13558514E-01 0.12499812E+03</pdfrwt>
<totfact> 0.10292484E+04</totfact>
</mgrwt>
</event>
<event>
 5    1  0.3487578E-002  0.1249978E+03  0.7818608E-02  0.1235073E+00
         -4   -1    0    0    0  501 -0.00000000000E+00  0.00000000000E+00  0.34688962675E+02  0.34712202918E+02  0.12700000000E+01 0.  1.
          4   -1    0    0  501    0  0.00000000000E+00 -0.00000000000E+00 -0.11253932642E+03  0.11254649214E+03  0.12700000000E+01 0.  1.
         25    2    1    2    0    0  0.00000000000E+00  0.00000000000E+00 -0.77850363749E+02  0.14725869505E+03  0.12499777651E+03 0.  0.
    9000005    1    3    3    0    0 -0.11526780465E+02 -0.55945136843E+02 -0.90660825548E+01  0.57843918066E+02  0.10000000000E+01 0.  0.
    9000005    1    3    3    0    0  0.11526780465E+02  0.55945136843E+02 -0.68784281195E+02  0.89414776988E+02  0.10000000000E+01 0.  0.
<mgrwt>
<rscale>  0 0.12499778E+03</rscale>
<asrwt>0</asrwt>
<pdfrwt beam="2">  1        4 0.17316081E-01 0.12499778E+03</pdfrwt>
<pdfrwt beam="1">  1       -4 0.53391025E-02 0.12499778E+03</pdfrwt>
<totfact> 0.99857968E+03</totfact>
</mgrwt>
</event>
<event>
 5    1  0.3487578E-002  0.1250029E+03  0.7818608E-02  0.1235065E+00
         -4   -1    0    0    0  501 -0.00000000000E+00  0.00000000000E+00  0.54375011207E+01  0.55838444138E+01  0.12700000000E+01 0.  1.
          4   -1    0    0  501    0  0.00000000000E+00 -0.00000000000E+00 -0.70873718026E+03  0.70873831813E+03  0.12700000000E+01 0.  1.
         25    2    1    2    0    0  0.00000000000E+00  0.00000000000E+00 -0.70329967914E+03  0.71432216254E+03  0.12500285285E+03 0.  0.
    9000005    1    3    3    0    0  0.96638534238E+01 -0.90762391806E+01 -0.70063650143E+03  0.70076263836E+03  0.10000000000E+01 0.  0.
    9000005    1    3    3    0    0 -0.96638534238E+01  0.90762391806E+01 -0.26631777114E+01  0.13559524187E+02  0.10000000000E+01 0.  0.
<mgrwt>
<rscale>  0 0.12500285E+03</rscale>
<asrwt>0</asrwt>
<pdfrwt beam="2">  1        4 0.10904776E+00 0.12500285E+03</pdfrwt>
<pdfrwt beam="1">  1       -4 0.84788390E-03 0.12500285E+03</pdfrwt>
<totfact> 0.42338737E+03</totfact>
</mgrwt>
</event>
<event>
 5    1  0.3487578E-002  0.1250010E+03  0.7818608E-02  0.1235068E+00
          4   -1    0    0  501    0  0.00000000000E+00  0.00000000000E+00  0.34218109021E+03  0.34218344699E+03  0.12700000000E+01 0.  1.
         -4   -1    0    0    0  501 -0.00000000000E+00 -0.00000000000E+00 -0.11378192595E+02  0.11448850018E+02  0.12700000000E+01 0.  1.
         25    2    1    2    0    0  0.00000000000E+00  0.00000000000E+00  0.33080289761E+03  0.35363229701E+03  0.12500097768E+03 0.  0.
    9000005    1    3    3    0    0  0.53897453675E+02  0.31628671904E+02  0.16525428634E+03  0.17667848639E+03  0.10000000000E+01 0.  0.
    9000005    1    3    3    0    0 -0.53897453675E+02 -0.31628671904E+02  0.16554861127E+03  0.17695381062E+03  0.10000000000E+01 0.  0.
<mgrwt>
<rscale>  0 0.12500098E+03</rscale>
<asrwt>0</asrwt>
<pdfrwt beam="1">  1        4 0.52648864E-01 0.12500098E+03</pdfrwt>
<pdfrwt beam="2">  1       -4 0.17561076E-02 0.12500098E+03</pdfrwt>
<totfact> 0.69325295E+03</totfact>
</mgrwt>
</event>
<event>
 5    1  0.3487578E-002  0.1249975E+03  0.7818608E-02  0.1235073E+00
         -4   -1    0    0    0  501 -0.00000000000E+00  0.00000000000E+00  0.34226476289E+03  0.34226711910E+03  0.12700000000E+01 0. -1.
          4   -1    0    0  501    0  0.00000000000E+00 -0.00000000000E+00 -0.11374761938E+02  0.11445440539E+02  0.12700000000E+01 0. -1.
         25    2    1    2    0    0  0.00000000000E+00  0.00000000000E+00  0.33089000095E+03  0.35371255964E+03  0.12499752844E+03 0.  0.
    9000005    1    3    3    0    0  0.45053400967E+02  0.29221071006E+02  0.25588286487E+03  0.26145883129E+03  0.10000000000E+01 0.  0.
    9000005    1    3    3    0    0 -0.45053400967E+02 -0.29221071006E+02  0.75007136083E+02  0.92253728341E+02  0.10000000000E+01 0.  0.
<mgrwt>
<rscale>  0 0.12499753E+03</rscale>
<asrwt>0</asrwt>
<pdfrwt beam="2">  1        4 0.17555814E-02 0.12499753E+03</pdfrwt>
<pdfrwt beam="1">  1       -4 0.52661737E-01 0.12499753E+03</pdfrwt>
<totfact> 0.69321839E+03</totfact>
</mgrwt>
</event>
<event>
 5    1  0.3487578E-002  0.1249959E+03  0.7818608E-02  0.1235076E+00
         -4   -1    0    0    0  501 -0.00000000000E+00  0.00000000000E+00  0.67354331559E+02  0.67366303741E+02  0.12700000000E+01 0.  1.
          4   -1    0    0  501    0  0.00000000000E+00 -0.00000000000E+00 -0.57967686056E+02  0.57981596448E+02  0.12700000000E+01 0.  1.
         25    2    1    2    0    0  0.00000000000E+00  0.00000000000E+00  0.93866455025E+01  0.12534790019E+03  0.12499594781E+03 0.  0.
    9000005    1    3    3    0    0 -0.89976065781E+01  0.59207396268E+02 -0.13204171859E+02  0.61333700780E+02  0.10000000000E+01 0.  0.
    9000005    1    3    3    0    0  0.89976065781E+01 -0.59207396268E+02  0.22590817361E+02  0.64014199409E+02  0.10000000000E+01 0.  0.
<mgrwt>
<rscale>  0 0.12499595E+03</rscale>
<asrwt>0</asrwt>
<pdfrwt beam="2">  1        4 0.89200965E-02 0.12499595E+03</pdfrwt>
<pdfrwt beam="1">  1       -4 0.10364196E-01 0.12499595E+03</pdfrwt>
<totfact> 0.10446267E+04</totfact>
</mgrwt>
</event>
<event>
 5    1  0.3487578E-002  0.1250128E+03  0.7818608E-02  0.1235049E+00
         -4   -1    0    0    0  501 -0.00000000000E+00  0.00000000000E+00  0.72320352271E+01  0.73426993351E+01  0.12700000000E+01 0.  1.
          4   -1    0    0  501    0  0.00000000000E+00 -0.00000000000E+00 -0.53602913464E+03  0.53603063912E+03  0.12700000000E+01 0.  1.
         25    2    1    2    0    0  0.00000000000E+00  0.00000000000E+00 -0.52879709941E+03  0.54337333846E+03  0.12501284975E+03 0.  0.
    9000005    1    3    3    0    0 -0.13159227796E+02 -0.23817330666E+02 -0.50895168842E+03  0.50967955782E+03  0.10000000000E+01 0.  0.
    9000005    1    3    3    0    0  0.13159227796E+02  0.23817330666E+02 -0.19845410991E+02  0.33693780638E+02  0.10000000000E+01 0.  0.
<mgrwt>
<rscale>  0 0.12501285E+03</rscale>
<asrwt>0</asrwt>
<pdfrwt beam="2">  1        4 0.82474618E-01 0.12501285E+03</pdfrwt>
<pdfrwt beam="1">  1       -4 0.11212496E-02 0.12501285E+03</pdfrwt>
<totfact> 0.52634631E+03</totfact>
</mgrwt>
</event>
<event>
 5    1  0.3487578E-002  0.1250003E+03  0.7818608E-02  0.1235069E+00
          4   -1    0    0  501    0  0.00000000000E+00  0.00000000000E+00  0.83344730921E+03  0.83344827682E+03  0.12700000000E+01 0. -1.
         -4   -1    0    0    0  501 -0.00000000000E+00 -0.00000000000E+00 -0.45998640288E+01  0.47719649080E+01  0.12700000000E+01 0. -1.
         25    2    1    2    0    0  0.00000000000E+00  0.00000000000E+00  0.82884744518E+03  0.83822024172E+03  0.12500034502E+03 0.  0.
    9000005    1    3    3    0    0  0.74483781030E+01  0.55466241506E+02  0.22794987694E+03  0.23472138522E+03  0.10000000000E+01 0.  0.
    9000005    1    3    3    0    0 -0.74483781030E+01 -0.55466241506E+02  0.60089756824E+03  0.60349885651E+03  0.10000000000E+01 0.  0.
<mgrwt>
<rscale>  0 0.12500035E+03</rscale>
<asrwt>0</asrwt>
<pdfrwt beam="1">  1        4 0.12823589E+00 0.12500035E+03</pdfrwt>
<pdfrwt beam="2">  1       -4 0.72098481E-03 0.12500035E+03</pdfrwt>
<totfact> 0.36614016E+03</totfact>
</mgrwt>
</event>
<event>
 5    1  0.3487578E-002  0.1250027E+03  0.7818608E-02  0.1235065E+00
         -4   -1    0    0    0  501 -0.00000000000E+00  0.00000000000E+00  0.19443095275E+03  0.19443510045E+03  0.12700000000E+01 0. -1.
          4   -1    0    0  501    0  0.00000000000E+00 -0.00000000000E+00 -0.20067113418E+02  0.20107260901E+02  0.12700000000E+01 0. -1.
         25    2    1    2    0    0  0.00000000000E+00  0.00000000000E+00  0.17436383933E+03  0.21454236135E+03  0.12500270536E+03 0.  0.
    9000005    1    3    3    0    0  0.44457283671E+02 -0.13724099071E+02  0.15576582469E+02  0.49075766811E+02  0.10000000000E+01 0.  0.
    9000005    1    3    3    0    0 -0.44457283671E+02  0.13724099071E+02  0.15878725686E+03  0.16546659454E+03  0.10000000000E+01 0.  0.
<mgrwt>
<rscale>  0 0.12500271E+03</rscale>
<asrwt>0</asrwt>
<pdfrwt beam="2">  1        4 0.30906556E-02 0.12500271E+03</pdfrwt>
<pdfrwt beam="1">  1       -4 0.29915861E-01 0.12500271E+03</pdfrwt>
<totfact> 0.87734081E+03</totfact>
</mgrwt>
</event>
<event>
 5    1  0.3487578E-002  0.1249990E+03  0.7818608E-02  0.1235071E+00
          4   -1    0    0  501    0  0.00000000000E+00  0.00000000000E+00  0.53850846999E+03  0.53850996755E+03  0.12700000000E+01 0. -1.
         -4   -1    0    0    0  501 -0.00000000000E+00 -0.00000000000E+00 -0.71966097257E+01  0.73078103112E+01  0.12700000000E+01 0. -1.
         25    2    1    2    0    0  0.00000000000E+00  0.00000000000E+00  0.53131186027E+03  0.54581777786E+03  0.12499901508E+03 0.  0.
    9000005    1    3    3    0    0  0.17632058929E+02 -0.28065176354E+02  0.34324408847E+02  0.47725346186E+02  0.10000000000E+01 0.  0.
    9000005    1    3    3    0    0 -0.17632058929E+02  0.28065176354E+02  0.49698745142E+03  0.49809243168E+03  0.10000000000E+01 0.  0.
<mgrwt>
<rscale>  0 0.12499902E+03</rscale>
<asrwt>0</asrwt>
<pdfrwt beam="1">  1        4 0.82856129E-01 0.12499902E+03</pdfrwt>
<pdfrwt beam="2">  1       -4 0.11158398E-02 0.12499902E+03</pdfrwt>
<totfact> 0.52477968E+03</totfact>
</mgrwt>
</event>
<event>
 5    1  0.3487578E-002  0.1249979E+03  0.7818608E-02  0.1235073E+00
         -4   -1    0    0    0  501 -0.00000000000E+00  0.00000000000E+00  0.21147856747E+02  0.21185956315E+02  0.12700000000E+01 0.  1.
          4   -1    0    0  501    0  0.00000000000E+00 -0.00000000000E+00 -0.18449860400E+03  0.18450297498E+03  0.12700000000E+01 0.  1.
         25    2    1    2    0    0  0.00000000000E+00  0.00000000000E+00 -0.16335074725E+03  0.20568893130E+03  0.12499787930E+03 0.  0.
    9000005    1    3    3    0    0 -0.22520478649E+02 -0.58036720761E+02 -0.90640851759E+02  0.10996452575E+03  0.10000000000E+01 0.  0.
    9000005    1    3    3    0    0  0.22520478649E+02  0.58036720761E+02 -0.72709895492E+02  0.95724405549E+02  0.10000000000E+01 0.  0.
<mgrwt>
<rscale>  0 0.12499788E+03</rscale>
<asrwt>0</asrwt>
<pdfrwt beam="2">  1        4 0.28387666E-01 0.12499788E+03</pdfrwt>
<pdfrwt beam="1">  1       -4 0.32567835E-02 0.12499788E+03</pdfrwt>
<totfact> 0.89189041E+03</totfact>
</mgrwt>
</event>
<event>
 5    1  0.3487578E-002  0.1250030E+03  0.7818608E-02  0.1235065E+00
         -4   -1    0    0    0  501 -0.00000000000E+00  0.00000000000E+00  0.45206766612E+02  0.45224602237E+02  0.12700000000E+01 0. -1.
          4   -1    0    0  501    0  0.00000000000E+00 -0.00000000000E+00 -0.86373061106E+02  0.86382397425E+02  0.12700000000E+01 0. -1.
         25    2    1    2    0    0  0.00000000000E+00  0.00000000000E+00 -0.41166294494E+02  0.13160699966E+03  0.12500295420E+03 0.  0.
    9000005    1    3    3    0    0 -0.58570080620E+02 -0.19196150776E+02 -0.31447634439E+02  0.69201880468E+02  0.10000000000E+01 0.  0.
    9000005    1    3    3    0    0  0.58570080620E+02  0.19196150776E+02 -0.97186600551E+01  0.62405119195E+02  0.10000000000E+01 0.  0.
<mgrwt>
<rscale>  0 0.12500295E+03</rscale>
<asrwt>0</asrwt>
<pdfrwt beam="2">  1        4 0.13290253E-01 0.12500295E+03</pdfrwt>
<pdfrwt beam="1">  1       -4 0.69569773E-02 0.12500295E+03</pdfrwt>
<totfact> 0.10309407E+04</totfact>
</mgrwt>
</event>
<event>
 5    1  0.3487578E-002  0.1249983E+03  0.7818608E-02  0.1235072E+00
          4   -1    0    0  501    0  0.00000000000E+00  0.00000000000E+00  0.70572244753E+02  0.70583671125E+02  0.12700000000E+01 0.  1.
         -4   -1    0    0    0  501 -0.00000000000E+00 -0.00000000000E+00 -0.55326354001E+02  0.55340928317E+02  0.12700000000E+01 0.  1.
         25    2    1    2    0    0  0.00000000000E+00  0.00000000000E+00  0.15245890752E+02  0.12592459944E+03  0.12499827023E+03 0.  0.
    9000005    1    3    3    0    0  0.17646897339E+02 -0.42278646017E+02 -0.35191951600E+02  0.57778632314E+02  0.10000000000E+01 0.  0.
    9000005    1    3    3    0    0 -0.17646897339E+02  0.42278646017E+02  0.50437842352E+02  0.68145967128E+02  0.10000000000E+01 0.  0.
<mgrwt>
<rscale>  0 0.12499827E+03</rscale>
<asrwt>0</asrwt>
<pdfrwt beam="1">  1        4 0.10859268E-01 0.12499827E+03</pdfrwt>
<pdfrwt beam="2">  1       -4 0.85137469E-02 0.12499827E+03</pdfrwt>
<totfact> 0.10433017E+04</totfact>
</mgrwt>
</event>
<event>
 5    1  0.3487578E-002  0.1249985E+03  0.7818608E-02  0.1235072E+00
          4   -1    0    0  501    0  0.00000000000E+00  0.00000000000E+00  0.18085029844E+02  0.18129567133E+02  0.12700000000E+01 0. -1.
         -4   -1    0    0    0  501 -0.00000000000E+00 -0.00000000000E+00 -0.21567638464E+03  0.21568012378E+03  0.12700000000E+01 0. -1.
         25    2    1    2    0    0  0.00000000000E+00  0.00000000000E+00 -0.19759135480E+03  0.23380969091E+03  0.12499851228E+03 0.  0.
    9000005    1    3    3    0    0 -0.81562416630E+01 -0.57168635359E+02 -0.54123228669E+02  0.79152391173E+02  0.10000000000E+01 0.  0.
    9000005    1    3    3    0    0  0.81562416630E+01  0.57168635359E+02 -0.14346812613E+03  0.15465729974E+03  0.10000000000E+01 0.  0.
<mgrwt>
<rscale>  0 0.12499851E+03</rscale>
<asrwt>0</asrwt>
<pdfrwt beam="1">  1        4 0.27860260E-02 0.12499851E+03</pdfrwt>
<pdfrwt beam="2">  1       -4 0.33184694E-01 0.12499851E+03</pdfrwt>
<totfact> 0.84730840E+03</totfact>
</mgrwt>
</event>
<event>
 5    1  0.3487578E-002  0.1250015E+03  0.7818608E-02  0.1235067E+00
          4   -1    0    0  501    0  0.00000000000E+00  0.00000000000E+00  0.91397390980E+01  0.92275528056E+01  0.12700000000E+01 0.  1.
         -4   -1    0    0    0  501 -0.00000000000E+00 -0.00000000000E+00 -0.42526960469E+03  0.42527150102E+03  0.12700000000E+01 0.  1.
         25    2    1    2    0    0  0.00000000000E+00  0.00000000000E+00 -0.41612986560E+03  0.43449905382E+03  0.12500145092E+03 0.  0.
    9000005    1    3    3    0    0 -0.55295960170E+01 -0.55504909530E+02 -0.11012143096E+03  0.12344675358E+03  0.10000000000E+01 0.  0.
    9000005    1    3    3    0    0  0.55295960170E+01  0.55504909530E+02 -0.30600843464E+03  0.31105230024E+03  0.10000000000E+01 0.  0.
<mgrwt>
<rscale>  0 0.12500145E+03</rscale>
<asrwt>0</asrwt>
<pdfrwt beam="1">  1        4 0.14130148E-02 0.12500145E+03</pdfrwt>
<pdfrwt beam="2">  1       -4 0.65432979E-01 0.12500145E+03</pdfrwt>
<totfact> 0.61328332E+03</totfact>
</mgrwt>
</event>
<event>
 5    1  0.3487578E-002  0.1250016E+03  0.7818608E-02  0.1235067E+00
         -4   -1    0    0    0  501 -0.00000000000E+00  0.00000000000E+00  0.68088564532E+02  0.68100407635E+02  0.12700000000E+01 0.  1.
          4   -1    0    0  501    0  0.00000000000E+00 -0.00000000000E+00 -0.57347720358E+02  0.57361781094E+02  0.12700000000E+01 0.  1.
         25    2    1    2    0    0  0.00000000000E+00  0.00000000000E+00  0.10740844174E+02  0.12546218873E+03  0.12500158026E+03 0.  0.
    9000005    1    3    3    0    0 -0.21385212421E+02 -0.25645807576E+02 -0.47647645713E+02  0.58192206510E+02  0.10000000000E+01 0.  0.
    9000005    1    3    3    0    0  0.21385212421E+02  0.25645807576E+02  0.58388489887E+02  0.67269982219E+02  0.10000000000E+01 0.  0.
<mgrwt>
<rscale>  0 0.12500158E+03</rscale>
<asrwt>0</asrwt>
<pdfrwt beam="2">  1        4 0.88247188E-02 0.12500158E+03</pdfrwt>
<pdfrwt beam="1">  1       -4 0.10477156E-01 0.12500158E+03</pdfrwt>
<totfact> 0.10442418E+04</totfact>
</mgrwt>
</event>
<event>
 4    1  0.3487578E-002  0.1248560E+03  0.7818608E-02  0.1235294E+00
          4   -1    0    0  501    0  0.00000000000E+00  0.00000000000E+00  0.41774730040E+02  0.41794030314E+02  0.12700000000E+01 0.  1.
         -4   -1    0    0    0  501 -0.00000000000E+00 -0.00000000000E+00 -0.93247040492E+02  0.93255688622E+02  0.12700000000E+01 0.  1.
    9000005    1    1    2    0    0 -0.31968092581E+02 -0.46773843677E+02  0.26042593710E+01  0.56723307048E+02  0.10000000000E+01 0.  0.
    9000005    1    1    2    0    0  0.31968092581E+02  0.46773843677E+02 -0.54076569823E+02  0.78326411889E+02  0.10000000000E+01 0.  0.
<mgrwt>
<rscale>  0 0.12485603E+03</rscale>
<asrwt>0</asrwt>
<pdfrwt beam="1">  1        4 0.64290314E-02 0.12485603E+03</pdfrwt>
<pdfrwt beam="2">  1       -4 0.14347848E-01 0.12485603E+03</pdfrwt>
<totfact> 0.10270333E+04</totfact>
</mgrwt>
</event>
<event>
 5    1  0.3487578E-002  0.1249981E+03  0.7818608E-02  0.1235072E+00
         -4   -1    0    0    0  501 -0.00000000000E+00  0.00000000000E+00  0.45311278899E+02  0.45329073402E+02  0.12700000000E+01 0.  1.
          4   -1    0    0  501    0  0.00000000000E+00 -0.00000000000E+00 -0.86167154125E+02  0.86176512752E+02  0.12700000000E+01 0.  1.
         25    2    1    2    0    0  0.00000000000E+00  0.00000000000E+00 -0.40855875226E+02  0.13150558615E+03  0.12499806658E+03 0.  0.
    9000005    1    3    3    0    0 -0.21053975634E+01  0.20694580534E+02  0.41567211033E+02  0.46492272427E+02  0.10000000000E+01 0.  0.
    9000005    1    3    3    0    0  0.21053975634E+01 -0.20694580534E+02 -0.82423086259E+02  0.85013313727E+02  0.10000000000E+01 0.  0.
<mgrwt>
<rscale>  0 0.12499807E+03</rscale>
<asrwt>0</asrwt>
<pdfrwt beam="2">  1        4 0.13258574E-01 0.12499807E+03</pdfrwt>
<pdfrwt beam="1">  1       -4 0.69730547E-02 0.12499807E+03</pdfrwt>
<totfact> 0.10312712E+04</totfact>
</mgrwt>
</event>
<event>
 5    1  0.3487578E-002  0.1250003E+03  0.7818608E-02  0.1235069E+00
         -4   -1    0    0    0  501 -0.00000000000E+00  0.00000000000E+00  0.12306429915E+02  0.12371787149E+02  0.12700000000E+01 0. -1.
          4   -1    0    0  501    0  0.00000000000E+00 -0.00000000000E+00 -0.31650985171E+03  0.31651239964E+03  0.12700000000E+01 0. -1.
         25    2    1    2    0    0  0.00000000000E+00  0.00000000000E+00 -0.30420342179E+03  0.32888418679E+03  0.12500034597E+03 0.  0.
    9000005    1    3    3    0    0  0.36128902699E+01 -0.35561464650E+02 -0.28697050572E+03  0.28918980255E+03  0.10000000000E+01 0.  0.
    9000005    1    3    3    0    0 -0.36128902699E+01  0.35561464650E+02 -0.17232916072E+02  0.39694384244E+02  0.10000000000E+01 0.  0.
<mgrwt>
<rscale>  0 0.12500035E+03</rscale>
<asrwt>0</asrwt>
<pdfrwt beam="2">  1        4 0.48699041E-01 0.12500035E+03</pdfrwt>
<pdfrwt beam="1">  1       -4 0.18985206E-02 0.12500035E+03</pdfrwt>
<totfact> 0.72111231E+03</totfact>
</mgrwt>
</event>
<event>
 5    1  0.3487578E-002  0.1250017E+03  0.7818608E-02  0.1235067E+00
          4   -1    0    0  501    0  0.00000000000E+00  0.00000000000E+00  0.53744973381E+02  0.53759976411E+02  0.12700000000E+01 0. -1.
         -4   -1    0    0    0  501 -0.00000000000E+00 -0.00000000000E+00 -0.72652514114E+02  0.72663613363E+02  0.12700000000E+01 0. -1.
         25    2    1    2    0    0  0.00000000000E+00  0.00000000000E+00 -0.18907540732E+02  0.12642358977E+03  0.12500171581E+03 0.  0.
    9000005    1    3    3    0    0  0.57707476922E+02 -0.23933487215E+02 -0.11018147134E+02  0.63445758482E+02  0.10000000000E+01 0.  0.
    9000005    1    3    3    0    0 -0.57707476922E+02  0.23933487215E+02 -0.78893935983E+01  0.62977831293E+02  0.10000000000E+01 0.  0.
<mgrwt>
<rscale>  0 0.12500172E+03</rscale>
<asrwt>0</asrwt>
<pdfrwt beam="1">  1        4 0.82704654E-02 0.12500172E+03</pdfrwt>
<pdfrwt beam="2">  1       -4 0.11179318E-01 0.12500172E+03</pdfrwt>
<totfact> 0.10421291E+04</totfact>
</mgrwt>
</event>
<event>
 5    1  0.3487578E-002  0.1249995E+03  0.7818608E-02  0.1235070E+00
         -4   -1    0    0    0  501 -0.00000000000E+00  0.00000000000E+00  0.87300329870E+03  0.87300422246E+03  0.12700000000E+01 0. -1.
          4   -1    0    0  501    0  0.00000000000E+00 -0.00000000000E+00 -0.43833998843E+01  0.45636711697E+01  0.12700000000E+01 0. -1.
         25    2    1    2    0    0  0.00000000000E+00  0.00000000000E+00  0.86861989881E+03  0.87756789363E+03  0.12499951728E+03 0.  0.
    9000005    1    3    3    0    0 -0.35246024674E+02  0.16028066484E+02  0.77867866487E+03  0.77964135620E+03  0.10000000000E+01 0.  0.
    9000005    1    3    3    0    0  0.35246024674E+02 -0.16028066484E+02  0.89941233940E+02  0.97926537431E+02  0.10000000000E+01 0.  0.
<mgrwt>
<rscale>  0 0.12499952E+03</rscale>
<asrwt>0</asrwt>
<pdfrwt beam="2">  1        4 0.68830647E-03 0.12499952E+03</pdfrwt>
<pdfrwt beam="1">  1       -4 0.13432230E+00 0.12499952E+03</pdfrwt>
<totfact> 0.35025331E+03</totfact>
</mgrwt>
</event>
<event>
 5    1  0.3487578E-002  0.1250001E+03  0.7818608E-02  0.1235069E+00
         -4   -1    0    0    0  501 -0.00000000000E+00  0.00000000000E+00  0.27033020981E+01  0.29867611611E+01  0.12700000000E+01 0. -1.
          4   -1    0    0  501    0  0.00000000000E+00 -0.00000000000E+00 -0.13727270769E+04  0.13727276644E+04  0.12700000000E+01 0. -1.
         25    2    1    2    0    0  0.00000000000E+00  0.00000000000E+00 -0.13700237748E+04  0.13757144256E+04  0.12500014848E+03 0.  0.
    9000005    1    3    3    0    0 -0.57702823599E+02 -0.41824413325E+01 -0.42499984335E+03  0.42892071005E+03  0.10000000000E+01 0.  0.
    9000005    1    3    3    0    0  0.57702823599E+02  0.41824413325E+01 -0.94502393147E+03  0.94679371550E+03  0.10000000000E+01 0.  0.
<mgrwt>
<rscale>  0 0.12500015E+03</rscale>
<asrwt>0</asrwt>
<pdfrwt beam="2">  1        4 0.21121010E+00 0.12500015E+03</pdfrwt>
<pdfrwt beam="1">  1       -4 0.43774346E-03 0.12500015E+03</pdfrwt>
<totfact> 0.20508147E+03</totfact>
</mgrwt>
</event>
<event>
 5    1  0.3487578E-002  0.1250002E+03  0.7818608E-02  0.1235069E+00
         -4   -1    0    0    0  501 -0.00000000000E+00  0.00000000000E+00  0.90419200582E+01  0.91306745829E+01  0.12700000000E+01 0.  1.
          4   -1    0    0  501    0  0.00000000000E+00 -0.00000000000E+00 -0.42981704433E+03  0.42981892059E+03  0.12700000000E+01 0.  1.
         25    2    1    2    0    0  0.00000000000E+00  0.00000000000E+00 -0.42077512428E+03  0.43894959518E+03  0.12500016758E+03 0.  0.
    9000005    1    3    3    0    0 -0.38630708849E+02  0.30466694742E+02 -0.34569596720E+03  0.34918083122E+03  0.10000000000E+01 0.  0.
    9000005    1    3    3    0    0  0.38630708849E+02 -0.30466694742E+02 -0.75079157076E+02  0.89768763954E+02  0.10000000000E+01 0.  0.
<mgrwt>
<rscale>  0 0.12500017E+03</rscale>
<asrwt>0</asrwt>
<pdfrwt beam="2">  1        4 0.66132655E-01 0.12500017E+03</pdfrwt>
<pdfrwt beam="1">  1       -4 0.13980366E-02 0.12500017E+03</pdfrwt>
<totfact> 0.60932841E+03</totfact>
</mgrwt>
</event>
<event>
 5    1  0.3487578E-002  0.1249999E+03  0.7818608E-02  0.1235069E+00
         -4   -1    0    0    0  501 -0.00000000000E+00  0.00000000000E+00  0.20720727017E+03  0.20721116213E+03  0.12700000000E+01 0. -1.
          4   -1    0    0  501    0  0.00000000000E+00 -0.00000000000E+00 -0.18826418285E+02  0.18869205745E+02  0.12700000000E+01 0. -1.
         25    2    1    2    0    0  0.00000000000E+00  0.00000000000E+00  0.18838085188E+03  0.22608036787E+03  0.12499994953E+03 0.  0.
    9000005    1    3    3    0    0  0.25241402108E+02 -0.47439501469E+02  0.36494631377E+02  0.64965319974E+02  0.10000000000E+01 0.  0.
    9000005    1    3    3    0    0 -0.25241402108E+02  0.47439501469E+02  0.15188622051E+03  0.16111504790E+03  0.10000000000E+01 0.  0.
<mgrwt>
<rscale>  0 0.12499995E+03</rscale>
<asrwt>0</asrwt>
<pdfrwt beam="2">  1        4 0.28999629E-02 0.12499995E+03</pdfrwt>
<pdfrwt beam="1">  1       -4 0.31881631E-01 0.12499995E+03</pdfrwt>
<totfact> 0.85915214E+03</totfact>
</mgrwt>
</event>
<event>
 5    1  0.3487578E-002  0.1250033E+03  0.7818608E-02  0.1235064E+00
          4   -1    0    0  501    0  0.00000000000E+00  0.00000000000E+00  0.24887017751E+03  0.24887341793E+03  0.12700000000E+01 0. -1.
         -4   -1    0    0    0  501 -0.00000000000E+00 -0.00000000000E+00 -0.15667732224E+02  0.15719119983E+02  0.12700000000E+01 0. -1.
         25    2    1    2    0    0  0.00000000000E+00  0.00000000000E+00  0.23320244528E+03  0.26459253791E+03  0.12500332249E+03 0.  0.
    9000005    1    3    3    0    0 -0.51619696093E+02  0.17492326866E+02  0.51881790486E+02  0.75254865012E+02  0.10000000000E+01 0.  0.
    9000005    1    3    3    0    0  0.51619696093E+02 -0.17492326866E+02  0.18132065480E+03  0.18933767290E+03  0.10000000000E+01 0.  0.
<mgrwt>
<rscale>  0 0.12500332E+03</rscale>
<asrwt>0</asrwt>
<pdfrwt beam="1">  1        4 0.38291918E-01 0.12500332E+03</pdfrwt>
<pdfrwt beam="2">  1       -4 0.24146227E-02 0.12500332E+03</pdfrwt>
<totfact> 0.80259920E+03</totfact>
</mgrwt>
</event>
<event>
 5    1  0.3487578E-002  0.1250045E+03  0.7818608E-02  0.1235062E+00
          4   -1    0    0  501    0  0.00000000000E+00  0.00000000000E+00  0.27224748174E+02  0.27254354022E+02  0.12700000000E+01 0. -1.
         -4   -1    0    0    0  501 -0.00000000000E+00 -0.00000000000E+00 -0.14338153597E+03  0.14338716037E+03  0.12700000000E+01 0. -1.
         25    2    1    2    0    0  0.00000000000E+00  0.00000000000E+00 -0.11615678780E+03  0.17064151439E+03  0.12500450824E+03 0.  0.
    9000005    1    3    3    0    0 -0.20331321292E+02 -0.20297460690E+02  0.17682872667E+02  0.33749570690E+02  0.10000000000E+01 0.  0.
    9000005    1    3    3    0    0  0.20331321292E+02  0.20297460690E+02 -0.13383966047E+03  0.13689194370E+03  0.10000000000E+01 0.  0.
<mgrwt>
<rscale>  0 0.12500451E+03</rscale>
<asrwt>0</asrwt>
<pdfrwt beam="1">  1        4 0.41911329E-02 0.12500451E+03</pdfrwt>
<pdfrwt beam="2">  1       -4 0.22061407E-01 0.12500451E+03</pdfrwt>
<totfact> 0.95319557E+03</totfact>
</mgrwt>
</event>
<event>
 5    1  0.3487578E-002  0.1249971E+03  0.7818608E-02  0.1235074E+00
          4   -1    0    0  501    0  0.00000000000E+00  0.00000000000E+00  0.69319147853E+01  0.70472932812E+01  0.12700000000E+01 0. -1.
         -4   -1    0    0    0  501 -0.00000000000E+00 -0.00000000000E+00 -0.55872364168E+03  0.55872508506E+03  0.12700000000E+01 0. -1.
         25    2    1    2    0    0  0.00000000000E+00  0.00000000000E+00 -0.55179172690E+03  0.56577237834E+03  0.12499709685E+03 0.  0.
    9000005    1    3    3    0    0 -0.35507718706E+02  0.15233114103E+02 -0.49820152070E+03  0.49969851018E+03  0.10000000000E+01 0.  0.
    9000005    1    3    3    0    0  0.35507718706E+02 -0.15233114103E+02 -0.53590206201E+02  0.66073868160E+02  0.10000000000E+01 0.  0.
<mgrwt>
<rscale>  0 0.12499710E+03</rscale>
<asrwt>0</asrwt>
<pdfrwt beam="1">  1        4 0.10754352E-02 0.12499710E+03</pdfrwt>
<pdfrwt beam="2">  1       -4 0.85966435E-01 0.12499710E+03</pdfrwt>
<totfact> 0.51105248E+03</totfact>
</mgrwt>
</event>
<event>
 5    1  0.3487578E-002  0.1249989E+03  0.7818608E-02  0.1235071E+00
          4   -1    0    0  501    0  0.00000000000E+00  0.00000000000E+00  0.82418016644E+02  0.82427800938E+02  0.12700000000E+01 0. -1.
         -4   -1    0    0    0  501 -0.00000000000E+00 -0.00000000000E+00 -0.47373616101E+02  0.47390636232E+02  0.12700000000E+01 0. -1.
         25    2    1    2    0    0  0.00000000000E+00  0.00000000000E+00  0.35044400543E+02  0.12981843717E+03  0.12499886647E+03 0.  0.
    9000005    1    3    3    0    0  0.42976458592E+02 -0.43416659589E+02  0.31190052471E+02  0.68598846172E+02  0.10000000000E+01 0.  0.
    9000005    1    3    3    0    0 -0.42976458592E+02  0.43416659589E+02  0.38543480725E+01  0.61219590999E+02  0.10000000000E+01 0.  0.
<mgrwt>
<rscale>  0 0.12499887E+03</rscale>
<asrwt>0</asrwt>
<pdfrwt beam="1">  1        4 0.12681757E-01 0.12499887E+03</pdfrwt>
<pdfrwt beam="2">  1       -4 0.72903106E-02 0.12499887E+03</pdfrwt>
<totfact> 0.10348658E+04</totfact>
</mgrwt>
</event>
<event>
 5    1  0.3487578E-002  0.1249981E+03  0.7818608E-02  0.1235072E+00
          4   -1    0    0  501    0  0.00000000000E+00  0.00000000000E+00  0.14529475185E+03  0.14530030219E+03  0.12700000000E+01 0. -1.
         -4   -1    0    0    0  501 -0.00000000000E+00 -0.00000000000E+00 -0.26863120635E+02  0.26893124591E+02  0.12700000000E+01 0. -1.
         25    2    1    2    0    0  0.00000000000E+00  0.00000000000E+00  0.11843163122E+03  0.17219342678E+03  0.12499809980E+03 0.  0.
    9000005    1    3    3    0    0  0.59643454341E+02 -0.79722466220E+01  0.82440526314E+02  0.10207026374E+03  0.10000000000E+01 0.  0.
    9000005    1    3    3    0    0 -0.59643454341E+02  0.79722466220E+01  0.35991104906E+02  0.70123163037E+02  0.10000000000E+01 0.  0.
<mgrwt>
<rscale>  0 0.12499810E+03</rscale>
<asrwt>0</asrwt>
<pdfrwt beam="1">  1        4 0.22355773E-01 0.12499810E+03</pdfrwt>
<pdfrwt beam="2">  1       -4 0.41355228E-02 0.12499810E+03</pdfrwt>
<totfact> 0.95045439E+03</totfact>
</mgrwt>
</event>
<event>
 5    1  0.3487578E-002  0.1249935E+03  0.7818608E-02  0.1235079E+00
         -4   -1    0    0    0  501 -0.00000000000E+00  0.00000000000E+00  0.12119768782E+02  0.12186127167E+02  0.12700000000E+01 0. -1.
          4   -1    0    0  501    0  0.00000000000E+00 -0.00000000000E+00 -0.32132292948E+03  0.32132543925E+03  0.12700000000E+01 0. -1.
         25    2    1    2    0    0  0.00000000000E+00  0.00000000000E+00 -0.30920316070E+03  0.33351156642E+03  0.12499348123E+03 0.  0.
    9000005    1    3    3    0    0 -0.22411110284E+02 -0.53580283241E+02 -0.93073640573E+02  0.10971238392E+03  0.10000000000E+01 0.  0.
    9000005    1    3    3    0    0  0.22411110284E+02  0.53580283241E+02 -0.21612952012E+03  0.22379918250E+03  0.10000000000E+01 0.  0.
<mgrwt>
<rscale>  0 0.12499348E+03</rscale>
<asrwt>0</asrwt>
<pdfrwt beam="2">  1        4 0.49439588E-01 0.12499348E+03</pdfrwt>
<pdfrwt beam="1">  1       -4 0.18698776E-02 0.12499348E+03</pdfrwt>
<totfact> 0.71587745E+03</totfact>
</mgrwt>
</event>
<event>
 5    1  0.3487578E-002  0.1250035E+03  0.7818608E-02  0.1235064E+00
         -4   -1    0    0    0  501 -0.00000000000E+00  0.00000000000E+00  0.18300422728E+02  0.18344437087E+02  0.12700000000E+01 0. -1.
          4   -1    0    0  501    0  0.00000000000E+00 -0.00000000000E+00 -0.21316097620E+03  0.21316475945E+03  0.12700000000E+01 0. -1.
         25    2    1    2    0    0  0.00000000000E+00  0.00000000000E+00 -0.19486055347E+03  0.23150919654E+03  0.12500349109E+03 0.  0.
    9000005    1    3    3    0    0 -0.21151419888E+02 -0.40022265309E+02 -0.17636201547E+02  0.48592179296E+02  0.10000000000E+01 0.  0.
    9000005    1    3    3    0    0  0.21151419888E+02  0.40022265309E+02 -0.17722435192E+03  0.18291701724E+03  0.10000000000E+01 0.  0.
<mgrwt>
<rscale>  0 0.12500349E+03</rscale>
<asrwt>0</asrwt>
<pdfrwt beam="2">  1        4 0.32797671E-01 0.12500349E+03</pdfrwt>
<pdfrwt beam="1">  1       -4 0.28191265E-02 0.12500349E+03</pdfrwt>
<totfact> 0.85071771E+03</totfact>
</mgrwt>
</event>
<event>
 5    1  0.3487578E-002  0.1249995E+03  0.7818608E-02  0.1235070E+00
         -4   -1    0    0    0  501 -0.00000000000E+00  0.00000000000E+00  0.55054714328E+02  0.55069360535E+02  0.12700000000E+01 0. -1.
          4   -1    0    0  501    0  0.00000000000E+00 -0.00000000000E+00 -0.70921765305E+02  0.70933135374E+02  0.12700000000E+01 0. -1.
         25    2    1    2    0    0  0.00000000000E+00  0.00000000000E+00 -0.15867050977E+02  0.12600249591E+03  0.12499946267E+03 0.  0.
    9000005    1    3    3    0    0 -0.56533380768E+02 -0.96694870926E+01 -0.32945821896E+02  0.66150958437E+02  0.10000000000E+01 0.  0.
    9000005    1    3    3    0    0  0.56533380768E+02  0.96694870926E+01  0.17078770919E+02  0.59851537473E+02  0.10000000000E+01 0.  0.
<mgrwt>
<rscale>  0 0.12499946E+03</rscale>
<asrwt>0</asrwt>
<pdfrwt beam="2">  1        4 0.10913042E-01 0.12499946E+03</pdfrwt>
<pdfrwt beam="1">  1       -4 0.84719573E-02 0.12499946E+03</pdfrwt>
<totfact> 0.10431029E+04</totfact>
</mgrwt>
</event>
<event>
 5    1  0.3487578E-002  0.1250070E+03  0.7818608E-02  0.1235058E+00
         -4   -1    0    0    0  501 -0.00000000000E+00  0.00000000000E+00  0.12815710064E+03  0.12816339315E+03  0.12700000000E+01 0.  1.
          4   -1    0    0  501    0  0.00000000000E+00 -0.00000000000E+00 -0.30463317175E+02  0.30489778505E+02  0.12700000000E+01 0.  1.
         25    2    1    2    0    0  0.00000000000E+00  0.00000000000E+00  0.97693783464E+02  0.15865317166E+03  0.12500701400E+03 0.  0.
    9000005    1    3    3    0    0 -0.29977061282E+02 -0.32960933570E+02 -0.67739401054E+01  0.45076974271E+02  0.10000000000E+01 0.  0.
    9000005    1    3    3    0    0  0.29977061282E+02  0.32960933570E+02  0.10446772357E+03  0.11357619739E+03  0.10000000000E+01 0.  0.
<mgrwt>
<rscale>  0 0.12500701E+03</rscale>
<asrwt>0</asrwt>
<pdfrwt beam="2">  1        4 0.46891837E-02 0.12500701E+03</pdfrwt>
<pdfrwt beam="1">  1       -4 0.19718997E-01 0.12500701E+03</pdfrwt>
<totfact> 0.97587684E+03</totfact>
</mgrwt>
</event>
<event>
 5    1  0.3487578E-002  0.1249722E+03  0.7818608E-02  0.1235113E+00
         -4   -1    0    0    0  501 -0.00000000000E+00  0.00000000000E+00  0.19732089453E+03  0.19732498148E+03  0.12700000000E+01 0. -1.
          4   -1    0    0  501    0  0.00000000000E+00 -0.00000000000E+00 -0.19762967562E+02  0.19803731640E+02  0.12700000000E+01 0. -1.
         25    2    1    2    0    0  0.00000000000E+00  0.00000000000E+00  0.17755792697E+03  0.21712871312E+03  0.12497223945E+03 0.  0.
    9000005    1    3    3    0    0  0.61904333556E+02  0.49332107229E+01  0.76863778557E+02  0.98820663503E+02  0.10000000000E+01 0.  0.
    9000005    1    3    3    0    0 -0.61904333556E+02 -0.49332107229E+01  0.10069414841E+03  0.11830804962E+03  0.10000000000E+01 0.  0.
<mgrwt>
<rscale>  0 0.12497224E+03</rscale>
<asrwt>0</asrwt>
<pdfrwt beam="2">  1        4 0.30439069E-02 0.12497224E+03</pdfrwt>
<pdfrwt beam="1">  1       -4 0.30360508E-01 0.12497224E+03</pdfrwt>
<totfact> 0.87378928E+03</totfact>
</mgrwt>
</event>
<event>
 5    1  0.3487578E-002  0.1250020E+03  0.7818608E-02  0.1235066E+00
          4   -1    0    0  501    0  0.00000000000E+00  0.00000000000E+00  0.31165697396E+03  0.31165956157E+03  0.12700000000E+01 0.  1.
         -4   -1    0    0    0  501 -0.00000000000E+00 -0.00000000000E+00 -0.12499397314E+02  0.12563750762E+02  0.12700000000E+01 0.  1.
         25    2    1    2    0    0  0.00000000000E+00  0.00000000000E+00  0.29915757664E+03  0.32422331233E+03  0.12500200236E+03 0.  0.
    9000005    1    3    3    0    0  0.84413451777E+01  0.60682392000E+02  0.18153201458E+03  0.19159457540E+03  0.10000000000E+01 0.  0.
    9000005    1    3    3    0    0 -0.84413451777E+01 -0.60682392000E+02  0.11762556206E+03  0.13262873692E+03  0.10000000000E+01 0.  0.
<mgrwt>
<rscale>  0 0.12500200E+03</rscale>
<asrwt>0</asrwt>
<pdfrwt beam="1">  1        4 0.47952377E-01 0.12500200E+03</pdfrwt>
<pdfrwt beam="2">  1       -4 0.19281335E-02 0.12500200E+03</pdfrwt>
<totfact> 0.72653391E+03</totfact>
</mgrwt>
</event>
<event>
 5    1  0.3487578E-002  0.1249997E+03  0.7818608E-02  0.1235070E+00
          4   -1    0    0  501    0  0.00000000000E+00  0.00000000000E+00  0.67586866439E+02  0.67598797438E+02  0.12700000000E+01 0.  1.
         -4   -1    0    0    0  501 -0.00000000000E+00 -0.00000000000E+00 -0.57771749456E+02  0.57785707015E+02  0.12700000000E+01 0.  1.
         25    2    1    2    0    0  0.00000000000E+00  0.00000000000E+00  0.98151169836E+01  0.12538450445E+03  0.12499974974E+03 0.  0.
    9000005    1    3    3    0    0  0.31597531254E+02  0.52769241173E+02  0.15997699468E+02  0.63560390052E+02  0.10000000000E+01 0.  0.
    9000005    1    3    3    0    0 -0.31597531254E+02 -0.52769241173E+02 -0.61825824847E+01  0.61824114401E+02  0.10000000000E+01 0.  0.
<mgrwt>
<rscale>  0 0.12499975E+03</rscale>
<asrwt>0</asrwt>
<pdfrwt beam="1">  1        4 0.10399971E-01 0.12499975E+03</pdfrwt>
<pdfrwt beam="2">  1       -4 0.88899529E-02 0.12499975E+03</pdfrwt>
<totfact> 0.10444569E+04</totfact>
</mgrwt>
</event>
<event>
 5    1  0.3487578E-002  0.1249962E+03  0.7818608E-02  0.1235075E+00
         -4   -1    0    0    0  501 -0.00000000000E+00  0.00000000000E+00  0.21458053769E+04  0.21458057528E+04  0.12700000000E+01 0. -1.
          4   -1    0    0  501    0  0.00000000000E+00 -0.00000000000E+00 -0.15983657261E+01  0.20414879364E+01  0.12700000000E+01 0. -1.
         25    2    1    2    0    0  0.00000000000E+00  0.00000000000E+00  0.21442070112E+04  0.21478472407E+04  0.12499624976E+03 0.  0.
    9000005    1    3    3    0    0  0.55649965011E+01  0.58504182469E+02  0.14371451998E+04  0.14383466320E+04  0.10000000000E+01 0.  0.
    9000005    1    3    3    0    0 -0.55649965011E+01 -0.58504182469E+02  0.70706181142E+03  0.70950060868E+03  0.10000000000E+01 0.  0.
<mgrwt>
<rscale>  0 0.12499625E+03</rscale>
<asrwt>0</asrwt>
<pdfrwt beam="2">  1        4 0.28001636E-03 0.12499625E+03</pdfrwt>
<pdfrwt beam="1">  1       -4 0.33015955E+00 0.12499625E+03</pdfrwt>
<totfact> 0.80533609E+02</totfact>
</mgrwt>
</event>
<event>
 5    1  0.3487578E-002  0.1249989E+03  0.7818608E-02  0.1235071E+00
          4   -1    0    0  501    0  0.00000000000E+00  0.00000000000E+00  0.33614246837E+02  0.33638229597E+02  0.12700000000E+01 0.  1.
         -4   -1    0    0    0  501 -0.00000000000E+00 -0.00000000000E+00 -0.11613730724E+03  0.11614425097E+03  0.12700000000E+01 0.  1.
         25    2    1    2    0    0  0.00000000000E+00  0.00000000000E+00 -0.82523060407E+02  0.14978248057E+03  0.12499894394E+03 0.  0.
    9000005    1    3    3    0    0 -0.34877096754E+02  0.20383703596E+02 -0.98393714649E+02  0.10636837092E+03  0.10000000000E+01 0.  0.
    9000005    1    3    3    0    0  0.34877096754E+02 -0.20383703596E+02  0.15870654242E+02  0.43414109646E+02  0.10000000000E+01 0.  0.
<mgrwt>
<rscale>  0 0.12499894E+03</rscale>
<asrwt>0</asrwt>
<pdfrwt beam="1">  1        4 0.51738016E-02 0.12499894E+03</pdfrwt>
<pdfrwt beam="2">  1       -4 0.17869657E-01 0.12499894E+03</pdfrwt>
<totfact> 0.99349436E+03</totfact>
</mgrwt>
</event>
<event>
 5    1  0.3487578E-002  0.1249983E+03  0.7818608E-02  0.1235072E+00
         -4   -1    0    0    0  501 -0.00000000000E+00  0.00000000000E+00  0.83491440623E+02  0.83501099139E+02  0.12700000000E+01 0.  1.
          4   -1    0    0  501    0  0.00000000000E+00 -0.00000000000E+00 -0.46764007827E+02  0.46781249748E+02  0.12700000000E+01 0.  1.
         25    2    1    2    0    0  0.00000000000E+00  0.00000000000E+00  0.36727432797E+02  0.13028234889E+03  0.12499834444E+03 0.  0.
    9000005    1    3    3    0    0  0.24408509901E+02 -0.61752149095E+01  0.77976222948E+02  0.81946323774E+02  0.10000000000E+01 0.  0.
    9000005    1    3    3    0    0 -0.24408509901E+02  0.61752149095E+01 -0.41248790151E+02  0.48336025113E+02  0.10000000000E+01 0.  0.
<mgrwt>
<rscale>  0 0.12499834E+03</rscale>
<asrwt>0</asrwt>
<pdfrwt beam="2">  1        4 0.71965320E-02 0.12499834E+03</pdfrwt>
<pdfrwt beam="1">  1       -4 0.12846906E-01 0.12499834E+03</pdfrwt>
<totfact> 0.10338858E+04</totfact>
</mgrwt>
</event>
<event>
 5    1  0.3487578E-002  0.1249969E+03  0.7818608E-02  0.1235074E+00
         -4   -1    0    0    0  501 -0.00000000000E+00  0.00000000000E+00  0.65101144969E+02  0.65113531437E+02  0.12700000000E+01 0. -1.
          4   -1    0    0  501    0  0.00000000000E+00 -0.00000000000E+00 -0.59975008796E+02  0.59988453723E+02  0.12700000000E+01 0. -1.
         25    2    1    2    0    0  0.00000000000E+00  0.00000000000E+00  0.51261361730E+01  0.12510198516E+03  0.12499691764E+03 0.  0.
    9000005    1    3    3    0    0  0.25205721172E+02  0.34023304624E+02 -0.43433627236E+02  0.60666247718E+02  0.10000000000E+01 0.  0.
    9000005    1    3    3    0    0 -0.25205721172E+02 -0.34023304624E+02  0.48559763409E+02  0.64435737442E+02  0.10000000000E+01 0.  0.
<mgrwt>
<rscale>  0 0.12499692E+03</rscale>
<asrwt>0</asrwt>
<pdfrwt beam="2">  1        4 0.92289114E-02 0.12499692E+03</pdfrwt>
<pdfrwt beam="1">  1       -4 0.10017548E-01 0.12499692E+03</pdfrwt>
<totfact> 0.10451376E+04</totfact>
</mgrwt>
</event>
<event>
 5    1  0.3487578E-002  0.1249998E+03  0.7818608E-02  0.1235070E+00
         -4   -1    0    0    0  501 -0.00000000000E+00  0.00000000000E+00  0.24607237078E+04  0.24607240355E+04  0.12700000000E+01 0.  1.
          4   -1    0    0  501    0  0.00000000000E+00 -0.00000000000E+00 -0.13330445190E+01  0.18411701957E+01  0.12700000000E+01 0.  1.
         25    2    1    2    0    0  0.00000000000E+00  0.00000000000E+00  0.24593906633E+04  0.24625652057E+04  0.12499983124E+03 0.  0.
    9000005    1    3    3    0    0 -0.55392537847E+02  0.24928352814E+01  0.17974991646E+04  0.17983544685E+04  0.10000000000E+01 0.  0.
    9000005    1    3    3    0    0  0.55392537847E+02 -0.24928352814E+01  0.66189149866E+03  0.66421073725E+03  0.10000000000E+01 0.  0.
<mgrwt>
<rscale>  0 0.12499983E+03</rscale>
<asrwt>0</asrwt>
<pdfrwt beam="2">  1        4 0.24419579E-03 0.12499983E+03</pdfrwt>
<pdfrwt beam="1">  1       -4 0.37861165E+00 0.12499983E+03</pdfrwt>
<totfact> 0.49702148E+02</totfact>
</mgrwt>
</event>
<event>
 5    1  0.3487578E-002  0.1249984E+03  0.7818608E-02  0.1235072E+00
         -4   -1    0    0    0  501 -0.00000000000E+00  0.00000000000E+00  0.11704025196E+02  0.11772727203E+02  0.12700000000E+01 0.  1.
          4   -1    0    0  501    0  0.00000000000E+00 -0.00000000000E+00 -0.33269754949E+03  0.33269997345E+03  0.12700000000E+01 0.  1.
         25    2    1    2    0    0  0.00000000000E+00  0.00000000000E+00 -0.32099352429E+03  0.34447270065E+03  0.12499839543E+03 0.  0.
    9000005    1    3    3    0    0  0.54076557711E+02  0.28255604767E+02 -0.19772543433E+03  0.20692752518E+03  0.10000000000E+01 0.  0.
    9000005    1    3    3    0    0 -0.54076557711E+02 -0.28255604767E+02 -0.12326808996E+03  0.13754517548E+03  0.10000000000E+01 0.  0.
<mgrwt>
<rscale>  0 0.12499840E+03</rscale>
<asrwt>0</asrwt>
<pdfrwt beam="2">  1        4 0.51189702E-01 0.12499840E+03</pdfrwt>
<pdfrwt beam="1">  1       -4 0.18060907E-02 0.12499840E+03</pdfrwt>
<totfact> 0.70339439E+03</totfact>
</mgrwt>
</event>
<event>
 5    1  0.3487578E-002  0.1249972E+03  0.7818608E-02  0.1235074E+00
         -4   -1    0    0    0  501 -0.00000000000E+00  0.00000000000E+00  0.19768359931E+03  0.19768767877E+03  0.12700000000E+01 0.  1.
          4   -1    0    0  501    0  0.00000000000E+00 -0.00000000000E+00 -0.19734538145E+02  0.19775360826E+02  0.12700000000E+01 0.  1.
         25    2    1    2    0    0  0.00000000000E+00  0.00000000000E+00  0.17794906117E+03  0.21746303959E+03  0.12499722085E+03 0.  0.
    9000005    1    3    3    0    0 -0.11169779502E+02  0.56138643532E+02  0.45350148562E+02  0.73033877388E+02  0.10000000000E+01 0.  0.
    9000005    1    3    3    0    0  0.11169779502E+02 -0.56138643532E+02  0.13259891261E+03  0.14442916221E+03  0.10000000000E+01 0.  0.
<mgrwt>
<rscale>  0 0.12499722E+03</rscale>
<asrwt>0</asrwt>
<pdfrwt beam="2">  1        4 0.30395368E-02 0.12499722E+03</pdfrwt>
<pdfrwt beam="1">  1       -4 0.30416316E-01 0.12499722E+03</pdfrwt>
<totfact> 0.87276807E+03</totfact>
</mgrwt>
</event>
<event>
 5    1  0.3487578E-002  0.1249975E+03  0.7818608E-02  0.1235073E+00
         -4   -1    0    0    0  501 -0.00000000000E+00  0.00000000000E+00  0.13924018920E+02  0.13981816867E+02  0.12700000000E+01 0. -1.
          4   -1    0    0  501    0  0.00000000000E+00 -0.00000000000E+00 -0.27988905558E+03  0.27989193689E+03  0.12700000000E+01 0. -1.
         25    2    1    2    0    0  0.00000000000E+00  0.00000000000E+00 -0.26596503666E+03  0.29387375375E+03  0.12499752965E+03 0.  0.
    9000005    1    3    3    0    0  0.48010275376E+02 -0.56328694177E+01 -0.22609008929E+03  0.23120217178E+03  0.10000000000E+01 0.  0.
    9000005    1    3    3    0    0 -0.48010275376E+02  0.56328694177E+01 -0.39874947372E+02  0.62671581976E+02  0.10000000000E+01 0.  0.
<mgrwt>
<rscale>  0 0.12499753E+03</rscale>
<asrwt>0</asrwt>
<pdfrwt beam="2">  1        4 0.43064518E-01 0.12499753E+03</pdfrwt>
<pdfrwt beam="1">  1       -4 0.21468246E-02 0.12499753E+03</pdfrwt>
<totfact> 0.76377978E+03</totfact>
</mgrwt>
</event>
<event>
 5    1  0.3487578E-002  0.1249986E+03  0.7818608E-02  0.1235071E+00
          4   -1    0    0  501    0  0.00000000000E+00  0.00000000000E+00  0.12847691160E+03  0.12848318845E+03  0.12700000000E+01 0. -1.
         -4   -1    0    0    0  501 -0.00000000000E+00 -0.00000000000E+00 -0.30383343928E+02  0.30409874848E+02  0.12700000000E+01 0. -1.
         25    2    1    2    0    0  0.00000000000E+00  0.00000000000E+00  0.98093567675E+02  0.15889306330E+03  0.12499863018E+03 0.  0.
    9000005    1    3    3    0    0  0.43244906487E+02  0.15011671709E+02 -0.50289020728E+01  0.46062588731E+02  0.10000000000E+01 0.  0.
    9000005    1    3    3    0    0 -0.43244906487E+02 -0.15011671709E+02  0.10312246975E+03  0.11283047457E+03  0.10000000000E+01 0.  0.
<mgrwt>
<rscale>  0 0.12499863E+03</rscale>
<asrwt>0</asrwt>
<pdfrwt beam="1">  1        4 0.19768202E-01 0.12499863E+03</pdfrwt>
<pdfrwt beam="2">  1       -4 0.46768843E-02 0.12499863E+03</pdfrwt>
<totfact> 0.97559623E+03</totfact>
</mgrwt>
</event>
<event>
 5    1  0.3487578E-002  0.1250027E+03  0.7818608E-02  0.1235065E+00
          4   -1    0    0  501    0  0.00000000000E+00  0.00000000000E+00  0.11229008768E+04  0.11229015950E+04  0.12700000000E+01 0. -1.
         -4   -1    0    0    0  501 -0.00000000000E+00 -0.00000000000E+00 -0.33622129527E+01  0.35940751159E+01  0.12700000000E+01 0. -1.
         25    2    1    2    0    0  0.00000000000E+00  0.00000000000E+00  0.11195386639E+04  0.11264956701E+04  0.12500269959E+03 0.  0.
    9000005    1    3    3    0    0 -0.29645372744E+02 -0.26829471108E+02  0.12694625627E+03  0.13309778596E+03  0.10000000000E+01 0.  0.
    9000005    1    3    3    0    0  0.29645372744E+02  0.26829471108E+02  0.99259240758E+03  0.99339788415E+03  0.10000000000E+01 0.  0.
<mgrwt>
<rscale>  0 0.12500270E+03</rscale>
<asrwt>0</asrwt>
<pdfrwt beam="1">  1        4 0.17277193E+00 0.12500270E+03</pdfrwt>
<pdfrwt beam="2">  1       -4 0.53515416E-03 0.12500270E+03</pdfrwt>
<totfact> 0.26719003E+03</totfact>
</mgrwt>
</event>
<event>
 5    1  0.3487578E-002  0.1250590E+03  0.7818608E-02  0.1234977E+00
         -4   -1    0    0    0  501 -0.00000000000E+00  0.00000000000E+00  0.46181937677E+03  0.46182112301E+03  0.12700000000E+01 0.  1.
          4   -1    0    0  501    0  0.00000000000E+00 -0.00000000000E+00 -0.84169772006E+01  0.85122503015E+01  0.12700000000E+01 0.  1.
         25    2    1    2    0    0  0.00000000000E+00  0.00000000000E+00  0.45340239957E+03  0.47033337331E+03  0.12505897056E+03 0.  0.
    9000005    1    3    3    0    0 -0.38327952587E+02 -0.46747530490E+02  0.16669486597E+03  0.17732044975E+03  0.10000000000E+01 0.  0.
    9000005    1    3    3    0    0  0.38327952587E+02  0.46747530490E+02  0.28670753359E+03  0.29301292356E+03  0.10000000000E+01 0.  0.
<mgrwt>
<rscale>  0 0.12505897E+03</rscale>
<asrwt>0</asrwt>
<pdfrwt beam="2">  1        4 0.13023820E-02 0.12505897E+03</pdfrwt>
<pdfrwt beam="1">  1       -4 0.71056629E-01 0.12505897E+03</pdfrwt>
<totfact> 0.58166365E+03</totfact>
</mgrwt>
</event>
<event>
 5    1  0.3487578E-002  0.1249990E+03  0.7818608E-02  0.1235071E+00
         -4   -1    0    0    0  501 -0.00000000000E+00  0.00000000000E+00  0.12169738830E+02  0.12235826216E+02  0.12700000000E+01 0.  1.
          4   -1    0    0  501    0  0.00000000000E+00 -0.00000000000E+00 -0.32003906591E+03  0.32004158575E+03  0.12700000000E+01 0.  1.
         25    2    1    2    0    0  0.00000000000E+00  0.00000000000E+00 -0.30786932708E+03  0.33227741197E+03  0.12499902378E+03 0.  0.
    9000005    1    3    3    0    0  0.37670075727E+02 -0.44006062453E+02 -0.21625442712E+03  0.22388064987E+03  0.10000000000E+01 0.  0.
    9000005    1    3    3    0    0 -0.37670075727E+02  0.44006062453E+02 -0.91614899967E+02  0.10839676210E+03  0.10000000000E+01 0.  0.
<mgrwt>
<rscale>  0 0.12499902E+03</rscale>
<asrwt>0</asrwt>
<pdfrwt beam="2">  1        4 0.49242051E-01 0.12499902E+03</pdfrwt>
<pdfrwt beam="1">  1       -4 0.18775452E-02 0.12499902E+03</pdfrwt>
<totfact> 0.71720851E+03</totfact>
</mgrwt>
</event>
<event>
 5    1  0.3487578E-002  0.1249951E+03  0.7818608E-02  0.1235077E+00
          4   -1    0    0  501    0  0.00000000000E+00  0.00000000000E+00  0.23898640341E+02  0.23932361149E+02  0.12700000000E+01 0. -1.
         -4   -1    0    0    0  501 -0.00000000000E+00 -0.00000000000E+00 -0.16328648881E+03  0.16329142760E+03  0.12700000000E+01 0. -1.
         25    2    1    2    0    0  0.00000000000E+00  0.00000000000E+00 -0.13938784847E+03  0.18722378875E+03  0.12499509900E+03 0.  0.
    9000005    1    3    3    0    0 -0.31591141999E+02 -0.53442088658E+02 -0.59009041422E+02  0.85657014088E+02  0.10000000000E+01 0.  0.
    9000005    1    3    3    0    0  0.31591141999E+02  0.53442088658E+02 -0.80378807047E+02  0.10156677466E+03  0.10000000000E+01 0.  0.
<mgrwt>
<rscale>  0 0.12499510E+03</rscale>
<asrwt>0</asrwt>
<pdfrwt beam="1">  1        4 0.36796878E-02 0.12499510E+03</pdfrwt>
<pdfrwt beam="2">  1       -4 0.25123971E-01 0.12499510E+03</pdfrwt>
<totfact> 0.92342762E+03</totfact>
</mgrwt>
</event>
<event>
 5    1  0.3487578E-002  0.1249993E+03  0.7818608E-02  0.1235070E+00
         -4   -1    0    0    0  501 -0.00000000000E+00  0.00000000000E+00  0.61868643438E+01  0.63158681437E+01  0.12700000000E+01 0.  1.
          4   -1    0    0  501    0  0.00000000000E+00 -0.00000000000E+00 -0.62472656393E+03  0.62472785481E+03  0.12700000000E+01 0.  1.
         25    2    1    2    0    0  0.00000000000E+00  0.00000000000E+00 -0.61853969958E+03  0.63104372295E+03  0.12499928127E+03 0.  0.
    9000005    1    3    3    0    0  0.40992004544E+02  0.62099757299E+01 -0.73218493982E+02  0.84147822884E+02  0.10000000000E+01 0.  0.
    9000005    1    3    3    0    0 -0.40992004544E+02 -0.62099757299E+01 -0.54532120560E+03  0.54689590007E+03  0.10000000000E+01 0.  0.
<mgrwt>
<rscale>  0 0.12499928E+03</rscale>
<asrwt>0</asrwt>
<pdfrwt beam="2">  1        4 0.96121753E-01 0.12499928E+03</pdfrwt>
<pdfrwt beam="1">  1       -4 0.96184844E-03 0.12499928E+03</pdfrwt>
<totfact> 0.46965656E+03</totfact>
</mgrwt>
</event>
<event>
 5    1  0.3487578E-002  0.1250125E+03  0.7818608E-02  0.1235050E+00
         -4   -1    0    0    0  501 -0.00000000000E+00  0.00000000000E+00  0.16997102697E+02  0.17044482981E+02  0.12700000000E+01 0. -1.
          4   -1    0    0  501    0  0.00000000000E+00 -0.00000000000E+00 -0.22949558782E+03  0.22949910181E+03  0.12700000000E+01 0. -1.
         25    2    1    2    0    0  0.00000000000E+00  0.00000000000E+00 -0.21249848513E+03  0.24654358479E+03  0.12501253145E+03 0.  0.
    9000005    1    3    3    0    0  0.22403175588E+02 -0.58309380510E+02 -0.11026542660E+03  0.12673338327E+03  0.10000000000E+01 0.  0.
    9000005    1    3    3    0    0 -0.22403175588E+02  0.58309380510E+02 -0.10223305853E+03  0.11981020152E+03  0.10000000000E+01 0.  0.
<mgrwt>
<rscale>  0 0.12501253E+03</rscale>
<asrwt>0</asrwt>
<pdfrwt beam="2">  1        4 0.35310926E-01 0.12501253E+03</pdfrwt>
<pdfrwt beam="1">  1       -4 0.26188540E-02 0.12501253E+03</pdfrwt>
<totfact> 0.82809244E+03</totfact>
</mgrwt>
</event>
<event>
 5    1  0.3487578E-002  0.1250000E+03  0.7818608E-02  0.1235069E+00
         -4   -1    0    0    0  501 -0.00000000000E+00  0.00000000000E+00  0.19058016557E+02  0.19100285210E+02  0.12700000000E+01 0. -1.
          4   -1    0    0  501    0  0.00000000000E+00 -0.00000000000E+00 -0.20469488040E+03  0.20469882013E+03  0.12700000000E+01 0. -1.
         25    2    1    2    0    0  0.00000000000E+00  0.00000000000E+00 -0.18563686385E+03  0.22379910534E+03  0.12499997733E+03 0.  0.
    9000005    1    3    3    0    0  0.58419629934E+02 -0.22677906120E+01 -0.13233920860E+03  0.14468124332E+03  0.10000000000E+01 0.  0.
    9000005    1    3    3    0    0 -0.58419629934E+02  0.22677906120E+01 -0.53297655242E+02  0.79117862017E+02  0.10000000000E+01 0.  0.
<mgrwt>
<rscale>  0 0.12499998E+03</rscale>
<asrwt>0</asrwt>
<pdfrwt beam="2">  1        4 0.31495073E-01 0.12499998E+03</pdfrwt>
<pdfrwt beam="1">  1       -4 0.29355572E-02 0.12499998E+03</pdfrwt>
<totfact> 0.86270782E+03</totfact>
</mgrwt>
</event>
<event>
 5    1  0.3487578E-002  0.1250009E+03  0.7818608E-02  0.1235068E+00
         -4   -1    0    0    0  501 -0.00000000000E+00  0.00000000000E+00  0.56243107445E+03  0.56243250831E+03  0.12700000000E+01 0. -1.
          4   -1    0    0  501    0  0.00000000000E+00 -0.00000000000E+00 -0.68858835114E+01  0.70020205464E+01  0.12700000000E+01 0. -1.
         25    2    1    2    0    0  0.00000000000E+00  0.00000000000E+00  0.55554519094E+03  0.56943452886E+03  0.12500089393E+03 0.  0.
    9000005    1    3    3    0    0 -0.49050360646E+02 -0.30375867720E+01  0.10192178688E+03  0.11315571330E+03  0.10000000000E+01 0.  0.
    9000005    1    3    3    0    0  0.49050360646E+02  0.30375867720E+01  0.45362340406E+03  0.45627881555E+03  0.10000000000E+01 0.  0.
<mgrwt>
<rscale>  0 0.12500089E+03</rscale>
<asrwt>0</asrwt>
<pdfrwt beam="2">  1        4 0.10684102E-02 0.12500089E+03</pdfrwt>
<pdfrwt beam="1">  1       -4 0.86536933E-01 0.12500089E+03</pdfrwt>
<totfact> 0.50854625E+03</totfact>
</mgrwt>
</event>
<event>
 5    1  0.3487578E-002  0.1249990E+03  0.7818608E-02  0.1235071E+00
          4   -1    0    0  501    0  0.00000000000E+00  0.00000000000E+00  0.64624523062E+02  0.64637000866E+02  0.12700000000E+01 0. -1.
         -4   -1    0    0    0  501 -0.00000000000E+00 -0.00000000000E+00 -0.60419325214E+02  0.60432671290E+02  0.12700000000E+01 0. -1.
         25    2    1    2    0    0  0.00000000000E+00  0.00000000000E+00  0.42051978486E+01  0.12506967216E+03  0.12499895681E+03 0.  0.
    9000005    1    3    3    0    0  0.34104572235E+01  0.16276300283E+01 -0.60309803941E+02  0.60436353707E+02  0.10000000000E+01 0.  0.
    9000005    1    3    3    0    0 -0.34104572235E+01 -0.16276300283E+01  0.64515001789E+02  0.64633318450E+02  0.10000000000E+01 0.  0.
<mgrwt>
<rscale>  0 0.12499896E+03</rscale>
<asrwt>0</asrwt>
<pdfrwt beam="1">  1        4 0.99442208E-02 0.12499896E+03</pdfrwt>
<pdfrwt beam="2">  1       -4 0.92972673E-02 0.12499896E+03</pdfrwt>
<totfact> 0.10451596E+04</totfact>
</mgrwt>
</event>
<event>
 5    1  0.3487578E-002  0.1250005E+03  0.7818608E-02  0.1235069E+00
         -4   -1    0    0    0  501 -0.00000000000E+00  0.00000000000E+00  0.49415089604E+03  0.49415252802E+03  0.12700000000E+01 0. -1.
          4   -1    0    0  501    0  0.00000000000E+00 -0.00000000000E+00 -0.78523674095E+01  0.79544059447E+01  0.12700000000E+01 0. -1.
         25    2    1    2    0    0  0.00000000000E+00  0.00000000000E+00  0.48629852863E+03  0.50210693397E+03  0.12500045678E+03 0.  0.
    9000005    1    3    3    0    0  0.12800861103E+02 -0.18031590439E+02  0.83691893796E+01  0.23665240958E+02  0.10000000000E+01 0.  0.
    9000005    1    3    3    0    0 -0.12800861103E+02  0.18031590439E+02  0.47792933925E+03  0.47844169301E+03  0.10000000000E+01 0.  0.
<mgrwt>
<rscale>  0 0.12500046E+03</rscale>
<asrwt>0</asrwt>
<pdfrwt beam="2">  1        4 0.12160307E-02 0.12500046E+03</pdfrwt>
<pdfrwt beam="1">  1       -4 0.76031220E-01 0.12500046E+03</pdfrwt>
<totfact> 0.55700688E+03</totfact>
</mgrwt>
</event>
<event>
 5    1  0.3487578E-002  0.1249969E+03  0.7818608E-02  0.1235074E+00
         -4   -1    0    0    0  501 -0.00000000000E+00  0.00000000000E+00  0.43594245172E+01  0.45406477645E+01  0.12700000000E+01 0. -1.
          4   -1    0    0  501    0  0.00000000000E+00 -0.00000000000E+00 -0.87757637965E+03  0.87757729860E+03  0.12700000000E+01 0. -1.
         25    2    1    2    0    0  0.00000000000E+00  0.00000000000E+00 -0.87321695514E+03  0.88211794637E+03  0.12499688224E+03 0.  0.
    9000005    1    3    3    0    0 -0.37094365273E+02  0.55269702963E+01 -0.83857254910E+02  0.91867178778E+02  0.10000000000E+01 0.  0.
    9000005    1    3    3    0    0  0.37094365273E+02 -0.55269702963E+01 -0.78935970023E+03  0.79025076759E+03  0.10000000000E+01 0.  0.
<mgrwt>
<rscale>  0 0.12499688E+03</rscale>
<asrwt>0</asrwt>
<pdfrwt beam="2">  1        4 0.13502562E+00 0.12499688E+03</pdfrwt>
<pdfrwt beam="1">  1       -4 0.68469233E-03 0.12499688E+03</pdfrwt>
<totfact> 0.34850241E+03</totfact>
</mgrwt>
</event>
<event>
 5    1  0.3487578E-002  0.1250049E+03  0.7818608E-02  0.1235062E+00
         -4   -1    0    0    0  501 -0.00000000000E+00  0.00000000000E+00  0.17342167347E+03  0.17342632364E+03  0.12700000000E+01 0. -1.
          4   -1    0    0  501    0  0.00000000000E+00 -0.00000000000E+00 -0.22503497398E+02  0.22539305560E+02  0.12700000000E+01 0. -1.
         25    2    1    2    0    0  0.00000000000E+00  0.00000000000E+00  0.15091817607E+03  0.19596562920E+03  0.12500492773E+03 0.  0.
    9000005    1    3    3    0    0 -0.21597298343E+02 -0.31747495683E+02 -0.18381752169E+01  0.38454202189E+02  0.10000000000E+01 0.  0.
    9000005    1    3    3    0    0  0.21597298343E+02  0.31747495683E+02  0.15275635129E+03  0.15751142701E+03  0.10000000000E+01 0.  0.
<mgrwt>
<rscale>  0 0.12500493E+03</rscale>
<asrwt>0</asrwt>
<pdfrwt beam="2">  1        4 0.34651886E-02 0.12500493E+03</pdfrwt>
<pdfrwt beam="1">  1       -4 0.26683370E-01 0.12500493E+03</pdfrwt>
<totfact> 0.90809532E+03</totfact>
</mgrwt>
</event>
<event>
 5    1  0.3487578E-002  0.1250080E+03  0.7818608E-02  0.1235057E+00
          4   -1    0    0  501    0  0.00000000000E+00  0.00000000000E+00  0.40176214727E+03  0.40176415455E+03  0.12700000000E+01 0. -1.
         -4   -1    0    0    0  501 -0.00000000000E+00 -0.00000000000E+00 -0.96805290541E+01  0.97634800542E+01  0.12700000000E+01 0. -1.
         25    2    1    2    0    0  0.00000000000E+00  0.00000000000E+00  0.39208161822E+03  0.41152763460E+03  0.12500799454E+03 0.  0.
    9000005    1    3    3    0    0 -0.18568569229E+02 -0.55146204826E+02  0.12098195796E+03  0.13425174048E+03  0.10000000000E+01 0.  0.
    9000005    1    3    3    0    0  0.18568569229E+02  0.55146204826E+02  0.27109966026E+03  0.27727589413E+03  0.10000000000E+01 0.  0.
<mgrwt>
<rscale>  0 0.12500799E+03</rscale>
<asrwt>0</asrwt>
<pdfrwt beam="1">  1        4 0.61816093E-01 0.12500799E+03</pdfrwt>
<pdfrwt beam="2">  1       -4 0.14958475E-02 0.12500799E+03</pdfrwt>
<totfact> 0.63435666E+03</totfact>
</mgrwt>
</event>
<event>
 5    1  0.3487578E-002  0.1250011E+03  0.7818608E-02  0.1235067E+00
         -4   -1    0    0    0  501 -0.00000000000E+00  0.00000000000E+00  0.97633252287E+01  0.98455786788E+01  0.12700000000E+01 0.  1.
          4   -1    0    0  501    0  0.00000000000E+00 -0.00000000000E+00 -0.39833996891E+03  0.39834199343E+03  0.12700000000E+01 0.  1.
         25    2    1    2    0    0  0.00000000000E+00  0.00000000000E+00 -0.38857664368E+03  0.40818757211E+03  0.12500114404E+03 0.  0.
    9000005    1    3    3    0    0  0.41630131577E+01 -0.57016481736E+02 -0.11186434628E+03  0.12562978085E+03  0.10000000000E+01 0.  0.
    9000005    1    3    3    0    0 -0.41630131577E+01  0.57016481736E+02 -0.27671229740E+03  0.28255779126E+03  0.10000000000E+01 0.  0.
<mgrwt>
<rscale>  0 0.12500114E+03</rscale>
<asrwt>0</asrwt>
<pdfrwt beam="2">  1        4 0.61289543E-01 0.12500114E+03</pdfrwt>
<pdfrwt beam="1">  1       -4 0.15085333E-02 0.12500114E+03</pdfrwt>
<totfact> 0.63762586E+03</totfact>
</mgrwt>
</event>
<event>
 5    1  0.3487578E-002  0.1250001E+03  0.7818608E-02  0.1235069E+00
         -4   -1    0    0    0  501 -0.00000000000E+00  0.00000000000E+00  0.16335694359E+02  0.16384987342E+02  0.12700000000E+01 0.  1.
          4   -1    0    0  501    0  0.00000000000E+00 -0.00000000000E+00 -0.23871288031E+03  0.23871625861E+03  0.12700000000E+01 0.  1.
         25    2    1    2    0    0  0.00000000000E+00  0.00000000000E+00 -0.22237718595E+03  0.25510124595E+03  0.12500013142E+03 0.  0.
    9000005    1    3    3    0    0 -0.17686607186E+02 -0.22527194155E+02  0.21629453003E+01  0.28739674365E+02  0.10000000000E+01 0.  0.
    9000005    1    3    3    0    0  0.17686607186E+02  0.22527194155E+02 -0.22454013125E+03  0.22636157159E+03  0.10000000000E+01 0.  0.
<mgrwt>
<rscale>  0 0.12500013E+03</rscale>
<asrwt>0</asrwt>
<pdfrwt beam="2">  1        4 0.36729108E-01 0.12500013E+03</pdfrwt>
<pdfrwt beam="1">  1       -4 0.25172356E-02 0.12500013E+03</pdfrwt>
<totfact> 0.81598247E+03</totfact>
</mgrwt>
</event>
<event>
 5    1  0.3487578E-002  0.1249974E+03  0.7818608E-02  0.1235073E+00
         -4   -1    0    0    0  501 -0.00000000000E+00  0.00000000000E+00  0.40748494705E+02  0.40768280817E+02  0.12700000000E+01 0. -1.
          4   -1    0    0  501    0  0.00000000000E+00 -0.00000000000E+00 -0.95811233169E+02  0.95819649871E+02  0.12700000000E+01 0. -1.
         25    2    1    2    0    0  0.00000000000E+00  0.00000000000E+00 -0.55062738464E+02  0.13658793069E+03  0.12499743054E+03 0.  0.
    9000005    1    3    3    0    0 -0.12513261605E+02  0.57009946000E+02 -0.31370434071E+01  0.58459872565E+02  0.10000000000E+01 0.  0.
    9000005    1    3    3    0    0  0.12513261605E+02 -0.57009946000E+02 -0.51925695057E+02  0.78128058123E+02  0.10000000000E+01 0.  0.
<mgrwt>
<rscale>  0 0.12499743E+03</rscale>
<asrwt>0</asrwt>
<pdfrwt beam="2">  1        4 0.14742359E-01 0.12499743E+03</pdfrwt>
<pdfrwt beam="1">  1       -4 0.62711687E-02 0.12499743E+03</pdfrwt>
<totfact> 0.10205300E+04</totfact>
</mgrwt>
</event>
<event>
 5    1  0.3487578E-002  0.1250162E+03  0.7818608E-02  0.1235044E+00
         -4   -1    0    0    0  501 -0.00000000000E+00  0.00000000000E+00  0.41409878712E+02  0.41429348957E+02  0.12700000000E+01 0.  1.
          4   -1    0    0  501    0  0.00000000000E+00 -0.00000000000E+00 -0.94309868334E+02  0.94318419014E+02  0.12700000000E+01 0.  1.
         25    2    1    2    0    0  0.00000000000E+00  0.00000000000E+00 -0.52899989622E+02  0.13574776797E+03  0.12501618938E+03 0.  0.
    9000005    1    3    3    0    0 -0.18699099320E+02  0.35404913114E+02  0.25660191092E+02  0.47566895998E+02  0.10000000000E+01 0.  0.
    9000005    1    3    3    0    0  0.18699099320E+02 -0.35404913114E+02 -0.78560180714E+02  0.88180871972E+02  0.10000000000E+01 0.  0.
<mgrwt>
<rscale>  0 0.12501619E+03</rscale>
<asrwt>0</asrwt>
<pdfrwt beam="2">  1        4 0.14511366E-01 0.12501619E+03</pdfrwt>
<pdfrwt beam="1">  1       -4 0.63729061E-02 0.12501619E+03</pdfrwt>
<totfact> 0.10218603E+04</totfact>
</mgrwt>
</event>
<event>
 5    1  0.3487578E-002  0.1250013E+03  0.7818608E-02  0.1235067E+00
         -4   -1    0    0    0  501 -0.00000000000E+00  0.00000000000E+00  0.54699425813E+03  0.54699573246E+03  0.12700000000E+01 0. -1.
          4   -1    0    0  501    0  0.00000000000E+00 -0.00000000000E+00 -0.70834854964E+01  0.71964343100E+01  0.12700000000E+01 0. -1.
         25    2    1    2    0    0  0.00000000000E+00  0.00000000000E+00  0.53991077263E+03  0.55419216677E+03  0.12500126120E+03 0.  0.
    9000005    1    3    3    0    0  0.37768484841E+02  0.48466150890E+02  0.32048603846E+03  0.32632457321E+03  0.10000000000E+01 0.  0.
    9000005    1    3    3    0    0 -0.37768484841E+02 -0.48466150890E+02  0.21942473417E+03  0.22786759356E+03  0.10000000000E+01 0.  0.
<mgrwt>
<rscale>  0 0.12500126E+03</rscale>
<asrwt>0</asrwt>
<pdfrwt beam="2">  1        4 0.10985690E-02 0.12500126E+03</pdfrwt>
<pdfrwt beam="1">  1       -4 0.84161751E-01 0.12500126E+03</pdfrwt>
<totfact> 0.51891546E+03</totfact>
</mgrwt>
</event>
<event>
 5    1  0.3487578E-002  0.1250027E+03  0.7818608E-02  0.1235065E+00
         -4   -1    0    0    0  501 -0.00000000000E+00  0.00000000000E+00  0.47715433950E+02  0.47732332197E+02  0.12700000000E+01 0. -1.
          4   -1    0    0  501    0  0.00000000000E+00 -0.00000000000E+00 -0.81832716851E+02  0.81842571119E+02  0.12700000000E+01 0. -1.
         25    2    1    2    0    0  0.00000000000E+00  0.00000000000E+00 -0.34117282902E+02  0.12957490332E+03  0.12500266628E+03 0.  0.
    9000005    1    3    3    0    0  0.91938024751E+01 -0.46699807817E+02 -0.59037053139E+02  0.75840435767E+02  0.10000000000E+01 0.  0.
    9000005    1    3    3    0    0 -0.91938024751E+01  0.46699807817E+02  0.24919770237E+02  0.53734467549E+02  0.10000000000E+01 0.  0.
<mgrwt>
<rscale>  0 0.12500267E+03</rscale>
<asrwt>0</asrwt>
<pdfrwt beam="2">  1        4 0.12591707E-01 0.12500267E+03</pdfrwt>
<pdfrwt beam="1">  1       -4 0.73428939E-02 0.12500267E+03</pdfrwt>
<totfact> 0.10352986E+04</totfact>
</mgrwt>
</event>
<event>
 5    1  0.3487578E-002  0.1249985E+03  0.7818608E-02  0.1235072E+00
          4   -1    0    0  501    0  0.00000000000E+00  0.00000000000E+00  0.54048439919E+02  0.54063358735E+02  0.12700000000E+01 0.  1.
         -4   -1    0    0    0  501 -0.00000000000E+00 -0.00000000000E+00 -0.72240898268E+02  0.72252060749E+02  0.12700000000E+01 0.  1.
         25    2    1    2    0    0  0.00000000000E+00  0.00000000000E+00 -0.18192458348E+02  0.12631541948E+03  0.12499847863E+03 0.  0.
    9000005    1    3    3    0    0  0.28328492499E+01 -0.14862824103E+02 -0.70366917976E+02  0.71982162517E+02  0.10000000000E+01 0.  0.
    9000005    1    3    3    0    0 -0.28328492499E+01  0.14862824103E+02  0.52174459628E+02  0.54333256967E+02  0.10000000000E+01 0.  0.
<mgrwt>
<rscale>  0 0.12499848E+03</rscale>
<asrwt>0</asrwt>
<pdfrwt beam="1">  1        4 0.83171508E-02 0.12499848E+03</pdfrwt>
<pdfrwt beam="2">  1       -4 0.11115991E-01 0.12499848E+03</pdfrwt>
<totfact> 0.10424414E+04</totfact>
</mgrwt>
</event>
<event>
 5    1  0.3487578E-002  0.1249998E+03  0.7818608E-02  0.1235070E+00
         -4   -1    0    0    0  501 -0.00000000000E+00  0.00000000000E+00  0.19025285748E+02  0.19067626957E+02  0.12700000000E+01 0.  1.
          4   -1    0    0  501    0  0.00000000000E+00 -0.00000000000E+00 -0.20504558118E+03  0.20504951417E+03  0.12700000000E+01 0.  1.
         25    2    1    2    0    0  0.00000000000E+00  0.00000000000E+00 -0.18602029543E+03  0.22411714112E+03  0.12499977054E+03 0.  0.
    9000005    1    3    3    0    0 -0.97806231904E+01  0.18446976259E+02 -0.19861546682E+03  0.19971243122E+03  0.10000000000E+01 0.  0.
    9000005    1    3    3    0    0  0.97806231904E+01 -0.18446976259E+02  0.12595171392E+02  0.24404709904E+02  0.10000000000E+01 0.  0.
<mgrwt>
<rscale>  0 0.12499977E+03</rscale>
<asrwt>0</asrwt>
<pdfrwt beam="2">  1        4 0.31549032E-01 0.12499977E+03</pdfrwt>
<pdfrwt beam="1">  1       -4 0.29305267E-02 0.12499977E+03</pdfrwt>
<totfact> 0.86221472E+03</totfact>
</mgrwt>
</event>
<event>
 5    1  0.3487578E-002  0.1250031E+03  0.7818608E-02  0.1235064E+00
          4   -1    0    0  501    0  0.00000000000E+00  0.00000000000E+00  0.16249766984E+03  0.16250263261E+03  0.12700000000E+01 0. -1.
         -4   -1    0    0    0  501 -0.00000000000E+00 -0.00000000000E+00 -0.24017901936E+02  0.24051455536E+02  0.12700000000E+01 0. -1.
         25    2    1    2    0    0  0.00000000000E+00  0.00000000000E+00  0.13847976791E+03  0.18655408814E+03  0.12500312670E+03 0.  0.
    9000005    1    3    3    0    0 -0.14069761673E+02 -0.58467347109E+02  0.43866680518E+02  0.74442424269E+02  0.10000000000E+01 0.  0.
    9000005    1    3    3    0    0  0.14069761673E+02  0.58467347109E+02  0.94613087389E+02  0.11211166387E+03  0.10000000000E+01 0.  0.
<mgrwt>
<rscale>  0 0.12500313E+03</rscale>
<asrwt>0</asrwt>
<pdfrwt beam="1">  1        4 0.25002605E-01 0.12500313E+03</pdfrwt>
<pdfrwt beam="2">  1       -4 0.36980246E-02 0.12500313E+03</pdfrwt>
<totfact> 0.92443895E+03</totfact>
</mgrwt>
</event>
<event>
 5    1  0.3487578E-002  0.1250210E+03  0.7818608E-02  0.1235036E+00
          4   -1    0    0  501    0  0.00000000000E+00  0.00000000000E+00  0.30236306227E+02  0.30262966052E+02  0.12700000000E+01 0. -1.
         -4   -1    0    0    0  501 -0.00000000000E+00 -0.00000000000E+00 -0.12914739651E+03  0.12915364078E+03  0.12700000000E+01 0. -1.
         25    2    1    2    0    0  0.00000000000E+00  0.00000000000E+00 -0.98911090286E+02  0.15941660683E+03  0.12502100124E+03 0.  0.
    9000005    1    3    3    0    0 -0.20345252951E+02  0.24724451871E+02 -0.11790144765E+03  0.12217601727E+03  0.10000000000E+01 0.  0.
    9000005    1    3    3    0    0  0.20345252951E+02 -0.24724451871E+02  0.18990357364E+02  0.37240589560E+02  0.10000000000E+01 0.  0.
<mgrwt>
<rscale>  0 0.12502100E+03</rscale>
<asrwt>0</asrwt>
<pdfrwt beam="1">  1        4 0.46542706E-02 0.12502100E+03</pdfrwt>
<pdfrwt beam="2">  1       -4 0.19871361E-01 0.12502100E+03</pdfrwt>
<totfact> 0.97409384E+03</totfact>
</mgrwt>
</event>
<event>
 5    1  0.3487578E-002  0.1250007E+03  0.7818608E-02  0.1235068E+00
         -4   -1    0    0    0  501 -0.00000000000E+00  0.00000000000E+00  0.59153566910E+01  0.60501524594E+01  0.12700000000E+01 0.  1.
          4   -1    0    0  501    0  0.00000000000E+00 -0.00000000000E+00 -0.65279035992E+03  0.65279159531E+03  0.12700000000E+01 0.  1.
         25    2    1    2    0    0  0.00000000000E+00  0.00000000000E+00 -0.64687500323E+03  0.65884174777E+03  0.12500071519E+03 0.  0.
    9000005    1    3    3    0    0 -0.39513284006E+01 -0.29033517402E+02 -0.32509137084E+02  0.43776730381E+02  0.10000000000E+01 0.  0.
    9000005    1    3    3    0    0  0.39513284006E+01  0.29033517402E+02 -0.61436586615E+03  0.61506501739E+03  0.10000000000E+01 0.  0.
<mgrwt>
<rscale>  0 0.12500072E+03</rscale>
<asrwt>0</asrwt>
<pdfrwt beam="2">  1        4 0.10043969E+00 0.12500072E+03</pdfrwt>
<pdfrwt beam="1">  1       -4 0.92051933E-03 0.12500072E+03</pdfrwt>
<totfact> 0.45349366E+03</totfact>
</mgrwt>
</event>
<event>
 5    1  0.3487578E-002  0.1249926E+03  0.7818608E-02  0.1235081E+00
         -4   -1    0    0    0  501 -0.00000000000E+00  0.00000000000E+00  0.42001438951E+03  0.42001630956E+03  0.12700000000E+01 0.  1.
          4   -1    0    0  501    0  0.00000000000E+00 -0.00000000000E+00 -0.92538597642E+01  0.93406006517E+01  0.12700000000E+01 0.  1.
         25    2    1    2    0    0  0.00000000000E+00  0.00000000000E+00  0.41076052975E+03  0.42935691021E+03  0.12499257397E+03 0.  0.
    9000005    1    3    3    0    0  0.26922568248E+02  0.47173762738E+02  0.99248753304E+02  0.11314372985E+03  0.10000000000E+01 0.  0.
    9000005    1    3    3    0    0 -0.26922568248E+02 -0.47173762738E+02  0.31151177644E+03  0.31621318036E+03  0.10000000000E+01 0.  0.
<mgrwt>
<rscale>  0 0.12499257E+03</rscale>
<asrwt>0</asrwt>
<pdfrwt beam="2">  1        4 0.14304911E-02 0.12499257E+03</pdfrwt>
<pdfrwt beam="1">  1       -4 0.64624407E-01 0.12499257E+03</pdfrwt>
<totfact> 0.61804451E+03</totfact>
</mgrwt>
</event>
<event>
 5    1  0.3487578E-002  0.1250022E+03  0.7818608E-02  0.1235066E+00
         -4   -1    0    0    0  501 -0.00000000000E+00  0.00000000000E+00  0.10640414707E+03  0.10641172592E+03  0.12700000000E+01 0. -1.
          4   -1    0    0  501    0  0.00000000000E+00 -0.00000000000E+00 -0.36692861577E+02  0.36714833388E+02  0.12700000000E+01 0. -1.
         25    2    1    2    0    0  0.00000000000E+00  0.00000000000E+00  0.69711285493E+02  0.14312655931E+03  0.12500219460E+03 0.  0.
    9000005    1    3    3    0    0 -0.72122307631E+01 -0.61415758861E+02  0.24520511648E+02  0.66529446116E+02  0.10000000000E+01 0.  0.
    9000005    1    3    3    0    0  0.72122307631E+01  0.61415758861E+02  0.45190773845E+02  0.76597113195E+02  0.10000000000E+01 0.  0.
<mgrwt>
<rscale>  0 0.12500219E+03</rscale>
<asrwt>0</asrwt>
<pdfrwt beam="2">  1        4 0.56473289E-02 0.12500219E+03</pdfrwt>
<pdfrwt beam="1">  1       -4 0.16372142E-01 0.12500219E+03</pdfrwt>
<totfact> 0.10068695E+04</totfact>
</mgrwt>
</event>
<event>
 5    1  0.3487578E-002  0.1250015E+03  0.7818608E-02  0.1235067E+00
          4   -1    0    0  501    0  0.00000000000E+00  0.00000000000E+00  0.56447343004E+02  0.56461627963E+02  0.12700000000E+01 0.  1.
         -4   -1    0    0    0  501 -0.00000000000E+00 -0.00000000000E+00 -0.69174452348E+02  0.69186109571E+02  0.12700000000E+01 0.  1.
         25    2    1    2    0    0  0.00000000000E+00  0.00000000000E+00 -0.12727109344E+02  0.12564773753E+03  0.12500149853E+03 0.  0.
    9000005    1    3    3    0    0  0.43357954881E+02 -0.25375635731E+02 -0.43724360691E+02  0.66608219148E+02  0.10000000000E+01 0.  0.
    9000005    1    3    3    0    0 -0.43357954881E+02  0.25375635731E+02  0.30997251348E+02  0.59039518386E+02  0.10000000000E+01 0.  0.
<mgrwt>
<rscale>  0 0.12500150E+03</rscale>
<asrwt>0</asrwt>
<pdfrwt beam="1">  1        4 0.86862022E-02 0.12500150E+03</pdfrwt>
<pdfrwt beam="2">  1       -4 0.10644219E-01 0.12500150E+03</pdfrwt>
<totfact> 0.10438342E+04</totfact>
</mgrwt>
</event>
<event>
 5    1  0.3487578E-002  0.1250108E+03  0.7818608E-02  0.1235052E+00
         -4   -1    0    0    0  501 -0.00000000000E+00  0.00000000000E+00  0.99822653155E+02  0.99830731655E+02  0.12700000000E+01 0.  1.
          4   -1    0    0  501    0  0.00000000000E+00 -0.00000000000E+00 -0.39118695032E+02  0.39139305065E+02  0.12700000000E+01 0.  1.
         25    2    1    2    0    0  0.00000000000E+00  0.00000000000E+00  0.60703958123E+02  0.13897003672E+03  0.12501080183E+03 0.  0.
    9000005    1    3    3    0    0  0.20240430833E+02 -0.13424371530E+02  0.94367203567E+02  0.97447718805E+02  0.10000000000E+01 0.  0.
    9000005    1    3    3    0    0 -0.20240430833E+02  0.13424371530E+02 -0.33663245444E+02  0.41522317915E+02  0.10000000000E+01 0.  0.
<mgrwt>
<rscale>  0 0.12501080E+03</rscale>
<asrwt>0</asrwt>
<pdfrwt beam="2">  1        4 0.60204676E-02 0.12501080E+03</pdfrwt>
<pdfrwt beam="1">  1       -4 0.15359538E-01 0.12501080E+03</pdfrwt>
<totfact> 0.10152506E+04</totfact>
</mgrwt>
</event>
<event>
 5    1  0.3487578E-002  0.1250042E+03  0.7818608E-02  0.1235063E+00
         -4   -1    0    0    0  501 -0.00000000000E+00  0.00000000000E+00  0.12607198073E+03  0.12607837731E+03  0.12700000000E+01 0.  1.
          4   -1    0    0  501    0  0.00000000000E+00 -0.00000000000E+00 -0.30966169234E+02  0.30992201229E+02  0.12700000000E+01 0.  1.
         25    2    1    2    0    0  0.00000000000E+00  0.00000000000E+00  0.95105811499E+02  0.15707057854E+03  0.12500420498E+03 0.  0.
    9000005    1    3    3    0    0  0.33048458223E+02 -0.51140112900E+02  0.65233790677E+02  0.89241017388E+02  0.10000000000E+01 0.  0.
    9000005    1    3    3    0    0 -0.33048458223E+02  0.51140112900E+02  0.29872020822E+02  0.67829561154E+02  0.10000000000E+01 0.  0.
<mgrwt>
<rscale>  0 0.12500420E+03</rscale>
<asrwt>0</asrwt>
<pdfrwt beam="2">  1        4 0.47665206E-02 0.12500420E+03</pdfrwt>
<pdfrwt beam="1">  1       -4 0.19398184E-01 0.12500420E+03</pdfrwt>
<totfact> 0.97901289E+03</totfact>
</mgrwt>
</event>
<event>
 5    1  0.3487578E-002  0.1250069E+03  0.7818608E-02  0.1235059E+00
          4   -1    0    0  501    0  0.00000000000E+00  0.00000000000E+00  0.42688665782E+03  0.42688854696E+03  0.12700000000E+01 0. -1.
         -4   -1    0    0    0  501 -0.00000000000E+00 -0.00000000000E+00 -0.91055856285E+01  0.91937255581E+01  0.12700000000E+01 0. -1.
         25    2    1    2    0    0  0.00000000000E+00  0.00000000000E+00  0.41778107219E+03  0.43608227252E+03  0.12500689630E+03 0.  0.
    9000005    1    3    3    0    0  0.32817081921E+02  0.29204809334E+01  0.23633924058E+02  0.40559246062E+02  0.10000000000E+01 0.  0.
    9000005    1    3    3    0    0 -0.32817081921E+02 -0.29204809334E+01  0.39414714813E+03  0.39552302646E+03  0.10000000000E+01 0.  0.
<mgrwt>
<rscale>  0 0.12500690E+03</rscale>
<asrwt>0</asrwt>
<pdfrwt beam="1">  1        4 0.65681805E-01 0.12500690E+03</pdfrwt>
<pdfrwt beam="2">  1       -4 0.14077844E-02 0.12500690E+03</pdfrwt>
<totfact> 0.61179206E+03</totfact>
</mgrwt>
</event>
<event>
 5    1  0.3487578E-002  0.1249990E+03  0.7818608E-02  0.1235071E+00
         -4   -1    0    0    0  501 -0.00000000000E+00  0.00000000000E+00  0.47815241227E+03  0.47815409886E+03  0.12700000000E+01 0. -1.
          4   -1    0    0  501    0  0.00000000000E+00 -0.00000000000E+00 -0.81182649439E+01  0.82170022331E+01  0.12700000000E+01 0. -1.
         25    2    1    2    0    0  0.00000000000E+00  0.00000000000E+00  0.47003414732E+03  0.48637110109E+03  0.12499899331E+03 0.  0.
    9000005    1    3    3    0    0 -0.10107533562E+02 -0.18156512351E+01  0.47486585507E+03  0.47497793542E+03  0.10000000000E+01 0.  0.
    9000005    1    3    3    0    0  0.10107533562E+02  0.18156512351E+01 -0.48317077532E+01  0.11393165667E+02  0.10000000000E+01 0.  0.
<mgrwt>
<rscale>  0 0.12499899E+03</rscale>
<asrwt>0</asrwt>
<pdfrwt beam="2">  1        4 0.12566883E-02 0.12499899E+03</pdfrwt>
<pdfrwt beam="1">  1       -4 0.73569663E-01 0.12499899E+03</pdfrwt>
<totfact> 0.56938771E+03</totfact>
</mgrwt>
</event>
<event>
 5    1  0.3487578E-002  0.1250107E+03  0.7818608E-02  0.1235053E+00
         -4   -1    0    0    0  501 -0.00000000000E+00  0.00000000000E+00  0.20443667460E+03  0.20444061930E+03  0.12700000000E+01 0. -1.
          4   -1    0    0  501    0  0.00000000000E+00 -0.00000000000E+00 -0.19085430078E+02  0.19127638151E+02  0.12700000000E+01 0. -1.
         25    2    1    2    0    0  0.00000000000E+00  0.00000000000E+00  0.18535124452E+03  0.22356825746E+03  0.12501072712E+03 0.  0.
    9000005    1    3    3    0    0  0.23736315254E+02 -0.52465960651E+01 -0.10292640391E+02  0.26417378340E+02  0.10000000000E+01 0.  0.
    9000005    1    3    3    0    0 -0.23736315254E+02  0.52465960651E+01  0.19564388491E+03  0.19715087912E+03  0.10000000000E+01 0.  0.
<mgrwt>
<rscale>  0 0.12501073E+03</rscale>
<asrwt>0</asrwt>
<pdfrwt beam="2">  1        4 0.29397703E-02 0.12501073E+03</pdfrwt>
<pdfrwt beam="1">  1       -4 0.31455345E-01 0.12501073E+03</pdfrwt>
<totfact> 0.86286180E+03</totfact>
</mgrwt>
</event>
<event>
 5    1  0.3487578E-002  0.1250017E+03  0.7818608E-02  0.1235067E+00
         -4   -1    0    0    0  501 -0.00000000000E+00  0.00000000000E+00  0.71944413830E+02  0.71955622305E+02  0.12700000000E+01 0. -1.
          4   -1    0    0  501    0  0.00000000000E+00 -0.00000000000E+00 -0.54273990097E+02  0.54288846931E+02  0.12700000000E+01 0. -1.
         25    2    1    2    0    0  0.00000000000E+00  0.00000000000E+00  0.17670423732E+02  0.12624446924E+03  0.12500168854E+03 0.  0.
    9000005    1    3    3    0    0  0.70392213658E+01  0.57449544235E+02 -0.14965049820E+02  0.59790914747E+02  0.10000000000E+01 0.  0.
    9000005    1    3    3    0    0 -0.70392213658E+01 -0.57449544235E+02  0.32635473552E+02  0.66453554489E+02  0.10000000000E+01 0.  0.
<mgrwt>
<rscale>  0 0.12500169E+03</rscale>
<asrwt>0</asrwt>
<pdfrwt beam="2">  1        4 0.83518497E-02 0.12500169E+03</pdfrwt>
<pdfrwt beam="1">  1       -4 0.11070376E-01 0.12500169E+03</pdfrwt>
<totfact> 0.10425209E+04</totfact>
</mgrwt>
</event>
<event>
 5    1  0.3487578E-002  0.1250008E+03  0.7818608E-02  0.1235068E+00
          4   -1    0    0  501    0  0.00000000000E+00  0.00000000000E+00  0.61753793688E+02  0.61766851424E+02  0.12700000000E+01 0.  1.
         -4   -1    0    0    0  501 -0.00000000000E+00 -0.00000000000E+00 -0.63229905155E+02  0.63242658119E+02  0.12700000000E+01 0.  1.
         25    2    1    2    0    0  0.00000000000E+00  0.00000000000E+00 -0.14761114675E+01  0.12500950954E+03  0.12500079428E+03 0.  0.
    9000005    1    3    3    0    0  0.60865343590E+02 -0.61949637176E+01  0.12003790828E+02  0.62354299131E+02  0.10000000000E+01 0.  0.
    9000005    1    3    3    0    0 -0.60865343590E+02  0.61949637176E+01 -0.13479902296E+02  0.62655210412E+02  0.10000000000E+01 0.  0.
<mgrwt>
<rscale>  0 0.12500079E+03</rscale>
<asrwt>0</asrwt>
<pdfrwt beam="1">  1        4 0.95025690E-02 0.12500079E+03</pdfrwt>
<pdfrwt beam="2">  1       -4 0.97296632E-02 0.12500079E+03</pdfrwt>
<totfact> 0.10452468E+04</totfact>
</mgrwt>
</event>
<event>
 5    1  0.3487578E-002  0.1249907E+03  0.7818608E-02  0.1235084E+00
         -4   -1    0    0    0  501 -0.00000000000E+00  0.00000000000E+00  0.34630788459E+02  0.34654067716E+02  0.12700000000E+01 0.  1.
          4   -1    0    0  501    0  0.00000000000E+00 -0.00000000000E+00 -0.11271545674E+03  0.11272261126E+03  0.12700000000E+01 0.  1.
         25    2    1    2    0    0  0.00000000000E+00  0.00000000000E+00 -0.78084668284E+02  0.14737667897E+03  0.12499067999E+03 0.  0.
    9000005    1    3    3    0    0  0.35678730832E+02  0.26288377580E+02  0.12899949402E+02  0.46167730333E+02  0.10000000000E+01 0.  0.
    9000005    1    3    3    0    0 -0.35678730832E+02 -0.26288377580E+02 -0.90984617686E+02  0.10120894864E+03  0.10000000000E+01 0.  0.
<mgrwt>
<rscale>  0 0.12499068E+03</rscale>
<asrwt>0</asrwt>
<pdfrwt beam="2">  1        4 0.17343180E-01 0.12499068E+03</pdfrwt>
<pdfrwt beam="1">  1       -4 0.53301547E-02 0.12499068E+03</pdfrwt>
<totfact> 0.99850160E+03</totfact>
</mgrwt>
</event>
<event>
 5    1  0.3487578E-002  0.1250007E+03  0.7818608E-02  0.1235068E+00
          4   -1    0    0  501    0  0.00000000000E+00  0.00000000000E+00  0.99249667772E+02  0.99257792908E+02  0.12700000000E+01 0. -1.
         -4   -1    0    0    0  501 -0.00000000000E+00 -0.00000000000E+00 -0.39338293093E+02  0.39358788136E+02  0.12700000000E+01 0. -1.
         25    2    1    2    0    0  0.00000000000E+00  0.00000000000E+00  0.59911374679E+02  0.13861658104E+03  0.12500073489E+03 0.  0.
    9000005    1    3    3    0    0  0.48194705672E+02  0.36270535661E+01  0.73886671163E+02  0.88295670040E+02  0.10000000000E+01 0.  0.
    9000005    1    3    3    0    0 -0.48194705672E+02 -0.36270535661E+01 -0.13975296484E+02  0.50320911003E+02  0.10000000000E+01 0.  0.
<mgrwt>
<rscale>  0 0.12500073E+03</rscale>
<asrwt>0</asrwt>
<pdfrwt beam="1">  1        4 0.15271381E-01 0.12500073E+03</pdfrwt>
<pdfrwt beam="2">  1       -4 0.60542466E-02 0.12500073E+03</pdfrwt>
<totfact> 0.10162170E+04</totfact>
</mgrwt>
</event>
<event>
 5    1  0.3487578E-002  0.1250043E+03  0.7818608E-02  0.1235063E+00
          4   -1    0    0  501    0  0.00000000000E+00  0.00000000000E+00  0.13955396644E+02  0.14013065171E+02  0.12700000000E+01 0.  1.
         -4   -1    0    0    0  501 -0.00000000000E+00 -0.00000000000E+00 -0.27929239327E+03  0.27929528073E+03  0.12700000000E+01 0.  1.
         25    2    1    2    0    0  0.00000000000E+00  0.00000000000E+00 -0.26533699663E+03  0.29330834590E+03  0.12500425592E+03 0.  0.
    9000005    1    3    3    0    0  0.54129553895E+02  0.85138961740E+01 -0.20317814498E+03  0.21043966743E+03  0.10000000000E+01 0.  0.
    9000005    1    3    3    0    0 -0.54129553895E+02 -0.85138961740E+01 -0.62158851654E+02  0.82868678473E+02  0.10000000000E+01 0.  0.
<mgrwt>
<rscale>  0 0.12500426E+03</rscale>
<asrwt>0</asrwt>
<pdfrwt beam="1">  1        4 0.21516425E-02 0.12500426E+03</pdfrwt>
<pdfrwt beam="2">  1       -4 0.42972715E-01 0.12500426E+03</pdfrwt>
<totfact> 0.76438745E+03</totfact>
</mgrwt>
</event>
<event>
 5    1  0.3487578E-002  0.1250017E+03  0.7818608E-02  0.1235067E+00
         -4   -1    0    0    0  501 -0.00000000000E+00  0.00000000000E+00  0.42640088424E+02  0.42658997185E+02  0.12700000000E+01 0. -1.
          4   -1    0    0  501    0  0.00000000000E+00 -0.00000000000E+00 -0.91568738457E+02  0.91577545079E+02  0.12700000000E+01 0. -1.
         25    2    1    2    0    0  0.00000000000E+00  0.00000000000E+00 -0.48928650033E+02  0.13423654226E+03  0.12500174593E+03 0.  0.
    9000005    1    3    3    0    0  0.38910530493E+01 -0.13397791326E+02  0.40951625202E+02  0.43274434865E+02  0.10000000000E+01 0.  0.
    9000005    1    3    3    0    0 -0.38910530493E+01  0.13397791326E+02 -0.89880275234E+02  0.90962107399E+02  0.10000000000E+01 0.  0.
<mgrwt>
<rscale>  0 0.12500175E+03</rscale>
<asrwt>0</asrwt>
<pdfrwt beam="2">  1        4 0.14089630E-01 0.12500175E+03</pdfrwt>
<pdfrwt beam="1">  1       -4 0.65621456E-02 0.12500175E+03</pdfrwt>
<totfact> 0.10253784E+04</totfact>
</mgrwt>
</event>
<event>
 5    1  0.3487578E-002  0.1249981E+03  0.7818608E-02  0.1235072E+00
         -4   -1    0    0    0  501 -0.00000000000E+00  0.00000000000E+00  0.52043426417E+03  0.52043581374E+03  0.12700000000E+01 0.  1.
          4   -1    0    0  501    0  0.00000000000E+00 -0.00000000000E+00 -0.74502322916E+01  0.75577021110E+01  0.12700000000E+01 0.  1.
         25    2    1    2    0    0  0.00000000000E+00  0.00000000000E+00  0.51298403188E+03  0.52799351585E+03  0.12499814326E+03 0.  0.
    9000005    1    3    3    0    0  0.51898709586E+01  0.37836676232E+02  0.46542412711E+03  0.46698947197E+03  0.10000000000E+01 0.  0.
    9000005    1    3    3    0    0 -0.51898709586E+01 -0.37836676232E+02  0.47559904767E+02  0.61004043884E+02  0.10000000000E+01 0.  0.
<mgrwt>
<rscale>  0 0.12499814E+03</rscale>
<asrwt>0</asrwt>
<pdfrwt beam="2">  1        4 0.11545759E-02 0.12499814E+03</pdfrwt>
<pdfrwt beam="1">  1       -4 0.80075184E-01 0.12499814E+03</pdfrwt>
<totfact> 0.53758196E+03</totfact>
</mgrwt>
</event>
<event>
 5    1  0.3487578E-002  0.1249981E+03  0.7818608E-02  0.1235072E+00
         -4   -1    0    0    0  501 -0.00000000000E+00  0.00000000000E+00  0.73284579557E+02  0.73295583093E+02  0.12700000000E+01 0.  1.
          4   -1    0    0  501    0  0.00000000000E+00 -0.00000000000E+00 -0.53278307125E+02  0.53293441530E+02  0.12700000000E+01 0.  1.
         25    2    1    2    0    0  0.00000000000E+00  0.00000000000E+00  0.20006272432E+02  0.12658902462E+03  0.12499812086E+03 0.  0.
    9000005    1    3    3    0    0  0.30060473270E+02  0.49838847202E+02  0.33043292927E+02  0.66935804702E+02  0.10000000000E+01 0.  0.
    9000005    1    3    3    0    0 -0.30060473270E+02 -0.49838847202E+02 -0.13037020494E+02  0.59653219921E+02  0.10000000000E+01 0.  0.
<mgrwt>
<rscale>  0 0.12499812E+03</rscale>
<asrwt>0</asrwt>
<pdfrwt beam="2">  1        4 0.81986732E-02 0.12499812E+03</pdfrwt>
<pdfrwt beam="1">  1       -4 0.11276561E-01 0.12499812E+03</pdfrwt>
<totfact> 0.10418529E+04</totfact>
</mgrwt>
</event>
<event>
 5    1  0.3487578E-002  0.1250013E+03  0.7818608E-02  0.1235067E+00
          4   -1    0    0  501    0  0.00000000000E+00  0.00000000000E+00  0.10378345826E+04  0.10378353596E+04  0.12700000000E+01 0.  1.
         -4   -1    0    0    0  501 -0.00000000000E+00 -0.00000000000E+00 -0.36559978976E+01  0.38702998111E+01  0.12700000000E+01 0.  1.
         25    2    1    2    0    0  0.00000000000E+00  0.00000000000E+00  0.10341785847E+04  0.10417056595E+04  0.12500134358E+03 0.  0.
    9000005    1    3    3    0    0 -0.23662822428E+02  0.16725462949E+02  0.55673347380E+02  0.62770947775E+02  0.10000000000E+01 0.  0.
    9000005    1    3    3    0    0  0.23662822428E+02 -0.16725462949E+02  0.97850523731E+03  0.97893471168E+03  0.10000000000E+01 0.  0.
<mgrwt>
<rscale>  0 0.12500134E+03</rscale>
<asrwt>0</asrwt>
<pdfrwt beam="1">  1        4 0.15968346E+00 0.12500134E+03</pdfrwt>
<pdfrwt beam="2">  1       -4 0.57900556E-03 0.12500134E+03</pdfrwt>
<totfact> 0.29254299E+03</totfact>
</mgrwt>
</event>
<event>
 5    1  0.3487578E-002  0.1250134E+03  0.7818608E-02  0.1235048E+00
         -4   -1    0    0    0  501 -0.00000000000E+00  0.00000000000E+00  0.49750671127E+01  0.51346073634E+01  0.12700000000E+01 0.  1.
          4   -1    0    0  501    0  0.00000000000E+00 -0.00000000000E+00 -0.77278011853E+03  0.77278116210E+03  0.12700000000E+01 0.  1.
         25    2    1    2    0    0  0.00000000000E+00  0.00000000000E+00 -0.76780505141E+03  0.77791576946E+03  0.12501338887E+03 0.  0.
    9000005    1    3    3    0    0  0.22415012266E+02  0.92440476791E+01 -0.25453474605E+02  0.35167663582E+02  0.10000000000E+01 0.  0.
    9000005    1    3    3    0    0 -0.22415012266E+02 -0.92440476791E+01 -0.74235157681E+03  0.74274810588E+03  0.10000000000E+01 0.  0.
<mgrwt>
<rscale>  0 0.12501339E+03</rscale>
<asrwt>0</asrwt>
<pdfrwt beam="2">  1        4 0.11890151E+00 0.12501339E+03</pdfrwt>
<pdfrwt beam="1">  1       -4 0.77774815E-03 0.12501339E+03</pdfrwt>
<totfact> 0.39258370E+03</totfact>
</mgrwt>
</event>
<event>
 5    1  0.3487578E-002  0.1249976E+03  0.7818608E-02  0.1235073E+00
         -4   -1    0    0    0  501 -0.00000000000E+00  0.00000000000E+00  0.18743055386E+03  0.18743485647E+03  0.12700000000E+01 0.  1.
          4   -1    0    0  501    0  0.00000000000E+00 -0.00000000000E+00 -0.20816368114E+02  0.20855073278E+02  0.12700000000E+01 0.  1.
         25    2    1    2    0    0  0.00000000000E+00  0.00000000000E+00  0.16661418575E+03  0.20828992975E+03  0.12499763175E+03 0.  0.
    9000005    1    3    3    0    0 -0.56820068285E+01  0.22365986071E+02  0.18007861753E+03  0.18155393420E+03  0.10000000000E+01 0.  0.
    9000005    1    3    3    0    0  0.56820068285E+01 -0.22365986071E+02 -0.13464431782E+02  0.26735995544E+02  0.10000000000E+01 0.  0.
<mgrwt>
<rscale>  0 0.12499763E+03</rscale>
<asrwt>0</asrwt>
<pdfrwt beam="2">  1        4 0.32058265E-02 0.12499763E+03</pdfrwt>
<pdfrwt beam="1">  1       -4 0.28838778E-01 0.12499763E+03</pdfrwt>
<totfact> 0.88760621E+03</totfact>
</mgrwt>
</event>
<event>
 5    1  0.3487578E-002  0.1250027E+03  0.7818608E-02  0.1235065E+00
         -4   -1    0    0    0  501 -0.00000000000E+00  0.00000000000E+00  0.42261198880E+02  0.42280277090E+02  0.12700000000E+01 0. -1.
          4   -1    0    0  501    0  0.00000000000E+00 -0.00000000000E+00 -0.92390794899E+02  0.92399523170E+02  0.12700000000E+01 0. -1.
         25    2    1    2    0    0  0.00000000000E+00  0.00000000000E+00 -0.50129596019E+02  0.13467980026E+03  0.12500268878E+03 0.  0.
    9000005    1    3    3    0    0  0.44132820456E+02  0.37657717417E+02 -0.37007496733E-01  0.58024226768E+02  0.10000000000E+01 0.  0.
    9000005    1    3    3    0    0 -0.44132820456E+02 -0.37657717417E+02 -0.50092588522E+02  0.76655573492E+02  0.10000000000E+01 0.  0.
<mgrwt>
<rscale>  0 0.12500269E+03</rscale>
<asrwt>0</asrwt>
<pdfrwt beam="2">  1        4 0.14216107E-01 0.12500269E+03</pdfrwt>
<pdfrwt beam="1">  1       -4 0.65038619E-02 0.12500269E+03</pdfrwt>
<totfact> 0.10244203E+04</totfact>
</mgrwt>
</event>
<event>
 5    1  0.3487578E-002  0.1250019E+03  0.7818608E-02  0.1235066E+00
          4   -1    0    0  501    0  0.00000000000E+00  0.00000000000E+00  0.23886693064E+03  0.23887030676E+03  0.12700000000E+01 0.  1.
         -4   -1    0    0    0  501 -0.00000000000E+00 -0.00000000000E+00 -0.16325584679E+02  0.16374908095E+02  0.12700000000E+01 0.  1.
         25    2    1    2    0    0  0.00000000000E+00  0.00000000000E+00  0.22254134596E+03  0.25524521486E+03  0.12500187617E+03 0.  0.
    9000005    1    3    3    0    0 -0.49618298162E+02  0.22495973302E+01  0.18871159359E+03  0.19514123540E+03  0.10000000000E+01 0.  0.
    9000005    1    3    3    0    0  0.49618298162E+02 -0.22495973302E+01  0.33829752373E+02  0.60103979455E+02  0.10000000000E+01 0.  0.
<mgrwt>
<rscale>  0 0.12500188E+03</rscale>
<asrwt>0</asrwt>
<pdfrwt beam="1">  1        4 0.36752811E-01 0.12500188E+03</pdfrwt>
<pdfrwt beam="2">  1       -4 0.25156823E-02 0.12500188E+03</pdfrwt>
<totfact> 0.81574584E+03</totfact>
</mgrwt>
</event>
<event>
 5    1  0.3487578E-002  0.1249876E+03  0.7818608E-02  0.1235089E+00
         -4   -1    0    0    0  501 -0.00000000000E+00  0.00000000000E+00  0.12707112174E+03  0.12707746802E+03  0.12700000000E+01 0. -1.
          4   -1    0    0  501    0  0.00000000000E+00 -0.00000000000E+00 -0.30714330252E+02  0.30740575513E+02  0.12700000000E+01 0. -1.
         25    2    1    2    0    0  0.00000000000E+00  0.00000000000E+00  0.96356791484E+02  0.15781804354E+03  0.12498761379E+03 0.  0.
    9000005    1    3    3    0    0  0.55668402041E+02 -0.15503185168E+02  0.18160937667E+02  0.60581675390E+02  0.10000000000E+01 0.  0.
    9000005    1    3    3    0    0 -0.55668402041E+02  0.15503185168E+02  0.78195853817E+02  0.97236368146E+02  0.10000000000E+01 0.  0.
<mgrwt>
<rscale>  0 0.12498761E+03</rscale>
<asrwt>0</asrwt>
<pdfrwt beam="2">  1        4 0.47277886E-02 0.12498761E+03</pdfrwt>
<pdfrwt beam="1">  1       -4 0.19551910E-01 0.12498761E+03</pdfrwt>
<totfact> 0.97792336E+03</totfact>
</mgrwt>
</event>
<event>
 4    1  0.3487578E-002  0.1256547E+03  0.7818608E-02  0.1234050E+00
          4   -1    0    0  501    0  0.00000000000E+00  0.00000000000E+00  0.23409136365E+03  0.23409480865E+03  0.12700000000E+01 0. -1.
         -4   -1    0    0    0  501 -0.00000000000E+00 -0.00000000000E+00 -0.16834638113E+02  0.16882474357E+02  0.12700000000E+01 0. -1.
    9000005    1    1    2    0    0  0.11981169573E+01 -0.46720154910E+02  0.19247141723E+03  0.19806679381E+03  0.10000000000E+01 0.  0.
    9000005    1    1    2    0    0 -0.11981169573E+01  0.46720154910E+02  0.24785308307E+02  0.52910489196E+02  0.10000000000E+01 0.  0.
<mgrwt>
<rscale>  0 0.12565473E+03</rscale>
<asrwt>0</asrwt>
<pdfrwt beam="1">  1        4 0.36018000E-01 0.12565473E+03</pdfrwt>
<pdfrwt beam="2">  1       -4 0.25938891E-02 0.12565473E+03</pdfrwt>
<totfact> 0.81001959E+03</totfact>
</mgrwt>
</event>
<event>
 5    1  0.3487578E-002  0.1249473E+03  0.7818608E-02  0.1235152E+00
          4   -1    0    0  501    0  0.00000000000E+00  0.00000000000E+00  0.12973666461E+03  0.12974288051E+03  0.12700000000E+01 0. -1.
         -4   -1    0    0    0  501 -0.00000000000E+00 -0.00000000000E+00 -0.30063353067E+02  0.30090166128E+02  0.12700000000E+01 0. -1.
         25    2    1    2    0    0  0.00000000000E+00  0.00000000000E+00  0.99673311539E+02  0.15983304664E+03  0.12494732396E+03 0.  0.
    9000005    1    3    3    0    0  0.17381960660E+02  0.57061945978E+02  0.26119237149E+02  0.65126129813E+02  0.10000000000E+01 0.  0.
    9000005    1    3    3    0    0 -0.17381960660E+02 -0.57061945978E+02  0.73554074389E+02  0.94706916824E+02  0.10000000000E+01 0.  0.
<mgrwt>
<rscale>  0 0.12494732E+03</rscale>
<asrwt>0</asrwt>
<pdfrwt beam="1">  1        4 0.19962028E-01 0.12494732E+03</pdfrwt>
<pdfrwt beam="2">  1       -4 0.46276718E-02 0.12494732E+03</pdfrwt>
<totfact> 0.97490367E+03</totfact>
</mgrwt>
</event>
<event>
 5    1  0.3487578E-002  0.1249891E+03  0.7818608E-02  0.1235086E+00
          4   -1    0    0  501    0  0.00000000000E+00  0.00000000000E+00  0.18331821026E+03  0.18332260939E+03  0.12700000000E+01 0. -1.
         -4   -1    0    0    0  501 -0.00000000000E+00 -0.00000000000E+00 -0.21281282176E+02  0.21319143301E+02  0.12700000000E+01 0. -1.
         25    2    1    2    0    0  0.00000000000E+00  0.00000000000E+00  0.16203692809E+03  0.20464175269E+03  0.12498912305E+03 0.  0.
    9000005    1    3    3    0    0  0.29294319119E+02 -0.68473500431E+01  0.17068871914E+03  0.17332248029E+03  0.10000000000E+01 0.  0.
    9000005    1    3    3    0    0 -0.29294319119E+02  0.68473500431E+01 -0.86517910481E+01  0.31319272398E+02  0.10000000000E+01 0.  0.
<mgrwt>
<rscale>  0 0.12498912E+03</rscale>
<asrwt>0</asrwt>
<pdfrwt beam="1">  1        4 0.28206051E-01 0.12498912E+03</pdfrwt>
<pdfrwt beam="2">  1       -4 0.32772944E-02 0.12498912E+03</pdfrwt>
<totfact> 0.89380243E+03</totfact>
</mgrwt>
</event>
<event>
 5    1  0.3487578E-002  0.1250016E+03  0.7818608E-02  0.1235067E+00
         -4   -1    0    0    0  501 -0.00000000000E+00  0.00000000000E+00  0.21186303857E+03  0.21186684501E+03  0.12700000000E+01 0.  1.
          4   -1    0    0  501    0  0.00000000000E+00 -0.00000000000E+00 -0.18412234455E+02  0.18455982164E+02  0.12700000000E+01 0.  1.
         25    2    1    2    0    0  0.00000000000E+00  0.00000000000E+00  0.19345080412E+03  0.23032282717E+03  0.12500156440E+03 0.  0.
    9000005    1    3    3    0    0  0.38684238200E+02 -0.47629432220E+02  0.74899455643E+02  0.96829548973E+02  0.10000000000E+01 0.  0.
    9000005    1    3    3    0    0 -0.38684238200E+02  0.47629432220E+02  0.11855134847E+03  0.13349327820E+03  0.10000000000E+01 0.  0.
<mgrwt>
<rscale>  0 0.12500156E+03</rscale>
<asrwt>0</asrwt>
<pdfrwt beam="2">  1        4 0.28363096E-02 0.12500156E+03</pdfrwt>
<pdfrwt beam="1">  1       -4 0.32597970E-01 0.12500156E+03</pdfrwt>
<totfact> 0.85257076E+03</totfact>
</mgrwt>
</event>
<event>
 5    1  0.3487578E-002  0.1250021E+03  0.7818608E-02  0.1235066E+00
          4   -1    0    0  501    0  0.00000000000E+00  0.00000000000E+00  0.13848330996E+02  0.13906443520E+02  0.12700000000E+01 0.  1.
         -4   -1    0    0    0  501 -0.00000000000E+00 -0.00000000000E+00 -0.28143302402E+03  0.28143588952E+03  0.12700000000E+01 0.  1.
         25    2    1    2    0    0  0.00000000000E+00  0.00000000000E+00 -0.26758469302E+03  0.29534233304E+03  0.12500210296E+03 0.  0.
    9000005    1    3    3    0    0  0.19003899934E+02 -0.51996627632E+02 -0.20229366417E+03  0.20973441316E+03  0.10000000000E+01 0.  0.
    9000005    1    3    3    0    0 -0.19003899934E+02  0.51996627632E+02 -0.65291028849E+02  0.85607919879E+02  0.10000000000E+01 0.  0.
<mgrwt>
<rscale>  0 0.12500210E+03</rscale>
<asrwt>0</asrwt>
<pdfrwt beam="1">  1        4 0.21352033E-02 0.12500210E+03</pdfrwt>
<pdfrwt beam="2">  1       -4 0.43302075E-01 0.12500210E+03</pdfrwt>
<totfact> 0.76183271E+03</totfact>
</mgrwt>
</event>
<event>
 5    1  0.3487578E-002  0.1249916E+03  0.7818608E-02  0.1235082E+00
         -4   -1    0    0    0  501 -0.00000000000E+00  0.00000000000E+00  0.42610295694E+01  0.44462650609E+01  0.12700000000E+01 0. -1.
          4   -1    0    0  501    0  0.00000000000E+00 -0.00000000000E+00 -0.89693055892E+03  0.89693145804E+03  0.12700000000E+01 0. -1.
         25    2    1    2    0    0  0.00000000000E+00  0.00000000000E+00 -0.89266952935E+03  0.90137772310E+03  0.12499164402E+03 0.  0.
    9000005    1    3    3    0    0 -0.60376476518E+02  0.98026748890E+01 -0.53849440300E+03  0.54195814729E+03  0.10000000000E+01 0.  0.
    9000005    1    3    3    0    0  0.60376476518E+02 -0.98026748890E+01 -0.35417512635E+03  0.35941957581E+03  0.10000000000E+01 0.  0.
<mgrwt>
<rscale>  0 0.12499164E+03</rscale>
<asrwt>0</asrwt>
<pdfrwt beam="2">  1        4 0.13800349E+00 0.12499164E+03</pdfrwt>
<pdfrwt beam="1">  1       -4 0.66986177E-03 0.12499164E+03</pdfrwt>
<totfact> 0.34113473E+03</totfact>
</mgrwt>
</event>
<event>
 5    1  0.3487578E-002  0.1250028E+03  0.7818608E-02  0.1235065E+00
          4   -1    0    0  501    0  0.00000000000E+00  0.00000000000E+00  0.54776649461E+03  0.54776796686E+03  0.12700000000E+01 0. -1.
         -4   -1    0    0    0  501 -0.00000000000E+00 -0.00000000000E+00 -0.70735112896E+01  0.71866168650E+01  0.12700000000E+01 0. -1.
         25    2    1    2    0    0  0.00000000000E+00  0.00000000000E+00  0.54069298332E+03  0.55495458373E+03  0.12500275111E+03 0.  0.
    9000005    1    3    3    0    0  0.28306028766E+02  0.32828640938E+02  0.70494689027E+02  0.82761416804E+02  0.10000000000E+01 0.  0.
    9000005    1    3    3    0    0 -0.28306028766E+02 -0.32828640938E+02  0.47019829430E+03  0.47219316692E+03  0.10000000000E+01 0.  0.
<mgrwt>
<rscale>  0 0.12500275E+03</rscale>
<asrwt>0</asrwt>
<pdfrwt beam="1">  1        4 0.84280542E-01 0.12500275E+03</pdfrwt>
<pdfrwt beam="2">  1       -4 0.10970467E-02 0.12500275E+03</pdfrwt>
<totfact> 0.51837215E+03</totfact>
</mgrwt>
</event>
<event>
 5    1  0.3487578E-002  0.1250008E+03  0.7818608E-02  0.1235068E+00
          4   -1    0    0  501    0  0.00000000000E+00  0.00000000000E+00  0.11548799355E+03  0.11549497632E+03  0.12700000000E+01 0.  1.
         -4   -1    0    0    0  501 -0.00000000000E+00 -0.00000000000E+00 -0.33804387931E+02  0.33828235889E+02  0.12700000000E+01 0.  1.
         25    2    1    2    0    0  0.00000000000E+00  0.00000000000E+00  0.81683605622E+02  0.14932321221E+03  0.12500084110E+03 0.  0.
    9000005    1    3    3    0    0  0.11489171253E+01  0.56659707161E+02  0.93796990446E+01  0.57451032891E+02  0.10000000000E+01 0.  0.
    9000005    1    3    3    0    0 -0.11489171253E+01 -0.56659707161E+02  0.72303906578E+02  0.91872179317E+02  0.10000000000E+01 0.  0.
<mgrwt>
<rscale>  0 0.12500084E+03</rscale>
<asrwt>0</asrwt>
<pdfrwt beam="1">  1        4 0.17769755E-01 0.12500084E+03</pdfrwt>
<pdfrwt beam="2">  1       -4 0.52030467E-02 0.12500084E+03</pdfrwt>
<totfact> 0.99436894E+03</totfact>
</mgrwt>
</event>
<event>
 5    1  0.3487578E-002  0.1249992E+03  0.7818608E-02  0.1235071E+00
         -4   -1    0    0    0  501 -0.00000000000E+00  0.00000000000E+00  0.28622945239E+02  0.28651106334E+02  0.12700000000E+01 0.  1.
          4   -1    0    0  501    0  0.00000000000E+00 -0.00000000000E+00 -0.13637274840E+03  0.13637866184E+03  0.12700000000E+01 0.  1.
         25    2    1    2    0    0  0.00000000000E+00  0.00000000000E+00 -0.10774980316E+03  0.16502976818E+03  0.12499921721E+03 0.  0.
    9000005    1    3    3    0    0 -0.61046207788E+01 -0.41385242261E+02 -0.11516614375E+03  0.12253262969E+03  0.10000000000E+01 0.  0.
    9000005    1    3    3    0    0  0.61046207788E+01  0.41385242261E+02  0.74163405910E+01  0.42497138488E+02  0.10000000000E+01 0.  0.
<mgrwt>
<rscale>  0 0.12499922E+03</rscale>
<asrwt>0</asrwt>
<pdfrwt beam="2">  1        4 0.20983044E-01 0.12499922E+03</pdfrwt>
<pdfrwt beam="1">  1       -4 0.44061512E-02 0.12499922E+03</pdfrwt>
<totfact> 0.96383450E+03</totfact>
</mgrwt>
</event>
<event>
 5    1  0.3487578E-002  0.1250056E+03  0.7818608E-02  0.1235061E+00
          4   -1    0    0  501    0  0.00000000000E+00  0.00000000000E+00  0.45692217154E+03  0.45692393650E+03  0.12700000000E+01 0.  1.
         -4   -1    0    0    0  501 -0.00000000000E+00 -0.00000000000E+00 -0.85008558074E+01  0.85951992100E+01  0.12700000000E+01 0.  1.
         25    2    1    2    0    0  0.00000000000E+00  0.00000000000E+00  0.44842131573E+03  0.46551913571E+03  0.12500555710E+03 0.  0.
    9000005    1    3    3    0    0  0.53799696423E+01 -0.43475982412E+02  0.58232228450E+02  0.72877277325E+02  0.10000000000E+01 0.  0.
    9000005    1    3    3    0    0 -0.53799696423E+01  0.43475982412E+02  0.39018908728E+03  0.39264185838E+03  0.10000000000E+01 0.  0.
<mgrwt>
<rscale>  0 0.12500556E+03</rscale>
<asrwt>0</asrwt>
<pdfrwt beam="1">  1        4 0.70303140E-01 0.12500556E+03</pdfrwt>
<pdfrwt beam="2">  1       -4 0.13152164E-02 0.12500556E+03</pdfrwt>
<totfact> 0.58635369E+03</totfact>
</mgrwt>
</event>
<event>
 5    1  0.3487578E-002  0.1249894E+03  0.7818608E-02  0.1235086E+00
         -4   -1    0    0    0  501 -0.00000000000E+00  0.00000000000E+00  0.44608829104E+03  0.44609009886E+03  0.12700000000E+01 0.  1.
          4   -1    0    0  501    0  0.00000000000E+00 -0.00000000000E+00 -0.87072961733E+01  0.87994264955E+01  0.12700000000E+01 0.  1.
         25    2    1    2    0    0  0.00000000000E+00  0.00000000000E+00  0.43738099487E+03  0.45488952536E+03  0.12498938199E+03 0.  0.
    9000005    1    3    3    0    0 -0.53178234478E+02 -0.52047811593E+01  0.10078367350E+03  0.11407612903E+03  0.10000000000E+01 0.  0.
    9000005    1    3    3    0    0  0.53178234478E+02  0.52047811593E+01  0.33659732137E+03  0.34081339633E+03  0.10000000000E+01 0.  0.
<mgrwt>
<rscale>  0 0.12498938E+03</rscale>
<asrwt>0</asrwt>
<pdfrwt beam="2">  1        4 0.13468105E-02 0.12498938E+03</pdfrwt>
<pdfrwt beam="1">  1       -4 0.68636173E-01 0.12498938E+03</pdfrwt>
<totfact> 0.59556479E+03</totfact>
</mgrwt>
</event>
<event>
 5    1  0.3487578E-002  0.1249975E+03  0.7818608E-02  0.1235073E+00
          4   -1    0    0  501    0  0.00000000000E+00  0.00000000000E+00  0.98692536940E+02  0.98700707939E+02  0.12700000000E+01 0.  1.
         -4   -1    0    0    0  501 -0.00000000000E+00 -0.00000000000E+00 -0.39558392742E+02  0.39578773811E+02  0.12700000000E+01 0.  1.
         25    2    1    2    0    0  0.00000000000E+00  0.00000000000E+00  0.59134144198E+02  0.13827948175E+03  0.12499747223E+03 0.  0.
    9000005    1    3    3    0    0  0.18547167650E+02 -0.27579852310E+02  0.88109420499E+02  0.94174920557E+02  0.10000000000E+01 0.  0.
    9000005    1    3    3    0    0 -0.18547167650E+02  0.27579852310E+02 -0.28975276301E+02  0.44104561193E+02  0.10000000000E+01 0.  0.
<mgrwt>
<rscale>  0 0.12499747E+03</rscale>
<asrwt>0</asrwt>
<pdfrwt beam="1">  1        4 0.15185663E-01 0.12499747E+03</pdfrwt>
<pdfrwt beam="2">  1       -4 0.60881029E-02 0.12499747E+03</pdfrwt>
<totfact> 0.10169949E+04</totfact>
</mgrwt>
</event>
<event>
 5    1  0.3487578E-002  0.1250056E+03  0.7818608E-02  0.1235061E+00
          4   -1    0    0  501    0  0.00000000000E+00  0.00000000000E+00  0.21595621569E+02  0.21632932556E+02  0.12700000000E+01 0. -1.
         -4   -1    0    0    0  501 -0.00000000000E+00 -0.00000000000E+00 -0.18070207605E+03  0.18070653887E+03  0.12700000000E+01 0. -1.
         25    2    1    2    0    0  0.00000000000E+00  0.00000000000E+00 -0.15910645449E+03  0.20233947143E+03  0.12500559123E+03 0.  0.
    9000005    1    3    3    0    0 -0.27331117425E+02  0.12218480602E+02  0.92411016824E+01  0.31347714561E+02  0.10000000000E+01 0.  0.
    9000005    1    3    3    0    0  0.27331117425E+02 -0.12218480602E+02 -0.16834755617E+03  0.17099175686E+03  0.10000000000E+01 0.  0.
<mgrwt>
<rscale>  0 0.12500559E+03</rscale>
<asrwt>0</asrwt>
<pdfrwt beam="1">  1        4 0.33256168E-02 0.12500559E+03</pdfrwt>
<pdfrwt beam="2">  1       -4 0.27803532E-01 0.12500559E+03</pdfrwt>
<totfact> 0.89731206E+03</totfact>
</mgrwt>
</event>
<event>
 5    1  0.3487578E-002  0.1250014E+03  0.7818608E-02  0.1235067E+00
          4   -1    0    0  501    0  0.00000000000E+00  0.00000000000E+00  0.85632788459E+01  0.86569419885E+01  0.12700000000E+01 0.  1.
         -4   -1    0    0    0  501 -0.00000000000E+00 -0.00000000000E+00 -0.45359711773E+03  0.45359889563E+03  0.12700000000E+01 0.  1.
         25    2    1    2    0    0  0.00000000000E+00  0.00000000000E+00 -0.44503383889E+03  0.46225583762E+03  0.12500136662E+03 0.  0.
    9000005    1    3    3    0    0 -0.12300914175E+02  0.47723614199E+02 -0.80421079139E+02  0.94326061147E+02  0.10000000000E+01 0.  0.
    9000005    1    3    3    0    0  0.12300914175E+02 -0.47723614199E+02 -0.36461275975E+03  0.36792977647E+03  0.10000000000E+01 0.  0.
<mgrwt>
<rscale>  0 0.12500137E+03</rscale>
<asrwt>0</asrwt>
<pdfrwt beam="1">  1        4 0.13247695E-02 0.12500137E+03</pdfrwt>
<pdfrwt beam="2">  1       -4 0.69791495E-01 0.12500137E+03</pdfrwt>
<totfact> 0.58914820E+03</totfact>
</mgrwt>
</event>
<event>
 5    1  0.3487578E-002  0.1250002E+03  0.7818608E-02  0.1235069E+00
          4   -1    0    0  501    0  0.00000000000E+00  0.00000000000E+00  0.23270466045E+02  0.23305095793E+02  0.12700000000E+01 0. -1.
         -4   -1    0    0    0  501 -0.00000000000E+00 -0.00000000000E+00 -0.16770163187E+03  0.16770644064E+03  0.12700000000E+01 0. -1.
         25    2    1    2    0    0  0.00000000000E+00  0.00000000000E+00 -0.14443116583E+03  0.19101153644E+03  0.12500018156E+03 0.  0.
    9000005    1    3    3    0    0  0.19638033545E+01 -0.52393839174E+01 -0.16732557947E+03  0.16742209296E+03  0.10000000000E+01 0.  0.
    9000005    1    3    3    0    0 -0.19638033545E+01  0.52393839174E+01  0.22894413640E+02  0.23589443473E+02  0.10000000000E+01 0.  0.
<mgrwt>
<rscale>  0 0.12500018E+03</rscale>
<asrwt>0</asrwt>
<pdfrwt beam="1">  1        4 0.35831055E-02 0.12500018E+03</pdfrwt>
<pdfrwt beam="2">  1       -4 0.25803284E-01 0.12500018E+03</pdfrwt>
<totfact> 0.91671236E+03</totfact>
</mgrwt>
</event>
<event>
 5    1  0.3487578E-002  0.1249993E+03  0.7818608E-02  0.1235070E+00
         -4   -1    0    0    0  501 -0.00000000000E+00  0.00000000000E+00  0.24521122501E+02  0.24553988448E+02  0.12700000000E+01 0.  1.
          4   -1    0    0  501    0  0.00000000000E+00 -0.00000000000E+00 -0.15915759097E+03  0.15916265788E+03  0.12700000000E+01 0.  1.
         25    2    1    2    0    0  0.00000000000E+00  0.00000000000E+00 -0.13463646847E+03  0.18371664632E+03  0.12499930998E+03 0.  0.
    9000005    1    3    3    0    0 -0.45242245969E+02 -0.48829423752E+00 -0.13067256764E+03  0.13828745129E+03  0.10000000000E+01 0.  0.
    9000005    1    3    3    0    0  0.45242245969E+02  0.48829423752E+00 -0.39639008271E+01  0.45429195033E+02  0.10000000000E+01 0.  0.
<mgrwt>
<rscale>  0 0.12499931E+03</rscale>
<asrwt>0</asrwt>
<pdfrwt beam="2">  1        4 0.24488701E-01 0.12499931E+03</pdfrwt>
<pdfrwt beam="1">  1       -4 0.37753984E-02 0.12499931E+03</pdfrwt>
<totfact> 0.92953678E+03</totfact>
</mgrwt>
</event>
<event>
 5    1  0.3487578E-002  0.1250010E+03  0.7818608E-02  0.1235068E+00
         -4   -1    0    0    0  501 -0.00000000000E+00  0.00000000000E+00  0.65930779233E+03  0.65930901550E+03  0.12700000000E+01 0. -1.
          4   -1    0    0  501    0  0.00000000000E+00 -0.00000000000E+00 -0.58555686556E+01  0.59917096292E+01  0.12700000000E+01 0. -1.
         25    2    1    2    0    0  0.00000000000E+00  0.00000000000E+00  0.65345222367E+03  0.66530072513E+03  0.12500098496E+03 0.  0.
    9000005    1    3    3    0    0 -0.55033482995E+01  0.23170245542E+02  0.63423553236E+03  0.63468327348E+03  0.10000000000E+01 0.  0.
    9000005    1    3    3    0    0  0.55033482995E+01 -0.23170245542E+02  0.19216691310E+02  0.30617451656E+02  0.10000000000E+01 0.  0.
<mgrwt>
<rscale>  0 0.12500098E+03</rscale>
<asrwt>0</asrwt>
<pdfrwt beam="2">  1        4 0.91142344E-03 0.12500098E+03</pdfrwt>
<pdfrwt beam="1">  1       -4 0.10144251E+00 0.12500098E+03</pdfrwt>
<totfact> 0.44981780E+03</totfact>
</mgrwt>
</event>
<event>
 5    1  0.3487578E-002  0.1249937E+03  0.7818608E-02  0.1235079E+00
         -4   -1    0    0    0  501 -0.00000000000E+00  0.00000000000E+00  0.20194813302E+03  0.20195212634E+03  0.12700000000E+01 0. -1.
          4   -1    0    0  501    0  0.00000000000E+00 -0.00000000000E+00 -0.19315865411E+02  0.19357571040E+02  0.12700000000E+01 0. -1.
         25    2    1    2    0    0  0.00000000000E+00  0.00000000000E+00  0.18263226761E+03  0.22130969738E+03  0.12499374776E+03 0.  0.
    9000005    1    3    3    0    0 -0.48761254011E+01 -0.45793334448E+01 -0.18688790617E+02  0.19875054426E+02  0.10000000000E+01 0.  0.
    9000005    1    3    3    0    0  0.48761254011E+01  0.45793334448E+01  0.20132105823E+03  0.20143464295E+03  0.10000000000E+01 0.  0.
<mgrwt>
<rscale>  0 0.12499375E+03</rscale>
<asrwt>0</asrwt>
<pdfrwt beam="2">  1        4 0.29751871E-02 0.12499375E+03</pdfrwt>
<pdfrwt beam="1">  1       -4 0.31072457E-01 0.12499375E+03</pdfrwt>
<totfact> 0.86673634E+03</totfact>
</mgrwt>
</event>
<event>
 5    1  0.3487578E-002  0.1249971E+03  0.7818608E-02  0.1235074E+00
         -4   -1    0    0    0  501 -0.00000000000E+00  0.00000000000E+00  0.44862283360E+02  0.44880255885E+02  0.12700000000E+01 0.  1.
          4   -1    0    0  501    0  0.00000000000E+00 -0.00000000000E+00 -0.87027997811E+02  0.87037263876E+02  0.12700000000E+01 0.  1.
         25    2    1    2    0    0  0.00000000000E+00  0.00000000000E+00 -0.42165714451E+02  0.13191751976E+03  0.12499713815E+03 0.  0.
    9000005    1    3    3    0    0  0.24044993039E+02 -0.55482255063E+02 -0.44419062515E+01  0.60639696967E+02  0.10000000000E+01 0.  0.
    9000005    1    3    3    0    0 -0.24044993039E+02  0.55482255063E+02 -0.37723808199E+02  0.71277822793E+02  0.10000000000E+01 0.  0.
<mgrwt>
<rscale>  0 0.12499714E+03</rscale>
<asrwt>0</asrwt>
<pdfrwt beam="2">  1        4 0.13391018E-01 0.12499714E+03</pdfrwt>
<pdfrwt beam="1">  1       -4 0.69039850E-02 0.12499714E+03</pdfrwt>
<totfact> 0.10304124E+04</totfact>
</mgrwt>
</event>
<event>
 5    1  0.3487578E-002  0.1249992E+03  0.7818608E-02  0.1235071E+00
         -4   -1    0    0    0  501 -0.00000000000E+00  0.00000000000E+00  0.23925513888E+03  0.23925850953E+03  0.12700000000E+01 0. -1.
          4   -1    0    0  501    0  0.00000000000E+00 -0.00000000000E+00 -0.16298304549E+02  0.16347710273E+02  0.12700000000E+01 0. -1.
         25    2    1    2    0    0  0.00000000000E+00  0.00000000000E+00  0.22295683433E+03  0.25560621980E+03  0.12499915850E+03 0.  0.
    9000005    1    3    3    0    0  0.12533807516E+01  0.47676681081E+02  0.19405041455E+03  0.19982792665E+03  0.10000000000E+01 0.  0.
    9000005    1    3    3    0    0 -0.12533807516E+01 -0.47676681081E+02  0.28906419786E+02  0.55778293153E+02  0.10000000000E+01 0.  0.
<mgrwt>
<rscale>  0 0.12499916E+03</rscale>
<asrwt>0</asrwt>
<pdfrwt beam="2">  1        4 0.25114915E-02 0.12499916E+03</pdfrwt>
<pdfrwt beam="1">  1       -4 0.36812538E-01 0.12499916E+03</pdfrwt>
<totfact> 0.81528178E+03</totfact>
</mgrwt>
</event>
<event>
 5    1  0.3487578E-002  0.1250182E+03  0.7818608E-02  0.1235041E+00
         -4   -1    0    0    0  501 -0.00000000000E+00  0.00000000000E+00  0.10321998732E+03  0.10322779995E+03  0.12700000000E+01 0.  1.
          4   -1    0    0  501    0  0.00000000000E+00 -0.00000000000E+00 -0.37835058556E+02  0.37856367443E+02  0.12700000000E+01 0.  1.
         25    2    1    2    0    0  0.00000000000E+00  0.00000000000E+00  0.65384928763E+02  0.14108416739E+03  0.12501821219E+03 0.  0.
    9000005    1    3    3    0    0 -0.57308213039E+02  0.24938887972E+02  0.33208292681E+02  0.70781142388E+02  0.10000000000E+01 0.  0.
    9000005    1    3    3    0    0  0.57308213039E+02 -0.24938887972E+02  0.32176636081E+02  0.70303025003E+02  0.10000000000E+01 0.  0.
<mgrwt>
<rscale>  0 0.12501821E+03</rscale>
<asrwt>0</asrwt>
<pdfrwt beam="2">  1        4 0.58230184E-02 0.12501821E+03</pdfrwt>
<pdfrwt beam="1">  1       -4 0.15882238E-01 0.12501821E+03</pdfrwt>
<totfact> 0.10107018E+04</totfact>
</mgrwt>
</event>
<event>
 5    1  0.3487578E-002  0.1250401E+03  0.7818608E-02  0.1235007E+00
         -4   -1    0    0    0  501 -0.00000000000E+00  0.00000000000E+00  0.16901358407E+03  0.16901835551E+03  0.12700000000E+01 0.  1.
          4   -1    0    0  501    0  0.00000000000E+00 -0.00000000000E+00 -0.23104337991E+02  0.23139216365E+02  0.12700000000E+01 0.  1.
         25    2    1    2    0    0  0.00000000000E+00  0.00000000000E+00  0.14590924608E+03  0.19215757188E+03  0.12504009092E+03 0.  0.
    9000005    1    3    3    0    0  0.45855922063E+02 -0.36722083099E+02  0.40121010045E+02  0.71147539820E+02  0.10000000000E+01 0.  0.
    9000005    1    3    3    0    0 -0.45855922063E+02  0.36722083099E+02  0.10578823603E+03  0.12101003206E+03  0.10000000000E+01 0.  0.
<mgrwt>
<rscale>  0 0.12504009E+03</rscale>
<asrwt>0</asrwt>
<pdfrwt beam="2">  1        4 0.35575635E-02 0.12504009E+03</pdfrwt>
<pdfrwt beam="1">  1       -4 0.26005140E-01 0.12504009E+03</pdfrwt>
<totfact> 0.91391173E+03</totfact>
</mgrwt>
</event>
<event>
 5    1  0.3487578E-002  0.1249999E+03  0.7818608E-02  0.1235069E+00
          4   -1    0    0  501    0  0.00000000000E+00  0.00000000000E+00  0.90296871445E+02  0.90305802099E+02  0.12700000000E+01 0.  1.
         -4   -1    0    0    0  501 -0.00000000000E+00 -0.00000000000E+00 -0.43239621979E+02  0.43258268677E+02  0.12700000000E+01 0.  1.
         25    2    1    2    0    0  0.00000000000E+00  0.00000000000E+00  0.47057249465E+02  0.13356407078E+03  0.12499990510E+03 0.  0.
    9000005    1    3    3    0    0  0.46422544411E+02 -0.13862990312E+02  0.65704580806E+02  0.81641454353E+02  0.10000000000E+01 0.  0.
    9000005    1    3    3    0    0 -0.46422544411E+02  0.13862990312E+02 -0.18647331341E+02  0.51922616422E+02  0.10000000000E+01 0.  0.
<mgrwt>
<rscale>  0 0.12499991E+03</rscale>
<asrwt>0</asrwt>
<pdfrwt beam="1">  1        4 0.13893948E-01 0.12499991E+03</pdfrwt>
<pdfrwt beam="2">  1       -4 0.66543709E-02 0.12499991E+03</pdfrwt>
<totfact> 0.10268448E+04</totfact>
</mgrwt>
</event>
<event>
 5    1  0.3487578E-002  0.1249996E+03  0.7818608E-02  0.1235070E+00
          4   -1    0    0  501    0  0.00000000000E+00  0.00000000000E+00  0.10517459238E+02  0.10593859014E+02  0.12700000000E+01 0.  1.
         -4   -1    0    0    0  501 -0.00000000000E+00 -0.00000000000E+00 -0.36998215626E+03  0.36998433595E+03  0.12700000000E+01 0.  1.
         25    2    1    2    0    0  0.00000000000E+00  0.00000000000E+00 -0.35946469702E+03  0.38057819496E+03  0.12499957632E+03 0.  0.
    9000005    1    3    3    0    0 -0.11109278074E+02 -0.26552292374E+02 -0.34861452249E+03  0.34980212346E+03  0.10000000000E+01 0.  0.
    9000005    1    3    3    0    0  0.11109278074E+02  0.26552292374E+02 -0.10850174529E+02  0.30776071499E+02  0.10000000000E+01 0.  0.
<mgrwt>
<rscale>  0 0.12499958E+03</rscale>
<asrwt>0</asrwt>
<pdfrwt beam="1">  1        4 0.16241155E-02 0.12499958E+03</pdfrwt>
<pdfrwt beam="2">  1       -4 0.56926366E-01 0.12499958E+03</pdfrwt>
<totfact> 0.66487217E+03</totfact>
</mgrwt>
</event>
<event>
 5    1  0.3487578E-002  0.1250001E+03  0.7818608E-02  0.1235069E+00
         -4   -1    0    0    0  501 -0.00000000000E+00  0.00000000000E+00  0.38697888514E+03  0.38698096910E+03  0.12700000000E+01 0. -1.
          4   -1    0    0  501    0  0.00000000000E+00 -0.00000000000E+00 -0.10052178041E+02  0.10132086822E+02  0.12700000000E+01 0. -1.
         25    2    1    2    0    0  0.00000000000E+00  0.00000000000E+00  0.37692670710E+03  0.39711305592E+03  0.12500014663E+03 0.  0.
    9000005    1    3    3    0    0  0.27831696997E+02 -0.30135337925E+02  0.38692877586E+02  0.56399297207E+02  0.10000000000E+01 0.  0.
    9000005    1    3    3    0    0 -0.27831696997E+02  0.30135337925E+02  0.33823382951E+03  0.34071375871E+03  0.10000000000E+01 0.  0.
<mgrwt>
<rscale>  0 0.12500015E+03</rscale>
<asrwt>0</asrwt>
<pdfrwt beam="2">  1        4 0.15527958E-02 0.12500015E+03</pdfrwt>
<pdfrwt beam="1">  1       -4 0.59541532E-01 0.12500015E+03</pdfrwt>
<totfact> 0.64834323E+03</totfact>
</mgrwt>
</event>
<event>
 5    1  0.3487578E-002  0.1249973E+03  0.7818608E-02  0.1235073E+00
         -4   -1    0    0    0  501 -0.00000000000E+00  0.00000000000E+00  0.20131947891E+02  0.20171966336E+02  0.12700000000E+01 0. -1.
          4   -1    0    0  501    0  0.00000000000E+00 -0.00000000000E+00 -0.19378933914E+03  0.19379350057E+03  0.12700000000E+01 0. -1.
         25    2    1    2    0    0  0.00000000000E+00  0.00000000000E+00 -0.17365739125E+03  0.21396546691E+03  0.12499732595E+03 0.  0.
    9000005    1    3    3    0    0 -0.59300561471E+01 -0.36449091891E+01  0.19474681218E+02  0.20705413240E+02  0.10000000000E+01 0.  0.
    9000005    1    3    3    0    0  0.59300561471E+01  0.36449091891E+01 -0.19313207246E+03  0.19326005367E+03  0.10000000000E+01 0.  0.
<mgrwt>
<rscale>  0 0.12499733E+03</rscale>
<asrwt>0</asrwt>
<pdfrwt beam="2">  1        4 0.29817142E-01 0.12499733E+03</pdfrwt>
<pdfrwt beam="1">  1       -4 0.31006213E-02 0.12499733E+03</pdfrwt>
<totfact> 0.87837585E+03</totfact>
</mgrwt>
</event>
<event>
 5    1  0.3487578E-002  0.1250032E+03  0.7818608E-02  0.1235064E+00
          4   -1    0    0  501    0  0.00000000000E+00  0.00000000000E+00  0.13639479788E+04  0.13639485701E+04  0.12700000000E+01 0. -1.
         -4   -1    0    0    0  501 -0.00000000000E+00 -0.00000000000E+00 -0.27226688390E+01  0.30043011845E+01  0.12700000000E+01 0. -1.
         25    2    1    2    0    0  0.00000000000E+00  0.00000000000E+00  0.13612253100E+04  0.13669528713E+04  0.12500323088E+03 0.  0.
    9000005    1    3    3    0    0  0.61220087748E+02 -0.91763944185E+01  0.58695954157E+03  0.59021573073E+03  0.10000000000E+01 0.  0.
    9000005    1    3    3    0    0 -0.61220087748E+02  0.91763944185E+01  0.77426576843E+03  0.77673714056E+03  0.10000000000E+01 0.  0.
<mgrwt>
<rscale>  0 0.12500323E+03</rscale>
<asrwt>0</asrwt>
<pdfrwt beam="1">  1        4 0.20985985E+00 0.12500323E+03</pdfrwt>
<pdfrwt beam="2">  1       -4 0.44058166E-03 0.12500323E+03</pdfrwt>
<totfact> 0.20699707E+03</totfact>
</mgrwt>
</event>
<event>
 5    1  0.3487578E-002  0.1249980E+03  0.7818608E-02  0.1235072E+00
         -4   -1    0    0    0  501 -0.00000000000E+00  0.00000000000E+00  0.15793666162E+02  0.15844645494E+02  0.12700000000E+01 0.  1.
          4   -1    0    0  501    0  0.00000000000E+00 -0.00000000000E+00 -0.24687095456E+03  0.24687422122E+03  0.12700000000E+01 0.  1.
         25    2    1    2    0    0  0.00000000000E+00  0.00000000000E+00 -0.23107728839E+03  0.26271886672E+03  0.12499795885E+03 0.  0.
    9000005    1    3    3    0    0 -0.46852628043E+02  0.24487820781E+02 -0.18557258599E+03  0.19295856238E+03  0.10000000000E+01 0.  0.
    9000005    1    3    3    0    0  0.46852628043E+02 -0.24487820781E+02 -0.45504702400E+02  0.69760304340E+02  0.10000000000E+01 0.  0.
<mgrwt>
<rscale>  0 0.12499796E+03</rscale>
<asrwt>0</asrwt>
<pdfrwt beam="2">  1        4 0.37984317E-01 0.12499796E+03</pdfrwt>
<pdfrwt beam="1">  1       -4 0.24339677E-02 0.12499796E+03</pdfrwt>
<totfact> 0.80529674E+03</totfact>
</mgrwt>
</event>
<event>
 5    1  0.3487578E-002  0.1250558E+03  0.7818608E-02  0.1234982E+00
          4   -1    0    0  501    0  0.00000000000E+00  0.00000000000E+00  0.21968021435E+02  0.22004700992E+02  0.12700000000E+01 0. -1.
         -4   -1    0    0    0  501 -0.00000000000E+00 -0.00000000000E+00 -0.17778668207E+03  0.17779121807E+03  0.12700000000E+01 0. -1.
         25    2    1    2    0    0  0.00000000000E+00  0.00000000000E+00 -0.15581866064E+03  0.19979591906E+03  0.12505580463E+03 0.  0.
    9000005    1    3    3    0    0  0.75762150287E+01  0.47503267449E+02 -0.14171114455E+03  0.14965629937E+03  0.10000000000E+01 0.  0.
    9000005    1    3    3    0    0 -0.75762150287E+01 -0.47503267449E+02 -0.14107516092E+02  0.50139619691E+02  0.10000000000E+01 0.  0.
<mgrwt>
<rscale>  0 0.12505580E+03</rscale>
<asrwt>0</asrwt>
<pdfrwt beam="1">  1        4 0.33828662E-02 0.12505580E+03</pdfrwt>
<pdfrwt beam="2">  1       -4 0.27354967E-01 0.12505580E+03</pdfrwt>
<totfact> 0.90057428E+03</totfact>
</mgrwt>
</event>
<event>
 5    1  0.3487578E-002  0.1249992E+03  0.7818608E-02  0.1235070E+00
         -4   -1    0    0    0  501 -0.00000000000E+00  0.00000000000E+00  0.60600435259E+02  0.60613741459E+02  0.12700000000E+01 0.  1.
          4   -1    0    0  501    0  0.00000000000E+00 -0.00000000000E+00 -0.64431668026E+02  0.64444183171E+02  0.12700000000E+01 0.  1.
         25    2    1    2    0    0  0.00000000000E+00  0.00000000000E+00 -0.38312327663E+01  0.12505792463E+03  0.12499922467E+03 0.  0.
    9000005    1    3    3    0    0 -0.27063975565E+02 -0.12244962980E+02 -0.56921464706E+02  0.64214103093E+02  0.10000000000E+01 0.  0.
    9000005    1    3    3    0    0  0.27063975565E+02  0.12244962980E+02  0.53090231940E+02  0.60843821536E+02  0.10000000000E+01 0.  0.
<mgrwt>
<rscale>  0 0.12499922E+03</rscale>
<asrwt>0</asrwt>
<pdfrwt beam="2">  1        4 0.99145506E-02 0.12499922E+03</pdfrwt>
<pdfrwt beam="1">  1       -4 0.93251301E-02 0.12499922E+03</pdfrwt>
<totfact> 0.10451788E+04</totfact>
</mgrwt>
</event>
<event>
 5    1  0.3487578E-002  0.1250120E+03  0.7818608E-02  0.1235050E+00
         -4   -1    0    0    0  501 -0.00000000000E+00  0.00000000000E+00  0.60629875633E+01  0.61945716715E+01  0.12700000000E+01 0. -1.
          4   -1    0    0  501    0  0.00000000000E+00 -0.00000000000E+00 -0.63735244926E+03  0.63735371457E+03  0.12700000000E+01 0. -1.
         25    2    1    2    0    0  0.00000000000E+00  0.00000000000E+00 -0.63128946170E+03  0.64354828625E+03  0.12501204853E+03 0.  0.
    9000005    1    3    3    0    0 -0.84051854720E+01  0.30421638102E+02 -0.37950539371E+02  0.49369693600E+02  0.10000000000E+01 0.  0.
    9000005    1    3    3    0    0  0.84051854720E+01 -0.30421638102E+02 -0.59333892233E+03  0.59417859265E+03  0.10000000000E+01 0.  0.
<mgrwt>
<rscale>  0 0.12501205E+03</rscale>
<asrwt>0</asrwt>
<pdfrwt beam="2">  1        4 0.98064390E-01 0.12501205E+03</pdfrwt>
<pdfrwt beam="1">  1       -4 0.94298701E-03 0.12501205E+03</pdfrwt>
<totfact> 0.46216974E+03</totfact>
</mgrwt>
</event>
<event>
 5    1  0.3487578E-002  0.1249926E+03  0.7818608E-02  0.1235081E+00
          4   -1    0    0  501    0  0.00000000000E+00  0.00000000000E+00  0.51744985180E+01  0.53280704680E+01  0.12700000000E+01 0. -1.
         -4   -1    0    0    0  501 -0.00000000000E+00 -0.00000000000E+00 -0.74362395732E+03  0.74362504181E+03  0.12700000000E+01 0. -1.
         25    2    1    2    0    0  0.00000000000E+00  0.00000000000E+00 -0.73844945880E+03  0.74895311228E+03  0.12499264450E+03 0.  0.
    9000005    1    3    3    0    0 -0.41075546965E+02 -0.31936475375E+02 -0.57658968551E+03  0.57893333335E+03  0.10000000000E+01 0.  0.
    9000005    1    3    3    0    0  0.41075546965E+02  0.31936475375E+02 -0.16185977329E+03  0.17001977893E+03  0.10000000000E+01 0.  0.
<mgrwt>
<rscale>  0 0.12499264E+03</rscale>
<asrwt>0</asrwt>
<pdfrwt beam="1">  1        4 0.80797393E-03 0.12499264E+03</pdfrwt>
<pdfrwt beam="2">  1       -4 0.11441550E+00 0.12499264E+03</pdfrwt>
<totfact> 0.40630816E+03</totfact>
</mgrwt>
</event>
<event>
 5    1  0.3487578E-002  0.1250027E+03  0.7818608E-02  0.1235065E+00
          4   -1    0    0  501    0  0.00000000000E+00  0.00000000000E+00  0.32783565720E+02  0.32808155713E+02  0.12700000000E+01 0.  1.
         -4   -1    0    0    0  501 -0.00000000000E+00 -0.00000000000E+00 -0.11908520724E+03  0.11909197909E+03  0.12700000000E+01 0.  1.
         25    2    1    2    0    0  0.00000000000E+00  0.00000000000E+00 -0.86301641525E+02  0.15190013481E+03  0.12500271047E+03 0.  0.
    9000005    1    3    3    0    0  0.30560744706E+02  0.47349305346E+02 -0.75971868495E+02  0.94597254909E+02  0.10000000000E+01 0.  0.
    9000005    1    3    3    0    0 -0.30560744706E+02 -0.47349305346E+02 -0.10329773030E+02  0.57302879898E+02  0.10000000000E+01 0.  0.
<mgrwt>
<rscale>  0 0.12500271E+03</rscale>
<asrwt>0</asrwt>
<pdfrwt beam="1">  1        4 0.50460380E-02 0.12500271E+03</pdfrwt>
<pdfrwt beam="2">  1       -4 0.18323213E-01 0.12500271E+03</pdfrwt>
<totfact> 0.98920242E+03</totfact>
</mgrwt>
</event>
<event>
 5    1  0.3487578E-002  0.1250026E+03  0.7818608E-02  0.1235065E+00
          4   -1    0    0  501    0  0.00000000000E+00  0.00000000000E+00  0.15514569542E+03  0.15515089335E+03  0.12700000000E+01 0. -1.
         -4   -1    0    0    0  501 -0.00000000000E+00 -0.00000000000E+00 -0.25157375599E+02  0.25189411407E+02  0.12700000000E+01 0. -1.
         25    2    1    2    0    0  0.00000000000E+00  0.00000000000E+00  0.12998831982E+03  0.18034030476E+03  0.12500264889E+03 0.  0.
    9000005    1    3    3    0    0  0.34283344529E+02 -0.39783045347E+02  0.16125921816E+02  0.54946189709E+02  0.10000000000E+01 0.  0.
    9000005    1    3    3    0    0 -0.34283344529E+02  0.39783045347E+02  0.11386239800E+03  0.12539411505E+03  0.10000000000E+01 0.  0.
<mgrwt>
<rscale>  0 0.12500265E+03</rscale>
<asrwt>0</asrwt>
<pdfrwt beam="1">  1        4 0.23871432E-01 0.12500265E+03</pdfrwt>
<pdfrwt beam="2">  1       -4 0.38732296E-02 0.12500265E+03</pdfrwt>
<totfact> 0.93550227E+03</totfact>
</mgrwt>
</event>
<event>
 5    1  0.3487578E-002  0.1249987E+03  0.7818608E-02  0.1235071E+00
          4   -1    0    0  501    0  0.00000000000E+00  0.00000000000E+00  0.18322121765E+02  0.18366084122E+02  0.12700000000E+01 0. -1.
         -4   -1    0    0    0  501 -0.00000000000E+00 -0.00000000000E+00 -0.21289282347E+03  0.21289661150E+03  0.12700000000E+01 0. -1.
         25    2    1    2    0    0  0.00000000000E+00  0.00000000000E+00 -0.19457070171E+03  0.23126269562E+03  0.12499870568E+03 0.  0.
    9000005    1    3    3    0    0  0.32969628879E+02 -0.52602280692E+02 -0.11052021279E+03  0.12676637487E+03  0.10000000000E+01 0.  0.
    9000005    1    3    3    0    0 -0.32969628879E+02  0.52602280692E+02 -0.84050488922E+02  0.10449632075E+03  0.10000000000E+01 0.  0.
<mgrwt>
<rscale>  0 0.12499871E+03</rscale>
<asrwt>0</asrwt>
<pdfrwt beam="1">  1        4 0.28224612E-02 0.12499871E+03</pdfrwt>
<pdfrwt beam="2">  1       -4 0.32756413E-01 0.12499871E+03</pdfrwt>
<totfact> 0.85118544E+03</totfact>
</mgrwt>
</event>
<event>
 5    1  0.3487578E-002  0.1250021E+03  0.7818608E-02  0.1235066E+00
          4   -1    0    0  501    0  0.00000000000E+00  0.00000000000E+00  0.11070905356E+02  0.11143511358E+02  0.12700000000E+01 0. -1.
         -4   -1    0    0    0  501 -0.00000000000E+00 -0.00000000000E+00 -0.35162393621E+03  0.35162622971E+03  0.12700000000E+01 0. -1.
         25    2    1    2    0    0  0.00000000000E+00  0.00000000000E+00 -0.34055303086E+03  0.36276974106E+03  0.12500207281E+03 0.  0.
    9000005    1    3    3    0    0 -0.29736164913E+02  0.47837990780E+02 -0.24883029086E+03  0.25512786307E+03  0.10000000000E+01 0.  0.
    9000005    1    3    3    0    0  0.29736164913E+02 -0.47837990780E+02 -0.91722739997E+02  0.10764187799E+03  0.10000000000E+01 0.  0.
<mgrwt>
<rscale>  0 0.12500207E+03</rscale>
<asrwt>0</asrwt>
<pdfrwt beam="1">  1        4 0.17089780E-02 0.12500207E+03</pdfrwt>
<pdfrwt beam="2">  1       -4 0.54101743E-01 0.12500207E+03</pdfrwt>
<totfact> 0.68339074E+03</totfact>
</mgrwt>
</event>
<event>
 5    1  0.3487578E-002  0.1249969E+03  0.7818608E-02  0.1235074E+00
          4   -1    0    0  501    0  0.00000000000E+00  0.00000000000E+00  0.80691634493E+02  0.80701628095E+02  0.12700000000E+01 0. -1.
         -4   -1    0    0    0  501 -0.00000000000E+00 -0.00000000000E+00 -0.48385908641E+02  0.48402572814E+02  0.12700000000E+01 0. -1.
         25    2    1    2    0    0  0.00000000000E+00  0.00000000000E+00  0.32305725852E+02  0.12910420091E+03  0.12499693904E+03 0.  0.
    9000005    1    3    3    0    0 -0.12113594086E+02  0.48053582293E+02 -0.23166011502E+02  0.54713344093E+02  0.10000000000E+01 0.  0.
    9000005    1    3    3    0    0  0.12113594086E+02 -0.48053582293E+02  0.55471737353E+02  0.74390856817E+02  0.10000000000E+01 0.  0.
<mgrwt>
<rscale>  0 0.12499694E+03</rscale>
<asrwt>0</asrwt>
<pdfrwt beam="1">  1        4 0.12416148E-01 0.12499694E+03</pdfrwt>
<pdfrwt beam="2">  1       -4 0.74460366E-02 0.12499694E+03</pdfrwt>
<totfact> 0.10364424E+04</totfact>
</mgrwt>
</event>
<event>
 5    1  0.3487578E-002  0.1249993E+03  0.7818608E-02  0.1235070E+00
          4   -1    0    0  501    0  0.00000000000E+00  0.00000000000E+00  0.81994561232E+02  0.82004396050E+02  0.12700000000E+01 0. -1.
         -4   -1    0    0    0  501 -0.00000000000E+00 -0.00000000000E+00 -0.47618670432E+02  0.47635603005E+02  0.12700000000E+01 0. -1.
         25    2    1    2    0    0  0.00000000000E+00  0.00000000000E+00  0.34375890800E+02  0.12963999906E+03  0.12499930995E+03 0.  0.
    9000005    1    3    3    0    0 -0.44671976462E+02  0.17974444248E+02 -0.24122228066E+02  0.53866019102E+02  0.10000000000E+01 0.  0.
    9000005    1    3    3    0    0  0.44671976462E+02 -0.17974444248E+02  0.58498118867E+02  0.75773979953E+02  0.10000000000E+01 0.  0.
<mgrwt>
<rscale>  0 0.12499931E+03</rscale>
<asrwt>0</asrwt>
<pdfrwt beam="1">  1        4 0.12616607E-01 0.12499931E+03</pdfrwt>
<pdfrwt beam="2">  1       -4 0.73280083E-02 0.12499931E+03</pdfrwt>
<totfact> 0.10352376E+04</totfact>
</mgrwt>
</event>
<event>
 5    1  0.3487578E-002  0.1250013E+03  0.7818608E-02  0.1235067E+00
          4   -1    0    0  501    0  0.00000000000E+00  0.00000000000E+00  0.90401187789E+02  0.90410108139E+02  0.12700000000E+01 0. -1.
         -4   -1    0    0    0  501 -0.00000000000E+00 -0.00000000000E+00 -0.43190670572E+02  0.43209338394E+02  0.12700000000E+01 0. -1.
         25    2    1    2    0    0  0.00000000000E+00  0.00000000000E+00  0.47210517218E+02  0.13361944653E+03  0.12500129422E+03 0.  0.
    9000005    1    3    3    0    0 -0.42575839174E+02 -0.20328191475E+02  0.67411035312E+02  0.82287211229E+02  0.10000000000E+01 0.  0.
    9000005    1    3    3    0    0  0.42575839174E+02  0.20328191475E+02 -0.20200518095E+02  0.51332235304E+02  0.10000000000E+01 0.  0.
<mgrwt>
<rscale>  0 0.12500129E+03</rscale>
<asrwt>0</asrwt>
<pdfrwt beam="1">  1        4 0.13909997E-01 0.12500129E+03</pdfrwt>
<pdfrwt beam="2">  1       -4 0.66468408E-02 0.12500129E+03</pdfrwt>
<totfact> 0.10266952E+04</totfact>
</mgrwt>
</event>
<event>
 5    1  0.3487578E-002  0.1249962E+03  0.7818608E-02  0.1235075E+00
         -4   -1    0    0    0  501 -0.00000000000E+00  0.00000000000E+00  0.28951004474E+02  0.28978846769E+02  0.12700000000E+01 0. -1.
          4   -1    0    0  501    0  0.00000000000E+00 -0.00000000000E+00 -0.13482242345E+03  0.13482840489E+03  0.12700000000E+01 0. -1.
         25    2    1    2    0    0  0.00000000000E+00  0.00000000000E+00 -0.10587141898E+03  0.16380725166E+03  0.12499623330E+03 0.  0.
    9000005    1    3    3    0    0 -0.11268672449E+02  0.19139446226E+02  0.23610282576E+02  0.32430646369E+02  0.10000000000E+01 0.  0.
    9000005    1    3    3    0    0  0.11268672449E+02 -0.19139446226E+02 -0.12948170156E+03  0.13137660529E+03  0.10000000000E+01 0.  0.
<mgrwt>
<rscale>  0 0.12499623E+03</rscale>
<asrwt>0</asrwt>
<pdfrwt beam="2">  1        4 0.20744513E-01 0.12499623E+03</pdfrwt>
<pdfrwt beam="1">  1       -4 0.44566026E-02 0.12499623E+03</pdfrwt>
<totfact> 0.96621935E+03</totfact>
</mgrwt>
</event>
<event>
 5    1  0.3487578E-002  0.1249719E+03  0.7818608E-02  0.1235113E+00
         -4   -1    0    0    0  501 -0.00000000000E+00  0.00000000000E+00  0.13288130758E+02  0.13348682296E+02  0.12700000000E+01 0.  1.
          4   -1    0    0  501    0  0.00000000000E+00 -0.00000000000E+00 -0.29310332435E+03  0.29310607576E+03  0.12700000000E+01 0.  1.
         25    2    1    2    0    0  0.00000000000E+00  0.00000000000E+00 -0.27981519359E+03  0.30645475805E+03  0.12497190151E+03 0.  0.
    9000005    1    3    3    0    0 -0.32035237528E+02  0.12437924185E+02 -0.26785774040E+03  0.27005504530E+03  0.10000000000E+01 0.  0.
    9000005    1    3    3    0    0  0.32035237528E+02 -0.12437924185E+02 -0.11957453194E+02  0.36399712751E+02  0.10000000000E+01 0.  0.
<mgrwt>
<rscale>  0 0.12497190E+03</rscale>
<asrwt>0</asrwt>
<pdfrwt beam="2">  1        4 0.45097684E-01 0.12497190E+03</pdfrwt>
<pdfrwt beam="1">  1       -4 0.20491975E-02 0.12497190E+03</pdfrwt>
<totfact> 0.74842891E+03</totfact>
</mgrwt>
</event>
<event>
 5    1  0.3487578E-002  0.1249999E+03  0.7818608E-02  0.1235069E+00
         -4   -1    0    0    0  501 -0.00000000000E+00  0.00000000000E+00  0.48664682879E+02  0.48681251624E+02  0.12700000000E+01 0. -1.
          4   -1    0    0  501    0  0.00000000000E+00 -0.00000000000E+00 -0.80233360332E+02  0.80243411007E+02  0.12700000000E+01 0. -1.
         25    2    1    2    0    0  0.00000000000E+00  0.00000000000E+00 -0.31568677453E+02  0.12892466263E+03  0.12499994895E+03 0.  0.
    9000005    1    3    3    0    0  0.50718778577E+01  0.40323903966E+02 -0.64745926380E+02  0.76451135759E+02  0.10000000000E+01 0.  0.
    9000005    1    3    3    0    0 -0.50718778577E+01 -0.40323903966E+02  0.33177248927E+02  0.52473526873E+02  0.10000000000E+01 0.  0.
<mgrwt>
<rscale>  0 0.12499995E+03</rscale>
<asrwt>0</asrwt>
<pdfrwt beam="2">  1        4 0.12345642E-01 0.12499995E+03</pdfrwt>
<pdfrwt beam="1">  1       -4 0.74889220E-02 0.12499995E+03</pdfrwt>
<totfact> 0.10367578E+04</totfact>
</mgrwt>
</event>
<event>
 5    1  0.3487578E-002  0.1249998E+03  0.7818608E-02  0.1235070E+00
         -4   -1    0    0    0  501 -0.00000000000E+00  0.00000000000E+00  0.89208784634E+02  0.89217824205E+02  0.12700000000E+01 0. -1.
          4   -1    0    0  501    0  0.00000000000E+00 -0.00000000000E+00 -0.43767146377E+02  0.43785568422E+02  0.12700000000E+01 0. -1.
         25    2    1    2    0    0  0.00000000000E+00  0.00000000000E+00  0.45441638257E+02  0.13300339263E+03  0.12499983985E+03 0.  0.
    9000005    1    3    3    0    0  0.30018848633E+02  0.37676699115E+02 -0.19634667003E+02  0.52030616734E+02  0.10000000000E+01 0.  0.
    9000005    1    3    3    0    0 -0.30018848633E+02 -0.37676699115E+02  0.65076305260E+02  0.80972775892E+02  0.10000000000E+01 0.  0.
<mgrwt>
<rscale>  0 0.12499984E+03</rscale>
<asrwt>0</asrwt>
<pdfrwt beam="2">  1        4 0.67355197E-02 0.12499984E+03</pdfrwt>
<pdfrwt beam="1">  1       -4 0.13726541E-01 0.12499984E+03</pdfrwt>
<totfact> 0.10280365E+04</totfact>
</mgrwt>
</event>
<event>
 5    1  0.3487578E-002  0.1249996E+03  0.7818608E-02  0.1235070E+00
          4   -1    0    0  501    0  0.00000000000E+00  0.00000000000E+00  0.39188944728E+01  0.41195429223E+01  0.12700000000E+01 0.  1.
         -4   -1    0    0    0  501 -0.00000000000E+00 -0.00000000000E+00 -0.97168565945E+03  0.97168648940E+03  0.12700000000E+01 0.  1.
         25    2    1    2    0    0  0.00000000000E+00  0.00000000000E+00 -0.96776676497E+03  0.97580603232E+03  0.12499960528E+03 0.  0.
    9000005    1    3    3    0    0 -0.14579886384E+02 -0.19168262454E+02 -0.33724629405E+02  0.41452937182E+02  0.10000000000E+01 0.  0.
    9000005    1    3    3    0    0  0.14579886384E+02  0.19168262454E+02 -0.93404213557E+03  0.93435309514E+03  0.10000000000E+01 0.  0.
<mgrwt>
<rscale>  0 0.12499961E+03</rscale>
<asrwt>0</asrwt>
<pdfrwt beam="1">  1        4 0.61840596E-03 0.12499961E+03</pdfrwt>
<pdfrwt beam="2">  1       -4 0.14950541E+00 0.12499961E+03</pdfrwt>
<totfact> 0.31417420E+03</totfact>
</mgrwt>
</event>
<event>
 5    1  0.3487578E-002  0.1249795E+03  0.7818608E-02  0.1235101E+00
         -4   -1    0    0    0  501 -0.00000000000E+00  0.00000000000E+00  0.11316576013E+03  0.11317288618E+03  0.12700000000E+01 0. -1.
          4   -1    0    0  501    0  0.00000000000E+00 -0.00000000000E+00 -0.34486703148E+02  0.34510079600E+02  0.12700000000E+01 0. -1.
         25    2    1    2    0    0  0.00000000000E+00  0.00000000000E+00  0.78679056982E+02  0.14768296578E+03  0.12497945580E+03 0.  0.
    9000005    1    3    3    0    0  0.78897685336E+01  0.38023673161E+01 -0.33763562304E+02  0.34895337570E+02  0.10000000000E+01 0.  0.
    9000005    1    3    3    0    0 -0.78897685336E+01 -0.38023673161E+01  0.11244261929E+03  0.11278762821E+03  0.10000000000E+01 0.  0.
<mgrwt>
<rscale>  0 0.12497946E+03</rscale>
<asrwt>0</asrwt>
<pdfrwt beam="2">  1        4 0.53079930E-02 0.12497946E+03</pdfrwt>
<pdfrwt beam="1">  1       -4 0.17412463E-01 0.12497946E+03</pdfrwt>
<totfact> 0.99813739E+03</totfact>
</mgrwt>
</event>
<event>
 5    1  0.3487578E-002  0.1249982E+03  0.7818608E-02  0.1235072E+00
          4   -1    0    0  501    0  0.00000000000E+00  0.00000000000E+00  0.24043712183E+03  0.24044047590E+03  0.12700000000E+01 0.  1.
         -4   -1    0    0    0  501 -0.00000000000E+00 -0.00000000000E+00 -0.16217693015E+02  0.16267343567E+02  0.12700000000E+01 0.  1.
         25    2    1    2    0    0  0.00000000000E+00  0.00000000000E+00  0.22421942881E+03  0.25670781947E+03  0.12499820927E+03 0.  0.
    9000005    1    3    3    0    0  0.39659881238E+02  0.43735170115E+02  0.15417115087E+03  0.16509214108E+03  0.10000000000E+01 0.  0.
    9000005    1    3    3    0    0 -0.39659881238E+02 -0.43735170115E+02  0.70048277944E+02  0.91615678395E+02  0.10000000000E+01 0.  0.
<mgrwt>
<rscale>  0 0.12499821E+03</rscale>
<asrwt>0</asrwt>
<pdfrwt beam="1">  1        4 0.36994398E-01 0.12499821E+03</pdfrwt>
<pdfrwt beam="2">  1       -4 0.24991073E-02 0.12499821E+03</pdfrwt>
<totfact> 0.81373551E+03</totfact>
</mgrwt>
</event>
<event>
 5    1  0.3487578E-002  0.1250023E+03  0.7818608E-02  0.1235066E+00
          4   -1    0    0  501    0  0.00000000000E+00  0.00000000000E+00  0.12758650999E+03  0.12759283064E+03  0.12700000000E+01 0.  1.
         -4   -1    0    0    0  501 -0.00000000000E+00 -0.00000000000E+00 -0.30597367492E+02  0.30623712993E+02  0.12700000000E+01 0.  1.
         25    2    1    2    0    0  0.00000000000E+00  0.00000000000E+00  0.96989142495E+02  0.15821654363E+03  0.12500232365E+03 0.  0.
    9000005    1    3    3    0    0  0.36781186408E+02  0.42209464537E+01 -0.15228848409E+02  0.40044848438E+02  0.10000000000E+01 0.  0.
    9000005    1    3    3    0    0 -0.36781186408E+02 -0.42209464537E+01  0.11221799090E+03  0.11817169519E+03  0.10000000000E+01 0.  0.
<mgrwt>
<rscale>  0 0.12500232E+03</rscale>
<asrwt>0</asrwt>
<pdfrwt beam="1">  1        4 0.19631207E-01 0.12500232E+03</pdfrwt>
<pdfrwt beam="2">  1       -4 0.47098001E-02 0.12500232E+03</pdfrwt>
<totfact> 0.97682624E+03</totfact>
</mgrwt>
</event>
<event>
 5    1  0.3487578E-002  0.1250005E+03  0.7818608E-02  0.1235069E+00
          4   -1    0    0  501    0  0.00000000000E+00  0.00000000000E+00  0.12897604214E+02  0.12959980496E+02  0.12700000000E+01 0.  1.
         -4   -1    0    0    0  501 -0.00000000000E+00 -0.00000000000E+00 -0.30207441286E+03  0.30207708255E+03  0.12700000000E+01 0.  1.
         25    2    1    2    0    0  0.00000000000E+00  0.00000000000E+00 -0.28917680864E+03  0.31503706305E+03  0.12500049774E+03 0.  0.
    9000005    1    3    3    0    0  0.52078844646E+02 -0.12983613275E+02 -0.22525729156E+03  0.23156560123E+03  0.10000000000E+01 0.  0.
    9000005    1    3    3    0    0 -0.52078844646E+02  0.12983613275E+02 -0.63919517085E+02  0.83471461816E+02  0.10000000000E+01 0.  0.
<mgrwt>
<rscale>  0 0.12500050E+03</rscale>
<asrwt>0</asrwt>
<pdfrwt beam="1">  1        4 0.19892506E-02 0.12500050E+03</pdfrwt>
<pdfrwt beam="2">  1       -4 0.46477985E-01 0.12500050E+03</pdfrwt>
<totfact> 0.73749503E+03</totfact>
</mgrwt>
</event>
<event>
 5    1  0.3487578E-002  0.1250005E+03  0.7818608E-02  0.1235069E+00
         -4   -1    0    0    0  501 -0.00000000000E+00  0.00000000000E+00  0.33893904124E+03  0.33894142057E+03  0.12700000000E+01 0. -1.
          4   -1    0    0  501    0  0.00000000000E+00 -0.00000000000E+00 -0.11487606343E+02  0.11557594884E+02  0.12700000000E+01 0. -1.
         25    2    1    2    0    0  0.00000000000E+00  0.00000000000E+00  0.32745143490E+03  0.35049901545E+03  0.12500047047E+03 0.  0.
    9000005    1    3    3    0    0 -0.47712583063E+02  0.17004169457E+02  0.61096657795E+02  0.79368973505E+02  0.10000000000E+01 0.  0.
    9000005    1    3    3    0    0  0.47712583063E+02 -0.17004169457E+02  0.26635477710E+03  0.27113004195E+03  0.10000000000E+01 0.  0.
<mgrwt>
<rscale>  0 0.12500047E+03</rscale>
<asrwt>0</asrwt>
<pdfrwt beam="2">  1        4 0.17728907E-02 0.12500047E+03</pdfrwt>
<pdfrwt beam="1">  1       -4 0.52150038E-01 0.12500047E+03</pdfrwt>
<totfact> 0.69668964E+03</totfact>
</mgrwt>
</event>
<event>
 5    1  0.3487578E-002  0.1249995E+03  0.7818608E-02  0.1235070E+00
          4   -1    0    0  501    0  0.00000000000E+00  0.00000000000E+00  0.15805763408E+02  0.15856703848E+02  0.12700000000E+01 0. -1.
         -4   -1    0    0    0  501 -0.00000000000E+00 -0.00000000000E+00 -0.24668870726E+03  0.24669197634E+03  0.12700000000E+01 0. -1.
         25    2    1    2    0    0  0.00000000000E+00  0.00000000000E+00 -0.23088294385E+03  0.26254868019E+03  0.12499950282E+03 0.  0.
    9000005    1    3    3    0    0 -0.12179758908E+02 -0.60610836969E+02 -0.13459991411E+03  0.14812210154E+03  0.10000000000E+01 0.  0.
    9000005    1    3    3    0    0  0.12179758908E+02  0.60610836969E+02 -0.96283029742E+02  0.11442657865E+03  0.10000000000E+01 0.  0.
<mgrwt>
<rscale>  0 0.12499950E+03</rscale>
<asrwt>0</asrwt>
<pdfrwt beam="1">  1        4 0.24358261E-02 0.12499950E+03</pdfrwt>
<pdfrwt beam="2">  1       -4 0.37956276E-01 0.12499950E+03</pdfrwt>
<totfact> 0.80550608E+03</totfact>
</mgrwt>
</event>
<event>
 5    1  0.3487578E-002  0.1249970E+03  0.7818608E-02  0.1235074E+00
         -4   -1    0    0    0  501 -0.00000000000E+00  0.00000000000E+00  0.48377319522E+03  0.48377486222E+03  0.12700000000E+01 0. -1.
          4   -1    0    0  501    0  0.00000000000E+00 -0.00000000000E+00 -0.80225325872E+01  0.81224336939E+01  0.12700000000E+01 0. -1.
         25    2    1    2    0    0  0.00000000000E+00  0.00000000000E+00  0.47575066263E+03  0.49189729591E+03  0.12499702688E+03 0.  0.
    9000005    1    3    3    0    0  0.51835435120E+02 -0.21753552089E+02  0.13046800912E+03  0.14206699394E+03  0.10000000000E+01 0.  0.
    9000005    1    3    3    0    0 -0.51835435120E+02  0.21753552089E+02  0.34528265351E+03  0.34983030197E+03  0.10000000000E+01 0.  0.
<mgrwt>
<rscale>  0 0.12499703E+03</rscale>
<asrwt>0</asrwt>
<pdfrwt beam="2">  1        4 0.12420487E-02 0.12499703E+03</pdfrwt>
<pdfrwt beam="1">  1       -4 0.74434458E-01 0.12499703E+03</pdfrwt>
<totfact> 0.56502256E+03</totfact>
</mgrwt>
</event>
<event>
 4    1  0.3487578E-002  0.1251695E+03  0.7818608E-02  0.1234805E+00
          4   -1    0    0  501    0  0.00000000000E+00  0.00000000000E+00  0.22765113512E+02  0.22800510811E+02  0.12700000000E+01 0.  1.
         -4   -1    0    0    0  501 -0.00000000000E+00 -0.00000000000E+00 -0.17188344493E+03  0.17188813671E+03  0.12700000000E+01 0.  1.
    9000005    1    1    2    0    0  0.36641025178E+02  0.27425382139E+02 -0.81828778898E+01  0.46504578292E+02  0.10000000000E+01 0.  0.
    9000005    1    1    2    0    0 -0.36641025178E+02 -0.27425382139E+02 -0.14093545353E+03  0.14818406923E+03  0.10000000000E+01 0.  0.
<mgrwt>
<rscale>  0 0.12516946E+03</rscale>
<asrwt>0</asrwt>
<pdfrwt beam="1">  1        4 0.35054090E-02 0.12516946E+03</pdfrwt>
<pdfrwt beam="2">  1       -4 0.26446690E-01 0.12516946E+03</pdfrwt>
<totfact> 0.90693301E+03</totfact>
</mgrwt>
</event>
<event>
 5    1  0.3487578E-002  0.1249977E+03  0.7818608E-02  0.1235073E+00
          4   -1    0    0  501    0  0.00000000000E+00  0.00000000000E+00  0.52190907061E+02  0.52206356700E+02  0.12700000000E+01 0.  1.
         -4   -1    0    0    0  501 -0.00000000000E+00 -0.00000000000E+00 -0.74810795909E+02  0.74821574994E+02  0.12700000000E+01 0.  1.
         25    2    1    2    0    0  0.00000000000E+00  0.00000000000E+00 -0.22619888848E+02  0.12702793169E+03  0.12499774422E+03 0.  0.
    9000005    1    3    3    0    0 -0.43198645042E+01 -0.40236131032E+02  0.37081752007E+02  0.54896846920E+02  0.10000000000E+01 0.  0.
    9000005    1    3    3    0    0  0.43198645042E+01  0.40236131032E+02 -0.59701640856E+02  0.72131084774E+02  0.10000000000E+01 0.  0.
<mgrwt>
<rscale>  0 0.12499774E+03</rscale>
<asrwt>0</asrwt>
<pdfrwt beam="1">  1        4 0.80313880E-02 0.12499774E+03</pdfrwt>
<pdfrwt beam="2">  1       -4 0.11511371E-01 0.12499774E+03</pdfrwt>
<totfact> 0.10409069E+04</totfact>
</mgrwt>
</event>
<event>
 5    1  0.3487578E-002  0.1250034E+03  0.7818608E-02  0.1235064E+00
          4   -1    0    0  501    0  0.00000000000E+00  0.00000000000E+00  0.10360098287E+03  0.10360876677E+03  0.12700000000E+01 0. -1.
         -4   -1    0    0    0  501 -0.00000000000E+00 -0.00000000000E+00 -0.37686888324E+02  0.37708280941E+02  0.12700000000E+01 0. -1.
         25    2    1    2    0    0  0.00000000000E+00  0.00000000000E+00  0.65914094547E+02  0.14131704771E+03  0.12500336041E+03 0.  0.
    9000005    1    3    3    0    0 -0.23803270783E+02 -0.39950685323E+02  0.80152213974E+02  0.92671626524E+02  0.10000000000E+01 0.  0.
    9000005    1    3    3    0    0  0.23803270783E+02  0.39950685323E+02 -0.14238119427E+02  0.48645421188E+02  0.10000000000E+01 0.  0.
<mgrwt>
<rscale>  0 0.12500336E+03</rscale>
<asrwt>0</asrwt>
<pdfrwt beam="1">  1        4 0.15940857E-01 0.12500336E+03</pdfrwt>
<pdfrwt beam="2">  1       -4 0.58002271E-02 0.12500336E+03</pdfrwt>
<totfact> 0.10105597E+04</totfact>
</mgrwt>
</event>
<event>
 4    1  0.3487578E-002  0.1249213E+03  0.7818608E-02  0.1235192E+00
          4   -1    0    0  501    0  0.00000000000E+00  0.00000000000E+00  0.69540835844E+01  0.70691002609E+01  0.12700000000E+01 0. -1.
         -4   -1    0    0    0  501 -0.00000000000E+00 -0.00000000000E+00 -0.55629578492E+03  0.55629723459E+03  0.12700000000E+01 0. -1.
    9000005    1    1    2    0    0 -0.96794450110E+01  0.57108312771E+02 -0.37997952080E+03  0.38437024764E+03  0.10000000000E+01 0.  0.
    9000005    1    1    2    0    0  0.96794450110E+01 -0.57108312771E+02 -0.16936218053E+03  0.17899608721E+03  0.10000000000E+01 0.  0.
<mgrwt>
<rscale>  0 0.12492126E+03</rscale>
<asrwt>0</asrwt>
<pdfrwt beam="1">  1        4 0.10788184E-02 0.12492126E+03</pdfrwt>
<pdfrwt beam="2">  1       -4 0.85592891E-01 0.12492126E+03</pdfrwt>
<totfact> 0.51353515E+03</totfact>
</mgrwt>
</event>
<event>
 5    1  0.3487578E-002  0.1250005E+03  0.7818608E-02  0.1235068E+00
         -4   -1    0    0    0  501 -0.00000000000E+00  0.00000000000E+00  0.36867851154E+03  0.36868069894E+03  0.12700000000E+01 0.  1.
          4   -1    0    0  501    0  0.00000000000E+00 -0.00000000000E+00 -0.10555083487E+02  0.10631212886E+02  0.12700000000E+01 0.  1.
         25    2    1    2    0    0  0.00000000000E+00  0.00000000000E+00  0.35812342806E+03  0.37931191183E+03  0.12500054693E+03 0.  0.
    9000005    1    3    3    0    0  0.47850875237E+02 -0.33086702123E+02  0.24831495388E+03  0.25504068781E+03  0.10000000000E+01 0.  0.
    9000005    1    3    3    0    0 -0.47850875237E+02  0.33086702123E+02  0.10980847418E+03  0.12427122402E+03  0.10000000000E+01 0.  0.
<mgrwt>
<rscale>  0 0.12500055E+03</rscale>
<asrwt>0</asrwt>
<pdfrwt beam="2">  1        4 0.16298835E-02 0.12500055E+03</pdfrwt>
<pdfrwt beam="1">  1       -4 0.56725792E-01 0.12500055E+03</pdfrwt>
<totfact> 0.66615055E+03</totfact>
</mgrwt>
</event>
<event>
 5    1  0.3487578E-002  0.1250007E+03  0.7818608E-02  0.1235068E+00
          4   -1    0    0  501    0  0.00000000000E+00  0.00000000000E+00  0.22664373813E+03  0.22664729633E+03  0.12700000000E+01 0. -1.
         -4   -1    0    0    0  501 -0.00000000000E+00 -0.00000000000E+00 -0.17208301322E+02  0.17255101692E+02  0.12700000000E+01 0. -1.
         25    2    1    2    0    0  0.00000000000E+00  0.00000000000E+00  0.20943543681E+03  0.24390239802E+03  0.12500071028E+03 0.  0.
    9000005    1    3    3    0    0  0.35413970474E+02 -0.33535042615E+02  0.18095344396E+03  0.18741370620E+03  0.10000000000E+01 0.  0.
    9000005    1    3    3    0    0 -0.35413970474E+02  0.33535042615E+02  0.28481992847E+02  0.56488691828E+02  0.10000000000E+01 0.  0.
<mgrwt>
<rscale>  0 0.12500071E+03</rscale>
<asrwt>0</asrwt>
<pdfrwt beam="1">  1        4 0.34872140E-01 0.12500071E+03</pdfrwt>
<pdfrwt beam="2">  1       -4 0.26513048E-02 0.12500071E+03</pdfrwt>
<totfact> 0.83218269E+03</totfact>
</mgrwt>
</event>
<event>
 5    1  0.3487578E-002  0.1250015E+03  0.7818608E-02  0.1235067E+00
         -4   -1    0    0    0  501 -0.00000000000E+00  0.00000000000E+00  0.11542840620E+02  0.11612496268E+02  0.12700000000E+01 0.  1.
          4   -1    0    0  501    0  0.00000000000E+00 -0.00000000000E+00 -0.33733256553E+03  0.33733495619E+03  0.12700000000E+01 0.  1.
         25    2    1    2    0    0  0.00000000000E+00  0.00000000000E+00 -0.32578972491E+03  0.34894745246E+03  0.12500151887E+03 0.  0.
    9000005    1    3    3    0    0  0.48574335032E+02  0.34378309910E+02 -0.10963478115E+03  0.12474822425E+03  0.10000000000E+01 0.  0.
    9000005    1    3    3    0    0 -0.48574335032E+02 -0.34378309910E+02 -0.21615494376E+03  0.22419922820E+03  0.10000000000E+01 0.  0.
<mgrwt>
<rscale>  0 0.12500152E+03</rscale>
<asrwt>0</asrwt>
<pdfrwt beam="2">  1        4 0.51902852E-01 0.12500152E+03</pdfrwt>
<pdfrwt beam="1">  1       -4 0.17813639E-02 0.12500152E+03</pdfrwt>
<totfact> 0.69838160E+03</totfact>
</mgrwt>
</event>
<event>
 5    1  0.3487578E-002  0.1249948E+03  0.7818608E-02  0.1235077E+00
         -4   -1    0    0    0  501 -0.00000000000E+00  0.00000000000E+00  0.28910382160E+02  0.28938263538E+02  0.12700000000E+01 0. -1.
          4   -1    0    0  501    0  0.00000000000E+00 -0.00000000000E+00 -0.13500865541E+03  0.13501462860E+03  0.12700000000E+01 0. -1.
         25    2    1    2    0    0  0.00000000000E+00  0.00000000000E+00 -0.10609827325E+03  0.16395289213E+03  0.12499482891E+03 0.  0.
    9000005    1    3    3    0    0  0.50414598334E+02  0.87436186483E+01 -0.59958434940E+01  0.51527009728E+02  0.10000000000E+01 0.  0.
    9000005    1    3    3    0    0 -0.50414598334E+02 -0.87436186483E+01 -0.10010242975E+03  0.11242588241E+03  0.10000000000E+01 0.  0.
<mgrwt>
<rscale>  0 0.12499483E+03</rscale>
<asrwt>0</asrwt>
<pdfrwt beam="2">  1        4 0.20773166E-01 0.12499483E+03</pdfrwt>
<pdfrwt beam="1">  1       -4 0.44503554E-02 0.12499483E+03</pdfrwt>
<totfact> 0.96597289E+03</totfact>
</mgrwt>
</event>
<event>
 5    1  0.3487578E-002  0.1250180E+03  0.7818608E-02  0.1235041E+00
         -4   -1    0    0    0  501 -0.00000000000E+00  0.00000000000E+00  0.21378183849E+03  0.21378561076E+03  0.12700000000E+01 0. -1.
          4   -1    0    0  501    0  0.00000000000E+00 -0.00000000000E+00 -0.18251404862E+02  0.18295537145E+02  0.12700000000E+01 0. -1.
         25    2    1    2    0    0  0.00000000000E+00  0.00000000000E+00  0.19553043363E+03  0.23208114791E+03  0.12501803365E+03 0.  0.
    9000005    1    3    3    0    0  0.36390030231E+02  0.45367241849E+02  0.55272479038E+02  0.80240064009E+02  0.10000000000E+01 0.  0.
    9000005    1    3    3    0    0 -0.36390030231E+02 -0.45367241849E+02  0.14025795459E+03  0.15184108390E+03  0.10000000000E+01 0.  0.
<mgrwt>
<rscale>  0 0.12501803E+03</rscale>
<asrwt>0</asrwt>
<pdfrwt beam="2">  1        4 0.28115934E-02 0.12501803E+03</pdfrwt>
<pdfrwt beam="1">  1       -4 0.32893199E-01 0.12501803E+03</pdfrwt>
<totfact> 0.84956873E+03</totfact>
</mgrwt>
</event>
<event>
 5    1  0.3487578E-002  0.1249985E+03  0.7818608E-02  0.1235072E+00
         -4   -1    0    0    0  501 -0.00000000000E+00  0.00000000000E+00  0.35027314560E+02  0.35050330459E+02  0.12700000000E+01 0.  1.
          4   -1    0    0  501    0  0.00000000000E+00 -0.00000000000E+00 -0.11145411097E+03  0.11146134645E+03  0.12700000000E+01 0.  1.
         25    2    1    2    0    0  0.00000000000E+00  0.00000000000E+00 -0.76426796408E+02  0.14651167691E+03  0.12499846503E+03 0.  0.
    9000005    1    3    3    0    0 -0.39769211787E+02 -0.41777362271E+01  0.18073537284E+02  0.43894150363E+02  0.10000000000E+01 0.  0.
    9000005    1    3    3    0    0  0.39769211787E+02  0.41777362271E+01 -0.94500333691E+02  0.10261752654E+03  0.10000000000E+01 0.  0.
<mgrwt>
<rscale>  0 0.12499847E+03</rscale>
<asrwt>0</asrwt>
<pdfrwt beam="2">  1        4 0.17149113E-01 0.12499847E+03</pdfrwt>
<pdfrwt beam="1">  1       -4 0.53911447E-02 0.12499847E+03</pdfrwt>
<totfact> 0.10000710E+04</totfact>
</mgrwt>
</event>
<event>
 5    1  0.3487578E-002  0.1250000E+03  0.7818608E-02  0.1235069E+00
         -4   -1    0    0    0  501 -0.00000000000E+00  0.00000000000E+00  0.50758980537E+02  0.50774865880E+02  0.12700000000E+01 0. -1.
          4   -1    0    0  501    0  0.00000000000E+00 -0.00000000000E+00 -0.76923609878E+02  0.76934092941E+02  0.12700000000E+01 0. -1.
         25    2    1    2    0    0  0.00000000000E+00  0.00000000000E+00 -0.26164629341E+02  0.12770895882E+03  0.12499996134E+03 0.  0.
    9000005    1    3    3    0    0  0.59975489074E+02 -0.22640318793E+01  0.47036552316E+01  0.60210543118E+02  0.10000000000E+01 0.  0.
    9000005    1    3    3    0    0 -0.59975489074E+02  0.22640318793E+01 -0.30868284573E+02  0.67498415704E+02  0.10000000000E+01 0.  0.
<mgrwt>
<rscale>  0 0.12499996E+03</rscale>
<asrwt>0</asrwt>
<pdfrwt beam="2">  1        4 0.11836430E-01 0.12499996E+03</pdfrwt>
<pdfrwt beam="1">  1       -4 0.78111023E-02 0.12499996E+03</pdfrwt>
<totfact> 0.10393787E+04</totfact>
</mgrwt>
</event>
<event>
 5    1  0.3487578E-002  0.1250006E+03  0.7818608E-02  0.1235068E+00
         -4   -1    0    0    0  501 -0.00000000000E+00  0.00000000000E+00  0.12259336761E+03  0.12259994569E+03  0.12700000000E+01 0. -1.
          4   -1    0    0  501    0  0.00000000000E+00 -0.00000000000E+00 -0.31843680347E+02  0.31868995560E+02  0.12700000000E+01 0. -1.
         25    2    1    2    0    0  0.00000000000E+00  0.00000000000E+00  0.90749687266E+02  0.15446894125E+03  0.12500059228E+03 0.  0.
    9000005    1    3    3    0    0 -0.50506797618E+02 -0.75367820818E+01  0.86145026657E+00  0.51083087087E+02  0.10000000000E+01 0.  0.
    9000005    1    3    3    0    0  0.50506797618E+02  0.75367820818E+01  0.89888236999E+02  0.10338585416E+03  0.10000000000E+01 0.  0.
<mgrwt>
<rscale>  0 0.12500059E+03</rscale>
<asrwt>0</asrwt>
<pdfrwt beam="2">  1        4 0.49014810E-02 0.12500059E+03</pdfrwt>
<pdfrwt beam="1">  1       -4 0.18862972E-01 0.12500059E+03</pdfrwt>
<totfact> 0.98418542E+03</totfact>
</mgrwt>
</event>
<event>
 5    1  0.3487578E-002  0.1250017E+03  0.7818608E-02  0.1235067E+00
          4   -1    0    0  501    0  0.00000000000E+00  0.00000000000E+00  0.57306127079E+01  0.58696526310E+01  0.12700000000E+01 0. -1.
         -4   -1    0    0    0  501 -0.00000000000E+00 -0.00000000000E+00 -0.67335438874E+03  0.67335558639E+03  0.12700000000E+01 0. -1.
         25    2    1    2    0    0  0.00000000000E+00  0.00000000000E+00 -0.66762377603E+03  0.67922523903E+03  0.12500167604E+03 0.  0.
    9000005    1    3    3    0    0 -0.36597578236E+02 -0.28824741455E+02 -0.56015173740E+03  0.56208648566E+03  0.10000000000E+01 0.  0.
    9000005    1    3    3    0    0  0.36597578236E+02  0.28824741455E+02 -0.10747203863E+03  0.11713875336E+03  0.10000000000E+01 0.  0.
<mgrwt>
<rscale>  0 0.12500168E+03</rscale>
<asrwt>0</asrwt>
<pdfrwt beam="1">  1        4 0.89242076E-03 0.12500168E+03</pdfrwt>
<pdfrwt beam="2">  1       -4 0.10360371E+00 0.12500168E+03</pdfrwt>
<totfact> 0.44204693E+03</totfact>
</mgrwt>
</event>
<event>
 4    1  0.3487578E-002  0.1249098E+03  0.7818608E-02  0.1235210E+00
         -4   -1    0    0    0  501 -0.00000000000E+00  0.00000000000E+00  0.37696895542E+02  0.37718282483E+02  0.12700000000E+01 0.  1.
          4   -1    0    0  501    0  0.00000000000E+00 -0.00000000000E+00 -0.10341848054E+03  0.10342627817E+03  0.12700000000E+01 0.  1.
    9000005    1    1    2    0    0 -0.88372006369E+01 -0.31685612590E+02 -0.92840275584E+02  0.98500715382E+02  0.10000000000E+01 0.  0.
    9000005    1    1    2    0    0  0.88372006369E+01  0.31685612590E+02  0.27118690590E+02  0.42643845272E+02  0.10000000000E+01 0.  0.
<mgrwt>
<rscale>  0 0.12490981E+03</rscale>
<asrwt>0</asrwt>
<pdfrwt beam="2">  1        4 0.15912780E-01 0.12490981E+03</pdfrwt>
<pdfrwt beam="1">  1       -4 0.58017674E-02 0.12490981E+03</pdfrwt>
<totfact> 0.10130487E+04</totfact>
</mgrwt>
</event>
<event>
 5    1  0.3487578E-002  0.1249987E+03  0.7818608E-02  0.1235071E+00
          4   -1    0    0  501    0  0.00000000000E+00  0.00000000000E+00  0.49796710538E+02  0.49812902750E+02  0.12700000000E+01 0.  1.
         -4   -1    0    0    0  501 -0.00000000000E+00 -0.00000000000E+00 -0.78408247636E+02  0.78418532232E+02  0.12700000000E+01 0.  1.
         25    2    1    2    0    0  0.00000000000E+00  0.00000000000E+00 -0.28611537099E+02  0.12823143498E+03  0.12499872344E+03 0.  0.
    9000005    1    3    3    0    0 -0.25918111883E+01 -0.38645109254E+02 -0.64614945311E+02  0.75340912604E+02  0.10000000000E+01 0.  0.
    9000005    1    3    3    0    0  0.25918111883E+01  0.38645109254E+02  0.36003408212E+02  0.52890522378E+02  0.10000000000E+01 0.  0.
<mgrwt>
<rscale>  0 0.12499872E+03</rscale>
<asrwt>0</asrwt>
<pdfrwt beam="1">  1        4 0.76630691E-02 0.12499872E+03</pdfrwt>
<pdfrwt beam="2">  1       -4 0.12064844E-01 0.12499872E+03</pdfrwt>
<totfact> 0.10382792E+04</totfact>
</mgrwt>
</event>
<event>
 5    1  0.3487578E-002  0.1249694E+03  0.7818608E-02  0.1235117E+00
          4   -1    0    0  501    0  0.00000000000E+00  0.00000000000E+00  0.35540170629E+02  0.35562854615E+02  0.12700000000E+01 0.  1.
         -4   -1    0    0    0  501 -0.00000000000E+00 -0.00000000000E+00 -0.10979567344E+03  0.10980301821E+03  0.12700000000E+01 0.  1.
         25    2    1    2    0    0  0.00000000000E+00  0.00000000000E+00 -0.74255502815E+02  0.14536587282E+03  0.12496942539E+03 0.  0.
    9000005    1    3    3    0    0 -0.19787347431E+02  0.22899679894E+02  0.26450082747E+02  0.40206235026E+02  0.10000000000E+01 0.  0.
    9000005    1    3    3    0    0  0.19787347431E+02 -0.22899679894E+02 -0.10070558556E+03  0.10515963779E+03  0.10000000000E+01 0.  0.
<mgrwt>
<rscale>  0 0.12496943E+03</rscale>
<asrwt>0</asrwt>
<pdfrwt beam="1">  1        4 0.54700285E-02 0.12496943E+03</pdfrwt>
<pdfrwt beam="2">  1       -4 0.16893952E-01 0.12496943E+03</pdfrwt>
<totfact> 0.10030464E+04</totfact>
</mgrwt>
</event>
<event>
 5    1  0.3487578E-002  0.1250002E+03  0.7818608E-02  0.1235069E+00
         -4   -1    0    0    0  501 -0.00000000000E+00  0.00000000000E+00  0.49512671794E+02  0.49528956865E+02  0.12700000000E+01 0.  1.
          4   -1    0    0  501    0  0.00000000000E+00 -0.00000000000E+00 -0.78859874981E+02  0.78870100685E+02  0.12700000000E+01 0.  1.
         25    2    1    2    0    0  0.00000000000E+00  0.00000000000E+00 -0.29347203187E+02  0.12839905755E+03  0.12500023858E+03 0.  0.
    9000005    1    3    3    0    0  0.29533212551E+02 -0.28735340148E+02 -0.62933351744E+02  0.75229895512E+02  0.10000000000E+01 0.  0.
    9000005    1    3    3    0    0 -0.29533212551E+02  0.28735340148E+02  0.33586148557E+02  0.53169162038E+02  0.10000000000E+01 0.  0.
<mgrwt>
<rscale>  0 0.12500024E+03</rscale>
<asrwt>0</asrwt>
<pdfrwt beam="2">  1        4 0.12134328E-01 0.12500024E+03</pdfrwt>
<pdfrwt beam="1">  1       -4 0.76193734E-02 0.12500024E+03</pdfrwt>
<totfact> 0.10378823E+04</totfact>
</mgrwt>
</event>
<event>
 5    1  0.3487578E-002  0.1250200E+03  0.7818608E-02  0.1235038E+00
         -4   -1    0    0    0  501 -0.00000000000E+00  0.00000000000E+00  0.76499110522E+02  0.76509651748E+02  0.12700000000E+01 0.  1.
          4   -1    0    0  501    0  0.00000000000E+00 -0.00000000000E+00 -0.51057040501E+02  0.51072833138E+02  0.12700000000E+01 0.  1.
         25    2    1    2    0    0  0.00000000000E+00  0.00000000000E+00  0.25442070021E+02  0.12758248489E+03  0.12501996450E+03 0.  0.
    9000005    1    3    3    0    0 -0.54760680670E+02  0.26745242848E+02 -0.14362296671E+01  0.60968048338E+02  0.10000000000E+01 0.  0.
    9000005    1    3    3    0    0  0.54760680670E+02 -0.26745242848E+02  0.26878299688E+02  0.66614436548E+02  0.10000000000E+01 0.  0.
<mgrwt>
<rscale>  0 0.12501996E+03</rscale>
<asrwt>0</asrwt>
<pdfrwt beam="2">  1        4 0.78569550E-02 0.12501996E+03</pdfrwt>
<pdfrwt beam="1">  1       -4 0.11771120E-01 0.12501996E+03</pdfrwt>
<totfact> 0.10391830E+04</totfact>
</mgrwt>
</event>
<event>
 5    1  0.3487578E-002  0.1249961E+03  0.7818608E-02  0.1235075E+00
          4   -1    0    0  501    0  0.00000000000E+00  0.00000000000E+00  0.19776678477E+02  0.19817414351E+02  0.12700000000E+01 0.  1.
         -4   -1    0    0    0  501 -0.00000000000E+00 -0.00000000000E+00 -0.19725980671E+03  0.19726389493E+03  0.12700000000E+01 0.  1.
         25    2    1    2    0    0  0.00000000000E+00  0.00000000000E+00 -0.17748312824E+03  0.21708130929E+03  0.12499613607E+03 0.  0.
    9000005    1    3    3    0    0  0.41996258746E+02  0.35381888319E+02 -0.14053626500E+03  0.15088739361E+03  0.10000000000E+01 0.  0.
    9000005    1    3    3    0    0 -0.41996258746E+02 -0.35381888319E+02 -0.36946863235E+02  0.66193915676E+02  0.10000000000E+01 0.  0.
<mgrwt>
<rscale>  0 0.12499614E+03</rscale>
<asrwt>0</asrwt>
<pdfrwt beam="1">  1        4 0.30460141E-02 0.12499614E+03</pdfrwt>
<pdfrwt beam="2">  1       -4 0.30351109E-01 0.12499614E+03</pdfrwt>
<totfact> 0.87339852E+03</totfact>
</mgrwt>
</event>
<event>
 5    1  0.3487578E-002  0.1249997E+03  0.7818608E-02  0.1235070E+00
          4   -1    0    0  501    0  0.00000000000E+00  0.00000000000E+00  0.18124936589E+03  0.18125381523E+03  0.12700000000E+01 0. -1.
         -4   -1    0    0    0  501 -0.00000000000E+00 -0.00000000000E+00 -0.21528275958E+02  0.21565703460E+02  0.12700000000E+01 0. -1.
         25    2    1    2    0    0  0.00000000000E+00  0.00000000000E+00  0.15972108993E+03  0.20281951869E+03  0.12499972237E+03 0.  0.
    9000005    1    3    3    0    0  0.41502406844E+02 -0.34988212176E+02  0.29623834084E+02  0.61848171443E+02  0.10000000000E+01 0.  0.
    9000005    1    3    3    0    0 -0.41502406844E+02  0.34988212176E+02  0.13009725585E+03  0.14097134725E+03  0.10000000000E+01 0.  0.
<mgrwt>
<rscale>  0 0.12499972E+03</rscale>
<asrwt>0</asrwt>
<pdfrwt beam="1">  1        4 0.27887738E-01 0.12499972E+03</pdfrwt>
<pdfrwt beam="2">  1       -4 0.33152638E-02 0.12499972E+03</pdfrwt>
<totfact> 0.89662698E+03</totfact>
</mgrwt>
</event>
<event>
 5    1  0.3487578E-002  0.1250014E+03  0.7818608E-02  0.1235067E+00
         -4   -1    0    0    0  501 -0.00000000000E+00  0.00000000000E+00  0.72334960800E+03  0.72335072289E+03  0.12700000000E+01 0.  1.
          4   -1    0    0  501    0  0.00000000000E+00 -0.00000000000E+00 -0.53245452277E+01  0.54739091956E+01  0.12700000000E+01 0.  1.
         25    2    1    2    0    0  0.00000000000E+00  0.00000000000E+00  0.71802506278E+03  0.72882463208E+03  0.12500141421E+03 0.  0.
    9000005    1    3    3    0    0 -0.37401484494E+02  0.19257280404E+02  0.89567262340E+02  0.98959630022E+02  0.10000000000E+01 0.  0.
    9000005    1    3    3    0    0  0.37401484494E+02 -0.19257280404E+02  0.62845780044E+03  0.62986500206E+03  0.10000000000E+01 0.  0.
<mgrwt>
<rscale>  0 0.12500141E+03</rscale>
<asrwt>0</asrwt>
<pdfrwt beam="2">  1        4 0.83073602E-03 0.12500141E+03</pdfrwt>
<pdfrwt beam="1">  1       -4 0.11129614E+00 0.12500141E+03</pdfrwt>
<totfact> 0.41606714E+03</totfact>
</mgrwt>
</event>
<event>
 5    1  0.3487578E-002  0.1250010E+03  0.7818608E-02  0.1235068E+00
         -4   -1    0    0    0  501 -0.00000000000E+00  0.00000000000E+00  0.13294738460E+03  0.13295345040E+03  0.12700000000E+01 0.  1.
          4   -1    0    0  501    0  0.00000000000E+00 -0.00000000000E+00 -0.29361919660E+02  0.29389372673E+02  0.12700000000E+01 0.  1.
         25    2    1    2    0    0  0.00000000000E+00  0.00000000000E+00  0.10358546494E+03  0.16234282307E+03  0.12500097462E+03 0.  0.
    9000005    1    3    3    0    0  0.52292634652E+02 -0.28379549453E+02  0.26967148219E+02  0.65331045829E+02  0.10000000000E+01 0.  0.
    9000005    1    3    3    0    0 -0.52292634652E+02  0.28379549453E+02  0.76618316726E+02  0.97011777244E+02  0.10000000000E+01 0.  0.
<mgrwt>
<rscale>  0 0.12500097E+03</rscale>
<asrwt>0</asrwt>
<pdfrwt beam="2">  1        4 0.45197967E-02 0.12500097E+03</pdfrwt>
<pdfrwt beam="1">  1       -4 0.20456023E-01 0.12500097E+03</pdfrwt>
<totfact> 0.96890877E+03</totfact>
</mgrwt>
</event>
<event>
 5    1  0.3487578E-002  0.1250015E+03  0.7818608E-02  0.1235067E+00
          4   -1    0    0  501    0  0.00000000000E+00  0.00000000000E+00  0.41903099120E+02  0.41922340296E+02  0.12700000000E+01 0. -1.
         -4   -1    0    0    0  501 -0.00000000000E+00 -0.00000000000E+00 -0.93178336120E+02  0.93186990627E+02  0.12700000000E+01 0. -1.
         25    2    1    2    0    0  0.00000000000E+00  0.00000000000E+00 -0.51275237000E+02  0.13510933092E+03  0.12500152548E+03 0.  0.
    9000005    1    3    3    0    0  0.18074542637E+02  0.73820948977E+01 -0.89802573812E+02  0.91905857701E+02  0.10000000000E+01 0.  0.
    9000005    1    3    3    0    0 -0.18074542637E+02 -0.73820948977E+01  0.38527336812E+02  0.43203473222E+02  0.10000000000E+01 0.  0.
<mgrwt>
<rscale>  0 0.12500153E+03</rscale>
<asrwt>0</asrwt>
<pdfrwt beam="1">  1        4 0.64487765E-02 0.12500153E+03</pdfrwt>
<pdfrwt beam="2">  1       -4 0.14337274E-01 0.12500153E+03</pdfrwt>
<totfact> 0.10235415E+04</totfact>
</mgrwt>
</event>
<event>
 5    1  0.3487578E-002  0.1250076E+03  0.7818608E-02  0.1235057E+00
         -4   -1    0    0    0  501 -0.00000000000E+00  0.00000000000E+00  0.56043229805E+02  0.56057617743E+02  0.12700000000E+01 0.  1.
          4   -1    0    0  501    0  0.00000000000E+00 -0.00000000000E+00 -0.69679987361E+02  0.69691560024E+02  0.12700000000E+01 0.  1.
         25    2    1    2    0    0  0.00000000000E+00  0.00000000000E+00 -0.13636757555E+02  0.12574917777E+03  0.12500757798E+03 0.  0.
    9000005    1    3    3    0    0  0.42224713263E+02 -0.20180119880E+02 -0.48483415385E+02  0.67392916660E+02  0.10000000000E+01 0.  0.
    9000005    1    3    3    0    0 -0.42224713263E+02  0.20180119880E+02  0.34846657830E+02  0.58356261107E+02  0.10000000000E+01 0.  0.
<mgrwt>
<rscale>  0 0.12500758E+03</rscale>
<asrwt>0</asrwt>
<pdfrwt beam="2">  1        4 0.10721995E-01 0.12500758E+03</pdfrwt>
<pdfrwt beam="1">  1       -4 0.86240323E-02 0.12500758E+03</pdfrwt>
<totfact> 0.10434678E+04</totfact>
</mgrwt>
</event>
<event>
 5    1  0.3487578E-002  0.1250037E+03  0.7818608E-02  0.1235064E+00
          4   -1    0    0  501    0  0.00000000000E+00  0.00000000000E+00  0.47435240309E+02  0.47452238336E+02  0.12700000000E+01 0. -1.
         -4   -1    0    0    0  501 -0.00000000000E+00 -0.00000000000E+00 -0.82317297662E+02  0.82327093927E+02  0.12700000000E+01 0. -1.
         25    2    1    2    0    0  0.00000000000E+00  0.00000000000E+00 -0.34882057354E+02  0.12977933226E+03  0.12500366858E+03 0.  0.
    9000005    1    3    3    0    0 -0.40088816019E+02 -0.47571739844E+02 -0.11273039533E+02  0.63231835510E+02  0.10000000000E+01 0.  0.
    9000005    1    3    3    0    0  0.40088816019E+02  0.47571739844E+02 -0.23609017820E+02  0.66547496753E+02  0.10000000000E+01 0.  0.
<mgrwt>
<rscale>  0 0.12500367E+03</rscale>
<asrwt>0</asrwt>
<pdfrwt beam="1">  1        4 0.72997904E-02 0.12500367E+03</pdfrwt>
<pdfrwt beam="2">  1       -4 0.12666261E-01 0.12500367E+03</pdfrwt>
<totfact> 0.10348373E+04</totfact>
</mgrwt>
</event>
<event>
 5    1  0.3487578E-002  0.1249999E+03  0.7818608E-02  0.1235069E+00
         -4   -1    0    0    0  501 -0.00000000000E+00  0.00000000000E+00  0.37190129194E+02  0.37211807393E+02  0.12700000000E+01 0.  1.
          4   -1    0    0  501    0  0.00000000000E+00 -0.00000000000E+00 -0.10497835134E+03  0.10498603312E+03  0.12700000000E+01 0.  1.
         25    2    1    2    0    0  0.00000000000E+00  0.00000000000E+00 -0.67788222144E+02  0.14219784051E+03  0.12499993114E+03 0.  0.
    9000005    1    3    3    0    0 -0.51173821528E+01 -0.62015059881E+02 -0.40447859371E+02  0.74223207825E+02  0.10000000000E+01 0.  0.
    9000005    1    3    3    0    0  0.51173821528E+01  0.62015059881E+02 -0.27340362773E+02  0.67974632685E+02  0.10000000000E+01 0.  0.
<mgrwt>
<rscale>  0 0.12499993E+03</rscale>
<asrwt>0</asrwt>
<pdfrwt beam="2">  1        4 0.16152774E-01 0.12499993E+03</pdfrwt>
<pdfrwt beam="1">  1       -4 0.57238169E-02 0.12499993E+03</pdfrwt>
<totfact> 0.10088252E+04</totfact>
</mgrwt>
</event>
<event>
 5    1  0.3487578E-002  0.1250266E+03  0.7818608E-02  0.1235028E+00
          4   -1    0    0  501    0  0.00000000000E+00  0.00000000000E+00  0.45958842056E+03  0.45959017528E+03  0.12700000000E+01 0. -1.
         -4   -1    0    0    0  501 -0.00000000000E+00 -0.00000000000E+00 -0.84538733386E+01  0.85487352530E+01  0.12700000000E+01 0. -1.
         25    2    1    2    0    0  0.00000000000E+00  0.00000000000E+00  0.45113454722E+03  0.46813891053E+03  0.12502663659E+03 0.  0.
    9000005    1    3    3    0    0 -0.61680443869E+02 -0.47319354794E+01  0.19206736490E+03  0.20178637474E+03  0.10000000000E+01 0.  0.
    9000005    1    3    3    0    0  0.61680443869E+02  0.47319354794E+01  0.25906718232E+03  0.26635253579E+03  0.10000000000E+01 0.  0.
<mgrwt>
<rscale>  0 0.12502664E+03</rscale>
<asrwt>0</asrwt>
<pdfrwt beam="1">  1        4 0.70713352E-01 0.12502664E+03</pdfrwt>
<pdfrwt beam="2">  1       -4 0.13080278E-02 0.12502664E+03</pdfrwt>
<totfact> 0.58389760E+03</totfact>
</mgrwt>
</event>
<event>
 5    1  0.3487578E-002  0.1249930E+03  0.7818608E-02  0.1235080E+00
          4   -1    0    0  501    0  0.00000000000E+00  0.00000000000E+00  0.73597742024E+02  0.73608698745E+02  0.12700000000E+01 0.  1.
         -4   -1    0    0    0  501 -0.00000000000E+00 -0.00000000000E+00 -0.53047216837E+02  0.53062417154E+02  0.12700000000E+01 0.  1.
         25    2    1    2    0    0  0.00000000000E+00  0.00000000000E+00  0.20550525186E+02  0.12667111590E+03  0.12499298987E+03 0.  0.
    9000005    1    3    3    0    0 -0.30737334481E+02 -0.49375638404E+02  0.33430976349E+02  0.67092231879E+02  0.10000000000E+01 0.  0.
    9000005    1    3    3    0    0  0.30737334481E+02  0.49375638404E+02 -0.12880451163E+02  0.59578884020E+02  0.10000000000E+01 0.  0.
<mgrwt>
<rscale>  0 0.12499299E+03</rscale>
<asrwt>0</asrwt>
<pdfrwt beam="1">  1        4 0.11324742E-01 0.12499299E+03</pdfrwt>
<pdfrwt beam="2">  1       -4 0.81631224E-02 0.12499299E+03</pdfrwt>
<totfact> 0.10417947E+04</totfact>
</mgrwt>
</event>
<event>
 5    1  0.3487578E-002  0.1250004E+03  0.7818608E-02  0.1235069E+00
         -4   -1    0    0    0  501 -0.00000000000E+00  0.00000000000E+00  0.11797904258E+02  0.11866062737E+02  0.12700000000E+01 0.  1.
          4   -1    0    0  501    0  0.00000000000E+00 -0.00000000000E+00 -0.33007601916E+03  0.33007846238E+03  0.12700000000E+01 0.  1.
         25    2    1    2    0    0  0.00000000000E+00  0.00000000000E+00 -0.31827811491E+03  0.34194452512E+03  0.12500039932E+03 0.  0.
    9000005    1    3    3    0    0 -0.10928430186E+02 -0.29942740656E+02 -0.12097931921E+02  0.34108038071E+02  0.10000000000E+01 0.  0.
    9000005    1    3    3    0    0  0.10928430186E+02  0.29942740656E+02 -0.30618018298E+03  0.30783648705E+03  0.10000000000E+01 0.  0.
<mgrwt>
<rscale>  0 0.12500040E+03</rscale>
<asrwt>0</asrwt>
<pdfrwt beam="2">  1        4 0.50786350E-01 0.12500040E+03</pdfrwt>
<pdfrwt beam="1">  1       -4 0.18204933E-02 0.12500040E+03</pdfrwt>
<totfact> 0.70619322E+03</totfact>
</mgrwt>
</event>
<event>
 5    1  0.3487578E-002  0.1249978E+03  0.7818608E-02  0.1235073E+00
          4   -1    0    0  501    0  0.00000000000E+00  0.00000000000E+00  0.29984241341E+03  0.29984510298E+03  0.12700000000E+01 0.  1.
         -4   -1    0    0    0  501 -0.00000000000E+00 -0.00000000000E+00 -0.12993518110E+02  0.13055436142E+02  0.12700000000E+01 0.  1.
         25    2    1    2    0    0  0.00000000000E+00  0.00000000000E+00  0.28684889530E+03  0.31290053912E+03  0.12499783457E+03 0.  0.
    9000005    1    3    3    0    0 -0.32480017891E+02 -0.41365966245E+02  0.58941417026E+02  0.79001173197E+02  0.10000000000E+01 0.  0.
    9000005    1    3    3    0    0  0.32480017891E+02  0.41365966245E+02  0.22790747828E+03  0.23389936593E+03  0.10000000000E+01 0.  0.
<mgrwt>
<rscale>  0 0.12499783E+03</rscale>
<asrwt>0</asrwt>
<pdfrwt beam="1">  1        4 0.46134569E-01 0.12499783E+03</pdfrwt>
<pdfrwt beam="2">  1       -4 0.20039727E-02 0.12499783E+03</pdfrwt>
<totfact> 0.74012099E+03</totfact>
</mgrwt>
</event>
<event>
 5    1  0.3487578E-002  0.1249987E+03  0.7818608E-02  0.1235071E+00
          4   -1    0    0  501    0  0.00000000000E+00  0.00000000000E+00  0.23445220816E+02  0.23479592822E+02  0.12700000000E+01 0.  1.
         -4   -1    0    0    0  501 -0.00000000000E+00 -0.00000000000E+00 -0.16644935631E+03  0.16645420126E+03  0.12700000000E+01 0.  1.
         25    2    1    2    0    0  0.00000000000E+00  0.00000000000E+00 -0.14300413550E+03  0.18993379408E+03  0.12499865345E+03 0.  0.
    9000005    1    3    3    0    0 -0.77489586006E+01  0.57190624950E+02 -0.10791753946E+03  0.12238467741E+03  0.10000000000E+01 0.  0.
    9000005    1    3    3    0    0  0.77489586006E+01 -0.57190624950E+02 -0.35086596033E+02  0.67549116669E+02  0.10000000000E+01 0.  0.
<mgrwt>
<rscale>  0 0.12499865E+03</rscale>
<asrwt>0</asrwt>
<pdfrwt beam="1">  1        4 0.36099738E-02 0.12499865E+03</pdfrwt>
<pdfrwt beam="2">  1       -4 0.25610609E-01 0.12499865E+03</pdfrwt>
<totfact> 0.91861607E+03</totfact>
</mgrwt>
</event>
<event>
 4    1  0.3487578E-002  0.1190549E+03  0.7818608E-02  0.1244664E+00
         -4   -1    0    0    0  501 -0.00000000000E+00  0.00000000000E+00  0.19544704421E+02  0.19585922773E+02  0.12700000000E+01 0.  1.
          4   -1    0    0  501    0  0.00000000000E+00 -0.00000000000E+00 -0.18106871187E+03  0.18107316565E+03  0.12700000000E+01 0.  1.
    9000005    1    1    2    0    0  0.29003685272E+02  0.41184785316E+02 -0.27327756094E+02  0.57316721417E+02  0.10000000000E+01 0.  0.
    9000005    1    1    2    0    0 -0.29003685272E+02 -0.41184785316E+02 -0.13419625136E+03  0.14334236701E+03  0.10000000000E+01 0.  0.
<mgrwt>
<rscale>  0 0.11905488E+03</rscale>
<asrwt>0</asrwt>
<pdfrwt beam="2">  1        4 0.27860237E-01 0.11905488E+03</pdfrwt>
<pdfrwt beam="1">  1       -4 0.30103910E-02 0.11905488E+03</pdfrwt>
<totfact> 0.10312934E+04</totfact>
</mgrwt>
</event>
<event>
 5    1  0.3487578E-002  0.1249909E+03  0.7818608E-02  0.1235084E+00
          4   -1    0    0  501    0  0.00000000000E+00  0.00000000000E+00  0.80645771307E+02  0.80655770592E+02  0.12700000000E+01 0.  1.
         -4   -1    0    0    0  501 -0.00000000000E+00 -0.00000000000E+00 -0.48408725811E+02  0.48425382132E+02  0.12700000000E+01 0.  1.
         25    2    1    2    0    0  0.00000000000E+00  0.00000000000E+00  0.32237045496E+02  0.12908115272E+03  0.12499086721E+03 0.  0.
    9000005    1    3    3    0    0  0.14450199503E+02  0.17046857736E+02 -0.44145856419E+02  0.49490001650E+02  0.10000000000E+01 0.  0.
    9000005    1    3    3    0    0 -0.14450199503E+02 -0.17046857736E+02  0.76382901915E+02  0.79591151074E+02  0.10000000000E+01 0.  0.
<mgrwt>
<rscale>  0 0.12499087E+03</rscale>
<asrwt>0</asrwt>
<pdfrwt beam="1">  1        4 0.12409092E-01 0.12499087E+03</pdfrwt>
<pdfrwt beam="2">  1       -4 0.74495467E-02 0.12499087E+03</pdfrwt>
<totfact> 0.10366340E+04</totfact>
</mgrwt>
</event>
<event>
 5    1  0.3487578E-002  0.1249947E+03  0.7818608E-02  0.1235078E+00
          4   -1    0    0  501    0  0.00000000000E+00  0.00000000000E+00  0.15610569348E+03  0.15611085945E+03  0.12700000000E+01 0.  1.
         -4   -1    0    0    0  501 -0.00000000000E+00 -0.00000000000E+00 -0.24999274588E+02  0.25031512737E+02  0.12700000000E+01 0.  1.
         25    2    1    2    0    0  0.00000000000E+00  0.00000000000E+00  0.13110641890E+03  0.18114237219E+03  0.12499466359E+03 0.  0.
    9000005    1    3    3    0    0 -0.38665024298E+02 -0.38673072719E+02  0.10937388534E+03  0.12228751961E+03  0.10000000000E+01 0.  0.
    9000005    1    3    3    0    0  0.38665024298E+02  0.38673072719E+02  0.21732533559E+02  0.58854852581E+02  0.10000000000E+01 0.  0.
<mgrwt>
<rscale>  0 0.12499466E+03</rscale>
<asrwt>0</asrwt>
<pdfrwt beam="1">  1        4 0.24019137E-01 0.12499466E+03</pdfrwt>
<pdfrwt beam="2">  1       -4 0.38489196E-02 0.12499466E+03</pdfrwt>
<totfact> 0.93422953E+03</totfact>
</mgrwt>
</event>
<event>
 5    1  0.3487578E-002  0.1249998E+03  0.7818608E-02  0.1235070E+00
          4   -1    0    0  501    0  0.00000000000E+00  0.00000000000E+00  0.70564315727E+02  0.70575743383E+02  0.12700000000E+01 0.  1.
         -4   -1    0    0    0  501 -0.00000000000E+00 -0.00000000000E+00 -0.55333933179E+02  0.55348505500E+02  0.12700000000E+01 0.  1.
         25    2    1    2    0    0  0.00000000000E+00  0.00000000000E+00  0.15230382548E+02  0.12592424888E+03  0.12499980762E+03 0.  0.
    9000005    1    3    3    0    0  0.46491052894E+02 -0.19858517880E+02 -0.29391470499E+02  0.58486214356E+02  0.10000000000E+01 0.  0.
    9000005    1    3    3    0    0 -0.46491052894E+02  0.19858517880E+02  0.44621853047E+02  0.67438034527E+02  0.10000000000E+01 0.  0.
<mgrwt>
<rscale>  0 0.12499981E+03</rscale>
<asrwt>0</asrwt>
<pdfrwt beam="1">  1        4 0.10858049E-01 0.12499981E+03</pdfrwt>
<pdfrwt beam="2">  1       -4 0.85149128E-02 0.12499981E+03</pdfrwt>
<totfact> 0.10432663E+04</totfact>
</mgrwt>
</event>
<event>
 5    1  0.3487578E-002  0.1250007E+03  0.7818608E-02  0.1235068E+00
         -4   -1    0    0    0  501 -0.00000000000E+00  0.00000000000E+00  0.87622840910E+01  0.88538422445E+01  0.12700000000E+01 0. -1.
          4   -1    0    0  501    0  0.00000000000E+00 -0.00000000000E+00 -0.44339788087E+03  0.44339969967E+03  0.12700000000E+01 0. -1.
         25    2    1    2    0    0  0.00000000000E+00  0.00000000000E+00 -0.43463559678E+03  0.45225354191E+03  0.12500065672E+03 0.  0.
    9000005    1    3    3    0    0  0.20528183140E+02 -0.23337489853E+02 -0.41346750953E+03  0.41463529297E+03  0.10000000000E+01 0.  0.
    9000005    1    3    3    0    0 -0.20528183140E+02  0.23337489853E+02 -0.21168087251E+02  0.37618248943E+02  0.10000000000E+01 0.  0.
<mgrwt>
<rscale>  0 0.12500066E+03</rscale>
<asrwt>0</asrwt>
<pdfrwt beam="2">  1        4 0.68222224E-01 0.12500066E+03</pdfrwt>
<pdfrwt beam="1">  1       -4 0.13552269E-02 0.12500066E+03</pdfrwt>
<totfact> 0.59768210E+03</totfact>
</mgrwt>
</event>
<event>
 5    1  0.3487578E-002  0.1249880E+03  0.7818608E-02  0.1235088E+00
          4   -1    0    0  501    0  0.00000000000E+00  0.00000000000E+00  0.35139800501E+03  0.35140029998E+03  0.12700000000E+01 0. -1.
         -4   -1    0    0    0  501 -0.00000000000E+00 -0.00000000000E+00 -0.11075556652E+02  0.11148132361E+02  0.12700000000E+01 0. -1.
         25    2    1    2    0    0  0.00000000000E+00  0.00000000000E+00  0.34032244836E+03  0.36254843234E+03  0.12498798716E+03 0.  0.
    9000005    1    3    3    0    0 -0.46209102350E+02 -0.58673202121E+01  0.29097641491E+03  0.29468284751E+03  0.10000000000E+01 0.  0.
    9000005    1    3    3    0    0  0.46209102350E+02  0.58673202121E+01  0.49346033454E+02  0.67865584829E+02  0.10000000000E+01 0.  0.
<mgrwt>
<rscale>  0 0.12498799E+03</rscale>
<asrwt>0</asrwt>
<pdfrwt beam="1">  1        4 0.54066991E-01 0.12498799E+03</pdfrwt>
<pdfrwt beam="2">  1       -4 0.17096911E-02 0.12498799E+03</pdfrwt>
<totfact> 0.68383947E+03</totfact>
</mgrwt>
</event>
<event>
 5    1  0.3487578E-002  0.1250005E+03  0.7818608E-02  0.1235068E+00
          4   -1    0    0  501    0  0.00000000000E+00  0.00000000000E+00  0.36945601825E+01  0.39067473609E+01  0.12700000000E+01 0.  1.
         -4   -1    0    0    0  501 -0.00000000000E+00 -0.00000000000E+00 -0.10275801450E+04  0.10275809298E+04  0.12700000000E+01 0.  1.
         25    2    1    2    0    0  0.00000000000E+00  0.00000000000E+00 -0.10238855849E+04  0.10314876772E+04  0.12500054939E+03 0.  0.
    9000005    1    3    3    0    0  0.53021870047E+02 -0.13425882825E+02 -0.26250823538E+03  0.26814762105E+03  0.10000000000E+01 0.  0.
    9000005    1    3    3    0    0 -0.53021870047E+02  0.13425882825E+02 -0.76137734948E+03  0.76334005615E+03  0.10000000000E+01 0.  0.
<mgrwt>
<rscale>  0 0.12500055E+03</rscale>
<asrwt>0</asrwt>
<pdfrwt beam="1">  1        4 0.58477715E-03 0.12500055E+03</pdfrwt>
<pdfrwt beam="2">  1       -4 0.15810541E+00 0.12500055E+03</pdfrwt>
<totfact> 0.29579597E+03</totfact>
</mgrwt>
</event>
<event>
 5    1  0.3487578E-002  0.1249987E+03  0.7818608E-02  0.1235071E+00
          4   -1    0    0  501    0  0.00000000000E+00  0.00000000000E+00  0.17692329143E+02  0.17737852478E+02  0.12700000000E+01 0.  1.
         -4   -1    0    0    0  501 -0.00000000000E+00 -0.00000000000E+00 -0.22045197737E+03  0.22045563551E+03  0.12700000000E+01 0.  1.
         25    2    1    2    0    0  0.00000000000E+00  0.00000000000E+00 -0.20275964823E+03  0.23819348799E+03  0.12499865107E+03 0.  0.
    9000005    1    3    3    0    0 -0.44383007850E+02 -0.30575868757E+02 -0.41107487034E+02  0.67790564434E+02  0.10000000000E+01 0.  0.
    9000005    1    3    3    0    0  0.44383007850E+02  0.30575868757E+02 -0.16165216119E+03  0.17040292355E+03  0.10000000000E+01 0.  0.
<mgrwt>
<rscale>  0 0.12499865E+03</rscale>
<asrwt>0</asrwt>
<pdfrwt beam="1">  1        4 0.27256801E-02 0.12499865E+03</pdfrwt>
<pdfrwt beam="2">  1       -4 0.33919470E-01 0.12499865E+03</pdfrwt>
<totfact> 0.84069682E+03</totfact>
</mgrwt>
</event>
<event>
 5    1  0.3487578E-002  0.1250045E+03  0.7818608E-02  0.1235062E+00
         -4   -1    0    0    0  501 -0.00000000000E+00  0.00000000000E+00  0.31375058112E+02  0.31400751130E+02  0.12700000000E+01 0. -1.
          4   -1    0    0  501    0  0.00000000000E+00 -0.00000000000E+00 -0.12443078693E+03  0.12443726787E+03  0.12700000000E+01 0. -1.
         25    2    1    2    0    0  0.00000000000E+00  0.00000000000E+00 -0.93055728818E+02  0.15583801900E+03  0.12500447792E+03 0.  0.
    9000005    1    3    3    0    0 -0.43114442353E+02 -0.38840901544E+02 -0.75445503952E+02  0.95186631617E+02  0.10000000000E+01 0.  0.
    9000005    1    3    3    0    0  0.43114442353E+02  0.38840901544E+02 -0.17610224867E+02  0.60651387387E+02  0.10000000000E+01 0.  0.
<mgrwt>
<rscale>  0 0.12500448E+03</rscale>
<asrwt>0</asrwt>
<pdfrwt beam="2">  1        4 0.19145673E-01 0.12500448E+03</pdfrwt>
<pdfrwt beam="1">  1       -4 0.48294070E-02 0.12500448E+03</pdfrwt>
<totfact> 0.98141353E+03</totfact>
</mgrwt>
</event>
<event>
 5    1  0.3487578E-002  0.1250037E+03  0.7818608E-02  0.1235063E+00
          4   -1    0    0  501    0  0.00000000000E+00  0.00000000000E+00  0.57601914462E+02  0.57615913163E+02  0.12700000000E+01 0. -1.
         -4   -1    0    0    0  501 -0.00000000000E+00 -0.00000000000E+00 -0.67790468362E+02  0.67802363533E+02  0.12700000000E+01 0. -1.
         25    2    1    2    0    0  0.00000000000E+00  0.00000000000E+00 -0.10188553900E+02  0.12541827670E+03  0.12500374994E+03 0.  0.
    9000005    1    3    3    0    0 -0.51327405452E+02 -0.21026734769E+02  0.23791092040E+02  0.60362589292E+02  0.10000000000E+01 0.  0.
    9000005    1    3    3    0    0  0.51327405452E+02  0.21026734769E+02 -0.33979645940E+02  0.65055687405E+02  0.10000000000E+01 0.  0.
<mgrwt>
<rscale>  0 0.12500375E+03</rscale>
<asrwt>0</asrwt>
<pdfrwt beam="1">  1        4 0.88638248E-02 0.12500375E+03</pdfrwt>
<pdfrwt beam="2">  1       -4 0.10431295E-01 0.12500375E+03</pdfrwt>
<totfact> 0.10442879E+04</totfact>
</mgrwt>
</event>
<event>
 5    1  0.3487578E-002  0.1249921E+03  0.7818608E-02  0.1235082E+00
         -4   -1    0    0    0  501 -0.00000000000E+00  0.00000000000E+00  0.12605632116E+02  0.12669445965E+02  0.12700000000E+01 0.  1.
          4   -1    0    0  501    0  0.00000000000E+00 -0.00000000000E+00 -0.30899461081E+03  0.30899722072E+03  0.12700000000E+01 0.  1.
         25    2    1    2    0    0  0.00000000000E+00  0.00000000000E+00 -0.29638897870E+03  0.32166666668E+03  0.12499207080E+03 0.  0.
    9000005    1    3    3    0    0  0.42895690949E+02  0.21688370681E+02 -0.45437225997E+02  0.66151093952E+02  0.10000000000E+01 0.  0.
    9000005    1    3    3    0    0 -0.42895690949E+02 -0.21688370681E+02 -0.25095175270E+03  0.25551557273E+03  0.10000000000E+01 0.  0.
<mgrwt>
<rscale>  0 0.12499207E+03</rscale>
<asrwt>0</asrwt>
<pdfrwt beam="2">  1        4 0.47542737E-01 0.12499207E+03</pdfrwt>
<pdfrwt beam="1">  1       -4 0.19444378E-02 0.12499207E+03</pdfrwt>
<totfact> 0.72971161E+03</totfact>
</mgrwt>
</event>
<event>
 5    1  0.3487578E-002  0.1250015E+03  0.7818608E-02  0.1235067E+00
          4   -1    0    0  501    0  0.00000000000E+00  0.00000000000E+00  0.76575904653E+01  0.77621898800E+01  0.12700000000E+01 0.  1.
         -4   -1    0    0    0  501 -0.00000000000E+00 -0.00000000000E+00 -0.50656128001E+03  0.50656287202E+03  0.12700000000E+01 0.  1.
         25    2    1    2    0    0  0.00000000000E+00  0.00000000000E+00 -0.49890368954E+03  0.51432506190E+03  0.12500151140E+03 0.  0.
    9000005    1    3    3    0    0  0.36455270569E+02 -0.50630011062E+02 -0.23463963873E+03  0.24279444976E+03  0.10000000000E+01 0.  0.
    9000005    1    3    3    0    0 -0.36455270569E+02  0.50630011062E+02 -0.26426405081E+03  0.27153061213E+03  0.10000000000E+01 0.  0.
<mgrwt>
<rscale>  0 0.12500151E+03</rscale>
<asrwt>0</asrwt>
<pdfrwt beam="1">  1        4 0.11862598E-02 0.12500151E+03</pdfrwt>
<pdfrwt beam="2">  1       -4 0.77940647E-01 0.12500151E+03</pdfrwt>
<totfact> 0.54767991E+03</totfact>
</mgrwt>
</event>
<event>
 5    1  0.3487578E-002  0.1250430E+03  0.7818608E-02  0.1235002E+00
         -4   -1    0    0    0  501 -0.00000000000E+00  0.00000000000E+00  0.96952181702E+01  0.97780445575E+01  0.12700000000E+01 0.  1.
          4   -1    0    0  501    0  0.00000000000E+00 -0.00000000000E+00 -0.40138341077E+03  0.40138541994E+03  0.12700000000E+01 0.  1.
         25    2    1    2    0    0  0.00000000000E+00  0.00000000000E+00 -0.39168819260E+03  0.41116346450E+03  0.12504300987E+03 0.  0.
    9000005    1    3    3    0    0 -0.27360492772E+01 -0.47632593540E+02 -0.63025026245E+02  0.79053803616E+02  0.10000000000E+01 0.  0.
    9000005    1    3    3    0    0  0.27360492772E+01  0.47632593540E+02 -0.32866316636E+03  0.33210966089E+03  0.10000000000E+01 0.  0.
<mgrwt>
<rscale>  0 0.12504301E+03</rscale>
<asrwt>0</asrwt>
<pdfrwt beam="2">  1        4 0.61757807E-01 0.12504301E+03</pdfrwt>
<pdfrwt beam="1">  1       -4 0.14980981E-02 0.12504301E+03</pdfrwt>
<totfact> 0.63421131E+03</totfact>
</mgrwt>
</event>
<event>
 5    1  0.3487578E-002  0.1249825E+03  0.7818608E-02  0.1235097E+00
         -4   -1    0    0    0  501 -0.00000000000E+00  0.00000000000E+00  0.11817031537E+03  0.11817713965E+03  0.12700000000E+01 0.  1.
          4   -1    0    0  501    0  0.00000000000E+00 -0.00000000000E+00 -0.33026859297E+02  0.33051268282E+02  0.12700000000E+01 0.  1.
         25    2    1    2    0    0  0.00000000000E+00  0.00000000000E+00  0.85143456076E+02  0.15122840793E+03  0.12498249178E+03 0.  0.
    9000005    1    3    3    0    0  0.21280605259E+01 -0.20247827919E+02 -0.28906750647E+02  0.35370940192E+02  0.10000000000E+01 0.  0.
    9000005    1    3    3    0    0 -0.21280605259E+01  0.20247827919E+02  0.11405020672E+03  0.11585746774E+03  0.10000000000E+01 0.  0.
<mgrwt>
<rscale>  0 0.12498249E+03</rscale>
<asrwt>0</asrwt>
<pdfrwt beam="2">  1        4 0.50834577E-02 0.12498249E+03</pdfrwt>
<pdfrwt beam="1">  1       -4 0.18182451E-01 0.12498249E+03</pdfrwt>
<totfact> 0.99098432E+03</totfact>
</mgrwt>
</event>
<event>
 5    1  0.3487578E-002  0.1250123E+03  0.7818608E-02  0.1235050E+00
         -4   -1    0    0    0  501 -0.00000000000E+00  0.00000000000E+00  0.14950219812E+03  0.14950759225E+03  0.12700000000E+01 0.  1.
          4   -1    0    0  501    0  0.00000000000E+00 -0.00000000000E+00 -0.26112214972E+02  0.26143080743E+02  0.12700000000E+01 0.  1.
         25    2    1    2    0    0  0.00000000000E+00  0.00000000000E+00  0.12338998314E+03  0.17565067300E+03  0.12501228333E+03 0.  0.
    9000005    1    3    3    0    0  0.51560779636E+02  0.29540117641E+02  0.88899837937E+02  0.10693602635E+03  0.10000000000E+01 0.  0.
    9000005    1    3    3    0    0 -0.51560779636E+02 -0.29540117641E+02  0.34490145207E+02  0.68714646643E+02  0.10000000000E+01 0.  0.
<mgrwt>
<rscale>  0 0.12501228E+03</rscale>
<asrwt>0</asrwt>
<pdfrwt beam="2">  1        4 0.40200530E-02 0.12501228E+03</pdfrwt>
<pdfrwt beam="1">  1       -4 0.23003128E-01 0.12501228E+03</pdfrwt>
<totfact> 0.94379798E+03</totfact>
</mgrwt>
</event>
<event>
 5    1  0.3487578E-002  0.1249999E+03  0.7818608E-02  0.1235069E+00
         -4   -1    0    0    0  501 -0.00000000000E+00  0.00000000000E+00  0.47660952082E+02  0.47677869640E+02  0.12700000000E+01 0. -1.
          4   -1    0    0  501    0  0.00000000000E+00 -0.00000000000E+00 -0.81922656372E+02  0.81932499821E+02  0.12700000000E+01 0. -1.
         25    2    1    2    0    0  0.00000000000E+00  0.00000000000E+00 -0.34261704289E+02  0.12961036946E+03  0.12499993396E+03 0.  0.
    9000005    1    3    3    0    0  0.57322025957E+02 -0.22423089410E+02 -0.28329015128E+02  0.67765350266E+02  0.10000000000E+01 0.  0.
    9000005    1    3    3    0    0 -0.57322025957E+02  0.22423089410E+02 -0.59326891610E+01  0.61845019195E+02  0.10000000000E+01 0.  0.
<mgrwt>
<rscale>  0 0.12499993E+03</rscale>
<asrwt>0</asrwt>
<pdfrwt beam="2">  1        4 0.12605544E-01 0.12499993E+03</pdfrwt>
<pdfrwt beam="1">  1       -4 0.73345127E-02 0.12499993E+03</pdfrwt>
<totfact> 0.10352865E+04</totfact>
</mgrwt>
</event>
<event>
 5    1  0.3487578E-002  0.1250042E+03  0.7818608E-02  0.1235063E+00
          4   -1    0    0  501    0  0.00000000000E+00  0.00000000000E+00  0.13057355535E+03  0.13057973142E+03  0.12700000000E+01 0. -1.
         -4   -1    0    0    0  501 -0.00000000000E+00 -0.00000000000E+00 -0.29897748811E+02  0.29924710257E+02  0.12700000000E+01 0. -1.
         25    2    1    2    0    0  0.00000000000E+00  0.00000000000E+00  0.10067580654E+03  0.16050444168E+03  0.12500423103E+03 0.  0.
    9000005    1    3    3    0    0 -0.80627853357E+01  0.30390033344E+02 -0.19008983614E+02  0.36754647217E+02  0.10000000000E+01 0.  0.
    9000005    1    3    3    0    0  0.80627853357E+01 -0.30390033344E+02  0.11968479016E+03  0.12374979446E+03  0.10000000000E+01 0.  0.
<mgrwt>
<rscale>  0 0.12500423E+03</rscale>
<asrwt>0</asrwt>
<pdfrwt beam="1">  1        4 0.20090788E-01 0.12500423E+03</pdfrwt>
<pdfrwt beam="2">  1       -4 0.46022028E-02 0.12500423E+03</pdfrwt>
<totfact> 0.97236374E+03</totfact>
</mgrwt>
</event>
<event>
 5    1  0.3487578E-002  0.1250018E+03  0.7818608E-02  0.1235066E+00
         -4   -1    0    0    0  501 -0.00000000000E+00  0.00000000000E+00  0.11602450677E+02  0.11671750585E+02  0.12700000000E+01 0. -1.
          4   -1    0    0  501    0  0.00000000000E+00 -0.00000000000E+00 -0.33561132820E+03  0.33561373112E+03  0.12700000000E+01 0. -1.
         25    2    1    2    0    0  0.00000000000E+00  0.00000000000E+00 -0.32400887753E+03  0.34728548171E+03  0.12500181235E+03 0.  0.
    9000005    1    3    3    0    0  0.62177181287E+02  0.40483905249E+01 -0.17532029495E+03  0.18606610965E+03  0.10000000000E+01 0.  0.
    9000005    1    3    3    0    0 -0.62177181287E+02 -0.40483905249E+01 -0.14868858258E+03  0.16121937206E+03  0.10000000000E+01 0.  0.
<mgrwt>
<rscale>  0 0.12500181E+03</rscale>
<asrwt>0</asrwt>
<pdfrwt beam="2">  1        4 0.51638020E-01 0.12500181E+03</pdfrwt>
<pdfrwt beam="1">  1       -4 0.17905083E-02 0.12500181E+03</pdfrwt>
<totfact> 0.70021416E+03</totfact>
</mgrwt>
</event>
<event>
 5    1  0.3487578E-002  0.1250007E+03  0.7818608E-02  0.1235068E+00
          4   -1    0    0  501    0  0.00000000000E+00  0.00000000000E+00  0.13201020431E+02  0.13261969703E+02  0.12700000000E+01 0.  1.
         -4   -1    0    0    0  501 -0.00000000000E+00 -0.00000000000E+00 -0.29516441308E+03  0.29516714527E+03  0.12700000000E+01 0.  1.
         25    2    1    2    0    0  0.00000000000E+00  0.00000000000E+00 -0.28196339265E+03  0.30842911498E+03  0.12500065668E+03 0.  0.
    9000005    1    3    3    0    0  0.38116941462E+02 -0.37111928804E+02 -0.22188502763E+03  0.22817572608E+03  0.10000000000E+01 0.  0.
    9000005    1    3    3    0    0 -0.38116941462E+02  0.37111928804E+02 -0.60078365018E+02  0.80253388895E+02  0.10000000000E+01 0.  0.
<mgrwt>
<rscale>  0 0.12500066E+03</rscale>
<asrwt>0</asrwt>
<pdfrwt beam="1">  1        4 0.20358250E-02 0.12500066E+03</pdfrwt>
<pdfrwt beam="2">  1       -4 0.45414803E-01 0.12500066E+03</pdfrwt>
<totfact> 0.74552442E+03</totfact>
</mgrwt>
</event>
<event>
 5    1  0.3487578E-002  0.1250035E+03  0.7818608E-02  0.1235064E+00
          4   -1    0    0  501    0  0.00000000000E+00  0.00000000000E+00  0.16599750626E+02  0.16648261796E+02  0.12700000000E+01 0. -1.
         -4   -1    0    0    0  501 -0.00000000000E+00 -0.00000000000E+00 -0.23493940076E+03  0.23494283332E+03  0.12700000000E+01 0. -1.
         25    2    1    2    0    0  0.00000000000E+00  0.00000000000E+00 -0.21833965014E+03  0.25159109512E+03  0.12500350524E+03 0.  0.
    9000005    1    3    3    0    0 -0.17488355850E+02  0.56029692169E+02 -0.15235091520E+03  0.16326962472E+03  0.10000000000E+01 0.  0.
    9000005    1    3    3    0    0  0.17488355850E+02 -0.56029692169E+02 -0.65988734939E+02  0.88321470400E+02  0.10000000000E+01 0.  0.
<mgrwt>
<rscale>  0 0.12500351E+03</rscale>
<asrwt>0</asrwt>
<pdfrwt beam="1">  1        4 0.25578036E-02 0.12500351E+03</pdfrwt>
<pdfrwt beam="2">  1       -4 0.36148517E-01 0.12500351E+03</pdfrwt>
<totfact> 0.82094399E+03</totfact>
</mgrwt>
</event>
<event>
 5    1  0.3487578E-002  0.1249983E+03  0.7818608E-02  0.1235072E+00
         -4   -1    0    0    0  501 -0.00000000000E+00  0.00000000000E+00  0.44723007292E+03  0.44723187613E+03  0.12700000000E+01 0. -1.
          4   -1    0    0  501    0  0.00000000000E+00 -0.00000000000E+00 -0.86860878989E+01  0.87784408061E+01  0.12700000000E+01 0. -1.
         25    2    1    2    0    0  0.00000000000E+00  0.00000000000E+00  0.43854398502E+03  0.45601031693E+03  0.12499832939E+03 0.  0.
    9000005    1    3    3    0    0  0.87016885549E+01 -0.52276268641E+02  0.98463314170E+02  0.11182375367E+03  0.10000000000E+01 0.  0.
    9000005    1    3    3    0    0 -0.87016885549E+01  0.52276268641E+02  0.34008067085E+03  0.34418656327E+03  0.10000000000E+01 0.  0.
<mgrwt>
<rscale>  0 0.12499833E+03</rscale>
<asrwt>0</asrwt>
<pdfrwt beam="2">  1        4 0.13435642E-02 0.12499833E+03</pdfrwt>
<pdfrwt beam="1">  1       -4 0.68811859E-01 0.12499833E+03</pdfrwt>
<totfact> 0.59448826E+03</totfact>
</mgrwt>
</event>
<event>
 5    1  0.3487578E-002  0.1249988E+03  0.7818608E-02  0.1235071E+00
          4   -1    0    0  501    0  0.00000000000E+00  0.00000000000E+00  0.12494950486E+03  0.12495595890E+03  0.12700000000E+01 0.  1.
         -4   -1    0    0    0  501 -0.00000000000E+00 -0.00000000000E+00 -0.31241867492E+02  0.31267669955E+02  0.12700000000E+01 0.  1.
         25    2    1    2    0    0  0.00000000000E+00  0.00000000000E+00  0.93707637364E+02  0.15622362885E+03  0.12499880364E+03 0.  0.
    9000005    1    3    3    0    0 -0.23690046127E+02 -0.41458270934E+02  0.97237522668E+02  0.10833347742E+03  0.10000000000E+01 0.  0.
    9000005    1    3    3    0    0  0.23690046127E+02  0.41458270934E+02 -0.35298853034E+01  0.47890151436E+02  0.10000000000E+01 0.  0.
<mgrwt>
<rscale>  0 0.12499880E+03</rscale>
<asrwt>0</asrwt>
<pdfrwt beam="1">  1        4 0.19225482E-01 0.12499880E+03</pdfrwt>
<pdfrwt beam="2">  1       -4 0.48089223E-02 0.12499880E+03</pdfrwt>
<totfact> 0.98078457E+03</totfact>
</mgrwt>
</event>
<event>
 5    1  0.3487578E-002  0.1250557E+03  0.7818608E-02  0.1234982E+00
         -4   -1    0    0    0  501 -0.00000000000E+00  0.00000000000E+00  0.12977670236E+03  0.12978291634E+03  0.12700000000E+01 0.  1.
          4   -1    0    0  501    0  0.00000000000E+00 -0.00000000000E+00 -0.30106302254E+02  0.30133077098E+02  0.12700000000E+01 0.  1.
         25    2    1    2    0    0  0.00000000000E+00  0.00000000000E+00  0.99670400102E+02  0.15991599344E+03  0.12505573278E+03 0.  0.
    9000005    1    3    3    0    0 -0.26360937589E+01 -0.53457033514E+02  0.91155714302E+02  0.10571171965E+03  0.10000000000E+01 0.  0.
    9000005    1    3    3    0    0  0.26360937589E+01  0.53457033514E+02  0.85146858007E+01  0.54204273787E+02  0.10000000000E+01 0.  0.
<mgrwt>
<rscale>  0 0.12505573E+03</rscale>
<asrwt>0</asrwt>
<pdfrwt beam="2">  1        4 0.46342764E-02 0.12505573E+03</pdfrwt>
<pdfrwt beam="1">  1       -4 0.19968184E-01 0.12505573E+03</pdfrwt>
<totfact> 0.97237118E+03</totfact>
</mgrwt>
</event>
<event>
 5    1  0.3487578E-002  0.1250008E+03  0.7818608E-02  0.1235068E+00
         -4   -1    0    0    0  501 -0.00000000000E+00  0.00000000000E+00  0.17748734322E+02  0.17794113353E+02  0.12700000000E+01 0. -1.
          4   -1    0    0  501    0  0.00000000000E+00 -0.00000000000E+00 -0.21976076134E+03  0.21976443098E+03  0.12700000000E+01 0. -1.
         25    2    1    2    0    0  0.00000000000E+00  0.00000000000E+00 -0.20201202701E+03  0.23755854433E+03  0.12500081170E+03 0.  0.
    9000005    1    3    3    0    0 -0.11267035520E+02 -0.40637579064E+02 -0.18865272510E+03  0.19331117300E+03  0.10000000000E+01 0.  0.
    9000005    1    3    3    0    0  0.11267035520E+02  0.40637579064E+02 -0.13359301916E+02  0.44247371326E+02  0.10000000000E+01 0.  0.
<mgrwt>
<rscale>  0 0.12500081E+03</rscale>
<asrwt>0</asrwt>
<pdfrwt beam="2">  1        4 0.33813119E-01 0.12500081E+03</pdfrwt>
<pdfrwt beam="1">  1       -4 0.27343476E-02 0.12500081E+03</pdfrwt>
<totfact> 0.84160805E+03</totfact>
</mgrwt>
</event>
<event>
 5    1  0.3487578E-002  0.1249956E+03  0.7818608E-02  0.1235076E+00
         -4   -1    0    0    0  501 -0.00000000000E+00  0.00000000000E+00  0.19498872211E+01  0.23270066986E+01  0.12700000000E+01 0. -1.
          4   -1    0    0  501    0  0.00000000000E+00 -0.00000000000E+00 -0.18261693654E+04  0.18261698070E+04  0.12700000000E+01 0. -1.
         25    2    1    2    0    0  0.00000000000E+00  0.00000000000E+00 -0.18242194781E+04  0.18284968137E+04  0.12499557258E+03 0.  0.
    9000005    1    3    3    0    0 -0.93000562966E+01  0.61721403379E+02 -0.95587463244E+03  0.95791092259E+03  0.10000000000E+01 0.  0.
    9000005    1    3    3    0    0  0.93000562966E+01 -0.61721403379E+02 -0.86834484570E+03  0.87058589107E+03  0.10000000000E+01 0.  0.
<mgrwt>
<rscale>  0 0.12499557E+03</rscale>
<asrwt>0</asrwt>
<pdfrwt beam="2">  1        4 0.28097693E+00 0.12499557E+03</pdfrwt>
<pdfrwt beam="1">  1       -4 0.32902727E-03 0.12499557E+03</pdfrwt>
<totfact> 0.12270873E+03</totfact>
</mgrwt>
</event>
<event>
 5    1  0.3487578E-002  0.1249939E+03  0.7818608E-02  0.1235079E+00
         -4   -1    0    0    0  501 -0.00000000000E+00  0.00000000000E+00  0.16122101085E+03  0.16122601291E+03  0.12700000000E+01 0.  1.
          4   -1    0    0  501    0  0.00000000000E+00 -0.00000000000E+00 -0.24204765524E+02  0.24238060444E+02  0.12700000000E+01 0.  1.
         25    2    1    2    0    0  0.00000000000E+00  0.00000000000E+00  0.13701624533E+03  0.18546407336E+03  0.12499388394E+03 0.  0.
    9000005    1    3    3    0    0 -0.20503031257E+02 -0.58725992848E+02  0.77380020225E+02  0.99286373973E+02  0.10000000000E+01 0.  0.
    9000005    1    3    3    0    0  0.20503031257E+02  0.58725992848E+02  0.59636225103E+02  0.86177699385E+02  0.10000000000E+01 0.  0.
<mgrwt>
<rscale>  0 0.12499388E+03</rscale>
<asrwt>0</asrwt>
<pdfrwt beam="2">  1        4 0.37267561E-02 0.12499388E+03</pdfrwt>
<pdfrwt beam="1">  1       -4 0.24806178E-01 0.12499388E+03</pdfrwt>
<totfact> 0.92655295E+03</totfact>
</mgrwt>
</event>
<event>
 5    1  0.3487578E-002  0.1249849E+03  0.7818608E-02  0.1235093E+00
         -4   -1    0    0    0  501 -0.00000000000E+00  0.00000000000E+00  0.65402179589E+02  0.65414509055E+02  0.12700000000E+01 0. -1.
          4   -1    0    0  501    0  0.00000000000E+00 -0.00000000000E+00 -0.59687501920E+02  0.59701011595E+02  0.12700000000E+01 0. -1.
         25    2    1    2    0    0  0.00000000000E+00  0.00000000000E+00  0.57146776687E+01  0.12511552065E+03  0.12498494296E+03 0.  0.
    9000005    1    3    3    0    0  0.24868728922E+02 -0.38648182620E+01 -0.54394356603E+02  0.59942777118E+02  0.10000000000E+01 0.  0.
    9000005    1    3    3    0    0 -0.24868728922E+02  0.38648182620E+01  0.60109034272E+02  0.65172743532E+02  0.10000000000E+01 0.  0.
<mgrwt>
<rscale>  0 0.12498494E+03</rscale>
<asrwt>0</asrwt>
<pdfrwt beam="2">  1        4 0.91846802E-02 0.12498494E+03</pdfrwt>
<pdfrwt beam="1">  1       -4 0.10063861E-01 0.12498494E+03</pdfrwt>
<totfact> 0.10453911E+04</totfact>
</mgrwt>
</event>
<event>
 5    1  0.3487578E-002  0.1249972E+03  0.7818608E-02  0.1235074E+00
          4   -1    0    0  501    0  0.00000000000E+00  0.00000000000E+00  0.26618682395E+01  0.29493122121E+01  0.12700000000E+01 0. -1.
         -4   -1    0    0    0  501 -0.00000000000E+00 -0.00000000000E+00 -0.13919605170E+04  0.13919610963E+04  0.12700000000E+01 0. -1.
         25    2    1    2    0    0  0.00000000000E+00  0.00000000000E+00 -0.13892986487E+04  0.13949104085E+04  0.12499724998E+03 0.  0.
    9000005    1    3    3    0    0 -0.46394062341E+02 -0.37747016313E+02 -0.89670517880E+03  0.89869818290E+03  0.10000000000E+01 0.  0.
    9000005    1    3    3    0    0  0.46394062341E+02  0.37747016313E+02 -0.49259346992E+03  0.49621222564E+03  0.10000000000E+01 0.  0.
<mgrwt>
<rscale>  0 0.12499725E+03</rscale>
<asrwt>0</asrwt>
<pdfrwt beam="1">  1        4 0.43167494E-03 0.12499725E+03</pdfrwt>
<pdfrwt beam="2">  1       -4 0.21416938E+00 0.12499725E+03</pdfrwt>
<totfact> 0.20091692E+03</totfact>
</mgrwt>
</event>
<event>
 5    1  0.3487578E-002  0.1250002E+03  0.7818608E-02  0.1235069E+00
          4   -1    0    0  501    0  0.00000000000E+00  0.00000000000E+00  0.14319114294E+02  0.14375323793E+02  0.12700000000E+01 0. -1.
         -4   -1    0    0    0  501 -0.00000000000E+00 -0.00000000000E+00 -0.27220865459E+03  0.27221161719E+03  0.12700000000E+01 0. -1.
         25    2    1    2    0    0  0.00000000000E+00  0.00000000000E+00 -0.25788954030E+03  0.28658694098E+03  0.12500023899E+03 0.  0.
    9000005    1    3    3    0    0  0.45659188944E+02 -0.35213719620E+02 -0.73705787017E+02  0.93585846282E+02  0.10000000000E+01 0.  0.
    9000005    1    3    3    0    0 -0.45659188944E+02  0.35213719620E+02 -0.18418375328E+03  0.19300109470E+03  0.10000000000E+01 0.  0.
<mgrwt>
<rscale>  0 0.12500024E+03</rscale>
<asrwt>0</asrwt>
<pdfrwt beam="1">  1        4 0.22074926E-02 0.12500024E+03</pdfrwt>
<pdfrwt beam="2">  1       -4 0.41882802E-01 0.12500024E+03</pdfrwt>
<totfact> 0.77312345E+03</totfact>
</mgrwt>
</event>
<event>
 5    1  0.3487578E-002  0.1249992E+03  0.7818608E-02  0.1235070E+00
         -4   -1    0    0    0  501 -0.00000000000E+00  0.00000000000E+00  0.20391295092E+02  0.20430805553E+02  0.12700000000E+01 0. -1.
          4   -1    0    0  501    0  0.00000000000E+00 -0.00000000000E+00 -0.19133524851E+03  0.19133946332E+03  0.12700000000E+01 0. -1.
         25    2    1    2    0    0  0.00000000000E+00  0.00000000000E+00 -0.17094395342E+03  0.21177026887E+03  0.12499924627E+03 0.  0.
    9000005    1    3    3    0    0  0.49808662946E+02 -0.14828881417E+02 -0.14426742903E+03  0.15334565435E+03  0.10000000000E+01 0.  0.
    9000005    1    3    3    0    0 -0.49808662946E+02  0.14828881417E+02 -0.26676524388E+02  0.58424614521E+02  0.10000000000E+01 0.  0.
<mgrwt>
<rscale>  0 0.12499925E+03</rscale>
<asrwt>0</asrwt>
<pdfrwt beam="2">  1        4 0.29439554E-01 0.12499925E+03</pdfrwt>
<pdfrwt beam="1">  1       -4 0.31404859E-02 0.12499925E+03</pdfrwt>
<totfact> 0.88189073E+03</totfact>
</mgrwt>
</event>
<event>
 5    1  0.3487578E-002  0.1249984E+03  0.7818608E-02  0.1235072E+00
         -4   -1    0    0    0  501 -0.00000000000E+00  0.00000000000E+00  0.13229941020E+03  0.13230550570E+03  0.12700000000E+01 0.  1.
          4   -1    0    0  501    0  0.00000000000E+00 -0.00000000000E+00 -0.29504650318E+02  0.29531970648E+02  0.12700000000E+01 0.  1.
         25    2    1    2    0    0  0.00000000000E+00  0.00000000000E+00  0.10279475988E+03  0.16183747635E+03  0.12499842436E+03 0.  0.
    9000005    1    3    3    0    0  0.25540688805E+02  0.57025667228E+02  0.50170459100E+02  0.80139431454E+02  0.10000000000E+01 0.  0.
    9000005    1    3    3    0    0 -0.25540688805E+02 -0.57025667228E+02  0.52624300784E+02  0.81698044899E+02  0.10000000000E+01 0.  0.
<mgrwt>
<rscale>  0 0.12499842E+03</rscale>
<asrwt>0</asrwt>
<pdfrwt beam="2">  1        4 0.45417474E-02 0.12499842E+03</pdfrwt>
<pdfrwt beam="1">  1       -4 0.20356326E-01 0.12499842E+03</pdfrwt>
<totfact> 0.96993133E+03</totfact>
</mgrwt>
</event>
<event>
 5    1  0.3487578E-002  0.1250399E+03  0.7818608E-02  0.1235007E+00
         -4   -1    0    0    0  501 -0.00000000000E+00  0.00000000000E+00  0.38264314000E+02  0.38285383972E+02  0.12700000000E+01 0.  1.
          4   -1    0    0  501    0  0.00000000000E+00 -0.00000000000E+00 -0.10209799293E+03  0.10210589141E+03  0.12700000000E+01 0.  1.
         25    2    1    2    0    0  0.00000000000E+00  0.00000000000E+00 -0.63833678933E+02  0.14039127538E+03  0.12503988019E+03 0.  0.
    9000005    1    3    3    0    0  0.20500704620E+01 -0.56980557310E+02 -0.31432750879E+01  0.57112755830E+02  0.10000000000E+01 0.  0.
    9000005    1    3    3    0    0 -0.20500704620E+01  0.56980557310E+02 -0.60690403845E+02  0.83278519554E+02  0.10000000000E+01 0.  0.
<mgrwt>
<rscale>  0 0.12503988E+03</rscale>
<asrwt>0</asrwt>
<pdfrwt beam="2">  1        4 0.15709612E-01 0.12503988E+03</pdfrwt>
<pdfrwt beam="1">  1       -4 0.58890459E-02 0.12503988E+03</pdfrwt>
<totfact> 0.10116391E+04</totfact>
</mgrwt>
</event>
<event>
 5    1  0.3487578E-002  0.1250000E+03  0.7818608E-02  0.1235069E+00
          4   -1    0    0  501    0  0.00000000000E+00  0.00000000000E+00  0.22910178110E+03  0.22910530113E+03  0.12700000000E+01 0. -1.
         -4   -1    0    0    0  501 -0.00000000000E+00 -0.00000000000E+00 -0.17022976078E+02  0.17070284548E+02  0.12700000000E+01 0. -1.
         25    2    1    2    0    0  0.00000000000E+00  0.00000000000E+00  0.21207880502E+03  0.24617558567E+03  0.12499999777E+03 0.  0.
    9000005    1    3    3    0    0  0.21583076297E+02 -0.58144875379E+02  0.12111456790E+03  0.13607495829E+03  0.10000000000E+01 0.  0.
    9000005    1    3    3    0    0 -0.21583076297E+02  0.58144875379E+02  0.90964237120E+02  0.11010062738E+03  0.10000000000E+01 0.  0.
<mgrwt>
<rscale>  0 0.12500000E+03</rscale>
<asrwt>0</asrwt>
<pdfrwt beam="1">  1        4 0.35250333E-01 0.12500000E+03</pdfrwt>
<pdfrwt beam="2">  1       -4 0.26228296E-02 0.12500000E+03</pdfrwt>
<totfact> 0.82886143E+03</totfact>
</mgrwt>
</event>
<event>
 5    1  0.3487578E-002  0.1249984E+03  0.7818608E-02  0.1235072E+00
          4   -1    0    0  501    0  0.00000000000E+00  0.00000000000E+00  0.16141593180E+02  0.16191477091E+02  0.12700000000E+01 0.  1.
         -4   -1    0    0    0  501 -0.00000000000E+00 -0.00000000000E+00 -0.24156785137E+03  0.24157118975E+03  0.12700000000E+01 0.  1.
         25    2    1    2    0    0  0.00000000000E+00  0.00000000000E+00 -0.22542625819E+03  0.25776266684E+03  0.12499837812E+03 0.  0.
    9000005    1    3    3    0    0  0.75431030749E+01  0.32771906086E+02 -0.22132783326E+03  0.22387028836E+03  0.10000000000E+01 0.  0.
    9000005    1    3    3    0    0 -0.75431030749E+01 -0.32771906086E+02 -0.40984249339E+01  0.33892378486E+02  0.10000000000E+01 0.  0.
<mgrwt>
<rscale>  0 0.12499838E+03</rscale>
<asrwt>0</asrwt>
<pdfrwt beam="1">  1        4 0.24874162E-02 0.12499838E+03</pdfrwt>
<pdfrwt beam="2">  1       -4 0.37168376E-01 0.12499838E+03</pdfrwt>
<totfact> 0.81224001E+03</totfact>
</mgrwt>
</event>
<event>
 5    1  0.3487578E-002  0.1250026E+03  0.7818608E-02  0.1235065E+00
          4   -1    0    0  501    0  0.00000000000E+00  0.00000000000E+00  0.20231076236E+03  0.20231474851E+03  0.12700000000E+01 0.  1.
         -4   -1    0    0    0  501 -0.00000000000E+00 -0.00000000000E+00 -0.19283910713E+02  0.19325685302E+02  0.12700000000E+01 0.  1.
         25    2    1    2    0    0  0.00000000000E+00  0.00000000000E+00  0.18302685164E+03  0.22164043381E+03  0.12500261389E+03 0.  0.
    9000005    1    3    3    0    0 -0.46092339283E+02  0.21786262920E+02  0.27429943464E+02  0.57901181258E+02  0.10000000000E+01 0.  0.
    9000005    1    3    3    0    0  0.46092339283E+02 -0.21786262920E+02  0.15559690818E+03  0.16373925256E+03  0.10000000000E+01 0.  0.
<mgrwt>
<rscale>  0 0.12500261E+03</rscale>
<asrwt>0</asrwt>
<pdfrwt beam="1">  1        4 0.31128252E-01 0.12500261E+03</pdfrwt>
<pdfrwt beam="2">  1       -4 0.29702757E-02 0.12500261E+03</pdfrwt>
<totfact> 0.86604381E+03</totfact>
</mgrwt>
</event>
<event>
 5    1  0.3487578E-002  0.1250003E+03  0.7818608E-02  0.1235069E+00
          4   -1    0    0  501    0  0.00000000000E+00  0.00000000000E+00  0.35357224749E+02  0.35380026031E+02  0.12700000000E+01 0.  1.
         -4   -1    0    0    0  501 -0.00000000000E+00 -0.00000000000E+00 -0.11041809326E+03  0.11042539662E+03  0.12700000000E+01 0.  1.
         25    2    1    2    0    0  0.00000000000E+00  0.00000000000E+00 -0.75060868510E+02  0.14580542265E+03  0.12500034917E+03 0.  0.
    9000005    1    3    3    0    0  0.26724140784E+02  0.38739405124E+02  0.10426437674E+02  0.48214435728E+02  0.10000000000E+01 0.  0.
    9000005    1    3    3    0    0 -0.26724140784E+02 -0.38739405124E+02 -0.85487306185E+02  0.97590986924E+02  0.10000000000E+01 0.  0.
<mgrwt>
<rscale>  0 0.12500035E+03</rscale>
<asrwt>0</asrwt>
<pdfrwt beam="1">  1        4 0.54418888E-02 0.12500035E+03</pdfrwt>
<pdfrwt beam="2">  1       -4 0.16989715E-01 0.12500035E+03</pdfrwt>
<totfact> 0.10014571E+04</totfact>
</mgrwt>
</event>
<event>
 5    1  0.3487578E-002  0.1249891E+03  0.7818608E-02  0.1235086E+00
         -4   -1    0    0    0  501 -0.00000000000E+00  0.00000000000E+00  0.59620270032E+01  0.60957908418E+01  0.12700000000E+01 0. -1.
          4   -1    0    0  501    0  0.00000000000E+00 -0.00000000000E+00 -0.64767198560E+03  0.64767323075E+03  0.12700000000E+01 0. -1.
         25    2    1    2    0    0  0.00000000000E+00  0.00000000000E+00 -0.64170995860E+03  0.65376902159E+03  0.12498905005E+03 0.  0.
    9000005    1    3    3    0    0 -0.40208792987E+01  0.30958188933E+02 -0.60398462486E+03  0.60479170299E+03  0.10000000000E+01 0.  0.
    9000005    1    3    3    0    0  0.40208792987E+01 -0.30958188933E+02 -0.37725333734E+02  0.48977318604E+02  0.10000000000E+01 0.  0.
<mgrwt>
<rscale>  0 0.12498905E+03</rscale>
<asrwt>0</asrwt>
<pdfrwt beam="2">  1        4 0.99652174E-01 0.12498905E+03</pdfrwt>
<pdfrwt beam="1">  1       -4 0.92762074E-03 0.12498905E+03</pdfrwt>
<totfact> 0.45651162E+03</totfact>
</mgrwt>
</event>
<event>
 5    1  0.3487578E-002  0.1250008E+03  0.7818608E-02  0.1235068E+00
          4   -1    0    0  501    0  0.00000000000E+00  0.00000000000E+00  0.35401414425E+01  0.37610505757E+01  0.12700000000E+01 0. -1.
         -4   -1    0    0    0  501 -0.00000000000E+00 -0.00000000000E+00 -0.10698230298E+04  0.10698237836E+04  0.12700000000E+01 0. -1.
         25    2    1    2    0    0  0.00000000000E+00  0.00000000000E+00 -0.10662828883E+04  0.10735848342E+04  0.12500079281E+03 0.  0.
    9000005    1    3    3    0    0 -0.33073436694E+02  0.37678962755E+02 -0.85354928771E+03  0.85502101904E+03  0.10000000000E+01 0.  0.
    9000005    1    3    3    0    0  0.33073436694E+02 -0.37678962755E+02 -0.21273360062E+03  0.21856381513E+03  0.10000000000E+01 0.  0.
<mgrwt>
<rscale>  0 0.12500079E+03</rscale>
<asrwt>0</asrwt>
<pdfrwt beam="1">  1        4 0.56168899E-03 0.12500079E+03</pdfrwt>
<pdfrwt beam="2">  1       -4 0.16460496E+00 0.12500079E+03</pdfrwt>
<totfact> 0.28269198E+03</totfact>
</mgrwt>
</event>
<event>
 5    1  0.3487578E-002  0.1250012E+03  0.7818608E-02  0.1235067E+00
         -4   -1    0    0    0  501 -0.00000000000E+00  0.00000000000E+00  0.33408809918E+03  0.33409051306E+03  0.12700000000E+01 0. -1.
          4   -1    0    0  501    0  0.00000000000E+00 -0.00000000000E+00 -0.11655556562E+02  0.11724542583E+02  0.12700000000E+01 0. -1.
         25    2    1    2    0    0  0.00000000000E+00  0.00000000000E+00  0.32243254262E+03  0.34581505564E+03  0.12500123266E+03 0.  0.
    9000005    1    3    3    0    0 -0.86784200811E+01  0.46253805759E+02  0.47466714008E+02  0.66849221843E+02  0.10000000000E+01 0.  0.
    9000005    1    3    3    0    0  0.86784200811E+01 -0.46253805759E+02  0.27496582861E+03  0.27896583380E+03  0.10000000000E+01 0.  0.
<mgrwt>
<rscale>  0 0.12500123E+03</rscale>
<asrwt>0</asrwt>
<pdfrwt beam="2">  1        4 0.17986550E-02 0.12500123E+03</pdfrwt>
<pdfrwt beam="1">  1       -4 0.51403657E-01 0.12500123E+03</pdfrwt>
<totfact> 0.70185504E+03</totfact>
</mgrwt>
</event>
<event>
 4    1  0.3487578E-002  0.1247028E+03  0.7818608E-02  0.1235534E+00
         -4   -1    0    0    0  501 -0.00000000000E+00  0.00000000000E+00  0.52912963418E+02  0.52928202290E+02  0.12700000000E+01 0.  1.
          4   -1    0    0  501    0  0.00000000000E+00 -0.00000000000E+00 -0.73442148881E+02  0.73453128812E+02  0.12700000000E+01 0.  1.
    9000005    1    1    2    0    0 -0.32474329607E+02  0.50015684731E-01 -0.64198513997E+02  0.71951607240E+02  0.10000000000E+01 0.  0.
    9000005    1    1    2    0    0  0.32474329607E+02 -0.50015684731E-01  0.43669328534E+02  0.54429723861E+02  0.10000000000E+01 0.  0.
<mgrwt>
<rscale>  0 0.12470282E+03</rscale>
<asrwt>0</asrwt>
<pdfrwt beam="2">  1        4 0.11300809E-01 0.12470282E+03</pdfrwt>
<pdfrwt beam="1">  1       -4 0.81424727E-02 0.12470282E+03</pdfrwt>
<totfact> 0.10492840E+04</totfact>
</mgrwt>
</event>
<event>
 5    1  0.3487578E-002  0.1250112E+03  0.7818608E-02  0.1235052E+00
         -4   -1    0    0    0  501 -0.00000000000E+00  0.00000000000E+00  0.41779187543E+03  0.41779380570E+03  0.12700000000E+01 0. -1.
          4   -1    0    0  501    0  0.00000000000E+00 -0.00000000000E+00 -0.93063403397E+01  0.93925965801E+01  0.12700000000E+01 0. -1.
         25    2    1    2    0    0  0.00000000000E+00  0.00000000000E+00  0.40848553509E+03  0.42718640228E+03  0.12501115914E+03 0.  0.
    9000005    1    3    3    0    0 -0.27834772606E+02 -0.19157384146E+02  0.38390252946E+03  0.38538802791E+03  0.10000000000E+01 0.  0.
    9000005    1    3    3    0    0  0.27834772606E+02  0.19157384146E+02  0.24583005633E+02  0.41798374362E+02  0.10000000000E+01 0.  0.
<mgrwt>
<rscale>  0 0.12501116E+03</rscale>
<asrwt>0</asrwt>
<pdfrwt beam="2">  1        4 0.14385287E-02 0.12501116E+03</pdfrwt>
<pdfrwt beam="1">  1       -4 0.64282437E-01 0.12501116E+03</pdfrwt>
<totfact> 0.61976615E+03</totfact>
</mgrwt>
</event>
<event>
 5    1  0.3487578E-002  0.1250010E+03  0.7818608E-02  0.1235068E+00
         -4   -1    0    0    0  501 -0.00000000000E+00  0.00000000000E+00  0.48879506689E+02  0.48896002640E+02  0.12700000000E+01 0. -1.
          4   -1    0    0  501    0  0.00000000000E+00 -0.00000000000E+00 -0.79882117972E+02  0.79892212835E+02  0.12700000000E+01 0. -1.
         25    2    1    2    0    0  0.00000000000E+00  0.00000000000E+00 -0.31002611283E+02  0.12878821547E+03  0.12500097015E+03 0.  0.
    9000005    1    3    3    0    0  0.27226180301E+02 -0.41671329604E+02 -0.54428921162E+02  0.73764978571E+02  0.10000000000E+01 0.  0.
    9000005    1    3    3    0    0 -0.27226180301E+02  0.41671329604E+02  0.23426309879E+02  0.55023236903E+02  0.10000000000E+01 0.  0.
<mgrwt>
<rscale>  0 0.12500097E+03</rscale>
<asrwt>0</asrwt>
<pdfrwt beam="2">  1        4 0.12291602E-01 0.12500097E+03</pdfrwt>
<pdfrwt beam="1">  1       -4 0.75219696E-02 0.12500097E+03</pdfrwt>
<totfact> 0.10370273E+04</totfact>
</mgrwt>
</event>
<event>
 5    1  0.3487578E-002  0.1250020E+03  0.7818608E-02  0.1235066E+00
          4   -1    0    0  501    0  0.00000000000E+00  0.00000000000E+00  0.73421581385E+02  0.73432564391E+02  0.12700000000E+01 0. -1.
         -4   -1    0    0    0  501 -0.00000000000E+00 -0.00000000000E+00 -0.53182202030E+02  0.53197363777E+02  0.12700000000E+01 0. -1.
         25    2    1    2    0    0  0.00000000000E+00  0.00000000000E+00  0.20239379355E+02  0.12662992817E+03  0.12500202491E+03 0.  0.
    9000005    1    3    3    0    0 -0.61206878567E+02  0.74529406852E+01  0.20428076139E+02  0.64962563093E+02  0.10000000000E+01 0.  0.
    9000005    1    3    3    0    0  0.61206878567E+02 -0.74529406852E+01 -0.18869678466E+00  0.61667365075E+02  0.10000000000E+01 0.  0.
<mgrwt>
<rscale>  0 0.12500202E+03</rscale>
<asrwt>0</asrwt>
<pdfrwt beam="1">  1        4 0.11297639E-01 0.12500202E+03</pdfrwt>
<pdfrwt beam="2">  1       -4 0.81838884E-02 0.12500202E+03</pdfrwt>
<totfact> 0.10416720E+04</totfact>
</mgrwt>
</event>
<event>
 5    1  0.3487578E-002  0.1250001E+03  0.7818608E-02  0.1235069E+00
         -4   -1    0    0    0  501 -0.00000000000E+00  0.00000000000E+00  0.63704463342E+02  0.63717121323E+02  0.12700000000E+01 0. -1.
          4   -1    0    0  501    0  0.00000000000E+00 -0.00000000000E+00 -0.61293087297E+02  0.61306243160E+02  0.12700000000E+01 0. -1.
         25    2    1    2    0    0  0.00000000000E+00  0.00000000000E+00  0.24113760455E+01  0.12502336448E+03  0.12500010773E+03 0.  0.
    9000005    1    3    3    0    0  0.34139362553E+02  0.27209035056E+02 -0.43517607262E+02  0.61649086011E+02  0.10000000000E+01 0.  0.
    9000005    1    3    3    0    0 -0.34139362553E+02 -0.27209035056E+02  0.45928983307E+02  0.63374278472E+02  0.10000000000E+01 0.  0.
<mgrwt>
<rscale>  0 0.12500011E+03</rscale>
<asrwt>0</asrwt>
<pdfrwt beam="2">  1        4 0.94316914E-02 0.12500011E+03</pdfrwt>
<pdfrwt beam="1">  1       -4 0.98026724E-02 0.12500011E+03</pdfrwt>
<totfact> 0.10452330E+04</totfact>
</mgrwt>
</event>
<event>
 5    1  0.3487578E-002  0.1249996E+03  0.7818608E-02  0.1235070E+00
         -4   -1    0    0    0  501 -0.00000000000E+00  0.00000000000E+00  0.17787488270E+02  0.17832768684E+02  0.12700000000E+01 0. -1.
          4   -1    0    0  501    0  0.00000000000E+00 -0.00000000000E+00 -0.21927893847E+03  0.21928261617E+03  0.12700000000E+01 0. -1.
         25    2    1    2    0    0  0.00000000000E+00  0.00000000000E+00 -0.20149145020E+03  0.23711538486E+03  0.12499960493E+03 0.  0.
    9000005    1    3    3    0    0 -0.27243114383E+02 -0.11814196791E+02 -0.20505031177E+03  0.20719168150E+03  0.10000000000E+01 0.  0.
    9000005    1    3    3    0    0  0.27243114383E+02  0.11814196791E+02  0.35588615662E+01  0.29923703359E+02  0.10000000000E+01 0.  0.
<mgrwt>
<rscale>  0 0.12499960E+03</rscale>
<asrwt>0</asrwt>
<pdfrwt beam="2">  1        4 0.33738985E-01 0.12499960E+03</pdfrwt>
<pdfrwt beam="1">  1       -4 0.27403028E-02 0.12499960E+03</pdfrwt>
<totfact> 0.84229607E+03</totfact>
</mgrwt>
</event>
<event>
 5    1  0.3487578E-002  0.1250014E+03  0.7818608E-02  0.1235067E+00
         -4   -1    0    0    0  501 -0.00000000000E+00  0.00000000000E+00  0.68415608190E+03  0.68415726065E+03  0.12700000000E+01 0. -1.
          4   -1    0    0  501    0  0.00000000000E+00 -0.00000000000E+00 -0.56378947517E+01  0.57791657902E+01  0.12700000000E+01 0. -1.
         25    2    1    2    0    0  0.00000000000E+00  0.00000000000E+00  0.67851818715E+03  0.68993642645E+03  0.12500136895E+03 0.  0.
    9000005    1    3    3    0    0 -0.18180146564E+02  0.49519832668E+02  0.15432899592E+03  0.16309865278E+03  0.10000000000E+01 0.  0.
    9000005    1    3    3    0    0  0.18180146564E+02 -0.49519832668E+02  0.52418919123E+03  0.52683777366E+03  0.10000000000E+01 0.  0.
<mgrwt>
<rscale>  0 0.12500137E+03</rscale>
<asrwt>0</asrwt>
<pdfrwt beam="2">  1        4 0.87832590E-03 0.12500137E+03</pdfrwt>
<pdfrwt beam="1">  1       -4 0.10526576E+00 0.12500137E+03</pdfrwt>
<totfact> 0.43621968E+03</totfact>
</mgrwt>
</event>
<event>
 5    1  0.3487578E-002  0.1250014E+03  0.7818608E-02  0.1235067E+00
         -4   -1    0    0    0  501 -0.00000000000E+00  0.00000000000E+00  0.23233038435E+03  0.23233385546E+03  0.12700000000E+01 0. -1.
          4   -1    0    0  501    0  0.00000000000E+00 -0.00000000000E+00 -0.16786139243E+02  0.16834113303E+02  0.12700000000E+01 0. -1.
         25    2    1    2    0    0  0.00000000000E+00  0.00000000000E+00  0.21554424511E+03  0.24916796876E+03  0.12500142022E+03 0.  0.
    9000005    1    3    3    0    0 -0.47678085124E+02 -0.16687290303E+02  0.34433255468E+02  0.61141757751E+02  0.10000000000E+01 0.  0.
    9000005    1    3    3    0    0  0.47678085124E+02  0.16687290303E+02  0.18111098964E+03  0.18802621101E+03  0.10000000000E+01 0.  0.
<mgrwt>
<rscale>  0 0.12500142E+03</rscale>
<asrwt>0</asrwt>
<pdfrwt beam="2">  1        4 0.25864401E-02 0.12500142E+03</pdfrwt>
<pdfrwt beam="1">  1       -4 0.35747096E-01 0.12500142E+03</pdfrwt>
<totfact> 0.82448019E+03</totfact>
</mgrwt>
</event>
<event>
 5    1  0.3487578E-002  0.1249991E+03  0.7818608E-02  0.1235071E+00
         -4   -1    0    0    0  501 -0.00000000000E+00  0.00000000000E+00  0.12549705331E+02  0.12613802119E+02  0.12700000000E+01 0.  1.
          4   -1    0    0  501    0  0.00000000000E+00 -0.00000000000E+00 -0.31039961071E+03  0.31040220880E+03  0.12700000000E+01 0.  1.
         25    2    1    2    0    0  0.00000000000E+00  0.00000000000E+00 -0.29784990538E+03  0.32301601092E+03  0.12499910870E+03 0.  0.
    9000005    1    3    3    0    0  0.56662616834E+02  0.15197901808E+02 -0.93286776268E+02  0.11020458698E+03  0.10000000000E+01 0.  0.
    9000005    1    3    3    0    0 -0.56662616834E+02 -0.15197901808E+02 -0.20456312911E+03  0.21281142394E+03  0.10000000000E+01 0.  0.
<mgrwt>
<rscale>  0 0.12499911E+03</rscale>
<asrwt>0</asrwt>
<pdfrwt beam="2">  1        4 0.47758911E-01 0.12499911E+03</pdfrwt>
<pdfrwt beam="1">  1       -4 0.19358545E-02 0.12499911E+03</pdfrwt>
<totfact> 0.72800281E+03</totfact>
</mgrwt>
</event>
<event>
 5    1  0.3487578E-002  0.1250007E+03  0.7818608E-02  0.1235068E+00
          4   -1    0    0  501    0  0.00000000000E+00  0.00000000000E+00  0.19814801516E+03  0.19815208505E+03  0.12700000000E+01 0.  1.
         -4   -1    0    0    0  501 -0.00000000000E+00 -0.00000000000E+00 -0.19689303448E+02  0.19730219722E+02  0.12700000000E+01 0.  1.
         25    2    1    2    0    0  0.00000000000E+00  0.00000000000E+00  0.17845871171E+03  0.21788230477E+03  0.12500074779E+03 0.  0.
    9000005    1    3    3    0    0  0.68730215130E+01 -0.37423685982E+02  0.28204683586E+01  0.38167076637E+02  0.10000000000E+01 0.  0.
    9000005    1    3    3    0    0 -0.68730215130E+01  0.37423685982E+02  0.17563824335E+03  0.17971522814E+03  0.10000000000E+01 0.  0.
<mgrwt>
<rscale>  0 0.12500075E+03</rscale>
<asrwt>0</asrwt>
<pdfrwt beam="1">  1        4 0.30487771E-01 0.12500075E+03</pdfrwt>
<pdfrwt beam="2">  1       -4 0.30325840E-02 0.12500075E+03</pdfrwt>
<totfact> 0.87203102E+03</totfact>
</mgrwt>
</event>
<event>
 5    1  0.3487578E-002  0.1250022E+03  0.7818608E-02  0.1235066E+00
          4   -1    0    0  501    0  0.00000000000E+00  0.00000000000E+00  0.23923764733E+03  0.23924101822E+03  0.12700000000E+01 0.  1.
         -4   -1    0    0    0  501 -0.00000000000E+00 -0.00000000000E+00 -0.16300294979E+02  0.16349694688E+02  0.12700000000E+01 0.  1.
         25    2    1    2    0    0  0.00000000000E+00  0.00000000000E+00  0.22293735235E+03  0.25559071291E+03  0.12500219779E+03 0.  0.
    9000005    1    3    3    0    0 -0.19608103654E+02 -0.35769480614E+02  0.20827245822E+03  0.21223183156E+03  0.10000000000E+01 0.  0.
    9000005    1    3    3    0    0  0.19608103654E+02  0.35769480614E+02  0.14664894128E+02  0.43358881352E+02  0.10000000000E+01 0.  0.
<mgrwt>
<rscale>  0 0.12500220E+03</rscale>
<asrwt>0</asrwt>
<pdfrwt beam="1">  1        4 0.36809849E-01 0.12500220E+03</pdfrwt>
<pdfrwt beam="2">  1       -4 0.25117971E-02 0.12500220E+03</pdfrwt>
<totfact> 0.81524862E+03</totfact>
</mgrwt>
</event>
<event>
 5    1  0.3487578E-002  0.1249986E+03  0.7818608E-02  0.1235071E+00
         -4   -1    0    0    0  501 -0.00000000000E+00  0.00000000000E+00  0.40001170110E+02  0.40021325692E+02  0.12700000000E+01 0. -1.
          4   -1    0    0  501    0  0.00000000000E+00 -0.00000000000E+00 -0.97602380763E+02  0.97610643019E+02  0.12700000000E+01 0. -1.
         25    2    1    2    0    0  0.00000000000E+00  0.00000000000E+00 -0.57601210653E+02  0.13763196871E+03  0.12499863736E+03 0.  0.
    9000005    1    3    3    0    0  0.58416062830E+02  0.81854824031E+01 -0.51519086429E+02  0.78324037085E+02  0.10000000000E+01 0.  0.
    9000005    1    3    3    0    0 -0.58416062830E+02 -0.81854824031E+01 -0.60821242241E+01  0.59307931626E+02  0.10000000000E+01 0.  0.
<mgrwt>
<rscale>  0 0.12499864E+03</rscale>
<asrwt>0</asrwt>
<pdfrwt beam="2">  1        4 0.15017937E-01 0.12499864E+03</pdfrwt>
<pdfrwt beam="1">  1       -4 0.61562122E-02 0.12499864E+03</pdfrwt>
<totfact> 0.10183201E+04</totfact>
</mgrwt>
</event>
<event>
 5    1  0.3487578E-002  0.1250002E+03  0.7818608E-02  0.1235069E+00
         -4   -1    0    0    0  501 -0.00000000000E+00  0.00000000000E+00  0.13748146069E+03  0.13748732645E+03  0.12700000000E+01 0. -1.
          4   -1    0    0  501    0  0.00000000000E+00 -0.00000000000E+00 -0.28392359193E+02  0.28420748768E+02  0.12700000000E+01 0. -1.
         25    2    1    2    0    0  0.00000000000E+00  0.00000000000E+00  0.10908910150E+03  0.16590807521E+03  0.12500022942E+03 0.  0.
    9000005    1    3    3    0    0  0.37202344098E+02  0.27834468055E+02 -0.92313609491E+00  0.46482514976E+02  0.10000000000E+01 0.  0.
    9000005    1    3    3    0    0 -0.37202344098E+02 -0.27834468055E+02  0.11001223759E+03  0.11942556024E+03  0.10000000000E+01 0.  0.
<mgrwt>
<rscale>  0 0.12500023E+03</rscale>
<asrwt>0</asrwt>
<pdfrwt beam="2">  1        4 0.43706903E-02 0.12500023E+03</pdfrwt>
<pdfrwt beam="1">  1       -4 0.21153629E-01 0.12500023E+03</pdfrwt>
<totfact> 0.96215197E+03</totfact>
</mgrwt>
</event>
<event>
 5    1  0.3487578E-002  0.1249991E+03  0.7818608E-02  0.1235071E+00
         -4   -1    0    0    0  501 -0.00000000000E+00  0.00000000000E+00  0.48271679875E+01  0.49914377468E+01  0.12700000000E+01 0.  1.
          4   -1    0    0  501    0  0.00000000000E+00 -0.00000000000E+00 -0.79550689985E+03  0.79550791361E+03  0.12700000000E+01 0.  1.
         25    2    1    2    0    0  0.00000000000E+00  0.00000000000E+00 -0.79067973186E+03  0.80049935135E+03  0.12499909255E+03 0.  0.
    9000005    1    3    3    0    0  0.27627127954E+02  0.41302186468E+02 -0.63802383776E+03  0.63995667537E+03  0.10000000000E+01 0.  0.
    9000005    1    3    3    0    0 -0.27627127954E+02 -0.41302186468E+02 -0.15265589411E+03  0.16054267598E+03  0.10000000000E+01 0.  0.
<mgrwt>
<rscale>  0 0.12499909E+03</rscale>
<asrwt>0</asrwt>
<pdfrwt beam="2">  1        4 0.12239829E+00 0.12499909E+03</pdfrwt>
<pdfrwt beam="1">  1       -4 0.75535597E-03 0.12499909E+03</pdfrwt>
<totfact> 0.38243228E+03</totfact>
</mgrwt>
</event>
<event>
 5    1  0.3487578E-002  0.1249888E+03  0.7818608E-02  0.1235087E+00
          4   -1    0    0  501    0  0.00000000000E+00  0.00000000000E+00  0.22059058164E+02  0.22095586597E+02  0.12700000000E+01 0.  1.
         -4   -1    0    0    0  501 -0.00000000000E+00 -0.00000000000E+00 -0.17686441065E+03  0.17686897030E+03  0.12700000000E+01 0.  1.
         25    2    1    2    0    0  0.00000000000E+00  0.00000000000E+00 -0.15480535249E+03  0.19896455690E+03  0.12498879047E+03 0.  0.
    9000005    1    3    3    0    0 -0.35823283851E+02 -0.50136450928E+02 -0.60891937557E+02  0.86636016974E+02  0.10000000000E+01 0.  0.
    9000005    1    3    3    0    0  0.35823283851E+02  0.50136450928E+02 -0.93913414928E+02  0.11232853992E+03  0.10000000000E+01 0.  0.
<mgrwt>
<rscale>  0 0.12498879E+03</rscale>
<asrwt>0</asrwt>
<pdfrwt beam="1">  1        4 0.33968620E-02 0.12498879E+03</pdfrwt>
<pdfrwt beam="2">  1       -4 0.27213069E-01 0.12498879E+03</pdfrwt>
<totfact> 0.90333096E+03</totfact>
</mgrwt>
</event>
<event>
 5    1  0.3487578E-002  0.1249999E+03  0.7818608E-02  0.1235069E+00
         -4   -1    0    0    0  501 -0.00000000000E+00  0.00000000000E+00  0.53362048360E+02  0.53377159021E+02  0.12700000000E+01 0. -1.
          4   -1    0    0  501    0  0.00000000000E+00 -0.00000000000E+00 -0.73171710286E+02  0.73182730792E+02  0.12700000000E+01 0. -1.
         25    2    1    2    0    0  0.00000000000E+00  0.00000000000E+00 -0.19809661926E+02  0.12655988981E+03  0.12499993202E+03 0.  0.
    9000005    1    3    3    0    0  0.54894421765E+02 -0.21511972689E+02  0.11068001492E+02  0.59997192992E+02  0.10000000000E+01 0.  0.
    9000005    1    3    3    0    0 -0.54894421765E+02  0.21511972689E+02 -0.30877663418E+02  0.66562696821E+02  0.10000000000E+01 0.  0.
<mgrwt>
<rscale>  0 0.12499993E+03</rscale>
<asrwt>0</asrwt>
<pdfrwt beam="2">  1        4 0.11259196E-01 0.12499993E+03</pdfrwt>
<pdfrwt beam="1">  1       -4 0.82115560E-02 0.12499993E+03</pdfrwt>
<totfact> 0.10418738E+04</totfact>
</mgrwt>
</event>
<event>
 5    1  0.3487578E-002  0.1249981E+03  0.7818608E-02  0.1235072E+00
         -4   -1    0    0    0  501 -0.00000000000E+00  0.00000000000E+00  0.68400055594E+02  0.68411844773E+02  0.12700000000E+01 0.  1.
          4   -1    0    0  501    0  0.00000000000E+00 -0.00000000000E+00 -0.57083366116E+02  0.57097491951E+02  0.12700000000E+01 0.  1.
         25    2    1    2    0    0  0.00000000000E+00  0.00000000000E+00  0.11316689478E+02  0.12550933672E+03  0.12499810456E+03 0.  0.
    9000005    1    3    3    0    0  0.39713643288E+02 -0.12839098711E+02 -0.41041181353E+02  0.58543953451E+02  0.10000000000E+01 0.  0.
    9000005    1    3    3    0    0 -0.39713643288E+02  0.12839098711E+02  0.52357870831E+02  0.66965383273E+02  0.10000000000E+01 0.  0.
<mgrwt>
<rscale>  0 0.12499810E+03</rscale>
<asrwt>0</asrwt>
<pdfrwt beam="2">  1        4 0.87840499E-02 0.12499810E+03</pdfrwt>
<pdfrwt beam="1">  1       -4 0.10525079E-01 0.12499810E+03</pdfrwt>
<totfact> 0.10442194E+04</totfact>
</mgrwt>
</event>
<event>
 5    1  0.3487578E-002  0.1250074E+03  0.7818608E-02  0.1235058E+00
         -4   -1    0    0    0  501 -0.00000000000E+00  0.00000000000E+00  0.18845649362E+02  0.18888393258E+02  0.12700000000E+01 0. -1.
          4   -1    0    0  501    0  0.00000000000E+00 -0.00000000000E+00 -0.20702109040E+03  0.20702498586E+03  0.12700000000E+01 0. -1.
         25    2    1    2    0    0  0.00000000000E+00  0.00000000000E+00 -0.18817544104E+03  0.22591337912E+03  0.12500743280E+03 0.  0.
    9000005    1    3    3    0    0  0.39409427925E+02 -0.47720706543E+02 -0.78400882459E+02  0.99890275866E+02  0.10000000000E+01 0.  0.
    9000005    1    3    3    0    0 -0.39409427925E+02  0.47720706543E+02 -0.10977455858E+03  0.12602310325E+03  0.10000000000E+01 0.  0.
<mgrwt>
<rscale>  0 0.12500743E+03</rscale>
<asrwt>0</asrwt>
<pdfrwt beam="2">  1        4 0.31852985E-01 0.12500743E+03</pdfrwt>
<pdfrwt beam="1">  1       -4 0.29029185E-02 0.12500743E+03</pdfrwt>
<totfact> 0.85926822E+03</totfact>
</mgrwt>
</event>
<event>
 5    1  0.3487578E-002  0.1250004E+03  0.7818608E-02  0.1235069E+00
          4   -1    0    0  501    0  0.00000000000E+00  0.00000000000E+00  0.60958342117E+01  0.62267242380E+01  0.12700000000E+01 0.  1.
         -4   -1    0    0    0  501 -0.00000000000E+00 -0.00000000000E+00 -0.63387198464E+03  0.63387325690E+03  0.12700000000E+01 0.  1.
         25    2    1    2    0    0  0.00000000000E+00  0.00000000000E+00 -0.62777615043E+03  0.64009998114E+03  0.12500036322E+03 0.  0.
    9000005    1    3    3    0    0 -0.24409171486E+02 -0.57523726268E+02 -0.31031831569E+03  0.31654895955E+03  0.10000000000E+01 0.  0.
    9000005    1    3    3    0    0  0.24409171486E+02  0.57523726268E+02 -0.31745783474E+03  0.32355102159E+03  0.10000000000E+01 0.  0.
<mgrwt>
<rscale>  0 0.12500036E+03</rscale>
<asrwt>0</asrwt>
<pdfrwt beam="1">  1        4 0.94798748E-03 0.12500036E+03</pdfrwt>
<pdfrwt beam="2">  1       -4 0.97528882E-01 0.12500036E+03</pdfrwt>
<totfact> 0.46430014E+03</totfact>
</mgrwt>
</event>
<event>
 5    1  0.3487578E-002  0.1249859E+03  0.7818608E-02  0.1235091E+00
          4   -1    0    0  501    0  0.00000000000E+00  0.00000000000E+00  0.99507677993E+02  0.99515782063E+02  0.12700000000E+01 0. -1.
         -4   -1    0    0    0  501 -0.00000000000E+00 -0.00000000000E+00 -0.39226923150E+02  0.39247476349E+02  0.12700000000E+01 0. -1.
         25    2    1    2    0    0  0.00000000000E+00  0.00000000000E+00  0.60280754843E+02  0.13876325841E+03  0.12498588913E+03 0.  0.
    9000005    1    3    3    0    0 -0.73914924165E+01  0.42912711229E+02 -0.19612771613E+02  0.47768145825E+02  0.10000000000E+01 0.  0.
    9000005    1    3    3    0    0  0.73914924165E+01 -0.42912711229E+02  0.79893526456E+02  0.90995112587E+02  0.10000000000E+01 0.  0.
<mgrwt>
<rscale>  0 0.12498589E+03</rscale>
<asrwt>0</asrwt>
<pdfrwt beam="1">  1        4 0.15311078E-01 0.12498589E+03</pdfrwt>
<pdfrwt beam="2">  1       -4 0.60371157E-02 0.12498589E+03</pdfrwt>
<totfact> 0.10162513E+04</totfact>
</mgrwt>
</event>
<event>
 5    1  0.3487578E-002  0.1250021E+03  0.7818608E-02  0.1235066E+00
         -4   -1    0    0    0  501 -0.00000000000E+00  0.00000000000E+00  0.95049071763E+01  0.95893774788E+01  0.12700000000E+01 0.  1.
          4   -1    0    0  501    0  0.00000000000E+00 -0.00000000000E+00 -0.40908245548E+03  0.40908442684E+03  0.12700000000E+01 0.  1.
         25    2    1    2    0    0  0.00000000000E+00  0.00000000000E+00 -0.39957754830E+03  0.41867380432E+03  0.12500214923E+03 0.  0.
    9000005    1    3    3    0    0  0.18388600305E+02  0.53466487354E+02 -0.28894512295E+03  0.29442671408E+03  0.10000000000E+01 0.  0.
    9000005    1    3    3    0    0 -0.18388600305E+02 -0.53466487354E+02 -0.11063242536E+03  0.12424709023E+03  0.10000000000E+01 0.  0.
<mgrwt>
<rscale>  0 0.12500215E+03</rscale>
<asrwt>0</asrwt>
<pdfrwt beam="2">  1        4 0.62942398E-01 0.12500215E+03</pdfrwt>
<pdfrwt beam="1">  1       -4 0.14689431E-02 0.12500215E+03</pdfrwt>
<totfact> 0.62773264E+03</totfact>
</mgrwt>
</event>
<event>
 5    1  0.3487578E-002  0.1250117E+03  0.7818608E-02  0.1235051E+00
          4   -1    0    0  501    0  0.00000000000E+00  0.00000000000E+00  0.53177072250E+03  0.53177223903E+03  0.12700000000E+01 0.  1.
         -4   -1    0    0    0  501 -0.00000000000E+00 -0.00000000000E+00 -0.72906996217E+01  0.74004865363E+01  0.12700000000E+01 0.  1.
         25    2    1    2    0    0  0.00000000000E+00  0.00000000000E+00  0.52448002288E+03  0.53917272557E+03  0.12501173385E+03 0.  0.
    9000005    1    3    3    0    0 -0.46306765360E+02  0.41172599422E+02  0.22707299636E+03  0.23537766490E+03  0.10000000000E+01 0.  0.
    9000005    1    3    3    0    0  0.46306765360E+02 -0.41172599422E+02  0.29740702652E+03  0.30379506066E+03  0.10000000000E+01 0.  0.
<mgrwt>
<rscale>  0 0.12501173E+03</rscale>
<asrwt>0</asrwt>
<pdfrwt beam="1">  1        4 0.81819435E-01 0.12501173E+03</pdfrwt>
<pdfrwt beam="2">  1       -4 0.11302080E-02 0.12501173E+03</pdfrwt>
<totfact> 0.52934544E+03</totfact>
</mgrwt>
</event>
<event>
 5    1  0.3487578E-002  0.1249992E+03  0.7818608E-02  0.1235071E+00
          4   -1    0    0  501    0  0.00000000000E+00  0.00000000000E+00  0.79368165303E+03  0.79368266912E+03  0.12700000000E+01 0.  1.
         -4   -1    0    0    0  501 -0.00000000000E+00 -0.00000000000E+00 -0.48386546621E+01  0.50025472451E+01  0.12700000000E+01 0.  1.
         25    2    1    2    0    0  0.00000000000E+00  0.00000000000E+00  0.78884299837E+03  0.79868521636E+03  0.12499919504E+03 0.  0.
    9000005    1    3    3    0    0 -0.25937365232E+02  0.15135985351E+02  0.44257298115E+02  0.53493489363E+02  0.10000000000E+01 0.  0.
    9000005    1    3    3    0    0  0.25937365232E+02 -0.15135985351E+02  0.74458570025E+03  0.74519172700E+03  0.10000000000E+01 0.  0.
<mgrwt>
<rscale>  0 0.12499920E+03</rscale>
<asrwt>0</asrwt>
<pdfrwt beam="1">  1        4 0.12211760E+00 0.12499920E+03</pdfrwt>
<pdfrwt beam="2">  1       -4 0.75709339E-03 0.12499920E+03</pdfrwt>
<totfact> 0.38324146E+03</totfact>
</mgrwt>
</event>
<event>
 4    1  0.3487578E-002  0.1246820E+03  0.7818608E-02  0.1235567E+00
         -4   -1    0    0    0  501 -0.00000000000E+00  0.00000000000E+00  0.53567920665E+02  0.53582973269E+02  0.12700000000E+01 0. -1.
          4   -1    0    0  501    0  0.00000000000E+00 -0.00000000000E+00 -0.72520051647E+02  0.72531171167E+02  0.12700000000E+01 0. -1.
    9000005    1    1    2    0    0 -0.37353925871E+02  0.84913746888E+01 -0.59213848813E+02  0.70531546937E+02  0.10000000000E+01 0.  0.
    9000005    1    1    2    0    0  0.37353925871E+02 -0.84913746888E+01  0.40261717831E+02  0.55582597499E+02  0.10000000000E+01 0.  0.
<mgrwt>
<rscale>  0 0.12468197E+03</rscale>
<asrwt>0</asrwt>
<pdfrwt beam="2">  1        4 0.11158944E-01 0.12468197E+03</pdfrwt>
<pdfrwt beam="1">  1       -4 0.82432318E-02 0.12468197E+03</pdfrwt>
<totfact> 0.10503665E+04</totfact>
</mgrwt>
</event>
<event>
 5    1  0.3487578E-002  0.1249961E+03  0.7818608E-02  0.1235075E+00
         -4   -1    0    0    0  501 -0.00000000000E+00  0.00000000000E+00  0.12379717725E+02  0.12444690070E+02  0.12700000000E+01 0.  1.
          4   -1    0    0  501    0  0.00000000000E+00 -0.00000000000E+00 -0.31462446939E+03  0.31462703259E+03  0.12700000000E+01 0.  1.
         25    2    1    2    0    0  0.00000000000E+00  0.00000000000E+00 -0.30224475167E+03  0.32707172267E+03  0.12499608737E+03 0.  0.
    9000005    1    3    3    0    0 -0.39691681004E+02 -0.47815824157E+02 -0.13391940516E+03  0.14763871328E+03  0.10000000000E+01 0.  0.
    9000005    1    3    3    0    0  0.39691681004E+02  0.47815824157E+02 -0.16832534650E+03  0.17943300938E+03  0.10000000000E+01 0.  0.
<mgrwt>
<rscale>  0 0.12499609E+03</rscale>
<asrwt>0</asrwt>
<pdfrwt beam="2">  1        4 0.48408954E-01 0.12499609E+03</pdfrwt>
<pdfrwt beam="1">  1       -4 0.19097672E-02 0.12499609E+03</pdfrwt>
<totfact> 0.72329131E+03</totfact>
</mgrwt>
</event>
<event>
 5    1  0.3487578E-002  0.1249990E+03  0.7818608E-02  0.1235071E+00
          4   -1    0    0  501    0  0.00000000000E+00  0.00000000000E+00  0.20574478404E+03  0.20574870367E+03  0.12700000000E+01 0. -1.
         -4   -1    0    0    0  501 -0.00000000000E+00 -0.00000000000E+00 -0.18960250140E+02  0.19002736261E+02  0.12700000000E+01 0. -1.
         25    2    1    2    0    0  0.00000000000E+00  0.00000000000E+00  0.18678453390E+03  0.22475143993E+03  0.12499899057E+03 0.  0.
    9000005    1    3    3    0    0  0.36959434525E+01  0.37790094181E+02  0.18263371158E+03  0.18654174820E+03  0.10000000000E+01 0.  0.
    9000005    1    3    3    0    0 -0.36959434525E+01 -0.37790094181E+02  0.41508223262E+01  0.38209691731E+02  0.10000000000E+01 0.  0.
<mgrwt>
<rscale>  0 0.12499899E+03</rscale>
<asrwt>0</asrwt>
<pdfrwt beam="1">  1        4 0.31656615E-01 0.12499899E+03</pdfrwt>
<pdfrwt beam="2">  1       -4 0.29205311E-02 0.12499899E+03</pdfrwt>
<totfact> 0.86123975E+03</totfact>
</mgrwt>
</event>
<event>
 5    1  0.3487578E-002  0.1249907E+03  0.7818608E-02  0.1235084E+00
          4   -1    0    0  501    0  0.00000000000E+00  0.00000000000E+00  0.43136511454E+02  0.43155202704E+02  0.12700000000E+01 0. -1.
         -4   -1    0    0    0  501 -0.00000000000E+00 -0.00000000000E+00 -0.90499253429E+02  0.90508164113E+02  0.12700000000E+01 0. -1.
         25    2    1    2    0    0  0.00000000000E+00  0.00000000000E+00 -0.47362741975E+02  0.13366336682E+03  0.12499066486E+03 0.  0.
    9000005    1    3    3    0    0  0.40468178583E+02  0.14958022753E+02  0.24657404116E+02  0.49703153826E+02  0.10000000000E+01 0.  0.
    9000005    1    3    3    0    0 -0.40468178583E+02 -0.14958022753E+02 -0.72020146091E+02  0.83960212991E+02  0.10000000000E+01 0.  0.
<mgrwt>
<rscale>  0 0.12499066E+03</rscale>
<asrwt>0</asrwt>
<pdfrwt beam="1">  1        4 0.66385096E-02 0.12499066E+03</pdfrwt>
<pdfrwt beam="2">  1       -4 0.13925085E-01 0.12499066E+03</pdfrwt>
<totfact> 0.10268483E+04</totfact>
</mgrwt>
</event>
<event>
 5    1  0.3487578E-002  0.1250013E+03  0.7818608E-02  0.1235067E+00
         -4   -1    0    0    0  501 -0.00000000000E+00  0.00000000000E+00  0.83704570570E+02  0.83714204495E+02  0.12700000000E+01 0.  1.
          4   -1    0    0  501    0  0.00000000000E+00 -0.00000000000E+00 -0.46647115287E+02  0.46664400399E+02  0.12700000000E+01 0.  1.
         25    2    1    2    0    0  0.00000000000E+00  0.00000000000E+00  0.37057455283E+02  0.13037860489E+03  0.12500130248E+03 0.  0.
    9000005    1    3    3    0    0  0.56735938233E+02  0.16475299540E+01 -0.87427591684E+01  0.57437939378E+02  0.10000000000E+01 0.  0.
    9000005    1    3    3    0    0 -0.56735938233E+02 -0.16475299540E+01  0.45800214451E+02  0.72940665516E+02  0.10000000000E+01 0.  0.
<mgrwt>
<rscale>  0 0.12500130E+03</rscale>
<asrwt>0</asrwt>
<pdfrwt beam="2">  1        4 0.71785500E-02 0.12500130E+03</pdfrwt>
<pdfrwt beam="1">  1       -4 0.12879697E-01 0.12500130E+03</pdfrwt>
<totfact> 0.10336111E+04</totfact>
</mgrwt>
</event>
<event>
 5    1  0.3487578E-002  0.1250084E+03  0.7818608E-02  0.1235056E+00
          4   -1    0    0  501    0  0.00000000000E+00  0.00000000000E+00  0.18565995332E+02  0.18609381577E+02  0.12700000000E+01 0. -1.
         -4   -1    0    0    0  501 -0.00000000000E+00 -0.00000000000E+00 -0.21013550630E+03  0.21013934403E+03  0.12700000000E+01 0. -1.
         25    2    1    2    0    0  0.00000000000E+00  0.00000000000E+00 -0.19156951097E+03  0.22874872560E+03  0.12500840745E+03 0.  0.
    9000005    1    3    3    0    0  0.31515905742E+02 -0.54838106103E+01 -0.19402748646E+03  0.19664940883E+03  0.10000000000E+01 0.  0.
    9000005    1    3    3    0    0 -0.31515905742E+02  0.54838106103E+01  0.24579754908E+01  0.32099316769E+02  0.10000000000E+01 0.  0.
<mgrwt>
<rscale>  0 0.12500841E+03</rscale>
<asrwt>0</asrwt>
<pdfrwt beam="1">  1        4 0.28599397E-02 0.12500841E+03</pdfrwt>
<pdfrwt beam="2">  1       -4 0.32332170E-01 0.12500841E+03</pdfrwt>
<totfact> 0.85486064E+03</totfact>
</mgrwt>
</event>
<event>
 5    1  0.3487578E-002  0.1250018E+03  0.7818608E-02  0.1235066E+00
          4   -1    0    0  501    0  0.00000000000E+00  0.00000000000E+00  0.87776850803E+02  0.87786037824E+02  0.12700000000E+01 0. -1.
         -4   -1    0    0    0  501 -0.00000000000E+00 -0.00000000000E+00 -0.44482741345E+02  0.44500867155E+02  0.12700000000E+01 0. -1.
         25    2    1    2    0    0  0.00000000000E+00  0.00000000000E+00  0.43294109458E+02  0.13228690498E+03  0.12500178125E+03 0.  0.
    9000005    1    3    3    0    0 -0.31566594112E+01  0.54297129131E+02  0.54217654983E+02  0.76802974176E+02  0.10000000000E+01 0.  0.
    9000005    1    3    3    0    0  0.31566594112E+01 -0.54297129131E+02 -0.10923545525E+02  0.55483930803E+02  0.10000000000E+01 0.  0.
<mgrwt>
<rscale>  0 0.12500178E+03</rscale>
<asrwt>0</asrwt>
<pdfrwt beam="1">  1        4 0.13506232E-01 0.12500178E+03</pdfrwt>
<pdfrwt beam="2">  1       -4 0.68455997E-02 0.12500178E+03</pdfrwt>
<totfact> 0.10295165E+04</totfact>
</mgrwt>
</event>
<event>
 5    1  0.3487578E-002  0.1249963E+03  0.7818608E-02  0.1235075E+00
          4   -1    0    0  501    0  0.00000000000E+00  0.00000000000E+00  0.53963278846E+03  0.53963428290E+03  0.12700000000E+01 0.  1.
         -4   -1    0    0    0  501 -0.00000000000E+00 -0.00000000000E+00 -0.71810669378E+01  0.72925045331E+01  0.12700000000E+01 0.  1.
         25    2    1    2    0    0  0.00000000000E+00  0.00000000000E+00  0.53245172152E+03  0.54692678743E+03  0.12499630019E+03 0.  0.
    9000005    1    3    3    0    0  0.50069720810E+02  0.37390382006E+02  0.26637466220E+03  0.27360825695E+03  0.10000000000E+01 0.  0.
    9000005    1    3    3    0    0 -0.50069720810E+02 -0.37390382006E+02  0.26607705932E+03  0.27331853048E+03  0.10000000000E+01 0.  0.
<mgrwt>
<rscale>  0 0.12499630E+03</rscale>
<asrwt>0</asrwt>
<pdfrwt beam="1">  1        4 0.83029129E-01 0.12499630E+03</pdfrwt>
<pdfrwt beam="2">  1       -4 0.11134664E-02 0.12499630E+03</pdfrwt>
<totfact> 0.52403057E+03</totfact>
</mgrwt>
</event>
<event>
 5    1  0.3487578E-002  0.1250008E+03  0.7818608E-02  0.1235068E+00
          4   -1    0    0  501    0  0.00000000000E+00  0.00000000000E+00  0.36811647289E+03  0.36811866363E+03  0.12700000000E+01 0.  1.
         -4   -1    0    0    0  501 -0.00000000000E+00 -0.00000000000E+00 -0.10571353324E+02  0.10647366393E+02  0.12700000000E+01 0.  1.
         25    2    1    2    0    0  0.00000000000E+00  0.00000000000E+00  0.35754511957E+03  0.37876603003E+03  0.12500077189E+03 0.  0.
    9000005    1    3    3    0    0  0.42162832035E+02 -0.52947813898E+01  0.31761504607E+03  0.32044665173E+03  0.10000000000E+01 0.  0.
    9000005    1    3    3    0    0 -0.42162832035E+02  0.52947813898E+01  0.39930073500E+02  0.58319378296E+02  0.10000000000E+01 0.  0.
<mgrwt>
<rscale>  0 0.12500077E+03</rscale>
<asrwt>0</asrwt>
<pdfrwt beam="1">  1        4 0.56639321E-01 0.12500077E+03</pdfrwt>
<pdfrwt beam="2">  1       -4 0.16323777E-02 0.12500077E+03</pdfrwt>
<totfact> 0.66670569E+03</totfact>
</mgrwt>
</event>
<event>
 5    1  0.3487578E-002  0.1250039E+03  0.7818608E-02  0.1235063E+00
          4   -1    0    0  501    0  0.00000000000E+00  0.00000000000E+00  0.27708486269E+03  0.27708777316E+03  0.12700000000E+01 0.  1.
         -4   -1    0    0    0  501 -0.00000000000E+00 -0.00000000000E+00 -0.14066953435E+02  0.14124166487E+02  0.12700000000E+01 0.  1.
         25    2    1    2    0    0  0.00000000000E+00  0.00000000000E+00  0.26301790926E+03  0.29121193965E+03  0.12500389275E+03 0.  0.
    9000005    1    3    3    0    0  0.54755972627E+02 -0.29571778559E+01  0.61677292348E+02  0.82535143004E+02  0.10000000000E+01 0.  0.
    9000005    1    3    3    0    0 -0.54755972627E+02  0.29571778559E+01  0.20134061691E+03  0.20867679664E+03  0.10000000000E+01 0.  0.
<mgrwt>
<rscale>  0 0.12500389E+03</rscale>
<asrwt>0</asrwt>
<pdfrwt beam="1">  1        4 0.42633064E-01 0.12500389E+03</pdfrwt>
<pdfrwt beam="2">  1       -4 0.21687716E-02 0.12500389E+03</pdfrwt>
<totfact> 0.76707954E+03</totfact>
</mgrwt>
</event>
<event>
 4    1  0.3487578E-002  0.1250630E+03  0.7818608E-02  0.1234971E+00
          4   -1    0    0  501    0  0.00000000000E+00  0.00000000000E+00  0.15778018594E+02  0.15829048321E+02  0.12700000000E+01 0. -1.
         -4   -1    0    0    0  501 -0.00000000000E+00 -0.00000000000E+00 -0.24737211135E+03  0.24737537139E+03  0.12700000000E+01 0. -1.
    9000005    1    1    2    0    0  0.38353137607E+02 -0.70129529642E+01 -0.12929994342E+02  0.41089286040E+02  0.10000000000E+01 0.  0.
    9000005    1    1    2    0    0 -0.38353137607E+02  0.70129529642E+01 -0.21866409841E+03  0.22211513367E+03  0.10000000000E+01 0.  0.
<mgrwt>
<rscale>  0 0.12506296E+03</rscale>
<asrwt>0</asrwt>
<pdfrwt beam="1">  1        4 0.24315638E-02 0.12506296E+03</pdfrwt>
<pdfrwt beam="2">  1       -4 0.38061421E-01 0.12506296E+03</pdfrwt>
<totfact> 0.80345838E+03</totfact>
</mgrwt>
</event>
<event>
 5    1  0.3487578E-002  0.1249959E+03  0.7818608E-02  0.1235076E+00
         -4   -1    0    0    0  501 -0.00000000000E+00  0.00000000000E+00  0.90852267058E+01  0.91735622468E+01  0.12700000000E+01 0. -1.
          4   -1    0    0  501    0  0.00000000000E+00 -0.00000000000E+00 -0.42775876330E+03  0.42776064859E+03  0.12700000000E+01 0. -1.
         25    2    1    2    0    0  0.00000000000E+00  0.00000000000E+00 -0.41867353660E+03  0.43693421084E+03  0.12499589734E+03 0.  0.
    9000005    1    3    3    0    0 -0.49137053982E+02 -0.15714105523E+02 -0.33260820694E+03  0.33658669390E+03  0.10000000000E+01 0.  0.
    9000005    1    3    3    0    0  0.49137053982E+02  0.15714105523E+02 -0.86065329652E+02  0.10034751693E+03  0.10000000000E+01 0.  0.
<mgrwt>
<rscale>  0 0.12499590E+03</rscale>
<asrwt>0</asrwt>
<pdfrwt beam="2">  1        4 0.65815965E-01 0.12499590E+03</pdfrwt>
<pdfrwt beam="1">  1       -4 0.14046676E-02 0.12499590E+03</pdfrwt>
<totfact> 0.61117972E+03</totfact>
</mgrwt>
</event>
<event>
 5    1  0.3487578E-002  0.1249972E+03  0.7818608E-02  0.1235074E+00
          4   -1    0    0  501    0  0.00000000000E+00  0.00000000000E+00  0.67320489002E+01  0.68507942893E+01  0.12700000000E+01 0. -1.
         -4   -1    0    0    0  501 -0.00000000000E+00 -0.00000000000E+00 -0.57502875711E+03  0.57503015956E+03  0.12700000000E+01 0. -1.
         25    2    1    2    0    0  0.00000000000E+00  0.00000000000E+00 -0.56829670821E+03  0.58188095385E+03  0.12499718353E+03 0.  0.
    9000005    1    3    3    0    0 -0.17625950443E+01  0.47028705684E+02 -0.92761674116E+02  0.10402179620E+03  0.10000000000E+01 0.  0.
    9000005    1    3    3    0    0  0.17625950443E+01 -0.47028705684E+02 -0.47553503409E+03  0.47785915765E+03  0.10000000000E+01 0.  0.
<mgrwt>
<rscale>  0 0.12499718E+03</rscale>
<asrwt>0</asrwt>
<pdfrwt beam="1">  1        4 0.10449424E-02 0.12499718E+03</pdfrwt>
<pdfrwt beam="2">  1       -4 0.88475166E-01 0.12499718E+03</pdfrwt>
<totfact> 0.50034789E+03</totfact>
</mgrwt>
</event>
<event>
 5    1  0.3487578E-002  0.1249983E+03  0.7818608E-02  0.1235072E+00
         -4   -1    0    0    0  501 -0.00000000000E+00  0.00000000000E+00  0.22499628627E+03  0.22499987052E+03  0.12700000000E+01 0. -1.
          4   -1    0    0  501    0  0.00000000000E+00 -0.00000000000E+00 -0.17333982736E+02  0.17380444686E+02  0.12700000000E+01 0. -1.
         25    2    1    2    0    0  0.00000000000E+00  0.00000000000E+00  0.20766230353E+03  0.24238031521E+03  0.12499833955E+03 0.  0.
    9000005    1    3    3    0    0 -0.61228015141E+02 -0.10803520270E+02  0.11602731081E+03  0.13163936624E+03  0.10000000000E+01 0.  0.
    9000005    1    3    3    0    0  0.61228015141E+02  0.10803520270E+02  0.91634992717E+02  0.11074094897E+03  0.10000000000E+01 0.  0.
<mgrwt>
<rscale>  0 0.12499834E+03</rscale>
<asrwt>0</asrwt>
<pdfrwt beam="2">  1        4 0.26706166E-02 0.12499834E+03</pdfrwt>
<pdfrwt beam="1">  1       -4 0.34618659E-01 0.12499834E+03</pdfrwt>
<totfact> 0.83447225E+03</totfact>
</mgrwt>
</event>
<event>
 4    1  0.3487578E-002  0.1249205E+03  0.7818608E-02  0.1235194E+00
         -4   -1    0    0    0  501 -0.00000000000E+00  0.00000000000E+00  0.89362406399E+01  0.90260343880E+01  0.12700000000E+01 0. -1.
          4   -1    0    0  501    0  0.00000000000E+00 -0.00000000000E+00 -0.43429522233E+03  0.43429707924E+03  0.12700000000E+01 0. -1.
    9000005    1    1    2    0    0  0.39289465152E+02 -0.29800767413E+02 -0.76682735001E+02  0.91175597928E+02  0.10000000000E+01 0.  0.
    9000005    1    1    2    0    0 -0.39289465152E+02  0.29800767413E+02 -0.34867624669E+03  0.35214751570E+03  0.10000000000E+01 0.  0.
<mgrwt>
<rscale>  0 0.12492045E+03</rscale>
<asrwt>0</asrwt>
<pdfrwt beam="2">  1        4 0.66821683E-01 0.12492045E+03</pdfrwt>
<pdfrwt beam="1">  1       -4 0.13818566E-02 0.12492045E+03</pdfrwt>
<totfact> 0.60652856E+03</totfact>
</mgrwt>
</event>
<event>
 5    1  0.3487578E-002  0.1250009E+03  0.7818608E-02  0.1235068E+00
         -4   -1    0    0    0  501 -0.00000000000E+00  0.00000000000E+00  0.23812684439E+03  0.23813023100E+03  0.12700000000E+01 0.  1.
          4   -1    0    0  501    0  0.00000000000E+00 -0.00000000000E+00 -0.16376229640E+02  0.16425400976E+02  0.12700000000E+01 0.  1.
         25    2    1    2    0    0  0.00000000000E+00  0.00000000000E+00  0.22175061475E+03  0.25455563198E+03  0.12500093852E+03 0.  0.
    9000005    1    3    3    0    0 -0.26187525251E+02 -0.54989631912E+02  0.82389843017E+02  0.10246332187E+03  0.10000000000E+01 0.  0.
    9000005    1    3    3    0    0  0.26187525251E+02  0.54989631912E+02  0.13936077173E+03  0.15209231011E+03  0.10000000000E+01 0.  0.
<mgrwt>
<rscale>  0 0.12500094E+03</rscale>
<asrwt>0</asrwt>
<pdfrwt beam="2">  1        4 0.25234630E-02 0.12500094E+03</pdfrwt>
<pdfrwt beam="1">  1       -4 0.36638940E-01 0.12500094E+03</pdfrwt>
<totfact> 0.81674517E+03</totfact>
</mgrwt>
</event>
<event>
 5    1  0.3487578E-002  0.1250006E+03  0.7818608E-02  0.1235068E+00
         -4   -1    0    0    0  501 -0.00000000000E+00  0.00000000000E+00  0.30624335138E+03  0.30624598473E+03  0.12700000000E+01 0.  1.
          4   -1    0    0  501    0  0.00000000000E+00 -0.00000000000E+00 -0.12721203338E+02  0.12784440323E+02  0.12700000000E+01 0.  1.
         25    2    1    2    0    0  0.00000000000E+00  0.00000000000E+00  0.29352214804E+03  0.31903042506E+03  0.12500064288E+03 0.  0.
    9000005    1    3    3    0    0 -0.82708253116E+01  0.50092720187E+02  0.23975486888E+03  0.24507363040E+03  0.10000000000E+01 0.  0.
    9000005    1    3    3    0    0  0.82708253116E+01 -0.50092720187E+02  0.53767279169E+02  0.73956794660E+02  0.10000000000E+01 0.  0.
<mgrwt>
<rscale>  0 0.12500064E+03</rscale>
<asrwt>0</asrwt>
<pdfrwt beam="2">  1        4 0.19621751E-02 0.12500064E+03</pdfrwt>
<pdfrwt beam="1">  1       -4 0.47119431E-01 0.12500064E+03</pdfrwt>
<totfact> 0.73270544E+03</totfact>
</mgrwt>
</event>
<event>
 5    1  0.3487578E-002  0.1249952E+03  0.7818608E-02  0.1235077E+00
         -4   -1    0    0    0  501 -0.00000000000E+00  0.00000000000E+00  0.33301967737E+02  0.33326175225E+02  0.12700000000E+01 0.  1.
          4   -1    0    0  501    0  0.00000000000E+00 -0.00000000000E+00 -0.11721857652E+03  0.11722545620E+03  0.12700000000E+01 0.  1.
         25    2    1    2    0    0  0.00000000000E+00  0.00000000000E+00 -0.83916608782E+02  0.15055163142E+03  0.12499518589E+03 0.  0.
    9000005    1    3    3    0    0 -0.38968015428E+02  0.24377833786E+02 -0.92947841348E+02  0.10369708876E+03  0.10000000000E+01 0.  0.
    9000005    1    3    3    0    0  0.38968015428E+02 -0.24377833786E+02  0.90312325659E+01  0.46854542663E+02  0.10000000000E+01 0.  0.
<mgrwt>
<rscale>  0 0.12499519E+03</rscale>
<asrwt>0</asrwt>
<pdfrwt beam="2">  1        4 0.18036018E-01 0.12499519E+03</pdfrwt>
<pdfrwt beam="1">  1       -4 0.51257710E-02 0.12499519E+03</pdfrwt>
<totfact> 0.99204600E+03</totfact>
</mgrwt>
</event>
<event>
 5    1  0.3487578E-002  0.1250000E+03  0.7818608E-02  0.1235069E+00
         -4   -1    0    0    0  501 -0.00000000000E+00  0.00000000000E+00  0.51514377563E+03  0.51514534111E+03  0.12700000000E+01 0.  1.
          4   -1    0    0  501    0  0.00000000000E+00 -0.00000000000E+00 -0.75280669666E+01  0.76344411880E+01  0.12700000000E+01 0.  1.
         25    2    1    2    0    0  0.00000000000E+00  0.00000000000E+00  0.50761570866E+03  0.52277978230E+03  0.12499997240E+03 0.  0.
    9000005    1    3    3    0    0 -0.11863084952E+02  0.60167552225E+02  0.30406109979E+03  0.31018545990E+03  0.10000000000E+01 0.  0.
    9000005    1    3    3    0    0  0.11863084952E+02 -0.60167552225E+02  0.20355460887E+03  0.21259432241E+03  0.10000000000E+01 0.  0.
<mgrwt>
<rscale>  0 0.12499997E+03</rscale>
<asrwt>0</asrwt>
<pdfrwt beam="2">  1        4 0.11664671E-02 0.12499997E+03</pdfrwt>
<pdfrwt beam="1">  1       -4 0.79261196E-01 0.12499997E+03</pdfrwt>
<totfact> 0.54139291E+03</totfact>
</mgrwt>
</event>
<event>
 5    1  0.3487578E-002  0.1249966E+03  0.7818608E-02  0.1235075E+00
         -4   -1    0    0    0  501 -0.00000000000E+00  0.00000000000E+00  0.99462999619E+02  0.99471107329E+02  0.12700000000E+01 0.  1.
          4   -1    0    0  501    0  0.00000000000E+00 -0.00000000000E+00 -0.39251280954E+02  0.39271821406E+02  0.12700000000E+01 0.  1.
         25    2    1    2    0    0  0.00000000000E+00  0.00000000000E+00  0.60211718665E+02  0.13874292873E+03  0.12499659679E+03 0.  0.
    9000005    1    3    3    0    0  0.79890499559E+01  0.26548292998E+02 -0.32056634287E+02  0.42394157405E+02  0.10000000000E+01 0.  0.
    9000005    1    3    3    0    0 -0.79890499559E+01 -0.26548292998E+02  0.92268352952E+02  0.96348771330E+02  0.10000000000E+01 0.  0.
<mgrwt>
<rscale>  0 0.12499660E+03</rscale>
<asrwt>0</asrwt>
<pdfrwt beam="2">  1        4 0.60408624E-02 0.12499660E+03</pdfrwt>
<pdfrwt beam="1">  1       -4 0.15304203E-01 0.12499660E+03</pdfrwt>
<totfact> 0.10160485E+04</totfact>
</mgrwt>
</event>
<event>
 5    1  0.3487578E-002  0.1250015E+03  0.7818608E-02  0.1235067E+00
          4   -1    0    0  501    0  0.00000000000E+00  0.00000000000E+00  0.19412841924E+02  0.19454339659E+02  0.12700000000E+01 0.  1.
         -4   -1    0    0    0  501 -0.00000000000E+00 -0.00000000000E+00 -0.20096634249E+03  0.20097035531E+03  0.12700000000E+01 0.  1.
         25    2    1    2    0    0  0.00000000000E+00  0.00000000000E+00 -0.18155350056E+03  0.22042469497E+03  0.12500149033E+03 0.  0.
    9000005    1    3    3    0    0 -0.39941837508E+02  0.40331802450E+02 -0.13687272410E+03  0.14817944282E+03  0.10000000000E+01 0.  0.
    9000005    1    3    3    0    0  0.39941837508E+02 -0.40331802450E+02 -0.44680776465E+02  0.72245252148E+02  0.10000000000E+01 0.  0.
<mgrwt>
<rscale>  0 0.12500149E+03</rscale>
<asrwt>0</asrwt>
<pdfrwt beam="1">  1        4 0.29900920E-02 0.12500149E+03</pdfrwt>
<pdfrwt beam="2">  1       -4 0.30921398E-01 0.12500149E+03</pdfrwt>
<totfact> 0.86798303E+03</totfact>
</mgrwt>
</event>
<event>
 5    1  0.3487578E-002  0.1250004E+03  0.7818608E-02  0.1235069E+00
         -4   -1    0    0    0  501 -0.00000000000E+00  0.00000000000E+00  0.31366830960E+02  0.31392530712E+02  0.12700000000E+01 0.  1.
          4   -1    0    0  501    0  0.00000000000E+00 -0.00000000000E+00 -0.12445529900E+03  0.12446177867E+03  0.12700000000E+01 0.  1.
         25    2    1    2    0    0  0.00000000000E+00  0.00000000000E+00 -0.93088468039E+02  0.15585430938E+03  0.12500041148E+03 0.  0.
    9000005    1    3    3    0    0 -0.48792865022E+02 -0.31679186162E+02 -0.75002606799E+02  0.94924736184E+02  0.10000000000E+01 0.  0.
    9000005    1    3    3    0    0  0.48792865022E+02  0.31679186162E+02 -0.18085861240E+02  0.60929573195E+02  0.10000000000E+01 0.  0.
<mgrwt>
<rscale>  0 0.12500041E+03</rscale>
<asrwt>0</asrwt>
<pdfrwt beam="2">  1        4 0.19149444E-01 0.12500041E+03</pdfrwt>
<pdfrwt beam="1">  1       -4 0.48281417E-02 0.12500041E+03</pdfrwt>
<totfact> 0.98147140E+03</totfact>
</mgrwt>
</event>
<event>
 4    1  0.3487578E-002  0.1243616E+03  0.7818608E-02  0.1236070E+00
          4   -1    0    0  501    0  0.00000000000E+00  0.00000000000E+00  0.42578747676E+02  0.42597683666E+02  0.12700000000E+01 0.  1.
         -4   -1    0    0    0  501 -0.00000000000E+00 -0.00000000000E+00 -0.90763541554E+02  0.90772426295E+02  0.12700000000E+01 0.  1.
    9000005    1    1    2    0    0  0.48555409438E+01 -0.28598767672E+02  0.34881811493E+02  0.45378481279E+02  0.10000000000E+01 0.  0.
    9000005    1    1    2    0    0 -0.48555409438E+01  0.28598767672E+02 -0.83066605371E+02  0.87991628682E+02  0.10000000000E+01 0.  0.
<mgrwt>
<rscale>  0 0.12436162E+03</rscale>
<asrwt>0</asrwt>
<pdfrwt beam="1">  1        4 0.65527167E-02 0.12436162E+03</pdfrwt>
<pdfrwt beam="2">  1       -4 0.13965762E-01 0.12436162E+03</pdfrwt>
<totfact> 0.10421870E+04</totfact>
</mgrwt>
</event>
<event>
 5    1  0.3487578E-002  0.1249998E+03  0.7818608E-02  0.1235070E+00
          4   -1    0    0  501    0  0.00000000000E+00  0.00000000000E+00  0.48012695023E+03  0.48012862988E+03  0.12700000000E+01 0.  1.
         -4   -1    0    0    0  501 -0.00000000000E+00 -0.00000000000E+00 -0.80845812899E+01  0.81837249851E+01  0.12700000000E+01 0.  1.
         25    2    1    2    0    0  0.00000000000E+00  0.00000000000E+00  0.47204236894E+03  0.48831235487E+03  0.12499983138E+03 0.  0.
    9000005    1    3    3    0    0  0.26093191327E+02 -0.35504413395E+02  0.40913801243E+03  0.41150495893E+03  0.10000000000E+01 0.  0.
    9000005    1    3    3    0    0 -0.26093191327E+02  0.35504413395E+02  0.62904356506E+02  0.76807395943E+02  0.10000000000E+01 0.  0.
<mgrwt>
<rscale>  0 0.12499983E+03</rscale>
<asrwt>0</asrwt>
<pdfrwt beam="1">  1        4 0.73873439E-01 0.12499983E+03</pdfrwt>
<pdfrwt beam="2">  1       -4 0.12515374E-02 0.12499983E+03</pdfrwt>
<totfact> 0.56782935E+03</totfact>
</mgrwt>
</event>
<event>
 5    1  0.3487578E-002  0.1250048E+03  0.7818608E-02  0.1235062E+00
         -4   -1    0    0    0  501 -0.00000000000E+00  0.00000000000E+00  0.68612030216E+03  0.68612147754E+03  0.12700000000E+01 0. -1.
          4   -1    0    0  501    0  0.00000000000E+00 -0.00000000000E+00 -0.56216692092E+01  0.57633379822E+01  0.12700000000E+01 0. -1.
         25    2    1    2    0    0  0.00000000000E+00  0.00000000000E+00  0.68049863295E+03  0.69188481552E+03  0.12500483389E+03 0.  0.
    9000005    1    3    3    0    0 -0.46419535676E+02  0.38415264459E+02  0.43204238466E+03  0.43622485943E+03  0.10000000000E+01 0.  0.
    9000005    1    3    3    0    0  0.46419535676E+02 -0.38415264459E+02  0.24845624829E+03  0.25565995610E+03  0.10000000000E+01 0.  0.
<mgrwt>
<rscale>  0 0.12500483E+03</rscale>
<asrwt>0</asrwt>
<pdfrwt beam="2">  1        4 0.87586011E-03 0.12500483E+03</pdfrwt>
<pdfrwt beam="1">  1       -4 0.10556797E+00 0.12500483E+03</pdfrwt>
<totfact> 0.43513947E+03</totfact>
</mgrwt>
</event>
<event>
 5    1  0.3487578E-002  0.1249971E+03  0.7818608E-02  0.1235074E+00
         -4   -1    0    0    0  501 -0.00000000000E+00  0.00000000000E+00  0.24550051197E+01  0.27640459724E+01  0.12700000000E+01 0. -1.
          4   -1    0    0  501    0  0.00000000000E+00 -0.00000000000E+00 -0.14965419513E+04  0.14965424902E+04  0.12700000000E+01 0. -1.
         25    2    1    2    0    0  0.00000000000E+00  0.00000000000E+00 -0.14940869462E+04  0.14993065362E+04  0.12499714633E+03 0.  0.
    9000005    1    3    3    0    0 -0.44330312723E+02 -0.12814224319E+02 -0.12524885761E+04  0.12533387468E+04  0.10000000000E+01 0.  0.
    9000005    1    3    3    0    0  0.44330312723E+02  0.12814224319E+02 -0.24159837009E+03  0.24596778936E+03  0.10000000000E+01 0.  0.
<mgrwt>
<rscale>  0 0.12499715E+03</rscale>
<asrwt>0</asrwt>
<pdfrwt beam="2">  1        4 0.23026035E+00 0.12499715E+03</pdfrwt>
<pdfrwt beam="1">  1       -4 0.40150812E-03 0.12499715E+03</pdfrwt>
<totfact> 0.17945287E+03</totfact>
</mgrwt>
</event>
<event>
 5    1  0.3487578E-002  0.1249884E+03  0.7818608E-02  0.1235087E+00
         -4   -1    0    0    0  501 -0.00000000000E+00  0.00000000000E+00  0.28228156052E+03  0.28228441741E+03  0.12700000000E+01 0. -1.
          4   -1    0    0  501    0  0.00000000000E+00 -0.00000000000E+00 -0.13803496249E+02  0.13861796734E+02  0.12700000000E+01 0. -1.
         25    2    1    2    0    0  0.00000000000E+00  0.00000000000E+00  0.26847806428E+03  0.29614621414E+03  0.12498843608E+03 0.  0.
    9000005    1    3    3    0    0  0.37674435393E+02  0.99904856357E+01  0.18517864313E+02  0.43163458899E+02  0.10000000000E+01 0.  0.
    9000005    1    3    3    0    0 -0.37674435393E+02 -0.99904856357E+01  0.24996019996E+03  0.25298275524E+03  0.10000000000E+01 0.  0.
<mgrwt>
<rscale>  0 0.12498844E+03</rscale>
<asrwt>0</asrwt>
<pdfrwt beam="2">  1        4 0.21283195E-02 0.12498844E+03</pdfrwt>
<pdfrwt beam="1">  1       -4 0.43432630E-01 0.12498844E+03</pdfrwt>
<totfact> 0.76104351E+03</totfact>
</mgrwt>
</event>
<event>
 5    1  0.3487578E-002  0.1249997E+03  0.7818608E-02  0.1235070E+00
          4   -1    0    0  501    0  0.00000000000E+00  0.00000000000E+00  0.59658103505E+01  0.60994912196E+01  0.12700000000E+01 0.  1.
         -4   -1    0    0    0  501 -0.00000000000E+00 -0.00000000000E+00 -0.64738031154E+03  0.64738155726E+03  0.12700000000E+01 0.  1.
         25    2    1    2    0    0  0.00000000000E+00  0.00000000000E+00 -0.64141450119E+03  0.65348104848E+03  0.12499967350E+03 0.  0.
    9000005    1    3    3    0    0 -0.10215863197E+02  0.41110732604E+02 -0.80522779767E+02  0.90991066910E+02  0.10000000000E+01 0.  0.
    9000005    1    3    3    0    0  0.10215863197E+02 -0.41110732604E+02 -0.56089172143E+03  0.56248998156E+03  0.10000000000E+01 0.  0.
<mgrwt>
<rscale>  0 0.12499967E+03</rscale>
<asrwt>0</asrwt>
<pdfrwt beam="1">  1        4 0.92819646E-03 0.12499967E+03</pdfrwt>
<pdfrwt beam="2">  1       -4 0.99607295E-01 0.12499967E+03</pdfrwt>
<totfact> 0.45656986E+03</totfact>
</mgrwt>
</event>
<event>
 5    1  0.3487578E-002  0.1249990E+03  0.7818608E-02  0.1235071E+00
          4   -1    0    0  501    0  0.00000000000E+00  0.00000000000E+00  0.28914295112E+02  0.28942172721E+02  0.12700000000E+01 0. -1.
         -4   -1    0    0    0  501 -0.00000000000E+00 -0.00000000000E+00 -0.13499935957E+03  0.13500533317E+03  0.12700000000E+01 0. -1.
         25    2    1    2    0    0  0.00000000000E+00  0.00000000000E+00 -0.10608506446E+03  0.16394750589E+03  0.12499897514E+03 0.  0.
    9000005    1    3    3    0    0  0.25635312407E+02 -0.20472020967E+02  0.16717739310E+02  0.36834164743E+02  0.10000000000E+01 0.  0.
    9000005    1    3    3    0    0 -0.25635312407E+02  0.20472020967E+02 -0.12280280377E+03  0.12711334115E+03  0.10000000000E+01 0.  0.
<mgrwt>
<rscale>  0 0.12499898E+03</rscale>
<asrwt>0</asrwt>
<pdfrwt beam="1">  1        4 0.44509571E-02 0.12499898E+03</pdfrwt>
<pdfrwt beam="2">  1       -4 0.20771736E-01 0.12499898E+03</pdfrwt>
<totfact> 0.96589314E+03</totfact>
</mgrwt>
</event>
<event>
 5    1  0.3487578E-002  0.1250014E+03  0.7818608E-02  0.1235067E+00
          4   -1    0    0  501    0  0.00000000000E+00  0.00000000000E+00  0.20004375262E+02  0.20044648403E+02  0.12700000000E+01 0.  1.
         -4   -1    0    0    0  501 -0.00000000000E+00 -0.00000000000E+00 -0.19503530862E+03  0.19503944347E+03  0.12700000000E+01 0.  1.
         25    2    1    2    0    0  0.00000000000E+00  0.00000000000E+00 -0.17503093336E+03  0.21508409187E+03  0.12500135577E+03 0.  0.
    9000005    1    3    3    0    0 -0.38701732342E+01  0.45441949848E+02 -0.16102960776E+03  0.16736631567E+03  0.10000000000E+01 0.  0.
    9000005    1    3    3    0    0  0.38701732342E+01 -0.45441949848E+02 -0.14001325600E+02  0.47717776200E+02  0.10000000000E+01 0.  0.
<mgrwt>
<rscale>  0 0.12500136E+03</rscale>
<asrwt>0</asrwt>
<pdfrwt beam="1">  1        4 0.30810123E-02 0.12500136E+03</pdfrwt>
<pdfrwt beam="2">  1       -4 0.30008847E-01 0.12500136E+03</pdfrwt>
<totfact> 0.87649600E+03</totfact>
</mgrwt>
</event>
<event>
 5    1  0.3487578E-002  0.1249990E+03  0.7818608E-02  0.1235071E+00
         -4   -1    0    0    0  501 -0.00000000000E+00  0.00000000000E+00  0.57962649040E+03  0.57962788172E+03  0.12700000000E+01 0.  1.
          4   -1    0    0  501    0  0.00000000000E+00 -0.00000000000E+00 -0.66779015937E+01  0.67975929339E+01  0.12700000000E+01 0.  1.
         25    2    1    2    0    0  0.00000000000E+00  0.00000000000E+00  0.57294858880E+03  0.58642547466E+03  0.12499900765E+03 0.  0.
    9000005    1    3    3    0    0 -0.59155974523E+02  0.13777721172E+02  0.21753515963E+03  0.22585792126E+03  0.10000000000E+01 0.  0.
    9000005    1    3    3    0    0  0.59155974523E+02 -0.13777721172E+02  0.35541342917E+03  0.36056755339E+03  0.10000000000E+01 0.  0.
<mgrwt>
<rscale>  0 0.12499901E+03</rscale>
<asrwt>0</asrwt>
<pdfrwt beam="2">  1        4 0.10366836E-02 0.12499901E+03</pdfrwt>
<pdfrwt beam="1">  1       -4 0.89182618E-01 0.12499901E+03</pdfrwt>
<totfact> 0.49736923E+03</totfact>
</mgrwt>
</event>
<event>
 5    1  0.3487578E-002  0.1249985E+03  0.7818608E-02  0.1235072E+00
          4   -1    0    0  501    0  0.00000000000E+00  0.00000000000E+00  0.24477511776E+02  0.24510436201E+02  0.12700000000E+01 0.  1.
         -4   -1    0    0    0  501 -0.00000000000E+00 -0.00000000000E+00 -0.15943870519E+03  0.15944376316E+03  0.12700000000E+01 0.  1.
         25    2    1    2    0    0  0.00000000000E+00  0.00000000000E+00 -0.13496119341E+03  0.18395419937E+03  0.12499849494E+03 0.  0.
    9000005    1    3    3    0    0 -0.20922652622E+02  0.57005539851E+02 -0.45763542033E+02  0.76044005325E+02  0.10000000000E+01 0.  0.
    9000005    1    3    3    0    0  0.20922652622E+02 -0.57005539851E+02 -0.89197651378E+02  0.10791019404E+03  0.10000000000E+01 0.  0.
<mgrwt>
<rscale>  0 0.12499849E+03</rscale>
<asrwt>0</asrwt>
<pdfrwt beam="1">  1        4 0.37686929E-02 0.12499849E+03</pdfrwt>
<pdfrwt beam="2">  1       -4 0.24531953E-01 0.12499849E+03</pdfrwt>
<totfact> 0.92913173E+03</totfact>
</mgrwt>
</event>
<event>
 5    1  0.3487578E-002  0.1250038E+03  0.7818608E-02  0.1235063E+00
         -4   -1    0    0    0  501 -0.00000000000E+00  0.00000000000E+00  0.59072043778E+01  0.60421820199E+01  0.12700000000E+01 0.  1.
          4   -1    0    0  501    0  0.00000000000E+00 -0.00000000000E+00 -0.65370292241E+03  0.65370415607E+03  0.12700000000E+01 0.  1.
         25    2    1    2    0    0  0.00000000000E+00  0.00000000000E+00 -0.64779571803E+03  0.65974633809E+03  0.12500375325E+03 0.  0.
    9000005    1    3    3    0    0 -0.21803843177E+02 -0.22927637269E+02 -0.39463417235E+02  0.50590961919E+02  0.10000000000E+01 0.  0.
    9000005    1    3    3    0    0  0.21803843177E+02  0.22927637269E+02 -0.60833230080E+03  0.60915537617E+03  0.10000000000E+01 0.  0.
<mgrwt>
<rscale>  0 0.12500375E+03</rscale>
<asrwt>0</asrwt>
<pdfrwt beam="2">  1        4 0.10058010E+00 0.12500375E+03</pdfrwt>
<pdfrwt beam="1">  1       -4 0.91927898E-03 0.12500375E+03</pdfrwt>
<totfact> 0.45294638E+03</totfact>
</mgrwt>
</event>
<event>
 5    1  0.3487578E-002  0.1249996E+03  0.7818608E-02  0.1235070E+00
         -4   -1    0    0    0  501 -0.00000000000E+00  0.00000000000E+00  0.64388956954E+03  0.64389082201E+03  0.12700000000E+01 0.  1.
          4   -1    0    0  501    0  0.00000000000E+00 -0.00000000000E+00 -0.59988725114E+01  0.61318326305E+01  0.12700000000E+01 0.  1.
         25    2    1    2    0    0  0.00000000000E+00  0.00000000000E+00  0.63789069703E+03  0.65002265464E+03  0.12499964074E+03 0.  0.
    9000005    1    3    3    0    0 -0.26114180000E+02  0.44450580663E+02  0.50261043458E+03  0.50524850664E+03  0.10000000000E+01 0.  0.
    9000005    1    3    3    0    0  0.26114180000E+02 -0.44450580663E+02  0.13528026246E+03  0.14477414800E+03  0.10000000000E+01 0.  0.
<mgrwt>
<rscale>  0 0.12499964E+03</rscale>
<asrwt>0</asrwt>
<pdfrwt beam="2">  1        4 0.93322753E-03 0.12499964E+03</pdfrwt>
<pdfrwt beam="1">  1       -4 0.99070255E-01 0.12499964E+03</pdfrwt>
<totfact> 0.45855158E+03</totfact>
</mgrwt>
</event>
<event>
 5    1  0.3487578E-002  0.1250124E+03  0.7818608E-02  0.1235050E+00
         -4   -1    0    0    0  501 -0.00000000000E+00  0.00000000000E+00  0.43725962805E+02  0.43744402193E+02  0.12700000000E+01 0.  1.
          4   -1    0    0  501    0  0.00000000000E+00 -0.00000000000E+00 -0.89310767718E+02  0.89319796968E+02  0.12700000000E+01 0.  1.
         25    2    1    2    0    0  0.00000000000E+00  0.00000000000E+00 -0.45584804913E+02  0.13306419916E+03  0.12501242602E+03 0.  0.
    9000005    1    3    3    0    0 -0.48514270601E+02  0.39326531663E+02 -0.20225409177E+02  0.65652705359E+02  0.10000000000E+01 0.  0.
    9000005    1    3    3    0    0  0.48514270601E+02 -0.39326531663E+02 -0.25359395736E+02  0.67411493803E+02  0.10000000000E+01 0.  0.
<mgrwt>
<rscale>  0 0.12501243E+03</rscale>
<asrwt>0</asrwt>
<pdfrwt beam="2">  1        4 0.13742231E-01 0.12501243E+03</pdfrwt>
<pdfrwt beam="1">  1       -4 0.67291842E-02 0.12501243E+03</pdfrwt>
<totfact> 0.10276155E+04</totfact>
</mgrwt>
</event>
<event>
 5    1  0.3487578E-002  0.1249955E+03  0.7818608E-02  0.1235076E+00
         -4   -1    0    0    0  501 -0.00000000000E+00  0.00000000000E+00  0.22065566115E+03  0.22065931591E+03  0.12700000000E+01 0. -1.
          4   -1    0    0  501    0  0.00000000000E+00 -0.00000000000E+00 -0.17675049232E+02  0.17720616958E+02  0.12700000000E+01 0. -1.
         25    2    1    2    0    0  0.00000000000E+00  0.00000000000E+00  0.20298061192E+03  0.23837993287E+03  0.12499545424E+03 0.  0.
    9000005    1    3    3    0    0 -0.25354124698E+02  0.44805629293E+01  0.21007932713E+03  0.21165356310E+03  0.10000000000E+01 0.  0.
    9000005    1    3    3    0    0  0.25354124698E+02 -0.44805629293E+01 -0.70987152149E+01  0.26726369770E+02  0.10000000000E+01 0.  0.
<mgrwt>
<rscale>  0 0.12499545E+03</rscale>
<asrwt>0</asrwt>
<pdfrwt beam="2">  1        4 0.27230249E-02 0.12499545E+03</pdfrwt>
<pdfrwt beam="1">  1       -4 0.33950808E-01 0.12499545E+03</pdfrwt>
<totfact> 0.84047761E+03</totfact>
</mgrwt>
</event>
<event>
 5    1  0.3487578E-002  0.1249983E+03  0.7818608E-02  0.1235072E+00
          4   -1    0    0  501    0  0.00000000000E+00  0.00000000000E+00  0.30549977734E+03  0.30550241710E+03  0.12700000000E+01 0. -1.
         -4   -1    0    0    0  501 -0.00000000000E+00 -0.00000000000E+00 -0.12751845154E+02  0.12814930934E+02  0.12700000000E+01 0. -1.
         25    2    1    2    0    0  0.00000000000E+00  0.00000000000E+00  0.29274793218E+03  0.31831734803E+03  0.12499832903E+03 0.  0.
    9000005    1    3    3    0    0 -0.96873306970E+01 -0.29784510506E+02  0.28408174003E+03  0.28580482231E+03  0.10000000000E+01 0.  0.
    9000005    1    3    3    0    0  0.96873306970E+01  0.29784510506E+02  0.86661921582E+01  0.32512525719E+02  0.10000000000E+01 0.  0.
<mgrwt>
<rscale>  0 0.12499833E+03</rscale>
<asrwt>0</asrwt>
<pdfrwt beam="1">  1        4 0.47005019E-01 0.12499833E+03</pdfrwt>
<pdfrwt beam="2">  1       -4 0.19668783E-02 0.12499833E+03</pdfrwt>
<totfact> 0.73359420E+03</totfact>
</mgrwt>
</event>
<event>
 5    1  0.3487578E-002  0.1250027E+03  0.7818608E-02  0.1235065E+00
         -4   -1    0    0    0  501 -0.00000000000E+00  0.00000000000E+00  0.24876864528E+02  0.24909261104E+02  0.12700000000E+01 0.  1.
          4   -1    0    0  501    0  0.00000000000E+00 -0.00000000000E+00 -0.15689298587E+03  0.15689812592E+03  0.12700000000E+01 0.  1.
         25    2    1    2    0    0  0.00000000000E+00  0.00000000000E+00 -0.13201612134E+03  0.18180738702E+03  0.12500267869E+03 0.  0.
    9000005    1    3    3    0    0  0.19749786639E+02  0.51061782783E+01  0.19905309652E+02  0.28519265089E+02  0.10000000000E+01 0.  0.
    9000005    1    3    3    0    0 -0.19749786639E+02 -0.51061782783E+01 -0.15192143100E+03  0.15328812193E+03  0.10000000000E+01 0.  0.
<mgrwt>
<rscale>  0 0.12500268E+03</rscale>
<asrwt>0</asrwt>
<pdfrwt beam="2">  1        4 0.24140269E-01 0.12500268E+03</pdfrwt>
<pdfrwt beam="1">  1       -4 0.38300975E-02 0.12500268E+03</pdfrwt>
<totfact> 0.93287074E+03</totfact>
</mgrwt>
</event>
<event>
 5    1  0.3487578E-002  0.1250013E+03  0.7818608E-02  0.1235067E+00
         -4   -1    0    0    0  501 -0.00000000000E+00  0.00000000000E+00  0.57867644302E+02  0.57881578737E+02  0.12700000000E+01 0. -1.
          4   -1    0    0  501    0  0.00000000000E+00 -0.00000000000E+00 -0.67476513854E+02  0.67488464362E+02  0.12700000000E+01 0. -1.
         25    2    1    2    0    0  0.00000000000E+00  0.00000000000E+00 -0.96088695523E+01  0.12537004310E+03  0.12500126932E+03 0.  0.
    9000005    1    3    3    0    0 -0.56902020916E+02  0.25421354647E+02 -0.18170738511E+00  0.62330716937E+02  0.10000000000E+01 0.  0.
    9000005    1    3    3    0    0  0.56902020916E+02 -0.25421354647E+02 -0.94271621672E+01  0.63039326161E+02  0.10000000000E+01 0.  0.
<mgrwt>
<rscale>  0 0.12500127E+03</rscale>
<asrwt>0</asrwt>
<pdfrwt beam="2">  1        4 0.10382993E-01 0.12500127E+03</pdfrwt>
<pdfrwt beam="1">  1       -4 0.89047057E-02 0.12500127E+03</pdfrwt>
<totfact> 0.10444531E+04</totfact>
</mgrwt>
</event>
<event>
 5    1  0.3487578E-002  0.1249848E+03  0.7818608E-02  0.1235093E+00
          4   -1    0    0  501    0  0.00000000000E+00  0.00000000000E+00  0.37842454679E+02  0.37863759403E+02  0.12700000000E+01 0. -1.
         -4   -1    0    0    0  501 -0.00000000000E+00 -0.00000000000E+00 -0.10314464783E+03  0.10315246616E+03  0.12700000000E+01 0. -1.
         25    2    1    2    0    0  0.00000000000E+00  0.00000000000E+00 -0.65302193147E+02  0.14101622556E+03  0.12498479685E+03 0.  0.
    9000005    1    3    3    0    0  0.26068761884E+02 -0.34820356877E+02 -0.83263176913E+02  0.93945698299E+02  0.10000000000E+01 0.  0.
    9000005    1    3    3    0    0 -0.26068761884E+02  0.34820356877E+02  0.17960983766E+02  0.47070527265E+02  0.10000000000E+01 0.  0.
<mgrwt>
<rscale>  0 0.12498480E+03</rscale>
<asrwt>0</asrwt>
<pdfrwt beam="1">  1        4 0.58241564E-02 0.12498480E+03</pdfrwt>
<pdfrwt beam="2">  1       -4 0.15870647E-01 0.12498480E+03</pdfrwt>
<totfact> 0.10116031E+04</totfact>
</mgrwt>
</event>
<event>
 5    1  0.3487578E-002  0.1250032E+03  0.7818608E-02  0.1235064E+00
         -4   -1    0    0    0  501 -0.00000000000E+00  0.00000000000E+00  0.28578669538E+03  0.28578951722E+03  0.12700000000E+01 0. -1.
          4   -1    0    0  501    0  0.00000000000E+00 -0.00000000000E+00 -0.13636709841E+02  0.13695720327E+02  0.12700000000E+01 0. -1.
         25    2    1    2    0    0  0.00000000000E+00  0.00000000000E+00  0.27214998554E+03  0.29948523755E+03  0.12500317149E+03 0.  0.
    9000005    1    3    3    0    0 -0.23255000042E+02  0.42495242447E+01 -0.25226837802E+01  0.23795323421E+02  0.10000000000E+01 0.  0.
    9000005    1    3    3    0    0  0.23255000042E+02 -0.42495242447E+01  0.27467266932E+03  0.27568991413E+03  0.10000000000E+01 0.  0.
<mgrwt>
<rscale>  0 0.12500317E+03</rscale>
<asrwt>0</asrwt>
<pdfrwt beam="2">  1        4 0.21027118E-02 0.12500317E+03</pdfrwt>
<pdfrwt beam="1">  1       -4 0.43971938E-01 0.12500317E+03</pdfrwt>
<totfact> 0.75658128E+03</totfact>
</mgrwt>
</event>
<event>
 5    1  0.3487578E-002  0.1249978E+03  0.7818608E-02  0.1235073E+00
          4   -1    0    0  501    0  0.00000000000E+00  0.00000000000E+00  0.58633269012E+03  0.58633406553E+03  0.12700000000E+01 0.  1.
         -4   -1    0    0    0  501 -0.00000000000E+00 -0.00000000000E+00 -0.66000160835E+01  0.67210945762E+01  0.12700000000E+01 0.  1.
         25    2    1    2    0    0  0.00000000000E+00  0.00000000000E+00  0.57973267404E+03  0.59305516011E+03  0.12499779832E+03 0.  0.
    9000005    1    3    3    0    0 -0.42273339450E+02  0.45961995658E+02  0.30106595182E+03  0.30747560492E+03  0.10000000000E+01 0.  0.
    9000005    1    3    3    0    0  0.42273339450E+02 -0.45961995658E+02  0.27866672222E+03  0.28557955519E+03  0.10000000000E+01 0.  0.
<mgrwt>
<rscale>  0 0.12499780E+03</rscale>
<asrwt>0</asrwt>
<pdfrwt beam="1">  1        4 0.90214453E-01 0.12499780E+03</pdfrwt>
<pdfrwt beam="2">  1       -4 0.10248066E-02 0.12499780E+03</pdfrwt>
<totfact> 0.49311323E+03</totfact>
</mgrwt>
</event>
<event>
 5    1  0.3487578E-002  0.1250061E+03  0.7818608E-02  0.1235060E+00
         -4   -1    0    0    0  501 -0.00000000000E+00  0.00000000000E+00  0.33847133845E+03  0.33847372107E+03  0.12700000000E+01 0.  1.
          4   -1    0    0  501    0  0.00000000000E+00 -0.00000000000E+00 -0.11504610772E+02  0.11574496490E+02  0.12700000000E+01 0.  1.
         25    2    1    2    0    0  0.00000000000E+00  0.00000000000E+00  0.32696672768E+03  0.35004821756E+03  0.12500605428E+03 0.  0.
    9000005    1    3    3    0    0 -0.18792222569E+02  0.39202558829E+02  0.37763667304E+02  0.57594121367E+02  0.10000000000E+01 0.  0.
    9000005    1    3    3    0    0  0.18792222569E+02 -0.39202558829E+02  0.28920306038E+03  0.29245409619E+03  0.10000000000E+01 0.  0.
<mgrwt>
<rscale>  0 0.12500605E+03</rscale>
<asrwt>0</asrwt>
<pdfrwt beam="2">  1        4 0.17754995E-02 0.12500605E+03</pdfrwt>
<pdfrwt beam="1">  1       -4 0.52078064E-01 0.12500605E+03</pdfrwt>
<totfact> 0.69709915E+03</totfact>
</mgrwt>
</event>
<event>
 5    1  0.3487578E-002  0.1250014E+03  0.7818608E-02  0.1235067E+00
         -4   -1    0    0    0  501 -0.00000000000E+00  0.00000000000E+00  0.10522381500E+03  0.10523147886E+03  0.12700000000E+01 0.  1.
          4   -1    0    0  501    0  0.00000000000E+00 -0.00000000000E+00 -0.37104171674E+02  0.37125900065E+02  0.12700000000E+01 0.  1.
         25    2    1    2    0    0  0.00000000000E+00  0.00000000000E+00  0.68119643331E+02  0.14235737893E+03  0.12500135011E+03 0.  0.
    9000005    1    3    3    0    0  0.38558451086E+01  0.52070726789E+02  0.73165673511E+02  0.89891289401E+02  0.10000000000E+01 0.  0.
    9000005    1    3    3    0    0 -0.38558451086E+01 -0.52070726789E+02 -0.50460301810E+01  0.52466089528E+02  0.10000000000E+01 0.  0.
<mgrwt>
<rscale>  0 0.12500135E+03</rscale>
<asrwt>0</asrwt>
<pdfrwt beam="2">  1        4 0.57105952E-02 0.12500135E+03</pdfrwt>
<pdfrwt beam="1">  1       -4 0.16190540E-01 0.12500135E+03</pdfrwt>
<totfact> 0.10084653E+04</totfact>
</mgrwt>
</event>
<event>
 5    1  0.3487578E-002  0.1250012E+03  0.7818608E-02  0.1235067E+00
         -4   -1    0    0    0  501 -0.00000000000E+00  0.00000000000E+00  0.57500585554E+02  0.57514608918E+02  0.12700000000E+01 0.  1.
          4   -1    0    0  501    0  0.00000000000E+00 -0.00000000000E+00 -0.67907136873E+02  0.67919011612E+02  0.12700000000E+01 0.  1.
         25    2    1    2    0    0  0.00000000000E+00  0.00000000000E+00 -0.10406551320E+02  0.12543362053E+03  0.12500118739E+03 0.  0.
    9000005    1    3    3    0    0  0.21831365419E+02  0.51738944383E+02 -0.32717052418E+02  0.64999480004E+02  0.10000000000E+01 0.  0.
    9000005    1    3    3    0    0 -0.21831365419E+02 -0.51738944383E+02  0.22310501098E+02  0.60434140526E+02  0.10000000000E+01 0.  0.
<mgrwt>
<rscale>  0 0.12500119E+03</rscale>
<asrwt>0</asrwt>
<pdfrwt beam="2">  1        4 0.10449244E-01 0.12500119E+03</pdfrwt>
<pdfrwt beam="1">  1       -4 0.88482361E-02 0.12500119E+03</pdfrwt>
<totfact> 0.10443143E+04</totfact>
</mgrwt>
</event>
<event>
 5    1  0.3487578E-002  0.1250002E+03  0.7818608E-02  0.1235069E+00
          4   -1    0    0  501    0  0.00000000000E+00  0.00000000000E+00  0.37223868603E+03  0.37224085251E+03  0.12700000000E+01 0.  1.
         -4   -1    0    0    0  501 -0.00000000000E+00 -0.00000000000E+00 -0.10453349552E+02  0.10530214473E+02  0.12700000000E+01 0.  1.
         25    2    1    2    0    0  0.00000000000E+00  0.00000000000E+00  0.36178533648E+03  0.38277106698E+03  0.12500024012E+03 0.  0.
    9000005    1    3    3    0    0 -0.13982025282E+02 -0.40210134786E+02  0.32098160758E+03  0.32379398446E+03  0.10000000000E+01 0.  0.
    9000005    1    3    3    0    0  0.13982025282E+02  0.40210134786E+02  0.40803728899E+02  0.58977082520E+02  0.10000000000E+01 0.  0.
<mgrwt>
<rscale>  0 0.12500024E+03</rscale>
<asrwt>0</asrwt>
<pdfrwt beam="1">  1        4 0.57273568E-01 0.12500024E+03</pdfrwt>
<pdfrwt beam="2">  1       -4 0.16142870E-02 0.12500024E+03</pdfrwt>
<totfact> 0.66263320E+03</totfact>
</mgrwt>
</event>
<event>
 5    1  0.3487578E-002  0.1250033E+03  0.7818608E-02  0.1235064E+00
          4   -1    0    0  501    0  0.00000000000E+00  0.00000000000E+00  0.98785412986E+01  0.99598432813E+01  0.12700000000E+01 0.  1.
         -4   -1    0    0    0  501 -0.00000000000E+00 -0.00000000000E+00 -0.39374546468E+03  0.39374751282E+03  0.12700000000E+01 0.  1.
         25    2    1    2    0    0  0.00000000000E+00  0.00000000000E+00 -0.38386692338E+03  0.40370735610E+03  0.12500325799E+03 0.  0.
    9000005    1    3    3    0    0  0.33997640327E+02  0.30450255480E+02 -0.54064434934E+02  0.70760304771E+02  0.10000000000E+01 0.  0.
    9000005    1    3    3    0    0 -0.33997640327E+02 -0.30450255480E+02 -0.32980248845E+03  0.33294705133E+03  0.10000000000E+01 0.  0.
<mgrwt>
<rscale>  0 0.12500326E+03</rscale>
<asrwt>0</asrwt>
<pdfrwt beam="1">  1        4 0.15261874E-02 0.12500326E+03</pdfrwt>
<pdfrwt beam="2">  1       -4 0.60582625E-01 0.12500326E+03</pdfrwt>
<totfact> 0.64189196E+03</totfact>
</mgrwt>
</event>
<event>
 5    1  0.3487578E-002  0.1250021E+03  0.7818608E-02  0.1235066E+00
          4   -1    0    0  501    0  0.00000000000E+00  0.00000000000E+00  0.43701989478E+02  0.43720438977E+02  0.12700000000E+01 0. -1.
         -4   -1    0    0    0  501 -0.00000000000E+00 -0.00000000000E+00 -0.89344944804E+02  0.89353970600E+02  0.12700000000E+01 0. -1.
         25    2    1    2    0    0  0.00000000000E+00  0.00000000000E+00 -0.45642955325E+02  0.13307440958E+03  0.12500207644E+03 0.  0.
    9000005    1    3    3    0    0  0.31348772572E+02 -0.50829447970E+02 -0.42422471957E+02  0.73260114999E+02  0.10000000000E+01 0.  0.
    9000005    1    3    3    0    0 -0.31348772572E+02  0.50829447970E+02 -0.32204833683E+01  0.59814294578E+02  0.10000000000E+01 0.  0.
<mgrwt>
<rscale>  0 0.12500208E+03</rscale>
<asrwt>0</asrwt>
<pdfrwt beam="1">  1        4 0.67254965E-02 0.12500208E+03</pdfrwt>
<pdfrwt beam="2">  1       -4 0.13747490E-01 0.12500208E+03</pdfrwt>
<totfact> 0.10278337E+04</totfact>
</mgrwt>
</event>
<event>
 5    1  0.3487578E-002  0.1250098E+03  0.7818608E-02  0.1235054E+00
         -4   -1    0    0    0  501 -0.00000000000E+00  0.00000000000E+00  0.32930164817E+02  0.32954645421E+02  0.12700000000E+01 0.  1.
          4   -1    0    0  501    0  0.00000000000E+00 -0.00000000000E+00 -0.11856891838E+03  0.11857571972E+03  0.12700000000E+01 0.  1.
         25    2    1    2    0    0  0.00000000000E+00  0.00000000000E+00 -0.85638753565E+02  0.15153036514E+03  0.12500982140E+03 0.  0.
    9000005    1    3    3    0    0 -0.22688901540E+02  0.12531046390E+02  0.26113901457E+02  0.36806918182E+02  0.10000000000E+01 0.  0.
    9000005    1    3    3    0    0  0.22688901540E+02 -0.12531046390E+02 -0.11175265502E+03  0.11472344696E+03  0.10000000000E+01 0.  0.
<mgrwt>
<rscale>  0 0.12500982E+03</rscale>
<asrwt>0</asrwt>
<pdfrwt beam="2">  1        4 0.18243778E-01 0.12500982E+03</pdfrwt>
<pdfrwt beam="1">  1       -4 0.50685856E-02 0.12500982E+03</pdfrwt>
<totfact> 0.98977638E+03</totfact>
</mgrwt>
</event>
<event>
 5    1  0.3487578E-002  0.1249995E+03  0.7818608E-02  0.1235070E+00
         -4   -1    0    0    0  501 -0.00000000000E+00  0.00000000000E+00  0.63246964958E+03  0.63247092466E+03  0.12700000000E+01 0. -1.
          4   -1    0    0  501    0  0.00000000000E+00 -0.00000000000E+00 -0.61095547411E+01  0.62401569799E+01  0.12700000000E+01 0. -1.
         25    2    1    2    0    0  0.00000000000E+00  0.00000000000E+00  0.62636009484E+03  0.63871108164E+03  0.12499950961E+03 0.  0.
    9000005    1    3    3    0    0  0.55807916328E+02 -0.28096455513E+02  0.30738776185E+03  0.31367526276E+03  0.10000000000E+01 0.  0.
    9000005    1    3    3    0    0 -0.55807916328E+02  0.28096455513E+02  0.31897233299E+03  0.32503581888E+03  0.10000000000E+01 0.  0.
<mgrwt>
<rscale>  0 0.12499951E+03</rscale>
<asrwt>0</asrwt>
<pdfrwt beam="2">  1        4 0.95007588E-03 0.12499951E+03</pdfrwt>
<pdfrwt beam="1">  1       -4 0.97313171E-01 0.12499951E+03</pdfrwt>
<totfact> 0.46512269E+03</totfact>
</mgrwt>
</event>
<event>
 5    1  0.3487578E-002  0.1249978E+03  0.7818608E-02  0.1235073E+00
          4   -1    0    0  501    0  0.00000000000E+00  0.00000000000E+00  0.75174217823E+01  0.76239445337E+01  0.12700000000E+01 0.  1.
         -4   -1    0    0    0  501 -0.00000000000E+00 -0.00000000000E+00 -0.51584547384E+03  0.51584703719E+03  0.12700000000E+01 0.  1.
         25    2    1    2    0    0  0.00000000000E+00  0.00000000000E+00 -0.50832805206E+03  0.52347098173E+03  0.12499784079E+03 0.  0.
    9000005    1    3    3    0    0  0.58365283230E+02  0.20790189995E+02 -0.28828317092E+03  0.29486763966E+03  0.10000000000E+01 0.  0.
    9000005    1    3    3    0    0 -0.58365283230E+02 -0.20790189995E+02 -0.22004488114E+03  0.22860334206E+03  0.10000000000E+01 0.  0.
<mgrwt>
<rscale>  0 0.12499784E+03</rscale>
<asrwt>0</asrwt>
<pdfrwt beam="1">  1        4 0.11648411E-02 0.12499784E+03</pdfrwt>
<pdfrwt beam="2">  1       -4 0.79369129E-01 0.12499784E+03</pdfrwt>
<totfact> 0.54090787E+03</totfact>
</mgrwt>
</event>
<event>
 5    1  0.3487578E-002  0.1250087E+03  0.7818608E-02  0.1235056E+00
          4   -1    0    0  501    0  0.00000000000E+00  0.00000000000E+00  0.24608448753E+03  0.24608776464E+03  0.12700000000E+01 0. -1.
         -4   -1    0    0    0  501 -0.00000000000E+00 -0.00000000000E+00 -0.15847041502E+02  0.15897849678E+02  0.12700000000E+01 0. -1.
         25    2    1    2    0    0  0.00000000000E+00  0.00000000000E+00  0.23023744603E+03  0.26198561432E+03  0.12500872191E+03 0.  0.
    9000005    1    3    3    0    0 -0.43151576687E+02  0.45012350889E+02  0.12391704119E+03  0.13872491989E+03  0.10000000000E+01 0.  0.
    9000005    1    3    3    0    0  0.43151576687E+02 -0.45012350889E+02  0.10632040485E+03  0.12326069442E+03  0.10000000000E+01 0.  0.
<mgrwt>
<rscale>  0 0.12500872E+03</rscale>
<asrwt>0</asrwt>
<pdfrwt beam="1">  1        4 0.37863310E-01 0.12500872E+03</pdfrwt>
<pdfrwt beam="2">  1       -4 0.24421669E-02 0.12500872E+03</pdfrwt>
<totfact> 0.80612564E+03</totfact>
</mgrwt>
</event>
<event>
 5    1  0.3487578E-002  0.1249986E+03  0.7818608E-02  0.1235072E+00
          4   -1    0    0  501    0  0.00000000000E+00  0.00000000000E+00  0.49047113342E+02  0.49063552941E+02  0.12700000000E+01 0.  1.
         -4   -1    0    0    0  501 -0.00000000000E+00 -0.00000000000E+00 -0.79606150726E+02  0.79616280580E+02  0.12700000000E+01 0.  1.
         25    2    1    2    0    0  0.00000000000E+00  0.00000000000E+00 -0.30559037384E+02  0.12867983352E+03  0.12499857915E+03 0.  0.
    9000005    1    3    3    0    0 -0.14621475156E+02 -0.58728006823E+02  0.74803098209E+00  0.60533675516E+02  0.10000000000E+01 0.  0.
    9000005    1    3    3    0    0  0.14621475156E+02  0.58728006823E+02 -0.31307068366E+02  0.68146158005E+02  0.10000000000E+01 0.  0.
<mgrwt>
<rscale>  0 0.12499858E+03</rscale>
<asrwt>0</asrwt>
<pdfrwt beam="1">  1        4 0.75477535E-02 0.12499858E+03</pdfrwt>
<pdfrwt beam="2">  1       -4 0.12249144E-01 0.12499858E+03</pdfrwt>
<totfact> 0.10373164E+04</totfact>
</mgrwt>
</event>
<event>
 5    1  0.3487578E-002  0.1250304E+03  0.7818608E-02  0.1235022E+00
         -4   -1    0    0    0  501 -0.00000000000E+00  0.00000000000E+00  0.53929116914E+02  0.53944068730E+02  0.12700000000E+01 0. -1.
          4   -1    0    0  501    0  0.00000000000E+00 -0.00000000000E+00 -0.72437710883E+02  0.72448843041E+02  0.12700000000E+01 0. -1.
         25    2    1    2    0    0  0.00000000000E+00  0.00000000000E+00 -0.18508593969E+02  0.12639291177E+03  0.12503039668E+03 0.  0.
    9000005    1    3    3    0    0  0.11957870645E+02  0.49445399615E+02  0.27463856682E+02  0.57819561026E+02  0.10000000000E+01 0.  0.
    9000005    1    3    3    0    0 -0.11957870645E+02 -0.49445399615E+02 -0.45972450651E+02  0.68573350744E+02  0.10000000000E+01 0.  0.
<mgrwt>
<rscale>  0 0.12503040E+03</rscale>
<asrwt>0</asrwt>
<pdfrwt beam="2">  1        4 0.11146270E-01 0.12503040E+03</pdfrwt>
<pdfrwt beam="1">  1       -4 0.82987936E-02 0.12503040E+03</pdfrwt>
<totfact> 0.10415217E+04</totfact>
</mgrwt>
</event>
<event>
 5    1  0.3487578E-002  0.1250021E+03  0.7818608E-02  0.1235066E+00
          4   -1    0    0  501    0  0.00000000000E+00  0.00000000000E+00  0.22946952454E+02  0.22982069683E+02  0.12700000000E+01 0.  1.
         -4   -1    0    0    0  501 -0.00000000000E+00 -0.00000000000E+00 -0.17006770667E+03  0.17007244854E+03  0.12700000000E+01 0.  1.
         25    2    1    2    0    0  0.00000000000E+00  0.00000000000E+00 -0.14712075422E+03  0.19305451822E+03  0.12500212272E+03 0.  0.
    9000005    1    3    3    0    0 -0.23835946277E+02  0.56952324485E+02 -0.58613626744E+02  0.85136812480E+02  0.10000000000E+01 0.  0.
    9000005    1    3    3    0    0  0.23835946277E+02 -0.56952324485E+02 -0.88507127473E+02  0.10791770574E+03  0.10000000000E+01 0.  0.
<mgrwt>
<rscale>  0 0.12500212E+03</rscale>
<asrwt>0</asrwt>
<pdfrwt beam="1">  1        4 0.35333666E-02 0.12500212E+03</pdfrwt>
<pdfrwt beam="2">  1       -4 0.26167328E-01 0.12500212E+03</pdfrwt>
<totfact> 0.91314198E+03</totfact>
</mgrwt>
</event>
<event>
 5    1  0.3487578E-002  0.1250000E+03  0.7818608E-02  0.1235069E+00
         -4   -1    0    0    0  501 -0.00000000000E+00  0.00000000000E+00  0.14735788222E+02  0.14790414278E+02  0.12700000000E+01 0. -1.
          4   -1    0    0  501    0  0.00000000000E+00 -0.00000000000E+00 -0.26453927476E+03  0.26454232325E+03  0.12700000000E+01 0. -1.
         25    2    1    2    0    0  0.00000000000E+00  0.00000000000E+00 -0.24980348653E+03  0.27933273752E+03  0.12499998547E+03 0.  0.
    9000005    1    3    3    0    0  0.45011363945E+01  0.11953532777E+02 -0.26160211035E+03  0.26191565687E+03  0.10000000000E+01 0.  0.
    9000005    1    3    3    0    0 -0.45011363945E+01 -0.11953532777E+02  0.11798623813E+02  0.17417080656E+02  0.10000000000E+01 0.  0.
<mgrwt>
<rscale>  0 0.12499999E+03</rscale>
<asrwt>0</asrwt>
<pdfrwt beam="2">  1        4 0.40702783E-01 0.12499999E+03</pdfrwt>
<pdfrwt beam="1">  1       -4 0.22714810E-02 0.12499999E+03</pdfrwt>
<totfact> 0.78266690E+03</totfact>
</mgrwt>
</event>
<event>
 5    1  0.3487578E-002  0.1249995E+03  0.7818608E-02  0.1235070E+00
         -4   -1    0    0    0  501 -0.00000000000E+00  0.00000000000E+00  0.10395983831E+03  0.10396759535E+03  0.12700000000E+01 0.  1.
          4   -1    0    0  501    0  0.00000000000E+00 -0.00000000000E+00 -0.37554397742E+02  0.37575865788E+02  0.12700000000E+01 0.  1.
         25    2    1    2    0    0  0.00000000000E+00  0.00000000000E+00  0.66405440572E+02  0.14154346113E+03  0.12499947541E+03 0.  0.
    9000005    1    3    3    0    0 -0.19441391384E+02 -0.54682812811E+02  0.69614572484E+01  0.58460581616E+02  0.10000000000E+01 0.  0.
    9000005    1    3    3    0    0  0.19441391384E+02  0.54682812811E+02  0.59443983323E+02  0.83082879519E+02  0.10000000000E+01 0.  0.
<mgrwt>
<rscale>  0 0.12499948E+03</rscale>
<asrwt>0</asrwt>
<pdfrwt beam="2">  1        4 0.57798477E-02 0.12499948E+03</pdfrwt>
<pdfrwt beam="1">  1       -4 0.15996069E-01 0.12499948E+03</pdfrwt>
<totfact> 0.10101816E+04</totfact>
</mgrwt>
</event>
<event>
 5    1  0.3487578E-002  0.1249966E+03  0.7818608E-02  0.1235075E+00
          4   -1    0    0  501    0  0.00000000000E+00  0.00000000000E+00  0.15912371154E+03  0.15912877952E+03  0.12700000000E+01 0. -1.
         -4   -1    0    0    0  501 -0.00000000000E+00 -0.00000000000E+00 -0.24525292635E+02  0.24558153001E+02  0.12700000000E+01 0. -1.
         25    2    1    2    0    0  0.00000000000E+00  0.00000000000E+00  0.13459841890E+03  0.18368693252E+03  0.12499661919E+03 0.  0.
    9000005    1    3    3    0    0  0.22124888145E+02  0.30667932288E+02  0.14040775083E+03  0.14541447397E+03  0.10000000000E+01 0.  0.
    9000005    1    3    3    0    0 -0.22124888145E+02 -0.30667932288E+02 -0.58093319325E+01  0.38272458554E+02  0.10000000000E+01 0.  0.
<mgrwt>
<rscale>  0 0.12499662E+03</rscale>
<asrwt>0</asrwt>
<pdfrwt beam="1">  1        4 0.24483488E-01 0.12499662E+03</pdfrwt>
<pdfrwt beam="2">  1       -4 0.37760396E-02 0.12499662E+03</pdfrwt>
<totfact> 0.92964567E+03</totfact>
</mgrwt>
</event>
<event>
 5    1  0.3487578E-002  0.1250005E+03  0.7818608E-02  0.1235069E+00
         -4   -1    0    0    0  501 -0.00000000000E+00  0.00000000000E+00  0.11432769244E+02  0.11503091436E+02  0.12700000000E+01 0. -1.
          4   -1    0    0  501    0  0.00000000000E+00 -0.00000000000E+00 -0.34055487380E+03  0.34055724184E+03  0.12700000000E+01 0. -1.
         25    2    1    2    0    0  0.00000000000E+00  0.00000000000E+00 -0.32912210456E+03  0.35206033327E+03  0.12500047423E+03 0.  0.
    9000005    1    3    3    0    0 -0.56509177779E+02 -0.26411902560E+02 -0.17525024787E+03  0.18602291565E+03  0.10000000000E+01 0.  0.
    9000005    1    3    3    0    0  0.56509177779E+02  0.26411902560E+02 -0.15387185669E+03  0.16603741762E+03  0.10000000000E+01 0.  0.
<mgrwt>
<rscale>  0 0.12500047E+03</rscale>
<asrwt>0</asrwt>
<pdfrwt beam="2">  1        4 0.52398641E-01 0.12500047E+03</pdfrwt>
<pdfrwt beam="1">  1       -4 0.17644794E-02 0.12500047E+03</pdfrwt>
<totfact> 0.69497761E+03</totfact>
</mgrwt>
</event>
<event>
 5    1  0.3487578E-002  0.1249996E+03  0.7818608E-02  0.1235070E+00
         -4   -1    0    0    0  501 -0.00000000000E+00  0.00000000000E+00  0.72395869823E+02  0.72407008414E+02  0.12700000000E+01 0.  1.
          4   -1    0    0  501    0  0.00000000000E+00 -0.00000000000E+00 -0.53933702150E+02  0.53948652695E+02  0.12700000000E+01 0.  1.
         25    2    1    2    0    0  0.00000000000E+00  0.00000000000E+00  0.18462167673E+02  0.12635566111E+03  0.12499960584E+03 0.  0.
    9000005    1    3    3    0    0  0.30421542259E+02  0.43346000062E+02  0.42770533749E+02  0.68078370368E+02  0.10000000000E+01 0.  0.
    9000005    1    3    3    0    0 -0.30421542259E+02 -0.43346000062E+02 -0.24308366077E+02  0.58277290741E+02  0.10000000000E+01 0.  0.
<mgrwt>
<rscale>  0 0.12499961E+03</rscale>
<asrwt>0</asrwt>
<pdfrwt beam="2">  1        4 0.82994995E-02 0.12499961E+03</pdfrwt>
<pdfrwt beam="1">  1       -4 0.11139833E-01 0.12499961E+03</pdfrwt>
<totfact> 0.10423270E+04</totfact>
</mgrwt>
</event>
<event>
 5    1  0.3487578E-002  0.1250010E+03  0.7818608E-02  0.1235068E+00
          4   -1    0    0  501    0  0.00000000000E+00  0.00000000000E+00  0.11052939617E+04  0.11052946913E+04  0.12700000000E+01 0. -1.
         -4   -1    0    0    0  501 -0.00000000000E+00 -0.00000000000E+00 -0.34193393872E+01  0.36475720479E+01  0.12700000000E+01 0. -1.
         25    2    1    2    0    0  0.00000000000E+00  0.00000000000E+00  0.11018746223E+04  0.11089422633E+04  0.12500104078E+03 0.  0.
    9000005    1    3    3    0    0 -0.35396035757E+02  0.43437079037E+02  0.79641504958E+03  0.79838436256E+03  0.10000000000E+01 0.  0.
    9000005    1    3    3    0    0  0.35396035757E+02 -0.43437079037E+02  0.30545957269E+03  0.31055790077E+03  0.10000000000E+01 0.  0.
<mgrwt>
<rscale>  0 0.12500104E+03</rscale>
<asrwt>0</asrwt>
<pdfrwt beam="1">  1        4 0.17006294E+00 0.12500104E+03</pdfrwt>
<pdfrwt beam="2">  1       -4 0.54366435E-03 0.12500104E+03</pdfrwt>
<totfact> 0.27222505E+03</totfact>
</mgrwt>
</event>
<event>
 5    1  0.3487578E-002  0.1250009E+03  0.7818608E-02  0.1235068E+00
          4   -1    0    0  501    0  0.00000000000E+00  0.00000000000E+00  0.43135432655E+01  0.44966160058E+01  0.12700000000E+01 0. -1.
         -4   -1    0    0    0  501 -0.00000000000E+00 -0.00000000000E+00 -0.88658904230E+03  0.88658995191E+03  0.12700000000E+01 0. -1.
         25    2    1    2    0    0  0.00000000000E+00  0.00000000000E+00 -0.88227549903E+03  0.89108656791E+03  0.12500086129E+03 0.  0.
    9000005    1    3    3    0    0  0.23594347299E+02  0.41976268582E+02 -0.72508723976E+03  0.72668508008E+03  0.10000000000E+01 0.  0.
    9000005    1    3    3    0    0 -0.23594347299E+02 -0.41976268582E+02 -0.15718825927E+03  0.16440148783E+03  0.10000000000E+01 0.  0.
<mgrwt>
<rscale>  0 0.12500086E+03</rscale>
<asrwt>0</asrwt>
<pdfrwt beam="1">  1        4 0.67777523E-03 0.12500086E+03</pdfrwt>
<pdfrwt beam="2">  1       -4 0.13641232E+00 0.12500086E+03</pdfrwt>
<totfact> 0.34501745E+03</totfact>
</mgrwt>
</event>
<event>
 5    1  0.3487578E-002  0.1250050E+03  0.7818608E-02  0.1235061E+00
          4   -1    0    0  501    0  0.00000000000E+00  0.00000000000E+00  0.70286674677E+02  0.70298147466E+02  0.12700000000E+01 0. -1.
         -4   -1    0    0    0  501 -0.00000000000E+00 -0.00000000000E+00 -0.55557139724E+02  0.55571653515E+02  0.12700000000E+01 0. -1.
         25    2    1    2    0    0  0.00000000000E+00  0.00000000000E+00  0.14729534953E+02  0.12586980098E+03  0.12500499030E+03 0.  0.
    9000005    1    3    3    0    0  0.61081303890E+02  0.12005720453E+02  0.12925553968E+02  0.63585634807E+02  0.10000000000E+01 0.  0.
    9000005    1    3    3    0    0 -0.61081303890E+02 -0.12005720453E+02  0.18039809841E+01  0.62284166173E+02  0.10000000000E+01 0.  0.
<mgrwt>
<rscale>  0 0.12500499E+03</rscale>
<asrwt>0</asrwt>
<pdfrwt beam="1">  1        4 0.10815334E-01 0.12500499E+03</pdfrwt>
<pdfrwt beam="2">  1       -4 0.85492512E-02 0.12500499E+03</pdfrwt>
<totfact> 0.10432638E+04</totfact>
</mgrwt>
</event>
<event>
 5    1  0.3487578E-002  0.1249999E+03  0.7818608E-02  0.1235069E+00
          4   -1    0    0  501    0  0.00000000000E+00  0.00000000000E+00  0.55357840639E+02  0.55372406668E+02  0.12700000000E+01 0. -1.
         -4   -1    0    0    0  501 -0.00000000000E+00 -0.00000000000E+00 -0.70533960816E+02  0.70545393389E+02  0.12700000000E+01 0. -1.
         25    2    1    2    0    0  0.00000000000E+00  0.00000000000E+00 -0.15176120177E+02  0.12591780006E+03  0.12499991099E+03 0.  0.
    9000005    1    3    3    0    0  0.32613976604E+01 -0.62380767239E+02 -0.94034033080E+01  0.63177692501E+02  0.10000000000E+01 0.  0.
    9000005    1    3    3    0    0 -0.32613976604E+01  0.62380767239E+02 -0.57727168692E+01  0.62740107556E+02  0.10000000000E+01 0.  0.
<mgrwt>
<rscale>  0 0.12499991E+03</rscale>
<asrwt>0</asrwt>
<pdfrwt beam="1">  1        4 0.85185907E-02 0.12499991E+03</pdfrwt>
<pdfrwt beam="2">  1       -4 0.10853379E-01 0.12499991E+03</pdfrwt>
<totfact> 0.10432780E+04</totfact>
</mgrwt>
</event>
<event>
 5    1  0.3487578E-002  0.1250077E+03  0.7818608E-02  0.1235057E+00
          4   -1    0    0  501    0  0.00000000000E+00  0.00000000000E+00  0.16466400081E+02  0.16515302953E+02  0.12700000000E+01 0. -1.
         -4   -1    0    0    0  501 -0.00000000000E+00 -0.00000000000E+00 -0.23685231535E+03  0.23685572019E+03  0.12700000000E+01 0. -1.
         25    2    1    2    0    0  0.00000000000E+00  0.00000000000E+00 -0.22038591527E+03  0.25337102314E+03  0.12500769464E+03 0.  0.
    9000005    1    3    3    0    0 -0.43718132495E+02 -0.28604045869E+01 -0.19861344117E+02  0.48113719597E+02  0.10000000000E+01 0.  0.
    9000005    1    3    3    0    0  0.43718132495E+02  0.28604045869E+01 -0.20052457115E+03  0.20525730355E+03  0.10000000000E+01 0.  0.
<mgrwt>
<rscale>  0 0.12500769E+03</rscale>
<asrwt>0</asrwt>
<pdfrwt beam="1">  1        4 0.25373162E-02 0.12500769E+03</pdfrwt>
<pdfrwt beam="2">  1       -4 0.36442839E-01 0.12500769E+03</pdfrwt>
<totfact> 0.81831416E+03</totfact>
</mgrwt>
</event>
<event>
 5    1  0.3487578E-002  0.1250022E+03  0.7818608E-02  0.1235066E+00
          4   -1    0    0  501    0  0.00000000000E+00  0.00000000000E+00  0.29294928820E+03  0.29295204106E+03  0.12700000000E+01 0.  1.
         -4   -1    0    0    0  501 -0.00000000000E+00 -0.00000000000E+00 -0.13301618855E+02  0.13362109271E+02  0.12700000000E+01 0.  1.
         25    2    1    2    0    0  0.00000000000E+00  0.00000000000E+00  0.27964766935E+03  0.30631415033E+03  0.12500215885E+03 0.  0.
    9000005    1    3    3    0    0 -0.35304106847E+02  0.92501362038E+01  0.15513691854E+02  0.39668874638E+02  0.10000000000E+01 0.  0.
    9000005    1    3    3    0    0  0.35304106847E+02 -0.92501362038E+01  0.26413397750E+03  0.26664527569E+03  0.10000000000E+01 0.  0.
<mgrwt>
<rscale>  0 0.12500216E+03</rscale>
<asrwt>0</asrwt>
<pdfrwt beam="1">  1        4 0.45073985E-01 0.12500216E+03</pdfrwt>
<pdfrwt beam="2">  1       -4 0.20512678E-02 0.12500216E+03</pdfrwt>
<totfact> 0.74809984E+03</totfact>
</mgrwt>
</event>
<event>
 5    1  0.3487578E-002  0.1249916E+03  0.7818608E-02  0.1235082E+00
          4   -1    0    0  501    0  0.00000000000E+00  0.00000000000E+00  0.19163545357E+03  0.19163966177E+03  0.12700000000E+01 0. -1.
         -4   -1    0    0    0  501 -0.00000000000E+00 -0.00000000000E+00 -0.20356802387E+02  0.20396379664E+02  0.12700000000E+01 0. -1.
         25    2    1    2    0    0  0.00000000000E+00  0.00000000000E+00  0.17127865118E+03  0.21203604143E+03  0.12499162579E+03 0.  0.
    9000005    1    3    3    0    0 -0.42068097191E+02  0.39296189340E+02  0.12687310837E+03  0.13932588031E+03  0.10000000000E+01 0.  0.
    9000005    1    3    3    0    0  0.42068097191E+02 -0.39296189340E+02  0.44405542809E+02  0.72710161120E+02  0.10000000000E+01 0.  0.
<mgrwt>
<rscale>  0 0.12499163E+03</rscale>
<asrwt>0</asrwt>
<pdfrwt beam="1">  1        4 0.29485744E-01 0.12499163E+03</pdfrwt>
<pdfrwt beam="2">  1       -4 0.31351840E-02 0.12499163E+03</pdfrwt>
<totfact> 0.88160947E+03</totfact>
</mgrwt>
</event>
<event>
 5    1  0.3487578E-002  0.1250080E+03  0.7818608E-02  0.1235057E+00
          4   -1    0    0  501    0  0.00000000000E+00  0.00000000000E+00  0.20026975246E+03  0.20027377924E+03  0.12700000000E+01 0.  1.
         -4   -1    0    0    0  501 -0.00000000000E+00 -0.00000000000E+00 -0.19482538139E+02  0.19523887736E+02  0.12700000000E+01 0.  1.
         25    2    1    2    0    0  0.00000000000E+00  0.00000000000E+00  0.18078721433E+03  0.21979766698E+03  0.12500798993E+03 0.  0.
    9000005    1    3    3    0    0 -0.60239913759E+02 -0.13009052955E+02  0.10863785837E+03  0.12490503169E+03  0.10000000000E+01 0.  0.
    9000005    1    3    3    0    0  0.60239913759E+02  0.13009052955E+02  0.72149355951E+02  0.94892635292E+02  0.10000000000E+01 0.  0.
<mgrwt>
<rscale>  0 0.12500799E+03</rscale>
<asrwt>0</asrwt>
<pdfrwt beam="1">  1        4 0.30814223E-01 0.12500799E+03</pdfrwt>
<pdfrwt beam="2">  1       -4 0.30008039E-02 0.12500799E+03</pdfrwt>
<totfact> 0.86884867E+03</totfact>
</mgrwt>
</event>
<event>
 5    1  0.3487578E-002  0.1250086E+03  0.7818608E-02  0.1235056E+00
         -4   -1    0    0    0  501 -0.00000000000E+00  0.00000000000E+00  0.19400627443E+03  0.19401043121E+03  0.12700000000E+01 0.  1.
          4   -1    0    0  501    0  0.00000000000E+00 -0.00000000000E+00 -0.20113031600E+02  0.20153087609E+02  0.12700000000E+01 0.  1.
         25    2    1    2    0    0  0.00000000000E+00  0.00000000000E+00  0.17389324283E+03  0.21416351882E+03  0.12500861127E+03 0.  0.
    9000005    1    3    3    0    0  0.14769018675E+01 -0.23519856138E+02 -0.12217691420E+02  0.26563826071E+02  0.10000000000E+01 0.  0.
    9000005    1    3    3    0    0 -0.14769018675E+01  0.23519856138E+02  0.18611093425E+03  0.18759969275E+03  0.10000000000E+01 0.  0.
<mgrwt>
<rscale>  0 0.12500861E+03</rscale>
<asrwt>0</asrwt>
<pdfrwt beam="2">  1        4 0.30977136E-02 0.12500861E+03</pdfrwt>
<pdfrwt beam="1">  1       -4 0.29850520E-01 0.12500861E+03</pdfrwt>
<totfact> 0.87783511E+03</totfact>
</mgrwt>
</event>
<event>
 5    1  0.3487578E-002  0.1250002E+03  0.7818608E-02  0.1235069E+00
          4   -1    0    0  501    0  0.00000000000E+00  0.00000000000E+00  0.47547133428E+02  0.47564091469E+02  0.12700000000E+01 0. -1.
         -4   -1    0    0    0  501 -0.00000000000E+00 -0.00000000000E+00 -0.82119105111E+02  0.82128925016E+02  0.12700000000E+01 0. -1.
         25    2    1    2    0    0  0.00000000000E+00  0.00000000000E+00 -0.34571971683E+02  0.12969301648E+03  0.12500022920E+03 0.  0.
    9000005    1    3    3    0    0 -0.89773087738E+01 -0.61736617204E+02 -0.13507515706E+02  0.63839290074E+02  0.10000000000E+01 0.  0.
    9000005    1    3    3    0    0  0.89773087738E+01  0.61736617204E+02 -0.21064455976E+02  0.65853726411E+02  0.10000000000E+01 0.  0.
<mgrwt>
<rscale>  0 0.12500023E+03</rscale>
<asrwt>0</asrwt>
<pdfrwt beam="1">  1        4 0.73170034E-02 0.12500023E+03</pdfrwt>
<pdfrwt beam="2">  1       -4 0.12635768E-01 0.12500023E+03</pdfrwt>
<totfact> 0.10351025E+04</totfact>
</mgrwt>
</event>
<event>
 5    1  0.3487578E-002  0.1250037E+03  0.7818608E-02  0.1235064E+00
         -4   -1    0    0    0  501 -0.00000000000E+00  0.00000000000E+00  0.13900914589E+02  0.13958808201E+02  0.12700000000E+01 0. -1.
          4   -1    0    0  501    0  0.00000000000E+00 -0.00000000000E+00 -0.28037983452E+03  0.28038271078E+03  0.12700000000E+01 0. -1.
         25    2    1    2    0    0  0.00000000000E+00  0.00000000000E+00 -0.26647891993E+03  0.29434151898E+03  0.12500366006E+03 0.  0.
    9000005    1    3    3    0    0 -0.38089785949E+02 -0.27941635152E+02 -0.22957690129E+03  0.23438882306E+03  0.10000000000E+01 0.  0.
    9000005    1    3    3    0    0  0.38089785949E+02  0.27941635152E+02 -0.36902018635E+02  0.59952695919E+02  0.10000000000E+01 0.  0.
<mgrwt>
<rscale>  0 0.12500366E+03</rscale>
<asrwt>0</asrwt>
<pdfrwt beam="2">  1        4 0.43140030E-01 0.12500366E+03</pdfrwt>
<pdfrwt beam="1">  1       -4 0.21432770E-02 0.12500366E+03</pdfrwt>
<totfact> 0.76307954E+03</totfact>
</mgrwt>
</event>
<event>
 5    1  0.3487578E-002  0.1249930E+03  0.7818608E-02  0.1235080E+00
          4   -1    0    0  501    0  0.00000000000E+00  0.00000000000E+00  0.10813885753E+02  0.10888205779E+02  0.12700000000E+01 0.  1.
         -4   -1    0    0    0  501 -0.00000000000E+00 -0.00000000000E+00 -0.35987258510E+03  0.35987482603E+03  0.12700000000E+01 0.  1.
         25    2    1    2    0    0  0.00000000000E+00  0.00000000000E+00 -0.34905869935E+03  0.37076303181E+03  0.12499300046E+03 0.  0.
    9000005    1    3    3    0    0  0.60992760998E+01  0.60638268687E+02 -0.21548233419E+03  0.22393712766E+03  0.10000000000E+01 0.  0.
    9000005    1    3    3    0    0 -0.60992760998E+01 -0.60638268687E+02 -0.13357636516E+03  0.14682590414E+03  0.10000000000E+01 0.  0.
<mgrwt>
<rscale>  0 0.12499300E+03</rscale>
<asrwt>0</asrwt>
<pdfrwt beam="1">  1        4 0.16695643E-02 0.12499300E+03</pdfrwt>
<pdfrwt beam="2">  1       -4 0.55370893E-01 0.12499300E+03</pdfrwt>
<totfact> 0.67509635E+03</totfact>
</mgrwt>
</event>
<event>
 5    1  0.3487578E-002  0.1250008E+03  0.7818608E-02  0.1235068E+00
          4   -1    0    0  501    0  0.00000000000E+00  0.00000000000E+00  0.56075158118E+02  0.56089537865E+02  0.12700000000E+01 0.  1.
         -4   -1    0    0    0  501 -0.00000000000E+00 -0.00000000000E+00 -0.69632783739E+02  0.69644364246E+02  0.12700000000E+01 0.  1.
         25    2    1    2    0    0  0.00000000000E+00  0.00000000000E+00 -0.13557625621E+02  0.12573390211E+03  0.12500081971E+03 0.  0.
    9000005    1    3    3    0    0 -0.14291530066E+02  0.30957407334E+02 -0.59456667397E+02  0.68547094748E+02  0.10000000000E+01 0.  0.
    9000005    1    3    3    0    0  0.14291530066E+02 -0.30957407334E+02  0.45899041775E+02  0.57186807363E+02  0.10000000000E+01 0.  0.
<mgrwt>
<rscale>  0 0.12500082E+03</rscale>
<asrwt>0</asrwt>
<pdfrwt beam="1">  1        4 0.86289444E-02 0.12500082E+03</pdfrwt>
<pdfrwt beam="2">  1       -4 0.10714733E-01 0.12500082E+03</pdfrwt>
<totfact> 0.10436605E+04</totfact>
</mgrwt>
</event>
<event>
 5    1  0.3487578E-002  0.1250446E+03  0.7818608E-02  0.1235000E+00
          4   -1    0    0  501    0  0.00000000000E+00  0.00000000000E+00  0.26726264433E+02  0.26756421856E+02  0.12700000000E+01 0.  1.
         -4   -1    0    0    0  501 -0.00000000000E+00 -0.00000000000E+00 -0.14614666840E+03  0.14615218638E+03  0.12700000000E+01 0.  1.
         25    2    1    2    0    0  0.00000000000E+00  0.00000000000E+00 -0.11942040397E+03  0.17290860824E+03  0.12504460772E+03 0.  0.
    9000005    1    3    3    0    0  0.16054053829E+02 -0.20840844406E+02  0.18706271263E+02  0.32295479939E+02  0.10000000000E+01 0.  0.
    9000005    1    3    3    0    0 -0.16054053829E+02  0.20840844406E+02 -0.13812667523E+03  0.14061312830E+03  0.10000000000E+01 0.  0.
<mgrwt>
<rscale>  0 0.12504461E+03</rscale>
<asrwt>0</asrwt>
<pdfrwt beam="1">  1        4 0.41144773E-02 0.12504461E+03</pdfrwt>
<pdfrwt beam="2">  1       -4 0.22486847E-01 0.12504461E+03</pdfrwt>
<totfact> 0.94814342E+03</totfact>
</mgrwt>
</event>
<event>
 5    1  0.3487578E-002  0.1250004E+03  0.7818608E-02  0.1235069E+00
          4   -1    0    0  501    0  0.00000000000E+00  0.00000000000E+00  0.81229454799E+01  0.82216265587E+01  0.12700000000E+01 0.  1.
         -4   -1    0    0    0  501 -0.00000000000E+00 -0.00000000000E+00 -0.47789128431E+03  0.47789297182E+03  0.12700000000E+01 0.  1.
         25    2    1    2    0    0  0.00000000000E+00  0.00000000000E+00 -0.46976833883E+03  0.48611459838E+03  0.12500044238E+03 0.  0.
    9000005    1    3    3    0    0  0.21840272843E+02  0.26355552742E+02 -0.31554966886E+02  0.46565315562E+02  0.10000000000E+01 0.  0.
    9000005    1    3    3    0    0 -0.21840272843E+02 -0.26355552742E+02 -0.43821337194E+03  0.43954928282E+03  0.10000000000E+01 0.  0.
<mgrwt>
<rscale>  0 0.12500044E+03</rscale>
<asrwt>0</asrwt>
<pdfrwt beam="1">  1        4 0.12574050E-02 0.12500044E+03</pdfrwt>
<pdfrwt beam="2">  1       -4 0.73529435E-01 0.12500044E+03</pdfrwt>
<totfact> 0.56957485E+03</totfact>
</mgrwt>
</event>
<event>
 5    1  0.3487578E-002  0.1250002E+03  0.7818608E-02  0.1235069E+00
         -4   -1    0    0    0  501 -0.00000000000E+00  0.00000000000E+00  0.43324585609E+03  0.43324771750E+03  0.12700000000E+01 0. -1.
          4   -1    0    0  501    0  0.00000000000E+00 -0.00000000000E+00 -0.89696577637E+01  0.90591202883E+01  0.12700000000E+01 0. -1.
         25    2    1    2    0    0  0.00000000000E+00  0.00000000000E+00  0.42427619832E+03  0.44230683779E+03  0.12500018515E+03 0.  0.
    9000005    1    3    3    0    0  0.12694710464E+02  0.38388841082E+02  0.38074077072E+03  0.38288300208E+03  0.10000000000E+01 0.  0.
    9000005    1    3    3    0    0 -0.12694710464E+02 -0.38388841082E+02  0.43535427605E+02  0.59423835707E+02  0.10000000000E+01 0.  0.
<mgrwt>
<rscale>  0 0.12500019E+03</rscale>
<asrwt>0</asrwt>
<pdfrwt beam="2">  1        4 0.13869723E-02 0.12500019E+03</pdfrwt>
<pdfrwt beam="1">  1       -4 0.66660233E-01 0.12500019E+03</pdfrwt>
<totfact> 0.60635827E+03</totfact>
</mgrwt>
</event>
<event>
 5    1  0.3487578E-002  0.1249955E+03  0.7818608E-02  0.1235076E+00
          4   -1    0    0  501    0  0.00000000000E+00  0.00000000000E+00  0.27101176129E+01  0.29929312514E+01  0.12700000000E+01 0. -1.
         -4   -1    0    0    0  501 -0.00000000000E+00 -0.00000000000E+00 -0.13695003548E+04  0.13695009436E+04  0.12700000000E+01 0. -1.
         25    2    1    2    0    0  0.00000000000E+00  0.00000000000E+00 -0.13667902372E+04  0.13724938749E+04  0.12499553676E+03 0.  0.
    9000005    1    3    3    0    0 -0.46818143638E+02 -0.40841526570E+02 -0.75705528858E+03  0.75960099976E+03  0.10000000000E+01 0.  0.
    9000005    1    3    3    0    0  0.46818143638E+02  0.40841526570E+02 -0.60973494859E+03  0.61289287514E+03  0.10000000000E+01 0.  0.
<mgrwt>
<rscale>  0 0.12499554E+03</rscale>
<asrwt>0</asrwt>
<pdfrwt beam="1">  1        4 0.43874246E-03 0.12499554E+03</pdfrwt>
<pdfrwt beam="2">  1       -4 0.21071364E+00 0.12499554E+03</pdfrwt>
<totfact> 0.20581054E+03</totfact>
</mgrwt>
</event>
<event>
 5    1  0.3487578E-002  0.1250009E+03  0.7818608E-02  0.1235068E+00
         -4   -1    0    0    0  501 -0.00000000000E+00  0.00000000000E+00  0.16540208428E+03  0.16540695990E+03  0.12700000000E+01 0. -1.
          4   -1    0    0  501    0  0.00000000000E+00 -0.00000000000E+00 -0.23594744509E+02  0.23628899010E+02  0.12700000000E+01 0. -1.
         25    2    1    2    0    0  0.00000000000E+00  0.00000000000E+00  0.14180733977E+03  0.18903585891E+03  0.12500093736E+03 0.  0.
    9000005    1    3    3    0    0 -0.14709368899E+02  0.31995890464E+02  0.14897585236E+03  0.15308464040E+03  0.10000000000E+01 0.  0.
    9000005    1    3    3    0    0  0.14709368899E+02 -0.31995890464E+02 -0.71685125865E+01  0.35951218515E+02  0.10000000000E+01 0.  0.
<mgrwt>
<rscale>  0 0.12500094E+03</rscale>
<asrwt>0</asrwt>
<pdfrwt beam="2">  1        4 0.36329631E-02 0.12500094E+03</pdfrwt>
<pdfrwt beam="1">  1       -4 0.25449476E-01 0.12500094E+03</pdfrwt>
<totfact> 0.92013411E+03</totfact>
</mgrwt>
</event>
<event>
 5    1  0.3487578E-002  0.1249995E+03  0.7818608E-02  0.1235070E+00
          4   -1    0    0  501    0  0.00000000000E+00  0.00000000000E+00  0.67458811554E+02  0.67470765198E+02  0.12700000000E+01 0.  1.
         -4   -1    0    0    0  501 -0.00000000000E+00 -0.00000000000E+00 -0.57881213171E+02  0.57895144340E+02  0.12700000000E+01 0.  1.
         25    2    1    2    0    0  0.00000000000E+00  0.00000000000E+00  0.95775983839E+01  0.12536590954E+03  0.12499952353E+03 0.  0.
    9000005    1    3    3    0    0  0.22390667034E+02 -0.32974594450E+02  0.53060471787E+02  0.66370773053E+02  0.10000000000E+01 0.  0.
    9000005    1    3    3    0    0 -0.22390667034E+02  0.32974594450E+02 -0.43482873403E+02  0.58995136484E+02  0.10000000000E+01 0.  0.
<mgrwt>
<rscale>  0 0.12499952E+03</rscale>
<asrwt>0</asrwt>
<pdfrwt beam="1">  1        4 0.10380270E-01 0.12499952E+03</pdfrwt>
<pdfrwt beam="2">  1       -4 0.89067932E-02 0.12499952E+03</pdfrwt>
<totfact> 0.10445033E+04</totfact>
</mgrwt>
</event>
<event>
 5    1  0.3487578E-002  0.1249988E+03  0.7818608E-02  0.1235071E+00
          4   -1    0    0  501    0  0.00000000000E+00  0.00000000000E+00  0.11030617887E+02  0.11103487334E+02  0.12700000000E+01 0.  1.
         -4   -1    0    0    0  501 -0.00000000000E+00 -0.00000000000E+00 -0.35288137775E+03  0.35288366307E+03  0.12700000000E+01 0.  1.
         25    2    1    2    0    0  0.00000000000E+00  0.00000000000E+00 -0.34185075986E+03  0.36398715041E+03  0.12499881456E+03 0.  0.
    9000005    1    3    3    0    0  0.23450580914E+02 -0.30811574356E+02 -0.28095748065E+02  0.47850328305E+02  0.10000000000E+01 0.  0.
    9000005    1    3    3    0    0 -0.23450580914E+02  0.30811574356E+02 -0.31375501180E+03  0.31613682210E+03  0.10000000000E+01 0.  0.
<mgrwt>
<rscale>  0 0.12499881E+03</rscale>
<asrwt>0</asrwt>
<pdfrwt beam="1">  1        4 0.17027995E-02 0.12499881E+03</pdfrwt>
<pdfrwt beam="2">  1       -4 0.54295215E-01 0.12499881E+03</pdfrwt>
<totfact> 0.68214512E+03</totfact>
</mgrwt>
</event>
<event>
 5    1  0.3487578E-002  0.1250019E+03  0.7818608E-02  0.1235066E+00
         -4   -1    0    0    0  501 -0.00000000000E+00  0.00000000000E+00  0.77640731577E+01  0.78672569551E+01  0.12700000000E+01 0.  1.
          4   -1    0    0  501    0  0.00000000000E+00 -0.00000000000E+00 -0.49970889686E+03  0.49971051070E+03  0.12700000000E+01 0.  1.
         25    2    1    2    0    0  0.00000000000E+00  0.00000000000E+00 -0.49194482371E+03  0.50757776766E+03  0.12500192257E+03 0.  0.
    9000005    1    3    3    0    0 -0.19789050293E+02 -0.56175035372E+02 -0.32281565304E+03  0.32826542151E+03  0.10000000000E+01 0.  0.
    9000005    1    3    3    0    0  0.19789050293E+02  0.56175035372E+02 -0.16912917066E+03  0.17931234614E+03  0.10000000000E+01 0.  0.
<mgrwt>
<rscale>  0 0.12500192E+03</rscale>
<asrwt>0</asrwt>
<pdfrwt beam="2">  1        4 0.76886328E-01 0.12500192E+03</pdfrwt>
<pdfrwt beam="1">  1       -4 0.12025345E-02 0.12500192E+03</pdfrwt>
<totfact> 0.55278856E+03</totfact>
</mgrwt>
</event>
<event>
 5    1  0.3487578E-002  0.1249889E+03  0.7818608E-02  0.1235087E+00
         -4   -1    0    0    0  501 -0.00000000000E+00  0.00000000000E+00  0.20259414169E+02  0.20299181326E+02  0.12700000000E+01 0. -1.
          4   -1    0    0  501    0  0.00000000000E+00 -0.00000000000E+00 -0.19254636124E+03  0.19255054954E+03  0.12700000000E+01 0. -1.
         25    2    1    2    0    0  0.00000000000E+00  0.00000000000E+00 -0.17228694707E+03  0.21284973086E+03  0.12498886269E+03 0.  0.
    9000005    1    3    3    0    0  0.47856210919E+02 -0.20956307640E+02 -0.27765075499E+02  0.59171641611E+02  0.10000000000E+01 0.  0.
    9000005    1    3    3    0    0 -0.47856210919E+02  0.20956307640E+02 -0.14452187157E+03  0.15367808925E+03  0.10000000000E+01 0.  0.
<mgrwt>
<rscale>  0 0.12498886E+03</rscale>
<asrwt>0</asrwt>
<pdfrwt beam="2">  1        4 0.29625897E-01 0.12498886E+03</pdfrwt>
<pdfrwt beam="1">  1       -4 0.31202143E-02 0.12498886E+03</pdfrwt>
<totfact> 0.88034500E+03</totfact>
</mgrwt>
</event>
<event>
 5    1  0.3487578E-002  0.1250007E+03  0.7818608E-02  0.1235068E+00
          4   -1    0    0  501    0  0.00000000000E+00  0.00000000000E+00  0.54891912178E+02  0.54906601813E+02  0.12700000000E+01 0.  1.
         -4   -1    0    0    0  501 -0.00000000000E+00 -0.00000000000E+00 -0.71133520771E+02  0.71144856998E+02  0.12700000000E+01 0.  1.
         25    2    1    2    0    0  0.00000000000E+00  0.00000000000E+00 -0.16241608593E+02  0.12605145881E+03  0.12500072167E+03 0.  0.
    9000005    1    3    3    0    0  0.42104537415E+01  0.46049467529E+02 -0.50510013749E+02  0.68487538059E+02  0.10000000000E+01 0.  0.
    9000005    1    3    3    0    0 -0.42104537415E+01 -0.46049467529E+02  0.34268405157E+02  0.57563920752E+02  0.10000000000E+01 0.  0.
<mgrwt>
<rscale>  0 0.12500072E+03</rscale>
<asrwt>0</asrwt>
<pdfrwt beam="1">  1        4 0.84469115E-02 0.12500072E+03</pdfrwt>
<pdfrwt beam="2">  1       -4 0.10945621E-01 0.12500072E+03</pdfrwt>
<totfact> 0.10429660E+04</totfact>
</mgrwt>
</event>
<event>
 5    1  0.3487578E-002  0.1249982E+03  0.7818608E-02  0.1235072E+00
          4   -1    0    0  501    0  0.00000000000E+00  0.00000000000E+00  0.36620047934E+03  0.36620268154E+03  0.12700000000E+01 0. -1.
         -4   -1    0    0    0  501 -0.00000000000E+00 -0.00000000000E+00 -0.10626622439E+02  0.10702242964E+02  0.12700000000E+01 0. -1.
         25    2    1    2    0    0  0.00000000000E+00  0.00000000000E+00  0.35557385690E+03  0.37690492451E+03  0.12499821761E+03 0.  0.
    9000005    1    3    3    0    0  0.19608977272E+02 -0.58172733239E+02  0.21302314735E+03  0.22169447487E+03  0.10000000000E+01 0.  0.
    9000005    1    3    3    0    0 -0.19608977272E+02  0.58172733239E+02  0.14255070955E+03  0.15521044963E+03  0.10000000000E+01 0.  0.
<mgrwt>
<rscale>  0 0.12499822E+03</rscale>
<asrwt>0</asrwt>
<pdfrwt beam="1">  1        4 0.56344525E-01 0.12499822E+03</pdfrwt>
<pdfrwt beam="2">  1       -4 0.16408513E-02 0.12499822E+03</pdfrwt>
<totfact> 0.66865317E+03</totfact>
</mgrwt>
</event>
<event>
 5    1  0.3487578E-002  0.1249994E+03  0.7818608E-02  0.1235070E+00
          4   -1    0    0  501    0  0.00000000000E+00  0.00000000000E+00  0.42102117039E+02  0.42121267302E+02  0.12700000000E+01 0. -1.
         -4   -1    0    0    0  501 -0.00000000000E+00 -0.00000000000E+00 -0.92734894565E+02  0.92743590452E+02  0.12700000000E+01 0. -1.
         25    2    1    2    0    0  0.00000000000E+00  0.00000000000E+00 -0.50632777526E+02  0.13486485775E+03  0.12499940679E+03 0.  0.
    9000005    1    3    3    0    0  0.35939729728E+02 -0.77677526075E+01  0.29200891352E+02  0.46964818846E+02  0.10000000000E+01 0.  0.
    9000005    1    3    3    0    0 -0.35939729728E+02  0.77677526075E+01 -0.79833668878E+02  0.87900038908E+02  0.10000000000E+01 0.  0.
<mgrwt>
<rscale>  0 0.12499941E+03</rscale>
<asrwt>0</asrwt>
<pdfrwt beam="1">  1        4 0.64793908E-02 0.12499941E+03</pdfrwt>
<pdfrwt beam="2">  1       -4 0.14269049E-01 0.12499941E+03</pdfrwt>
<totfact> 0.10241057E+04</totfact>
</mgrwt>
</event>
<event>
 5    1  0.3487578E-002  0.1249996E+03  0.7818608E-02  0.1235070E+00
         -4   -1    0    0    0  501 -0.00000000000E+00  0.00000000000E+00  0.11717220407E+02  0.11785845496E+02  0.12700000000E+01 0.  1.
          4   -1    0    0  501    0  0.00000000000E+00 -0.00000000000E+00 -0.33233157006E+03  0.33233399669E+03  0.12700000000E+01 0.  1.
         25    2    1    2    0    0  0.00000000000E+00  0.00000000000E+00 -0.32061434965E+03  0.34411984219E+03  0.12499961834E+03 0.  0.
    9000005    1    3    3    0    0  0.51434900768E+01  0.61662302050E+02 -0.13622364267E+03  0.14962144166E+03  0.10000000000E+01 0.  0.
    9000005    1    3    3    0    0 -0.51434900768E+01 -0.61662302050E+02 -0.18439070699E+03  0.19449840053E+03  0.10000000000E+01 0.  0.
<mgrwt>
<rscale>  0 0.12499962E+03</rscale>
<asrwt>0</asrwt>
<pdfrwt beam="2">  1        4 0.51133392E-01 0.12499962E+03</pdfrwt>
<pdfrwt beam="1">  1       -4 0.18081151E-02 0.12499962E+03</pdfrwt>
<totfact> 0.70376924E+03</totfact>
</mgrwt>
</event>
<event>
 5    1  0.3487578E-002  0.1250003E+03  0.7818608E-02  0.1235069E+00
         -4   -1    0    0    0  501 -0.00000000000E+00  0.00000000000E+00  0.15091453541E+03  0.15091987907E+03  0.12700000000E+01 0.  1.
          4   -1    0    0  501    0  0.00000000000E+00 -0.00000000000E+00 -0.25862590332E+02  0.25893753662E+02  0.12700000000E+01 0.  1.
         25    2    1    2    0    0  0.00000000000E+00  0.00000000000E+00  0.12505194508E+03  0.17681363273E+03  0.12500028701E+03 0.  0.
    9000005    1    3    3    0    0 -0.46432819079E+02  0.40780233873E+02  0.49390568456E+02  0.79116764436E+02  0.10000000000E+01 0.  0.
    9000005    1    3    3    0    0  0.46432819079E+02 -0.40780233873E+02  0.75661376625E+02  0.97696868298E+02  0.10000000000E+01 0.  0.
<mgrwt>
<rscale>  0 0.12500029E+03</rscale>
<asrwt>0</asrwt>
<pdfrwt beam="2">  1        4 0.39816683E-02 0.12500029E+03</pdfrwt>
<pdfrwt beam="1">  1       -4 0.23220429E-01 0.12500029E+03</pdfrwt>
<totfact> 0.94193118E+03</totfact>
</mgrwt>
</event>
<event>
 5    1  0.3487578E-002  0.1250000E+03  0.7818608E-02  0.1235069E+00
         -4   -1    0    0    0  501 -0.00000000000E+00  0.00000000000E+00  0.52176236111E+02  0.52191690092E+02  0.12700000000E+01 0. -1.
          4   -1    0    0  501    0  0.00000000000E+00 -0.00000000000E+00 -0.74834530638E+02  0.74845306305E+02  0.12700000000E+01 0. -1.
         25    2    1    2    0    0  0.00000000000E+00  0.00000000000E+00 -0.22658294527E+02  0.12703699640E+03  0.12500000057E+03 0.  0.
    9000005    1    3    3    0    0 -0.93107160892E+01  0.57960698471E+02  0.10447066853E+02  0.59634496788E+02  0.10000000000E+01 0.  0.
    9000005    1    3    3    0    0  0.93107160892E+01 -0.57960698471E+02 -0.33105361380E+02  0.67402499609E+02  0.10000000000E+01 0.  0.
<mgrwt>
<rscale>  0 0.12500000E+03</rscale>
<asrwt>0</asrwt>
<pdfrwt beam="2">  1        4 0.11515022E-01 0.12500000E+03</pdfrwt>
<pdfrwt beam="1">  1       -4 0.80291309E-02 0.12500000E+03</pdfrwt>
<totfact> 0.10408342E+04</totfact>
</mgrwt>
</event>
<event>
 5    1  0.3487578E-002  0.1249927E+03  0.7818608E-02  0.1235081E+00
          4   -1    0    0  501    0  0.00000000000E+00  0.00000000000E+00  0.92613558699E+01  0.93480272010E+01  0.12700000000E+01 0.  1.
         -4   -1    0    0    0  501 -0.00000000000E+00 -0.00000000000E+00 -0.41967864731E+03  0.41968056889E+03  0.12700000000E+01 0.  1.
         25    2    1    2    0    0  0.00000000000E+00  0.00000000000E+00 -0.41041729144E+03  0.42902859609E+03  0.12499273241E+03 0.  0.
    9000005    1    3    3    0    0  0.43563111109E+02  0.66655027236E+00 -0.35896484086E+03  0.36160053362E+03  0.10000000000E+01 0.  0.
    9000005    1    3    3    0    0 -0.43563111109E+02 -0.66655027236E+00 -0.51452450577E+02  0.67428062475E+02  0.10000000000E+01 0.  0.
<mgrwt>
<rscale>  0 0.12499273E+03</rscale>
<asrwt>0</asrwt>
<pdfrwt beam="1">  1        4 0.14316391E-02 0.12499273E+03</pdfrwt>
<pdfrwt beam="2">  1       -4 0.64572746E-01 0.12499273E+03</pdfrwt>
<totfact> 0.61834057E+03</totfact>
</mgrwt>
</event>
<event>
 5    1  0.3487578E-002  0.1249950E+03  0.7818608E-02  0.1235077E+00
         -4   -1    0    0    0  501 -0.00000000000E+00  0.00000000000E+00  0.63354451024E+01  0.64614831614E+01  0.12700000000E+01 0.  1.
          4   -1    0    0  501    0  0.00000000000E+00 -0.00000000000E+00 -0.61032220745E+03  0.61032352880E+03  0.12700000000E+01 0.  1.
         25    2    1    2    0    0  0.00000000000E+00  0.00000000000E+00 -0.60398676235E+03  0.61678501196E+03  0.12499496745E+03 0.  0.
    9000005    1    3    3    0    0  0.49811798323E+02 -0.16130612404E+02 -0.13367603488E+03  0.14356773388E+03  0.10000000000E+01 0.  0.
    9000005    1    3    3    0    0 -0.49811798323E+02  0.16130612404E+02 -0.47031072746E+03  0.47321727808E+03  0.10000000000E+01 0.  0.
<mgrwt>
<rscale>  0 0.12499497E+03</rscale>
<asrwt>0</asrwt>
<pdfrwt beam="2">  1        4 0.93905475E-01 0.12499497E+03</pdfrwt>
<pdfrwt beam="1">  1       -4 0.98448123E-03 0.12499497E+03</pdfrwt>
<totfact> 0.47830242E+03</totfact>
</mgrwt>
</event>
<event>
 5    1  0.3487578E-002  0.1250005E+03  0.7818608E-02  0.1235069E+00
          4   -1    0    0  501    0  0.00000000000E+00  0.00000000000E+00  0.14547747790E+03  0.14548302127E+03  0.12700000000E+01 0. -1.
         -4   -1    0    0    0  501 -0.00000000000E+00 -0.00000000000E+00 -0.26830357735E+02  0.26860398288E+02  0.12700000000E+01 0. -1.
         25    2    1    2    0    0  0.00000000000E+00  0.00000000000E+00  0.11864712017E+03  0.17234341955E+03  0.12500046056E+03 0.  0.
    9000005    1    3    3    0    0 -0.50622552344E+02  0.35580035338E+02  0.71398152042E+02  0.94484272953E+02  0.10000000000E+01 0.  0.
    9000005    1    3    3    0    0  0.50622552344E+02 -0.35580035338E+02  0.47248968125E+02  0.77859146601E+02  0.10000000000E+01 0.  0.
<mgrwt>
<rscale>  0 0.12500046E+03</rscale>
<asrwt>0</asrwt>
<pdfrwt beam="1">  1        4 0.22383888E-01 0.12500046E+03</pdfrwt>
<pdfrwt beam="2">  1       -4 0.41304846E-02 0.12500046E+03</pdfrwt>
<totfact> 0.95012669E+03</totfact>
</mgrwt>
</event>
<event>
 5    1  0.3487578E-002  0.1249985E+03  0.7818608E-02  0.1235072E+00
          4   -1    0    0  501    0  0.00000000000E+00  0.00000000000E+00  0.48768366760E+02  0.48784900291E+02  0.12700000000E+01 0.  1.
         -4   -1    0    0    0  501 -0.00000000000E+00 -0.00000000000E+00 -0.80060950110E+02  0.80071022427E+02  0.12700000000E+01 0.  1.
         25    2    1    2    0    0  0.00000000000E+00  0.00000000000E+00 -0.31292583350E+02  0.12885592272E+03  0.12499849218E+03 0.  0.
    9000005    1    3    3    0    0  0.39044488305E+02 -0.27127632559E+02 -0.57453665872E+02  0.74580857044E+02  0.10000000000E+01 0.  0.
    9000005    1    3    3    0    0 -0.39044488305E+02  0.27127632559E+02  0.26161082522E+02  0.54275065675E+02  0.10000000000E+01 0.  0.
<mgrwt>
<rscale>  0 0.12499849E+03</rscale>
<asrwt>0</asrwt>
<pdfrwt beam="1">  1        4 0.75048723E-02 0.12499849E+03</pdfrwt>
<pdfrwt beam="2">  1       -4 0.12319116E-01 0.12499849E+03</pdfrwt>
<totfact> 0.10369397E+04</totfact>
</mgrwt>
</event>
<event>
 5    1  0.3487578E-002  0.1249984E+03  0.7818608E-02  0.1235072E+00
         -4   -1    0    0    0  501 -0.00000000000E+00  0.00000000000E+00  0.28638339976E+02  0.28666485948E+02  0.12700000000E+01 0.  1.
          4   -1    0    0  501    0  0.00000000000E+00 -0.00000000000E+00 -0.13629774198E+03  0.13630365867E+03  0.12700000000E+01 0.  1.
         25    2    1    2    0    0  0.00000000000E+00  0.00000000000E+00 -0.10765940200E+03  0.16497014462E+03  0.12499840710E+03 0.  0.
    9000005    1    3    3    0    0  0.37015775839E+02 -0.18490616968E+02 -0.11563533994E+03  0.12281938943E+03  0.10000000000E+01 0.  0.
    9000005    1    3    3    0    0 -0.37015775839E+02  0.18490616968E+02  0.79759379444E+01  0.42150755188E+02  0.10000000000E+01 0.  0.
<mgrwt>
<rscale>  0 0.12499841E+03</rscale>
<asrwt>0</asrwt>
<pdfrwt beam="2">  1        4 0.20971503E-01 0.12499841E+03</pdfrwt>
<pdfrwt beam="1">  1       -4 0.44085188E-02 0.12499841E+03</pdfrwt>
<totfact> 0.96396496E+03</totfact>
</mgrwt>
</event>
<event>
 5    1  0.3487578E-002  0.1249949E+03  0.7818608E-02  0.1235077E+00
         -4   -1    0    0    0  501 -0.00000000000E+00  0.00000000000E+00  0.67939980522E+02  0.67951849521E+02  0.12700000000E+01 0. -1.
          4   -1    0    0  501    0  0.00000000000E+00 -0.00000000000E+00 -0.57466976404E+02  0.57481007968E+02  0.12700000000E+01 0. -1.
         25    2    1    2    0    0  0.00000000000E+00  0.00000000000E+00  0.10473004118E+02  0.12543285749E+03  0.12499487158E+03 0.  0.
    9000005    1    3    3    0    0 -0.59051526834E+02  0.20439793800E+02  0.54853398516E+01  0.62737205431E+02  0.10000000000E+01 0.  0.
    9000005    1    3    3    0    0  0.59051526834E+02 -0.20439793800E+02  0.49876642669E+01  0.62695652057E+02  0.10000000000E+01 0.  0.
<mgrwt>
<rscale>  0 0.12499487E+03</rscale>
<asrwt>0</asrwt>
<pdfrwt beam="2">  1        4 0.88430657E-02 0.12499487E+03</pdfrwt>
<pdfrwt beam="1">  1       -4 0.10454297E-01 0.12499487E+03</pdfrwt>
<totfact> 0.10444647E+04</totfact>
</mgrwt>
</event>
<event>
 5    1  0.3487578E-002  0.1250136E+03  0.7818608E-02  0.1235048E+00
          4   -1    0    0  501    0  0.00000000000E+00  0.00000000000E+00  0.31110868504E+01  0.33603216202E+01  0.12700000000E+01 0.  1.
         -4   -1    0    0    0  501 -0.00000000000E+00 -0.00000000000E+00 -0.12072460766E+04  0.12072467446E+04  0.12700000000E+01 0.  1.
         25    2    1    2    0    0  0.00000000000E+00  0.00000000000E+00 -0.12041349898E+04  0.12106070663E+04  0.12501358031E+03 0.  0.
    9000005    1    3    3    0    0 -0.37617660140E+02  0.27299970681E+02 -0.19746033710E+03  0.20285946239E+03  0.10000000000E+01 0.  0.
    9000005    1    3    3    0    0  0.37617660140E+02 -0.27299970681E+02 -0.10066746527E+04  0.10077476039E+04  0.10000000000E+01 0.  0.
<mgrwt>
<rscale>  0 0.12501358E+03</rscale>
<asrwt>0</asrwt>
<pdfrwt beam="1">  1        4 0.49785300E-03 0.12501358E+03</pdfrwt>
<pdfrwt beam="2">  1       -4 0.18574903E+00 0.12501358E+03</pdfrwt>
<totfact> 0.24429610E+03</totfact>
</mgrwt>
</event>
<event>
 5    1  0.3487578E-002  0.1250009E+03  0.7818608E-02  0.1235068E+00
         -4   -1    0    0    0  501 -0.00000000000E+00  0.00000000000E+00  0.94873596381E+01  0.95719847943E+01  0.12700000000E+01 0.  1.
          4   -1    0    0  501    0  0.00000000000E+00 -0.00000000000E+00 -0.40982423894E+03  0.40982620673E+03  0.12700000000E+01 0.  1.
         25    2    1    2    0    0  0.00000000000E+00  0.00000000000E+00 -0.40033687930E+03  0.41939819152E+03  0.12500090450E+03 0.  0.
    9000005    1    3    3    0    0 -0.23827106049E+02 -0.50358757510E+02 -0.10517701073E+03  0.11902495128E+03  0.10000000000E+01 0.  0.
    9000005    1    3    3    0    0  0.23827106049E+02  0.50358757510E+02 -0.29515986857E+03  0.30037324024E+03  0.10000000000E+01 0.  0.
<mgrwt>
<rscale>  0 0.12500090E+03</rscale>
<asrwt>0</asrwt>
<pdfrwt beam="2">  1        4 0.63056530E-01 0.12500090E+03</pdfrwt>
<pdfrwt beam="1">  1       -4 0.14662551E-02 0.12500090E+03</pdfrwt>
<totfact> 0.62707635E+03</totfact>
</mgrwt>
</event>
<event>
 5    1  0.3487578E-002  0.1250125E+03  0.7818608E-02  0.1235050E+00
         -4   -1    0    0    0  501 -0.00000000000E+00  0.00000000000E+00  0.11192541486E+02  0.11264363493E+02  0.12700000000E+01 0.  1.
          4   -1    0    0  501    0  0.00000000000E+00 -0.00000000000E+00 -0.34788498723E+03  0.34788730538E+03  0.12700000000E+01 0.  1.
         25    2    1    2    0    0  0.00000000000E+00  0.00000000000E+00 -0.33669244575E+03  0.35915166887E+03  0.12501247229E+03 0.  0.
    9000005    1    3    3    0    0 -0.45822949546E+02  0.90372050974E+01 -0.49037905162E+02  0.67728353913E+02  0.10000000000E+01 0.  0.
    9000005    1    3    3    0    0  0.45822949546E+02 -0.90372050974E+01 -0.28765454058E+03  0.29142331496E+03  0.10000000000E+01 0.  0.
<mgrwt>
<rscale>  0 0.12501247E+03</rscale>
<asrwt>0</asrwt>
<pdfrwt beam="2">  1        4 0.53526462E-01 0.12501247E+03</pdfrwt>
<pdfrwt beam="1">  1       -4 0.17276328E-02 0.12501247E+03</pdfrwt>
<totfact> 0.68710403E+03</totfact>
</mgrwt>
</event>
<event>
 5    1  0.3487578E-002  0.1249937E+03  0.7818608E-02  0.1235079E+00
         -4   -1    0    0    0  501 -0.00000000000E+00  0.00000000000E+00  0.14502745108E+02  0.14558245625E+02  0.12700000000E+01 0. -1.
          4   -1    0    0  501    0  0.00000000000E+00 -0.00000000000E+00 -0.26874715789E+03  0.26875015865E+03  0.12700000000E+01 0. -1.
         25    2    1    2    0    0  0.00000000000E+00  0.00000000000E+00 -0.25424441278E+03  0.28330840427E+03  0.12499372185E+03 0.  0.
    9000005    1    3    3    0    0 -0.71506399498E+01 -0.58665447595E+02 -0.81110541806E+02  0.10036277390E+03  0.10000000000E+01 0.  0.
    9000005    1    3    3    0    0  0.71506399498E+01  0.58665447595E+02 -0.17313387098E+03  0.18294563037E+03  0.10000000000E+01 0.  0.
<mgrwt>
<rscale>  0 0.12499372E+03</rscale>
<asrwt>0</asrwt>
<pdfrwt beam="2">  1        4 0.41350213E-01 0.12499372E+03</pdfrwt>
<pdfrwt beam="1">  1       -4 0.22356919E-02 0.12499372E+03</pdfrwt>
<totfact> 0.77752320E+03</totfact>
</mgrwt>
</event>
<event>
 5    1  0.3487578E-002  0.1249888E+03  0.7818608E-02  0.1235087E+00
          4   -1    0    0  501    0  0.00000000000E+00  0.00000000000E+00  0.11193786843E+03  0.11194507264E+03  0.12700000000E+01 0.  1.
         -4   -1    0    0    0  501 -0.00000000000E+00 -0.00000000000E+00 -0.34870432117E+02  0.34893551496E+02  0.12700000000E+01 0.  1.
         25    2    1    2    0    0  0.00000000000E+00  0.00000000000E+00  0.77067436311E+02  0.14683862413E+03  0.12498876669E+03 0.  0.
    9000005    1    3    3    0    0  0.22370528801E+02 -0.28985759565E+02  0.98020800842E+02  0.10464077701E+03  0.10000000000E+01 0.  0.
    9000005    1    3    3    0    0 -0.22370528801E+02  0.28985759565E+02 -0.20953364531E+02  0.42197847121E+02  0.10000000000E+01 0.  0.
<mgrwt>
<rscale>  0 0.12498877E+03</rscale>
<asrwt>0</asrwt>
<pdfrwt beam="1">  1        4 0.17223543E-01 0.12498877E+03</pdfrwt>
<pdfrwt beam="2">  1       -4 0.53670145E-02 0.12498877E+03</pdfrwt>
<totfact> 0.99962924E+03</totfact>
</mgrwt>
</event>
<event>
 5    1  0.3487578E-002  0.1249937E+03  0.7818608E-02  0.1235079E+00
          4   -1    0    0  501    0  0.00000000000E+00  0.00000000000E+00  0.15985411946E+03  0.15985916429E+03  0.12700000000E+01 0.  1.
         -4   -1    0    0    0  501 -0.00000000000E+00 -0.00000000000E+00 -0.24411959805E+02  0.24444972520E+02  0.12700000000E+01 0.  1.
         25    2    1    2    0    0  0.00000000000E+00  0.00000000000E+00  0.13544215965E+03  0.18430413681E+03  0.12499374478E+03 0.  0.
    9000005    1    3    3    0    0  0.36976010356E+02 -0.48861282223E+02  0.85792592862E+02  0.10543253403E+03  0.10000000000E+01 0.  0.
    9000005    1    3    3    0    0 -0.36976010356E+02  0.48861282223E+02  0.49649566792E+02  0.78871602779E+02  0.10000000000E+01 0.  0.
<mgrwt>
<rscale>  0 0.12499374E+03</rscale>
<asrwt>0</asrwt>
<pdfrwt beam="1">  1        4 0.24595869E-01 0.12499374E+03</pdfrwt>
<pdfrwt beam="2">  1       -4 0.37586137E-02 0.12499374E+03</pdfrwt>
<totfact> 0.92860950E+03</totfact>
</mgrwt>
</event>
<event>
 5    1  0.3487578E-002  0.1249712E+03  0.7818608E-02  0.1235114E+00
         -4   -1    0    0    0  501 -0.00000000000E+00  0.00000000000E+00  0.30002273556E+02  0.30029141155E+02  0.12700000000E+01 0. -1.
          4   -1    0    0  501    0  0.00000000000E+00 -0.00000000000E+00 -0.13005027561E+03  0.13005647653E+03  0.12700000000E+01 0. -1.
         25    2    1    2    0    0  0.00000000000E+00  0.00000000000E+00 -0.10004800205E+03  0.16008561768E+03  0.12497120578E+03 0.  0.
    9000005    1    3    3    0    0  0.28412361043E+01  0.20727205826E+02  0.25388206475E+02  0.32912774298E+02  0.10000000000E+01 0.  0.
    9000005    1    3    3    0    0 -0.28412361043E+01 -0.20727205826E+02 -0.12543620853E+03  0.12717284338E+03  0.10000000000E+01 0.  0.
<mgrwt>
<rscale>  0 0.12497121E+03</rscale>
<asrwt>0</asrwt>
<pdfrwt beam="2">  1        4 0.20010278E-01 0.12497121E+03</pdfrwt>
<pdfrwt beam="1">  1       -4 0.46182782E-02 0.12497121E+03</pdfrwt>
<totfact> 0.97389299E+03</totfact>
</mgrwt>
</event>
<event>
 5    1  0.3487578E-002  0.1249937E+03  0.7818608E-02  0.1235079E+00
          4   -1    0    0  501    0  0.00000000000E+00  0.00000000000E+00  0.56439445434E+02  0.56453732391E+02  0.12700000000E+01 0.  1.
         -4   -1    0    0    0  501 -0.00000000000E+00 -0.00000000000E+00 -0.69175496398E+02  0.69187153446E+02  0.12700000000E+01 0.  1.
         25    2    1    2    0    0  0.00000000000E+00  0.00000000000E+00 -0.12736050965E+02  0.12564088584E+03  0.12499370064E+03 0.  0.
    9000005    1    3    3    0    0  0.33817717932E+02  0.14223343701E+02  0.44479611169E+02  0.57666085024E+02  0.10000000000E+01 0.  0.
    9000005    1    3    3    0    0 -0.33817717932E+02 -0.14223343701E+02 -0.57215662134E+02  0.67974800813E+02  0.10000000000E+01 0.  0.
<mgrwt>
<rscale>  0 0.12499370E+03</rscale>
<asrwt>0</asrwt>
<pdfrwt beam="1">  1        4 0.86849873E-02 0.12499370E+03</pdfrwt>
<pdfrwt beam="2">  1       -4 0.10644380E-01 0.12499370E+03</pdfrwt>
<totfact> 0.10440330E+04</totfact>
</mgrwt>
</event>
<event>
 5    1  0.3487578E-002  0.1250048E+03  0.7818608E-02  0.1235062E+00
          4   -1    0    0  501    0  0.00000000000E+00  0.00000000000E+00  0.28917899773E+03  0.28918178647E+03  0.12700000000E+01 0.  1.
         -4   -1    0    0    0  501 -0.00000000000E+00 -0.00000000000E+00 -0.13476387885E+02  0.13536097311E+02  0.12700000000E+01 0.  1.
         25    2    1    2    0    0  0.00000000000E+00  0.00000000000E+00  0.27570260984E+03  0.30271788378E+03  0.12500475226E+03 0.  0.
    9000005    1    3    3    0    0 -0.33882725691E+02  0.32587065542E+02  0.23756897365E+03  0.24217756540E+03  0.10000000000E+01 0.  0.
    9000005    1    3    3    0    0  0.33882725691E+02 -0.32587065542E+02  0.38133636194E+02  0.60540318386E+02  0.10000000000E+01 0.  0.
<mgrwt>
<rscale>  0 0.12500475E+03</rscale>
<asrwt>0</asrwt>
<pdfrwt beam="1">  1        4 0.44493886E-01 0.12500475E+03</pdfrwt>
<pdfrwt beam="2">  1       -4 0.20780979E-02 0.12500475E+03</pdfrwt>
<totfact> 0.75251232E+03</totfact>
</mgrwt>
</event>
<event>
 5    1  0.3487578E-002  0.1250160E+03  0.7818608E-02  0.1235044E+00
          4   -1    0    0  501    0  0.00000000000E+00  0.00000000000E+00  0.40439670854E+01  0.42386990678E+01  0.12700000000E+01 0.  1.
         -4   -1    0    0    0  501 -0.00000000000E+00 -0.00000000000E+00 -0.94328113285E+03  0.94328198779E+03  0.12700000000E+01 0.  1.
         25    2    1    2    0    0  0.00000000000E+00  0.00000000000E+00 -0.93923716576E+03  0.94752068685E+03  0.12501599286E+03 0.  0.
    9000005    1    3    3    0    0 -0.34931985794E+02  0.48860830555E+02 -0.60059296863E+03  0.60358971029E+03  0.10000000000E+01 0.  0.
    9000005    1    3    3    0    0  0.34931985794E+02 -0.48860830555E+02 -0.33864419713E+03  0.34393097657E+03  0.10000000000E+01 0.  0.
<mgrwt>
<rscale>  0 0.12501599E+03</rscale>
<asrwt>0</asrwt>
<pdfrwt beam="1">  1        4 0.63719468E-03 0.12501599E+03</pdfrwt>
<pdfrwt beam="2">  1       -4 0.14513505E+00 0.12501599E+03</pdfrwt>
<totfact> 0.32392894E+03</totfact>
</mgrwt>
</event>
<event>
 5    1  0.3487578E-002  0.1250042E+03  0.7818608E-02  0.1235063E+00
         -4   -1    0    0    0  501 -0.00000000000E+00  0.00000000000E+00  0.42105393652E+02  0.42124542426E+02  0.12700000000E+01 0.  1.
          4   -1    0    0  501    0  0.00000000000E+00 -0.00000000000E+00 -0.92734861481E+02  0.92743557371E+02  0.12700000000E+01 0.  1.
         25    2    1    2    0    0  0.00000000000E+00  0.00000000000E+00 -0.50629467828E+02  0.13486809980E+03  0.12500424525E+03 0.  0.
    9000005    1    3    3    0    0 -0.62345684666E+02  0.13482887041E+00 -0.29956893116E+02  0.69176715883E+02  0.10000000000E+01 0.  0.
    9000005    1    3    3    0    0  0.62345684666E+02 -0.13482887041E+00 -0.20672574713E+02  0.65691383914E+02  0.10000000000E+01 0.  0.
<mgrwt>
<rscale>  0 0.12500425E+03</rscale>
<asrwt>0</asrwt>
<pdfrwt beam="2">  1        4 0.14269044E-01 0.12500425E+03</pdfrwt>
<pdfrwt beam="1">  1       -4 0.64798948E-02 0.12500425E+03</pdfrwt>
<totfact> 0.10239871E+04</totfact>
</mgrwt>
</event>
<event>
 5    1  0.3487578E-002  0.1249992E+03  0.7818608E-02  0.1235071E+00
         -4   -1    0    0    0  501 -0.00000000000E+00  0.00000000000E+00  0.15633728614E+03  0.15634244446E+03  0.12700000000E+01 0. -1.
          4   -1    0    0  501    0  0.00000000000E+00 -0.00000000000E+00 -0.24964015451E+02  0.24996299075E+02  0.12700000000E+01 0. -1.
         25    2    1    2    0    0  0.00000000000E+00  0.00000000000E+00  0.13137327069E+03  0.18133874353E+03  0.12499921461E+03 0.  0.
    9000005    1    3    3    0    0  0.44190344371E+02 -0.32512449105E+02  0.10909575287E+03  0.12211768577E+03  0.10000000000E+01 0.  0.
    9000005    1    3    3    0    0 -0.44190344371E+02  0.32512449105E+02  0.22277517822E+02  0.59221057765E+02  0.10000000000E+01 0.  0.
<mgrwt>
<rscale>  0 0.12499921E+03</rscale>
<asrwt>0</asrwt>
<pdfrwt beam="2">  1        4 0.38434980E-02 0.12499921E+03</pdfrwt>
<pdfrwt beam="1">  1       -4 0.24054770E-01 0.12499921E+03</pdfrwt>
<totfact> 0.93378223E+03</totfact>
</mgrwt>
</event>
<event>
 5    1  0.3487578E-002  0.1250012E+03  0.7818608E-02  0.1235067E+00
          4   -1    0    0  501    0  0.00000000000E+00  0.00000000000E+00  0.36406829094E+02  0.36428973423E+02  0.12700000000E+01 0.  1.
         -4   -1    0    0    0  501 -0.00000000000E+00 -0.00000000000E+00 -0.10723793016E+03  0.10724545009E+03  0.12700000000E+01 0.  1.
         25    2    1    2    0    0  0.00000000000E+00  0.00000000000E+00 -0.70831101068E+02  0.14367442351E+03  0.12500118037E+03 0.  0.
    9000005    1    3    3    0    0  0.19178361997E+02  0.20230910062E+02  0.28870138703E+02  0.40144541342E+02  0.10000000000E+01 0.  0.
    9000005    1    3    3    0    0 -0.19178361997E+02 -0.20230910062E+02 -0.99701239771E+02  0.10352988217E+03  0.10000000000E+01 0.  0.
<mgrwt>
<rscale>  0 0.12500118E+03</rscale>
<asrwt>0</asrwt>
<pdfrwt beam="1">  1        4 0.56033325E-02 0.12500118E+03</pdfrwt>
<pdfrwt beam="2">  1       -4 0.16500425E-01 0.12500118E+03</pdfrwt>
<totfact> 0.10057724E+04</totfact>
</mgrwt>
</event>
<event>
 5    1  0.3487578E-002  0.1249997E+03  0.7818608E-02  0.1235070E+00
          4   -1    0    0  501    0  0.00000000000E+00  0.00000000000E+00  0.85859704605E+02  0.85869096739E+02  0.12700000000E+01 0. -1.
         -4   -1    0    0    0  501 -0.00000000000E+00 -0.00000000000E+00 -0.45474746664E+02  0.45492477226E+02  0.12700000000E+01 0. -1.
         25    2    1    2    0    0  0.00000000000E+00  0.00000000000E+00  0.40384957941E+02  0.13136157396E+03  0.12499967315E+03 0.  0.
    9000005    1    3    3    0    0 -0.66420495638E+01  0.38007802151E+02  0.71852507099E+02  0.81562813973E+02  0.10000000000E+01 0.  0.
    9000005    1    3    3    0    0  0.66420495638E+01 -0.38007802151E+02 -0.31467549158E+02  0.49798759992E+02  0.10000000000E+01 0.  0.
<mgrwt>
<rscale>  0 0.12499967E+03</rscale>
<asrwt>0</asrwt>
<pdfrwt beam="1">  1        4 0.13211272E-01 0.12499967E+03</pdfrwt>
<pdfrwt beam="2">  1       -4 0.69982013E-02 0.12499967E+03</pdfrwt>
<totfact> 0.10315420E+04</totfact>
</mgrwt>
</event>
<event>
 5    1  0.3487578E-002  0.1249928E+03  0.7818608E-02  0.1235081E+00
          4   -1    0    0  501    0  0.00000000000E+00  0.00000000000E+00  0.28296065767E+03  0.28296350770E+03  0.12700000000E+01 0. -1.
         -4   -1    0    0    0  501 -0.00000000000E+00 -0.00000000000E+00 -0.13771196933E+02  0.13829633580E+02  0.12700000000E+01 0. -1.
         25    2    1    2    0    0  0.00000000000E+00  0.00000000000E+00  0.26918946074E+03  0.29679314128E+03  0.12499281155E+03 0.  0.
    9000005    1    3    3    0    0  0.60783262187E+02  0.14067400246E+02  0.14292372121E+03  0.15595091150E+03  0.10000000000E+01 0.  0.
    9000005    1    3    3    0    0 -0.60783262187E+02 -0.14067400246E+02  0.12626573953E+03  0.14084222978E+03  0.10000000000E+01 0.  0.
<mgrwt>
<rscale>  0 0.12499281E+03</rscale>
<asrwt>0</asrwt>
<pdfrwt beam="1">  1        4 0.43537124E-01 0.12499281E+03</pdfrwt>
<pdfrwt beam="2">  1       -4 0.21233600E-02 0.12499281E+03</pdfrwt>
<totfact> 0.76015000E+03</totfact>
</mgrwt>
</event>
<event>
 5    1  0.3487578E-002  0.1249997E+03  0.7818608E-02  0.1235070E+00
         -4   -1    0    0    0  501 -0.00000000000E+00  0.00000000000E+00  0.11287371008E+02  0.11358593411E+02  0.12700000000E+01 0. -1.
          4   -1    0    0  501    0  0.00000000000E+00 -0.00000000000E+00 -0.34491001972E+03  0.34491235786E+03  0.12700000000E+01 0. -1.
         25    2    1    2    0    0  0.00000000000E+00  0.00000000000E+00 -0.33362264872E+03  0.35627095127E+03  0.12499967594E+03 0.  0.
    9000005    1    3    3    0    0  0.15253816198E+02 -0.57470835122E+02 -0.11201275747E+03  0.12682047798E+03  0.10000000000E+01 0.  0.
    9000005    1    3    3    0    0 -0.15253816198E+02  0.57470835122E+02 -0.22160989124E+03  0.22945047330E+03  0.10000000000E+01 0.  0.
<mgrwt>
<rscale>  0 0.12499968E+03</rscale>
<asrwt>0</asrwt>
<pdfrwt beam="2">  1        4 0.53068731E-01 0.12499968E+03</pdfrwt>
<pdfrwt beam="1">  1       -4 0.17421774E-02 0.12499968E+03</pdfrwt>
<totfact> 0.69040638E+03</totfact>
</mgrwt>
</event>
<event>
 5    1  0.3487578E-002  0.1250047E+03  0.7818608E-02  0.1235062E+00
         -4   -1    0    0    0  501 -0.00000000000E+00  0.00000000000E+00  0.48417453066E+02  0.48434106386E+02  0.12700000000E+01 0.  1.
          4   -1    0    0  501    0  0.00000000000E+00 -0.00000000000E+00 -0.80649044399E+02  0.80659043278E+02  0.12700000000E+01 0.  1.
         25    2    1    2    0    0  0.00000000000E+00  0.00000000000E+00 -0.32231591333E+02  0.12909314966E+03  0.12500466315E+03 0.  0.
    9000005    1    3    3    0    0  0.28470981492E+02 -0.36432873967E+02 -0.59533593792E+02  0.75387000752E+02  0.10000000000E+01 0.  0.
    9000005    1    3    3    0    0 -0.28470981492E+02  0.36432873967E+02  0.27302002458E+02  0.53706148911E+02  0.10000000000E+01 0.  0.
<mgrwt>
<rscale>  0 0.12500466E+03</rscale>
<asrwt>0</asrwt>
<pdfrwt beam="2">  1        4 0.12409595E-01 0.12500466E+03</pdfrwt>
<pdfrwt beam="1">  1       -4 0.74508891E-02 0.12500466E+03</pdfrwt>
<totfact> 0.10362855E+04</totfact>
</mgrwt>
</event>
<event>
 5    1  0.3487578E-002  0.1250000E+03  0.7818608E-02  0.1235069E+00
         -4   -1    0    0    0  501 -0.00000000000E+00  0.00000000000E+00  0.16399653307E+03  0.16400145048E+03  0.12700000000E+01 0. -1.
          4   -1    0    0  501    0  0.00000000000E+00 -0.00000000000E+00 -0.23796882048E+02  0.23830746846E+02  0.12700000000E+01 0. -1.
         25    2    1    2    0    0  0.00000000000E+00  0.00000000000E+00  0.14019965102E+03  0.18783219733E+03  0.12499996882E+03 0.  0.
    9000005    1    3    3    0    0 -0.45088135993E+02  0.42275904763E+02  0.56241447332E+02  0.83572079840E+02  0.10000000000E+01 0.  0.
    9000005    1    3    3    0    0  0.45088135993E+02 -0.42275904763E+02  0.83958203693E+02  0.10426011749E+03  0.10000000000E+01 0.  0.
<mgrwt>
<rscale>  0 0.12499997E+03</rscale>
<asrwt>0</asrwt>
<pdfrwt beam="2">  1        4 0.36640421E-02 0.12499997E+03</pdfrwt>
<pdfrwt beam="1">  1       -4 0.25233218E-01 0.12499997E+03</pdfrwt>
<totfact> 0.92225944E+03</totfact>
</mgrwt>
</event>
<event>
 5    1  0.3487578E-002  0.1250023E+03  0.7818608E-02  0.1235066E+00
         -4   -1    0    0    0  501 -0.00000000000E+00  0.00000000000E+00  0.21794927121E+02  0.21831897494E+02  0.12700000000E+01 0. -1.
          4   -1    0    0  501    0  0.00000000000E+00 -0.00000000000E+00 -0.17904288517E+03  0.17904738934E+03  0.12700000000E+01 0. -1.
         25    2    1    2    0    0  0.00000000000E+00  0.00000000000E+00 -0.15724795805E+03  0.20087928684E+03  0.12500227026E+03 0.  0.
    9000005    1    3    3    0    0 -0.46791777096E+02 -0.20059785521E+02 -0.13686603208E+03  0.14603142174E+03  0.10000000000E+01 0.  0.
    9000005    1    3    3    0    0  0.46791777096E+02  0.20059785521E+02 -0.20381925969E+02  0.54847865092E+02  0.10000000000E+01 0.  0.
<mgrwt>
<rscale>  0 0.12500227E+03</rscale>
<asrwt>0</asrwt>
<pdfrwt beam="2">  1        4 0.27548249E-01 0.12500227E+03</pdfrwt>
<pdfrwt beam="1">  1       -4 0.33562562E-02 0.12500227E+03</pdfrwt>
<totfact> 0.89982848E+03</totfact>
</mgrwt>
</event>
<event>
 4    1  0.3487578E-002  0.1244231E+03  0.7818608E-02  0.1235974E+00
          4   -1    0    0  501    0  0.00000000000E+00  0.00000000000E+00  0.42420265118E+02  0.42439271820E+02  0.12700000000E+01 0. -1.
         -4   -1    0    0    0  501 -0.00000000000E+00 -0.00000000000E+00 -0.91192691166E+02  0.91201534100E+02  0.12700000000E+01 0. -1.
    9000005    1    1    2    0    0  0.66040200394E+01  0.47566980089E+02  0.18078104157E+02  0.51322982429E+02  0.10000000000E+01 0.  0.
    9000005    1    1    2    0    0 -0.66040200394E+01 -0.47566980089E+02 -0.66850530206E+02  0.82317823491E+02  0.10000000000E+01 0.  0.
<mgrwt>
<rscale>  0 0.12442313E+03</rscale>
<asrwt>0</asrwt>
<pdfrwt beam="1">  1        4 0.65283370E-02 0.12442313E+03</pdfrwt>
<pdfrwt beam="2">  1       -4 0.14031787E-01 0.12442313E+03</pdfrwt>
<totfact> 0.10401537E+04</totfact>
</mgrwt>
</event>
<event>
 5    1  0.3487578E-002  0.1250005E+03  0.7818608E-02  0.1235068E+00
         -4   -1    0    0    0  501 -0.00000000000E+00  0.00000000000E+00  0.17788009813E+03  0.17788463175E+03  0.12700000000E+01 0. -1.
          4   -1    0    0  501    0  0.00000000000E+00 -0.00000000000E+00 -0.21937028403E+02  0.21973759696E+02  0.12700000000E+01 0. -1.
         25    2    1    2    0    0  0.00000000000E+00  0.00000000000E+00  0.15594306973E+03  0.19985839144E+03  0.12500054253E+03 0.  0.
    9000005    1    3    3    0    0  0.38823471930E+02  0.21673808778E+01  0.15619035732E+03  0.16096082515E+03  0.10000000000E+01 0.  0.
    9000005    1    3    3    0    0 -0.38823471930E+02 -0.21673808778E+01 -0.24728758933E+00  0.38897566295E+02  0.10000000000E+01 0.  0.
<mgrwt>
<rscale>  0 0.12500054E+03</rscale>
<asrwt>0</asrwt>
<pdfrwt beam="2">  1        4 0.33781017E-02 0.12500054E+03</pdfrwt>
<pdfrwt beam="1">  1       -4 0.27369343E-01 0.12500054E+03</pdfrwt>
<totfact> 0.90158300E+03</totfact>
</mgrwt>
</event>
<event>
 5    1  0.3487578E-002  0.1249993E+03  0.7818608E-02  0.1235070E+00
          4   -1    0    0  501    0  0.00000000000E+00  0.00000000000E+00  0.13238351962E+02  0.13299130147E+02  0.12700000000E+01 0.  1.
         -4   -1    0    0    0  501 -0.00000000000E+00 -0.00000000000E+00 -0.29432960673E+03  0.29433234667E+03  0.12700000000E+01 0.  1.
         25    2    1    2    0    0  0.00000000000E+00  0.00000000000E+00 -0.28109125477E+03  0.30763147682E+03  0.12499932809E+03 0.  0.
    9000005    1    3    3    0    0  0.30676375024E+02  0.54323216620E+02 -0.13161899564E+03  0.14565923198E+03  0.10000000000E+01 0.  0.
    9000005    1    3    3    0    0 -0.30676375024E+02 -0.54323216620E+02 -0.14947225913E+03  0.16197224484E+03  0.10000000000E+01 0.  0.
<mgrwt>
<rscale>  0 0.12499933E+03</rscale>
<asrwt>0</asrwt>
<pdfrwt beam="1">  1        4 0.20415558E-02 0.12499933E+03</pdfrwt>
<pdfrwt beam="2">  1       -4 0.45286359E-01 0.12499933E+03</pdfrwt>
<totfact> 0.74652540E+03</totfact>
</mgrwt>
</event>
<event>
 5    1  0.3487578E-002  0.1250015E+03  0.7818608E-02  0.1235067E+00
          4   -1    0    0  501    0  0.00000000000E+00  0.00000000000E+00  0.10059695494E+03  0.10060497126E+03  0.12700000000E+01 0. -1.
         -4   -1    0    0    0  501 -0.00000000000E+00 -0.00000000000E+00 -0.38811658212E+02  0.38832431204E+02  0.12700000000E+01 0. -1.
         25    2    1    2    0    0  0.00000000000E+00  0.00000000000E+00  0.61785296725E+02  0.13943740247E+03  0.12500146525E+03 0.  0.
    9000005    1    3    3    0    0 -0.10146591778E+02 -0.58880054779E+02  0.10459834535E+02  0.60664835893E+02  0.10000000000E+01 0.  0.
    9000005    1    3    3    0    0  0.10146591778E+02  0.58880054779E+02  0.51325462190E+02  0.78772566573E+02  0.10000000000E+01 0.  0.
<mgrwt>
<rscale>  0 0.12500147E+03</rscale>
<asrwt>0</asrwt>
<pdfrwt beam="1">  1        4 0.15478669E-01 0.12500147E+03</pdfrwt>
<pdfrwt beam="2">  1       -4 0.59732390E-02 0.12500147E+03</pdfrwt>
<totfact> 0.10144924E+04</totfact>
</mgrwt>
</event>
<event>
 5    1  0.3487578E-002  0.1250013E+03  0.7818608E-02  0.1235067E+00
          4   -1    0    0  501    0  0.00000000000E+00  0.00000000000E+00  0.55695551440E+02  0.55710029171E+02  0.12700000000E+01 0. -1.
         -4   -1    0    0    0  501 -0.00000000000E+00 -0.00000000000E+00 -0.70107863887E+02  0.70119365932E+02  0.12700000000E+01 0. -1.
         25    2    1    2    0    0  0.00000000000E+00  0.00000000000E+00 -0.14412312446E+02  0.12582939510E+03  0.12500128768E+03 0.  0.
    9000005    1    3    3    0    0  0.55454147755E+01 -0.24839122530E+02 -0.64659629693E+02  0.69495333262E+02  0.10000000000E+01 0.  0.
    9000005    1    3    3    0    0 -0.55454147755E+01  0.24839122530E+02  0.50247317247E+02  0.56334061842E+02  0.10000000000E+01 0.  0.
<mgrwt>
<rscale>  0 0.12500129E+03</rscale>
<asrwt>0</asrwt>
<pdfrwt beam="1">  1        4 0.85705448E-02 0.12500129E+03</pdfrwt>
<pdfrwt beam="2">  1       -4 0.10787824E-01 0.12500129E+03</pdfrwt>
<totfact> 0.10434396E+04</totfact>
</mgrwt>
</event>
<event>
 5    1  0.3487578E-002  0.1250026E+03  0.7818608E-02  0.1235065E+00
          4   -1    0    0  501    0  0.00000000000E+00  0.00000000000E+00  0.75584324207E+02  0.75594992994E+02  0.12700000000E+01 0. -1.
         -4   -1    0    0    0  501 -0.00000000000E+00 -0.00000000000E+00 -0.51660745755E+02  0.51676353896E+02  0.12700000000E+01 0. -1.
         25    2    1    2    0    0  0.00000000000E+00  0.00000000000E+00  0.23923578452E+02  0.12727134689E+03  0.12500263251E+03 0.  0.
    9000005    1    3    3    0    0 -0.31457239865E+02  0.26821043200E+02  0.59679095800E+02  0.72605239300E+02  0.10000000000E+01 0.  0.
    9000005    1    3    3    0    0  0.31457239865E+02 -0.26821043200E+02 -0.35755517349E+02  0.54666107591E+02  0.10000000000E+01 0.  0.
<mgrwt>
<rscale>  0 0.12500263E+03</rscale>
<asrwt>0</asrwt>
<pdfrwt beam="1">  1        4 0.11630379E-01 0.12500263E+03</pdfrwt>
<pdfrwt beam="2">  1       -4 0.79498284E-02 0.12500263E+03</pdfrwt>
<totfact> 0.10402638E+04</totfact>
</mgrwt>
</event>
<event>
 5    1  0.3487578E-002  0.1249999E+03  0.7818608E-02  0.1235069E+00
          4   -1    0    0  501    0  0.00000000000E+00  0.00000000000E+00  0.95468894763E+02  0.95477341643E+02  0.12700000000E+01 0.  1.
         -4   -1    0    0    0  501 -0.00000000000E+00 -0.00000000000E+00 -0.40896306197E+02  0.40916020830E+02  0.12700000000E+01 0.  1.
         25    2    1    2    0    0  0.00000000000E+00  0.00000000000E+00  0.54572588565E+02  0.13639336247E+03  0.12499992762E+03 0.  0.
    9000005    1    3    3    0    0 -0.53206807571E+02 -0.12615951499E+02  0.60294523795E+02  0.81403662103E+02  0.10000000000E+01 0.  0.
    9000005    1    3    3    0    0  0.53206807571E+02  0.12615951499E+02 -0.57219352296E+01  0.54989700371E+02  0.10000000000E+01 0.  0.
<mgrwt>
<rscale>  0 0.12499993E+03</rscale>
<asrwt>0</asrwt>
<pdfrwt beam="1">  1        4 0.14689688E-01 0.12499993E+03</pdfrwt>
<pdfrwt beam="2">  1       -4 0.62939058E-02 0.12499993E+03</pdfrwt>
<totfact> 0.10208802E+04</totfact>
</mgrwt>
</event>
<event>
 5    1  0.3487578E-002  0.1250038E+03  0.7818608E-02  0.1235063E+00
          4   -1    0    0  501    0  0.00000000000E+00  0.00000000000E+00  0.59109823349E+02  0.59123465023E+02  0.12700000000E+01 0. -1.
         -4   -1    0    0    0  501 -0.00000000000E+00 -0.00000000000E+00 -0.66061216805E+02  0.66073423294E+02  0.12700000000E+01 0. -1.
         25    2    1    2    0    0  0.00000000000E+00  0.00000000000E+00 -0.69513934566E+01  0.12519688832E+03  0.12500375584E+03 0.  0.
    9000005    1    3    3    0    0  0.46027863835E+02  0.27846380722E+01 -0.45721030240E+02  0.64944061042E+02  0.10000000000E+01 0.  0.
    9000005    1    3    3    0    0 -0.46027863835E+02 -0.27846380722E+01  0.38769636783E+02  0.60252827276E+02  0.10000000000E+01 0.  0.
<mgrwt>
<rscale>  0 0.12500376E+03</rscale>
<asrwt>0</asrwt>
<pdfrwt beam="1">  1        4 0.90958072E-02 0.12500376E+03</pdfrwt>
<pdfrwt beam="2">  1       -4 0.10165253E-01 0.12500376E+03</pdfrwt>
<totfact> 0.10447701E+04</totfact>
</mgrwt>
</event>
<event>
 5    1  0.3487578E-002  0.1250046E+03  0.7818608E-02  0.1235062E+00
         -4   -1    0    0    0  501 -0.00000000000E+00  0.00000000000E+00  0.11957481106E+03  0.11958155519E+03  0.12700000000E+01 0. -1.
          4   -1    0    0  501    0  0.00000000000E+00 -0.00000000000E+00 -0.32650243262E+02  0.32674933590E+02  0.12700000000E+01 0. -1.
         25    2    1    2    0    0  0.00000000000E+00  0.00000000000E+00  0.86924567802E+02  0.15225648878E+03  0.12500463146E+03 0.  0.
    9000005    1    3    3    0    0 -0.43910259169E+02  0.34784529026E+02  0.97196454533E+01  0.56864275496E+02  0.10000000000E+01 0.  0.
    9000005    1    3    3    0    0  0.43910259169E+02 -0.34784529026E+02  0.77204922349E+02  0.95392213282E+02  0.10000000000E+01 0.  0.
<mgrwt>
<rscale>  0 0.12500463E+03</rscale>
<asrwt>0</asrwt>
<pdfrwt beam="2">  1        4 0.50255324E-02 0.12500463E+03</pdfrwt>
<pdfrwt beam="1">  1       -4 0.18398543E-01 0.12500463E+03</pdfrwt>
<totfact> 0.98845487E+03</totfact>
</mgrwt>
</event>
<event>
 5    1  0.3487578E-002  0.1250063E+03  0.7818608E-02  0.1235059E+00
         -4   -1    0    0    0  501 -0.00000000000E+00  0.00000000000E+00  0.12074753462E+03  0.12075421324E+03  0.12700000000E+01 0.  1.
          4   -1    0    0  501    0  0.00000000000E+00 -0.00000000000E+00 -0.32333803362E+02  0.32358735140E+02  0.12700000000E+01 0.  1.
         25    2    1    2    0    0  0.00000000000E+00  0.00000000000E+00  0.88413731254E+02  0.15311294838E+03  0.12500634819E+03 0.  0.
    9000005    1    3    3    0    0 -0.45005979273E+02 -0.32210881075E+02  0.79760357824E+02  0.97086526923E+02  0.10000000000E+01 0.  0.
    9000005    1    3    3    0    0  0.45005979273E+02  0.32210881075E+02  0.86533734309E+01  0.56026421460E+02  0.10000000000E+01 0.  0.
<mgrwt>
<rscale>  0 0.12500635E+03</rscale>
<asrwt>0</asrwt>
<pdfrwt beam="2">  1        4 0.49768628E-02 0.12500635E+03</pdfrwt>
<pdfrwt beam="1">  1       -4 0.18578975E-01 0.12500635E+03</pdfrwt>
<totfact> 0.98672666E+03</totfact>
</mgrwt>
</event>
<event>
 5    1  0.3487578E-002  0.1250038E+03  0.7818608E-02  0.1235063E+00
          4   -1    0    0  501    0  0.00000000000E+00  0.00000000000E+00  0.55163403207E+02  0.55178020564E+02  0.12700000000E+01 0.  1.
         -4   -1    0    0    0  501 -0.00000000000E+00 -0.00000000000E+00 -0.70786940615E+02  0.70798332336E+02  0.12700000000E+01 0.  1.
         25    2    1    2    0    0  0.00000000000E+00  0.00000000000E+00 -0.15623537407E+02  0.12597635290E+03  0.12500378622E+03 0.  0.
    9000005    1    3    3    0    0 -0.32485781585E+02 -0.51414032197E+02  0.66791844228E+01  0.61191014181E+02  0.10000000000E+01 0.  0.
    9000005    1    3    3    0    0  0.32485781585E+02  0.51414032197E+02 -0.22302721830E+02  0.64785338719E+02  0.10000000000E+01 0.  0.
<mgrwt>
<rscale>  0 0.12500379E+03</rscale>
<asrwt>0</asrwt>
<pdfrwt beam="1">  1        4 0.84886781E-02 0.12500379E+03</pdfrwt>
<pdfrwt beam="2">  1       -4 0.10892299E-01 0.12500379E+03</pdfrwt>
<totfact> 0.10430584E+04</totfact>
</mgrwt>
</event>
<event>
 5    1  0.3487578E-002  0.1249996E+03  0.7818608E-02  0.1235070E+00
          4   -1    0    0  501    0  0.00000000000E+00  0.00000000000E+00  0.94580039275E+03  0.94580124541E+03  0.12700000000E+01 0.  1.
         -4   -1    0    0    0  501 -0.00000000000E+00 -0.00000000000E+00 -0.40315657903E+01  0.42268691394E+01  0.12700000000E+01 0.  1.
         25    2    1    2    0    0  0.00000000000E+00  0.00000000000E+00  0.94176882696E+03  0.95002811455E+03  0.12499958003E+03 0.  0.
    9000005    1    3    3    0    0 -0.59885379794E+02  0.15767169900E+02  0.40713222231E+03  0.41181611042E+03  0.10000000000E+01 0.  0.
    9000005    1    3    3    0    0  0.59885379794E+02 -0.15767169900E+02  0.53463660465E+03  0.53821200413E+03  0.10000000000E+01 0.  0.
<mgrwt>
<rscale>  0 0.12499958E+03</rscale>
<asrwt>0</asrwt>
<pdfrwt beam="1">  1        4 0.14552284E+00 0.12499958E+03</pdfrwt>
<pdfrwt beam="2">  1       -4 0.63532984E-03 0.12499958E+03</pdfrwt>
<totfact> 0.32315268E+03</totfact>
</mgrwt>
</event>
<event>
 5    1  0.3487578E-002  0.1250010E+03  0.7818608E-02  0.1235068E+00
          4   -1    0    0  501    0  0.00000000000E+00  0.00000000000E+00  0.27531074900E+03  0.27531367822E+03  0.12700000000E+01 0.  1.
         -4   -1    0    0    0  501 -0.00000000000E+00 -0.00000000000E+00 -0.14157316810E+02  0.14214166148E+02  0.12700000000E+01 0.  1.
         25    2    1    2    0    0  0.00000000000E+00  0.00000000000E+00  0.26115343219E+03  0.28952784437E+03  0.12500103007E+03 0.  0.
    9000005    1    3    3    0    0  0.49140520189E+02  0.37934552615E+02  0.11395589722E+03  0.12977198279E+03  0.10000000000E+01 0.  0.
    9000005    1    3    3    0    0 -0.49140520189E+02 -0.37934552615E+02  0.14719753498E+03  0.15975586158E+03  0.10000000000E+01 0.  0.
<mgrwt>
<rscale>  0 0.12500103E+03</rscale>
<asrwt>0</asrwt>
<pdfrwt beam="1">  1        4 0.42360097E-01 0.12500103E+03</pdfrwt>
<pdfrwt beam="2">  1       -4 0.21826471E-02 0.12500103E+03</pdfrwt>
<totfact> 0.76929747E+03</totfact>
</mgrwt>
</event>
<event>
 5    1  0.3487578E-002  0.1250076E+03  0.7818608E-02  0.1235057E+00
         -4   -1    0    0    0  501 -0.00000000000E+00  0.00000000000E+00  0.59191333248E+02  0.59204956141E+02  0.12700000000E+01 0. -1.
          4   -1    0    0  501    0  0.00000000000E+00 -0.00000000000E+00 -0.65974322085E+02  0.65986544648E+02  0.12700000000E+01 0. -1.
         25    2    1    2    0    0  0.00000000000E+00  0.00000000000E+00 -0.67829888374E+01  0.12519150079E+03  0.12500761150E+03 0.  0.
    9000005    1    3    3    0    0 -0.57376102039E+02 -0.19382412170E+02  0.12059445997E+02  0.61758604457E+02  0.10000000000E+01 0.  0.
    9000005    1    3    3    0    0  0.57376102039E+02  0.19382412170E+02 -0.18842434834E+02  0.63432896333E+02  0.10000000000E+01 0.  0.
<mgrwt>
<rscale>  0 0.12500761E+03</rscale>
<asrwt>0</asrwt>
<pdfrwt beam="2">  1        4 0.10151884E-01 0.12500761E+03</pdfrwt>
<pdfrwt beam="1">  1       -4 0.91083471E-02 0.12500761E+03</pdfrwt>
<totfact> 0.10446908E+04</totfact>
</mgrwt>
</event>
<event>
 5    1  0.3487578E-002  0.1249959E+03  0.7818608E-02  0.1235076E+00
         -4   -1    0    0    0  501 -0.00000000000E+00  0.00000000000E+00  0.19207978138E+03  0.19208397985E+03  0.12700000000E+01 0.  1.
          4   -1    0    0  501    0  0.00000000000E+00 -0.00000000000E+00 -0.20311017344E+02  0.20350683663E+02  0.12700000000E+01 0.  1.
         25    2    1    2    0    0  0.00000000000E+00  0.00000000000E+00  0.17176876403E+03  0.21243466351E+03  0.12499591179E+03 0.  0.
    9000005    1    3    3    0    0 -0.59540728020E+02  0.17536773933E+02  0.73586789639E+02  0.96273840385E+02  0.10000000000E+01 0.  0.
    9000005    1    3    3    0    0  0.59540728020E+02 -0.17536773933E+02  0.98181974393E+02  0.11616082312E+03  0.10000000000E+01 0.  0.
<mgrwt>
<rscale>  0 0.12499591E+03</rscale>
<asrwt>0</asrwt>
<pdfrwt beam="2">  1        4 0.31281462E-02 0.12499591E+03</pdfrwt>
<pdfrwt beam="1">  1       -4 0.29554109E-01 0.12499591E+03</pdfrwt>
<totfact> 0.88087855E+03</totfact>
</mgrwt>
</event>
<event>
 5    1  0.3487578E-002  0.1249970E+03  0.7818608E-02  0.1235074E+00
          4   -1    0    0  501    0  0.00000000000E+00  0.00000000000E+00  0.18713167571E+03  0.18713598519E+03  0.12700000000E+01 0. -1.
         -4   -1    0    0    0  501 -0.00000000000E+00 -0.00000000000E+00 -0.20849460856E+02  0.20888104700E+02  0.12700000000E+01 0. -1.
         25    2    1    2    0    0  0.00000000000E+00  0.00000000000E+00  0.16628221485E+03  0.20802408989E+03  0.12499698796E+03 0.  0.
    9000005    1    3    3    0    0 -0.20719570687E+02 -0.27888239583E+02  0.16958526325E+03  0.17311041571E+03  0.10000000000E+01 0.  0.
    9000005    1    3    3    0    0  0.20719570687E+02  0.27888239583E+02 -0.33030483907E+01  0.34913674186E+02  0.10000000000E+01 0.  0.
<mgrwt>
<rscale>  0 0.12499699E+03</rscale>
<asrwt>0</asrwt>
<pdfrwt beam="1">  1        4 0.28792794E-01 0.12499699E+03</pdfrwt>
<pdfrwt beam="2">  1       -4 0.32109133E-02 0.12499699E+03</pdfrwt>
<totfact> 0.88805572E+03</totfact>
</mgrwt>
</event>
<event>
 5    1  0.3487578E-002  0.1250001E+03  0.7818608E-02  0.1235069E+00
         -4   -1    0    0    0  501 -0.00000000000E+00  0.00000000000E+00  0.10222489427E+02  0.10301077132E+02  0.12700000000E+01 0.  1.
          4   -1    0    0  501    0  0.00000000000E+00 -0.00000000000E+00 -0.38058106493E+03  0.38058318392E+03  0.12700000000E+01 0.  1.
         25    2    1    2    0    0  0.00000000000E+00  0.00000000000E+00 -0.37035857550E+03  0.39088426105E+03  0.12500012436E+03 0.  0.
    9000005    1    3    3    0    0 -0.41698977172E+02 -0.14992376776E+02 -0.32297216196E+03  0.32599937647E+03  0.10000000000E+01 0.  0.
    9000005    1    3    3    0    0  0.41698977172E+02  0.14992376776E+02 -0.47386413544E+02  0.64884884582E+02  0.10000000000E+01 0.  0.
<mgrwt>
<rscale>  0 0.12500012E+03</rscale>
<asrwt>0</asrwt>
<pdfrwt beam="2">  1        4 0.58557130E-01 0.12500012E+03</pdfrwt>
<pdfrwt beam="1">  1       -4 0.15788992E-02 0.12500012E+03</pdfrwt>
<totfact> 0.65448962E+03</totfact>
</mgrwt>
</event>
<event>
 5    1  0.3487578E-002  0.1250007E+03  0.7818608E-02  0.1235068E+00
          4   -1    0    0  501    0  0.00000000000E+00  0.00000000000E+00  0.34353736702E+01  0.36626073027E+01  0.12700000000E+01 0.  1.
         -4   -1    0    0    0  501 -0.00000000000E+00 -0.00000000000E+00 -0.11004504405E+04  0.11004511733E+04  0.12700000000E+01 0.  1.
         25    2    1    2    0    0  0.00000000000E+00  0.00000000000E+00 -0.10970150668E+04  0.11041137806E+04  0.12500073497E+03 0.  0.
    9000005    1    3    3    0    0 -0.23753515098E+02 -0.55070306424E+02 -0.39340902870E+03  0.39795556535E+03  0.10000000000E+01 0.  0.
    9000005    1    3    3    0    0  0.23753515098E+02  0.55070306424E+02 -0.70360603810E+03  0.70615821526E+03  0.10000000000E+01 0.  0.
<mgrwt>
<rscale>  0 0.12500073E+03</rscale>
<asrwt>0</asrwt>
<pdfrwt beam="1">  1        4 0.54605579E-03 0.12500073E+03</pdfrwt>
<pdfrwt beam="2">  1       -4 0.16931733E+00 0.12500073E+03</pdfrwt>
<totfact> 0.27362916E+03</totfact>
</mgrwt>
</event>
<event>
 5    1  0.3487578E-002  0.1249972E+03  0.7818608E-02  0.1235074E+00
         -4   -1    0    0    0  501 -0.00000000000E+00  0.00000000000E+00  0.39713341377E+02  0.39733642966E+02  0.12700000000E+01 0.  1.
          4   -1    0    0  501    0  0.00000000000E+00 -0.00000000000E+00 -0.98307183043E+02  0.98315386068E+02  0.12700000000E+01 0.  1.
         25    2    1    2    0    0  0.00000000000E+00  0.00000000000E+00 -0.58593841665E+02  0.13804902903E+03  0.12499718451E+03 0.  0.
    9000005    1    3    3    0    0 -0.56594642216E+02 -0.20062302269E+02 -0.10179829659E+02  0.60910413164E+02  0.10000000000E+01 0.  0.
    9000005    1    3    3    0    0  0.56594642216E+02  0.20062302269E+02 -0.48414012006E+02  0.77138615871E+02  0.10000000000E+01 0.  0.
<mgrwt>
<rscale>  0 0.12499718E+03</rscale>
<asrwt>0</asrwt>
<pdfrwt beam="2">  1        4 0.15126375E-01 0.12499718E+03</pdfrwt>
<pdfrwt beam="1">  1       -4 0.61119375E-02 0.12499718E+03</pdfrwt>
<totfact> 0.10174827E+04</totfact>
</mgrwt>
</event>
<event>
 5    1  0.3487578E-002  0.1250009E+03  0.7818608E-02  0.1235068E+00
         -4   -1    0    0    0  501 -0.00000000000E+00  0.00000000000E+00  0.12557388297E+04  0.12557394719E+04  0.12700000000E+01 0.  1.
          4   -1    0    0  501    0  0.00000000000E+00 -0.00000000000E+00 -0.29804717667E+01  0.32397703548E+01  0.12700000000E+01 0.  1.
         25    2    1    2    0    0  0.00000000000E+00  0.00000000000E+00  0.12527583580E+04  0.12589792423E+04  0.12500091634E+03 0.  0.
    9000005    1    3    3    0    0  0.20043483139E+02  0.71885657139E+01  0.12181232064E+04  0.12183097154E+04  0.10000000000E+01 0.  0.
    9000005    1    3    3    0    0 -0.20043483139E+02 -0.71885657139E+01  0.34635151568E+02  0.40669526890E+02  0.10000000000E+01 0.  0.
<mgrwt>
<rscale>  0 0.12500092E+03</rscale>
<asrwt>0</asrwt>
<pdfrwt beam="2">  1        4 0.47852889E-03 0.12500092E+03</pdfrwt>
<pdfrwt beam="1">  1       -4 0.19321086E+00 0.12500092E+03</pdfrwt>
<totfact> 0.23217343E+03</totfact>
</mgrwt>
</event>
<event>
 5    1  0.3487578E-002  0.1249969E+03  0.7818608E-02  0.1235074E+00
         -4   -1    0    0    0  501 -0.00000000000E+00  0.00000000000E+00  0.88249246987E+02  0.88258384836E+02  0.12700000000E+01 0.  1.
          4   -1    0    0  501    0  0.00000000000E+00 -0.00000000000E+00 -0.44241100025E+02  0.44259324797E+02  0.12700000000E+01 0.  1.
         25    2    1    2    0    0  0.00000000000E+00  0.00000000000E+00  0.44008146962E+02  0.13251770963E+03  0.12499690543E+03 0.  0.
    9000005    1    3    3    0    0 -0.27756163777E+02  0.18523184805E+02  0.78018109549E+02  0.84860700094E+02  0.10000000000E+01 0.  0.
    9000005    1    3    3    0    0  0.27756163777E+02 -0.18523184805E+02 -0.34009962587E+02  0.47657009538E+02  0.10000000000E+01 0.  0.
<mgrwt>
<rscale>  0 0.12499691E+03</rscale>
<asrwt>0</asrwt>
<pdfrwt beam="2">  1        4 0.68084280E-02 0.12499691E+03</pdfrwt>
<pdfrwt beam="1">  1       -4 0.13578912E-01 0.12499691E+03</pdfrwt>
<totfact> 0.10291379E+04</totfact>
</mgrwt>
</event>
<event>
 5    1  0.3487578E-002  0.1250007E+03  0.7818608E-02  0.1235068E+00
         -4   -1    0    0    0  501 -0.00000000000E+00  0.00000000000E+00  0.82682829153E+02  0.82692582114E+02  0.12700000000E+01 0.  1.
          4   -1    0    0  501    0  0.00000000000E+00 -0.00000000000E+00 -0.47223254136E+02  0.47240328441E+02  0.12700000000E+01 0.  1.
         25    2    1    2    0    0  0.00000000000E+00  0.00000000000E+00  0.35459575017E+02  0.12993291055E+03  0.12500071914E+03 0.  0.
    9000005    1    3    3    0    0 -0.14807415363E+02  0.23834102157E+02  0.75771830314E+02  0.80806523527E+02  0.10000000000E+01 0.  0.
    9000005    1    3    3    0    0  0.14807415363E+02 -0.23834102157E+02 -0.40312255297E+02  0.49126387028E+02  0.10000000000E+01 0.  0.
<mgrwt>
<rscale>  0 0.12500072E+03</rscale>
<asrwt>0</asrwt>
<pdfrwt beam="2">  1        4 0.72671797E-02 0.12500072E+03</pdfrwt>
<pdfrwt beam="1">  1       -4 0.12722499E-01 0.12500072E+03</pdfrwt>
<totfact> 0.10345775E+04</totfact>
</mgrwt>
</event>
<event>
 5    1  0.3487578E-002  0.1250017E+03  0.7818608E-02  0.1235067E+00
          4   -1    0    0  501    0  0.00000000000E+00  0.00000000000E+00  0.64533921055E+03  0.64534046021E+03  0.12700000000E+01 0. -1.
         -4   -1    0    0    0  501 -0.00000000000E+00 -0.00000000000E+00 -0.59852969662E+01  0.61185520979E+01  0.12700000000E+01 0. -1.
         25    2    1    2    0    0  0.00000000000E+00  0.00000000000E+00  0.63935391359E+03  0.65145901230E+03  0.12500167155E+03 0.  0.
    9000005    1    3    3    0    0  0.31504169644E+02 -0.39586228518E+02  0.12849052617E+03  0.13809561003E+03  0.10000000000E+01 0.  0.
    9000005    1    3    3    0    0 -0.31504169644E+02  0.39586228518E+02  0.51086338742E+03  0.51336340228E+03  0.10000000000E+01 0.  0.
<mgrwt>
<rscale>  0 0.12500167E+03</rscale>
<asrwt>0</asrwt>
<pdfrwt beam="1">  1        4 0.99293300E-01 0.12500167E+03</pdfrwt>
<pdfrwt beam="2">  1       -4 0.93116146E-03 0.12500167E+03</pdfrwt>
<totfact> 0.45770670E+03</totfact>
</mgrwt>
</event>
<event>
 5    1  0.3487578E-002  0.1250003E+03  0.7818608E-02  0.1235069E+00
          4   -1    0    0  501    0  0.00000000000E+00  0.00000000000E+00  0.15731441122E+02  0.15782621448E+02  0.12700000000E+01 0. -1.
         -4   -1    0    0    0  501 -0.00000000000E+00 -0.00000000000E+00 -0.24785340207E+03  0.24785665579E+03  0.12700000000E+01 0. -1.
         25    2    1    2    0    0  0.00000000000E+00  0.00000000000E+00 -0.23212196095E+03  0.26363927724E+03  0.12500025499E+03 0.  0.
    9000005    1    3    3    0    0 -0.45894833035E+01  0.62318492955E+02 -0.11441639459E+03  0.13037165824E+03  0.10000000000E+01 0.  0.
    9000005    1    3    3    0    0  0.45894833035E+01 -0.62318492955E+02 -0.11770556637E+03  0.13326761900E+03  0.10000000000E+01 0.  0.
<mgrwt>
<rscale>  0 0.12500025E+03</rscale>
<asrwt>0</asrwt>
<pdfrwt beam="1">  1        4 0.24244091E-02 0.12500025E+03</pdfrwt>
<pdfrwt beam="2">  1       -4 0.38135477E-01 0.12500025E+03</pdfrwt>
<totfact> 0.80397582E+03</totfact>
</mgrwt>
</event>
<event>
 5    1  0.3487578E-002  0.1250031E+03  0.7818608E-02  0.1235065E+00
         -4   -1    0    0    0  501 -0.00000000000E+00  0.00000000000E+00  0.64847208484E+02  0.64859643448E+02  0.12700000000E+01 0.  1.
          4   -1    0    0  501    0  0.00000000000E+00 -0.00000000000E+00 -0.60215792284E+02  0.60229183462E+02  0.12700000000E+01 0.  1.
         25    2    1    2    0    0  0.00000000000E+00  0.00000000000E+00  0.46314161999E+01  0.12508882691E+03  0.12500305837E+03 0.  0.
    9000005    1    3    3    0    0 -0.80832597511E+01  0.34696872006E+02 -0.49063742814E+02  0.60642088306E+02  0.10000000000E+01 0.  0.
    9000005    1    3    3    0    0  0.80832597511E+01 -0.34696872006E+02  0.53695159014E+02  0.64446738604E+02  0.10000000000E+01 0.  0.
<mgrwt>
<rscale>  0 0.12500306E+03</rscale>
<asrwt>0</asrwt>
<pdfrwt beam="2">  1        4 0.92659547E-02 0.12500306E+03</pdfrwt>
<pdfrwt beam="1">  1       -4 0.99784802E-02 0.12500306E+03</pdfrwt>
<totfact> 0.10450211E+04</totfact>
</mgrwt>
</event>
<event>
 5    1  0.3487578E-002  0.1249993E+03  0.7818608E-02  0.1235070E+00
         -4   -1    0    0    0  501 -0.00000000000E+00  0.00000000000E+00  0.67430081122E+01  0.68615638452E+01  0.12700000000E+01 0.  1.
          4   -1    0    0  501    0  0.00000000000E+00 -0.00000000000E+00 -0.57412957412E+03  0.57413097877E+03  0.12700000000E+01 0.  1.
         25    2    1    2    0    0  0.00000000000E+00  0.00000000000E+00 -0.56738656601E+03  0.58099254261E+03  0.12499927713E+03 0.  0.
    9000005    1    3    3    0    0 -0.18060799935E+02  0.16944379708E+02 -0.17015770951E+02  0.30063947828E+02  0.10000000000E+01 0.  0.
    9000005    1    3    3    0    0  0.18060799935E+02 -0.16944379708E+02 -0.55037079506E+03  0.55092859479E+03  0.10000000000E+01 0.  0.
<mgrwt>
<rscale>  0 0.12499928E+03</rscale>
<asrwt>0</asrwt>
<pdfrwt beam="2">  1        4 0.88336817E-01 0.12499928E+03</pdfrwt>
<pdfrwt beam="1">  1       -4 0.10466140E-02 0.12499928E+03</pdfrwt>
<totfact> 0.50090635E+03</totfact>
</mgrwt>
</event>
<event>
 5    1  0.3487578E-002  0.1249901E+03  0.7818608E-02  0.1235085E+00
         -4   -1    0    0    0  501 -0.00000000000E+00  0.00000000000E+00  0.11088100252E+03  0.11088827540E+03  0.12700000000E+01 0.  1.
          4   -1    0    0  501    0  0.00000000000E+00 -0.00000000000E+00 -0.35203763418E+02  0.35226664031E+02  0.12700000000E+01 0.  1.
         25    2    1    2    0    0  0.00000000000E+00  0.00000000000E+00  0.75677239106E+02  0.14611493943E+03  0.12499012363E+03 0.  0.
    9000005    1    3    3    0    0  0.58987491062E+02 -0.33369958541E+01  0.61623720000E+02  0.85376475154E+02  0.10000000000E+01 0.  0.
    9000005    1    3    3    0    0 -0.58987491062E+02  0.33369958541E+01  0.14053519106E+02  0.60738464275E+02  0.10000000000E+01 0.  0.
<mgrwt>
<rscale>  0 0.12499012E+03</rscale>
<asrwt>0</asrwt>
<pdfrwt beam="2">  1        4 0.54182846E-02 0.12499012E+03</pdfrwt>
<pdfrwt beam="1">  1       -4 0.17060937E-01 0.12499012E+03</pdfrwt>
<totfact> 0.10010610E+04</totfact>
</mgrwt>
</event>
<event>
 5    1  0.3487578E-002  0.1250015E+03  0.7818608E-02  0.1235067E+00
          4   -1    0    0  501    0  0.00000000000E+00  0.00000000000E+00  0.25798984823E+03  0.25799297411E+03  0.12700000000E+01 0.  1.
         -4   -1    0    0    0  501 -0.00000000000E+00 -0.00000000000E+00 -0.15111620077E+02  0.15164892395E+02  0.12700000000E+01 0.  1.
         25    2    1    2    0    0  0.00000000000E+00  0.00000000000E+00  0.24287822815E+03  0.27315786651E+03  0.12500154528E+03 0.  0.
    9000005    1    3    3    0    0 -0.31509235097E+02  0.45367927643E+02  0.18530880973E+03  0.19336865237E+03  0.10000000000E+01 0.  0.
    9000005    1    3    3    0    0  0.31509235097E+02 -0.45367927643E+02  0.57569418421E+02  0.79789214135E+02  0.10000000000E+01 0.  0.
<mgrwt>
<rscale>  0 0.12500155E+03</rscale>
<asrwt>0</asrwt>
<pdfrwt beam="1">  1        4 0.39695080E-01 0.12500155E+03</pdfrwt>
<pdfrwt beam="2">  1       -4 0.23292032E-02 0.12500155E+03</pdfrwt>
<totfact> 0.79091442E+03</totfact>
</mgrwt>
</event>
<event>
 5    1  0.3487578E-002  0.1249955E+03  0.7818608E-02  0.1235076E+00
         -4   -1    0    0    0  501 -0.00000000000E+00  0.00000000000E+00  0.84432416503E+01  0.85382216863E+01  0.12700000000E+01 0. -1.
          4   -1    0    0  501    0  0.00000000000E+00 -0.00000000000E+00 -0.45993121317E+03  0.45993296658E+03  0.12700000000E+01 0. -1.
         25    2    1    2    0    0  0.00000000000E+00  0.00000000000E+00 -0.45148797152E+03  0.46847118827E+03  0.12499546316E+03 0.  0.
    9000005    1    3    3    0    0  0.37779188725E+02  0.49774718549E+02 -0.22731964480E+03  0.23575413171E+03  0.10000000000E+01 0.  0.
    9000005    1    3    3    0    0 -0.37779188725E+02 -0.49774718549E+02 -0.22416832672E+03  0.23271705655E+03  0.10000000000E+01 0.  0.
<mgrwt>
<rscale>  0 0.12499546E+03</rscale>
<asrwt>0</asrwt>
<pdfrwt beam="2">  1        4 0.70766070E-01 0.12499546E+03</pdfrwt>
<pdfrwt beam="1">  1       -4 0.13064016E-02 0.12499546E+03</pdfrwt>
<totfact> 0.58402221E+03</totfact>
</mgrwt>
</event>
<event>
 5    1  0.3487578E-002  0.1250012E+03  0.7818608E-02  0.1235067E+00
          4   -1    0    0  501    0  0.00000000000E+00  0.00000000000E+00  0.12812105139E+03  0.12812734567E+03  0.12700000000E+01 0.  1.
         -4   -1    0    0    0  501 -0.00000000000E+00 -0.00000000000E+00 -0.30469041323E+02  0.30495497686E+02  0.12700000000E+01 0.  1.
         25    2    1    2    0    0  0.00000000000E+00  0.00000000000E+00  0.97652010064E+02  0.15862284336E+03  0.12500116545E+03 0.  0.
    9000005    1    3    3    0    0 -0.53290273115E+02  0.32025940072E+02  0.40819533123E+02  0.74382446388E+02  0.10000000000E+01 0.  0.
    9000005    1    3    3    0    0  0.53290273115E+02 -0.32025940072E+02  0.56832476941E+02  0.84240396969E+02  0.10000000000E+01 0.  0.
<mgrwt>
<rscale>  0 0.12500117E+03</rscale>
<asrwt>0</asrwt>
<pdfrwt beam="1">  1        4 0.19713451E-01 0.12500117E+03</pdfrwt>
<pdfrwt beam="2">  1       -4 0.46900640E-02 0.12500117E+03</pdfrwt>
<totfact> 0.97606391E+03</totfact>
</mgrwt>
</event>
