<event>
 5    1  0.3272646E-002  0.1249988E+03  0.7818608E-02  0.1235071E+00
          4   -1    0    0  501    0  0.00000000000E+00  0.00000000000E+00  0.10153542875E+02  0.10232660110E+02  0.12700000000E+01 0. -1.
         -4   -1    0    0    0  501 -0.00000000000E+00 -0.00000000000E+00 -0.38313753632E+03  0.38313964117E+03  0.12700000000E+01 0. -1.
         25    2    1    2    0    0  0.00000000000E+00  0.00000000000E+00 -0.37298399345E+03  0.39337230128E+03  0.12499883219E+03 0.  0.
    9000005    1    3    3    0    0 -0.29947330574E+02 -0.11037373490E+02 -0.35556895006E+03  0.35699992223E+03  0.10000000000E+01 0.  0.
    9000005    1    3    3    0    0  0.29947330574E+02  0.11037373490E+02 -0.17415043383E+02  0.36372379055E+02  0.10000000000E+01 0.  0.
<mgrwt>
<rscale>  0 0.12499883E+03</rscale>
<asrwt>0</asrwt>
<pdfrwt beam="1">  1        4 0.15683317E-02 0.12499883E+03</pdfrwt>
<pdfrwt beam="2">  1       -4 0.58950473E-01 0.12499883E+03</pdfrwt>
<totfact> 0.65204223E+03</totfact>
</mgrwt>
</event>
<event>
 5    1  0.3272646E-002  0.1250010E+03  0.7818608E-02  0.1235068E+00
          4   -1    0    0  501    0  0.00000000000E+00  0.00000000000E+00  0.56893267274E+02  0.56907440297E+02  0.12700000000E+01 0.  1.
         -4   -1    0    0    0  501 -0.00000000000E+00 -0.00000000000E+00 -0.68631749788E+02  0.68643499175E+02  0.12700000000E+01 0.  1.
         25    2    1    2    0    0  0.00000000000E+00  0.00000000000E+00 -0.11738482514E+02  0.12555093947E+03  0.12500098572E+03 0.  0.
    9000005    1    3    3    0    0 -0.17773600890E+02 -0.39515855303E+02 -0.51099663542E+02  0.67004323167E+02  0.10000000000E+01 0.  0.
    9000005    1    3    3    0    0  0.17773600890E+02  0.39515855303E+02  0.39361181028E+02  0.58546616306E+02  0.10000000000E+01 0.  0.
<mgrwt>
<rscale>  0 0.12500099E+03</rscale>
<asrwt>0</asrwt>
<pdfrwt beam="1">  1        4 0.87548044E-02 0.12500099E+03</pdfrwt>
<pdfrwt beam="2">  1       -4 0.10560725E-01 0.12500099E+03</pdfrwt>
<totfact> 0.10440597E+04</totfact>
</mgrwt>
</event>
<event>
 5    1  0.3272646E-002  0.1250019E+03  0.7818608E-02  0.1235066E+00
          4   -1    0    0  501    0  0.00000000000E+00  0.00000000000E+00  0.22417054429E+02  0.22453000452E+02  0.12700000000E+01 0. -1.
         -4   -1    0    0    0  501 -0.00000000000E+00 -0.00000000000E+00 -0.17408102653E+03  0.17408565908E+03  0.12700000000E+01 0. -1.
         25    2    1    2    0    0  0.00000000000E+00  0.00000000000E+00 -0.15166397210E+03  0.19653865953E+03  0.12500193701E+03 0.  0.
    9000005    1    3    3    0    0 -0.39467898647E+02 -0.48326583781E+02 -0.70340829480E+02  0.94031941464E+02  0.10000000000E+01 0.  0.
    9000005    1    3    3    0    0  0.39467898647E+02  0.48326583781E+02 -0.81323142619E+02  0.10250671807E+03  0.10000000000E+01 0.  0.
<mgrwt>
<rscale>  0 0.12500194E+03</rscale>
<asrwt>0</asrwt>
<pdfrwt beam="1">  1        4 0.34518991E-02 0.12500194E+03</pdfrwt>
<pdfrwt beam="2">  1       -4 0.26784817E-01 0.12500194E+03</pdfrwt>
<totfact> 0.90717958E+03</totfact>
</mgrwt>
</event>
<event>
 5    1  0.3272646E-002  0.1249950E+03  0.7818608E-02  0.1235077E+00
         -4   -1    0    0    0  501 -0.00000000000E+00  0.00000000000E+00  0.42037414628E+02  0.42056594354E+02  0.12700000000E+01 0. -1.
          4   -1    0    0  501    0  0.00000000000E+00 -0.00000000000E+00 -0.92870980309E+02  0.92879663456E+02  0.12700000000E+01 0. -1.
         25    2    1    2    0    0  0.00000000000E+00  0.00000000000E+00 -0.50833565681E+02  0.13493625781E+03  0.12499496899E+03 0.  0.
    9000005    1    3    3    0    0 -0.12550169153E+02  0.45785031432E+02 -0.69283049179E+02  0.83993551851E+02  0.10000000000E+01 0.  0.
    9000005    1    3    3    0    0  0.12550169153E+02 -0.45785031432E+02  0.18449483498E+02  0.50942705958E+02  0.10000000000E+01 0.  0.
<mgrwt>
<rscale>  0 0.12499497E+03</rscale>
<asrwt>0</asrwt>
<pdfrwt beam="2">  1        4 0.14289986E-01 0.12499497E+03</pdfrwt>
<pdfrwt beam="1">  1       -4 0.64694379E-02 0.12499497E+03</pdfrwt>
<totfact> 0.10240576E+04</totfact>
</mgrwt>
</event>
<event>
 5    1  0.3272646E-002  0.1250021E+03  0.7818608E-02  0.1235066E+00
         -4   -1    0    0    0  501 -0.00000000000E+00  0.00000000000E+00  0.82803945668E+02  0.82813684365E+02  0.12700000000E+01 0. -1.
          4   -1    0    0  501    0  0.00000000000E+00 -0.00000000000E+00 -0.47155227309E+02  0.47172326237E+02  0.12700000000E+01 0. -1.
         25    2    1    2    0    0  0.00000000000E+00  0.00000000000E+00  0.35648718358E+02  0.12998601060E+03  0.12500212731E+03 0.  0.
    9000005    1    3    3    0    0  0.42598459068E+02 -0.14293374183E+02 -0.27340669055E+02  0.52606477215E+02  0.10000000000E+01 0.  0.
    9000005    1    3    3    0    0 -0.42598459068E+02  0.14293374183E+02  0.62989387414E+02  0.77379533387E+02  0.10000000000E+01 0.  0.
<mgrwt>
<rscale>  0 0.12500213E+03</rscale>
<asrwt>0</asrwt>
<pdfrwt beam="2">  1        4 0.72567148E-02 0.12500213E+03</pdfrwt>
<pdfrwt beam="1">  1       -4 0.12741133E-01 0.12500213E+03</pdfrwt>
<totfact> 0.10344310E+04</totfact>
</mgrwt>
</event>
<event>
 5    1  0.3272646E-002  0.1250035E+03  0.7818608E-02  0.1235064E+00
         -4   -1    0    0    0  501 -0.00000000000E+00  0.00000000000E+00  0.63549317328E+01  0.64805908163E+01  0.12700000000E+01 0.  1.
          4   -1    0    0  501    0  0.00000000000E+00 -0.00000000000E+00 -0.60857029020E+03  0.60857161536E+03  0.12700000000E+01 0.  1.
         25    2    1    2    0    0  0.00000000000E+00  0.00000000000E+00 -0.60221535847E+03  0.61505220617E+03  0.12500351331E+03 0.  0.
    9000005    1    3    3    0    0 -0.40477505212E+02  0.35486436348E+02 -0.45730264238E+03  0.46046109751E+03  0.10000000000E+01 0.  0.
    9000005    1    3    3    0    0  0.40477505212E+02 -0.35486436348E+02 -0.14491271609E+03  0.15459110866E+03  0.10000000000E+01 0.  0.
<mgrwt>
<rscale>  0 0.12500351E+03</rscale>
<asrwt>0</asrwt>
<pdfrwt beam="2">  1        4 0.93635921E-01 0.12500351E+03</pdfrwt>
<pdfrwt beam="1">  1       -4 0.98745030E-03 0.12500351E+03</pdfrwt>
<totfact> 0.47927377E+03</totfact>
</mgrwt>
</event>
<event>
 5    1  0.3272646E-002  0.1250036E+03  0.7818608E-02  0.1235064E+00
         -4   -1    0    0    0  501 -0.00000000000E+00  0.00000000000E+00  0.60382742090E+02  0.60396096251E+02  0.12700000000E+01 0.  1.
          4   -1    0    0  501    0  0.00000000000E+00 -0.00000000000E+00 -0.64668469642E+02  0.64680938969E+02  0.12700000000E+01 0.  1.
         25    2    1    2    0    0  0.00000000000E+00  0.00000000000E+00 -0.42857275519E+01  0.12507703522E+03  0.12500358906E+03 0.  0.
    9000005    1    3    3    0    0 -0.13098186349E+02  0.44662577421E+02 -0.43870676022E+02  0.63968308733E+02  0.10000000000E+01 0.  0.
    9000005    1    3    3    0    0  0.13098186349E+02 -0.44662577421E+02  0.39584948470E+02  0.61108726487E+02  0.10000000000E+01 0.  0.
<mgrwt>
<rscale>  0 0.12500359E+03</rscale>
<asrwt>0</asrwt>
<pdfrwt beam="2">  1        4 0.99509817E-02 0.12500359E+03</pdfrwt>
<pdfrwt beam="1">  1       -4 0.92916391E-02 0.12500359E+03</pdfrwt>
<totfact> 0.10450342E+04</totfact>
</mgrwt>
</event>
<event>
 5    1  0.3272646E-002  0.1250002E+03  0.7818608E-02  0.1235069E+00
         -4   -1    0    0    0  501 -0.00000000000E+00  0.00000000000E+00  0.13741127079E+03  0.13741713954E+03  0.12700000000E+01 0.  1.
          4   -1    0    0  501    0  0.00000000000E+00 -0.00000000000E+00 -0.28406883734E+02  0.28435258808E+02  0.12700000000E+01 0.  1.
         25    2    1    2    0    0  0.00000000000E+00  0.00000000000E+00  0.10900438705E+03  0.16585239835E+03  0.12500024656E+03 0.  0.
    9000005    1    3    3    0    0 -0.13257860894E+02  0.58310325857E+02  0.78583107675E+02  0.98753074833E+02  0.10000000000E+01 0.  0.
    9000005    1    3    3    0    0  0.13257860894E+02 -0.58310325857E+02  0.30421279376E+02  0.67099323513E+02  0.10000000000E+01 0.  0.
<mgrwt>
<rscale>  0 0.12500025E+03</rscale>
<asrwt>0</asrwt>
<pdfrwt beam="2">  1        4 0.43729240E-02 0.12500025E+03</pdfrwt>
<pdfrwt beam="1">  1       -4 0.21142829E-01 0.12500025E+03</pdfrwt>
<totfact> 0.96225672E+03</totfact>
</mgrwt>
</event>
<event>
 5    1  0.3272646E-002  0.1249992E+03  0.7818608E-02  0.1235071E+00
         -4   -1    0    0    0  501 -0.00000000000E+00  0.00000000000E+00  0.36874344559E+02  0.36896208297E+02  0.12700000000E+01 0.  1.
          4   -1    0    0  501    0  0.00000000000E+00 -0.00000000000E+00 -0.10587566657E+03  0.10588328325E+03  0.12700000000E+01 0.  1.
         25    2    1    2    0    0  0.00000000000E+00  0.00000000000E+00 -0.69001322011E+02  0.14277949155E+03  0.12499920307E+03 0.  0.
    9000005    1    3    3    0    0  0.48399868886E+02  0.20535209359E+02 -0.73083433067E+02  0.90035716915E+02  0.10000000000E+01 0.  0.
    9000005    1    3    3    0    0 -0.48399868886E+02 -0.20535209359E+02  0.40821110557E+01  0.52743774631E+02  0.10000000000E+01 0.  0.
<mgrwt>
<rscale>  0 0.12499920E+03</rscale>
<asrwt>0</asrwt>
<pdfrwt beam="2">  1        4 0.16290832E-01 0.12499920E+03</pdfrwt>
<pdfrwt beam="1">  1       -4 0.56752438E-02 0.12499920E+03</pdfrwt>
<totfact> 0.10076482E+04</totfact>
</mgrwt>
</event>
<event>
 5    1  0.3272646E-002  0.1250266E+03  0.7818608E-02  0.1235028E+00
          4   -1    0    0  501    0  0.00000000000E+00  0.00000000000E+00  0.24212678671E+04  0.24212682002E+04  0.12700000000E+01 0.  1.
         -4   -1    0    0    0  501 -0.00000000000E+00 -0.00000000000E+00 -0.13637779261E+01  0.18635423879E+01  0.12700000000E+01 0.  1.
         25    2    1    2    0    0  0.00000000000E+00  0.00000000000E+00  0.24199040892E+04  0.24231317426E+04  0.12502656113E+03 0.  0.
    9000005    1    3    3    0    0  0.53423381014E+02  0.79235653701E+00  0.58127297287E+03  0.58372421096E+03  0.10000000000E+01 0.  0.
    9000005    1    3    3    0    0 -0.53423381014E+02 -0.79235653701E+00  0.18386311163E+04  0.18394075316E+04  0.10000000000E+01 0.  0.
<mgrwt>
<rscale>  0 0.12502656E+03</rscale>
<asrwt>0</asrwt>
<pdfrwt beam="1">  1        4 0.37253852E+00 0.12502656E+03</pdfrwt>
<pdfrwt beam="2">  1       -4 0.24828283E-03 0.12502656E+03</pdfrwt>
<totfact> 0.52987507E+02</totfact>
</mgrwt>
</event>
<event>
 5    1  0.3272646E-002  0.1250076E+03  0.7818608E-02  0.1235057E+00
          4   -1    0    0  501    0  0.00000000000E+00  0.00000000000E+00  0.10214813085E+03  0.10215602546E+03  0.12700000000E+01 0.  1.
         -4   -1    0    0    0  501 -0.00000000000E+00 -0.00000000000E+00 -0.38225755040E+02  0.38246846254E+02  0.12700000000E+01 0.  1.
         25    2    1    2    0    0  0.00000000000E+00  0.00000000000E+00  0.63922375815E+02  0.14040287171E+03  0.12500758479E+03 0.  0.
    9000005    1    3    3    0    0  0.21691319089E+02  0.26164308374E+02  0.90866773832E+02  0.97019868806E+02  0.10000000000E+01 0.  0.
    9000005    1    3    3    0    0 -0.21691319089E+02 -0.26164308374E+02 -0.26944398017E+02  0.43383002904E+02  0.10000000000E+01 0.  0.
<mgrwt>
<rscale>  0 0.12500758E+03</rscale>
<asrwt>0</asrwt>
<pdfrwt beam="1">  1        4 0.15717327E-01 0.12500758E+03</pdfrwt>
<pdfrwt beam="2">  1       -4 0.58831151E-02 0.12500758E+03</pdfrwt>
<totfact> 0.10123513E+04</totfact>
</mgrwt>
</event>
<event>
 5    1  0.3272646E-002  0.1250012E+03  0.7818608E-02  0.1235067E+00
         -4   -1    0    0    0  501 -0.00000000000E+00  0.00000000000E+00  0.30993671480E+03  0.30993931677E+03  0.12700000000E+01 0.  1.
          4   -1    0    0  501    0  0.00000000000E+00 -0.00000000000E+00 -0.12568965539E+02  0.12632964605E+02  0.12700000000E+01 0.  1.
         25    2    1    2    0    0  0.00000000000E+00  0.00000000000E+00  0.29736774926E+03  0.32257228138E+03  0.12500119364E+03 0.  0.
    9000005    1    3    3    0    0 -0.47007785461E+02  0.40245853066E+02  0.17116048473E+03  0.18200651668E+03  0.10000000000E+01 0.  0.
    9000005    1    3    3    0    0  0.47007785461E+02 -0.40245853066E+02  0.12620726453E+03  0.14056576469E+03  0.10000000000E+01 0.  0.
<mgrwt>
<rscale>  0 0.12500119E+03</rscale>
<asrwt>0</asrwt>
<pdfrwt beam="2">  1        4 0.19388102E-02 0.12500119E+03</pdfrwt>
<pdfrwt beam="1">  1       -4 0.47687694E-01 0.12500119E+03</pdfrwt>
<totfact> 0.72849298E+03</totfact>
</mgrwt>
</event>
<event>
 5    1  0.3272646E-002  0.1249980E+03  0.7818608E-02  0.1235072E+00
         -4   -1    0    0    0  501 -0.00000000000E+00  0.00000000000E+00  0.33457727407E+02  0.33481822281E+02  0.12700000000E+01 0. -1.
          4   -1    0    0  501    0  0.00000000000E+00 -0.00000000000E+00 -0.11667846626E+03  0.11668537778E+03  0.12700000000E+01 0. -1.
         25    2    1    2    0    0  0.00000000000E+00  0.00000000000E+00 -0.83220738851E+02  0.15016720006E+03  0.12499798638E+03 0.  0.
    9000005    1    3    3    0    0  0.50937453602E+02 -0.35234463923E+02 -0.51591941295E+02  0.80615259312E+02  0.10000000000E+01 0.  0.
    9000005    1    3    3    0    0 -0.50937453602E+02  0.35234463923E+02 -0.31628797555E+02  0.69551940751E+02  0.10000000000E+01 0.  0.
<mgrwt>
<rscale>  0 0.12499799E+03</rscale>
<asrwt>0</asrwt>
<pdfrwt beam="2">  1        4 0.17952918E-01 0.12499799E+03</pdfrwt>
<pdfrwt beam="1">  1       -4 0.51497278E-02 0.12499799E+03</pdfrwt>
<totfact> 0.99274878E+03</totfact>
</mgrwt>
</event>
<event>
 5    1  0.3272646E-002  0.1249963E+03  0.7818608E-02  0.1235075E+00
         -4   -1    0    0    0  501 -0.00000000000E+00  0.00000000000E+00  0.20375828279E+01  0.24009672594E+01  0.12700000000E+01 0.  1.
          4   -1    0    0  501    0  0.00000000000E+00 -0.00000000000E+00 -0.17596785753E+04  0.17596790336E+04  0.12700000000E+01 0.  1.
         25    2    1    2    0    0  0.00000000000E+00  0.00000000000E+00 -0.17576409924E+04  0.17620800008E+04  0.12499628390E+03 0.  0.
    9000005    1    3    3    0    0 -0.50983772397E+02 -0.30983604862E+02 -0.11409230521E+04  0.11424822710E+04  0.10000000000E+01 0.  0.
    9000005    1    3    3    0    0  0.50983772397E+02  0.30983604862E+02 -0.61671794038E+03  0.61959772982E+03  0.10000000000E+01 0.  0.
<mgrwt>
<rscale>  0 0.12499628E+03</rscale>
<asrwt>0</asrwt>
<pdfrwt beam="2">  1        4 0.27074665E+00 0.12499628E+03</pdfrwt>
<pdfrwt beam="1">  1       -4 0.34146359E-03 0.12499628E+03</pdfrwt>
<totfact> 0.13298054E+03</totfact>
</mgrwt>
</event>
<event>
 5    1  0.3272646E-002  0.1249984E+03  0.7818608E-02  0.1235072E+00
         -4   -1    0    0    0  501 -0.00000000000E+00  0.00000000000E+00  0.40830669728E+03  0.40830867239E+03  0.12700000000E+01 0.  1.
          4   -1    0    0  501    0  0.00000000000E+00 -0.00000000000E+00 -0.95225474337E+01  0.96068626319E+01  0.12700000000E+01 0.  1.
         25    2    1    2    0    0  0.00000000000E+00  0.00000000000E+00  0.39878414985E+03  0.41791553502E+03  0.12499838495E+03 0.  0.
    9000005    1    3    3    0    0 -0.25691150617E+02  0.25613168782E+01  0.91267481855E+01  0.27402428663E+02  0.10000000000E+01 0.  0.
    9000005    1    3    3    0    0  0.25691150617E+02 -0.25613168782E+01  0.38965740166E+03  0.39051310636E+03  0.10000000000E+01 0.  0.
<mgrwt>
<rscale>  0 0.12499838E+03</rscale>
<asrwt>0</asrwt>
<pdfrwt beam="2">  1        4 0.14716451E-02 0.12499838E+03</pdfrwt>
<pdfrwt beam="1">  1       -4 0.62823048E-01 0.12499838E+03</pdfrwt>
<totfact> 0.62849101E+03</totfact>
</mgrwt>
</event>
<event>
 5    1  0.3272646E-002  0.1249968E+03  0.7818608E-02  0.1235074E+00
          4   -1    0    0  501    0  0.00000000000E+00  0.00000000000E+00  0.27044051422E+02  0.27073854866E+02  0.12700000000E+01 0. -1.
         -4   -1    0    0    0  501 -0.00000000000E+00 -0.00000000000E+00 -0.14432078961E+03  0.14432637740E+03  0.12700000000E+01 0. -1.
         25    2    1    2    0    0  0.00000000000E+00  0.00000000000E+00 -0.11727673819E+03  0.17140023227E+03  0.12499682517E+03 0.  0.
    9000005    1    3    3    0    0 -0.27341043495E+02 -0.54933476783E+02 -0.74853325206E+02  0.96794833671E+02  0.10000000000E+01 0.  0.
    9000005    1    3    3    0    0  0.27341043495E+02  0.54933476783E+02 -0.42423412985E+02  0.74605398600E+02  0.10000000000E+01 0.  0.
<mgrwt>
<rscale>  0 0.12499683E+03</rscale>
<asrwt>0</asrwt>
<pdfrwt beam="1">  1        4 0.41633458E-02 0.12499683E+03</pdfrwt>
<pdfrwt beam="2">  1       -4 0.22205920E-01 0.12499683E+03</pdfrwt>
<totfact> 0.95195077E+03</totfact>
</mgrwt>
</event>
<event>
 5    1  0.3272646E-002  0.1250364E+03  0.7818608E-02  0.1235012E+00
          4   -1    0    0  501    0  0.00000000000E+00  0.00000000000E+00  0.35203177376E+02  0.35226078370E+02  0.12700000000E+01 0.  1.
         -4   -1    0    0    0  501 -0.00000000000E+00 -0.00000000000E+00 -0.11096497134E+03  0.11097223871E+03  0.12700000000E+01 0.  1.
         25    2    1    2    0    0  0.00000000000E+00  0.00000000000E+00 -0.75761793967E+02  0.14619831708E+03  0.12503638868E+03 0.  0.
    9000005    1    3    3    0    0 -0.30075999494E+01  0.31988103236E+02 -0.10057735679E+03  0.10558924711E+03  0.10000000000E+01 0.  0.
    9000005    1    3    3    0    0  0.30075999494E+01 -0.31988103236E+02  0.24815562823E+02  0.40609069976E+02  0.10000000000E+01 0.  0.
<mgrwt>
<rscale>  0 0.12503639E+03</rscale>
<asrwt>0</asrwt>
<pdfrwt beam="1">  1        4 0.54181941E-02 0.12503639E+03</pdfrwt>
<pdfrwt beam="2">  1       -4 0.17073855E-01 0.12503639E+03</pdfrwt>
<totfact> 0.99985040E+03</totfact>
</mgrwt>
</event>
<event>
 5    1  0.3272646E-002  0.1250041E+03  0.7818608E-02  0.1235063E+00
         -4   -1    0    0    0  501 -0.00000000000E+00  0.00000000000E+00  0.28690677336E+02  0.28718772014E+02  0.12700000000E+01 0. -1.
          4   -1    0    0  501    0  0.00000000000E+00 -0.00000000000E+00 -0.13606175559E+03  0.13606768254E+03  0.12700000000E+01 0. -1.
         25    2    1    2    0    0  0.00000000000E+00  0.00000000000E+00 -0.10737107825E+03  0.16478645456E+03  0.12500410858E+03 0.  0.
    9000005    1    3    3    0    0  0.48477356580E+02 -0.38854415750E+02 -0.44765461560E+02  0.76581109113E+02  0.10000000000E+01 0.  0.
    9000005    1    3    3    0    0 -0.48477356580E+02  0.38854415750E+02 -0.62605616689E+02  0.88205345446E+02  0.10000000000E+01 0.  0.
<mgrwt>
<rscale>  0 0.12500411E+03</rscale>
<asrwt>0</asrwt>
<pdfrwt beam="2">  1        4 0.20935194E-01 0.12500411E+03</pdfrwt>
<pdfrwt beam="1">  1       -4 0.44165675E-02 0.12500411E+03</pdfrwt>
<totfact> 0.96418950E+03</totfact>
</mgrwt>
</event>
<event>
 5    1  0.3272646E-002  0.1250160E+03  0.7818608E-02  0.1235044E+00
         -4   -1    0    0    0  501 -0.00000000000E+00  0.00000000000E+00  0.10178245308E+04  0.10178253231E+04  0.12700000000E+01 0. -1.
          4   -1    0    0  501    0  0.00000000000E+00 -0.00000000000E+00 -0.37329735596E+01  0.39430941653E+01  0.12700000000E+01 0. -1.
         25    2    1    2    0    0  0.00000000000E+00  0.00000000000E+00  0.10140915572E+04  0.10217684173E+04  0.12501604741E+03 0.  0.
    9000005    1    3    3    0    0  0.17127163190E+02  0.37194942999E+02  0.12113622266E+03  0.12787410975E+03  0.10000000000E+01 0.  0.
    9000005    1    3    3    0    0 -0.17127163190E+02 -0.37194942999E+02  0.89295533456E+03  0.89389430752E+03  0.10000000000E+01 0.  0.
<mgrwt>
<rscale>  0 0.12501605E+03</rscale>
<asrwt>0</asrwt>
<pdfrwt beam="2">  1        4 0.59052713E-03 0.12501605E+03</pdfrwt>
<pdfrwt beam="1">  1       -4 0.15660476E+00 0.12501605E+03</pdfrwt>
<totfact> 0.29882393E+03</totfact>
</mgrwt>
</event>
<event>
 5    1  0.3272646E-002  0.1250070E+03  0.7818608E-02  0.1235058E+00
          4   -1    0    0  501    0  0.00000000000E+00  0.00000000000E+00  0.57494608250E+02  0.57508633072E+02  0.12700000000E+01 0. -1.
         -4   -1    0    0    0  501 -0.00000000000E+00 -0.00000000000E+00 -0.67920490433E+02  0.67932362837E+02  0.12700000000E+01 0. -1.
         25    2    1    2    0    0  0.00000000000E+00  0.00000000000E+00 -0.10425882183E+02  0.12544099591E+03  0.12500697755E+03 0.  0.
    9000005    1    3    3    0    0 -0.41225150669E+02 -0.46659461204E+02  0.19722852828E+00  0.62270838012E+02  0.10000000000E+01 0.  0.
    9000005    1    3    3    0    0  0.41225150669E+02  0.46659461204E+02 -0.10623110711E+02  0.63170157897E+02  0.10000000000E+01 0.  0.
<mgrwt>
<rscale>  0 0.12500698E+03</rscale>
<asrwt>0</asrwt>
<pdfrwt beam="1">  1        4 0.88473165E-02 0.12500698E+03</pdfrwt>
<pdfrwt beam="2">  1       -4 0.10451298E-01 0.12500698E+03</pdfrwt>
<totfact> 0.10441616E+04</totfact>
</mgrwt>
</event>
<event>
 5    1  0.3272646E-002  0.1249998E+03  0.7818608E-02  0.1235070E+00
         -4   -1    0    0    0  501 -0.00000000000E+00  0.00000000000E+00  0.20506557884E+03  0.20506951145E+03  0.12700000000E+01 0. -1.
          4   -1    0    0  501    0  0.00000000000E+00 -0.00000000000E+00 -0.19023444182E+02  0.19065789482E+02  0.12700000000E+01 0. -1.
         25    2    1    2    0    0  0.00000000000E+00  0.00000000000E+00  0.18604213466E+03  0.22413530093E+03  0.12499982902E+03 0.  0.
    9000005    1    3    3    0    0  0.43340732001E+02  0.20987685571E+02  0.21604558830E+02  0.52788814708E+02  0.10000000000E+01 0.  0.
    9000005    1    3    3    0    0 -0.43340732001E+02 -0.20987685571E+02  0.16443757583E+03  0.17134648622E+03  0.10000000000E+01 0.  0.
<mgrwt>
<rscale>  0 0.12499983E+03</rscale>
<asrwt>0</asrwt>
<pdfrwt beam="2">  1        4 0.29302435E-02 0.12499983E+03</pdfrwt>
<pdfrwt beam="1">  1       -4 0.31552111E-01 0.12499983E+03</pdfrwt>
<totfact> 0.86218521E+03</totfact>
</mgrwt>
</event>
<event>
 5    1  0.3272646E-002  0.1249999E+03  0.7818608E-02  0.1235069E+00
          4   -1    0    0  501    0  0.00000000000E+00  0.00000000000E+00  0.72944712050E+01  0.74042021961E+01  0.12700000000E+01 0.  1.
         -4   -1    0    0    0  501 -0.00000000000E+00 -0.00000000000E+00 -0.53139904034E+03  0.53140055794E+03  0.12700000000E+01 0.  1.
         25    2    1    2    0    0  0.00000000000E+00  0.00000000000E+00 -0.52410456914E+03  0.53880476013E+03  0.12499988061E+03 0.  0.
    9000005    1    3    3    0    0 -0.16691153743E+02 -0.48524703903E+02 -0.41578473800E+03  0.41894055647E+03  0.10000000000E+01 0.  0.
    9000005    1    3    3    0    0  0.16691153743E+02  0.48524703903E+02 -0.10831983113E+03  0.11986420366E+03  0.10000000000E+01 0.  0.
<mgrwt>
<rscale>  0 0.12499988E+03</rscale>
<asrwt>0</asrwt>
<pdfrwt beam="1">  1        4 0.11307843E-02 0.12499988E+03</pdfrwt>
<pdfrwt beam="2">  1       -4 0.81762226E-01 0.12499988E+03</pdfrwt>
<totfact> 0.52974627E+03</totfact>
</mgrwt>
</event>
<event>
 5    1  0.3272646E-002  0.1250002E+03  0.7818608E-02  0.1235069E+00
         -4   -1    0    0    0  501 -0.00000000000E+00  0.00000000000E+00  0.80173498614E+02  0.80183556793E+02  0.12700000000E+01 0. -1.
          4   -1    0    0  501    0  0.00000000000E+00 -0.00000000000E+00 -0.48701233055E+02  0.48717789369E+02  0.12700000000E+01 0. -1.
         25    2    1    2    0    0  0.00000000000E+00  0.00000000000E+00  0.31472265559E+02  0.12890134616E+03  0.12500021417E+03 0.  0.
    9000005    1    3    3    0    0  0.24943309868E+02  0.18845934620E+02  0.71535169467E+02  0.78074441590E+02  0.10000000000E+01 0.  0.
    9000005    1    3    3    0    0 -0.24943309868E+02 -0.18845934620E+02 -0.40062903908E+02  0.50826904573E+02  0.10000000000E+01 0.  0.
<mgrwt>
<rscale>  0 0.12500021E+03</rscale>
<asrwt>0</asrwt>
<pdfrwt beam="2">  1        4 0.74945446E-02 0.12500021E+03</pdfrwt>
<pdfrwt beam="1">  1       -4 0.12336432E-01 0.12500021E+03</pdfrwt>
<totfact> 0.10368017E+04</totfact>
</mgrwt>
</event>
<event>
 5    1  0.3272646E-002  0.1250021E+03  0.7818608E-02  0.1235066E+00
          4   -1    0    0  501    0  0.00000000000E+00  0.00000000000E+00  0.56146681691E+03  0.56146825323E+03  0.12700000000E+01 0.  1.
         -4   -1    0    0    0  501 -0.00000000000E+00 -0.00000000000E+00 -0.68980408589E+01  0.70139765961E+01  0.12700000000E+01 0.  1.
         25    2    1    2    0    0  0.00000000000E+00  0.00000000000E+00  0.55456877605E+03  0.56848222983E+03  0.12500207304E+03 0.  0.
    9000005    1    3    3    0    0  0.22711503312E+02 -0.84850266870E+01  0.53922921387E+03  0.53977490971E+03  0.10000000000E+01 0.  0.
    9000005    1    3    3    0    0 -0.22711503312E+02  0.84850266870E+01  0.15339562175E+02  0.28707320117E+02  0.10000000000E+01 0.  0.
<mgrwt>
<rscale>  0 0.12500207E+03</rscale>
<asrwt>0</asrwt>
<pdfrwt beam="1">  1        4 0.86388552E-01 0.12500207E+03</pdfrwt>
<pdfrwt beam="2">  1       -4 0.10702655E-02 0.12500207E+03</pdfrwt>
<totfact> 0.50917199E+03</totfact>
</mgrwt>
</event>
<event>
 5    1  0.3272646E-002  0.1249999E+03  0.7818608E-02  0.1235069E+00
          4   -1    0    0  501    0  0.00000000000E+00  0.00000000000E+00  0.12827396370E+03  0.12828025048E+03  0.12700000000E+01 0.  1.
         -4   -1    0    0    0  501 -0.00000000000E+00 -0.00000000000E+00 -0.30432067647E+02  0.30458556126E+02  0.12700000000E+01 0.  1.
         25    2    1    2    0    0  0.00000000000E+00  0.00000000000E+00  0.97841896050E+02  0.15873880660E+03  0.12499988840E+03 0.  0.
    9000005    1    3    3    0    0  0.22336899673E+02 -0.13440440957E+02 -0.23203551519E+02  0.34913999244E+02  0.10000000000E+01 0.  0.
    9000005    1    3    3    0    0 -0.22336899673E+02  0.13440440957E+02  0.12104544757E+03  0.12382480736E+03  0.10000000000E+01 0.  0.
<mgrwt>
<rscale>  0 0.12499989E+03</rscale>
<asrwt>0</asrwt>
<pdfrwt beam="1">  1        4 0.19736977E-01 0.12499989E+03</pdfrwt>
<pdfrwt beam="2">  1       -4 0.46843777E-02 0.12499989E+03</pdfrwt>
<totfact> 0.97586730E+03</totfact>
</mgrwt>
</event>
<event>
 5    1  0.3272646E-002  0.1249890E+03  0.7818608E-02  0.1235087E+00
          4   -1    0    0  501    0  0.00000000000E+00  0.00000000000E+00  0.91649589411E+02  0.91658388264E+02  0.12700000000E+01 0. -1.
         -4   -1    0    0    0  501 -0.00000000000E+00 -0.00000000000E+00 -0.42593734931E+02  0.42612664261E+02  0.12700000000E+01 0. -1.
         25    2    1    2    0    0  0.00000000000E+00  0.00000000000E+00  0.49055854480E+02  0.13427105252E+03  0.12498895426E+03 0.  0.
    9000005    1    3    3    0    0 -0.24323401420E+02 -0.46901317008E+02  0.60370322247E+02  0.80230525375E+02  0.10000000000E+01 0.  0.
    9000005    1    3    3    0    0  0.24323401420E+02  0.46901317008E+02 -0.11314467767E+02  0.54040527150E+02  0.10000000000E+01 0.  0.
<mgrwt>
<rscale>  0 0.12498895E+03</rscale>
<asrwt>0</asrwt>
<pdfrwt beam="1">  1        4 0.14102070E-01 0.12498895E+03</pdfrwt>
<pdfrwt beam="2">  1       -4 0.65550152E-02 0.12498895E+03</pdfrwt>
<totfact> 0.10256013E+04</totfact>
</mgrwt>
</event>
<event>
 5    1  0.3272646E-002  0.1249976E+03  0.7818608E-02  0.1235073E+00
         -4   -1    0    0    0  501 -0.00000000000E+00  0.00000000000E+00  0.76588956563E+02  0.76599485425E+02  0.12700000000E+01 0.  1.
          4   -1    0    0  501    0  0.00000000000E+00 -0.00000000000E+00 -0.50978890486E+02  0.50994707326E+02  0.12700000000E+01 0.  1.
         25    2    1    2    0    0  0.00000000000E+00  0.00000000000E+00  0.25610066076E+02  0.12759419275E+03  0.12499761013E+03 0.  0.
    9000005    1    3    3    0    0 -0.43854884974E+02  0.44513656498E+02  0.13437652114E+02  0.63924072501E+02  0.10000000000E+01 0.  0.
    9000005    1    3    3    0    0  0.43854884974E+02 -0.44513656498E+02  0.12172413962E+02  0.63670120249E+02  0.10000000000E+01 0.  0.
<mgrwt>
<rscale>  0 0.12499761E+03</rscale>
<asrwt>0</asrwt>
<pdfrwt beam="2">  1        4 0.78449328E-02 0.12499761E+03</pdfrwt>
<pdfrwt beam="1">  1       -4 0.11784943E-01 0.12499761E+03</pdfrwt>
<totfact> 0.10396822E+04</totfact>
</mgrwt>
</event>
<event>
 5    1  0.3272646E-002  0.1249983E+03  0.7818608E-02  0.1235072E+00
          4   -1    0    0  501    0  0.00000000000E+00  0.00000000000E+00  0.19848662835E+02  0.19889251276E+02  0.12700000000E+01 0.  1.
         -4   -1    0    0    0  501 -0.00000000000E+00 -0.00000000000E+00 -0.19655271590E+03  0.19655681883E+03  0.12700000000E+01 0.  1.
         25    2    1    2    0    0  0.00000000000E+00  0.00000000000E+00 -0.17670405307E+03  0.21644607011E+03  0.12499831556E+03 0.  0.
    9000005    1    3    3    0    0  0.39176824534E+02  0.48627446005E+02 -0.92483474855E+02  0.11159590139E+03  0.10000000000E+01 0.  0.
    9000005    1    3    3    0    0 -0.39176824534E+02 -0.48627446005E+02 -0.84220578214E+02  0.10485016872E+03  0.10000000000E+01 0.  0.
<mgrwt>
<rscale>  0 0.12499832E+03</rscale>
<asrwt>0</asrwt>
<pdfrwt beam="1">  1        4 0.30570784E-02 0.12499832E+03</pdfrwt>
<pdfrwt beam="2">  1       -4 0.30242316E-01 0.12499832E+03</pdfrwt>
<totfact> 0.87437147E+03</totfact>
</mgrwt>
</event>
<event>
 5    1  0.3272646E-002  0.1250087E+03  0.7818608E-02  0.1235056E+00
          4   -1    0    0  501    0  0.00000000000E+00  0.00000000000E+00  0.68518825643E+03  0.68518943341E+03  0.12700000000E+01 0.  1.
         -4   -1    0    0    0  501 -0.00000000000E+00 -0.00000000000E+00 -0.56298673829E+01  0.57713349192E+01  0.12700000000E+01 0.  1.
         25    2    1    2    0    0  0.00000000000E+00  0.00000000000E+00  0.67955838905E+03  0.69096076833E+03  0.12500871665E+03 0.  0.
    9000005    1    3    3    0    0  0.40881280393E+02  0.47239989203E+02  0.33036793115E+03  0.33622442743E+03  0.10000000000E+01 0.  0.
    9000005    1    3    3    0    0 -0.40881280393E+02 -0.47239989203E+02  0.34919045790E+03  0.35473634090E+03  0.10000000000E+01 0.  0.
<mgrwt>
<rscale>  0 0.12500872E+03</rscale>
<asrwt>0</asrwt>
<pdfrwt beam="1">  1        4 0.10542450E+00 0.12500872E+03</pdfrwt>
<pdfrwt beam="2">  1       -4 0.87710651E-03 0.12500872E+03</pdfrwt>
<totfact> 0.43559880E+03</totfact>
</mgrwt>
</event>
<event>
 5    1  0.3272646E-002  0.1249992E+03  0.7818608E-02  0.1235071E+00
          4   -1    0    0  501    0  0.00000000000E+00  0.00000000000E+00  0.36885203055E+01  0.39010360219E+01  0.12700000000E+01 0.  1.
         -4   -1    0    0    0  501 -0.00000000000E+00 -0.00000000000E+00 -0.10291484395E+04  0.10291492231E+04  0.12700000000E+01 0.  1.
         25    2    1    2    0    0  0.00000000000E+00  0.00000000000E+00 -0.10254599192E+04  0.10330502591E+04  0.12499916806E+03 0.  0.
    9000005    1    3    3    0    0 -0.61309733553E+02 -0.63718037747E+01 -0.42775675390E+03  0.43217626475E+03  0.10000000000E+01 0.  0.
    9000005    1    3    3    0    0  0.61309733553E+02  0.63718037747E+01 -0.59770316525E+03  0.60087399433E+03  0.10000000000E+01 0.  0.
<mgrwt>
<rscale>  0 0.12499917E+03</rscale>
<asrwt>0</asrwt>
<pdfrwt beam="1">  1        4 0.58387312E-03 0.12499917E+03</pdfrwt>
<pdfrwt beam="2">  1       -4 0.15834671E+00 0.12499917E+03</pdfrwt>
<totfact> 0.29530542E+03</totfact>
</mgrwt>
</event>
<event>
 5    1  0.3272646E-002  0.1250015E+03  0.7818608E-02  0.1235067E+00
          4   -1    0    0  501    0  0.00000000000E+00  0.00000000000E+00  0.18603632954E+02  0.18646931626E+02  0.12700000000E+01 0. -1.
         -4   -1    0    0    0  501 -0.00000000000E+00 -0.00000000000E+00 -0.20968825653E+03  0.20969210244E+03  0.12700000000E+01 0. -1.
         25    2    1    2    0    0  0.00000000000E+00  0.00000000000E+00 -0.19108462357E+03  0.22833903406E+03  0.12500152444E+03 0.  0.
    9000005    1    3    3    0    0  0.55713240259E+02 -0.14044250398E+02 -0.50643655175E+02  0.76596252642E+02  0.10000000000E+01 0.  0.
    9000005    1    3    3    0    0 -0.55713240259E+02  0.14044250398E+02 -0.14044096840E+03  0.15174278142E+03  0.10000000000E+01 0.  0.
<mgrwt>
<rscale>  0 0.12500152E+03</rscale>
<asrwt>0</asrwt>
<pdfrwt beam="1">  1        4 0.28657240E-02 0.12500152E+03</pdfrwt>
<pdfrwt beam="2">  1       -4 0.32263357E-01 0.12500152E+03</pdfrwt>
<totfact> 0.85562384E+03</totfact>
</mgrwt>
</event>
<event>
 5    1  0.3272646E-002  0.1250001E+03  0.7818608E-02  0.1235069E+00
         -4   -1    0    0    0  501 -0.00000000000E+00  0.00000000000E+00  0.11499756207E+03  0.11500457461E+03  0.12700000000E+01 0.  1.
          4   -1    0    0  501    0  0.00000000000E+00 -0.00000000000E+00 -0.33948256022E+02  0.33972002987E+02  0.12700000000E+01 0.  1.
         25    2    1    2    0    0  0.00000000000E+00  0.00000000000E+00  0.81049306048E+02  0.14897657760E+03  0.12500012265E+03 0.  0.
    9000005    1    3    3    0    0 -0.84422620092E+01 -0.59689832725E+02  0.60148317961E+02  0.85164359165E+02  0.10000000000E+01 0.  0.
    9000005    1    3    3    0    0  0.84422620092E+01  0.59689832725E+02  0.20900988087E+02  0.63812218435E+02  0.10000000000E+01 0.  0.
<mgrwt>
<rscale>  0 0.12500012E+03</rscale>
<asrwt>0</asrwt>
<pdfrwt beam="2">  1        4 0.52251747E-02 0.12500012E+03</pdfrwt>
<pdfrwt beam="1">  1       -4 0.17694299E-01 0.12500012E+03</pdfrwt>
<totfact> 0.99507819E+03</totfact>
</mgrwt>
</event>
<event>
 5    1  0.3272646E-002  0.1250020E+03  0.7818608E-02  0.1235066E+00
         -4   -1    0    0    0  501 -0.00000000000E+00  0.00000000000E+00  0.44594600979E+02  0.44612681341E+02  0.12700000000E+01 0. -1.
          4   -1    0    0  501    0  0.00000000000E+00 -0.00000000000E+00 -0.87557006312E+02  0.87566216399E+02  0.12700000000E+01 0. -1.
         25    2    1    2    0    0  0.00000000000E+00  0.00000000000E+00 -0.42962405334E+02  0.13217889774E+03  0.12500197093E+03 0.  0.
    9000005    1    3    3    0    0 -0.46779199008E+02  0.31988881843E+02  0.63710064350E+01  0.57036582510E+02  0.10000000000E+01 0.  0.
    9000005    1    3    3    0    0  0.46779199008E+02 -0.31988881843E+02 -0.49333411769E+02  0.75142315230E+02  0.10000000000E+01 0.  0.
<mgrwt>
<rscale>  0 0.12500197E+03</rscale>
<asrwt>0</asrwt>
<pdfrwt beam="2">  1        4 0.13472408E-01 0.12500197E+03</pdfrwt>
<pdfrwt beam="1">  1       -4 0.68628071E-02 0.12500197E+03</pdfrwt>
<totfact> 0.10297424E+04</totfact>
</mgrwt>
</event>
<event>
 5    1  0.3272646E-002  0.1250023E+03  0.7818608E-02  0.1235066E+00
          4   -1    0    0  501    0  0.00000000000E+00  0.00000000000E+00  0.69571454355E+02  0.69583045069E+02  0.12700000000E+01 0. -1.
         -4   -1    0    0    0  501 -0.00000000000E+00 -0.00000000000E+00 -0.56125940161E+02  0.56140306902E+02  0.12700000000E+01 0. -1.
         25    2    1    2    0    0  0.00000000000E+00  0.00000000000E+00  0.13445514193E+02  0.12572335197E+03  0.12500231749E+03 0.  0.
    9000005    1    3    3    0    0  0.19730078787E+02  0.49618057668E+02 -0.25932464412E+02  0.59369355446E+02  0.10000000000E+01 0.  0.
    9000005    1    3    3    0    0 -0.19730078787E+02 -0.49618057668E+02  0.39377978605E+02  0.66353996524E+02  0.10000000000E+01 0.  0.
<mgrwt>
<rscale>  0 0.12500232E+03</rscale>
<asrwt>0</asrwt>
<pdfrwt beam="1">  1        4 0.10705297E-01 0.12500232E+03</pdfrwt>
<pdfrwt beam="2">  1       -4 0.86367568E-02 0.12500232E+03</pdfrwt>
<totfact> 0.10436485E+04</totfact>
</mgrwt>
</event>
<event>
 5    1  0.3272646E-002  0.1249998E+03  0.7818608E-02  0.1235070E+00
          4   -1    0    0  501    0  0.00000000000E+00  0.00000000000E+00  0.17053771080E+03  0.17054243960E+03  0.12700000000E+01 0.  1.
         -4   -1    0    0    0  501 -0.00000000000E+00 -0.00000000000E+00 -0.22882767184E+02  0.22917982764E+02  0.12700000000E+01 0.  1.
         25    2    1    2    0    0  0.00000000000E+00  0.00000000000E+00  0.14765494361E+03  0.19346042236E+03  0.12499981059E+03 0.  0.
    9000005    1    3    3    0    0 -0.44581778329E+02 -0.37320092906E+02  0.10928649765E+03  0.12379363014E+03  0.10000000000E+01 0.  0.
    9000005    1    3    3    0    0  0.44581778329E+02  0.37320092906E+02  0.38368445965E+02  0.69666792227E+02  0.10000000000E+01 0.  0.
<mgrwt>
<rscale>  0 0.12499981E+03</rscale>
<asrwt>0</asrwt>
<pdfrwt beam="1">  1        4 0.26239644E-01 0.12499981E+03</pdfrwt>
<pdfrwt beam="2">  1       -4 0.35234983E-02 0.12499981E+03</pdfrwt>
<totfact> 0.91249060E+03</totfact>
</mgrwt>
</event>
<event>
 5    1  0.3272646E-002  0.1249997E+03  0.7818608E-02  0.1235070E+00
         -4   -1    0    0    0  501 -0.00000000000E+00  0.00000000000E+00  0.10012830210E+03  0.10013635594E+03  0.12700000000E+01 0.  1.
          4   -1    0    0  501    0  0.00000000000E+00 -0.00000000000E+00 -0.38992299549E+02  0.39012976356E+02  0.12700000000E+01 0.  1.
         25    2    1    2    0    0  0.00000000000E+00  0.00000000000E+00  0.61136002550E+02  0.13914933230E+03  0.12499970348E+03 0.  0.
    9000005    1    3    3    0    0 -0.93893017483E+01  0.59190216309E+02  0.50281049406E+02  0.78235699162E+02  0.10000000000E+01 0.  0.
    9000005    1    3    3    0    0  0.93893017483E+01 -0.59190216309E+02  0.10854953144E+02  0.60913633136E+02  0.10000000000E+01 0.  0.
<mgrwt>
<rscale>  0 0.12499970E+03</rscale>
<asrwt>0</asrwt>
<pdfrwt beam="2">  1        4 0.60010254E-02 0.12499970E+03</pdfrwt>
<pdfrwt beam="1">  1       -4 0.15406564E-01 0.12499970E+03</pdfrwt>
<totfact> 0.10151315E+04</totfact>
</mgrwt>
</event>
<event>
 5    1  0.3272646E-002  0.1250036E+03  0.7818608E-02  0.1235064E+00
          4   -1    0    0  501    0  0.00000000000E+00  0.00000000000E+00  0.13024637034E+02  0.13086407829E+02  0.12700000000E+01 0. -1.
         -4   -1    0    0    0  501 -0.00000000000E+00 -0.00000000000E+00 -0.29915713570E+03  0.29915983142E+03  0.12700000000E+01 0. -1.
         25    2    1    2    0    0  0.00000000000E+00  0.00000000000E+00 -0.28613249866E+03  0.31224623925E+03  0.12500362850E+03 0.  0.
    9000005    1    3    3    0    0  0.61519752586E+02  0.87673125523E+01 -0.15962244009E+03  0.17129468500E+03  0.10000000000E+01 0.  0.
    9000005    1    3    3    0    0 -0.61519752586E+02 -0.87673125523E+01 -0.12651005857E+03  0.14095155425E+03  0.10000000000E+01 0.  0.
<mgrwt>
<rscale>  0 0.12500363E+03</rscale>
<asrwt>0</asrwt>
<pdfrwt beam="1">  1        4 0.20087495E-02 0.12500363E+03</pdfrwt>
<pdfrwt beam="2">  1       -4 0.46029129E-01 0.12500363E+03</pdfrwt>
<totfact> 0.74081963E+03</totfact>
</mgrwt>
</event>
<event>
 5    1  0.3272646E-002  0.1249611E+03  0.7818608E-02  0.1235130E+00
         -4   -1    0    0    0  501 -0.00000000000E+00  0.00000000000E+00  0.60458687856E+02  0.60472025245E+02  0.12700000000E+01 0.  1.
          4   -1    0    0  501    0  0.00000000000E+00 -0.00000000000E+00 -0.64543370672E+02  0.64555864162E+02  0.12700000000E+01 0.  1.
         25    2    1    2    0    0  0.00000000000E+00  0.00000000000E+00 -0.40846828158E+01  0.12502788941E+03  0.12496114795E+03 0.  0.
    9000005    1    3    3    0    0 -0.46003768046E+02  0.19330619002E+02  0.35565000572E+02  0.61285306323E+02  0.10000000000E+01 0.  0.
    9000005    1    3    3    0    0  0.46003768046E+02 -0.19330619002E+02 -0.39649683388E+02  0.63742583084E+02  0.10000000000E+01 0.  0.
<mgrwt>
<rscale>  0 0.12496115E+03</rscale>
<asrwt>0</asrwt>
<pdfrwt beam="2">  1        4 0.99317363E-02 0.12496115E+03</pdfrwt>
<pdfrwt beam="1">  1       -4 0.93033236E-02 0.12496115E+03</pdfrwt>
<totfact> 0.10461440E+04</totfact>
</mgrwt>
</event>
<event>
 5    1  0.3272646E-002  0.1250010E+03  0.7818608E-02  0.1235068E+00
          4   -1    0    0  501    0  0.00000000000E+00  0.00000000000E+00  0.50755062246E+03  0.50755221137E+03  0.12700000000E+01 0. -1.
         -4   -1    0    0    0  501 -0.00000000000E+00 -0.00000000000E+00 -0.76423922610E+01  0.77471968783E+01  0.12700000000E+01 0. -1.
         25    2    1    2    0    0  0.00000000000E+00  0.00000000000E+00  0.49990823020E+03  0.51529940825E+03  0.12500096605E+03 0.  0.
    9000005    1    3    3    0    0  0.50835238771E+02 -0.34164384883E+02  0.30109197634E+03  0.30726015835E+03  0.10000000000E+01 0.  0.
    9000005    1    3    3    0    0 -0.50835238771E+02  0.34164384883E+02  0.19881625387E+03  0.20803924990E+03  0.10000000000E+01 0.  0.
<mgrwt>
<rscale>  0 0.12500097E+03</rscale>
<asrwt>0</asrwt>
<pdfrwt beam="1">  1        4 0.78092879E-01 0.12500097E+03</pdfrwt>
<pdfrwt beam="2">  1       -4 0.11839370E-02 0.12500097E+03</pdfrwt>
<totfact> 0.54695403E+03</totfact>
</mgrwt>
</event>
<event>
 5    1  0.3272646E-002  0.1249780E+03  0.7818608E-02  0.1235104E+00
         -4   -1    0    0    0  501 -0.00000000000E+00  0.00000000000E+00  0.21802464415E+03  0.21802834302E+03  0.12700000000E+01 0.  1.
          4   -1    0    0  501    0  0.00000000000E+00 -0.00000000000E+00 -0.17883870281E+02  0.17928907280E+02  0.12700000000E+01 0.  1.
         25    2    1    2    0    0  0.00000000000E+00  0.00000000000E+00  0.20014077387E+03  0.23595725030E+03  0.12497797646E+03 0.  0.
    9000005    1    3    3    0    0  0.76740302683E+01  0.56672264228E+02  0.52560597188E+02  0.77680452175E+02  0.10000000000E+01 0.  0.
    9000005    1    3    3    0    0 -0.76740302683E+01 -0.56672264228E+02  0.14758017669E+03  0.15827679812E+03  0.10000000000E+01 0.  0.
<mgrwt>
<rscale>  0 0.12497798E+03</rscale>
<asrwt>0</asrwt>
<pdfrwt beam="2">  1        4 0.27551138E-02 0.12497798E+03</pdfrwt>
<pdfrwt beam="1">  1       -4 0.33545999E-01 0.12497798E+03</pdfrwt>
<totfact> 0.84444640E+03</totfact>
</mgrwt>
</event>
<event>
 5    1  0.3272646E-002  0.1250007E+03  0.7818608E-02  0.1235068E+00
          4   -1    0    0  501    0  0.00000000000E+00  0.00000000000E+00  0.21525092330E+04  0.21525096076E+04  0.12700000000E+01 0.  1.
         -4   -1    0    0    0  501 -0.00000000000E+00 -0.00000000000E+00 -0.15921505453E+01  0.20366254832E+01  0.12700000000E+01 0.  1.
         25    2    1    2    0    0  0.00000000000E+00  0.00000000000E+00  0.21509170824E+04  0.21545462331E+04  0.12500070055E+03 0.  0.
    9000005    1    3    3    0    0 -0.44177912804E+01  0.48726173969E+02  0.40533828772E+03  0.40828162388E+03  0.10000000000E+01 0.  0.
    9000005    1    3    3    0    0  0.44177912804E+01 -0.48726173969E+02  0.17455787947E+04  0.17462646092E+04  0.10000000000E+01 0.  0.
<mgrwt>
<rscale>  0 0.12500070E+03</rscale>
<asrwt>0</asrwt>
<pdfrwt beam="1">  1        4 0.33119071E+00 0.12500070E+03</pdfrwt>
<pdfrwt beam="2">  1       -4 0.27916440E-03 0.12500070E+03</pdfrwt>
<totfact> 0.79762970E+02</totfact>
</mgrwt>
</event>
<event>
 5    1  0.3272646E-002  0.1249988E+03  0.7818608E-02  0.1235071E+00
          4   -1    0    0  501    0  0.00000000000E+00  0.00000000000E+00  0.68018537434E+02  0.68030392728E+02  0.12700000000E+01 0. -1.
         -4   -1    0    0    0  501 -0.00000000000E+00 -0.00000000000E+00 -0.57404236213E+02  0.57418283109E+02  0.12700000000E+01 0. -1.
         25    2    1    2    0    0  0.00000000000E+00  0.00000000000E+00  0.10614301221E+02  0.12544867584E+03  0.12499882751E+03 0.  0.
    9000005    1    3    3    0    0 -0.26904247215E+02  0.34212487059E+02  0.50310964965E+02  0.66532142493E+02  0.10000000000E+01 0.  0.
    9000005    1    3    3    0    0  0.26904247215E+02 -0.34212487059E+02 -0.39696663743E+02  0.58916533344E+02  0.10000000000E+01 0.  0.
<mgrwt>
<rscale>  0 0.12499883E+03</rscale>
<asrwt>0</asrwt>
<pdfrwt beam="1">  1        4 0.10466383E-01 0.12499883E+03</pdfrwt>
<pdfrwt beam="2">  1       -4 0.88334134E-02 0.12499883E+03</pdfrwt>
<totfact> 0.10443365E+04</totfact>
</mgrwt>
</event>
<event>
 5    1  0.3272646E-002  0.1249988E+03  0.7818608E-02  0.1235071E+00
         -4   -1    0    0    0  501 -0.00000000000E+00  0.00000000000E+00  0.68278680952E+01  0.69449753581E+01  0.12700000000E+01 0.  1.
          4   -1    0    0  501    0  0.00000000000E+00 -0.00000000000E+00 -0.56711035067E+03  0.56711177270E+03  0.12700000000E+01 0.  1.
         25    2    1    2    0    0  0.00000000000E+00  0.00000000000E+00 -0.56028248258E+03  0.57405674806E+03  0.12499875885E+03 0.  0.
    9000005    1    3    3    0    0 -0.41840122119E+02  0.44499445772E+02 -0.21949660430E+03  0.22783888122E+03  0.10000000000E+01 0.  0.
    9000005    1    3    3    0    0  0.41840122119E+02 -0.44499445772E+02 -0.34078587827E+03  0.34621786684E+03  0.10000000000E+01 0.  0.
<mgrwt>
<rscale>  0 0.12499876E+03</rscale>
<asrwt>0</asrwt>
<pdfrwt beam="2">  1        4 0.87256827E-01 0.12499876E+03</pdfrwt>
<pdfrwt beam="1">  1       -4 0.10595593E-02 0.12499876E+03</pdfrwt>
<totfact> 0.50548662E+03</totfact>
</mgrwt>
</event>
<event>
 5    1  0.3272646E-002  0.1249992E+03  0.7818608E-02  0.1235070E+00
          4   -1    0    0  501    0  0.00000000000E+00  0.00000000000E+00  0.97737463303E+02  0.97745714141E+02  0.12700000000E+01 0. -1.
         -4   -1    0    0    0  501 -0.00000000000E+00 -0.00000000000E+00 -0.39946242066E+02  0.39966425349E+02  0.12700000000E+01 0. -1.
         25    2    1    2    0    0  0.00000000000E+00  0.00000000000E+00  0.57791221238E+02  0.13771213949E+03  0.12499923244E+03 0.  0.
    9000005    1    3    3    0    0 -0.54049821126E+02  0.31269195083E+02  0.26184366202E+02  0.67718289688E+02  0.10000000000E+01 0.  0.
    9000005    1    3    3    0    0  0.54049821126E+02 -0.31269195083E+02  0.31606855036E+02  0.69993849802E+02  0.10000000000E+01 0.  0.
<mgrwt>
<rscale>  0 0.12499923E+03</rscale>
<asrwt>0</asrwt>
<pdfrwt beam="1">  1        4 0.15038720E-01 0.12499923E+03</pdfrwt>
<pdfrwt beam="2">  1       -4 0.61477630E-02 0.12499923E+03</pdfrwt>
<totfact> 0.10181393E+04</totfact>
</mgrwt>
</event>
<event>
 5    1  0.3272646E-002  0.1249935E+03  0.7818608E-02  0.1235079E+00
         -4   -1    0    0    0  501 -0.00000000000E+00  0.00000000000E+00  0.71402271244E+02  0.71413564810E+02  0.12700000000E+01 0. -1.
          4   -1    0    0  501    0  0.00000000000E+00 -0.00000000000E+00 -0.54678975537E+02  0.54693722362E+02  0.12700000000E+01 0. -1.
         25    2    1    2    0    0  0.00000000000E+00  0.00000000000E+00  0.16723295707E+02  0.12610728717E+03  0.12499351687E+03 0.  0.
    9000005    1    3    3    0    0  0.23927737195E+02 -0.44401652185E+02  0.45579395229E+02  0.67989150557E+02  0.10000000000E+01 0.  0.
    9000005    1    3    3    0    0 -0.23927737195E+02  0.44401652185E+02 -0.28856099522E+02  0.58118136615E+02  0.10000000000E+01 0.  0.
<mgrwt>
<rscale>  0 0.12499352E+03</rscale>
<asrwt>0</asrwt>
<pdfrwt beam="2">  1        4 0.84141532E-02 0.12499352E+03</pdfrwt>
<pdfrwt beam="1">  1       -4 0.10986968E-01 0.12499352E+03</pdfrwt>
<totfact> 0.10430133E+04</totfact>
</mgrwt>
</event>
<event>
 5    1  0.3272646E-002  0.1250150E+03  0.7818608E-02  0.1235046E+00
          4   -1    0    0  501    0  0.00000000000E+00  0.00000000000E+00  0.27767309056E+03  0.27767599486E+03  0.12700000000E+01 0. -1.
         -4   -1    0    0    0  501 -0.00000000000E+00 -0.00000000000E+00 -0.14039542901E+02  0.14096867200E+02  0.12700000000E+01 0. -1.
         25    2    1    2    0    0  0.00000000000E+00  0.00000000000E+00  0.26363354766E+03  0.29177286206E+03  0.12501502143E+03 0.  0.
    9000005    1    3    3    0    0 -0.48605418095E+02 -0.36180145803E+02  0.96061626492E+02  0.11357960073E+03  0.10000000000E+01 0.  0.
    9000005    1    3    3    0    0  0.48605418095E+02  0.36180145803E+02  0.16757192117E+03  0.17819326133E+03  0.10000000000E+01 0.  0.
<mgrwt>
<rscale>  0 0.12501502E+03</rscale>
<asrwt>0</asrwt>
<pdfrwt beam="1">  1        4 0.42723570E-01 0.12501502E+03</pdfrwt>
<pdfrwt beam="2">  1       -4 0.21645627E-02 0.12501502E+03</pdfrwt>
<totfact> 0.76616995E+03</totfact>
</mgrwt>
</event>
<event>
 5    1  0.3272646E-002  0.1249989E+03  0.7818608E-02  0.1235071E+00
          4   -1    0    0  501    0  0.00000000000E+00  0.00000000000E+00  0.82333173603E+02  0.82342967979E+02  0.12700000000E+01 0. -1.
         -4   -1    0    0    0  501 -0.00000000000E+00 -0.00000000000E+00 -0.47422449172E+02  0.47439451783E+02  0.12700000000E+01 0. -1.
         25    2    1    2    0    0  0.00000000000E+00  0.00000000000E+00  0.34910724432E+02  0.12978241976E+03  0.12499887119E+03 0.  0.
    9000005    1    3    3    0    0  0.11805785831E+02  0.28161229935E+02  0.74064797671E+02  0.80118822411E+02  0.10000000000E+01 0.  0.
    9000005    1    3    3    0    0 -0.11805785831E+02 -0.28161229935E+02 -0.39154073239E+02  0.49663597350E+02  0.10000000000E+01 0.  0.
<mgrwt>
<rscale>  0 0.12499887E+03</rscale>
<asrwt>0</asrwt>
<pdfrwt beam="1">  1        4 0.12668703E-01 0.12499887E+03</pdfrwt>
<pdfrwt beam="2">  1       -4 0.72978228E-02 0.12499887E+03</pdfrwt>
<totfact> 0.10349428E+04</totfact>
</mgrwt>
</event>
<event>
 5    1  0.3272646E-002  0.1249994E+03  0.7818608E-02  0.1235070E+00
         -4   -1    0    0    0  501 -0.00000000000E+00  0.00000000000E+00  0.83981499842E+03  0.83981595869E+03  0.12700000000E+01 0. -1.
          4   -1    0    0  501    0  0.00000000000E+00 -0.00000000000E+00 -0.45636061601E+01  0.47370245075E+01  0.12700000000E+01 0. -1.
         25    2    1    2    0    0  0.00000000000E+00  0.00000000000E+00  0.83525139226E+03  0.84455298320E+03  0.12499941262E+03 0.  0.
    9000005    1    3    3    0    0  0.14773645166E+01 -0.19347318944E+02  0.81897917443E+03  0.81920961268E+03  0.10000000000E+01 0.  0.
    9000005    1    3    3    0    0 -0.14773645166E+01  0.19347318944E+02  0.16272217835E+02  0.25343370524E+02  0.10000000000E+01 0.  0.
<mgrwt>
<rscale>  0 0.12499941E+03</rscale>
<asrwt>0</asrwt>
<pdfrwt beam="2">  1        4 0.71550714E-03 0.12499941E+03</pdfrwt>
<pdfrwt beam="1">  1       -4 0.12921570E+00 0.12499941E+03</pdfrwt>
<totfact> 0.36351735E+03</totfact>
</mgrwt>
</event>
<event>
 5    1  0.3272646E-002  0.1249981E+03  0.7818608E-02  0.1235072E+00
         -4   -1    0    0    0  501 -0.00000000000E+00  0.00000000000E+00  0.19419226234E+04  0.19419230387E+04  0.12700000000E+01 0.  1.
          4   -1    0    0  501    0  0.00000000000E+00 -0.00000000000E+00 -0.18105558898E+01  0.22115633905E+01  0.12700000000E+01 0.  1.
         25    2    1    2    0    0  0.00000000000E+00  0.00000000000E+00  0.19401120675E+04  0.19441346021E+04  0.12499806593E+03 0.  0.
    9000005    1    3    3    0    0  0.10946734597E+02 -0.56531937036E+02  0.13476648994E+04  0.13488948706E+04  0.10000000000E+01 0.  0.
    9000005    1    3    3    0    0 -0.10946734597E+02  0.56531937036E+02  0.59244716810E+03  0.59523973145E+03  0.10000000000E+01 0.  0.
<mgrwt>
<rscale>  0 0.12499807E+03</rscale>
<asrwt>0</asrwt>
<pdfrwt beam="2">  1        4 0.30942517E-03 0.12499807E+03</pdfrwt>
<pdfrwt beam="1">  1       -4 0.29878876E+00 0.12499807E+03</pdfrwt>
<totfact> 0.10608501E+03</totfact>
</mgrwt>
</event>
<event>
 5    1  0.3272646E-002  0.1249988E+03  0.7818608E-02  0.1235071E+00
         -4   -1    0    0    0  501 -0.00000000000E+00  0.00000000000E+00  0.13878976648E+03  0.13879557695E+03  0.12700000000E+01 0. -1.
          4   -1    0    0  501    0  0.00000000000E+00 -0.00000000000E+00 -0.28123832005E+02  0.28152492370E+02  0.12700000000E+01 0. -1.
         25    2    1    2    0    0  0.00000000000E+00  0.00000000000E+00  0.11066593448E+03  0.16694806932E+03  0.12499883517E+03 0.  0.
    9000005    1    3    3    0    0  0.58364392143E+02  0.18587457782E+02  0.38797362530E+02  0.72512972607E+02  0.10000000000E+01 0.  0.
    9000005    1    3    3    0    0 -0.58364392143E+02 -0.18587457782E+02  0.71868571946E+02  0.94435096710E+02  0.10000000000E+01 0.  0.
<mgrwt>
<rscale>  0 0.12499884E+03</rscale>
<asrwt>0</asrwt>
<pdfrwt beam="2">  1        4 0.43293950E-02 0.12499884E+03</pdfrwt>
<pdfrwt beam="1">  1       -4 0.21354923E-01 0.12499884E+03</pdfrwt>
<totfact> 0.96022238E+03</totfact>
</mgrwt>
</event>
<event>
 5    1  0.3272646E-002  0.1249542E+03  0.7818608E-02  0.1235141E+00
         -4   -1    0    0    0  501 -0.00000000000E+00  0.00000000000E+00  0.44761872494E+02  0.44779885318E+02  0.12700000000E+01 0.  1.
          4   -1    0    0  501    0  0.00000000000E+00 -0.00000000000E+00 -0.87163204255E+02  0.87172455948E+02  0.12700000000E+01 0.  1.
         25    2    1    2    0    0  0.00000000000E+00  0.00000000000E+00 -0.42401331762E+02  0.13195234127E+03  0.12495418132E+03 0.  0.
    9000005    1    3    3    0    0  0.18274743807E+02  0.56247636934E+02  0.41172103944E-01  0.59150356017E+02  0.10000000000E+01 0.  0.
    9000005    1    3    3    0    0 -0.18274743807E+02 -0.56247636934E+02 -0.42442503865E+02  0.72801985249E+02  0.10000000000E+01 0.  0.
<mgrwt>
<rscale>  0 0.12495418E+03</rscale>
<asrwt>0</asrwt>
<pdfrwt beam="2">  1        4 0.13411821E-01 0.12495418E+03</pdfrwt>
<pdfrwt beam="1">  1       -4 0.68885392E-02 0.12495418E+03</pdfrwt>
<totfact> 0.10313372E+04</totfact>
</mgrwt>
</event>
<event>
 5    1  0.3272646E-002  0.1250015E+03  0.7818608E-02  0.1235067E+00
          4   -1    0    0  501    0  0.00000000000E+00  0.00000000000E+00  0.12362320692E+04  0.12362327215E+04  0.12700000000E+01 0.  1.
         -4   -1    0    0    0  501 -0.00000000000E+00 -0.00000000000E+00 -0.30315927524E+01  0.32868609062E+01  0.12700000000E+01 0.  1.
         25    2    1    2    0    0  0.00000000000E+00  0.00000000000E+00  0.12332004764E+04  0.12395195824E+04  0.12500152067E+03 0.  0.
    9000005    1    3    3    0    0 -0.15904341483E+02  0.58048078212E+02  0.44984046457E+03  0.45385016363E+03  0.10000000000E+01 0.  0.
    9000005    1    3    3    0    0  0.15904341483E+02 -0.58048078212E+02  0.78336001184E+03  0.78566941878E+03  0.10000000000E+01 0.  0.
<mgrwt>
<rscale>  0 0.12500152E+03</rscale>
<asrwt>0</asrwt>
<pdfrwt beam="1">  1        4 0.19020915E+00 0.12500152E+03</pdfrwt>
<pdfrwt beam="2">  1       -4 0.48608530E-03 0.12500152E+03</pdfrwt>
<totfact> 0.23700352E+03</totfact>
</mgrwt>
</event>
<event>
 5    1  0.3272646E-002  0.1250071E+03  0.7818608E-02  0.1235058E+00
         -4   -1    0    0    0  501 -0.00000000000E+00  0.00000000000E+00  0.13082542949E+03  0.13083159367E+03  0.12700000000E+01 0. -1.
          4   -1    0    0  501    0  0.00000000000E+00 -0.00000000000E+00 -0.29841496120E+02  0.29868508343E+02  0.12700000000E+01 0. -1.
         25    2    1    2    0    0  0.00000000000E+00  0.00000000000E+00  0.10098393337E+03  0.16070010201E+03  0.12500707175E+03 0.  0.
    9000005    1    3    3    0    0 -0.61676043562E+02 -0.62938532339E+01  0.60626059375E+02  0.86718314175E+02  0.10000000000E+01 0.  0.
    9000005    1    3    3    0    0  0.61676043562E+02  0.62938532339E+01  0.40357873999E+02  0.73981787838E+02  0.10000000000E+01 0.  0.
<mgrwt>
<rscale>  0 0.12500707E+03</rscale>
<asrwt>0</asrwt>
<pdfrwt beam="2">  1        4 0.45935515E-02 0.12500707E+03</pdfrwt>
<pdfrwt beam="1">  1       -4 0.20129541E-01 0.12500707E+03</pdfrwt>
<totfact> 0.97192532E+03</totfact>
</mgrwt>
</event>
<event>
 5    1  0.3272646E-002  0.1250156E+03  0.7818608E-02  0.1235045E+00
          4   -1    0    0  501    0  0.00000000000E+00  0.00000000000E+00  0.42182244627E+01  0.44052602213E+01  0.12700000000E+01 0. -1.
         -4   -1    0    0    0  501 -0.00000000000E+00 -0.00000000000E+00 -0.90599436791E+03  0.90599525803E+03  0.12700000000E+01 0. -1.
         25    2    1    2    0    0  0.00000000000E+00  0.00000000000E+00 -0.90177614344E+03  0.91040051825E+03  0.12501556204E+03 0.  0.
    9000005    1    3    3    0    0 -0.30482990690E+02 -0.46457229642E+02 -0.65926052449E+03  0.66159876516E+03  0.10000000000E+01 0.  0.
    9000005    1    3    3    0    0  0.30482990690E+02  0.46457229642E+02 -0.24251561895E+03  0.24880175310E+03  0.10000000000E+01 0.  0.
<mgrwt>
<rscale>  0 0.12501556E+03</rscale>
<asrwt>0</asrwt>
<pdfrwt beam="1">  1        4 0.66341417E-03 0.12501556E+03</pdfrwt>
<pdfrwt beam="2">  1       -4 0.13939805E+00 0.12501556E+03</pdfrwt>
<totfact> 0.33753362E+03</totfact>
</mgrwt>
</event>
<event>
 5    1  0.3272646E-002  0.1249875E+03  0.7818608E-02  0.1235089E+00
         -4   -1    0    0    0  501 -0.00000000000E+00  0.00000000000E+00  0.24401924071E+04  0.24401927376E+04  0.12700000000E+01 0. -1.
          4   -1    0    0  501    0  0.00000000000E+00 -0.00000000000E+00 -0.13481527997E+01  0.18521382161E+01  0.12700000000E+01 0. -1.
         25    2    1    2    0    0  0.00000000000E+00  0.00000000000E+00  0.24388442543E+04  0.24420448758E+04  0.12498751417E+03 0.  0.
    9000005    1    3    3    0    0  0.23152644574E+02 -0.42668616203E+02  0.45074070817E+03  0.45334847718E+03  0.10000000000E+01 0.  0.
    9000005    1    3    3    0    0 -0.23152644574E+02  0.42668616203E+02  0.19881035461E+04  0.19886963986E+04  0.10000000000E+01 0.  0.
<mgrwt>
<rscale>  0 0.12498751E+03</rscale>
<asrwt>0</asrwt>
<pdfrwt beam="2">  1        4 0.24619988E-03 0.12498751E+03</pdfrwt>
<pdfrwt beam="1">  1       -4 0.37545571E+00 0.12498751E+03</pdfrwt>
<totfact> 0.51421022E+02</totfact>
</mgrwt>
</event>
<event>
 5    1  0.3272646E-002  0.1249938E+03  0.7818608E-02  0.1235079E+00
          4   -1    0    0  501    0  0.00000000000E+00  0.00000000000E+00  0.15701063293E+03  0.15701576912E+03  0.12700000000E+01 0.  1.
         -4   -1    0    0    0  501 -0.00000000000E+00 -0.00000000000E+00 -0.24854662515E+02  0.24887087992E+02  0.12700000000E+01 0.  1.
         25    2    1    2    0    0  0.00000000000E+00  0.00000000000E+00  0.13215597041E+03  0.18190285711E+03  0.12499379549E+03 0.  0.
    9000005    1    3    3    0    0  0.13630788815E+01  0.53463920618E+02  0.11311382131E+03  0.12512388007E+03  0.10000000000E+01 0.  0.
    9000005    1    3    3    0    0 -0.13630788815E+01 -0.53463920618E+02  0.19042149105E+02  0.56778977047E+02  0.10000000000E+01 0.  0.
<mgrwt>
<rscale>  0 0.12499380E+03</rscale>
<asrwt>0</asrwt>
<pdfrwt beam="1">  1        4 0.24158372E-01 0.12499380E+03</pdfrwt>
<pdfrwt beam="2">  1       -4 0.38266836E-02 0.12499380E+03</pdfrwt>
<totfact> 0.93288574E+03</totfact>
</mgrwt>
</event>
<event>
 5    1  0.3272646E-002  0.1250206E+03  0.7818608E-02  0.1235037E+00
          4   -1    0    0  501    0  0.00000000000E+00  0.00000000000E+00  0.19488083085E+03  0.19488496898E+03  0.12700000000E+01 0. -1.
         -4   -1    0    0    0  501 -0.00000000000E+00 -0.00000000000E+00 -0.20026427875E+02  0.20066656758E+02  0.12700000000E+01 0. -1.
         25    2    1    2    0    0  0.00000000000E+00  0.00000000000E+00  0.17485440298E+03  0.21495162574E+03  0.12502055498E+03 0.  0.
    9000005    1    3    3    0    0 -0.34073632275E+02  0.31011425481E+02  0.14810907731E+02  0.48405412038E+02  0.10000000000E+01 0.  0.
    9000005    1    3    3    0    0  0.34073632275E+02 -0.31011425481E+02  0.16004349525E+03  0.16654621370E+03  0.10000000000E+01 0.  0.
<mgrwt>
<rscale>  0 0.12502055E+03</rscale>
<asrwt>0</asrwt>
<pdfrwt beam="1">  1        4 0.29985078E-01 0.12502055E+03</pdfrwt>
<pdfrwt beam="2">  1       -4 0.30844018E-02 0.12502055E+03</pdfrwt>
<totfact> 0.87633288E+03</totfact>
</mgrwt>
</event>
<event>
 5    1  0.3272646E-002  0.1249967E+03  0.7818608E-02  0.1235074E+00
          4   -1    0    0  501    0  0.00000000000E+00  0.00000000000E+00  0.32279485167E+03  0.32279735000E+03  0.12700000000E+01 0.  1.
         -4   -1    0    0    0  501 -0.00000000000E+00 -0.00000000000E+00 -0.12064825728E+02  0.12131484651E+02  0.12700000000E+01 0.  1.
         25    2    1    2    0    0  0.00000000000E+00  0.00000000000E+00  0.31073002594E+03  0.33492883465E+03  0.12499670098E+03 0.  0.
    9000005    1    3    3    0    0 -0.17882240644E+02  0.28462138537E+02  0.14209043430E+02  0.36507051042E+02  0.10000000000E+01 0.  0.
    9000005    1    3    3    0    0  0.17882240644E+02 -0.28462138537E+02  0.29652098251E+03  0.29842178361E+03  0.10000000000E+01 0.  0.
<mgrwt>
<rscale>  0 0.12499670E+03</rscale>
<asrwt>0</asrwt>
<pdfrwt beam="1">  1        4 0.49666070E-01 0.12499670E+03</pdfrwt>
<pdfrwt beam="2">  1       -4 0.18614467E-02 0.12499670E+03</pdfrwt>
<totfact> 0.71420239E+03</totfact>
</mgrwt>
</event>
<event>
 5    1  0.3272646E-002  0.1249735E+03  0.7818608E-02  0.1235111E+00
          4   -1    0    0  501    0  0.00000000000E+00  0.00000000000E+00  0.66840682167E+02  0.66852746336E+02  0.12700000000E+01 0.  1.
         -4   -1    0    0    0  501 -0.00000000000E+00 -0.00000000000E+00 -0.58392220244E+02  0.58406029527E+02  0.12700000000E+01 0.  1.
         25    2    1    2    0    0  0.00000000000E+00  0.00000000000E+00  0.84484619231E+01  0.12525877586E+03  0.12497353488E+03 0.  0.
    9000005    1    3    3    0    0 -0.42429131900E+02 -0.69777746340E+01  0.49656218203E+02  0.65693687511E+02  0.10000000000E+01 0.  0.
    9000005    1    3    3    0    0  0.42429131900E+02  0.69777746340E+01 -0.41207756280E+02  0.59565088351E+02  0.10000000000E+01 0.  0.
<mgrwt>
<rscale>  0 0.12497353E+03</rscale>
<asrwt>0</asrwt>
<pdfrwt beam="1">  1        4 0.10285172E-01 0.12497353E+03</pdfrwt>
<pdfrwt beam="2">  1       -4 0.89854088E-02 0.12497353E+03</pdfrwt>
<totfact> 0.10453495E+04</totfact>
</mgrwt>
</event>
<event>
 5    1  0.3272646E-002  0.1249991E+03  0.7818608E-02  0.1235071E+00
          4   -1    0    0  501    0  0.00000000000E+00  0.00000000000E+00  0.18778211544E+02  0.18821108596E+02  0.12700000000E+01 0. -1.
         -4   -1    0    0    0  501 -0.00000000000E+00 -0.00000000000E+00 -0.20773506790E+03  0.20773894997E+03  0.12700000000E+01 0. -1.
         25    2    1    2    0    0  0.00000000000E+00  0.00000000000E+00 -0.18895685635E+03  0.22656005857E+03  0.12499906629E+03 0.  0.
    9000005    1    3    3    0    0 -0.18287228154E+02 -0.49569697184E+02 -0.33993951095E+02  0.62834435651E+02  0.10000000000E+01 0.  0.
    9000005    1    3    3    0    0  0.18287228154E+02  0.49569697184E+02 -0.15496290526E+03  0.16372562292E+03  0.10000000000E+01 0.  0.
<mgrwt>
<rscale>  0 0.12499907E+03</rscale>
<asrwt>0</asrwt>
<pdfrwt beam="1">  1        4 0.28925542E-02 0.12499907E+03</pdfrwt>
<pdfrwt beam="2">  1       -4 0.31962838E-01 0.12499907E+03</pdfrwt>
<totfact> 0.85842407E+03</totfact>
</mgrwt>
</event>
<event>
 5    1  0.3272646E-002  0.1249994E+03  0.7818608E-02  0.1235070E+00
          4   -1    0    0  501    0  0.00000000000E+00  0.00000000000E+00  0.83689978721E+02  0.83699614326E+02  0.12700000000E+01 0. -1.
         -4   -1    0    0    0  501 -0.00000000000E+00 -0.00000000000E+00 -0.46653834946E+02  0.46671117569E+02  0.12700000000E+01 0. -1.
         25    2    1    2    0    0  0.00000000000E+00  0.00000000000E+00  0.37036143775E+02  0.13037073189E+03  0.12499940715E+03 0.  0.
    9000005    1    3    3    0    0  0.51949140038E+01  0.61890230181E+02  0.11305325597E+02  0.63136345398E+02  0.10000000000E+01 0.  0.
    9000005    1    3    3    0    0 -0.51949140038E+01 -0.61890230181E+02  0.25730818178E+02  0.67234386496E+02  0.10000000000E+01 0.  0.
<mgrwt>
<rscale>  0 0.12499941E+03</rscale>
<asrwt>0</asrwt>
<pdfrwt beam="1">  1        4 0.12877452E-01 0.12499941E+03</pdfrwt>
<pdfrwt beam="2">  1       -4 0.71795838E-02 0.12499941E+03</pdfrwt>
<totfact> 0.10336722E+04</totfact>
</mgrwt>
</event>
<event>
 5    1  0.3272646E-002  0.1250000E+03  0.7818608E-02  0.1235069E+00
         -4   -1    0    0    0  501 -0.00000000000E+00  0.00000000000E+00  0.72466617963E+02  0.72477745681E+02  0.12700000000E+01 0.  1.
          4   -1    0    0  501    0  0.00000000000E+00 -0.00000000000E+00 -0.53881343614E+02  0.53896308683E+02  0.12700000000E+01 0.  1.
         25    2    1    2    0    0  0.00000000000E+00  0.00000000000E+00  0.18585274349E+02  0.12637405436E+03  0.12499995677E+03 0.  0.
    9000005    1    3    3    0    0  0.35716389792E+01 -0.47238192212E+01  0.72187246873E+02  0.72436659808E+02  0.10000000000E+01 0.  0.
    9000005    1    3    3    0    0 -0.35716389792E+01  0.47238192212E+01 -0.53601972524E+02  0.53937394556E+02  0.10000000000E+01 0.  0.
<mgrwt>
<rscale>  0 0.12499996E+03</rscale>
<asrwt>0</asrwt>
<pdfrwt beam="2">  1        4 0.82914447E-02 0.12499996E+03</pdfrwt>
<pdfrwt beam="1">  1       -4 0.11150718E-01 0.12499996E+03</pdfrwt>
<totfact> 0.10422786E+04</totfact>
</mgrwt>
</event>
<event>
 5    1  0.3272646E-002  0.1250111E+03  0.7818608E-02  0.1235052E+00
          4   -1    0    0  501    0  0.00000000000E+00  0.00000000000E+00  0.11176896465E+03  0.11177617975E+03  0.12700000000E+01 0.  1.
         -4   -1    0    0    0  501 -0.00000000000E+00 -0.00000000000E+00 -0.34935671545E+02  0.34958747779E+02  0.12700000000E+01 0.  1.
         25    2    1    2    0    0  0.00000000000E+00  0.00000000000E+00  0.76833293107E+02  0.14673492753E+03  0.12501113561E+03 0.  0.
    9000005    1    3    3    0    0 -0.18442176540E+02 -0.21588078762E+02  0.10376741924E+03  0.10758641325E+03  0.10000000000E+01 0.  0.
    9000005    1    3    3    0    0  0.18442176540E+02  0.21588078762E+02 -0.26934126130E+02  0.39148514282E+02  0.10000000000E+01 0.  0.
<mgrwt>
<rscale>  0 0.12501114E+03</rscale>
<asrwt>0</asrwt>
<pdfrwt beam="1">  1        4 0.17197555E-01 0.12501114E+03</pdfrwt>
<pdfrwt beam="2">  1       -4 0.53770489E-02 0.12501114E+03</pdfrwt>
<totfact> 0.99933514E+03</totfact>
</mgrwt>
</event>
<event>
 5    1  0.3272646E-002  0.1250008E+03  0.7818608E-02  0.1235068E+00
          4   -1    0    0  501    0  0.00000000000E+00  0.00000000000E+00  0.29425757083E+01  0.32049417778E+01  0.12700000000E+01 0. -1.
         -4   -1    0    0    0  501 -0.00000000000E+00 -0.00000000000E+00 -0.12705918386E+04  0.12705924733E+04  0.12700000000E+01 0. -1.
         25    2    1    2    0    0  0.00000000000E+00  0.00000000000E+00 -0.12676492629E+04  0.12737974150E+04  0.12500080383E+03 0.  0.
    9000005    1    3    3    0    0  0.45778408868E+02 -0.19695886379E+02 -0.24959309934E+03  0.25452171989E+03  0.10000000000E+01 0.  0.
    9000005    1    3    3    0    0 -0.45778408868E+02  0.19695886379E+02 -0.10180561635E+04  0.10192756952E+04  0.10000000000E+01 0.  0.
<mgrwt>
<rscale>  0 0.12500080E+03</rscale>
<asrwt>0</asrwt>
<pdfrwt beam="1">  1        4 0.47293580E-03 0.12500080E+03</pdfrwt>
<pdfrwt beam="2">  1       -4 0.19549548E+00 0.12500080E+03</pdfrwt>
<totfact> 0.22855181E+03</totfact>
</mgrwt>
</event>
<event>
 5    1  0.3272646E-002  0.1249942E+03  0.7818608E-02  0.1235078E+00
          4   -1    0    0  501    0  0.00000000000E+00  0.00000000000E+00  0.47396151639E+03  0.47396321789E+03  0.12700000000E+01 0. -1.
         -4   -1    0    0    0  501 -0.00000000000E+00 -0.00000000000E+00 -0.81902861551E+01  0.82881654968E+01  0.12700000000E+01 0. -1.
         25    2    1    2    0    0  0.00000000000E+00  0.00000000000E+00  0.46577123023E+03  0.48225138339E+03  0.12499423135E+03 0.  0.
    9000005    1    3    3    0    0 -0.41941082116E+02  0.76613801307E+01  0.40914779274E+03  0.41136439736E+03  0.10000000000E+01 0.  0.
    9000005    1    3    3    0    0  0.41941082116E+02 -0.76613801307E+01  0.56623437493E+02  0.70886986028E+02  0.10000000000E+01 0.  0.
<mgrwt>
<rscale>  0 0.12499423E+03</rscale>
<asrwt>0</asrwt>
<pdfrwt beam="1">  1        4 0.72924814E-01 0.12499423E+03</pdfrwt>
<pdfrwt beam="2">  1       -4 0.12677041E-02 0.12499423E+03</pdfrwt>
<totfact> 0.57275493E+03</totfact>
</mgrwt>
</event>
<event>
 5    1  0.3272646E-002  0.1249981E+03  0.7818608E-02  0.1235072E+00
          4   -1    0    0  501    0  0.00000000000E+00  0.00000000000E+00  0.54344342729E+02  0.54359180334E+02  0.12700000000E+01 0. -1.
         -4   -1    0    0    0  501 -0.00000000000E+00 -0.00000000000E+00 -0.71847216921E+02  0.71858440557E+02  0.12700000000E+01 0. -1.
         25    2    1    2    0    0  0.00000000000E+00  0.00000000000E+00 -0.17502874192E+02  0.12621762089E+03  0.12499814886E+03 0.  0.
    9000005    1    3    3    0    0  0.50947827881E+02 -0.36168246605E+02 -0.75952439356E+01  0.62948478605E+02  0.10000000000E+01 0.  0.
    9000005    1    3    3    0    0 -0.50947827881E+02  0.36168246605E+02 -0.99076302564E+01  0.63269142286E+02  0.10000000000E+01 0.  0.
<mgrwt>
<rscale>  0 0.12499815E+03</rscale>
<asrwt>0</asrwt>
<pdfrwt beam="1">  1        4 0.83626728E-02 0.12499815E+03</pdfrwt>
<pdfrwt beam="2">  1       -4 0.11055423E-01 0.12499815E+03</pdfrwt>
<totfact> 0.10426629E+04</totfact>
</mgrwt>
</event>
<event>
 5    1  0.3272646E-002  0.1250006E+03  0.7818608E-02  0.1235068E+00
         -4   -1    0    0    0  501 -0.00000000000E+00  0.00000000000E+00  0.90563878291E+02  0.90572782617E+02  0.12700000000E+01 0. -1.
          4   -1    0    0  501    0  0.00000000000E+00 -0.00000000000E+00 -0.43112588345E+02  0.43131289962E+02  0.12700000000E+01 0. -1.
         25    2    1    2    0    0  0.00000000000E+00  0.00000000000E+00  0.47451289946E+02  0.13370407258E+03  0.12500061643E+03 0.  0.
    9000005    1    3    3    0    0  0.42977763961E+02  0.25466641009E+02 -0.16433847005E+02  0.52599518314E+02  0.10000000000E+01 0.  0.
    9000005    1    3    3    0    0 -0.42977763961E+02 -0.25466641009E+02  0.63885136951E+02  0.81104554266E+02  0.10000000000E+01 0.  0.
<mgrwt>
<rscale>  0 0.12500062E+03</rscale>
<asrwt>0</asrwt>
<pdfrwt beam="2">  1        4 0.66348295E-02 0.12500062E+03</pdfrwt>
<pdfrwt beam="1">  1       -4 0.13935028E-01 0.12500062E+03</pdfrwt>
<totfact> 0.10265316E+04</totfact>
</mgrwt>
</event>
<event>
 5    1  0.3272646E-002  0.1250018E+03  0.7818608E-02  0.1235066E+00
          4   -1    0    0  501    0  0.00000000000E+00  0.00000000000E+00  0.57651463061E+03  0.57651602945E+03  0.12700000000E+01 0.  1.
         -4   -1    0    0    0  501 -0.00000000000E+00 -0.00000000000E+00 -0.67149018243E+01  0.68339451644E+01  0.12700000000E+01 0.  1.
         25    2    1    2    0    0  0.00000000000E+00  0.00000000000E+00  0.56979972879E+03  0.58334997461E+03  0.12500184780E+03 0.  0.
    9000005    1    3    3    0    0  0.51145194860E+02  0.95626843592E+01  0.44643142888E+03  0.44945444328E+03  0.10000000000E+01 0.  0.
    9000005    1    3    3    0    0 -0.51145194860E+02 -0.95626843592E+01  0.12336829991E+03  0.13389553134E+03  0.10000000000E+01 0.  0.
<mgrwt>
<rscale>  0 0.12500185E+03</rscale>
<asrwt>0</asrwt>
<pdfrwt beam="1">  1        4 0.88703830E-01 0.12500185E+03</pdfrwt>
<pdfrwt beam="2">  1       -4 0.10423265E-02 0.12500185E+03</pdfrwt>
<totfact> 0.49933734E+03</totfact>
</mgrwt>
</event>
<event>
 5    1  0.3272646E-002  0.1249936E+03  0.7818608E-02  0.1235079E+00
          4   -1    0    0  501    0  0.00000000000E+00  0.00000000000E+00  0.14976422120E+03  0.14976960590E+03  0.12700000000E+01 0.  1.
         -4   -1    0    0    0  501 -0.00000000000E+00 -0.00000000000E+00 -0.26058663761E+02  0.26089592887E+02  0.12700000000E+01 0.  1.
         25    2    1    2    0    0  0.00000000000E+00  0.00000000000E+00  0.12370555744E+03  0.17585919879E+03  0.12499357126E+03 0.  0.
    9000005    1    3    3    0    0  0.48134260872E+02  0.16747913060E+02  0.11272605621E+03  0.12371565548E+03  0.10000000000E+01 0.  0.
    9000005    1    3    3    0    0 -0.48134260872E+02 -0.16747913060E+02  0.10979501227E+02  0.52143543308E+02  0.10000000000E+01 0.  0.
<mgrwt>
<rscale>  0 0.12499357E+03</rscale>
<asrwt>0</asrwt>
<pdfrwt beam="1">  1        4 0.23043443E-01 0.12499357E+03</pdfrwt>
<pdfrwt beam="2">  1       -4 0.40118185E-02 0.12499357E+03</pdfrwt>
<totfact> 0.94381325E+03</totfact>
</mgrwt>
</event>
<event>
 5    1  0.3272646E-002  0.1250028E+03  0.7818608E-02  0.1235065E+00
         -4   -1    0    0    0  501 -0.00000000000E+00  0.00000000000E+00  0.89395875960E+02  0.89404896614E+02  0.12700000000E+01 0. -1.
          4   -1    0    0  501    0  0.00000000000E+00 -0.00000000000E+00 -0.43677565382E+02  0.43696025193E+02  0.12700000000E+01 0. -1.
         25    2    1    2    0    0  0.00000000000E+00  0.00000000000E+00  0.45718310578E+02  0.13310092181E+03  0.12500276583E+03 0.  0.
    9000005    1    3    3    0    0  0.55795073023E+02 -0.27758141569E+02  0.27832763680E+02  0.68258826030E+02  0.10000000000E+01 0.  0.
    9000005    1    3    3    0    0 -0.55795073023E+02  0.27758141569E+02  0.17885546898E+02  0.64842095777E+02  0.10000000000E+01 0.  0.
<mgrwt>
<rscale>  0 0.12500277E+03</rscale>
<asrwt>0</asrwt>
<pdfrwt beam="2">  1        4 0.67217394E-02 0.12500277E+03</pdfrwt>
<pdfrwt beam="1">  1       -4 0.13755325E-01 0.12500277E+03</pdfrwt>
<totfact> 0.10277614E+04</totfact>
</mgrwt>
</event>
<event>
 5    1  0.3272646E-002  0.1250031E+03  0.7818608E-02  0.1235064E+00
          4   -1    0    0  501    0  0.00000000000E+00  0.00000000000E+00  0.44323928824E+03  0.44324110768E+03  0.12700000000E+01 0. -1.
         -4   -1    0    0    0  501 -0.00000000000E+00 -0.00000000000E+00 -0.87657966973E+01  0.88573185411E+01  0.12700000000E+01 0. -1.
         25    2    1    2    0    0  0.00000000000E+00  0.00000000000E+00  0.43447349154E+03  0.45209842622E+03  0.12500308852E+03 0.  0.
    9000005    1    3    3    0    0  0.47318947315E+02  0.33497173609E+02  0.13285834937E+03  0.14496028563E+03  0.10000000000E+01 0.  0.
    9000005    1    3    3    0    0 -0.47318947315E+02 -0.33497173609E+02  0.30161514217E+03  0.30713814059E+03  0.10000000000E+01 0.  0.
<mgrwt>
<rscale>  0 0.12500309E+03</rscale>
<asrwt>0</asrwt>
<pdfrwt beam="1">  1        4 0.68197846E-01 0.12500309E+03</pdfrwt>
<pdfrwt beam="2">  1       -4 0.13557641E-02 0.12500309E+03</pdfrwt>
<totfact> 0.59778367E+03</totfact>
</mgrwt>
</event>
<event>
 5    1  0.3272646E-002  0.1250004E+03  0.7818608E-02  0.1235069E+00
         -4   -1    0    0    0  501 -0.00000000000E+00  0.00000000000E+00  0.90122623198E+01  0.91013060668E+01  0.12700000000E+01 0. -1.
          4   -1    0    0  501    0  0.00000000000E+00 -0.00000000000E+00 -0.43121911423E+03  0.43122098439E+03  0.12700000000E+01 0. -1.
         25    2    1    2    0    0  0.00000000000E+00  0.00000000000E+00 -0.42220685191E+03  0.44032229046E+03  0.12500037469E+03 0.  0.
    9000005    1    3    3    0    0  0.58346997488E+02  0.22183626613E+02 -0.22154593091E+03  0.23017403178E+03  0.10000000000E+01 0.  0.
    9000005    1    3    3    0    0 -0.58346997488E+02 -0.22183626613E+02 -0.20066092101E+03  0.21014825868E+03  0.10000000000E+01 0.  0.
<mgrwt>
<rscale>  0 0.12500037E+03</rscale>
<asrwt>0</asrwt>
<pdfrwt beam="2">  1        4 0.66348380E-01 0.12500037E+03</pdfrwt>
<pdfrwt beam="1">  1       -4 0.13934956E-02 0.12500037E+03</pdfrwt>
<totfact> 0.60810860E+03</totfact>
</mgrwt>
</event>
<event>
 5    1  0.3272646E-002  0.1249834E+03  0.7818608E-02  0.1235095E+00
          4   -1    0    0  501    0  0.00000000000E+00  0.00000000000E+00  0.35671068809E+02  0.35693669606E+02  0.12700000000E+01 0.  1.
         -4   -1    0    0    0  501 -0.00000000000E+00 -0.00000000000E+00 -0.10941743336E+03  0.10942480350E+03  0.12700000000E+01 0.  1.
         25    2    1    2    0    0  0.00000000000E+00  0.00000000000E+00 -0.73746364546E+02  0.14511847311E+03  0.12498337871E+03 0.  0.
    9000005    1    3    3    0    0 -0.38229597043E+02  0.23005748722E+02 -0.87663203468E+02  0.98369730134E+02  0.10000000000E+01 0.  0.
    9000005    1    3    3    0    0  0.38229597043E+02 -0.23005748722E+02  0.13916838922E+02  0.46748742977E+02  0.10000000000E+01 0.  0.
<mgrwt>
<rscale>  0 0.12498338E+03</rscale>
<asrwt>0</asrwt>
<pdfrwt beam="1">  1        4 0.54901622E-02 0.12498338E+03</pdfrwt>
<pdfrwt beam="2">  1       -4 0.16835757E-01 0.12498338E+03</pdfrwt>
<totfact> 0.10032336E+04</totfact>
</mgrwt>
</event>
<event>
 5    1  0.3272646E-002  0.1249999E+03  0.7818608E-02  0.1235069E+00
         -4   -1    0    0    0  501 -0.00000000000E+00  0.00000000000E+00  0.40946344004E+02  0.40966034557E+02  0.12700000000E+01 0.  1.
          4   -1    0    0  501    0  0.00000000000E+00 -0.00000000000E+00 -0.95352229430E+02  0.95360686644E+02  0.12700000000E+01 0.  1.
         25    2    1    2    0    0  0.00000000000E+00  0.00000000000E+00 -0.54405885426E+02  0.13632672120E+03  0.12499989818E+03 0.  0.
    9000005    1    3    3    0    0 -0.40531966858E+02 -0.25456440706E+01  0.24597499339E+02  0.47490605543E+02  0.10000000000E+01 0.  0.
    9000005    1    3    3    0    0  0.40531966858E+02  0.25456440706E+01 -0.79003384764E+02  0.88836115658E+02  0.10000000000E+01 0.  0.
<mgrwt>
<rscale>  0 0.12499990E+03</rscale>
<asrwt>0</asrwt>
<pdfrwt beam="2">  1        4 0.14671739E-01 0.12499990E+03</pdfrwt>
<pdfrwt beam="1">  1       -4 0.63016028E-02 0.12499990E+03</pdfrwt>
<totfact> 0.10210206E+04</totfact>
</mgrwt>
</event>
<event>
 5    1  0.3272646E-002  0.1249983E+03  0.7818608E-02  0.1235072E+00
          4   -1    0    0  501    0  0.00000000000E+00  0.00000000000E+00  0.56260599907E+02  0.56274932269E+02  0.12700000000E+01 0.  1.
         -4   -1    0    0    0  501 -0.00000000000E+00 -0.00000000000E+00 -0.69400514294E+02  0.69412133552E+02  0.12700000000E+01 0.  1.
         25    2    1    2    0    0  0.00000000000E+00  0.00000000000E+00 -0.13139914387E+02  0.12568706582E+03  0.12499832465E+03 0.  0.
    9000005    1    3    3    0    0 -0.13670981668E+02 -0.97029331522E+01 -0.67102182516E+02  0.69171855186E+02  0.10000000000E+01 0.  0.
    9000005    1    3    3    0    0  0.13670981668E+02  0.97029331522E+01  0.53962268129E+02  0.56515210635E+02  0.10000000000E+01 0.  0.
<mgrwt>
<rscale>  0 0.12499832E+03</rscale>
<asrwt>0</asrwt>
<pdfrwt beam="1">  1        4 0.86574732E-02 0.12499832E+03</pdfrwt>
<pdfrwt beam="2">  1       -4 0.10678998E-01 0.12499832E+03</pdfrwt>
<totfact> 0.10438223E+04</totfact>
</mgrwt>
</event>
<event>
 5    1  0.3272646E-002  0.1250049E+03  0.7818608E-02  0.1235062E+00
          4   -1    0    0  501    0  0.00000000000E+00  0.00000000000E+00  0.16163415901E+03  0.16163914828E+03  0.12700000000E+01 0.  1.
         -4   -1    0    0    0  501 -0.00000000000E+00 -0.00000000000E+00 -0.24147074251E+02  0.24180448608E+02  0.12700000000E+01 0.  1.
         25    2    1    2    0    0  0.00000000000E+00  0.00000000000E+00  0.13748708476E+03  0.18581959689E+03  0.12500489636E+03 0.  0.
    9000005    1    3    3    0    0  0.17632933358E+02  0.16756961428E+02 -0.16828175916E+02  0.29595668598E+02  0.10000000000E+01 0.  0.
    9000005    1    3    3    0    0 -0.17632933358E+02 -0.16756961428E+02  0.15431526067E+03  0.15622392829E+03  0.10000000000E+01 0.  0.
<mgrwt>
<rscale>  0 0.12500490E+03</rscale>
<asrwt>0</asrwt>
<pdfrwt beam="1">  1        4 0.24869745E-01 0.12500490E+03</pdfrwt>
<pdfrwt beam="2">  1       -4 0.37178854E-02 0.12500490E+03</pdfrwt>
<totfact> 0.92569663E+03</totfact>
</mgrwt>
</event>
<event>
 5    1  0.3272646E-002  0.1249989E+03  0.7818608E-02  0.1235071E+00
          4   -1    0    0  501    0  0.00000000000E+00  0.00000000000E+00  0.10281795628E+02  0.10359933461E+02  0.12700000000E+01 0.  1.
         -4   -1    0    0    0  501 -0.00000000000E+00 -0.00000000000E+00 -0.37839499855E+03  0.37839712978E+03  0.12700000000E+01 0.  1.
         25    2    1    2    0    0  0.00000000000E+00  0.00000000000E+00 -0.36811320292E+03  0.38875706325E+03  0.12499889622E+03 0.  0.
    9000005    1    3    3    0    0 -0.15022403794E+02 -0.90749375942E+01  0.24746588164E+01  0.17752494032E+02  0.10000000000E+01 0.  0.
    9000005    1    3    3    0    0  0.15022403794E+02  0.90749375942E+01 -0.37058786174E+03  0.37100456921E+03  0.10000000000E+01 0.  0.
<mgrwt>
<rscale>  0 0.12499890E+03</rscale>
<asrwt>0</asrwt>
<pdfrwt beam="1">  1        4 0.15879896E-02 0.12499890E+03</pdfrwt>
<pdfrwt beam="2">  1       -4 0.58220779E-01 0.12499890E+03</pdfrwt>
<totfact> 0.65662757E+03</totfact>
</mgrwt>
</event>
<event>
 5    1  0.3272646E-002  0.1249989E+03  0.7818608E-02  0.1235071E+00
         -4   -1    0    0    0  501 -0.00000000000E+00  0.00000000000E+00  0.24824365244E+01  0.27884388280E+01  0.12700000000E+01 0.  1.
          4   -1    0    0  501    0  0.00000000000E+00 -0.00000000000E+00 -0.14818687187E+04  0.14818692629E+04  0.12700000000E+01 0.  1.
         25    2    1    2    0    0  0.00000000000E+00  0.00000000000E+00 -0.14793862821E+04  0.14846577017E+04  0.12499887777E+03 0.  0.
    9000005    1    3    3    0    0  0.55549527978E+02 -0.21922664288E+02 -0.95832274401E+03  0.96018218842E+03  0.10000000000E+01 0.  0.
    9000005    1    3    3    0    0 -0.55549527978E+02  0.21922664288E+02 -0.52106353813E+03  0.52447551329E+03  0.10000000000E+01 0.  0.
<mgrwt>
<rscale>  0 0.12499888E+03</rscale>
<asrwt>0</asrwt>
<pdfrwt beam="2">  1        4 0.22800272E+00 0.12499888E+03</pdfrwt>
<pdfrwt beam="1">  1       -4 0.40549500E-03 0.12499888E+03</pdfrwt>
<totfact> 0.18234387E+03</totfact>
</mgrwt>
</event>
<event>
 5    1  0.3272646E-002  0.1249999E+03  0.7818608E-02  0.1235069E+00
          4   -1    0    0  501    0  0.00000000000E+00  0.00000000000E+00  0.75587130299E+02  0.75597798691E+02  0.12700000000E+01 0.  1.
         -4   -1    0    0    0  501 -0.00000000000E+00 -0.00000000000E+00 -0.51656538551E+02  0.51672147963E+02  0.12700000000E+01 0.  1.
         25    2    1    2    0    0  0.00000000000E+00  0.00000000000E+00  0.23930591748E+02  0.12726994665E+03  0.12499986440E+03 0.  0.
    9000005    1    3    3    0    0 -0.51591490328E+02 -0.35114842449E+02  0.15265690124E+02  0.64255547072E+02  0.10000000000E+01 0.  0.
    9000005    1    3    3    0    0  0.51591490328E+02  0.35114842449E+02  0.86649016244E+01  0.63014399582E+02  0.10000000000E+01 0.  0.
<mgrwt>
<rscale>  0 0.12499986E+03</rscale>
<asrwt>0</asrwt>
<pdfrwt beam="1">  1        4 0.11630811E-01 0.12499986E+03</pdfrwt>
<pdfrwt beam="2">  1       -4 0.79491812E-02 0.12499986E+03</pdfrwt>
<totfact> 0.10403318E+04</totfact>
</mgrwt>
</event>
<event>
 5    1  0.3272646E-002  0.1250040E+03  0.7818608E-02  0.1235063E+00
          4   -1    0    0  501    0  0.00000000000E+00  0.00000000000E+00  0.57675354824E+02  0.57689335705E+02  0.12700000000E+01 0.  1.
         -4   -1    0    0    0  501 -0.00000000000E+00 -0.00000000000E+00 -0.67704414391E+02  0.67716324679E+02  0.12700000000E+01 0.  1.
         25    2    1    2    0    0  0.00000000000E+00  0.00000000000E+00 -0.10029059567E+02  0.12540566038E+03  0.12500399042E+03 0.  0.
    9000005    1    3    3    0    0 -0.61610258219E+02  0.38012748972E+01 -0.14804256519E+02  0.63485743437E+02  0.10000000000E+01 0.  0.
    9000005    1    3    3    0    0  0.61610258219E+02 -0.38012748972E+01  0.47751969518E+01  0.61919916946E+02  0.10000000000E+01 0.  0.
<mgrwt>
<rscale>  0 0.12500399E+03</rscale>
<asrwt>0</asrwt>
<pdfrwt beam="1">  1        4 0.88751232E-02 0.12500399E+03</pdfrwt>
<pdfrwt beam="2">  1       -4 0.10418055E-01 0.12500399E+03</pdfrwt>
<totfact> 0.10443102E+04</totfact>
</mgrwt>
</event>
<event>
 5    1  0.3272646E-002  0.1250019E+03  0.7818608E-02  0.1235066E+00
          4   -1    0    0  501    0  0.00000000000E+00  0.00000000000E+00  0.19914340807E+03  0.19914745763E+03  0.12700000000E+01 0.  1.
         -4   -1    0    0    0  501 -0.00000000000E+00 -0.00000000000E+00 -0.19591049835E+02  0.19632170884E+02  0.12700000000E+01 0.  1.
         25    2    1    2    0    0  0.00000000000E+00  0.00000000000E+00  0.17955235824E+03  0.21877962851E+03  0.12500190599E+03 0.  0.
    9000005    1    3    3    0    0  0.22887385185E+02  0.53403619116E+02  0.49498891944E+02  0.76334259929E+02  0.10000000000E+01 0.  0.
    9000005    1    3    3    0    0 -0.22887385185E+02 -0.53403619116E+02  0.13005346629E+03  0.14244536858E+03  0.10000000000E+01 0.  0.
<mgrwt>
<rscale>  0 0.12500191E+03</rscale>
<asrwt>0</asrwt>
<pdfrwt beam="1">  1        4 0.30640924E-01 0.12500191E+03</pdfrwt>
<pdfrwt beam="2">  1       -4 0.30174822E-02 0.12500191E+03</pdfrwt>
<totfact> 0.87058117E+03</totfact>
</mgrwt>
</event>
<event>
 5    1  0.3272646E-002  0.1250065E+03  0.7818608E-02  0.1235059E+00
          4   -1    0    0  501    0  0.00000000000E+00  0.00000000000E+00  0.66114379744E+02  0.66126576419E+02  0.12700000000E+01 0.  1.
         -4   -1    0    0    0  501 -0.00000000000E+00 -0.00000000000E+00 -0.59064871832E+02  0.59078523886E+02  0.12700000000E+01 0.  1.
         25    2    1    2    0    0  0.00000000000E+00  0.00000000000E+00  0.70495079114E+01  0.12520510031E+03  0.12500648615E+03 0.  0.
    9000005    1    3    3    0    0 -0.38870050563E+02 -0.48781384307E+02 -0.37387308861E+00  0.62383043103E+02  0.10000000000E+01 0.  0.
    9000005    1    3    3    0    0  0.38870050563E+02  0.48781384307E+02  0.74233810000E+01  0.62822057202E+02  0.10000000000E+01 0.  0.
<mgrwt>
<rscale>  0 0.12500649E+03</rscale>
<asrwt>0</asrwt>
<pdfrwt beam="1">  1        4 0.10173431E-01 0.12500649E+03</pdfrwt>
<pdfrwt beam="2">  1       -4 0.90888917E-02 0.12500649E+03</pdfrwt>
<totfact> 0.10446878E+04</totfact>
</mgrwt>
</event>
<event>
 4    1  0.3272646E-002  0.1250687E+03  0.7818608E-02  0.1234962E+00
         -4   -1    0    0    0  501 -0.00000000000E+00  0.00000000000E+00  0.13279508952E+03  0.13280116227E+03  0.12700000000E+01 0. -1.
          4   -1    0    0  501    0  0.00000000000E+00 -0.00000000000E+00 -0.29427509070E+02  0.29454900952E+02  0.12700000000E+01 0. -1.
    9000005    1    1    2    0    0 -0.48603783524E+02  0.39312121398E+02  0.53411089037E+02  0.82228432393E+02  0.10000000000E+01 0.  0.
    9000005    1    1    2    0    0  0.48603783524E+02 -0.39312121398E+02  0.49956491408E+02  0.80027630825E+02  0.10000000000E+01 0.  0.
<mgrwt>
<rscale>  0 0.12506867E+03</rscale>
<asrwt>0</asrwt>
<pdfrwt beam="2">  1        4 0.45298833E-02 0.12506867E+03</pdfrwt>
<pdfrwt beam="1">  1       -4 0.20432588E-01 0.12506867E+03</pdfrwt>
<totfact> 0.96760186E+03</totfact>
</mgrwt>
</event>
<event>
 5    1  0.3272646E-002  0.1250003E+03  0.7818608E-02  0.1235069E+00
         -4   -1    0    0    0  501 -0.00000000000E+00  0.00000000000E+00  0.21023134418E+02  0.21061459607E+02  0.12700000000E+01 0.  1.
          4   -1    0    0  501    0  0.00000000000E+00 -0.00000000000E+00 -0.18559848015E+03  0.18560282523E+03  0.12700000000E+01 0.  1.
         25    2    1    2    0    0  0.00000000000E+00  0.00000000000E+00 -0.16457534573E+03  0.20666428484E+03  0.12500032882E+03 0.  0.
    9000005    1    3    3    0    0  0.35200052678E+02  0.61078516895E+01  0.24824945935E+01  0.35826140459E+02  0.10000000000E+01 0.  0.
    9000005    1    3    3    0    0 -0.35200052678E+02 -0.61078516895E+01 -0.16705784033E+03  0.17083814438E+03  0.10000000000E+01 0.  0.
<mgrwt>
<rscale>  0 0.12500033E+03</rscale>
<asrwt>0</asrwt>
<pdfrwt beam="2">  1        4 0.28556894E-01 0.12500033E+03</pdfrwt>
<pdfrwt beam="1">  1       -4 0.32376108E-02 0.12500033E+03</pdfrwt>
<totfact> 0.89022907E+03</totfact>
</mgrwt>
</event>
<event>
 5    1  0.3272646E-002  0.1250013E+03  0.7818608E-02  0.1235067E+00
          4   -1    0    0  501    0  0.00000000000E+00  0.00000000000E+00  0.56593836743E+02  0.56608084735E+02  0.12700000000E+01 0. -1.
         -4   -1    0    0    0  501 -0.00000000000E+00 -0.00000000000E+00 -0.68995140714E+02  0.69006828229E+02  0.12700000000E+01 0. -1.
         25    2    1    2    0    0  0.00000000000E+00  0.00000000000E+00 -0.12401303971E+02  0.12561491296E+03  0.12500125607E+03 0.  0.
    9000005    1    3    3    0    0 -0.38821782388E+02  0.44925686770E+02  0.13385551383E+02  0.60873812969E+02  0.10000000000E+01 0.  0.
    9000005    1    3    3    0    0  0.38821782388E+02 -0.44925686770E+02 -0.25786855353E+02  0.64741099995E+02  0.10000000000E+01 0.  0.
<mgrwt>
<rscale>  0 0.12500126E+03</rscale>
<asrwt>0</asrwt>
<pdfrwt beam="1">  1        4 0.87087391E-02 0.12500126E+03</pdfrwt>
<pdfrwt beam="2">  1       -4 0.10616632E-01 0.12500126E+03</pdfrwt>
<totfact> 0.10439122E+04</totfact>
</mgrwt>
</event>
<event>
 5    1  0.3272646E-002  0.1249969E+03  0.7818608E-02  0.1235074E+00
         -4   -1    0    0    0  501 -0.00000000000E+00  0.00000000000E+00  0.58639026727E+02  0.58652777901E+02  0.12700000000E+01 0.  1.
          4   -1    0    0  501    0  0.00000000000E+00 -0.00000000000E+00 -0.66584246801E+02  0.66596357424E+02  0.12700000000E+01 0.  1.
         25    2    1    2    0    0  0.00000000000E+00  0.00000000000E+00 -0.79452200742E+01  0.12524913532E+03  0.12499687747E+03 0.  0.
    9000005    1    3    3    0    0  0.55810936547E+02 -0.26655830040E+02 -0.12915919547E+02  0.63191889441E+02  0.10000000000E+01 0.  0.
    9000005    1    3    3    0    0 -0.55810936547E+02  0.26655830040E+02  0.49706994725E+01  0.62057245884E+02  0.10000000000E+01 0.  0.
<mgrwt>
<rscale>  0 0.12499688E+03</rscale>
<asrwt>0</asrwt>
<pdfrwt beam="2">  1        4 0.10245720E-01 0.12499688E+03</pdfrwt>
<pdfrwt beam="1">  1       -4 0.90233781E-02 0.12499688E+03</pdfrwt>
<totfact> 0.10448191E+04</totfact>
</mgrwt>
</event>
<event>
 5    1  0.3272646E-002  0.1250221E+03  0.7818608E-02  0.1235035E+00
         -4   -1    0    0    0  501 -0.00000000000E+00  0.00000000000E+00  0.26004786658E+02  0.26035779787E+02  0.12700000000E+01 0. -1.
          4   -1    0    0  501    0  0.00000000000E+00 -0.00000000000E+00 -0.15014260087E+03  0.15014797200E+03  0.12700000000E+01 0. -1.
         25    2    1    2    0    0  0.00000000000E+00  0.00000000000E+00 -0.12413781421E+03  0.17618375178E+03  0.12502206796E+03 0.  0.
    9000005    1    3    3    0    0 -0.55966125121E+02  0.11132904998E+02 -0.98010420619E+02  0.11341600983E+03  0.10000000000E+01 0.  0.
    9000005    1    3    3    0    0  0.55966125121E+02 -0.11132904998E+02 -0.26127393588E+02  0.62767741958E+02  0.10000000000E+01 0.  0.
<mgrwt>
<rscale>  0 0.12502207E+03</rscale>
<asrwt>0</asrwt>
<pdfrwt beam="2">  1        4 0.23101658E-01 0.12502207E+03</pdfrwt>
<pdfrwt beam="1">  1       -4 0.40035338E-02 0.12502207E+03</pdfrwt>
<totfact> 0.94261818E+03</totfact>
</mgrwt>
</event>
<event>
 5    1  0.3272646E-002  0.1250030E+03  0.7818608E-02  0.1235065E+00
         -4   -1    0    0    0  501 -0.00000000000E+00  0.00000000000E+00  0.92153477199E+02  0.92162227945E+02  0.12700000000E+01 0.  1.
          4   -1    0    0  501    0  0.00000000000E+00 -0.00000000000E+00 -0.42370257713E+02  0.42389286838E+02  0.12700000000E+01 0.  1.
         25    2    1    2    0    0  0.00000000000E+00  0.00000000000E+00  0.49783219486E+02  0.13455151478E+03  0.12500296472E+03 0.  0.
    9000005    1    3    3    0    0 -0.21989947032E+02 -0.55002395225E+02  0.34551864899E+01  0.59344414772E+02  0.10000000000E+01 0.  0.
    9000005    1    3    3    0    0  0.21989947032E+02  0.55002395225E+02  0.46328032996E+02  0.75207100012E+02  0.10000000000E+01 0.  0.
<mgrwt>
<rscale>  0 0.12500296E+03</rscale>
<asrwt>0</asrwt>
<pdfrwt beam="2">  1        4 0.65206382E-02 0.12500296E+03</pdfrwt>
<pdfrwt beam="1">  1       -4 0.14179595E-01 0.12500296E+03</pdfrwt>
<totfact> 0.10246847E+04</totfact>
</mgrwt>
</event>
<event>
 5    1  0.3272646E-002  0.1250074E+03  0.7818608E-02  0.1235058E+00
         -4   -1    0    0    0  501 -0.00000000000E+00  0.00000000000E+00  0.13658285454E+03  0.13658875889E+03  0.12700000000E+01 0.  1.
          4   -1    0    0  501    0  0.00000000000E+00 -0.00000000000E+00 -0.28582631899E+02  0.28610832673E+02  0.12700000000E+01 0.  1.
         25    2    1    2    0    0  0.00000000000E+00  0.00000000000E+00  0.10800022264E+03  0.16519959156E+03  0.12500742762E+03 0.  0.
    9000005    1    3    3    0    0  0.90764867412E+01 -0.60776682033E+02  0.38959948098E+02  0.72767198973E+02  0.10000000000E+01 0.  0.
    9000005    1    3    3    0    0 -0.90764867412E+01  0.60776682033E+02  0.69040274544E+02  0.92432392589E+02  0.10000000000E+01 0.  0.
<mgrwt>
<rscale>  0 0.12500743E+03</rscale>
<asrwt>0</asrwt>
<pdfrwt beam="2">  1        4 0.43999515E-02 0.12500743E+03</pdfrwt>
<pdfrwt beam="1">  1       -4 0.21015370E-01 0.12500743E+03</pdfrwt>
<totfact> 0.96333531E+03</totfact>
</mgrwt>
</event>
<event>
 5    1  0.3272646E-002  0.1249978E+03  0.7818608E-02  0.1235073E+00
         -4   -1    0    0    0  501 -0.00000000000E+00  0.00000000000E+00  0.93636863302E+02  0.93645475433E+02  0.12700000000E+01 0. -1.
          4   -1    0    0  501    0  0.00000000000E+00 -0.00000000000E+00 -0.41695319235E+02  0.41714656250E+02  0.12700000000E+01 0. -1.
         25    2    1    2    0    0  0.00000000000E+00  0.00000000000E+00  0.51941544067E+02  0.13536013168E+03  0.12499776498E+03 0.  0.
    9000005    1    3    3    0    0  0.12555301897E+02 -0.36312733701E+02  0.79339858487E+02  0.88159306822E+02  0.10000000000E+01 0.  0.
    9000005    1    3    3    0    0 -0.12555301897E+02  0.36312733701E+02 -0.27398314419E+02  0.47200824862E+02  0.10000000000E+01 0.  0.
<mgrwt>
<rscale>  0 0.12499776E+03</rscale>
<asrwt>0</asrwt>
<pdfrwt beam="2">  1        4 0.64168145E-02 0.12499776E+03</pdfrwt>
<pdfrwt beam="1">  1       -4 0.14407821E-01 0.12499776E+03</pdfrwt>
<totfact> 0.10231002E+04</totfact>
</mgrwt>
</event>
<event>
 5    1  0.3272646E-002  0.1250166E+03  0.7818608E-02  0.1235043E+00
         -4   -1    0    0    0  501 -0.00000000000E+00  0.00000000000E+00  0.56188499392E+02  0.56202850140E+02  0.12700000000E+01 0. -1.
          4   -1    0    0  501    0  0.00000000000E+00 -0.00000000000E+00 -0.69509925500E+02  0.69521526472E+02  0.12700000000E+01 0. -1.
         25    2    1    2    0    0  0.00000000000E+00  0.00000000000E+00 -0.13321426108E+02  0.12572437661E+03  0.12501663282E+03 0.  0.
    9000005    1    3    3    0    0  0.24116725444E+02  0.32456195236E+02  0.41266915252E+02  0.57783902168E+02  0.10000000000E+01 0.  0.
    9000005    1    3    3    0    0 -0.24116725444E+02 -0.32456195236E+02 -0.54588341360E+02  0.67940474445E+02  0.10000000000E+01 0.  0.
<mgrwt>
<rscale>  0 0.12501663E+03</rscale>
<asrwt>0</asrwt>
<pdfrwt beam="2">  1        4 0.10695831E-01 0.12501663E+03</pdfrwt>
<pdfrwt beam="1">  1       -4 0.86463809E-02 0.12501663E+03</pdfrwt>
<totfact> 0.10433092E+04</totfact>
</mgrwt>
</event>
<event>
 5    1  0.3272646E-002  0.1250000E+03  0.7818608E-02  0.1235069E+00
         -4   -1    0    0    0  501 -0.00000000000E+00  0.00000000000E+00  0.17236113668E+02  0.17282838724E+02  0.12700000000E+01 0.  1.
          4   -1    0    0  501    0  0.00000000000E+00 -0.00000000000E+00 -0.22627643633E+03  0.22628000030E+03  0.12700000000E+01 0.  1.
         25    2    1    2    0    0  0.00000000000E+00  0.00000000000E+00 -0.20904032266E+03  0.24356283903E+03  0.12500000023E+03 0.  0.
    9000005    1    3    3    0    0 -0.22458949640E+02 -0.58234037842E+02 -0.98469618956E+02  0.11658847902E+03  0.10000000000E+01 0.  0.
    9000005    1    3    3    0    0  0.22458949640E+02  0.58234037842E+02 -0.11057070370E+03  0.12697436001E+03  0.10000000000E+01 0.  0.
<mgrwt>
<rscale>  0 0.12500000E+03</rscale>
<asrwt>0</asrwt>
<pdfrwt beam="2">  1        4 0.34815626E-01 0.12500000E+03</pdfrwt>
<pdfrwt beam="1">  1       -4 0.26555783E-02 0.12500000E+03</pdfrwt>
<totfact> 0.83269591E+03</totfact>
</mgrwt>
</event>
<event>
 5    1  0.3272646E-002  0.1250011E+03  0.7818608E-02  0.1235068E+00
         -4   -1    0    0    0  501 -0.00000000000E+00  0.00000000000E+00  0.14048590788E+02  0.14105878318E+02  0.12700000000E+01 0.  1.
          4   -1    0    0  501    0  0.00000000000E+00 -0.00000000000E+00 -0.27743308503E+03  0.27743599184E+03  0.12700000000E+01 0.  1.
         25    2    1    2    0    0  0.00000000000E+00  0.00000000000E+00 -0.26338449424E+03  0.29154187016E+03  0.12500108099E+03 0.  0.
    9000005    1    3    3    0    0  0.37851747988E+02  0.10038611759E+02 -0.24527834832E+03  0.24838678851E+03  0.10000000000E+01 0.  0.
    9000005    1    3    3    0    0 -0.37851747988E+02 -0.10038611759E+02 -0.18106145917E+02  0.43155081644E+02  0.10000000000E+01 0.  0.
<mgrwt>
<rscale>  0 0.12500108E+03</rscale>
<asrwt>0</asrwt>
<pdfrwt beam="2">  1        4 0.42686639E-01 0.12500108E+03</pdfrwt>
<pdfrwt beam="1">  1       -4 0.21659522E-02 0.12500108E+03</pdfrwt>
<totfact> 0.76670370E+03</totfact>
</mgrwt>
</event>
<event>
 5    1  0.3272646E-002  0.1249994E+03  0.7818608E-02  0.1235070E+00
         -4   -1    0    0    0  501 -0.00000000000E+00  0.00000000000E+00  0.14374377935E+03  0.14374938957E+03  0.12700000000E+01 0. -1.
          4   -1    0    0  501    0  0.00000000000E+00 -0.00000000000E+00 -0.27153826565E+02  0.27183509654E+02  0.12700000000E+01 0. -1.
         25    2    1    2    0    0  0.00000000000E+00  0.00000000000E+00  0.11658995279E+03  0.17093289923E+03  0.12499935579E+03 0.  0.
    9000005    1    3    3    0    0 -0.10314374217E+02 -0.57960880816E+02  0.29631556773E+02  0.65915697503E+02  0.10000000000E+01 0.  0.
    9000005    1    3    3    0    0  0.10314374217E+02  0.57960880816E+02  0.86958396013E+02  0.10501720172E+03  0.10000000000E+01 0.  0.
<mgrwt>
<rscale>  0 0.12499936E+03</rscale>
<asrwt>0</asrwt>
<pdfrwt beam="2">  1        4 0.41802266E-02 0.12499936E+03</pdfrwt>
<pdfrwt beam="1">  1       -4 0.22117143E-01 0.12499936E+03</pdfrwt>
<totfact> 0.95276419E+03</totfact>
</mgrwt>
</event>
<event>
 5    1  0.3272646E-002  0.1250050E+03  0.7818608E-02  0.1235061E+00
          4   -1    0    0  501    0  0.00000000000E+00  0.00000000000E+00  0.25845930288E+03  0.25846242308E+03  0.12700000000E+01 0.  1.
         -4   -1    0    0    0  501 -0.00000000000E+00 -0.00000000000E+00 -0.15084911451E+02  0.15138277758E+02  0.12700000000E+01 0.  1.
         25    2    1    2    0    0  0.00000000000E+00  0.00000000000E+00  0.24337439143E+03  0.27360070084E+03  0.12500499629E+03 0.  0.
    9000005    1    3    3    0    0 -0.55535881628E+01  0.54258396174E+02  0.54913485012E+02  0.77403531787E+02  0.10000000000E+01 0.  0.
    9000005    1    3    3    0    0  0.55535881628E+01 -0.54258396174E+02  0.18846090642E+03  0.19619716905E+03  0.10000000000E+01 0.  0.
<mgrwt>
<rscale>  0 0.12500500E+03</rscale>
<asrwt>0</asrwt>
<pdfrwt beam="1">  1        4 0.39767312E-01 0.12500500E+03</pdfrwt>
<pdfrwt beam="2">  1       -4 0.23251009E-02 0.12500500E+03</pdfrwt>
<totfact> 0.79025550E+03</totfact>
</mgrwt>
</event>
<event>
 5    1  0.3272646E-002  0.1250016E+03  0.7818608E-02  0.1235067E+00
          4   -1    0    0  501    0  0.00000000000E+00  0.00000000000E+00  0.16529806153E+02  0.16578521993E+02  0.12700000000E+01 0. -1.
         -4   -1    0    0    0  501 -0.00000000000E+00 -0.00000000000E+00 -0.23592339053E+03  0.23592680877E+03  0.12700000000E+01 0. -1.
         25    2    1    2    0    0  0.00000000000E+00  0.00000000000E+00 -0.21939358437E+03  0.25250533076E+03  0.12500158879E+03 0.  0.
    9000005    1    3    3    0    0  0.49937862277E+02 -0.34616696171E+02 -0.80198764578E+02  0.10062279852E+03  0.10000000000E+01 0.  0.
    9000005    1    3    3    0    0 -0.49937862277E+02  0.34616696171E+02 -0.13919481979E+03  0.15188253224E+03  0.10000000000E+01 0.  0.
<mgrwt>
<rscale>  0 0.12500159E+03</rscale>
<asrwt>0</asrwt>
<pdfrwt beam="1">  1        4 0.25470576E-02 0.12500159E+03</pdfrwt>
<pdfrwt beam="2">  1       -4 0.36299914E-01 0.12500159E+03</pdfrwt>
<totfact> 0.81966573E+03</totfact>
</mgrwt>
</event>
<event>
 5    1  0.3272646E-002  0.1250008E+03  0.7818608E-02  0.1235068E+00
          4   -1    0    0  501    0  0.00000000000E+00  0.00000000000E+00  0.79535403753E+02  0.79545542617E+02  0.12700000000E+01 0. -1.
         -4   -1    0    0    0  501 -0.00000000000E+00 -0.00000000000E+00 -0.49092463602E+02  0.49108888020E+02  0.12700000000E+01 0. -1.
         25    2    1    2    0    0  0.00000000000E+00  0.00000000000E+00  0.30442940151E+02  0.12865443064E+03  0.12500075967E+03 0.  0.
    9000005    1    3    3    0    0 -0.32344784271E+02  0.45062075358E+02  0.44846858833E+02  0.71337342622E+02  0.10000000000E+01 0.  0.
    9000005    1    3    3    0    0  0.32344784271E+02 -0.45062075358E+02 -0.14403918682E+02  0.57317088015E+02  0.10000000000E+01 0.  0.
<mgrwt>
<rscale>  0 0.12500076E+03</rscale>
<asrwt>0</asrwt>
<pdfrwt beam="1">  1        4 0.12238259E-01 0.12500076E+03</pdfrwt>
<pdfrwt beam="2">  1       -4 0.75547301E-02 0.12500076E+03</pdfrwt>
<totfact> 0.10373201E+04</totfact>
</mgrwt>
</event>
<event>
 5    1  0.3272646E-002  0.1249994E+03  0.7818608E-02  0.1235070E+00
          4   -1    0    0  501    0  0.00000000000E+00  0.00000000000E+00  0.13131274738E+03  0.13131888868E+03  0.12700000000E+01 0. -1.
         -4   -1    0    0    0  501 -0.00000000000E+00 -0.00000000000E+00 -0.29727020225E+02  0.29754136375E+02  0.12700000000E+01 0. -1.
         25    2    1    2    0    0  0.00000000000E+00  0.00000000000E+00  0.10158572716E+03  0.16107302506E+03  0.12499943776E+03 0.  0.
    9000005    1    3    3    0    0  0.94982894992E+01 -0.60080100776E+02  0.32326022516E+02  0.68889823228E+02  0.10000000000E+01 0.  0.
    9000005    1    3    3    0    0 -0.94982894992E+01  0.60080100776E+02  0.69259704640E+02  0.92183201829E+02  0.10000000000E+01 0.  0.
<mgrwt>
<rscale>  0 0.12499944E+03</rscale>
<asrwt>0</asrwt>
<pdfrwt beam="1">  1        4 0.20204519E-01 0.12499944E+03</pdfrwt>
<pdfrwt beam="2">  1       -4 0.45759460E-02 0.12499944E+03</pdfrwt>
<totfact> 0.97137540E+03</totfact>
</mgrwt>
</event>
<event>
 5    1  0.3272646E-002  0.1250002E+03  0.7818608E-02  0.1235069E+00
         -4   -1    0    0    0  501 -0.00000000000E+00  0.00000000000E+00  0.49950312620E+02  0.49966455055E+02  0.12700000000E+01 0. -1.
          4   -1    0    0  501    0  0.00000000000E+00 -0.00000000000E+00 -0.78168974035E+02  0.78179290107E+02  0.12700000000E+01 0. -1.
         25    2    1    2    0    0  0.00000000000E+00  0.00000000000E+00 -0.28218661415E+02  0.12814574516E+03  0.12500015660E+03 0.  0.
    9000005    1    3    3    0    0 -0.51701385985E+01  0.44755405899E+02 -0.58505981710E+02  0.73849350614E+02  0.10000000000E+01 0.  0.
    9000005    1    3    3    0    0  0.51701385985E+01 -0.44755405899E+02  0.30287320295E+02  0.54296394548E+02  0.10000000000E+01 0.  0.
<mgrwt>
<rscale>  0 0.12500016E+03</rscale>
<asrwt>0</asrwt>
<pdfrwt beam="2">  1        4 0.12028031E-01 0.12500016E+03</pdfrwt>
<pdfrwt beam="1">  1       -4 0.76866988E-02 0.12500016E+03</pdfrwt>
<totfact> 0.10384305E+04</totfact>
</mgrwt>
</event>
<event>
 5    1  0.3272646E-002  0.1249885E+03  0.7818608E-02  0.1235087E+00
         -4   -1    0    0    0  501 -0.00000000000E+00  0.00000000000E+00  0.22855059667E+02  0.22890317875E+02  0.12700000000E+01 0.  1.
          4   -1    0    0  501    0  0.00000000000E+00 -0.00000000000E+00 -0.17071336778E+03  0.17071809171E+03  0.12700000000E+01 0.  1.
         25    2    1    2    0    0  0.00000000000E+00  0.00000000000E+00 -0.14785830811E+03  0.19360840959E+03  0.12498854742E+03 0.  0.
    9000005    1    3    3    0    0 -0.36009984118E+02  0.31974539835E+02 -0.12251270509E+02  0.49700943482E+02  0.10000000000E+01 0.  0.
    9000005    1    3    3    0    0  0.36009984118E+02 -0.31974539835E+02 -0.13560703760E+03  0.14390746610E+03  0.10000000000E+01 0.  0.
<mgrwt>
<rscale>  0 0.12498855E+03</rscale>
<asrwt>0</asrwt>
<pdfrwt beam="2">  1        4 0.26266670E-01 0.12498855E+03</pdfrwt>
<pdfrwt beam="1">  1       -4 0.35192387E-02 0.12498855E+03</pdfrwt>
<totfact> 0.91246625E+03</totfact>
</mgrwt>
</event>
<event>
 5    1  0.3272646E-002  0.1249957E+03  0.7818608E-02  0.1235076E+00
          4   -1    0    0  501    0  0.00000000000E+00  0.00000000000E+00  0.16901932501E+03  0.16902409629E+03  0.12700000000E+01 0. -1.
         -4   -1    0    0    0  501 -0.00000000000E+00 -0.00000000000E+00 -0.23087117246E+02  0.23122021597E+02  0.12700000000E+01 0. -1.
         25    2    1    2    0    0  0.00000000000E+00  0.00000000000E+00  0.14593220776E+03  0.19214611789E+03  0.12499568535E+03 0.  0.
    9000005    1    3    3    0    0 -0.22522022777E+02 -0.53712694350E+02  0.38159470189E+02  0.69637922208E+02  0.10000000000E+01 0.  0.
    9000005    1    3    3    0    0  0.22522022777E+02  0.53712694350E+02  0.10777273757E+03  0.12250819568E+03  0.10000000000E+01 0.  0.
<mgrwt>
<rscale>  0 0.12499569E+03</rscale>
<asrwt>0</asrwt>
<pdfrwt beam="1">  1        4 0.26006024E-01 0.12499569E+03</pdfrwt>
<pdfrwt beam="2">  1       -4 0.35549163E-02 0.12499569E+03</pdfrwt>
<totfact> 0.91484073E+03</totfact>
</mgrwt>
</event>
<event>
 5    1  0.3272646E-002  0.1250003E+03  0.7818608E-02  0.1235069E+00
          4   -1    0    0  501    0  0.00000000000E+00  0.00000000000E+00  0.13538151968E+04  0.13538157925E+04  0.12700000000E+01 0. -1.
         -4   -1    0    0    0  501 -0.00000000000E+00 -0.00000000000E+00 -0.27450071536E+01  0.30245601785E+01  0.12700000000E+01 0. -1.
         25    2    1    2    0    0  0.00000000000E+00  0.00000000000E+00  0.13510701897E+04  0.13568403527E+04  0.12500034108E+03 0.  0.
    9000005    1    3    3    0    0 -0.41208077248E+02  0.41881400237E+02  0.90659324604E+03  0.90849571880E+03  0.10000000000E+01 0.  0.
    9000005    1    3    3    0    0  0.41208077248E+02 -0.41881400237E+02  0.44447694362E+03  0.44834463387E+03  0.10000000000E+01 0.  0.
<mgrwt>
<rscale>  0 0.12500034E+03</rscale>
<asrwt>0</asrwt>
<pdfrwt beam="1">  1        4 0.20830065E+00 0.12500034E+03</pdfrwt>
<pdfrwt beam="2">  1       -4 0.44385904E-03 0.12500034E+03</pdfrwt>
<totfact> 0.20925213E+03</totfact>
</mgrwt>
</event>
<event>
 5    1  0.3272646E-002  0.1249899E+03  0.7818608E-02  0.1235085E+00
          4   -1    0    0  501    0  0.00000000000E+00  0.00000000000E+00  0.35393232782E+01  0.37602804773E+01  0.12700000000E+01 0. -1.
         -4   -1    0    0    0  501 -0.00000000000E+00 -0.00000000000E+00 -0.10698698394E+04  0.10698705932E+04  0.12700000000E+01 0. -1.
         25    2    1    2    0    0  0.00000000000E+00  0.00000000000E+00 -0.10663305162E+04  0.10736308737E+04  0.12498993265E+03 0.  0.
    9000005    1    3    3    0    0 -0.18465305366E+02 -0.28703150881E+02 -0.98277736468E+03  0.98337032032E+03  0.10000000000E+01 0.  0.
    9000005    1    3    3    0    0  0.18465305366E+02  0.28703150881E+02 -0.83553151485E+02  0.90260553377E+02  0.10000000000E+01 0.  0.
<mgrwt>
<rscale>  0 0.12498993E+03</rscale>
<asrwt>0</asrwt>
<pdfrwt beam="1">  1        4 0.56156682E-03 0.12498993E+03</pdfrwt>
<pdfrwt beam="2">  1       -4 0.16461216E+00 0.12498993E+03</pdfrwt>
<totfact> 0.28274501E+03</totfact>
</mgrwt>
</event>
<event>
 4    1  0.3272646E-002  0.1248561E+03  0.7818608E-02  0.1235294E+00
          4   -1    0    0  501    0  0.00000000000E+00  0.00000000000E+00  0.88316395917E+02  0.88325526818E+02  0.12700000000E+01 0.  1.
         -4   -1    0    0    0  501 -0.00000000000E+00 -0.00000000000E+00 -0.44107883241E+02  0.44126163033E+02  0.12700000000E+01 0.  1.
    9000005    1    1    2    0    0 -0.34492299660E+02  0.31508905924E+02 -0.21811396491E+02  0.51568080295E+02  0.10000000000E+01 0.  0.
    9000005    1    1    2    0    0  0.34492299660E+02 -0.31508905924E+02  0.66019909167E+02  0.80883609556E+02  0.10000000000E+01 0.  0.
<mgrwt>
<rscale>  0 0.12485615E+03</rscale>
<asrwt>0</asrwt>
<pdfrwt beam="1">  1        4 0.13589246E-01 0.12485615E+03</pdfrwt>
<pdfrwt beam="2">  1       -4 0.67879367E-02 0.12485615E+03</pdfrwt>
<totfact> 0.10325536E+04</totfact>
</mgrwt>
</event>
<event>
 5    1  0.3272646E-002  0.1249998E+03  0.7818608E-02  0.1235070E+00
         -4   -1    0    0    0  501 -0.00000000000E+00  0.00000000000E+00  0.38069207062E+02  0.38090384959E+02  0.12700000000E+01 0.  1.
          4   -1    0    0  501    0  0.00000000000E+00 -0.00000000000E+00 -0.10255518151E+03  0.10256304478E+03  0.12700000000E+01 0.  1.
         25    2    1    2    0    0  0.00000000000E+00  0.00000000000E+00 -0.64485974452E+02  0.14065342974E+03  0.12499978559E+03 0.  0.
    9000005    1    3    3    0    0 -0.46747085605E+02 -0.46998576174E-01  0.14422763806E+02  0.48931670085E+02  0.10000000000E+01 0.  0.
    9000005    1    3    3    0    0  0.46747085605E+02  0.46998576174E-01 -0.78908738259E+02  0.91721759659E+02  0.10000000000E+01 0.  0.
<mgrwt>
<rscale>  0 0.12499979E+03</rscale>
<asrwt>0</asrwt>
<pdfrwt beam="2">  1        4 0.15779954E-01 0.12499979E+03</pdfrwt>
<pdfrwt beam="1">  1       -4 0.58590351E-02 0.12499979E+03</pdfrwt>
<totfact> 0.10120110E+04</totfact>
</mgrwt>
</event>
<event>
 5    1  0.3272646E-002  0.1249986E+03  0.7818608E-02  0.1235072E+00
         -4   -1    0    0    0  501 -0.00000000000E+00  0.00000000000E+00  0.11089201653E+04  0.11089208925E+04  0.12700000000E+01 0. -1.
          4   -1    0    0  501    0  0.00000000000E+00 -0.00000000000E+00 -0.34072661890E+01  0.36362567130E+01  0.12700000000E+01 0. -1.
         25    2    1    2    0    0  0.00000000000E+00  0.00000000000E+00  0.11055128991E+04  0.11125571493E+04  0.12499856099E+03 0.  0.
    9000005    1    3    3    0    0 -0.70372159718E+01 -0.57395347683E+02  0.76364745249E+03  0.76583430325E+03  0.10000000000E+01 0.  0.
    9000005    1    3    3    0    0  0.70372159718E+01  0.57395347683E+02  0.34186544662E+03  0.34672284600E+03  0.10000000000E+01 0.  0.
<mgrwt>
<rscale>  0 0.12499856E+03</rscale>
<asrwt>0</asrwt>
<pdfrwt beam="2">  1        4 0.54186523E-03 0.12499856E+03</pdfrwt>
<pdfrwt beam="1">  1       -4 0.17062082E+00 0.12499856E+03</pdfrwt>
<totfact> 0.27119602E+03</totfact>
</mgrwt>
</event>
<event>
 5    1  0.3272646E-002  0.1250012E+03  0.7818608E-02  0.1235067E+00
          4   -1    0    0  501    0  0.00000000000E+00  0.00000000000E+00  0.31368160819E+02  0.31393859482E+02  0.12700000000E+01 0.  1.
         -4   -1    0    0    0  501 -0.00000000000E+00 -0.00000000000E+00 -0.12445156418E+03  0.12445804404E+03  0.12700000000E+01 0.  1.
         25    2    1    2    0    0  0.00000000000E+00  0.00000000000E+00 -0.93083403357E+02  0.15585190352E+03  0.12500118340E+03 0.  0.
    9000005    1    3    3    0    0 -0.14653663235E+02  0.10818783690E+02  0.27991160405E+02  0.33410791484E+02  0.10000000000E+01 0.  0.
    9000005    1    3    3    0    0  0.14653663235E+02 -0.10818783690E+02 -0.12107456376E+03  0.12244111204E+03  0.10000000000E+01 0.  0.
<mgrwt>
<rscale>  0 0.12500118E+03</rscale>
<asrwt>0</asrwt>
<pdfrwt beam="1">  1        4 0.48283462E-02 0.12500118E+03</pdfrwt>
<pdfrwt beam="2">  1       -4 0.19148870E-01 0.12500118E+03</pdfrwt>
<totfact> 0.98145907E+03</totfact>
</mgrwt>
</event>
<event>
 5    1  0.3272646E-002  0.1250022E+03  0.7818608E-02  0.1235066E+00
          4   -1    0    0  501    0  0.00000000000E+00  0.00000000000E+00  0.39143853993E+03  0.39144060014E+03  0.12700000000E+01 0. -1.
         -4   -1    0    0    0  501 -0.00000000000E+00 -0.00000000000E+00 -0.99370710338E+01  0.10017898020E+02  0.12700000000E+01 0. -1.
         25    2    1    2    0    0  0.00000000000E+00  0.00000000000E+00  0.38150146889E+03  0.40145849816E+03  0.12500221990E+03 0.  0.
    9000005    1    3    3    0    0  0.31509888756E+02 -0.49715799472E+02  0.25818347106E+03  0.26480981578E+03  0.10000000000E+01 0.  0.
    9000005    1    3    3    0    0 -0.31509888756E+02  0.49715799472E+02  0.12331799784E+03  0.13664868238E+03  0.10000000000E+01 0.  0.
<mgrwt>
<rscale>  0 0.12500222E+03</rscale>
<asrwt>0</asrwt>
<pdfrwt beam="1">  1        4 0.60227690E-01 0.12500222E+03</pdfrwt>
<pdfrwt beam="2">  1       -4 0.15351561E-02 0.12500222E+03</pdfrwt>
<totfact> 0.64408026E+03</totfact>
</mgrwt>
</event>
<event>
 5    1  0.3272646E-002  0.1250069E+03  0.7818608E-02  0.1235059E+00
         -4   -1    0    0    0  501 -0.00000000000E+00  0.00000000000E+00  0.34036936722E+03  0.34037173655E+03  0.12700000000E+01 0.  1.
          4   -1    0    0  501    0  0.00000000000E+00 -0.00000000000E+00 -0.11440218121E+02  0.11510494805E+02  0.12700000000E+01 0.  1.
         25    2    1    2    0    0  0.00000000000E+00  0.00000000000E+00  0.32892914910E+03  0.35188223136E+03  0.12500687828E+03 0.  0.
    9000005    1    3    3    0    0 -0.61346185530E+01  0.38883153451E+02  0.30110040301E+03  0.30366426504E+03  0.10000000000E+01 0.  0.
    9000005    1    3    3    0    0  0.61346185530E+01 -0.38883153451E+02  0.27828746090E+02  0.48217966320E+02  0.10000000000E+01 0.  0.
<mgrwt>
<rscale>  0 0.12500688E+03</rscale>
<asrwt>0</asrwt>
<pdfrwt beam="2">  1        4 0.17656221E-02 0.12500688E+03</pdfrwt>
<pdfrwt beam="1">  1       -4 0.52370095E-01 0.12500688E+03</pdfrwt>
<totfact> 0.69507408E+03</totfact>
</mgrwt>
</event>
<event>
 5    1  0.3272646E-002  0.1250001E+03  0.7818608E-02  0.1235069E+00
          4   -1    0    0  501    0  0.00000000000E+00  0.00000000000E+00  0.22514152092E+03  0.22514510286E+03  0.12700000000E+01 0.  1.
         -4   -1    0    0    0  501 -0.00000000000E+00 -0.00000000000E+00 -0.17323272746E+02  0.17369763345E+02  0.12700000000E+01 0.  1.
         25    2    1    2    0    0  0.00000000000E+00  0.00000000000E+00  0.20781824817E+03  0.24251486620E+03  0.12500014423E+03 0.  0.
    9000005    1    3    3    0    0 -0.56055681158E+02  0.55979217596E+01  0.15638857754E+03  0.16622864766E+03  0.10000000000E+01 0.  0.
    9000005    1    3    3    0    0  0.56055681158E+02 -0.55979217596E+01  0.51429670627E+02  0.76286218539E+02  0.10000000000E+01 0.  0.
<mgrwt>
<rscale>  0 0.12500014E+03</rscale>
<asrwt>0</asrwt>
<pdfrwt beam="1">  1        4 0.34641005E-01 0.12500014E+03</pdfrwt>
<pdfrwt beam="2">  1       -4 0.26689709E-02 0.12500014E+03</pdfrwt>
<totfact> 0.83423977E+03</totfact>
</mgrwt>
</event>
<event>
 5    1  0.3272646E-002  0.1249995E+03  0.7818608E-02  0.1235070E+00
         -4   -1    0    0    0  501 -0.00000000000E+00  0.00000000000E+00  0.31041941552E+01  0.33539411672E+01  0.12700000000E+01 0. -1.
          4   -1    0    0  501    0  0.00000000000E+00 -0.00000000000E+00 -0.12094538189E+04  0.12094544857E+04  0.12700000000E+01 0. -1.
         25    2    1    2    0    0  0.00000000000E+00  0.00000000000E+00 -0.12063496247E+04  0.12128084268E+04  0.12499945252E+03 0.  0.
    9000005    1    3    3    0    0  0.18374627192E+01 -0.45508522119E+02 -0.18802370678E+03  0.19346399191E+03  0.10000000000E+01 0.  0.
    9000005    1    3    3    0    0 -0.18374627192E+01  0.45508522119E+02 -0.10183259180E+04  0.10193444349E+04  0.10000000000E+01 0.  0.
<mgrwt>
<rscale>  0 0.12499945E+03</rscale>
<asrwt>0</asrwt>
<pdfrwt beam="2">  1        4 0.18608872E+00 0.12499945E+03</pdfrwt>
<pdfrwt beam="1">  1       -4 0.49683190E-03 0.12499945E+03</pdfrwt>
<totfact> 0.24380284E+03</totfact>
</mgrwt>
</event>
<event>
 4    1  0.3272646E-002  0.1251071E+03  0.7818608E-02  0.1234902E+00
          4   -1    0    0  501    0  0.00000000000E+00  0.00000000000E+00  0.86812761743E+03  0.86812854638E+03  0.12700000000E+01 0. -1.
         -4   -1    0    0    0  501 -0.00000000000E+00 -0.00000000000E+00 -0.44169313449E+01  0.45958875645E+01  0.12700000000E+01 0. -1.
    9000005    1    1    2    0    0 -0.34376916626E+02  0.51947085582E+02  0.39259506244E+03  0.39750742779E+03  0.10000000000E+01 0.  0.
    9000005    1    1    2    0    0  0.34376916626E+02 -0.51947085582E+02  0.47111562364E+03  0.47521700615E+03  0.10000000000E+01 0.  0.
<mgrwt>
<rscale>  0 0.12510711E+03</rscale>
<asrwt>0</asrwt>
<pdfrwt beam="1">  1        4 0.13357191E+00 0.12510711E+03</pdfrwt>
<pdfrwt beam="2">  1       -4 0.69336534E-03 0.12510711E+03</pdfrwt>
<totfact> 0.35132823E+03</totfact>
</mgrwt>
</event>
<event>
 5    1  0.3272646E-002  0.1249808E+03  0.7818608E-02  0.1235099E+00
         -4   -1    0    0    0  501 -0.00000000000E+00  0.00000000000E+00  0.16845928628E+03  0.16846407342E+03  0.12700000000E+01 0.  1.
          4   -1    0    0  501    0  0.00000000000E+00 -0.00000000000E+00 -0.23158460287E+02  0.23193257272E+02  0.12700000000E+01 0.  1.
         25    2    1    2    0    0  0.00000000000E+00  0.00000000000E+00  0.14530082599E+03  0.19165733069E+03  0.12498080802E+03 0.  0.
    9000005    1    3    3    0    0  0.52370774689E+02 -0.32225780114E+02  0.89647425757E+02  0.10871457993E+03  0.10000000000E+01 0.  0.
    9000005    1    3    3    0    0 -0.52370774689E+02  0.32225780114E+02  0.55653400231E+02  0.82942750755E+02  0.10000000000E+01 0.  0.
<mgrwt>
<rscale>  0 0.12498081E+03</rscale>
<asrwt>0</asrwt>
<pdfrwt beam="2">  1        4 0.35658850E-02 0.12498081E+03</pdfrwt>
<pdfrwt beam="1">  1       -4 0.25919858E-01 0.12498081E+03</pdfrwt>
<totfact> 0.91599108E+03</totfact>
</mgrwt>
</event>
<event>
 5    1  0.3272646E-002  0.1249996E+03  0.7818608E-02  0.1235070E+00
         -4   -1    0    0    0  501 -0.00000000000E+00  0.00000000000E+00  0.14129857350E+03  0.14130428080E+03  0.12700000000E+01 0.  1.
          4   -1    0    0  501    0  0.00000000000E+00 -0.00000000000E+00 -0.27624330681E+02  0.27653508738E+02  0.12700000000E+01 0.  1.
         25    2    1    2    0    0  0.00000000000E+00  0.00000000000E+00  0.11367424282E+03  0.16895778954E+03  0.12499960466E+03 0.  0.
    9000005    1    3    3    0    0  0.22651865382E+02 -0.26035585860E+01  0.13548204796E+03  0.13739094163E+03  0.10000000000E+01 0.  0.
    9000005    1    3    3    0    0 -0.22651865382E+02  0.26035585860E+01 -0.21807805135E+02  0.31566847917E+02  0.10000000000E+01 0.  0.
<mgrwt>
<rscale>  0 0.12499960E+03</rscale>
<asrwt>0</asrwt>
<pdfrwt beam="2">  1        4 0.42525804E-02 0.12499960E+03</pdfrwt>
<pdfrwt beam="1">  1       -4 0.21740926E-01 0.12499960E+03</pdfrwt>
<totfact> 0.95643904E+03</totfact>
</mgrwt>
</event>
<event>
 5    1  0.3272646E-002  0.1249980E+03  0.7818608E-02  0.1235072E+00
          4   -1    0    0  501    0  0.00000000000E+00  0.00000000000E+00  0.26431721662E+03  0.26432026767E+03  0.12700000000E+01 0. -1.
         -4   -1    0    0    0  501 -0.00000000000E+00 -0.00000000000E+00 -0.14747746533E+02  0.14802328458E+02  0.12700000000E+01 0. -1.
         25    2    1    2    0    0  0.00000000000E+00  0.00000000000E+00  0.24956947009E+03  0.27912259613E+03  0.12499801307E+03 0.  0.
    9000005    1    3    3    0    0 -0.42207194947E+02 -0.60853556056E+01  0.22678854058E+03  0.23076507751E+03  0.10000000000E+01 0.  0.
    9000005    1    3    3    0    0  0.42207194947E+02  0.60853556056E+01  0.22780929508E+02  0.48357518624E+02  0.10000000000E+01 0.  0.
<mgrwt>
<rscale>  0 0.12499801E+03</rscale>
<asrwt>0</asrwt>
<pdfrwt beam="1">  1        4 0.40668623E-01 0.12499801E+03</pdfrwt>
<pdfrwt beam="2">  1       -4 0.22733172E-02 0.12499801E+03</pdfrwt>
<totfact> 0.78298041E+03</totfact>
</mgrwt>
</event>
<event>
 5    1  0.3272646E-002  0.1250024E+03  0.7818608E-02  0.1235065E+00
         -4   -1    0    0    0  501 -0.00000000000E+00  0.00000000000E+00  0.29947915871E+02  0.29974832193E+02  0.12700000000E+01 0. -1.
          4   -1    0    0  501    0  0.00000000000E+00 -0.00000000000E+00 -0.13035125167E+03  0.13035743827E+03  0.12700000000E+01 0. -1.
         25    2    1    2    0    0  0.00000000000E+00  0.00000000000E+00 -0.10040333580E+03  0.16033227047E+03  0.12500242843E+03 0.  0.
    9000005    1    3    3    0    0  0.56004297877E+02  0.27004256399E+02 -0.58282311671E+02  0.85226399068E+02  0.10000000000E+01 0.  0.
    9000005    1    3    3    0    0 -0.56004297877E+02 -0.27004256399E+02 -0.42121024132E+02  0.75105871397E+02  0.10000000000E+01 0.  0.
<mgrwt>
<rscale>  0 0.12500243E+03</rscale>
<asrwt>0</asrwt>
<pdfrwt beam="2">  1        4 0.20056585E-01 0.12500243E+03</pdfrwt>
<pdfrwt beam="1">  1       -4 0.46099181E-02 0.12500243E+03</pdfrwt>
<totfact> 0.97273455E+03</totfact>
</mgrwt>
</event>
<event>
 5    1  0.3272646E-002  0.1250001E+03  0.7818608E-02  0.1235069E+00
          4   -1    0    0  501    0  0.00000000000E+00  0.00000000000E+00  0.12104349107E+03  0.12105015337E+03  0.12700000000E+01 0. -1.
         -4   -1    0    0    0  501 -0.00000000000E+00 -0.00000000000E+00 -0.32251442651E+02  0.32276438048E+02  0.12700000000E+01 0. -1.
         25    2    1    2    0    0  0.00000000000E+00  0.00000000000E+00  0.88792048419E+02  0.15332659142E+03  0.12500006309E+03 0.  0.
    9000005    1    3    3    0    0 -0.14781436306E+02 -0.60608781192E+02  0.48875884109E+02  0.79257600672E+02  0.10000000000E+01 0.  0.
    9000005    1    3    3    0    0  0.14781436306E+02  0.60608781192E+02  0.39916164310E+02  0.74068990745E+02  0.10000000000E+01 0.  0.
<mgrwt>
<rscale>  0 0.12500006E+03</rscale>
<asrwt>0</asrwt>
<pdfrwt beam="1">  1        4 0.18624511E-01 0.12500006E+03</pdfrwt>
<pdfrwt beam="2">  1       -4 0.49641956E-02 0.12500006E+03</pdfrwt>
<totfact> 0.98644537E+03</totfact>
</mgrwt>
</event>
<event>
 5    1  0.3272646E-002  0.1249607E+03  0.7818608E-02  0.1235131E+00
          4   -1    0    0  501    0  0.00000000000E+00  0.00000000000E+00  0.20250410481E+02  0.20290195284E+02  0.12700000000E+01 0.  1.
         -4   -1    0    0    0  501 -0.00000000000E+00 -0.00000000000E+00 -0.19254489745E+03  0.19254908578E+03  0.12700000000E+01 0.  1.
         25    2    1    2    0    0  0.00000000000E+00  0.00000000000E+00 -0.17229448697E+03  0.21283928107E+03  0.12496067111E+03 0.  0.
    9000005    1    3    3    0    0  0.11076353021E+02  0.61436452532E+02 -0.90202636986E+02  0.10970250232E+03  0.10000000000E+01 0.  0.
    9000005    1    3    3    0    0 -0.11076353021E+02 -0.61436452532E+02 -0.82091849988E+02  0.10313677875E+03  0.10000000000E+01 0.  0.
<mgrwt>
<rscale>  0 0.12496067E+03</rscale>
<asrwt>0</asrwt>
<pdfrwt beam="1">  1        4 0.31188304E-02 0.12496067E+03</pdfrwt>
<pdfrwt beam="2">  1       -4 0.29625673E-01 0.12496067E+03</pdfrwt>
<totfact> 0.88091691E+03</totfact>
</mgrwt>
</event>
<event>
 5    1  0.3272646E-002  0.1250015E+03  0.7818608E-02  0.1235067E+00
          4   -1    0    0  501    0  0.00000000000E+00  0.00000000000E+00  0.21715097963E+03  0.21715469338E+03  0.12700000000E+01 0. -1.
         -4   -1    0    0    0  501 -0.00000000000E+00 -0.00000000000E+00 -0.17962768353E+02  0.18007608028E+02  0.12700000000E+01 0. -1.
         25    2    1    2    0    0  0.00000000000E+00  0.00000000000E+00  0.19918821128E+03  0.23516230140E+03  0.12500145795E+03 0.  0.
    9000005    1    3    3    0    0 -0.55150098332E+02  0.24913722043E+02  0.12892719555E+03  0.14242699409E+03  0.10000000000E+01 0.  0.
    9000005    1    3    3    0    0  0.55150098332E+02 -0.24913722043E+02  0.70261015727E+02  0.92735307316E+02  0.10000000000E+01 0.  0.
<mgrwt>
<rscale>  0 0.12500146E+03</rscale>
<asrwt>0</asrwt>
<pdfrwt beam="1">  1        4 0.33411577E-01 0.12500146E+03</pdfrwt>
<pdfrwt beam="2">  1       -4 0.27672378E-02 0.12500146E+03</pdfrwt>
<totfact> 0.84520425E+03</totfact>
</mgrwt>
</event>
<event>
 5    1  0.3272646E-002  0.1250016E+03  0.7818608E-02  0.1235067E+00
          4   -1    0    0  501    0  0.00000000000E+00  0.00000000000E+00  0.52218533355E+02  0.52233974822E+02  0.12700000000E+01 0.  1.
         -4   -1    0    0    0  501 -0.00000000000E+00 -0.00000000000E+00 -0.74775832405E+02  0.74786616529E+02  0.12700000000E+01 0.  1.
         25    2    1    2    0    0  0.00000000000E+00  0.00000000000E+00 -0.22557299050E+02  0.12702059135E+03  0.12500159554E+03 0.  0.
    9000005    1    3    3    0    0 -0.35365318905E+02 -0.16162992642E+02  0.38433937381E+02  0.54681949992E+02  0.10000000000E+01 0.  0.
    9000005    1    3    3    0    0  0.35365318905E+02  0.16162992642E+02 -0.60991236431E+02  0.72338641360E+02  0.10000000000E+01 0.  0.
<mgrwt>
<rscale>  0 0.12500160E+03</rscale>
<asrwt>0</asrwt>
<pdfrwt beam="1">  1        4 0.80356379E-02 0.12500160E+03</pdfrwt>
<pdfrwt beam="2">  1       -4 0.11505992E-01 0.12500160E+03</pdfrwt>
<totfact> 0.10408323E+04</totfact>
</mgrwt>
</event>
<event>
 5    1  0.3272646E-002  0.1250011E+03  0.7818608E-02  0.1235068E+00
         -4   -1    0    0    0  501 -0.00000000000E+00  0.00000000000E+00  0.10654800627E+02  0.10730222570E+02  0.12700000000E+01 0.  1.
          4   -1    0    0  501    0  0.00000000000E+00 -0.00000000000E+00 -0.36525542609E+03  0.36525763399E+03  0.12700000000E+01 0.  1.
         25    2    1    2    0    0  0.00000000000E+00  0.00000000000E+00 -0.35460062546E+03  0.37598785656E+03  0.12500105881E+03 0.  0.
    9000005    1    3    3    0    0 -0.20053575529E+02 -0.57954545127E+02 -0.21345006662E+03  0.22208738400E+03  0.10000000000E+01 0.  0.
    9000005    1    3    3    0    0  0.20053575529E+02  0.57954545127E+02 -0.14115055884E+03  0.15390047256E+03  0.10000000000E+01 0.  0.
<mgrwt>
<rscale>  0 0.12500106E+03</rscale>
<asrwt>0</asrwt>
<pdfrwt beam="2">  1        4 0.56199104E-01 0.12500106E+03</pdfrwt>
<pdfrwt beam="1">  1       -4 0.16451719E-02 0.12500106E+03</pdfrwt>
<totfact> 0.66955551E+03</totfact>
</mgrwt>
</event>
<event>
 5    1  0.3272646E-002  0.1250044E+03  0.7818608E-02  0.1235062E+00
         -4   -1    0    0    0  501 -0.00000000000E+00  0.00000000000E+00  0.11504076458E+04  0.11504083468E+04  0.12700000000E+01 0. -1.
          4   -1    0    0  501    0  0.00000000000E+00 -0.00000000000E+00 -0.32763075245E+01  0.35138427675E+01  0.12700000000E+01 0. -1.
         25    2    1    2    0    0  0.00000000000E+00  0.00000000000E+00  0.11471313383E+04  0.11539221896E+04  0.12500444932E+03 0.  0.
    9000005    1    3    3    0    0 -0.14145832007E+02  0.56302559383E+02  0.35996204267E+03  0.36461452922E+03  0.10000000000E+01 0.  0.
    9000005    1    3    3    0    0  0.14145832007E+02 -0.56302559383E+02  0.78716929561E+03  0.78930766037E+03  0.10000000000E+01 0.  0.
<mgrwt>
<rscale>  0 0.12500445E+03</rscale>
<asrwt>0</asrwt>
<pdfrwt beam="2">  1        4 0.52237291E-03 0.12500445E+03</pdfrwt>
<pdfrwt beam="1">  1       -4 0.17700421E+00 0.12500445E+03</pdfrwt>
<totfact> 0.25949121E+03</totfact>
</mgrwt>
</event>
<event>
 5    1  0.3272646E-002  0.1250007E+03  0.7818608E-02  0.1235068E+00
          4   -1    0    0  501    0  0.00000000000E+00  0.00000000000E+00  0.82361647230E+02  0.82371438220E+02  0.12700000000E+01 0.  1.
         -4   -1    0    0    0  501 -0.00000000000E+00 -0.00000000000E+00 -0.47407410126E+02  0.47424418129E+02  0.12700000000E+01 0.  1.
         25    2    1    2    0    0  0.00000000000E+00  0.00000000000E+00  0.34954237104E+02  0.12979585635E+03  0.12500066253E+03 0.  0.
    9000005    1    3    3    0    0 -0.18104281179E+02  0.58085480634E+02  0.32293459866E+02  0.68887993203E+02  0.10000000000E+01 0.  0.
    9000005    1    3    3    0    0  0.18104281179E+02 -0.58085480634E+02  0.26607772376E+01  0.60907863145E+02  0.10000000000E+01 0.  0.
<mgrwt>
<rscale>  0 0.12500066E+03</rscale>
<asrwt>0</asrwt>
<pdfrwt beam="1">  1        4 0.12673084E-01 0.12500066E+03</pdfrwt>
<pdfrwt beam="2">  1       -4 0.72955092E-02 0.12500066E+03</pdfrwt>
<totfact> 0.10348722E+04</totfact>
</mgrwt>
</event>
<event>
 5    1  0.3272646E-002  0.1249966E+03  0.7818608E-02  0.1235075E+00
         -4   -1    0    0    0  501 -0.00000000000E+00  0.00000000000E+00  0.35967516826E+03  0.35967741041E+03  0.12700000000E+01 0.  1.
          4   -1    0    0  501    0  0.00000000000E+00 -0.00000000000E+00 -0.10820483824E+02  0.10894758840E+02  0.12700000000E+01 0.  1.
         25    2    1    2    0    0  0.00000000000E+00  0.00000000000E+00  0.34885468444E+03  0.37057216925E+03  0.12499656705E+03 0.  0.
    9000005    1    3    3    0    0 -0.41809476552E+02 -0.42096426725E+02  0.23259013722E+03  0.24004023289E+03  0.10000000000E+01 0.  0.
    9000005    1    3    3    0    0  0.41809476552E+02  0.42096426725E+02  0.11626454721E+03  0.13053193636E+03  0.10000000000E+01 0.  0.
<mgrwt>
<rscale>  0 0.12499657E+03</rscale>
<asrwt>0</asrwt>
<pdfrwt beam="2">  1        4 0.16705762E-02 0.12499657E+03</pdfrwt>
<pdfrwt beam="1">  1       -4 0.55340514E-01 0.12499657E+03</pdfrwt>
<totfact> 0.67524251E+03</totfact>
</mgrwt>
</event>
<event>
 4    1  0.3272646E-002  0.1250804E+03  0.7818608E-02  0.1234944E+00
          4   -1    0    0  501    0  0.00000000000E+00  0.00000000000E+00  0.25866648322E+02  0.25897806769E+02  0.12700000000E+01 0. -1.
         -4   -1    0    0    0  501 -0.00000000000E+00 -0.00000000000E+00 -0.15108448797E+03  0.15108982562E+03  0.12700000000E+01 0. -1.
    9000005    1    1    2    0    0 -0.34707820074E+02  0.50720573214E+02 -0.46286199161E+02  0.76945575274E+02  0.10000000000E+01 0.  0.
    9000005    1    1    2    0    0  0.34707820074E+02 -0.50720573214E+02 -0.78931640489E+02  0.10004205711E+03  0.10000000000E+01 0.  0.
<mgrwt>
<rscale>  0 0.12508043E+03</rscale>
<asrwt>0</asrwt>
<pdfrwt beam="1">  1        4 0.39822919E-02 0.12508043E+03</pdfrwt>
<pdfrwt beam="2">  1       -4 0.23246574E-01 0.12508043E+03</pdfrwt>
<totfact> 0.93992399E+03</totfact>
</mgrwt>
</event>
<event>
 5    1  0.3272646E-002  0.1250015E+03  0.7818608E-02  0.1235067E+00
          4   -1    0    0  501    0  0.00000000000E+00  0.00000000000E+00  0.42077351242E+02  0.42096512772E+02  0.12700000000E+01 0.  1.
         -4   -1    0    0    0  501 -0.00000000000E+00 -0.00000000000E+00 -0.92792495626E+02  0.92801186116E+02  0.12700000000E+01 0.  1.
         25    2    1    2    0    0  0.00000000000E+00  0.00000000000E+00 -0.50715144384E+02  0.13489769889E+03  0.12500145317E+03 0.  0.
    9000005    1    3    3    0    0  0.37834407717E+02 -0.42185225468E+02 -0.53793321633E+02  0.78139344170E+02  0.10000000000E+01 0.  0.
    9000005    1    3    3    0    0 -0.37834407717E+02  0.42185225468E+02  0.30781772483E+01  0.56758354718E+02  0.10000000000E+01 0.  0.
<mgrwt>
<rscale>  0 0.12500145E+03</rscale>
<asrwt>0</asrwt>
<pdfrwt beam="1">  1        4 0.64755811E-02 0.12500145E+03</pdfrwt>
<pdfrwt beam="2">  1       -4 0.14277911E-01 0.12500145E+03</pdfrwt>
<totfact> 0.10239892E+04</totfact>
</mgrwt>
</event>
<event>
 5    1  0.3272646E-002  0.1250035E+03  0.7818608E-02  0.1235064E+00
         -4   -1    0    0    0  501 -0.00000000000E+00  0.00000000000E+00  0.28299854228E+03  0.28300139193E+03  0.12700000000E+01 0. -1.
          4   -1    0    0  501    0  0.00000000000E+00 -0.00000000000E+00 -0.13771716336E+02  0.13830150789E+02  0.12700000000E+01 0. -1.
         25    2    1    2    0    0  0.00000000000E+00  0.00000000000E+00  0.26922682595E+03  0.29683154272E+03  0.12500352373E+03 0.  0.
    9000005    1    3    3    0    0  0.53629146177E+02  0.17650386869E+02  0.70991859259E+02  0.90710889960E+02  0.10000000000E+01 0.  0.
    9000005    1    3    3    0    0 -0.53629146177E+02 -0.17650386869E+02  0.19823496669E+03  0.20612065276E+03  0.10000000000E+01 0.  0.
<mgrwt>
<rscale>  0 0.12500352E+03</rscale>
<asrwt>0</asrwt>
<pdfrwt beam="2">  1        4 0.21234397E-02 0.12500352E+03</pdfrwt>
<pdfrwt beam="1">  1       -4 0.43542952E-01 0.12500352E+03</pdfrwt>
<totfact> 0.75992063E+03</totfact>
</mgrwt>
</event>
<event>
 5    1  0.3272646E-002  0.1249931E+03  0.7818608E-02  0.1235080E+00
          4   -1    0    0  501    0  0.00000000000E+00  0.00000000000E+00  0.27905751690E+03  0.27906040679E+03  0.12700000000E+01 0. -1.
         -4   -1    0    0    0  501 -0.00000000000E+00 -0.00000000000E+00 -0.13964694408E+02  0.14022324697E+02  0.12700000000E+01 0. -1.
         25    2    1    2    0    0  0.00000000000E+00  0.00000000000E+00  0.26509282249E+03  0.29308273149E+03  0.12499313165E+03 0.  0.
    9000005    1    3    3    0    0  0.41660502091E+02 -0.14768512663E+02  0.23611914551E+03  0.24022272431E+03  0.10000000000E+01 0.  0.
    9000005    1    3    3    0    0 -0.41660502091E+02  0.14768512663E+02  0.28973676985E+02  0.52860007177E+02  0.10000000000E+01 0.  0.
<mgrwt>
<rscale>  0 0.12499313E+03</rscale>
<asrwt>0</asrwt>
<pdfrwt beam="1">  1        4 0.42936580E-01 0.12499313E+03</pdfrwt>
<pdfrwt beam="2">  1       -4 0.21530700E-02 0.12499313E+03</pdfrwt>
<totfact> 0.76486468E+03</totfact>
</mgrwt>
</event>
<event>
 5    1  0.3272646E-002  0.1249993E+03  0.7818608E-02  0.1235070E+00
          4   -1    0    0  501    0  0.00000000000E+00  0.00000000000E+00  0.22978805170E+02  0.23013873795E+02  0.12700000000E+01 0.  1.
         -4   -1    0    0    0  501 -0.00000000000E+00 -0.00000000000E+00 -0.16982467882E+03  0.16982942748E+03  0.12700000000E+01 0.  1.
         25    2    1    2    0    0  0.00000000000E+00  0.00000000000E+00 -0.14684587365E+03  0.19284330127E+03  0.12499931295E+03 0.  0.
    9000005    1    3    3    0    0  0.53901736162E+02  0.22231584729E+02 -0.38734391136E+02  0.70007096622E+02  0.10000000000E+01 0.  0.
    9000005    1    3    3    0    0 -0.53901736162E+02 -0.22231584729E+02 -0.10811148252E+03  0.12283620465E+03  0.10000000000E+01 0.  0.
<mgrwt>
<rscale>  0 0.12499931E+03</rscale>
<asrwt>0</asrwt>
<pdfrwt beam="1">  1        4 0.35382638E-02 0.12499931E+03</pdfrwt>
<pdfrwt beam="2">  1       -4 0.26129936E-01 0.12499931E+03</pdfrwt>
<totfact> 0.91356336E+03</totfact>
</mgrwt>
</event>
<event>
 5    1  0.3272646E-002  0.1249974E+03  0.7818608E-02  0.1235073E+00
         -4   -1    0    0    0  501 -0.00000000000E+00  0.00000000000E+00  0.12696957718E+03  0.12697592855E+03  0.12700000000E+01 0. -1.
          4   -1    0    0  501    0  0.00000000000E+00 -0.00000000000E+00 -0.30743724433E+02  0.30769944622E+02  0.12700000000E+01 0. -1.
         25    2    1    2    0    0  0.00000000000E+00  0.00000000000E+00  0.96225852751E+02  0.15774587317E+03  0.12499738303E+03 0.  0.
    9000005    1    3    3    0    0  0.23820208151E+01  0.62074838097E+02  0.39541873249E+02  0.73644546900E+02  0.10000000000E+01 0.  0.
    9000005    1    3    3    0    0 -0.23820208151E+01 -0.62074838097E+02  0.56683979501E+02  0.84101326268E+02  0.10000000000E+01 0.  0.
<mgrwt>
<rscale>  0 0.12499738E+03</rscale>
<asrwt>0</asrwt>
<pdfrwt beam="2">  1        4 0.47323093E-02 0.12499738E+03</pdfrwt>
<pdfrwt beam="1">  1       -4 0.19536286E-01 0.12499738E+03</pdfrwt>
<totfact> 0.97784884E+03</totfact>
</mgrwt>
</event>
<event>
 5    1  0.3272646E-002  0.1249964E+03  0.7818608E-02  0.1235075E+00
         -4   -1    0    0    0  501 -0.00000000000E+00  0.00000000000E+00  0.19175386144E+03  0.19175806705E+03  0.12700000000E+01 0. -1.
          4   -1    0    0  501    0  0.00000000000E+00 -0.00000000000E+00 -0.20345772628E+02  0.20385371320E+02  0.12700000000E+01 0. -1.
         25    2    1    2    0    0  0.00000000000E+00  0.00000000000E+00  0.17140808881E+03  0.21214343837E+03  0.12499642207E+03 0.  0.
    9000005    1    3    3    0    0  0.57562871931E+02  0.23833069075E+00  0.12698065424E+03  0.13942247874E+03  0.10000000000E+01 0.  0.
    9000005    1    3    3    0    0 -0.57562871931E+02 -0.23833069075E+00  0.44427434572E+02  0.72720959627E+02  0.10000000000E+01 0.  0.
<mgrwt>
<rscale>  0 0.12499642E+03</rscale>
<asrwt>0</asrwt>
<pdfrwt beam="2">  1        4 0.31334884E-02 0.12499642E+03</pdfrwt>
<pdfrwt beam="1">  1       -4 0.29503964E-01 0.12499642E+03</pdfrwt>
<totfact> 0.88134069E+03</totfact>
</mgrwt>
</event>
<event>
 5    1  0.3272646E-002  0.1249970E+03  0.7818608E-02  0.1235074E+00
          4   -1    0    0  501    0  0.00000000000E+00  0.00000000000E+00  0.75140843859E+02  0.75151575604E+02  0.12700000000E+01 0.  1.
         -4   -1    0    0    0  501 -0.00000000000E+00 -0.00000000000E+00 -0.51961030122E+02  0.51976548090E+02  0.12700000000E+01 0.  1.
         25    2    1    2    0    0  0.00000000000E+00  0.00000000000E+00  0.23179813737E+02  0.12712812369E+03  0.12499702424E+03 0.  0.
    9000005    1    3    3    0    0  0.55097747877E+02  0.31353495710E+01 -0.18226669419E+02  0.58127478151E+02  0.10000000000E+01 0.  0.
    9000005    1    3    3    0    0 -0.55097747877E+02 -0.31353495710E+01  0.41406483156E+02  0.69000645543E+02  0.10000000000E+01 0.  0.
<mgrwt>
<rscale>  0 0.12499702E+03</rscale>
<asrwt>0</asrwt>
<pdfrwt beam="1">  1        4 0.11562149E-01 0.12499702E+03</pdfrwt>
<pdfrwt beam="2">  1       -4 0.79960239E-02 0.12499702E+03</pdfrwt>
<totfact> 0.10407062E+04</totfact>
</mgrwt>
</event>
<event>
 5    1  0.3272646E-002  0.1249994E+03  0.7818608E-02  0.1235070E+00
         -4   -1    0    0    0  501 -0.00000000000E+00  0.00000000000E+00  0.66950552087E+02  0.66962596461E+02  0.12700000000E+01 0.  1.
          4   -1    0    0  501    0  0.00000000000E+00 -0.00000000000E+00 -0.58320542464E+02  0.58334368715E+02  0.12700000000E+01 0.  1.
         25    2    1    2    0    0  0.00000000000E+00  0.00000000000E+00  0.86300096231E+01  0.12529696518E+03  0.12499940966E+03 0.  0.
    9000005    1    3    3    0    0 -0.14508969146E+02  0.41041384110E+02 -0.40628181499E+02  0.59552955655E+02  0.10000000000E+01 0.  0.
    9000005    1    3    3    0    0  0.14508969146E+02 -0.41041384110E+02  0.49258191122E+02  0.65744009521E+02  0.10000000000E+01 0.  0.
<mgrwt>
<rscale>  0 0.12499941E+03</rscale>
<asrwt>0</asrwt>
<pdfrwt beam="2">  1        4 0.89743812E-02 0.12499941E+03</pdfrwt>
<pdfrwt beam="1">  1       -4 0.10302075E-01 0.12499941E+03</pdfrwt>
<totfact> 0.10446555E+04</totfact>
</mgrwt>
</event>
<event>
 5    1  0.3272646E-002  0.1250137E+03  0.7818608E-02  0.1235048E+00
         -4   -1    0    0    0  501 -0.00000000000E+00  0.00000000000E+00  0.11565149812E+03  0.11565847101E+03  0.12700000000E+01 0. -1.
          4   -1    0    0  501    0  0.00000000000E+00 -0.00000000000E+00 -0.33763541475E+02  0.33787418264E+02  0.12700000000E+01 0. -1.
         25    2    1    2    0    0  0.00000000000E+00  0.00000000000E+00  0.81887956644E+02  0.14944588928E+03  0.12501374476E+03 0.  0.
    9000005    1    3    3    0    0  0.41287196226E+02  0.16001540020E+02 -0.11783099776E+02  0.45831466217E+02  0.10000000000E+01 0.  0.
    9000005    1    3    3    0    0 -0.41287196226E+02 -0.16001540020E+02  0.93671056421E+02  0.10361442306E+03  0.10000000000E+01 0.  0.
<mgrwt>
<rscale>  0 0.12501374E+03</rscale>
<asrwt>0</asrwt>
<pdfrwt beam="2">  1        4 0.51967640E-02 0.12501374E+03</pdfrwt>
<pdfrwt beam="1">  1       -4 0.17794911E-01 0.12501374E+03</pdfrwt>
<totfact> 0.99383518E+03</totfact>
</mgrwt>
</event>
<event>
 5    1  0.3272646E-002  0.1249789E+03  0.7818608E-02  0.1235102E+00
         -4   -1    0    0    0  501 -0.00000000000E+00  0.00000000000E+00  0.13952408935E+02  0.14010089760E+02  0.12700000000E+01 0. -1.
          4   -1    0    0  501    0  0.00000000000E+00 -0.00000000000E+00 -0.27923881289E+03  0.27924170090E+03  0.12700000000E+01 0. -1.
         25    2    1    2    0    0  0.00000000000E+00  0.00000000000E+00 -0.26528640395E+03  0.29325179066E+03  0.12497894464E+03 0.  0.
    9000005    1    3    3    0    0 -0.22741894401E+02 -0.11825901223E+02  0.10586748948E+01  0.25674237929E+02  0.10000000000E+01 0.  0.
    9000005    1    3    3    0    0  0.22741894401E+02  0.11825901223E+02 -0.26634507885E+03  0.26757755273E+03  0.10000000000E+01 0.  0.
<mgrwt>
<rscale>  0 0.12497894E+03</rscale>
<asrwt>0</asrwt>
<pdfrwt beam="2">  1        4 0.42964473E-01 0.12497894E+03</pdfrwt>
<pdfrwt beam="1">  1       -4 0.21511838E-02 0.12497894E+03</pdfrwt>
<totfact> 0.76488957E+03</totfact>
</mgrwt>
</event>
<event>
 5    1  0.3272646E-002  0.1250034E+03  0.7818608E-02  0.1235064E+00
         -4   -1    0    0    0  501 -0.00000000000E+00  0.00000000000E+00  0.35314682345E+03  0.35314910705E+03  0.12700000000E+01 0.  1.
          4   -1    0    0  501    0  0.00000000000E+00 -0.00000000000E+00 -0.11023087935E+02  0.11096006833E+02  0.12700000000E+01 0.  1.
         25    2    1    2    0    0  0.00000000000E+00  0.00000000000E+00  0.34212373552E+03  0.36424511389E+03  0.12500341030E+03 0.  0.
    9000005    1    3    3    0    0  0.45305614119E+02  0.25731195359E+02  0.70510999109E+02  0.87678355828E+02  0.10000000000E+01 0.  0.
    9000005    1    3    3    0    0 -0.45305614119E+02 -0.25731195359E+02  0.27161273641E+03  0.27656675806E+03  0.10000000000E+01 0.  0.
<mgrwt>
<rscale>  0 0.12500341E+03</rscale>
<asrwt>0</asrwt>
<pdfrwt beam="2">  1        4 0.17016445E-02 0.12500341E+03</pdfrwt>
<pdfrwt beam="1">  1       -4 0.54336066E-01 0.12500341E+03</pdfrwt>
<totfact> 0.68180190E+03</totfact>
</mgrwt>
</event>
<event>
 5    1  0.3272646E-002  0.1250000E+03  0.7818608E-02  0.1235069E+00
          4   -1    0    0  501    0  0.00000000000E+00  0.00000000000E+00  0.12332340144E+03  0.12332994058E+03  0.12700000000E+01 0. -1.
         -4   -1    0    0    0  501 -0.00000000000E+00 -0.00000000000E+00 -0.31654710571E+02  0.31680176788E+02  0.12700000000E+01 0. -1.
         25    2    1    2    0    0  0.00000000000E+00  0.00000000000E+00  0.91668690868E+02  0.15501011736E+03  0.12499995040E+03 0.  0.
    9000005    1    3    3    0    0 -0.18364163953E+02  0.38625183496E+02  0.10233770814E+03  0.11091958270E+03  0.10000000000E+01 0.  0.
    9000005    1    3    3    0    0  0.18364163953E+02 -0.38625183496E+02 -0.10669017272E+02  0.44090534668E+02  0.10000000000E+01 0.  0.
<mgrwt>
<rscale>  0 0.12499995E+03</rscale>
<asrwt>0</asrwt>
<pdfrwt beam="1">  1        4 0.18975293E-01 0.12499995E+03</pdfrwt>
<pdfrwt beam="2">  1       -4 0.48724174E-02 0.12499995E+03</pdfrwt>
<totfact> 0.98313622E+03</totfact>
</mgrwt>
</event>
<event>
 5    1  0.3272646E-002  0.1250011E+03  0.7818608E-02  0.1235068E+00
         -4   -1    0    0    0  501 -0.00000000000E+00  0.00000000000E+00  0.10146007187E+03  0.10146802001E+03  0.12700000000E+01 0.  1.
          4   -1    0    0  501    0  0.00000000000E+00 -0.00000000000E+00 -0.38481120531E+02  0.38502071858E+02  0.12700000000E+01 0.  1.
         25    2    1    2    0    0  0.00000000000E+00  0.00000000000E+00  0.62978951341E+02  0.13997009187E+03  0.12500111321E+03 0.  0.
    9000005    1    3    3    0    0 -0.93179555226E+01 -0.46851745743E+01 -0.37505205127E+02  0.38941180870E+02  0.10000000000E+01 0.  0.
    9000005    1    3    3    0    0  0.93179555226E+01  0.46851745743E+01  0.10048415647E+03  0.10102891100E+03  0.10000000000E+01 0.  0.
<mgrwt>
<rscale>  0 0.12500111E+03</rscale>
<asrwt>0</asrwt>
<pdfrwt beam="2">  1        4 0.59223954E-02 0.12500111E+03</pdfrwt>
<pdfrwt beam="1">  1       -4 0.15611465E-01 0.12500111E+03</pdfrwt>
<totfact> 0.10133951E+04</totfact>
</mgrwt>
</event>
<event>
 5    1  0.3272646E-002  0.1250007E+03  0.7818608E-02  0.1235068E+00
         -4   -1    0    0    0  501 -0.00000000000E+00  0.00000000000E+00  0.46756165024E+01  0.48450273144E+01  0.12700000000E+01 0.  1.
          4   -1    0    0  501    0  0.00000000000E+00 -0.00000000000E+00 -0.82042398656E+03  0.82042496952E+03  0.12700000000E+01 0.  1.
         25    2    1    2    0    0  0.00000000000E+00  0.00000000000E+00 -0.81574837005E+03  0.82526999684E+03  0.12500065774E+03 0.  0.
    9000005    1    3    3    0    0 -0.42588688922E+02 -0.38754647691E+02 -0.56818106842E+03  0.57109232673E+03  0.10000000000E+01 0.  0.
    9000005    1    3    3    0    0  0.42588688922E+02  0.38754647691E+02 -0.24756730164E+03  0.25417767011E+03  0.10000000000E+01 0.  0.
<mgrwt>
<rscale>  0 0.12500066E+03</rscale>
<asrwt>0</asrwt>
<pdfrwt beam="2">  1        4 0.12623207E+00 0.12500066E+03</pdfrwt>
<pdfrwt beam="1">  1       -4 0.73243348E-03 0.12500066E+03</pdfrwt>
<totfact> 0.37160690E+03</totfact>
</mgrwt>
</event>
<event>
 5    1  0.3272646E-002  0.1250009E+03  0.7818608E-02  0.1235068E+00
         -4   -1    0    0    0  501 -0.00000000000E+00  0.00000000000E+00  0.30233494439E+03  0.30233761179E+03  0.12700000000E+01 0. -1.
          4   -1    0    0  501    0  0.00000000000E+00 -0.00000000000E+00 -0.12886514063E+02  0.12948943768E+02  0.12700000000E+01 0. -1.
         25    2    1    2    0    0  0.00000000000E+00  0.00000000000E+00  0.28944843033E+03  0.31528655555E+03  0.12500087317E+03 0.  0.
    9000005    1    3    3    0    0 -0.56652017000E+02  0.16067556142E+02  0.19749266300E+03  0.20608728570E+03  0.10000000000E+01 0.  0.
    9000005    1    3    3    0    0  0.56652017000E+02 -0.16067556142E+02  0.91955767333E+02  0.10919926985E+03  0.10000000000E+01 0.  0.
<mgrwt>
<rscale>  0 0.12500087E+03</rscale>
<asrwt>0</asrwt>
<pdfrwt beam="2">  1        4 0.19875481E-02 0.12500087E+03</pdfrwt>
<pdfrwt beam="1">  1       -4 0.46518075E-01 0.12500087E+03</pdfrwt>
<totfact> 0.73718827E+03</totfact>
</mgrwt>
</event>
<event>
 5    1  0.3272646E-002  0.1249992E+03  0.7818608E-02  0.1235070E+00
         -4   -1    0    0    0  501 -0.00000000000E+00  0.00000000000E+00  0.39350203270E+02  0.39370692112E+02  0.12700000000E+01 0. -1.
          4   -1    0    0  501    0  0.00000000000E+00 -0.00000000000E+00 -0.99217280754E+02  0.99225408542E+02  0.12700000000E+01 0. -1.
         25    2    1    2    0    0  0.00000000000E+00  0.00000000000E+00 -0.59867077485E+02  0.13859610065E+03  0.12499924860E+03 0.  0.
    9000005    1    3    3    0    0 -0.55383902377E+01 -0.62149446072E+02 -0.26096530920E+02  0.67640641182E+02  0.10000000000E+01 0.  0.
    9000005    1    3    3    0    0  0.55383902377E+01  0.62149446072E+02 -0.33770546565E+02  0.70955459472E+02  0.10000000000E+01 0.  0.
<mgrwt>
<rscale>  0 0.12499925E+03</rscale>
<asrwt>0</asrwt>
<pdfrwt beam="2">  1        4 0.15266398E-01 0.12499925E+03</pdfrwt>
<pdfrwt beam="1">  1       -4 0.60560787E-02 0.12499925E+03</pdfrwt>
<totfact> 0.10162938E+04</totfact>
</mgrwt>
</event>
<event>
 5    1  0.3272646E-002  0.1250015E+03  0.7818608E-02  0.1235067E+00
          4   -1    0    0  501    0  0.00000000000E+00  0.00000000000E+00  0.19204706331E+03  0.19205126250E+03  0.12700000000E+01 0.  1.
         -4   -1    0    0    0  501 -0.00000000000E+00 -0.00000000000E+00 -0.20316304937E+02  0.20355960953E+02  0.12700000000E+01 0.  1.
         25    2    1    2    0    0  0.00000000000E+00  0.00000000000E+00  0.17173075838E+03  0.21240722345E+03  0.12500150080E+03 0.  0.
    9000005    1    3    3    0    0 -0.38577147509E+02  0.92490333153E+01  0.16791590067E+03  0.17254127223E+03  0.10000000000E+01 0.  0.
    9000005    1    3    3    0    0  0.38577147509E+02 -0.92490333153E+01  0.38148577099E+01  0.39865951218E+02  0.10000000000E+01 0.  0.
<mgrwt>
<rscale>  0 0.12500150E+03</rscale>
<asrwt>0</asrwt>
<pdfrwt beam="1">  1        4 0.29549078E-01 0.12500150E+03</pdfrwt>
<pdfrwt beam="2">  1       -4 0.31289586E-02 0.12500150E+03</pdfrwt>
<totfact> 0.88081295E+03</totfact>
</mgrwt>
</event>
<event>
 5    1  0.3272646E-002  0.1249998E+03  0.7818608E-02  0.1235070E+00
         -4   -1    0    0    0  501 -0.00000000000E+00  0.00000000000E+00  0.42543540729E+02  0.42562492382E+02  0.12700000000E+01 0.  1.
          4   -1    0    0  501    0  0.00000000000E+00 -0.00000000000E+00 -0.91773658110E+02  0.91782445069E+02  0.12700000000E+01 0.  1.
         25    2    1    2    0    0  0.00000000000E+00  0.00000000000E+00 -0.49230117381E+02  0.13434493745E+03  0.12499983105E+03 0.  0.
    9000005    1    3    3    0    0  0.92378697571E+01 -0.49078383996E+02  0.15759541005E+02  0.52377372461E+02  0.10000000000E+01 0.  0.
    9000005    1    3    3    0    0 -0.92378697571E+01  0.49078383996E+02 -0.64989658385E+02  0.81967564990E+02  0.10000000000E+01 0.  0.
<mgrwt>
<rscale>  0 0.12499983E+03</rscale>
<asrwt>0</asrwt>
<pdfrwt beam="2">  1        4 0.14121158E-01 0.12499983E+03</pdfrwt>
<pdfrwt beam="1">  1       -4 0.65472939E-02 0.12499983E+03</pdfrwt>
<totfact> 0.10251935E+04</totfact>
</mgrwt>
</event>
<event>
 5    1  0.3272646E-002  0.1250088E+03  0.7818608E-02  0.1235056E+00
          4   -1    0    0  501    0  0.00000000000E+00  0.00000000000E+00  0.85480765297E+02  0.85490199063E+02  0.12700000000E+01 0. -1.
         -4   -1    0    0    0  501 -0.00000000000E+00 -0.00000000000E+00 -0.45683072595E+02  0.45700722332E+02  0.12700000000E+01 0. -1.
         25    2    1    2    0    0  0.00000000000E+00  0.00000000000E+00  0.39797692702E+02  0.13119092140E+03  0.12500880574E+03 0.  0.
    9000005    1    3    3    0    0  0.53578391245E+02 -0.19037869786E-01  0.53663793902E+02  0.75838296043E+02  0.10000000000E+01 0.  0.
    9000005    1    3    3    0    0 -0.53578391245E+02  0.19037869786E-01 -0.13866101199E+02  0.55352625352E+02  0.10000000000E+01 0.  0.
<mgrwt>
<rscale>  0 0.12500881E+03</rscale>
<asrwt>0</asrwt>
<pdfrwt beam="1">  1        4 0.13152970E-01 0.12500881E+03</pdfrwt>
<pdfrwt beam="2">  1       -4 0.70302484E-02 0.12500881E+03</pdfrwt>
<totfact> 0.10316948E+04</totfact>
</mgrwt>
</event>
<event>
 5    1  0.3272646E-002  0.1250000E+03  0.7818608E-02  0.1235069E+00
          4   -1    0    0  501    0  0.00000000000E+00  0.00000000000E+00  0.48871866676E+02  0.48888365205E+02  0.12700000000E+01 0.  1.
         -4   -1    0    0    0  501 -0.00000000000E+00 -0.00000000000E+00 -0.79893403930E+02  0.79903497367E+02  0.12700000000E+01 0.  1.
         25    2    1    2    0    0  0.00000000000E+00  0.00000000000E+00 -0.31021537254E+02  0.12879186257E+03  0.12500003236E+03 0.  0.
    9000005    1    3    3    0    0 -0.47388882354E+02  0.39906306197E+02 -0.23946471194E+02  0.66427802370E+02  0.10000000000E+01 0.  0.
    9000005    1    3    3    0    0  0.47388882354E+02 -0.39906306197E+02 -0.70750660595E+01  0.62364060202E+02  0.10000000000E+01 0.  0.
<mgrwt>
<rscale>  0 0.12500003E+03</rscale>
<asrwt>0</asrwt>
<pdfrwt beam="1">  1        4 0.75207943E-02 0.12500003E+03</pdfrwt>
<pdfrwt beam="2">  1       -4 0.12293338E-01 0.12500003E+03</pdfrwt>
<totfact> 0.10370414E+04</totfact>
</mgrwt>
</event>
<event>
 5    1  0.3272646E-002  0.1250001E+03  0.7818608E-02  0.1235069E+00
         -4   -1    0    0    0  501 -0.00000000000E+00  0.00000000000E+00  0.21900511918E+03  0.21900880148E+03  0.12700000000E+01 0.  1.
          4   -1    0    0  501    0  0.00000000000E+00 -0.00000000000E+00 -0.17809929709E+02  0.17855153212E+02  0.12700000000E+01 0.  1.
         25    2    1    2    0    0  0.00000000000E+00  0.00000000000E+00  0.20119518947E+03  0.23686395469E+03  0.12500011507E+03 0.  0.
    9000005    1    3    3    0    0  0.10381135256E+02  0.45214408973E+02  0.17993859306E+03  0.18582520825E+03  0.10000000000E+01 0.  0.
    9000005    1    3    3    0    0 -0.10381135256E+02 -0.45214408973E+02  0.21256596413E+02  0.51038746449E+02  0.10000000000E+01 0.  0.
<mgrwt>
<rscale>  0 0.12500012E+03</rscale>
<asrwt>0</asrwt>
<pdfrwt beam="2">  1        4 0.27437514E-02 0.12500012E+03</pdfrwt>
<pdfrwt beam="1">  1       -4 0.33696855E-01 0.12500012E+03</pdfrwt>
<totfact> 0.84266438E+03</totfact>
</mgrwt>
</event>
<event>
 5    1  0.3272646E-002  0.1250077E+03  0.7818608E-02  0.1235057E+00
          4   -1    0    0  501    0  0.00000000000E+00  0.00000000000E+00  0.83325937641E+02  0.83335615338E+02  0.12700000000E+01 0.  1.
         -4   -1    0    0    0  501 -0.00000000000E+00 -0.00000000000E+00 -0.46863906774E+02  0.46881111955E+02  0.12700000000E+01 0.  1.
         25    2    1    2    0    0  0.00000000000E+00  0.00000000000E+00  0.36462030868E+02  0.13021672729E+03  0.12500766525E+03 0.  0.
    9000005    1    3    3    0    0 -0.36360757422E+01  0.61193710620E+02  0.30896532280E+02  0.68654839401E+02  0.10000000000E+01 0.  0.
    9000005    1    3    3    0    0  0.36360757422E+01 -0.61193710620E+02  0.55654985872E+01  0.61561887892E+02  0.10000000000E+01 0.  0.
<mgrwt>
<rscale>  0 0.12500767E+03</rscale>
<asrwt>0</asrwt>
<pdfrwt beam="1">  1        4 0.12821443E-01 0.12500767E+03</pdfrwt>
<pdfrwt beam="2">  1       -4 0.72118998E-02 0.12500767E+03</pdfrwt>
<totfact> 0.10338085E+04</totfact>
</mgrwt>
</event>
<event>
 5    1  0.3272646E-002  0.1250002E+03  0.7818608E-02  0.1235069E+00
          4   -1    0    0  501    0  0.00000000000E+00  0.00000000000E+00  0.71941230506E+02  0.71952439477E+02  0.12700000000E+01 0.  1.
         -4   -1    0    0    0  501 -0.00000000000E+00 -0.00000000000E+00 -0.54275059598E+02  0.54289916139E+02  0.12700000000E+01 0.  1.
         25    2    1    2    0    0  0.00000000000E+00  0.00000000000E+00  0.17666170908E+02  0.12624235562E+03  0.12500015503E+03 0.  0.
    9000005    1    3    3    0    0  0.22958797696E+02 -0.17371761452E+02  0.64849355741E+02  0.70960012878E+02  0.10000000000E+01 0.  0.
    9000005    1    3    3    0    0 -0.22958797696E+02  0.17371761452E+02 -0.47183184834E+02  0.55282342738E+02  0.10000000000E+01 0.  0.
<mgrwt>
<rscale>  0 0.12500016E+03</rscale>
<asrwt>0</asrwt>
<pdfrwt beam="1">  1        4 0.11069887E-01 0.12500016E+03</pdfrwt>
<pdfrwt beam="2">  1       -4 0.83520142E-02 0.12500016E+03</pdfrwt>
<totfact> 0.10425616E+04</totfact>
</mgrwt>
</event>
<event>
 5    1  0.3272646E-002  0.1249991E+03  0.7818608E-02  0.1235071E+00
          4   -1    0    0  501    0  0.00000000000E+00  0.00000000000E+00  0.68715184790E+03  0.68715302151E+03  0.12700000000E+01 0.  1.
         -4   -1    0    0    0  501 -0.00000000000E+00 -0.00000000000E+00 -0.56124869511E+01  0.57543817893E+01  0.12700000000E+01 0.  1.
         25    2    1    2    0    0  0.00000000000E+00  0.00000000000E+00  0.68153936095E+03  0.69290740330E+03  0.12499907610E+03 0.  0.
    9000005    1    3    3    0    0 -0.60904720571E+02 -0.34515497693E+01  0.26559834526E+03  0.27251564943E+03  0.10000000000E+01 0.  0.
    9000005    1    3    3    0    0  0.60904720571E+02  0.34515497693E+01  0.41594101569E+03  0.42039175387E+03  0.10000000000E+01 0.  0.
<mgrwt>
<rscale>  0 0.12499908E+03</rscale>
<asrwt>0</asrwt>
<pdfrwt beam="1">  1        4 0.10572671E+00 0.12499908E+03</pdfrwt>
<pdfrwt beam="2">  1       -4 0.87446453E-03 0.12499908E+03</pdfrwt>
<totfact> 0.43464618E+03</totfact>
</mgrwt>
</event>
<event>
 5    1  0.3272646E-002  0.1250019E+03  0.7818608E-02  0.1235066E+00
         -4   -1    0    0    0  501 -0.00000000000E+00  0.00000000000E+00  0.38953619887E+02  0.38974317215E+02  0.12700000000E+01 0.  1.
          4   -1    0    0  501    0  0.00000000000E+00 -0.00000000000E+00 -0.10023127389E+03  0.10023931946E+03  0.12700000000E+01 0.  1.
         25    2    1    2    0    0  0.00000000000E+00  0.00000000000E+00 -0.61277654005E+02  0.13921363668E+03  0.12500194301E+03 0.  0.
    9000005    1    3    3    0    0  0.39656574722E+02  0.11358378914E+02  0.21642030736E+02  0.46594357863E+02  0.10000000000E+01 0.  0.
    9000005    1    3    3    0    0 -0.39656574722E+02 -0.11358378914E+02 -0.82919684741E+02  0.92619278813E+02  0.10000000000E+01 0.  0.
<mgrwt>
<rscale>  0 0.12500194E+03</rscale>
<asrwt>0</asrwt>
<pdfrwt beam="2">  1        4 0.15422407E-01 0.12500194E+03</pdfrwt>
<pdfrwt beam="1">  1       -4 0.59950756E-02 0.12500194E+03</pdfrwt>
<totfact> 0.10149465E+04</totfact>
</mgrwt>
</event>
<event>
 5    1  0.3272646E-002  0.1249991E+03  0.7818608E-02  0.1235071E+00
          4   -1    0    0  501    0  0.00000000000E+00  0.00000000000E+00  0.16894501597E+02  0.16942168816E+02  0.12700000000E+01 0.  1.
         -4   -1    0    0    0  501 -0.00000000000E+00 -0.00000000000E+00 -0.23083585681E+03  0.23083935039E+03  0.12700000000E+01 0.  1.
         25    2    1    2    0    0  0.00000000000E+00  0.00000000000E+00 -0.21394135522E+03  0.24778151921E+03  0.12499911116E+03 0.  0.
    9000005    1    3    3    0    0 -0.50439492702E+02  0.89221867428E+01 -0.17793045499E+03  0.18515937636E+03  0.10000000000E+01 0.  0.
    9000005    1    3    3    0    0  0.50439492702E+02 -0.89221867428E+01 -0.36010900224E+02  0.62622142851E+02  0.10000000000E+01 0.  0.
<mgrwt>
<rscale>  0 0.12499911E+03</rscale>
<asrwt>0</asrwt>
<pdfrwt beam="1">  1        4 0.26030897E-02 0.12499911E+03</pdfrwt>
<pdfrwt beam="2">  1       -4 0.35517142E-01 0.12499911E+03</pdfrwt>
<totfact> 0.82653566E+03</totfact>
</mgrwt>
</event>
<event>
 5    1  0.3272646E-002  0.1249991E+03  0.7818608E-02  0.1235071E+00
          4   -1    0    0  501    0  0.00000000000E+00  0.00000000000E+00  0.14633584276E+02  0.14688590428E+02  0.12700000000E+01 0.  1.
         -4   -1    0    0    0  501 -0.00000000000E+00 -0.00000000000E+00 -0.26637606343E+03  0.26637909090E+03  0.12700000000E+01 0.  1.
         25    2    1    2    0    0  0.00000000000E+00  0.00000000000E+00 -0.25174247915E+03  0.28106768133E+03  0.12499906270E+03 0.  0.
    9000005    1    3    3    0    0 -0.12446912379E+02 -0.20669373480E+02  0.37487915378E+01  0.24437718097E+02  0.10000000000E+01 0.  0.
    9000005    1    3    3    0    0  0.12446912379E+02  0.20669373480E+02 -0.25549127069E+03  0.25662996323E+03  0.10000000000E+01 0.  0.
<mgrwt>
<rscale>  0 0.12499906E+03</rscale>
<asrwt>0</asrwt>
<pdfrwt beam="1">  1        4 0.22557850E-02 0.12499906E+03</pdfrwt>
<pdfrwt beam="2">  1       -4 0.40985393E-01 0.12499906E+03</pdfrwt>
<totfact> 0.78038379E+03</totfact>
</mgrwt>
</event>
<event>
 5    1  0.3272646E-002  0.1249948E+03  0.7818608E-02  0.1235077E+00
          4   -1    0    0  501    0  0.00000000000E+00  0.00000000000E+00  0.10432158367E+02  0.10509178283E+02  0.12700000000E+01 0. -1.
         -4   -1    0    0    0  501 -0.00000000000E+00 -0.00000000000E+00 -0.37295695620E+03  0.37295911851E+03  0.12700000000E+01 0. -1.
         25    2    1    2    0    0  0.00000000000E+00  0.00000000000E+00 -0.36252479784E+03  0.38346829679E+03  0.12499482229E+03 0.  0.
    9000005    1    3    3    0    0  0.32411981231E+02  0.30815538975E+02 -0.47368351655E+02  0.65152856485E+02  0.10000000000E+01 0.  0.
    9000005    1    3    3    0    0 -0.32411981231E+02 -0.30815538975E+02 -0.31515644618E+03  0.31831544031E+03  0.10000000000E+01 0.  0.
<mgrwt>
<rscale>  0 0.12499482E+03</rscale>
<asrwt>0</asrwt>
<pdfrwt beam="1">  1        4 0.16110387E-02 0.12499482E+03</pdfrwt>
<pdfrwt beam="2">  1       -4 0.57384074E-01 0.12499482E+03</pdfrwt>
<totfact> 0.66200618E+03</totfact>
</mgrwt>
</event>
<event>
 5    1  0.3272646E-002  0.1249989E+03  0.7818608E-02  0.1235071E+00
         -4   -1    0    0    0  501 -0.00000000000E+00  0.00000000000E+00  0.52844184059E+02  0.52859442760E+02  0.12700000000E+01 0. -1.
          4   -1    0    0  501    0  0.00000000000E+00 -0.00000000000E+00 -0.73887508939E+02  0.73898422698E+02  0.12700000000E+01 0. -1.
         25    2    1    2    0    0  0.00000000000E+00  0.00000000000E+00 -0.21043324880E+02  0.12675786546E+03  0.12499893973E+03 0.  0.
    9000005    1    3    3    0    0  0.48933276634E+02 -0.36658314919E+02  0.25785607519E+01  0.61204138671E+02  0.10000000000E+01 0.  0.
    9000005    1    3    3    0    0 -0.48933276634E+02  0.36658314919E+02 -0.23621885632E+02  0.65553726787E+02  0.10000000000E+01 0.  0.
<mgrwt>
<rscale>  0 0.12499894E+03</rscale>
<asrwt>0</asrwt>
<pdfrwt beam="2">  1        4 0.11369322E-01 0.12499894E+03</pdfrwt>
<pdfrwt beam="1">  1       -4 0.81318877E-02 0.12499894E+03</pdfrwt>
<totfact> 0.10414660E+04</totfact>
</mgrwt>
</event>
<event>
 5    1  0.3272646E-002  0.1249986E+03  0.7818608E-02  0.1235071E+00
         -4   -1    0    0    0  501 -0.00000000000E+00  0.00000000000E+00  0.20097520731E+02  0.20137607592E+02  0.12700000000E+01 0.  1.
          4   -1    0    0  501    0  0.00000000000E+00 -0.00000000000E+00 -0.19412466133E+03  0.19412881558E+03  0.12700000000E+01 0.  1.
         25    2    1    2    0    0  0.00000000000E+00  0.00000000000E+00 -0.17402714060E+03  0.21426642317E+03  0.12499861772E+03 0.  0.
    9000005    1    3    3    0    0 -0.49930886850E+02 -0.37218239074E+02 -0.95899555461E+02  0.11435040673E+03  0.10000000000E+01 0.  0.
    9000005    1    3    3    0    0  0.49930886850E+02  0.37218239074E+02 -0.78127585142E+02  0.99916016441E+02  0.10000000000E+01 0.  0.
<mgrwt>
<rscale>  0 0.12499862E+03</rscale>
<asrwt>0</asrwt>
<pdfrwt beam="2">  1        4 0.29868734E-01 0.12499862E+03</pdfrwt>
<pdfrwt beam="1">  1       -4 0.30953296E-02 0.12499862E+03</pdfrwt>
<totfact> 0.87786536E+03</totfact>
</mgrwt>
</event>
<event>
 4    1  0.3272646E-002  0.1250689E+03  0.7818608E-02  0.1234962E+00
         -4   -1    0    0    0  501 -0.00000000000E+00  0.00000000000E+00  0.27158122933E+02  0.27187801331E+02  0.12700000000E+01 0.  1.
          4   -1    0    0  501    0  0.00000000000E+00 -0.00000000000E+00 -0.14388113989E+03  0.14388674476E+03  0.12700000000E+01 0.  1.
    9000005    1    1    2    0    0  0.56418693625E+02  0.22015186052E+02 -0.79632310314E+02  0.10005019867E+03  0.10000000000E+01 0.  0.
    9000005    1    1    2    0    0 -0.56418693625E+02 -0.22015186052E+02 -0.37090706646E+02  0.71024347422E+02  0.10000000000E+01 0.  0.
<mgrwt>
<rscale>  0 0.12506893E+03</rscale>
<asrwt>0</asrwt>
<pdfrwt beam="2">  1        4 0.22138273E-01 0.12506893E+03</pdfrwt>
<pdfrwt beam="1">  1       -4 0.41808870E-02 0.12506893E+03</pdfrwt>
<totfact> 0.95101535E+03</totfact>
</mgrwt>
</event>
<event>
 5    1  0.3272646E-002  0.1249978E+03  0.7818608E-02  0.1235073E+00
          4   -1    0    0  501    0  0.00000000000E+00  0.00000000000E+00  0.63406102888E+02  0.63418820420E+02  0.12700000000E+01 0. -1.
         -4   -1    0    0    0  501 -0.00000000000E+00 -0.00000000000E+00 -0.61579223186E+02  0.61592317931E+02  0.12700000000E+01 0. -1.
         25    2    1    2    0    0  0.00000000000E+00  0.00000000000E+00  0.18268797020E+01  0.12501113835E+03  0.12499778887E+03 0.  0.
    9000005    1    3    3    0    0 -0.78430920343E+01  0.29458492050E+02 -0.53643233520E+02  0.61708292385E+02  0.10000000000E+01 0.  0.
    9000005    1    3    3    0    0  0.78430920343E+01 -0.29458492050E+02  0.55470113222E+02  0.63302845966E+02  0.10000000000E+01 0.  0.
<mgrwt>
<rscale>  0 0.12499779E+03</rscale>
<asrwt>0</asrwt>
<pdfrwt beam="1">  1        4 0.97567705E-02 0.12499779E+03</pdfrwt>
<pdfrwt beam="2">  1       -4 0.94757123E-02 0.12499779E+03</pdfrwt>
<totfact> 0.10453143E+04</totfact>
</mgrwt>
</event>
<event>
 5    1  0.3272646E-002  0.1249972E+03  0.7818608E-02  0.1235074E+00
         -4   -1    0    0    0  501 -0.00000000000E+00  0.00000000000E+00  0.46641382858E+01  0.48339513805E+01  0.12700000000E+01 0.  1.
          4   -1    0    0  501    0  0.00000000000E+00 -0.00000000000E+00 -0.82232638433E+03  0.82232736502E+03  0.12700000000E+01 0.  1.
         25    2    1    2    0    0  0.00000000000E+00  0.00000000000E+00 -0.81766224604E+03  0.82716131640E+03  0.12499717896E+03 0.  0.
    9000005    1    3    3    0    0  0.45336279593E+02 -0.30319443504E+02 -0.20698002960E+03  0.21404761048E+03  0.10000000000E+01 0.  0.
    9000005    1    3    3    0    0 -0.45336279593E+02  0.30319443504E+02 -0.61068221645E+03  0.61311370592E+03  0.10000000000E+01 0.  0.
<mgrwt>
<rscale>  0 0.12499718E+03</rscale>
<asrwt>0</asrwt>
<pdfrwt beam="2">  1        4 0.12652478E+00 0.12499718E+03</pdfrwt>
<pdfrwt beam="1">  1       -4 0.73069837E-03 0.12499718E+03</pdfrwt>
<totfact> 0.37082862E+03</totfact>
</mgrwt>
</event>
<event>
 5    1  0.3272646E-002  0.1250000E+03  0.7818608E-02  0.1235069E+00
          4   -1    0    0  501    0  0.00000000000E+00  0.00000000000E+00  0.15459924232E+02  0.15512000428E+02  0.12700000000E+01 0.  1.
         -4   -1    0    0    0  501 -0.00000000000E+00 -0.00000000000E+00 -0.25219075803E+03  0.25219395578E+03  0.12700000000E+01 0.  1.
         25    2    1    2    0    0  0.00000000000E+00  0.00000000000E+00 -0.23673083379E+03  0.26770595621E+03  0.12499996529E+03 0.  0.
    9000005    1    3    3    0    0 -0.30892756039E+02  0.13594469185E+02 -0.57286476875E+01  0.34248932428E+02  0.10000000000E+01 0.  0.
    9000005    1    3    3    0    0  0.30892756039E+02 -0.13594469185E+02 -0.23100218611E+03  0.23345702378E+03  0.10000000000E+01 0.  0.
<mgrwt>
<rscale>  0 0.12499997E+03</rscale>
<asrwt>0</asrwt>
<pdfrwt beam="1">  1        4 0.23827019E-02 0.12499997E+03</pdfrwt>
<pdfrwt beam="2">  1       -4 0.38802827E-01 0.12499997E+03</pdfrwt>
<totfact> 0.79836719E+03</totfact>
</mgrwt>
</event>
<event>
 5    1  0.3272646E-002  0.1250022E+03  0.7818608E-02  0.1235066E+00
         -4   -1    0    0    0  501 -0.00000000000E+00  0.00000000000E+00  0.59706579248E+02  0.59720084607E+02  0.12700000000E+01 0.  1.
          4   -1    0    0  501    0  0.00000000000E+00 -0.00000000000E+00 -0.65399388937E+02  0.65411718929E+02  0.12700000000E+01 0.  1.
         25    2    1    2    0    0  0.00000000000E+00  0.00000000000E+00 -0.56928096885E+01  0.12513180354E+03  0.12500224068E+03 0.  0.
    9000005    1    3    3    0    0 -0.12103867451E+00 -0.12697815557E+02  0.58406402292E+02  0.59779235517E+02  0.10000000000E+01 0.  0.
    9000005    1    3    3    0    0  0.12103867451E+00  0.12697815557E+02 -0.64099211980E+02  0.65352568020E+02  0.10000000000E+01 0.  0.
<mgrwt>
<rscale>  0 0.12500224E+03</rscale>
<asrwt>0</asrwt>
<pdfrwt beam="2">  1        4 0.10063432E-01 0.12500224E+03</pdfrwt>
<pdfrwt beam="1">  1       -4 0.91876150E-02 0.12500224E+03</pdfrwt>
<totfact> 0.10449471E+04</totfact>
</mgrwt>
</event>
<event>
 5    1  0.3272646E-002  0.1250019E+03  0.7818608E-02  0.1235066E+00
         -4   -1    0    0    0  501 -0.00000000000E+00  0.00000000000E+00  0.17125589007E+03  0.17126059905E+03  0.12700000000E+01 0. -1.
          4   -1    0    0  501    0  0.00000000000E+00 -0.00000000000E+00 -0.22787428281E+02  0.22822790970E+02  0.12700000000E+01 0. -1.
         25    2    1    2    0    0  0.00000000000E+00  0.00000000000E+00  0.14846846179E+03  0.19408339002E+03  0.12500191251E+03 0.  0.
    9000005    1    3    3    0    0 -0.55853616205E+02 -0.25203072959E+02  0.55183593973E+02  0.82468481092E+02  0.10000000000E+01 0.  0.
    9000005    1    3    3    0    0  0.55853616205E+02  0.25203072959E+02  0.93284867821E+02  0.11161490892E+03  0.10000000000E+01 0.  0.
<mgrwt>
<rscale>  0 0.12500191E+03</rscale>
<asrwt>0</asrwt>
<pdfrwt beam="2">  1        4 0.35088406E-02 0.12500191E+03</pdfrwt>
<pdfrwt beam="1">  1       -4 0.26350143E-01 0.12500191E+03</pdfrwt>
<totfact> 0.91137729E+03</totfact>
</mgrwt>
</event>
<event>
 5    1  0.3272646E-002  0.1249982E+03  0.7818608E-02  0.1235072E+00
         -4   -1    0    0    0  501 -0.00000000000E+00  0.00000000000E+00  0.53750603580E+02  0.53765605039E+02  0.12700000000E+01 0. -1.
          4   -1    0    0  501    0  0.00000000000E+00 -0.00000000000E+00 -0.72640847997E+02  0.72651949029E+02  0.12700000000E+01 0. -1.
         25    2    1    2    0    0  0.00000000000E+00  0.00000000000E+00 -0.18890244417E+02  0.12641755407E+03  0.12499822656E+03 0.  0.
    9000005    1    3    3    0    0  0.62390059423E+02 -0.21575305130E+01 -0.12299348865E+02  0.63635276657E+02  0.10000000000E+01 0.  0.
    9000005    1    3    3    0    0 -0.62390059423E+02  0.21575305130E+01 -0.65908955516E+01  0.62782277411E+02  0.10000000000E+01 0.  0.
<mgrwt>
<rscale>  0 0.12499823E+03</rscale>
<asrwt>0</asrwt>
<pdfrwt beam="2">  1        4 0.11177523E-01 0.12499823E+03</pdfrwt>
<pdfrwt beam="1">  1       -4 0.82713315E-02 0.12499823E+03</pdfrwt>
<totfact> 0.10422244E+04</totfact>
</mgrwt>
</event>
<event>
 5    1  0.3272646E-002  0.1249956E+03  0.7818608E-02  0.1235076E+00
         -4   -1    0    0    0  501 -0.00000000000E+00  0.00000000000E+00  0.25311774213E+02  0.25343614853E+02  0.12700000000E+01 0.  1.
          4   -1    0    0  501    0  0.00000000000E+00 -0.00000000000E+00 -0.15418320774E+03  0.15418843812E+03  0.12700000000E+01 0.  1.
         25    2    1    2    0    0  0.00000000000E+00  0.00000000000E+00 -0.12887143353E+03  0.17953205297E+03  0.12499564658E+03 0.  0.
    9000005    1    3    3    0    0 -0.32318157371E+01  0.61728251709E+02 -0.77611918348E+02  0.99224148077E+02  0.10000000000E+01 0.  0.
    9000005    1    3    3    0    0  0.32318157371E+01 -0.61728251709E+02 -0.51259515181E+02  0.80307904894E+02  0.10000000000E+01 0.  0.
<mgrwt>
<rscale>  0 0.12499565E+03</rscale>
<asrwt>0</asrwt>
<pdfrwt beam="2">  1        4 0.23723345E-01 0.12499565E+03</pdfrwt>
<pdfrwt beam="1">  1       -4 0.38969708E-02 0.12499565E+03</pdfrwt>
<totfact> 0.93710451E+03</totfact>
</mgrwt>
</event>
<event>
 5    1  0.3272646E-002  0.1249982E+03  0.7818608E-02  0.1235072E+00
         -4   -1    0    0    0  501 -0.00000000000E+00  0.00000000000E+00  0.60091318564E+02  0.60104737474E+02  0.12700000000E+01 0. -1.
          4   -1    0    0  501    0  0.00000000000E+00 -0.00000000000E+00 -0.64976494370E+02  0.64988904596E+02  0.12700000000E+01 0. -1.
         25    2    1    2    0    0  0.00000000000E+00  0.00000000000E+00 -0.48851758060E+01  0.12509364207E+03  0.12499821736E+03 0.  0.
    9000005    1    3    3    0    0 -0.25203881159E+02  0.83103703801E+01 -0.59061751340E+02  0.64757921158E+02  0.10000000000E+01 0.  0.
    9000005    1    3    3    0    0  0.25203881159E+02 -0.83103703801E+01  0.54176575534E+02  0.60335720912E+02  0.10000000000E+01 0.  0.
<mgrwt>
<rscale>  0 0.12499822E+03</rscale>
<asrwt>0</asrwt>
<pdfrwt beam="2">  1        4 0.99983706E-02 0.12499822E+03</pdfrwt>
<pdfrwt beam="1">  1       -4 0.92468051E-02 0.12499822E+03</pdfrwt>
<totfact> 0.10451250E+04</totfact>
</mgrwt>
</event>
<event>
 5    1  0.3272646E-002  0.1249538E+03  0.7818608E-02  0.1235142E+00
         -4   -1    0    0    0  501 -0.00000000000E+00  0.00000000000E+00  0.13197572060E+02  0.13258537185E+02  0.12700000000E+01 0. -1.
          4   -1    0    0  501    0  0.00000000000E+00 -0.00000000000E+00 -0.29501978694E+03  0.29502252047E+03  0.12700000000E+01 0. -1.
         25    2    1    2    0    0  0.00000000000E+00  0.00000000000E+00 -0.28182221488E+03  0.30828105766E+03  0.12495379030E+03 0.  0.
    9000005    1    3    3    0    0  0.29049739811E+02 -0.71297041727E+01 -0.56071489698E+01  0.30449305152E+02  0.10000000000E+01 0.  0.
    9000005    1    3    3    0    0 -0.29049739811E+02  0.71297041727E+01 -0.27621506591E+03  0.27783175251E+03  0.10000000000E+01 0.  0.
<mgrwt>
<rscale>  0 0.12495379E+03</rscale>
<asrwt>0</asrwt>
<pdfrwt beam="2">  1        4 0.45392554E-01 0.12495379E+03</pdfrwt>
<pdfrwt beam="1">  1       -4 0.20352958E-02 0.12495379E+03</pdfrwt>
<totfact> 0.74648193E+03</totfact>
</mgrwt>
</event>
<event>
 5    1  0.3272646E-002  0.1249999E+03  0.7818608E-02  0.1235070E+00
         -4   -1    0    0    0  501 -0.00000000000E+00  0.00000000000E+00  0.38659736709E+02  0.38680591289E+02  0.12700000000E+01 0. -1.
          4   -1    0    0  501    0  0.00000000000E+00 -0.00000000000E+00 -0.10098948249E+03  0.10099746766E+03  0.12700000000E+01 0. -1.
         25    2    1    2    0    0  0.00000000000E+00  0.00000000000E+00 -0.62329745780E+02  0.13967805895E+03  0.12499985177E+03 0.  0.
    9000005    1    3    3    0    0  0.37183318157E+02 -0.54768982104E+01 -0.86953917449E+02  0.94734256332E+02  0.10000000000E+01 0.  0.
    9000005    1    3    3    0    0 -0.37183318157E+02  0.54768982104E+01  0.24624171669E+02  0.44943802615E+02  0.10000000000E+01 0.  0.
<mgrwt>
<rscale>  0 0.12499985E+03</rscale>
<asrwt>0</asrwt>
<pdfrwt beam="2">  1        4 0.15539062E-01 0.12499985E+03</pdfrwt>
<pdfrwt beam="1">  1       -4 0.59498703E-02 0.12499985E+03</pdfrwt>
<totfact> 0.10140296E+04</totfact>
</mgrwt>
</event>
<event>
 5    1  0.3272646E-002  0.1250003E+03  0.7818608E-02  0.1235069E+00
          4   -1    0    0  501    0  0.00000000000E+00  0.00000000000E+00  0.20319262124E+02  0.20358912379E+02  0.12700000000E+01 0. -1.
         -4   -1    0    0    0  501 -0.00000000000E+00 -0.00000000000E+00 -0.19201540095E+03  0.19201960083E+03  0.12700000000E+01 0. -1.
         25    2    1    2    0    0  0.00000000000E+00  0.00000000000E+00 -0.17169613883E+03  0.21237851321E+03  0.12500027514E+03 0.  0.
    9000005    1    3    3    0    0 -0.48428928754E+02  0.35513098328E+02 -0.56482660792E+02  0.82448967630E+02  0.10000000000E+01 0.  0.
    9000005    1    3    3    0    0  0.48428928754E+02 -0.35513098328E+02 -0.11521347803E+03  0.12992954558E+03  0.10000000000E+01 0.  0.
<mgrwt>
<rscale>  0 0.12500028E+03</rscale>
<asrwt>0</asrwt>
<pdfrwt beam="1">  1        4 0.31294136E-02 0.12500028E+03</pdfrwt>
<pdfrwt beam="2">  1       -4 0.29544203E-01 0.12500028E+03</pdfrwt>
<totfact> 0.88088365E+03</totfact>
</mgrwt>
</event>
<event>
 5    1  0.3272646E-002  0.1250024E+03  0.7818608E-02  0.1235065E+00
         -4   -1    0    0    0  501 -0.00000000000E+00  0.00000000000E+00  0.38149589887E+02  0.38170723187E+02  0.12700000000E+01 0. -1.
          4   -1    0    0  501    0  0.00000000000E+00 -0.00000000000E+00 -0.10234354938E+03  0.10235142890E+03  0.12700000000E+01 0. -1.
         25    2    1    2    0    0  0.00000000000E+00  0.00000000000E+00 -0.64193959488E+02  0.14052215209E+03  0.12500244315E+03 0.  0.
    9000005    1    3    3    0    0 -0.43085456013E+02  0.26550505552E+02 -0.73310983008E+02  0.89088641782E+02  0.10000000000E+01 0.  0.
    9000005    1    3    3    0    0  0.43085456013E+02 -0.26550505552E+02  0.91170235202E+01  0.51433510309E+02  0.10000000000E+01 0.  0.
<mgrwt>
<rscale>  0 0.12500244E+03</rscale>
<asrwt>0</asrwt>
<pdfrwt beam="2">  1        4 0.15747393E-01 0.12500244E+03</pdfrwt>
<pdfrwt beam="1">  1       -4 0.58713995E-02 0.12500244E+03</pdfrwt>
<totfact> 0.10122218E+04</totfact>
</mgrwt>
</event>
<event>
 5    1  0.3272646E-002  0.1249981E+03  0.7818608E-02  0.1235072E+00
         -4   -1    0    0    0  501 -0.00000000000E+00  0.00000000000E+00  0.13724356700E+03  0.13724944292E+03  0.12700000000E+01 0. -1.
          4   -1    0    0  501    0  0.00000000000E+00 -0.00000000000E+00 -0.28440643897E+02  0.28468985322E+02  0.12700000000E+01 0. -1.
         25    2    1    2    0    0  0.00000000000E+00  0.00000000000E+00  0.10880292310E+03  0.16571842824E+03  0.12499808552E+03 0.  0.
    9000005    1    3    3    0    0  0.29316462484E+02 -0.11061988021E+02 -0.17279647560E+02  0.35796770404E+02  0.10000000000E+01 0.  0.
    9000005    1    3    3    0    0 -0.29316462484E+02  0.11061988021E+02  0.12608257066E+03  0.12992165784E+03  0.10000000000E+01 0.  0.
<mgrwt>
<rscale>  0 0.12499809E+03</rscale>
<asrwt>0</asrwt>
<pdfrwt beam="2">  1        4 0.43781158E-02 0.12499809E+03</pdfrwt>
<pdfrwt beam="1">  1       -4 0.21117027E-01 0.12499809E+03</pdfrwt>
<totfact> 0.96255645E+03</totfact>
</mgrwt>
</event>
<event>
 5    1  0.3272646E-002  0.1249997E+03  0.7818608E-02  0.1235070E+00
          4   -1    0    0  501    0  0.00000000000E+00  0.00000000000E+00  0.29649177817E+03  0.29649449813E+03  0.12700000000E+01 0.  1.
         -4   -1    0    0    0  501 -0.00000000000E+00 -0.00000000000E+00 -0.13141444626E+02  0.13202668929E+02  0.12700000000E+01 0.  1.
         25    2    1    2    0    0  0.00000000000E+00  0.00000000000E+00  0.28335033354E+03  0.30969716706E+03  0.12499969506E+03 0.  0.
    9000005    1    3    3    0    0 -0.18823816091E+02 -0.56053511725E+02  0.19177498506E+03  0.20068626541E+03  0.10000000000E+01 0.  0.
    9000005    1    3    3    0    0  0.18823816091E+02  0.56053511725E+02  0.91575348477E+02  0.10901090165E+03  0.10000000000E+01 0.  0.
<mgrwt>
<rscale>  0 0.12499970E+03</rscale>
<asrwt>0</asrwt>
<pdfrwt beam="1">  1        4 0.45619036E-01 0.12499970E+03</pdfrwt>
<pdfrwt beam="2">  1       -4 0.20266796E-02 0.12499970E+03</pdfrwt>
<totfact> 0.74398828E+03</totfact>
</mgrwt>
</event>
<event>
 5    1  0.3272646E-002  0.1249985E+03  0.7818608E-02  0.1235072E+00
          4   -1    0    0  501    0  0.00000000000E+00  0.00000000000E+00  0.18897036923E+03  0.18897463679E+03  0.12700000000E+01 0. -1.
         -4   -1    0    0    0  501 -0.00000000000E+00 -0.00000000000E+00 -0.20646723352E+02  0.20685745942E+02  0.12700000000E+01 0. -1.
         25    2    1    2    0    0  0.00000000000E+00  0.00000000000E+00  0.16832364588E+03  0.20966038273E+03  0.12499850528E+03 0.  0.
    9000005    1    3    3    0    0 -0.45403691447E+02  0.15895076119E+02  0.15106515190E+03  0.15854282942E+03  0.10000000000E+01 0.  0.
    9000005    1    3    3    0    0  0.45403691447E+02 -0.15895076119E+02  0.17258493984E+02  0.51117553310E+02  0.10000000000E+01 0.  0.
<mgrwt>
<rscale>  0 0.12499851E+03</rscale>
<asrwt>0</asrwt>
<pdfrwt beam="1">  1        4 0.29075694E-01 0.12499851E+03</pdfrwt>
<pdfrwt beam="2">  1       -4 0.31797490E-02 0.12499851E+03</pdfrwt>
<totfact> 0.88534333E+03</totfact>
</mgrwt>
</event>
<event>
 5    1  0.3272646E-002  0.1250015E+03  0.7818608E-02  0.1235067E+00
          4   -1    0    0  501    0  0.00000000000E+00  0.00000000000E+00  0.27045651275E+02  0.27075452958E+02  0.12700000000E+01 0. -1.
         -4   -1    0    0    0  501 -0.00000000000E+00 -0.00000000000E+00 -0.14432306352E+03  0.14432865122E+03  0.12700000000E+01 0. -1.
         25    2    1    2    0    0  0.00000000000E+00  0.00000000000E+00 -0.11727741224E+03  0.17140410418E+03  0.12500150202E+03 0.  0.
    9000005    1    3    3    0    0 -0.40327931162E+01  0.43664119719E+02  0.24154640695E+01  0.43927818497E+02  0.10000000000E+01 0.  0.
    9000005    1    3    3    0    0  0.40327931162E+01 -0.43664119719E+02 -0.11969287631E+03  0.12747628568E+03  0.10000000000E+01 0.  0.
<mgrwt>
<rscale>  0 0.12500150E+03</rscale>
<asrwt>0</asrwt>
<pdfrwt beam="1">  1        4 0.41635918E-02 0.12500150E+03</pdfrwt>
<pdfrwt beam="2">  1       -4 0.22206270E-01 0.12500150E+03</pdfrwt>
<totfact> 0.95184368E+03</totfact>
</mgrwt>
</event>
<event>
 5    1  0.3272646E-002  0.1250010E+03  0.7818608E-02  0.1235068E+00
         -4   -1    0    0    0  501 -0.00000000000E+00  0.00000000000E+00  0.29658563346E+01  0.32263297719E+01  0.12700000000E+01 0. -1.
          4   -1    0    0  501    0  0.00000000000E+00 -0.00000000000E+00 -0.12614297227E+04  0.12614303620E+04  0.12700000000E+01 0. -1.
         25    2    1    2    0    0  0.00000000000E+00  0.00000000000E+00 -0.12584638664E+04  0.12646566918E+04  0.12500098052E+03 0.  0.
    9000005    1    3    3    0    0  0.12222581568E+02 -0.50260223774E+02 -0.98403038264E+03  0.98538940301E+03  0.10000000000E+01 0.  0.
    9000005    1    3    3    0    0 -0.12222581568E+02  0.50260223774E+02 -0.27443348372E+03  0.27926728878E+03  0.10000000000E+01 0.  0.
<mgrwt>
<rscale>  0 0.12500098E+03</rscale>
<asrwt>0</asrwt>
<pdfrwt beam="2">  1        4 0.19408579E+00 0.12500098E+03</pdfrwt>
<pdfrwt beam="1">  1       -4 0.47637219E-03 0.12500098E+03</pdfrwt>
<totfact> 0.23077924E+03</totfact>
</mgrwt>
</event>
<event>
 5    1  0.3272646E-002  0.1250010E+03  0.7818608E-02  0.1235068E+00
          4   -1    0    0  501    0  0.00000000000E+00  0.00000000000E+00  0.70971414855E+01  0.72098763697E+01  0.12700000000E+01 0. -1.
         -4   -1    0    0    0  501 -0.00000000000E+00 -0.00000000000E+00 -0.54595602577E+03  0.54595750290E+03  0.12700000000E+01 0. -1.
         25    2    1    2    0    0  0.00000000000E+00  0.00000000000E+00 -0.53885888428E+03  0.55316737927E+03  0.12500100927E+03 0.  0.
    9000005    1    3    3    0    0 -0.24648047603E+02  0.55498650873E+02 -0.33472127650E+03  0.34018665382E+03  0.10000000000E+01 0.  0.
    9000005    1    3    3    0    0  0.24648047603E+02 -0.55498650873E+02 -0.20413760778E+03  0.21298072545E+03  0.10000000000E+01 0.  0.
<mgrwt>
<rscale>  0 0.12500101E+03</rscale>
<asrwt>0</asrwt>
<pdfrwt beam="1">  1        4 0.11006539E-02 0.12500101E+03</pdfrwt>
<pdfrwt beam="2">  1       -4 0.84001988E-01 0.12500101E+03</pdfrwt>
<totfact> 0.51962735E+03</totfact>
</mgrwt>
</event>
<event>
 5    1  0.3272646E-002  0.1250017E+03  0.7818608E-02  0.1235067E+00
          4   -1    0    0  501    0  0.00000000000E+00  0.00000000000E+00  0.26128807788E+04  0.26128810874E+04  0.12700000000E+01 0.  1.
         -4   -1    0    0    0  501 -0.00000000000E+00 -0.00000000000E+00 -0.12249638381E+01  0.17644932430E+01  0.12700000000E+01 0.  1.
         25    2    1    2    0    0  0.00000000000E+00  0.00000000000E+00  0.26116558149E+04  0.26146455806E+04  0.12500166711E+03 0.  0.
    9000005    1    3    3    0    0 -0.56949041524E+02  0.60704480856E+01  0.18288799375E+04  0.18297767267E+04  0.10000000000E+01 0.  0.
    9000005    1    3    3    0    0  0.56949041524E+02 -0.60704480856E+01  0.78277587739E+03  0.78486885394E+03  0.10000000000E+01 0.  0.
<mgrwt>
<rscale>  0 0.12500167E+03</rscale>
<asrwt>0</asrwt>
<pdfrwt beam="1">  1        4 0.40202009E+00 0.12500167E+03</pdfrwt>
<pdfrwt beam="2">  1       -4 0.22998375E-03 0.12500167E+03</pdfrwt>
<totfact> 0.38299572E+02</totfact>
</mgrwt>
</event>
<event>
 5    1  0.3272646E-002  0.1250009E+03  0.7818608E-02  0.1235068E+00
         -4   -1    0    0    0  501 -0.00000000000E+00  0.00000000000E+00  0.24365597753E+02  0.24398673199E+02  0.12700000000E+01 0. -1.
          4   -1    0    0  501    0  0.00000000000E+00 -0.00000000000E+00 -0.16017614760E+03  0.16018118229E+03  0.12700000000E+01 0. -1.
         25    2    1    2    0    0  0.00000000000E+00  0.00000000000E+00 -0.13581054984E+03  0.18457985549E+03  0.12500087041E+03 0.  0.
    9000005    1    3    3    0    0  0.53769230452E+02  0.29761423004E+02 -0.51170964677E+02  0.79977122158E+02  0.10000000000E+01 0.  0.
    9000005    1    3    3    0    0 -0.53769230452E+02 -0.29761423004E+02 -0.84639585166E+02  0.10460273333E+03  0.10000000000E+01 0.  0.
<mgrwt>
<rscale>  0 0.12500087E+03</rscale>
<asrwt>0</asrwt>
<pdfrwt beam="2">  1        4 0.24645415E-01 0.12500087E+03</pdfrwt>
<pdfrwt beam="1">  1       -4 0.37514852E-02 0.12500087E+03</pdfrwt>
<totfact> 0.92797240E+03</totfact>
</mgrwt>
</event>
<event>
 5    1  0.3272646E-002  0.1249988E+03  0.7818608E-02  0.1235071E+00
          4   -1    0    0  501    0  0.00000000000E+00  0.00000000000E+00  0.42444848685E+02  0.42463844385E+02  0.12700000000E+01 0. -1.
         -4   -1    0    0    0  501 -0.00000000000E+00 -0.00000000000E+00 -0.91985506622E+02  0.91994273346E+02  0.12700000000E+01 0. -1.
         25    2    1    2    0    0  0.00000000000E+00  0.00000000000E+00 -0.49540657937E+02  0.13445811773E+03  0.12499883453E+03 0.  0.
    9000005    1    3    3    0    0 -0.36650164377E+02 -0.43509231190E+02  0.30497413893E+01  0.56978844058E+02  0.10000000000E+01 0.  0.
    9000005    1    3    3    0    0  0.36650164377E+02  0.43509231190E+02 -0.52590399326E+02  0.77479273673E+02  0.10000000000E+01 0.  0.
<mgrwt>
<rscale>  0 0.12499883E+03</rscale>
<asrwt>0</asrwt>
<pdfrwt beam="1">  1        4 0.65321123E-02 0.12499883E+03</pdfrwt>
<pdfrwt beam="2">  1       -4 0.14153752E-01 0.12499883E+03</pdfrwt>
<totfact> 0.10249774E+04</totfact>
</mgrwt>
</event>
<event>
 5    1  0.3272646E-002  0.1249970E+03  0.7818608E-02  0.1235074E+00
         -4   -1    0    0    0  501 -0.00000000000E+00  0.00000000000E+00  0.17417465217E+03  0.17417928223E+03  0.12700000000E+01 0. -1.
          4   -1    0    0  501    0  0.00000000000E+00 -0.00000000000E+00 -0.22403230202E+02  0.22439198370E+02  0.12700000000E+01 0. -1.
         25    2    1    2    0    0  0.00000000000E+00  0.00000000000E+00  0.15177142196E+03  0.19661848060E+03  0.12499704951E+03 0.  0.
    9000005    1    3    3    0    0 -0.31130916415E+02 -0.53431782612E+02  0.90040499851E+02  0.10923543822E+03  0.10000000000E+01 0.  0.
    9000005    1    3    3    0    0  0.31130916415E+02  0.53431782612E+02  0.61730922113E+02  0.87383042376E+02  0.10000000000E+01 0.  0.
<mgrwt>
<rscale>  0 0.12499705E+03</rscale>
<asrwt>0</asrwt>
<pdfrwt beam="2">  1        4 0.34497737E-02 0.12499705E+03</pdfrwt>
<pdfrwt beam="1">  1       -4 0.26799223E-01 0.12499705E+03</pdfrwt>
<totfact> 0.90714293E+03</totfact>
</mgrwt>
</event>
<event>
 5    1  0.3272646E-002  0.1250015E+03  0.7818608E-02  0.1235067E+00
          4   -1    0    0  501    0  0.00000000000E+00  0.00000000000E+00  0.48717478589E+02  0.48734029385E+02  0.12700000000E+01 0.  1.
         -4   -1    0    0    0  501 -0.00000000000E+00 -0.00000000000E+00 -0.80148438297E+02  0.80158499621E+02  0.12700000000E+01 0.  1.
         25    2    1    2    0    0  0.00000000000E+00  0.00000000000E+00 -0.31430959708E+02  0.12889252901E+03  0.12500151521E+03 0.  0.
    9000005    1    3    3    0    0  0.49107445756E+01  0.87298911798E+01  0.47889459375E+02  0.48935945189E+02  0.10000000000E+01 0.  0.
    9000005    1    3    3    0    0 -0.49107445756E+01 -0.87298911798E+01 -0.79320419082E+02  0.79956583817E+02  0.10000000000E+01 0.  0.
<mgrwt>
<rscale>  0 0.12500152E+03</rscale>
<asrwt>0</asrwt>
<pdfrwt beam="1">  1        4 0.74970438E-02 0.12500152E+03</pdfrwt>
<pdfrwt beam="2">  1       -4 0.12332576E-01 0.12500152E+03</pdfrwt>
<totfact> 0.10367902E+04</totfact>
</mgrwt>
</event>
<event>
 5    1  0.3272646E-002  0.1249885E+03  0.7818608E-02  0.1235087E+00
          4   -1    0    0  501    0  0.00000000000E+00  0.00000000000E+00  0.20899754497E+02  0.20938305519E+02  0.12700000000E+01 0. -1.
         -4   -1    0    0    0  501 -0.00000000000E+00 -0.00000000000E+00 -0.18665674831E+03  0.18666106876E+03  0.12700000000E+01 0. -1.
         25    2    1    2    0    0  0.00000000000E+00  0.00000000000E+00 -0.16575699381E+03  0.20759937428E+03  0.12498847628E+03 0.  0.
    9000005    1    3    3    0    0  0.20947868574E+02 -0.43456811267E+02 -0.16915177624E+02  0.51131505722E+02  0.10000000000E+01 0.  0.
    9000005    1    3    3    0    0 -0.20947868574E+02  0.43456811267E+02 -0.14884181619E+03  0.15646786855E+03  0.10000000000E+01 0.  0.
<mgrwt>
<rscale>  0 0.12498848E+03</rscale>
<asrwt>0</asrwt>
<pdfrwt beam="1">  1        4 0.32186448E-02 0.12498848E+03</pdfrwt>
<pdfrwt beam="2">  1       -4 0.28719720E-01 0.12498848E+03</pdfrwt>
<totfact> 0.88892346E+03</totfact>
</mgrwt>
</event>
<event>
 5    1  0.3272646E-002  0.1250006E+03  0.7818608E-02  0.1235068E+00
         -4   -1    0    0    0  501 -0.00000000000E+00  0.00000000000E+00  0.28018945974E+02  0.28047713516E+02  0.12700000000E+01 0.  1.
          4   -1    0    0  501    0  0.00000000000E+00 -0.00000000000E+00 -0.13931278271E+03  0.13931857136E+03  0.12700000000E+01 0.  1.
         25    2    1    2    0    0  0.00000000000E+00  0.00000000000E+00 -0.11129383673E+03  0.16736628487E+03  0.12500062087E+03 0.  0.
    9000005    1    3    3    0    0 -0.72743534030E+01  0.61353064854E+02 -0.43074288597E+02  0.75322699915E+02  0.10000000000E+01 0.  0.
    9000005    1    3    3    0    0  0.72743534030E+01 -0.61353064854E+02 -0.68219548135E+02  0.92043584959E+02  0.10000000000E+01 0.  0.
<mgrwt>
<rscale>  0 0.12500062E+03</rscale>
<asrwt>0</asrwt>
<pdfrwt beam="2">  1        4 0.21435394E-01 0.12500062E+03</pdfrwt>
<pdfrwt beam="1">  1       -4 0.43132653E-02 0.12500062E+03</pdfrwt>
<totfact> 0.95939785E+03</totfact>
</mgrwt>
</event>
<event>
 5    1  0.3272646E-002  0.1249996E+03  0.7818608E-02  0.1235070E+00
          4   -1    0    0  501    0  0.00000000000E+00  0.00000000000E+00  0.17340268017E+03  0.17340733085E+03  0.12700000000E+01 0.  1.
         -4   -1    0    0    0  501 -0.00000000000E+00 -0.00000000000E+00 -0.22504028453E+02  0.22539835772E+02  0.12700000000E+01 0.  1.
         25    2    1    2    0    0  0.00000000000E+00  0.00000000000E+00  0.15089865172E+03  0.19594716662E+03  0.12499955606E+03 0.  0.
    9000005    1    3    3    0    0 -0.56093575186E+02  0.25084869590E+02  0.57611748155E+02  0.84236888504E+02  0.10000000000E+01 0.  0.
    9000005    1    3    3    0    0  0.56093575186E+02 -0.25084869590E+02  0.93286903565E+02  0.11171027811E+03  0.10000000000E+01 0.  0.
<mgrwt>
<rscale>  0 0.12499956E+03</rscale>
<asrwt>0</asrwt>
<pdfrwt beam="1">  1        4 0.26680448E-01 0.12499956E+03</pdfrwt>
<pdfrwt beam="2">  1       -4 0.34652703E-02 0.12499956E+03</pdfrwt>
<totfact> 0.90823602E+03</totfact>
</mgrwt>
</event>
<event>
 5    1  0.3272646E-002  0.1249989E+03  0.7818608E-02  0.1235071E+00
          4   -1    0    0  501    0  0.00000000000E+00  0.00000000000E+00  0.33601640275E+02  0.33625632026E+02  0.12700000000E+01 0.  1.
         -4   -1    0    0    0  501 -0.00000000000E+00 -0.00000000000E+00 -0.11618071597E+03  0.11618765710E+03  0.12700000000E+01 0.  1.
         25    2    1    2    0    0  0.00000000000E+00  0.00000000000E+00 -0.82579075693E+02  0.14981328913E+03  0.12499887142E+03 0.  0.
    9000005    1    3    3    0    0 -0.26308220365E+02  0.19031483960E+01 -0.10918778166E+03  0.11233305879E+03  0.10000000000E+01 0.  0.
    9000005    1    3    3    0    0  0.26308220365E+02 -0.19031483960E+01  0.26608705972E+02  0.37480230336E+02  0.10000000000E+01 0.  0.
<mgrwt>
<rscale>  0 0.12499887E+03</rscale>
<asrwt>0</asrwt>
<pdfrwt beam="1">  1        4 0.51718626E-02 0.12499887E+03</pdfrwt>
<pdfrwt beam="2">  1       -4 0.17876336E-01 0.12499887E+03</pdfrwt>
<totfact> 0.99343452E+03</totfact>
</mgrwt>
</event>
<event>
 5    1  0.3272646E-002  0.1250017E+03  0.7818608E-02  0.1235067E+00
          4   -1    0    0  501    0  0.00000000000E+00  0.00000000000E+00  0.79560967518E+03  0.79561068881E+03  0.12700000000E+01 0. -1.
         -4   -1    0    0    0  501 -0.00000000000E+00 -0.00000000000E+00 -0.48267282160E+01  0.49910124495E+01  0.12700000000E+01 0. -1.
         25    2    1    2    0    0  0.00000000000E+00  0.00000000000E+00  0.79078294697E+03  0.80060170126E+03  0.12500165936E+03 0.  0.
    9000005    1    3    3    0    0  0.97740888210E+00 -0.51751910300E+02  0.61966108736E+03  0.62181997293E+03  0.10000000000E+01 0.  0.
    9000005    1    3    3    0    0 -0.97740888210E+00  0.51751910300E+02  0.17112185961E+03  0.17878172833E+03  0.10000000000E+01 0.  0.
<mgrwt>
<rscale>  0 0.12500166E+03</rscale>
<asrwt>0</asrwt>
<pdfrwt beam="1">  1        4 0.12241422E+00 0.12500166E+03</pdfrwt>
<pdfrwt beam="2">  1       -4 0.75528868E-03 0.12500166E+03</pdfrwt>
<totfact> 0.38236485E+03</totfact>
</mgrwt>
</event>
<event>
 5    1  0.3272646E-002  0.1250013E+03  0.7818608E-02  0.1235067E+00
         -4   -1    0    0    0  501 -0.00000000000E+00  0.00000000000E+00  0.10262095406E+01  0.16327908688E+01  0.12700000000E+01 0.  1.
          4   -1    0    0  501    0  0.00000000000E+00 -0.00000000000E+00 -0.29375898017E+04  0.29375900762E+04  0.12700000000E+01 0.  1.
         25    2    1    2    0    0  0.00000000000E+00  0.00000000000E+00 -0.29365635922E+04  0.29392228671E+04  0.12500132666E+03 0.  0.
    9000005    1    3    3    0    0 -0.37003618221E+02 -0.42325119109E+02 -0.82663824839E+03  0.82854841571E+03  0.10000000000E+01 0.  0.
    9000005    1    3    3    0    0  0.37003618221E+02  0.42325119109E+02 -0.21099253438E+04  0.21106744514E+04  0.10000000000E+01 0.  0.
<mgrwt>
<rscale>  0 0.12500133E+03</rscale>
<asrwt>0</asrwt>
<pdfrwt beam="2">  1        4 0.45197838E+00 0.12500133E+03</pdfrwt>
<pdfrwt beam="1">  1       -4 0.20456196E-03 0.12500133E+03</pdfrwt>
<totfact> 0.20613839E+02</totfact>
</mgrwt>
</event>
<event>
 5    1  0.3272646E-002  0.1250007E+03  0.7818608E-02  0.1235068E+00
          4   -1    0    0  501    0  0.00000000000E+00  0.00000000000E+00  0.96941393345E+01  0.97769748612E+01  0.12700000000E+01 0. -1.
         -4   -1    0    0    0  501 -0.00000000000E+00 -0.00000000000E+00 -0.40115584303E+03  0.40115785334E+03  0.12700000000E+01 0. -1.
         25    2    1    2    0    0  0.00000000000E+00  0.00000000000E+00 -0.39146170369E+03  0.41093482820E+03  0.12500067028E+03 0.  0.
    9000005    1    3    3    0    0 -0.55399000423E+00 -0.16736376867E+02  0.21971985266E+01  0.16918655293E+02  0.10000000000E+01 0.  0.
    9000005    1    3    3    0    0  0.55399000423E+00  0.16736376867E+02 -0.39365890222E+03  0.39401617291E+03  0.10000000000E+01 0.  0.
<mgrwt>
<rscale>  0 0.12500067E+03</rscale>
<asrwt>0</asrwt>
<pdfrwt beam="1">  1        4 0.14979330E-02 0.12500067E+03</pdfrwt>
<pdfrwt beam="2">  1       -4 0.61722797E-01 0.12500067E+03</pdfrwt>
<totfact> 0.63502063E+03</totfact>
</mgrwt>
</event>
<event>
 5    1  0.3272646E-002  0.1249990E+03  0.7818608E-02  0.1235071E+00
         -4   -1    0    0    0  501 -0.00000000000E+00  0.00000000000E+00  0.15913574309E+02  0.15964170736E+02  0.12700000000E+01 0.  1.
          4   -1    0    0  501    0  0.00000000000E+00 -0.00000000000E+00 -0.24502067439E+03  0.24502396572E+03  0.12700000000E+01 0.  1.
         25    2    1    2    0    0  0.00000000000E+00  0.00000000000E+00 -0.22910710008E+03  0.26098813646E+03  0.12499897625E+03 0.  0.
    9000005    1    3    3    0    0 -0.15180864541E+00 -0.61929332608E+02 -0.13201246689E+03  0.14582028904E+03  0.10000000000E+01 0.  0.
    9000005    1    3    3    0    0  0.15180864541E+00  0.61929332608E+02 -0.97094633192E+02  0.11516784741E+03  0.10000000000E+01 0.  0.
<mgrwt>
<rscale>  0 0.12499898E+03</rscale>
<asrwt>0</asrwt>
<pdfrwt beam="2">  1        4 0.37699631E-01 0.12499898E+03</pdfrwt>
<pdfrwt beam="1">  1       -4 0.24523876E-02 0.12499898E+03</pdfrwt>
<totfact> 0.80769431E+03</totfact>
</mgrwt>
</event>
<event>
 5    1  0.3272646E-002  0.1249993E+03  0.7818608E-02  0.1235070E+00
          4   -1    0    0  501    0  0.00000000000E+00  0.00000000000E+00  0.32139965883E+03  0.32140216800E+03  0.12700000000E+01 0.  1.
         -4   -1    0    0    0  501 -0.00000000000E+00 -0.00000000000E+00 -0.12117986202E+02  0.12184354295E+02  0.12700000000E+01 0.  1.
         25    2    1    2    0    0  0.00000000000E+00  0.00000000000E+00  0.30928167263E+03  0.33358652230E+03  0.12499925934E+03 0.  0.
    9000005    1    3    3    0    0  0.44439315261E+02  0.36538370879E+02  0.89527728952E+02  0.10642424319E+03  0.10000000000E+01 0.  0.
    9000005    1    3    3    0    0 -0.44439315261E+02 -0.36538370879E+02  0.21975394368E+03  0.22716227911E+03  0.10000000000E+01 0.  0.
<mgrwt>
<rscale>  0 0.12499926E+03</rscale>
<asrwt>0</asrwt>
<pdfrwt beam="1">  1        4 0.49451402E-01 0.12499926E+03</pdfrwt>
<pdfrwt beam="2">  1       -4 0.18696037E-02 0.12499926E+03</pdfrwt>
<totfact> 0.71569974E+03</totfact>
</mgrwt>
</event>
<event>
 5    1  0.3272646E-002  0.1249983E+03  0.7818608E-02  0.1235072E+00
          4   -1    0    0  501    0  0.00000000000E+00  0.00000000000E+00  0.18122258500E+02  0.18166704521E+02  0.12700000000E+01 0. -1.
         -4   -1    0    0    0  501 -0.00000000000E+00 -0.00000000000E+00 -0.21523356879E+03  0.21523731562E+03  0.12700000000E+01 0. -1.
         25    2    1    2    0    0  0.00000000000E+00  0.00000000000E+00 -0.19711131029E+03  0.23340402014E+03  0.12499827188E+03 0.  0.
    9000005    1    3    3    0    0  0.47751727580E+02  0.39273157402E+02 -0.81591987549E+02  0.10237607539E+03  0.10000000000E+01 0.  0.
    9000005    1    3    3    0    0 -0.47751727580E+02 -0.39273157402E+02 -0.11551932274E+03  0.13102794475E+03  0.10000000000E+01 0.  0.
<mgrwt>
<rscale>  0 0.12499827E+03</rscale>
<asrwt>0</asrwt>
<pdfrwt beam="1">  1        4 0.27917471E-02 0.12499827E+03</pdfrwt>
<pdfrwt beam="2">  1       -4 0.33116562E-01 0.12499827E+03</pdfrwt>
<totfact> 0.84792902E+03</totfact>
</mgrwt>
</event>
<event>
 5    1  0.3272646E-002  0.1250047E+03  0.7818608E-02  0.1235062E+00
          4   -1    0    0  501    0  0.00000000000E+00  0.00000000000E+00  0.12539343875E+02  0.12603493358E+02  0.12700000000E+01 0. -1.
         -4   -1    0    0    0  501 -0.00000000000E+00 -0.00000000000E+00 -0.31068261976E+03  0.31068521549E+03  0.12700000000E+01 0. -1.
         25    2    1    2    0    0  0.00000000000E+00  0.00000000000E+00 -0.29814327589E+03  0.32328870884E+03  0.12500470515E+03 0.  0.
    9000005    1    3    3    0    0 -0.23467954465E+02  0.52016872523E+02 -0.83184400104E+02  0.10088183352E+03  0.10000000000E+01 0.  0.
    9000005    1    3    3    0    0  0.23467954465E+02 -0.52016872523E+02 -0.21495887578E+03  0.22240687532E+03  0.10000000000E+01 0.  0.
<mgrwt>
<rscale>  0 0.12500471E+03</rscale>
<asrwt>0</asrwt>
<pdfrwt beam="1">  1        4 0.19342643E-02 0.12500471E+03</pdfrwt>
<pdfrwt beam="2">  1       -4 0.47802454E-01 0.12500471E+03</pdfrwt>
<totfact> 0.72759092E+03</totfact>
</mgrwt>
</event>
<event>
 5    1  0.3272646E-002  0.1250035E+03  0.7818608E-02  0.1235064E+00
          4   -1    0    0  501    0  0.00000000000E+00  0.00000000000E+00  0.96134318585E+02  0.96142707003E+02  0.12700000000E+01 0. -1.
         -4   -1    0    0    0  501 -0.00000000000E+00 -0.00000000000E+00 -0.40615456237E+02  0.40635307128E+02  0.12700000000E+01 0. -1.
         25    2    1    2    0    0  0.00000000000E+00  0.00000000000E+00  0.55518862348E+02  0.13677801413E+03  0.12500352424E+03 0.  0.
    9000005    1    3    3    0    0 -0.45720516620E+02 -0.28086014210E+02 -0.72937196302E+01  0.54160762367E+02  0.10000000000E+01 0.  0.
    9000005    1    3    3    0    0  0.45720516620E+02  0.28086014210E+02  0.62812581978E+02  0.82617251763E+02  0.10000000000E+01 0.  0.
<mgrwt>
<rscale>  0 0.12500352E+03</rscale>
<asrwt>0</asrwt>
<pdfrwt beam="1">  1        4 0.14792067E-01 0.12500352E+03</pdfrwt>
<pdfrwt beam="2">  1       -4 0.62507041E-02 0.12500352E+03</pdfrwt>
<totfact> 0.10199919E+04</totfact>
</mgrwt>
</event>
<event>
 5    1  0.3272646E-002  0.1250113E+03  0.7818608E-02  0.1235052E+00
         -4   -1    0    0    0  501 -0.00000000000E+00  0.00000000000E+00  0.22878476935E+03  0.22878829425E+03  0.12700000000E+01 0. -1.
          4   -1    0    0  501    0  0.00000000000E+00 -0.00000000000E+00 -0.17049715741E+02  0.17096950220E+02  0.12700000000E+01 0. -1.
         25    2    1    2    0    0  0.00000000000E+00  0.00000000000E+00  0.21173505361E+03  0.24588524447E+03  0.12501128158E+03 0.  0.
    9000005    1    3    3    0    0 -0.19928796363E+02  0.37115910640E+02  0.15065380074E+02  0.44751686269E+02  0.10000000000E+01 0.  0.
    9000005    1    3    3    0    0  0.19928796363E+02 -0.37115910640E+02  0.19666967353E+03  0.20113355820E+03  0.10000000000E+01 0.  0.
<mgrwt>
<rscale>  0 0.12501128E+03</rscale>
<asrwt>0</asrwt>
<pdfrwt beam="2">  1        4 0.26269376E-02 0.12501128E+03</pdfrwt>
<pdfrwt beam="1">  1       -4 0.35201563E-01 0.12501128E+03</pdfrwt>
<totfact> 0.82907752E+03</totfact>
</mgrwt>
</event>
<event>
 5    1  0.3272646E-002  0.1250042E+03  0.7818608E-02  0.1235063E+00
          4   -1    0    0  501    0  0.00000000000E+00  0.00000000000E+00  0.17946642490E+03  0.17947091844E+03  0.12700000000E+01 0.  1.
         -4   -1    0    0    0  501 -0.00000000000E+00 -0.00000000000E+00 -0.21744060598E+02  0.21781117311E+02  0.12700000000E+01 0.  1.
         25    2    1    2    0    0  0.00000000000E+00  0.00000000000E+00  0.15772236430E+03  0.20125203576E+03  0.12500415071E+03 0.  0.
    9000005    1    3    3    0    0 -0.43665216739E+02  0.11796299039E+02  0.14828970857E+03  0.15503754865E+03  0.10000000000E+01 0.  0.
    9000005    1    3    3    0    0  0.43665216739E+02 -0.11796299039E+02  0.94326557301E+01  0.46214487101E+02  0.10000000000E+01 0.  0.
<mgrwt>
<rscale>  0 0.12500415E+03</rscale>
<asrwt>0</asrwt>
<pdfrwt beam="1">  1        4 0.27613416E-01 0.12500415E+03</pdfrwt>
<pdfrwt beam="2">  1       -4 0.33484362E-02 0.12500415E+03</pdfrwt>
<totfact> 0.89916417E+03</totfact>
</mgrwt>
</event>
<event>
 5    1  0.3272646E-002  0.1249984E+03  0.7818608E-02  0.1235072E+00
          4   -1    0    0  501    0  0.00000000000E+00  0.00000000000E+00  0.17449172884E+03  0.17449635049E+03  0.12700000000E+01 0.  1.
         -4   -1    0    0    0  501 -0.00000000000E+00 -0.00000000000E+00 -0.22362932012E+02  0.22398964891E+02  0.12700000000E+01 0.  1.
         25    2    1    2    0    0  0.00000000000E+00  0.00000000000E+00  0.15212879683E+03  0.19689531538E+03  0.12499837757E+03 0.  0.
    9000005    1    3    3    0    0  0.58159219710E+02 -0.22596755999E+02  0.81530165186E+02  0.10267071663E+03  0.10000000000E+01 0.  0.
    9000005    1    3    3    0    0 -0.58159219710E+02  0.22596755999E+02  0.70598631642E+02  0.94224598745E+02  0.10000000000E+01 0.  0.
<mgrwt>
<rscale>  0 0.12499838E+03</rscale>
<asrwt>0</asrwt>
<pdfrwt beam="1">  1        4 0.26848008E-01 0.12499838E+03</pdfrwt>
<pdfrwt beam="2">  1       -4 0.34435784E-02 0.12499838E+03</pdfrwt>
<totfact> 0.90664494E+03</totfact>
</mgrwt>
</event>
<event>
 5    1  0.3272646E-002  0.1249983E+03  0.7818608E-02  0.1235072E+00
          4   -1    0    0  501    0  0.00000000000E+00  0.00000000000E+00  0.25600781605E+02  0.25632263240E+02  0.12700000000E+01 0. -1.
         -4   -1    0    0    0  501 -0.00000000000E+00 -0.00000000000E+00 -0.15245130867E+03  0.15245659846E+03  0.12700000000E+01 0. -1.
         25    2    1    2    0    0  0.00000000000E+00  0.00000000000E+00 -0.12685052707E+03  0.17808886170E+03  0.12499834578E+03 0.  0.
    9000005    1    3    3    0    0 -0.33706605554E+02 -0.13588130449E+02 -0.13585387834E+03  0.14063445100E+03  0.10000000000E+01 0.  0.
    9000005    1    3    3    0    0  0.33706605554E+02  0.13588130449E+02  0.90033512780E+01  0.37454410705E+02  0.10000000000E+01 0.  0.
<mgrwt>
<rscale>  0 0.12499835E+03</rscale>
<asrwt>0</asrwt>
<pdfrwt beam="1">  1        4 0.39414104E-02 0.12499835E+03</pdfrwt>
<pdfrwt beam="2">  1       -4 0.23456876E-01 0.12499835E+03</pdfrwt>
<totfact> 0.93965636E+03</totfact>
</mgrwt>
</event>
<event>
 5    1  0.3272646E-002  0.1249983E+03  0.7818608E-02  0.1235072E+00
         -4   -1    0    0    0  501 -0.00000000000E+00  0.00000000000E+00  0.36978445338E+03  0.36978663424E+03  0.12700000000E+01 0.  1.
          4   -1    0    0  501    0  0.00000000000E+00 -0.00000000000E+00 -0.10522903774E+02  0.10599264306E+02  0.12700000000E+01 0.  1.
         25    2    1    2    0    0  0.00000000000E+00  0.00000000000E+00  0.35926154961E+03  0.38038589854E+03  0.12499828313E+03 0.  0.
    9000005    1    3    3    0    0  0.14655900764E+02  0.11103411012E+02 -0.21197448543E+01  0.18535762233E+02  0.10000000000E+01 0.  0.
    9000005    1    3    3    0    0 -0.14655900764E+02 -0.11103411012E+02  0.36138129446E+03  0.36185013631E+03  0.10000000000E+01 0.  0.
<mgrwt>
<rscale>  0 0.12499828E+03</rscale>
<asrwt>0</asrwt>
<pdfrwt beam="2">  1        4 0.16249503E-02 0.12499828E+03</pdfrwt>
<pdfrwt beam="1">  1       -4 0.56895943E-01 0.12499828E+03</pdfrwt>
<totfact> 0.66508726E+03</totfact>
</mgrwt>
</event>
<event>
 5    1  0.3272646E-002  0.1250042E+03  0.7818608E-02  0.1235063E+00
          4   -1    0    0  501    0  0.00000000000E+00  0.00000000000E+00  0.39151985376E+01  0.41160271608E+01  0.12700000000E+01 0.  1.
         -4   -1    0    0    0  501 -0.00000000000E+00 -0.00000000000E+00 -0.97262927148E+03  0.97263010062E+03  0.12700000000E+01 0.  1.
         25    2    1    2    0    0  0.00000000000E+00  0.00000000000E+00 -0.96871407294E+03  0.97674612778E+03  0.12500417203E+03 0.  0.
    9000005    1    3    3    0    0 -0.49321334241E+02  0.38121207319E+02 -0.51902939071E+03  0.52276029773E+03  0.10000000000E+01 0.  0.
    9000005    1    3    3    0    0  0.49321334241E+02 -0.38121207319E+02 -0.44968468223E+03  0.45398583005E+03  0.10000000000E+01 0.  0.
<mgrwt>
<rscale>  0 0.12500417E+03</rscale>
<asrwt>0</asrwt>
<pdfrwt beam="1">  1        4 0.61785115E-03 0.12500417E+03</pdfrwt>
<pdfrwt beam="2">  1       -4 0.14965060E+00 0.12500417E+03</pdfrwt>
<totfact> 0.31382188E+03</totfact>
</mgrwt>
</event>
<event>
 5    1  0.3272646E-002  0.1250014E+03  0.7818608E-02  0.1235067E+00
         -4   -1    0    0    0  501 -0.00000000000E+00  0.00000000000E+00  0.31043553984E+02  0.31069521141E+02  0.12700000000E+01 0. -1.
          4   -1    0    0  501    0  0.00000000000E+00 -0.00000000000E+00 -0.12575239794E+03  0.12575881077E+03  0.12700000000E+01 0. -1.
         25    2    1    2    0    0  0.00000000000E+00  0.00000000000E+00 -0.94708843953E+02  0.15682833191E+03  0.12500144226E+03 0.  0.
    9000005    1    3    3    0    0  0.32390222948E+02 -0.43645959444E+02 -0.86049473049E+02  0.10178216018E+03  0.10000000000E+01 0.  0.
    9000005    1    3    3    0    0 -0.32390222948E+02  0.43645959444E+02 -0.86593709046E+01  0.55046171736E+02  0.10000000000E+01 0.  0.
<mgrwt>
<rscale>  0 0.12500144E+03</rscale>
<asrwt>0</asrwt>
<pdfrwt beam="2">  1        4 0.19349013E-01 0.12500144E+03</pdfrwt>
<pdfrwt beam="1">  1       -4 0.47784222E-02 0.12500144E+03</pdfrwt>
<totfact> 0.97954589E+03</totfact>
</mgrwt>
</event>
<event>
 5    1  0.3272646E-002  0.1250102E+03  0.7818608E-02  0.1235053E+00
         -4   -1    0    0    0  501 -0.00000000000E+00  0.00000000000E+00  0.19537230449E+03  0.19537643221E+03  0.12700000000E+01 0.  1.
          4   -1    0    0  501    0  0.00000000000E+00 -0.00000000000E+00 -0.19972619882E+02  0.20012956927E+02  0.12700000000E+01 0.  1.
         25    2    1    2    0    0  0.00000000000E+00  0.00000000000E+00  0.17539968461E+03  0.21538938913E+03  0.12501015795E+03 0.  0.
    9000005    1    3    3    0    0  0.89735299704E+00  0.53315918236E+02  0.14386176157E+03  0.15342945878E+03  0.10000000000E+01 0.  0.
    9000005    1    3    3    0    0 -0.89735299704E+00 -0.53315918236E+02  0.31537923036E+02  0.61959930352E+02  0.10000000000E+01 0.  0.
<mgrwt>
<rscale>  0 0.12501016E+03</rscale>
<asrwt>0</asrwt>
<pdfrwt beam="2">  1        4 0.30761311E-02 0.12501016E+03</pdfrwt>
<pdfrwt beam="1">  1       -4 0.30060698E-01 0.12501016E+03</pdfrwt>
<totfact> 0.87583335E+03</totfact>
</mgrwt>
</event>
<event>
 5    1  0.3272646E-002  0.1250025E+03  0.7818608E-02  0.1235065E+00
         -4   -1    0    0    0  501 -0.00000000000E+00  0.00000000000E+00  0.43837437808E+02  0.43855830325E+02  0.12700000000E+01 0.  1.
          4   -1    0    0  501    0  0.00000000000E+00 -0.00000000000E+00 -0.89069509744E+02  0.89078563448E+02  0.12700000000E+01 0.  1.
         25    2    1    2    0    0  0.00000000000E+00  0.00000000000E+00 -0.45232071936E+02  0.13293439377E+03  0.12500245084E+03 0.  0.
    9000005    1    3    3    0    0 -0.30579970050E+02  0.24229728128E+02  0.29299586284E+02  0.48802459465E+02  0.10000000000E+01 0.  0.
    9000005    1    3    3    0    0  0.30579970050E+02 -0.24229728128E+02 -0.74531658221E+02  0.84131934309E+02  0.10000000000E+01 0.  0.
<mgrwt>
<rscale>  0 0.12500245E+03</rscale>
<asrwt>0</asrwt>
<pdfrwt beam="2">  1        4 0.13705113E-01 0.12500245E+03</pdfrwt>
<pdfrwt beam="1">  1       -4 0.67463325E-02 0.12500245E+03</pdfrwt>
<totfact> 0.10281226E+04</totfact>
</mgrwt>
</event>
<event>
 5    1  0.3272646E-002  0.1249882E+03  0.7818608E-02  0.1235088E+00
          4   -1    0    0  501    0  0.00000000000E+00  0.00000000000E+00  0.13585107446E+03  0.13585701061E+03  0.12700000000E+01 0. -1.
         -4   -1    0    0    0  501 -0.00000000000E+00 -0.00000000000E+00 -0.28727896698E+02  0.28755955012E+02  0.12700000000E+01 0. -1.
         25    2    1    2    0    0  0.00000000000E+00  0.00000000000E+00  0.10712317776E+03  0.16461296562E+03  0.12498821239E+03 0.  0.
    9000005    1    3    3    0    0 -0.30782260183E+02 -0.44463474954E+02  0.94790351511E+02  0.10913642328E+03  0.10000000000E+01 0.  0.
    9000005    1    3    3    0    0  0.30782260183E+02  0.44463474954E+02  0.12332826253E+02  0.55476542343E+02  0.10000000000E+01 0.  0.
<mgrwt>
<rscale>  0 0.12498821E+03</rscale>
<asrwt>0</asrwt>
<pdfrwt beam="1">  1        4 0.20902780E-01 0.12498821E+03</pdfrwt>
<pdfrwt beam="2">  1       -4 0.44222913E-02 0.12498821E+03</pdfrwt>
<totfact> 0.96486289E+03</totfact>
</mgrwt>
</event>
<event>
 5    1  0.3272646E-002  0.1250024E+03  0.7818608E-02  0.1235066E+00
         -4   -1    0    0    0  501 -0.00000000000E+00  0.00000000000E+00  0.11676591797E+02  0.11745454270E+02  0.12700000000E+01 0. -1.
          4   -1    0    0  501    0  0.00000000000E+00 -0.00000000000E+00 -0.33349597885E+03  0.33349839701E+03  0.12700000000E+01 0. -1.
         25    2    1    2    0    0  0.00000000000E+00  0.00000000000E+00 -0.32181938705E+03  0.34524385128E+03  0.12500239583E+03 0.  0.
    9000005    1    3    3    0    0 -0.31179488030E+01 -0.62390286481E+02 -0.16579621530E+03  0.17717690160E+03  0.10000000000E+01 0.  0.
    9000005    1    3    3    0    0  0.31179488030E+01  0.62390286481E+02 -0.15602317175E+03  0.16806694968E+03  0.10000000000E+01 0.  0.
<mgrwt>
<rscale>  0 0.12500240E+03</rscale>
<asrwt>0</asrwt>
<pdfrwt beam="2">  1        4 0.51312550E-01 0.12500240E+03</pdfrwt>
<pdfrwt beam="1">  1       -4 0.18018821E-02 0.12500240E+03</pdfrwt>
<totfact> 0.70247256E+03</totfact>
</mgrwt>
</event>
<event>
 5    1  0.3272646E-002  0.1250017E+03  0.7818608E-02  0.1235067E+00
          4   -1    0    0  501    0  0.00000000000E+00  0.00000000000E+00  0.44712171455E+03  0.44712351820E+03  0.12700000000E+01 0. -1.
         -4   -1    0    0    0  501 -0.00000000000E+00 -0.00000000000E+00 -0.86886957236E+01  0.87810212035E+01  0.12700000000E+01 0. -1.
         25    2    1    2    0    0  0.00000000000E+00  0.00000000000E+00  0.43843301883E+03  0.45590453940E+03  0.12500174817E+03 0.  0.
    9000005    1    3    3    0    0 -0.39858630694E+02  0.22401094523E+02  0.63842999957E+02  0.78533102066E+02  0.10000000000E+01 0.  0.
    9000005    1    3    3    0    0  0.39858630694E+02 -0.22401094523E+02  0.37459001887E+03  0.37737143734E+03  0.10000000000E+01 0.  0.
<mgrwt>
<rscale>  0 0.12500175E+03</rscale>
<asrwt>0</asrwt>
<pdfrwt beam="1">  1        4 0.68795210E-01 0.12500175E+03</pdfrwt>
<pdfrwt beam="2">  1       -4 0.13439629E-02 0.12500175E+03</pdfrwt>
<totfact> 0.59453379E+03</totfact>
</mgrwt>
</event>
<event>
 5    1  0.3272646E-002  0.1249955E+03  0.7818608E-02  0.1235076E+00
          4   -1    0    0  501    0  0.00000000000E+00  0.00000000000E+00  0.14362929198E+02  0.14418967894E+02  0.12700000000E+01 0. -1.
         -4   -1    0    0    0  501 -0.00000000000E+00 -0.00000000000E+00 -0.27136069684E+03  0.27136366870E+03  0.12700000000E+01 0. -1.
         25    2    1    2    0    0  0.00000000000E+00  0.00000000000E+00 -0.25699776764E+03  0.28578263659E+03  0.12499545114E+03 0.  0.
    9000005    1    3    3    0    0 -0.13050538828E+02  0.49958364940E+02 -0.48027005023E+02  0.70524804166E+02  0.10000000000E+01 0.  0.
    9000005    1    3    3    0    0  0.13050538828E+02 -0.49958364940E+02 -0.20897076262E+03  0.21525783243E+03  0.10000000000E+01 0.  0.
<mgrwt>
<rscale>  0 0.12499545E+03</rscale>
<asrwt>0</asrwt>
<pdfrwt beam="1">  1        4 0.22142209E-02 0.12499545E+03</pdfrwt>
<pdfrwt beam="2">  1       -4 0.41752335E-01 0.12499545E+03</pdfrwt>
<totfact> 0.77425392E+03</totfact>
</mgrwt>
</event>
<event>
 5    1  0.3272646E-002  0.1249956E+03  0.7818608E-02  0.1235076E+00
          4   -1    0    0  501    0  0.00000000000E+00  0.00000000000E+00  0.10092416908E+03  0.10093215942E+03  0.12700000000E+01 0. -1.
         -4   -1    0    0    0  501 -0.00000000000E+00 -0.00000000000E+00 -0.38682143521E+02  0.38702986027E+02  0.12700000000E+01 0. -1.
         25    2    1    2    0    0  0.00000000000E+00  0.00000000000E+00  0.62242025561E+02  0.13963514545E+03  0.12499561631E+03 0.  0.
    9000005    1    3    3    0    0  0.42531126360E+02  0.28059961397E+02 -0.92921627918E+01  0.51803498265E+02  0.10000000000E+01 0.  0.
    9000005    1    3    3    0    0 -0.42531126360E+02 -0.28059961397E+02  0.71534188353E+02  0.87831647181E+02  0.10000000000E+01 0.  0.
<mgrwt>
<rscale>  0 0.12499562E+03</rscale>
<asrwt>0</asrwt>
<pdfrwt beam="1">  1        4 0.15529013E-01 0.12499562E+03</pdfrwt>
<pdfrwt beam="2">  1       -4 0.59533170E-02 0.12499562E+03</pdfrwt>
<totfact> 0.10142155E+04</totfact>
</mgrwt>
</event>
<event>
 5    1  0.3272646E-002  0.1249982E+03  0.7818608E-02  0.1235072E+00
         -4   -1    0    0    0  501 -0.00000000000E+00  0.00000000000E+00  0.13583386982E+02  0.13642628116E+02  0.12700000000E+01 0. -1.
          4   -1    0    0  501    0  0.00000000000E+00 -0.00000000000E+00 -0.28688090463E+03  0.28688371571E+03  0.12700000000E+01 0. -1.
         25    2    1    2    0    0  0.00000000000E+00  0.00000000000E+00 -0.27329751765E+03  0.30052634383E+03  0.12499820072E+03 0.  0.
    9000005    1    3    3    0    0 -0.46352025346E+02  0.36425070594E+02 -0.18649506376E+03  0.19559321263E+03  0.10000000000E+01 0.  0.
    9000005    1    3    3    0    0  0.46352025346E+02 -0.36425070594E+02 -0.86802453891E+02  0.10493313120E+03  0.10000000000E+01 0.  0.
<mgrwt>
<rscale>  0 0.12499820E+03</rscale>
<asrwt>0</asrwt>
<pdfrwt beam="2">  1        4 0.44140292E-01 0.12499820E+03</pdfrwt>
<pdfrwt beam="1">  1       -4 0.20945253E-02 0.12499820E+03</pdfrwt>
<totfact> 0.75535882E+03</totfact>
</mgrwt>
</event>
<event>
 5    1  0.3272646E-002  0.1250011E+03  0.7818608E-02  0.1235068E+00
          4   -1    0    0  501    0  0.00000000000E+00  0.00000000000E+00  0.29279450624E+03  0.29279726055E+03  0.12700000000E+01 0. -1.
         -4   -1    0    0    0  501 -0.00000000000E+00 -0.00000000000E+00 -0.13308452757E+02  0.13368912252E+02  0.12700000000E+01 0. -1.
         25    2    1    2    0    0  0.00000000000E+00  0.00000000000E+00  0.27948605349E+03  0.30616617280E+03  0.12500108510E+03 0.  0.
    9000005    1    3    3    0    0 -0.75204349810E+00 -0.58508914878E+02  0.85999874559E+02  0.10402325276E+03  0.10000000000E+01 0.  0.
    9000005    1    3    3    0    0  0.75204349810E+00  0.58508914878E+02  0.19348617893E+03  0.20214292005E+03  0.10000000000E+01 0.  0.
<mgrwt>
<rscale>  0 0.12500109E+03</rscale>
<asrwt>0</asrwt>
<pdfrwt beam="1">  1        4 0.45050169E-01 0.12500109E+03</pdfrwt>
<pdfrwt beam="2">  1       -4 0.20523170E-02 0.12500109E+03</pdfrwt>
<totfact> 0.74830017E+03</totfact>
</mgrwt>
</event>
<event>
 5    1  0.3272646E-002  0.1249966E+03  0.7818608E-02  0.1235075E+00
          4   -1    0    0  501    0  0.00000000000E+00  0.00000000000E+00  0.26800223335E+02  0.26830297628E+02  0.12700000000E+01 0.  1.
         -4   -1    0    0    0  501 -0.00000000000E+00 -0.00000000000E+00 -0.14563183906E+03  0.14563737655E+03  0.12700000000E+01 0.  1.
         25    2    1    2    0    0  0.00000000000E+00  0.00000000000E+00 -0.11883161572E+03  0.17246767417E+03  0.12499658291E+03 0.  0.
    9000005    1    3    3    0    0  0.50962029815E+01  0.61067244844E+02 -0.42525104630E+02  0.74596006605E+02  0.10000000000E+01 0.  0.
    9000005    1    3    3    0    0 -0.50962029815E+01 -0.61067244844E+02 -0.76306511092E+02  0.97871667569E+02  0.10000000000E+01 0.  0.
<mgrwt>
<rscale>  0 0.12499658E+03</rscale>
<asrwt>0</asrwt>
<pdfrwt beam="1">  1        4 0.41258508E-02 0.12499658E+03</pdfrwt>
<pdfrwt beam="2">  1       -4 0.22407637E-01 0.12499658E+03</pdfrwt>
<totfact> 0.94997971E+03</totfact>
</mgrwt>
</event>
<event>
 5    1  0.3272646E-002  0.1250024E+03  0.7818608E-02  0.1235065E+00
         -4   -1    0    0    0  501 -0.00000000000E+00  0.00000000000E+00  0.98443519186E+02  0.98451710853E+02  0.12700000000E+01 0. -1.
          4   -1    0    0  501    0  0.00000000000E+00 -0.00000000000E+00 -0.39661643067E+02  0.39681971105E+02  0.12700000000E+01 0. -1.
         25    2    1    2    0    0  0.00000000000E+00  0.00000000000E+00  0.58781876119E+02  0.13813368196E+03  0.12500242050E+03 0.  0.
    9000005    1    3    3    0    0  0.54545467175E+02  0.30192486890E+02  0.24624217644E+02  0.67038394585E+02  0.10000000000E+01 0.  0.
    9000005    1    3    3    0    0 -0.54545467175E+02 -0.30192486890E+02  0.34157658475E+02  0.71095287372E+02  0.10000000000E+01 0.  0.
<mgrwt>
<rscale>  0 0.12500242E+03</rscale>
<asrwt>0</asrwt>
<pdfrwt beam="2">  1        4 0.61039851E-02 0.12500242E+03</pdfrwt>
<pdfrwt beam="1">  1       -4 0.15147351E-01 0.12500242E+03</pdfrwt>
<totfact> 0.10171859E+04</totfact>
</mgrwt>
</event>
<event>
 4    1  0.3272646E-002  0.1251176E+03  0.7818608E-02  0.1234886E+00
          4   -1    0    0  501    0  0.00000000000E+00  0.00000000000E+00  0.99619689170E+03  0.99619770123E+03  0.12700000000E+01 0.  1.
         -4   -1    0    0    0  501 -0.00000000000E+00 -0.00000000000E+00 -0.38250742661E+01  0.40303961519E+01  0.12700000000E+01 0.  1.
    9000005    1    1    2    0    0  0.39088361421E+02 -0.59337622778E+01  0.10868931386E+03  0.11566104133E+03  0.10000000000E+01 0.  0.
    9000005    1    1    2    0    0 -0.39088361421E+02  0.59337622778E+01  0.88368250357E+03  0.88456705605E+03  0.10000000000E+01 0.  0.
<mgrwt>
<rscale>  0 0.12511764E+03</rscale>
<asrwt>0</asrwt>
<pdfrwt beam="1">  1        4 0.15327708E+00 0.12511764E+03</pdfrwt>
<pdfrwt beam="2">  1       -4 0.60432860E-03 0.12511764E+03</pdfrwt>
<totfact> 0.30518537E+03</totfact>
</mgrwt>
</event>
<event>
 5    1  0.3272646E-002  0.1249995E+03  0.7818608E-02  0.1235070E+00
          4   -1    0    0  501    0  0.00000000000E+00  0.00000000000E+00  0.12562481198E+03  0.12563123133E+03  0.12700000000E+01 0.  1.
         -4   -1    0    0    0  501 -0.00000000000E+00 -0.00000000000E+00 -0.31074158111E+02  0.31100099716E+02  0.12700000000E+01 0.  1.
         25    2    1    2    0    0  0.00000000000E+00  0.00000000000E+00  0.94550653866E+02  0.15673133104E+03  0.12499953593E+03 0.  0.
    9000005    1    3    3    0    0  0.44016029743E+02  0.39844953081E+02  0.71723570975E+02  0.93114455343E+02  0.10000000000E+01 0.  0.
    9000005    1    3    3    0    0 -0.44016029743E+02 -0.39844953081E+02  0.22827082892E+02  0.63616875699E+02  0.10000000000E+01 0.  0.
<mgrwt>
<rscale>  0 0.12499954E+03</rscale>
<asrwt>0</asrwt>
<pdfrwt beam="1">  1        4 0.19329384E-01 0.12499954E+03</pdfrwt>
<pdfrwt beam="2">  1       -4 0.47831290E-02 0.12499954E+03</pdfrwt>
<totfact> 0.97977707E+03</totfact>
</mgrwt>
</event>
<event>
 5    1  0.3272646E-002  0.1249983E+03  0.7818608E-02  0.1235072E+00
          4   -1    0    0  501    0  0.00000000000E+00  0.00000000000E+00  0.27434149619E+02  0.27463529731E+02  0.12700000000E+01 0.  1.
         -4   -1    0    0    0  501 -0.00000000000E+00 -0.00000000000E+00 -0.14227407236E+03  0.14227974053E+03  0.12700000000E+01 0.  1.
         25    2    1    2    0    0  0.00000000000E+00  0.00000000000E+00 -0.11483992274E+03  0.16974327026E+03  0.12499827976E+03 0.  0.
    9000005    1    3    3    0    0  0.56881994896E+02 -0.19892593643E+02 -0.34947146312E+02  0.69667637111E+02  0.10000000000E+01 0.  0.
    9000005    1    3    3    0    0 -0.56881994896E+02  0.19892593643E+02 -0.79892776424E+02  0.10007563315E+03  0.10000000000E+01 0.  0.
<mgrwt>
<rscale>  0 0.12499828E+03</rscale>
<asrwt>0</asrwt>
<pdfrwt beam="1">  1        4 0.42233345E-02 0.12499828E+03</pdfrwt>
<pdfrwt beam="2">  1       -4 0.21891014E-01 0.12499828E+03</pdfrwt>
<totfact> 0.95500197E+03</totfact>
</mgrwt>
</event>
<event>
 5    1  0.3272646E-002  0.1249844E+03  0.7818608E-02  0.1235094E+00
         -4   -1    0    0    0  501 -0.00000000000E+00  0.00000000000E+00  0.93795023881E+01  0.94650919197E+01  0.12700000000E+01 0.  1.
          4   -1    0    0  501    0  0.00000000000E+00 -0.00000000000E+00 -0.41438539175E+03  0.41438733788E+03  0.12700000000E+01 0.  1.
         25    2    1    2    0    0  0.00000000000E+00  0.00000000000E+00 -0.40500588936E+03  0.42385242980E+03  0.12498444635E+03 0.  0.
    9000005    1    3    3    0    0 -0.88339699878E+01  0.12726964171E+02 -0.40778549936E+03  0.40808090881E+03  0.10000000000E+01 0.  0.
    9000005    1    3    3    0    0  0.88339699878E+01 -0.12726964171E+02  0.27796099988E+01  0.15771520995E+02  0.10000000000E+01 0.  0.
<mgrwt>
<rscale>  0 0.12498445E+03</rscale>
<asrwt>0</asrwt>
<pdfrwt beam="2">  1        4 0.63758318E-01 0.12498445E+03</pdfrwt>
<pdfrwt beam="1">  1       -4 0.14497342E-02 0.12498445E+03</pdfrwt>
<totfact> 0.62318592E+03</totfact>
</mgrwt>
</event>
<event>
 4    1  0.3272646E-002  0.1250723E+03  0.7818608E-02  0.1234956E+00
         -4   -1    0    0    0  501 -0.00000000000E+00  0.00000000000E+00  0.42383057860E+02  0.42402081241E+02  0.12700000000E+01 0.  1.
          4   -1    0    0  501    0  0.00000000000E+00 -0.00000000000E+00 -0.92227890452E+02  0.92236634138E+02  0.12700000000E+01 0.  1.
    9000005    1    1    2    0    0  0.12899267289E+02 -0.60874408223E+02 -0.18314116267E+02  0.64872887462E+02  0.10000000000E+01 0.  0.
    9000005    1    1    2    0    0 -0.12899267289E+02  0.60874408223E+02 -0.31530716325E+02  0.69765827917E+02  0.10000000000E+01 0.  0.
<mgrwt>
<rscale>  0 0.12507228E+03</rscale>
<asrwt>0</asrwt>
<pdfrwt beam="2">  1        4 0.14191042E-01 0.12507228E+03</pdfrwt>
<pdfrwt beam="1">  1       -4 0.65226064E-02 0.12507228E+03</pdfrwt>
<totfact> 0.10229006E+04</totfact>
</mgrwt>
</event>
<event>
 5    1  0.3272646E-002  0.1250116E+03  0.7818608E-02  0.1235051E+00
         -4   -1    0    0    0  501 -0.00000000000E+00  0.00000000000E+00  0.93566254069E+02  0.93574872698E+02  0.12700000000E+01 0. -1.
          4   -1    0    0  501    0  0.00000000000E+00 -0.00000000000E+00 -0.41736013589E+02  0.41755331759E+02  0.12700000000E+01 0. -1.
         25    2    1    2    0    0  0.00000000000E+00  0.00000000000E+00  0.51830240480E+02  0.13533020446E+03  0.12501156111E+03 0.  0.
    9000005    1    3    3    0    0  0.29567561451E+02 -0.55013962141E+02  0.28382717033E+02  0.68610169412E+02  0.10000000000E+01 0.  0.
    9000005    1    3    3    0    0 -0.29567561451E+02  0.55013962141E+02  0.23447523447E+02  0.66720035045E+02  0.10000000000E+01 0.  0.
<mgrwt>
<rscale>  0 0.12501156E+03</rscale>
<asrwt>0</asrwt>
<pdfrwt beam="2">  1        4 0.64230742E-02 0.12501156E+03</pdfrwt>
<pdfrwt beam="1">  1       -4 0.14396957E-01 0.12501156E+03</pdfrwt>
<totfact> 0.10228449E+04</totfact>
</mgrwt>
</event>
<event>
 5    1  0.3272646E-002  0.1249994E+03  0.7818608E-02  0.1235070E+00
         -4   -1    0    0    0  501 -0.00000000000E+00  0.00000000000E+00  0.17186958403E+03  0.17187427618E+03  0.12700000000E+01 0. -1.
          4   -1    0    0  501    0  0.00000000000E+00 -0.00000000000E+00 -0.22705022343E+02  0.22740513178E+02  0.12700000000E+01 0. -1.
         25    2    1    2    0    0  0.00000000000E+00  0.00000000000E+00  0.14916456168E+03  0.19461478936E+03  0.12499939910E+03 0.  0.
    9000005    1    3    3    0    0  0.40096203184E+02 -0.24929671299E+02  0.10842977950E+02  0.48453732484E+02  0.10000000000E+01 0.  0.
    9000005    1    3    3    0    0 -0.40096203184E+02  0.24929671299E+02  0.13832158373E+03  0.14616105688E+03  0.10000000000E+01 0.  0.
<mgrwt>
<rscale>  0 0.12499940E+03</rscale>
<asrwt>0</asrwt>
<pdfrwt beam="2">  1        4 0.34961712E-02 0.12499940E+03</pdfrwt>
<pdfrwt beam="1">  1       -4 0.26444566E-01 0.12499940E+03</pdfrwt>
<totfact> 0.91051723E+03</totfact>
</mgrwt>
</event>
<event>
 5    1  0.3272646E-002  0.1249983E+03  0.7818608E-02  0.1235072E+00
         -4   -1    0    0    0  501 -0.00000000000E+00  0.00000000000E+00  0.42530076965E+01  0.44385779780E+01  0.12700000000E+01 0. -1.
          4   -1    0    0  501    0  0.00000000000E+00 -0.00000000000E+00 -0.89864747655E+03  0.89864837396E+03  0.12700000000E+01 0. -1.
         25    2    1    2    0    0  0.00000000000E+00  0.00000000000E+00 -0.89439446886E+03  0.90308695194E+03  0.12499830732E+03 0.  0.
    9000005    1    3    3    0    0  0.10288062424E+02 -0.19903045476E+02 -0.86866773061E+03  0.86895719207E+03  0.10000000000E+01 0.  0.
    9000005    1    3    3    0    0 -0.10288062424E+02  0.19903045476E+02 -0.25726738250E+02  0.34129759868E+02  0.10000000000E+01 0.  0.
<mgrwt>
<rscale>  0 0.12499831E+03</rscale>
<asrwt>0</asrwt>
<pdfrwt beam="2">  1        4 0.13826765E+00 0.12499831E+03</pdfrwt>
<pdfrwt beam="1">  1       -4 0.66865326E-03 0.12499831E+03</pdfrwt>
<totfact> 0.34043282E+03</totfact>
</mgrwt>
</event>
<event>
 5    1  0.3272646E-002  0.1249999E+03  0.7818608E-02  0.1235069E+00
         -4   -1    0    0    0  501 -0.00000000000E+00  0.00000000000E+00  0.10766060657E+03  0.10766809698E+03  0.12700000000E+01 0.  1.
          4   -1    0    0  501    0  0.00000000000E+00 -0.00000000000E+00 -0.36263093159E+02  0.36285325208E+02  0.12700000000E+01 0.  1.
         25    2    1    2    0    0  0.00000000000E+00  0.00000000000E+00  0.71397513416E+02  0.14395342219E+03  0.12499993136E+03 0.  0.
    9000005    1    3    3    0    0  0.14546830593E+02  0.47699737865E+01  0.10547337633E+03  0.10658328220E+03  0.10000000000E+01 0.  0.
    9000005    1    3    3    0    0 -0.14546830593E+02 -0.47699737865E+01 -0.34075862910E+02  0.37370139995E+02  0.10000000000E+01 0.  0.
<mgrwt>
<rscale>  0 0.12499993E+03</rscale>
<asrwt>0</asrwt>
<pdfrwt beam="2">  1        4 0.55812238E-02 0.12499993E+03</pdfrwt>
<pdfrwt beam="1">  1       -4 0.16565456E-01 0.12499993E+03</pdfrwt>
<totfact> 0.10052312E+04</totfact>
</mgrwt>
</event>
<event>
 5    1  0.3272646E-002  0.1249990E+03  0.7818608E-02  0.1235071E+00
          4   -1    0    0  501    0  0.00000000000E+00  0.00000000000E+00  0.55757640258E+02  0.55772101872E+02  0.12700000000E+01 0.  1.
         -4   -1    0    0    0  501 -0.00000000000E+00 -0.00000000000E+00 -0.70027183761E+02  0.70038699057E+02  0.12700000000E+01 0.  1.
         25    2    1    2    0    0  0.00000000000E+00  0.00000000000E+00 -0.14269543503E+02  0.12581080093E+03  0.12499895103E+03 0.  0.
    9000005    1    3    3    0    0  0.43397380012E+01 -0.13110154304E+02  0.54207559464E+02  0.55947913052E+02  0.10000000000E+01 0.  0.
    9000005    1    3    3    0    0 -0.43397380012E+01  0.13110154304E+02 -0.68477102966E+02  0.69862887877E+02  0.10000000000E+01 0.  0.
<mgrwt>
<rscale>  0 0.12499895E+03</rscale>
<asrwt>0</asrwt>
<pdfrwt beam="1">  1        4 0.85800967E-02 0.12499895E+03</pdfrwt>
<pdfrwt beam="2">  1       -4 0.10775411E-01 0.12499895E+03</pdfrwt>
<totfact> 0.10435355E+04</totfact>
</mgrwt>
</event>
<event>
 5    1  0.3272646E-002  0.1249981E+03  0.7818608E-02  0.1235072E+00
         -4   -1    0    0    0  501 -0.00000000000E+00  0.00000000000E+00  0.52020555371E+02  0.52036055587E+02  0.12700000000E+01 0.  1.
          4   -1    0    0  501    0  0.00000000000E+00 -0.00000000000E+00 -0.75056152981E+02  0.75066896834E+02  0.12700000000E+01 0.  1.
         25    2    1    2    0    0  0.00000000000E+00  0.00000000000E+00 -0.23035597610E+02  0.12710295242E+03  0.12499808701E+03 0.  0.
    9000005    1    3    3    0    0  0.15867166174E+02 -0.27213458089E+02  0.43361297001E+02  0.53605422684E+02  0.10000000000E+01 0.  0.
    9000005    1    3    3    0    0 -0.15867166174E+02  0.27213458089E+02 -0.66396894611E+02  0.73497529737E+02  0.10000000000E+01 0.  0.
<mgrwt>
<rscale>  0 0.12499809E+03</rscale>
<asrwt>0</asrwt>
<pdfrwt beam="2">  1        4 0.11549119E-01 0.12499809E+03</pdfrwt>
<pdfrwt beam="1">  1       -4 0.80051811E-02 0.12499809E+03</pdfrwt>
<totfact> 0.10407359E+04</totfact>
</mgrwt>
</event>
<event>
 5    1  0.3272646E-002  0.1250000E+03  0.7818608E-02  0.1235069E+00
          4   -1    0    0  501    0  0.00000000000E+00  0.00000000000E+00  0.12658501462E+04  0.12658507833E+04  0.12700000000E+01 0. -1.
         -4   -1    0    0    0  501 -0.00000000000E+00 -0.00000000000E+00 -0.29545388605E+01  0.32159290848E+01  0.12700000000E+01 0. -1.
         25    2    1    2    0    0  0.00000000000E+00  0.00000000000E+00  0.12628956073E+04  0.12690667123E+04  0.12500002160E+03 0.  0.
    9000005    1    3    3    0    0 -0.34128364650E+02 -0.24153650534E+02  0.15991682197E+03  0.16529529351E+03  0.10000000000E+01 0.  0.
    9000005    1    3    3    0    0  0.34128364650E+02  0.24153650534E+02  0.11029787853E+04  0.11037714188E+04  0.10000000000E+01 0.  0.
<mgrwt>
<rscale>  0 0.12500002E+03</rscale>
<asrwt>0</asrwt>
<pdfrwt beam="1">  1        4 0.19476586E+00 0.12500002E+03</pdfrwt>
<pdfrwt beam="2">  1       -4 0.47470154E-03 0.12500002E+03</pdfrwt>
<totfact> 0.22970638E+03</totfact>
</mgrwt>
</event>
<event>
 5    1  0.3272646E-002  0.1249963E+03  0.7818608E-02  0.1235075E+00
          4   -1    0    0  501    0  0.00000000000E+00  0.00000000000E+00  0.25914448096E+03  0.25914759291E+03  0.12700000000E+01 0.  1.
         -4   -1    0    0    0  501 -0.00000000000E+00 -0.00000000000E+00 -0.15042779349E+02  0.15096294596E+02  0.12700000000E+01 0.  1.
         25    2    1    2    0    0  0.00000000000E+00  0.00000000000E+00  0.24410170161E+03  0.27424388751E+03  0.12499627637E+03 0.  0.
    9000005    1    3    3    0    0  0.37423993019E+02 -0.29495609041E+02  0.21075184754E+03  0.21607380093E+03  0.10000000000E+01 0.  0.
    9000005    1    3    3    0    0 -0.37423993019E+02  0.29495609041E+02  0.33349854072E+02  0.58170086581E+02  0.10000000000E+01 0.  0.
<mgrwt>
<rscale>  0 0.12499628E+03</rscale>
<asrwt>0</asrwt>
<pdfrwt beam="1">  1        4 0.39872740E-01 0.12499628E+03</pdfrwt>
<pdfrwt beam="2">  1       -4 0.23186296E-02 0.12499628E+03</pdfrwt>
<totfact> 0.78954101E+03</totfact>
</mgrwt>
</event>
<event>
 5    1  0.3272646E-002  0.1249973E+03  0.7818608E-02  0.1235073E+00
          4   -1    0    0  501    0  0.00000000000E+00  0.00000000000E+00  0.23090882791E+02  0.23125781459E+02  0.12700000000E+01 0.  1.
         -4   -1    0    0    0  501 -0.00000000000E+00 -0.00000000000E+00 -0.16899624758E+03  0.16900101951E+03  0.12700000000E+01 0.  1.
         25    2    1    2    0    0  0.00000000000E+00  0.00000000000E+00 -0.14590536479E+03  0.19212680097E+03  0.12499732868E+03 0.  0.
    9000005    1    3    3    0    0  0.14017588485E+02  0.31099599352E+02 -0.15343006331E+03  0.15717971305E+03  0.10000000000E+01 0.  0.
    9000005    1    3    3    0    0 -0.14017588485E+02 -0.31099599352E+02  0.75246985163E+01  0.34947087927E+02  0.10000000000E+01 0.  0.
<mgrwt>
<rscale>  0 0.12499733E+03</rscale>
<asrwt>0</asrwt>
<pdfrwt beam="1">  1        4 0.35554952E-02 0.12499733E+03</pdfrwt>
<pdfrwt beam="2">  1       -4 0.26002473E-01 0.12499733E+03</pdfrwt>
<totfact> 0.91484043E+03</totfact>
</mgrwt>
</event>
<event>
 5    1  0.3272646E-002  0.1250166E+03  0.7818608E-02  0.1235043E+00
          4   -1    0    0  501    0  0.00000000000E+00  0.00000000000E+00  0.54066590303E+02  0.54081504112E+02  0.12700000000E+01 0. -1.
         -4   -1    0    0    0  501 -0.00000000000E+00 -0.00000000000E+00 -0.72237573352E+02  0.72248736348E+02  0.12700000000E+01 0. -1.
         25    2    1    2    0    0  0.00000000000E+00  0.00000000000E+00 -0.18170983049E+02  0.12633024046E+03  0.12501657902E+03 0.  0.
    9000005    1    3    3    0    0 -0.15134877346E+02 -0.54689699443E+02 -0.35557298465E+02  0.66972749768E+02  0.10000000000E+01 0.  0.
    9000005    1    3    3    0    0  0.15134877346E+02  0.54689699443E+02  0.17386315416E+02  0.59357490691E+02  0.10000000000E+01 0.  0.
<mgrwt>
<rscale>  0 0.12501658E+03</rscale>
<asrwt>0</asrwt>
<pdfrwt beam="1">  1        4 0.83199429E-02 0.12501658E+03</pdfrwt>
<pdfrwt beam="2">  1       -4 0.11115479E-01 0.12501658E+03</pdfrwt>
<totfact> 0.10419833E+04</totfact>
</mgrwt>
</event>
<event>
 5    1  0.3272646E-002  0.1250014E+03  0.7818608E-02  0.1235067E+00
          4   -1    0    0  501    0  0.00000000000E+00  0.00000000000E+00  0.58936613810E+02  0.58950295566E+02  0.12700000000E+01 0. -1.
         -4   -1    0    0    0  501 -0.00000000000E+00 -0.00000000000E+00 -0.66252903271E+02  0.66265074450E+02  0.12700000000E+01 0. -1.
         25    2    1    2    0    0  0.00000000000E+00  0.00000000000E+00 -0.73162894618E+01  0.12521537002E+03  0.12500144318E+03 0.  0.
    9000005    1    3    3    0    0  0.52787546183E+02  0.18946793404E+02 -0.31270409489E+02  0.64221059801E+02  0.10000000000E+01 0.  0.
    9000005    1    3    3    0    0 -0.52787546183E+02 -0.18946793404E+02  0.23954120027E+02  0.60994310215E+02  0.10000000000E+01 0.  0.
<mgrwt>
<rscale>  0 0.12500144E+03</rscale>
<asrwt>0</asrwt>
<pdfrwt beam="1">  1        4 0.90691600E-02 0.12500144E+03</pdfrwt>
<pdfrwt beam="2">  1       -4 0.10194743E-01 0.12500144E+03</pdfrwt>
<totfact> 0.10447846E+04</totfact>
</mgrwt>
</event>
<event>
 5    1  0.3272646E-002  0.1249978E+03  0.7818608E-02  0.1235073E+00
         -4   -1    0    0    0  501 -0.00000000000E+00  0.00000000000E+00  0.12070541757E+02  0.12137169287E+02  0.12700000000E+01 0. -1.
          4   -1    0    0  501    0  0.00000000000E+00 -0.00000000000E+00 -0.32264833286E+03  0.32265083232E+03  0.12700000000E+01 0. -1.
         25    2    1    2    0    0  0.00000000000E+00  0.00000000000E+00 -0.31057779110E+03  0.33478800161E+03  0.12499776676E+03 0.  0.
    9000005    1    3    3    0    0  0.28540922407E+01  0.62256599229E+02 -0.14299166258E+03  0.15598604283E+03  0.10000000000E+01 0.  0.
    9000005    1    3    3    0    0 -0.28540922407E+01 -0.62256599229E+02 -0.16758612852E+03  0.17880195878E+03  0.10000000000E+01 0.  0.
<mgrwt>
<rscale>  0 0.12499777E+03</rscale>
<asrwt>0</asrwt>
<pdfrwt beam="2">  1        4 0.49643516E-01 0.12499777E+03</pdfrwt>
<pdfrwt beam="1">  1       -4 0.18623241E-02 0.12499777E+03</pdfrwt>
<totfact> 0.71434670E+03</totfact>
</mgrwt>
</event>
<event>
 5    1  0.3272646E-002  0.1249875E+03  0.7818608E-02  0.1235089E+00
          4   -1    0    0  501    0  0.00000000000E+00  0.00000000000E+00  0.88044311104E+01  0.88955554733E+01  0.12700000000E+01 0.  1.
         -4   -1    0    0    0  501 -0.00000000000E+00 -0.00000000000E+00 -0.44120449532E+03  0.44120632315E+03  0.12700000000E+01 0.  1.
         25    2    1    2    0    0  0.00000000000E+00  0.00000000000E+00 -0.43240006421E+03  0.45010187863E+03  0.12498754184E+03 0.  0.
    9000005    1    3    3    0    0 -0.46538553717E+00  0.45219164431E+02 -0.37148881525E+03  0.37423245352E+03  0.10000000000E+01 0.  0.
    9000005    1    3    3    0    0  0.46538553717E+00 -0.45219164431E+02 -0.60911248963E+02  0.75869425105E+02  0.10000000000E+01 0.  0.
<mgrwt>
<rscale>  0 0.12498754E+03</rscale>
<asrwt>0</asrwt>
<pdfrwt beam="1">  1        4 0.13616784E-02 0.12498754E+03</pdfrwt>
<pdfrwt beam="2">  1       -4 0.67884748E-01 0.12498754E+03</pdfrwt>
<totfact> 0.59971433E+03</totfact>
</mgrwt>
</event>
<event>
 5    1  0.3272646E-002  0.1249932E+03  0.7818608E-02  0.1235080E+00
          4   -1    0    0  501    0  0.00000000000E+00  0.00000000000E+00  0.15135677685E+02  0.15188865626E+02  0.12700000000E+01 0. -1.
         -4   -1    0    0    0  501 -0.00000000000E+00 -0.00000000000E+00 -0.25754671081E+03  0.25754984207E+03  0.12700000000E+01 0. -1.
         25    2    1    2    0    0  0.00000000000E+00  0.00000000000E+00 -0.24241103312E+03  0.27273870769E+03  0.12499317459E+03 0.  0.
    9000005    1    3    3    0    0 -0.94903463224E+01  0.42337030063E+02 -0.23078911159E+02  0.49154114051E+02  0.10000000000E+01 0.  0.
    9000005    1    3    3    0    0  0.94903463224E+01 -0.42337030063E+02 -0.21933212197E+03  0.22358459364E+03  0.10000000000E+01 0.  0.
<mgrwt>
<rscale>  0 0.12499317E+03</rscale>
<asrwt>0</asrwt>
<pdfrwt beam="1">  1        4 0.23328982E-02 0.12499317E+03</pdfrwt>
<pdfrwt beam="2">  1       -4 0.39626900E-01 0.12499317E+03</pdfrwt>
<totfact> 0.79162874E+03</totfact>
</mgrwt>
</event>
<event>
 5    1  0.3272646E-002  0.1250017E+03  0.7818608E-02  0.1235067E+00
          4   -1    0    0  501    0  0.00000000000E+00  0.00000000000E+00  0.88186413341E+02  0.88195557699E+02  0.12700000000E+01 0. -1.
         -4   -1    0    0    0  501 -0.00000000000E+00 -0.00000000000E+00 -0.44276029129E+02  0.44294239529E+02  0.12700000000E+01 0. -1.
         25    2    1    2    0    0  0.00000000000E+00  0.00000000000E+00  0.43910384211E+02  0.13248979723E+03  0.12500169810E+03 0.  0.
    9000005    1    3    3    0    0  0.45311757629E+02  0.38554403532E+02  0.42225664395E+02  0.72963032727E+02  0.10000000000E+01 0.  0.
    9000005    1    3    3    0    0 -0.45311757629E+02 -0.38554403532E+02  0.16847198167E+01  0.59526764502E+02  0.10000000000E+01 0.  0.
<mgrwt>
<rscale>  0 0.12500170E+03</rscale>
<asrwt>0</asrwt>
<pdfrwt beam="1">  1        4 0.13569245E-01 0.12500170E+03</pdfrwt>
<pdfrwt beam="2">  1       -4 0.68138011E-02 0.12500170E+03</pdfrwt>
<totfact> 0.10290861E+04</totfact>
</mgrwt>
</event>
<event>
 5    1  0.3272646E-002  0.1249979E+03  0.7818608E-02  0.1235073E+00
         -4   -1    0    0    0  501 -0.00000000000E+00  0.00000000000E+00  0.17127205001E+02  0.17174226363E+02  0.12700000000E+01 0.  1.
          4   -1    0    0  501    0  0.00000000000E+00 -0.00000000000E+00 -0.22770364270E+03  0.22770718434E+03  0.12700000000E+01 0.  1.
         25    2    1    2    0    0  0.00000000000E+00  0.00000000000E+00 -0.21057643770E+03  0.24488141070E+03  0.12499787675E+03 0.  0.
    9000005    1    3    3    0    0 -0.71063304738E+01 -0.42577076023E+02 -0.19381218057E+03  0.19856351295E+03  0.10000000000E+01 0.  0.
    9000005    1    3    3    0    0  0.71063304738E+01  0.42577076023E+02 -0.16764257129E+02  0.46317897756E+02  0.10000000000E+01 0.  0.
<mgrwt>
<rscale>  0 0.12499788E+03</rscale>
<asrwt>0</asrwt>
<pdfrwt beam="2">  1        4 0.35035217E-01 0.12499788E+03</pdfrwt>
<pdfrwt beam="1">  1       -4 0.26388442E-02 0.12499788E+03</pdfrwt>
<totfact> 0.83079629E+03</totfact>
</mgrwt>
</event>
<event>
 5    1  0.3272646E-002  0.1250016E+03  0.7818608E-02  0.1235067E+00
         -4   -1    0    0    0  501 -0.00000000000E+00  0.00000000000E+00  0.63741140141E+01  0.64994022390E+01  0.12700000000E+01 0.  1.
          4   -1    0    0  501    0  0.00000000000E+00 -0.00000000000E+00 -0.60675553283E+03  0.60675686195E+03  0.12700000000E+01 0.  1.
         25    2    1    2    0    0  0.00000000000E+00  0.00000000000E+00 -0.60038141882E+03  0.61325626419E+03  0.12500159001E+03 0.  0.
    9000005    1    3    3    0    0 -0.28601800070E+02  0.17420152064E+02 -0.55904025006E+03  0.56004332498E+03  0.10000000000E+01 0.  0.
    9000005    1    3    3    0    0  0.28601800070E+02 -0.17420152064E+02 -0.41341168760E+02  0.53212939212E+02  0.10000000000E+01 0.  0.
<mgrwt>
<rscale>  0 0.12500159E+03</rscale>
<asrwt>0</asrwt>
<pdfrwt beam="2">  1        4 0.93356700E-01 0.12500159E+03</pdfrwt>
<pdfrwt beam="1">  1       -4 0.99037320E-03 0.12500159E+03</pdfrwt>
<totfact> 0.48039730E+03</totfact>
</mgrwt>
</event>
<event>
 5    1  0.3272646E-002  0.1250029E+03  0.7818608E-02  0.1235065E+00
          4   -1    0    0  501    0  0.00000000000E+00  0.00000000000E+00  0.96979877991E+02  0.96988193277E+02  0.12700000000E+01 0.  1.
         -4   -1    0    0    0  501 -0.00000000000E+00 -0.00000000000E+00 -0.40260804891E+02  0.40280830558E+02  0.12700000000E+01 0.  1.
         25    2    1    2    0    0  0.00000000000E+00  0.00000000000E+00  0.56719073100E+02  0.13726902384E+03  0.12500292657E+03 0.  0.
    9000005    1    3    3    0    0  0.12702171652E+02 -0.43093731925E+02 -0.19342880809E+02  0.48924042493E+02  0.10000000000E+01 0.  0.
    9000005    1    3    3    0    0 -0.12702171652E+02  0.43093731925E+02  0.76061953909E+02  0.88344981342E+02  0.10000000000E+01 0.  0.
<mgrwt>
<rscale>  0 0.12500293E+03</rscale>
<asrwt>0</asrwt>
<pdfrwt beam="1">  1        4 0.14922161E-01 0.12500293E+03</pdfrwt>
<pdfrwt beam="2">  1       -4 0.61961501E-02 0.12500293E+03</pdfrwt>
<totfact> 0.10189791E+04</totfact>
</mgrwt>
</event>
<event>
 5    1  0.3272646E-002  0.1250013E+03  0.7818608E-02  0.1235067E+00
         -4   -1    0    0    0  501 -0.00000000000E+00  0.00000000000E+00  0.13222305789E+03  0.13222915691E+03  0.12700000000E+01 0. -1.
          4   -1    0    0  501    0  0.00000000000E+00 -0.00000000000E+00 -0.29523082410E+02  0.29550385699E+02  0.12700000000E+01 0. -1.
         25    2    1    2    0    0  0.00000000000E+00  0.00000000000E+00  0.10269997548E+03  0.16177954261E+03  0.12500134177E+03 0.  0.
    9000005    1    3    3    0    0  0.58613097747E+02  0.16818224833E+02  0.33652426961E+02  0.69655105731E+02  0.10000000000E+01 0.  0.
    9000005    1    3    3    0    0 -0.58613097747E+02 -0.16818224833E+02  0.69047548518E+02  0.92124436880E+02  0.10000000000E+01 0.  0.
<mgrwt>
<rscale>  0 0.12500134E+03</rscale>
<asrwt>0</asrwt>
<pdfrwt beam="2">  1        4 0.45445820E-02 0.12500134E+03</pdfrwt>
<pdfrwt beam="1">  1       -4 0.20344579E-01 0.12500134E+03</pdfrwt>
<totfact> 0.96997871E+03</totfact>
</mgrwt>
</event>
<event>
 5    1  0.3272646E-002  0.1250198E+03  0.7818608E-02  0.1235038E+00
          4   -1    0    0  501    0  0.00000000000E+00  0.00000000000E+00  0.12757488898E+02  0.12820546907E+02  0.12700000000E+01 0.  1.
         -4   -1    0    0    0  501 -0.00000000000E+00 -0.00000000000E+00 -0.30547038604E+03  0.30547302605E+03  0.12700000000E+01 0.  1.
         25    2    1    2    0    0  0.00000000000E+00  0.00000000000E+00 -0.29271289714E+03  0.31829357296E+03  0.12501983217E+03 0.  0.
    9000005    1    3    3    0    0 -0.49204094071E+02 -0.37961942257E+02 -0.12940388354E+03  0.14355666828E+03  0.10000000000E+01 0.  0.
    9000005    1    3    3    0    0  0.49204094071E+02  0.37961942257E+02 -0.16330901360E+03  0.17473690467E+03  0.10000000000E+01 0.  0.
<mgrwt>
<rscale>  0 0.12501983E+03</rscale>
<asrwt>0</asrwt>
<pdfrwt beam="1">  1        4 0.19677445E-02 0.12501983E+03</pdfrwt>
<pdfrwt beam="2">  1       -4 0.47000492E-01 0.12501983E+03</pdfrwt>
<totfact> 0.73327300E+03</totfact>
</mgrwt>
</event>
<event>
 5    1  0.3272646E-002  0.1250000E+03  0.7818608E-02  0.1235069E+00
         -4   -1    0    0    0  501 -0.00000000000E+00  0.00000000000E+00  0.27141170823E+02  0.27170867738E+02  0.12700000000E+01 0.  1.
          4   -1    0    0  501    0  0.00000000000E+00 -0.00000000000E+00 -0.14381217660E+03  0.14381778415E+03  0.12700000000E+01 0.  1.
         25    2    1    2    0    0  0.00000000000E+00  0.00000000000E+00 -0.11667100577E+03  0.17098865189E+03  0.12499998194E+03 0.  0.
    9000005    1    3    3    0    0  0.34680355143E+02 -0.35726610234E+02 -0.10999344157E+03  0.12074218360E+03  0.10000000000E+01 0.  0.
    9000005    1    3    3    0    0 -0.34680355143E+02  0.35726610234E+02 -0.66775642024E+01  0.50246468287E+02  0.10000000000E+01 0.  0.
<mgrwt>
<rscale>  0 0.12499998E+03</rscale>
<asrwt>0</asrwt>
<pdfrwt beam="2">  1        4 0.22127666E-01 0.12499998E+03</pdfrwt>
<pdfrwt beam="1">  1       -4 0.41782806E-02 0.12499998E+03</pdfrwt>
<totfact> 0.95264724E+03</totfact>
</mgrwt>
</event>
<event>
 5    1  0.3272646E-002  0.1249958E+03  0.7818608E-02  0.1235076E+00
          4   -1    0    0  501    0  0.00000000000E+00  0.00000000000E+00  0.14556518078E+02  0.14611814348E+02  0.12700000000E+01 0.  1.
         -4   -1    0    0    0  501 -0.00000000000E+00 -0.00000000000E+00 -0.26776703336E+03  0.26777004510E+03  0.12700000000E+01 0.  1.
         25    2    1    2    0    0  0.00000000000E+00  0.00000000000E+00 -0.25321051528E+03  0.28238185945E+03  0.12499579792E+03 0.  0.
    9000005    1    3    3    0    0 -0.33173762123E+02 -0.27607994892E+02 -0.22869916368E+03  0.23273806596E+03  0.10000000000E+01 0.  0.
    9000005    1    3    3    0    0  0.33173762123E+02  0.27607994892E+02 -0.24511351597E+02  0.49643793494E+02  0.10000000000E+01 0.  0.
<mgrwt>
<rscale>  0 0.12499580E+03</rscale>
<asrwt>0</asrwt>
<pdfrwt beam="1">  1        4 0.22439497E-02 0.12499580E+03</pdfrwt>
<pdfrwt beam="2">  1       -4 0.41199410E-01 0.12499580E+03</pdfrwt>
<totfact> 0.77870618E+03</totfact>
</mgrwt>
</event>
<event>
 5    1  0.3272646E-002  0.1250034E+03  0.7818608E-02  0.1235064E+00
         -4   -1    0    0    0  501 -0.00000000000E+00  0.00000000000E+00  0.16606263743E+03  0.16606749366E+03  0.12700000000E+01 0. -1.
          4   -1    0    0  501    0  0.00000000000E+00 -0.00000000000E+00 -0.23501692113E+02  0.23535981649E+02  0.12700000000E+01 0. -1.
         25    2    1    2    0    0  0.00000000000E+00  0.00000000000E+00  0.14256094532E+03  0.18960347531E+03  0.12500341883E+03 0.  0.
    9000005    1    3    3    0    0  0.37278968524E+01  0.24934364845E+02  0.15801418064E+03  0.16001593998E+03  0.10000000000E+01 0.  0.
    9000005    1    3    3    0    0 -0.37278968524E+01 -0.24934364845E+02 -0.15453235318E+02  0.29587535331E+02  0.10000000000E+01 0.  0.
<mgrwt>
<rscale>  0 0.12500342E+03</rscale>
<asrwt>0</asrwt>
<pdfrwt beam="2">  1        4 0.36186563E-02 0.12500342E+03</pdfrwt>
<pdfrwt beam="1">  1       -4 0.25551108E-01 0.12500342E+03</pdfrwt>
<totfact> 0.91909316E+03</totfact>
</mgrwt>
</event>
<event>
 5    1  0.3272646E-002  0.1250007E+03  0.7818608E-02  0.1235068E+00
         -4   -1    0    0    0  501 -0.00000000000E+00  0.00000000000E+00  0.74341487912E+01  0.75418478007E+01  0.12700000000E+01 0.  1.
          4   -1    0    0  501    0  0.00000000000E+00 -0.00000000000E+00 -0.52156581565E+03  0.52156736185E+03  0.12700000000E+01 0.  1.
         25    2    1    2    0    0  0.00000000000E+00  0.00000000000E+00 -0.51413166685E+03  0.52910920965E+03  0.12500073951E+03 0.  0.
    9000005    1    3    3    0    0 -0.12641938849E+02 -0.15625049882E+02 -0.50753230461E+03  0.50793109869E+03  0.10000000000E+01 0.  0.
    9000005    1    3    3    0    0  0.12641938849E+02  0.15625049882E+02 -0.65993622468E+01  0.21178110958E+02  0.10000000000E+01 0.  0.
<mgrwt>
<rscale>  0 0.12500074E+03</rscale>
<asrwt>0</asrwt>
<pdfrwt beam="2">  1        4 0.80249270E-01 0.12500074E+03</pdfrwt>
<pdfrwt beam="1">  1       -4 0.11521191E-02 0.12500074E+03</pdfrwt>
<totfact> 0.53673668E+03</totfact>
</mgrwt>
</event>
<event>
 5    1  0.3272646E-002  0.1250010E+03  0.7818608E-02  0.1235068E+00
         -4   -1    0    0    0  501 -0.00000000000E+00  0.00000000000E+00  0.27895578732E+03  0.27895867826E+03  0.12700000000E+01 0.  1.
          4   -1    0    0  501    0  0.00000000000E+00 -0.00000000000E+00 -0.13971572682E+02  0.14029174716E+02  0.12700000000E+01 0.  1.
         25    2    1    2    0    0  0.00000000000E+00  0.00000000000E+00  0.26498421463E+03  0.29298785298E+03  0.12500099194E+03 0.  0.
    9000005    1    3    3    0    0  0.39471773123E+02 -0.25384172766E+02  0.35767900181E+02  0.59014572640E+02  0.10000000000E+01 0.  0.
    9000005    1    3    3    0    0 -0.39471773123E+02  0.25384172766E+02  0.22921631445E+03  0.23397328034E+03  0.10000000000E+01 0.  0.
<mgrwt>
<rscale>  0 0.12500099E+03</rscale>
<asrwt>0</asrwt>
<pdfrwt beam="2">  1        4 0.21541260E-02 0.12500099E+03</pdfrwt>
<pdfrwt beam="1">  1       -4 0.42920928E-01 0.12500099E+03</pdfrwt>
<totfact> 0.76485247E+03</totfact>
</mgrwt>
</event>
<event>
 5    1  0.3272646E-002  0.1249988E+03  0.7818608E-02  0.1235071E+00
         -4   -1    0    0    0  501 -0.00000000000E+00  0.00000000000E+00  0.67417510192E+03  0.67417629812E+03  0.12700000000E+01 0.  1.
          4   -1    0    0  501    0  0.00000000000E+00 -0.00000000000E+00 -0.57231987299E+01  0.58624144942E+01  0.12700000000E+01 0.  1.
         25    2    1    2    0    0  0.00000000000E+00  0.00000000000E+00  0.66845190319E+03  0.68003871261E+03  0.12499881510E+03 0.  0.
    9000005    1    3    3    0    0 -0.24413711276E+02 -0.52634185995E+02  0.46050669945E+03  0.46414847524E+03  0.10000000000E+01 0.  0.
    9000005    1    3    3    0    0  0.24413711276E+02  0.52634185995E+02  0.20794520374E+03  0.21589023737E+03  0.10000000000E+01 0.  0.
<mgrwt>
<rscale>  0 0.12499882E+03</rscale>
<asrwt>0</asrwt>
<pdfrwt beam="2">  1        4 0.89129302E-03 0.12499882E+03</pdfrwt>
<pdfrwt beam="1">  1       -4 0.10373005E+00 0.12499882E+03</pdfrwt>
<totfact> 0.44162727E+03</totfact>
</mgrwt>
</event>
<event>
 5    1  0.3272646E-002  0.1250029E+03  0.7818608E-02  0.1235065E+00
          4   -1    0    0  501    0  0.00000000000E+00  0.00000000000E+00  0.83512694423E+03  0.83512790989E+03  0.12700000000E+01 0.  1.
         -4   -1    0    0    0  501 -0.00000000000E+00 -0.00000000000E+00 -0.45904571149E+01  0.47628979124E+01  0.12700000000E+01 0.  1.
         25    2    1    2    0    0  0.00000000000E+00  0.00000000000E+00  0.83053648712E+03  0.83989080781E+03  0.12500285038E+03 0.  0.
    9000005    1    3    3    0    0 -0.37358961659E+02  0.33187375760E+02  0.66741638928E+03  0.66928523860E+03  0.10000000000E+01 0.  0.
    9000005    1    3    3    0    0  0.37358961659E+02 -0.33187375760E+02  0.16312009783E+03  0.17060556920E+03  0.10000000000E+01 0.  0.
<mgrwt>
<rscale>  0 0.12500285E+03</rscale>
<asrwt>0</asrwt>
<pdfrwt beam="1">  1        4 0.12849432E+00 0.12500285E+03</pdfrwt>
<pdfrwt beam="2">  1       -4 0.71956363E-03 0.12500285E+03</pdfrwt>
<totfact> 0.36542359E+03</totfact>
</mgrwt>
</event>
<event>
 5    1  0.3272646E-002  0.1249976E+03  0.7818608E-02  0.1235073E+00
         -4   -1    0    0    0  501 -0.00000000000E+00  0.00000000000E+00  0.90176426068E+01  0.91066337460E+01  0.12700000000E+01 0.  1.
          4   -1    0    0  501    0  0.00000000000E+00 -0.00000000000E+00 -0.43094502527E+03  0.43094689662E+03  0.12700000000E+01 0.  1.
         25    2    1    2    0    0  0.00000000000E+00  0.00000000000E+00 -0.42192738267E+03  0.44005353037E+03  0.12499757336E+03 0.  0.
    9000005    1    3    3    0    0 -0.45199887768E+02  0.17776967531E+02 -0.72538414332E+02  0.87303333171E+02  0.10000000000E+01 0.  0.
    9000005    1    3    3    0    0  0.45199887768E+02 -0.17776967531E+02 -0.34938896834E+03  0.35275019720E+03  0.10000000000E+01 0.  0.
<mgrwt>
<rscale>  0 0.12499757E+03</rscale>
<asrwt>0</asrwt>
<pdfrwt beam="2">  1        4 0.66306208E-01 0.12499757E+03</pdfrwt>
<pdfrwt beam="1">  1       -4 0.13943194E-02 0.12499757E+03</pdfrwt>
<totfact> 0.60838414E+03</totfact>
</mgrwt>
</event>
<event>
 5    1  0.3272646E-002  0.1250030E+03  0.7818608E-02  0.1235065E+00
         -4   -1    0    0    0  501 -0.00000000000E+00  0.00000000000E+00  0.39240411196E+02  0.39260957335E+02  0.12700000000E+01 0. -1.
          4   -1    0    0  501    0  0.00000000000E+00 -0.00000000000E+00 -0.99500678722E+02  0.99508783362E+02  0.12700000000E+01 0. -1.
         25    2    1    2    0    0  0.00000000000E+00  0.00000000000E+00 -0.60260267526E+02  0.13876974070E+03  0.12500296433E+03 0.  0.
    9000005    1    3    3    0    0  0.33807646556E+02  0.52249639131E+02 -0.23805937290E+02  0.66638610469E+02  0.10000000000E+01 0.  0.
    9000005    1    3    3    0    0 -0.33807646556E+02 -0.52249639131E+02 -0.36454330236E+02  0.72131130228E+02  0.10000000000E+01 0.  0.
<mgrwt>
<rscale>  0 0.12500296E+03</rscale>
<asrwt>0</asrwt>
<pdfrwt beam="2">  1        4 0.15310000E-01 0.12500296E+03</pdfrwt>
<pdfrwt beam="1">  1       -4 0.60391903E-02 0.12500296E+03</pdfrwt>
<totfact> 0.10158469E+04</totfact>
</mgrwt>
</event>
<event>
 5    1  0.3272646E-002  0.1250171E+03  0.7818608E-02  0.1235043E+00
          4   -1    0    0  501    0  0.00000000000E+00  0.00000000000E+00  0.11571598941E+02  0.11641082512E+02  0.12700000000E+01 0. -1.
         -4   -1    0    0    0  501 -0.00000000000E+00 -0.00000000000E+00 -0.33658310597E+03  0.33658550195E+03  0.12700000000E+01 0. -1.
         25    2    1    2    0    0  0.00000000000E+00  0.00000000000E+00 -0.32501150703E+03  0.34822658447E+03  0.12501709654E+03 0.  0.
    9000005    1    3    3    0    0 -0.28373993757E+02 -0.55406410484E+02 -0.17810535537E+03  0.18867292190E+03  0.10000000000E+01 0.  0.
    9000005    1    3    3    0    0  0.28373993757E+02  0.55406410484E+02 -0.14690615166E+03  0.15955366257E+03  0.10000000000E+01 0.  0.
<mgrwt>
<rscale>  0 0.12501710E+03</rscale>
<asrwt>0</asrwt>
<pdfrwt beam="1">  1        4 0.17857754E-02 0.12501710E+03</pdfrwt>
<pdfrwt beam="2">  1       -4 0.51787538E-01 0.12501710E+03</pdfrwt>
<totfact> 0.69893648E+03</totfact>
</mgrwt>
</event>
<event>
 5    1  0.3272646E-002  0.1249945E+03  0.7818608E-02  0.1235078E+00
         -4   -1    0    0    0  501 -0.00000000000E+00  0.00000000000E+00  0.94657525873E+01  0.95505692000E+01  0.12700000000E+01 0.  1.
          4   -1    0    0  501    0  0.00000000000E+00 -0.00000000000E+00 -0.41070936221E+03  0.41071132576E+03  0.12700000000E+01 0.  1.
         25    2    1    2    0    0  0.00000000000E+00  0.00000000000E+00 -0.40124360962E+03  0.42026189496E+03  0.12499450425E+03 0.  0.
    9000005    1    3    3    0    0 -0.53594218034E+02 -0.31109401497E+02 -0.22768137673E+03  0.23596598140E+03  0.10000000000E+01 0.  0.
    9000005    1    3    3    0    0  0.53594218034E+02  0.31109401497E+02 -0.17356223289E+03  0.18429591356E+03  0.10000000000E+01 0.  0.
<mgrwt>
<rscale>  0 0.12499450E+03</rscale>
<asrwt>0</asrwt>
<pdfrwt beam="2">  1        4 0.63192717E-01 0.12499450E+03</pdfrwt>
<pdfrwt beam="1">  1       -4 0.14629453E-02 0.12499450E+03</pdfrwt>
<totfact> 0.62636319E+03</totfact>
</mgrwt>
</event>
<event>
 5    1  0.3272646E-002  0.1249986E+03  0.7818608E-02  0.1235072E+00
         -4   -1    0    0    0  501 -0.00000000000E+00  0.00000000000E+00  0.82463146327E+02  0.82472925267E+02  0.12700000000E+01 0. -1.
          4   -1    0    0  501    0  0.00000000000E+00 -0.00000000000E+00 -0.47347463590E+02  0.47364493119E+02  0.12700000000E+01 0. -1.
         25    2    1    2    0    0  0.00000000000E+00  0.00000000000E+00  0.35115682737E+02  0.12983741839E+03  0.12499857615E+03 0.  0.
    9000005    1    3    3    0    0  0.48887892293E+02  0.33471211268E+02  0.38196930900E+02  0.70500734229E+02  0.10000000000E+01 0.  0.
    9000005    1    3    3    0    0 -0.48887892293E+02 -0.33471211268E+02 -0.30812481633E+01  0.59336684158E+02  0.10000000000E+01 0.  0.
<mgrwt>
<rscale>  0 0.12499858E+03</rscale>
<asrwt>0</asrwt>
<pdfrwt beam="2">  1        4 0.72862874E-02 0.12499858E+03</pdfrwt>
<pdfrwt beam="1">  1       -4 0.12688700E-01 0.12499858E+03</pdfrwt>
<totfact> 0.10348319E+04</totfact>
</mgrwt>
</event>
<event>
 5    1  0.3272646E-002  0.1249780E+03  0.7818608E-02  0.1235104E+00
         -4   -1    0    0    0  501 -0.00000000000E+00  0.00000000000E+00  0.11140569209E+03  0.11141293072E+03  0.12700000000E+01 0. -1.
          4   -1    0    0  501    0  0.00000000000E+00 -0.00000000000E+00 -0.35031040527E+02  0.35054053980E+02  0.12700000000E+01 0. -1.
         25    2    1    2    0    0  0.00000000000E+00  0.00000000000E+00  0.76374651567E+02  0.14646698470E+03  0.12497795887E+03 0.  0.
    9000005    1    3    3    0    0  0.26927288952E+02 -0.30734801998E+02 -0.17206835900E+02  0.44348417625E+02  0.10000000000E+01 0.  0.
    9000005    1    3    3    0    0 -0.26927288952E+02  0.30734801998E+02  0.93581487468E+02  0.10211856707E+03  0.10000000000E+01 0.  0.
<mgrwt>
<rscale>  0 0.12497796E+03</rscale>
<asrwt>0</asrwt>
<pdfrwt beam="2">  1        4 0.53917179E-02 0.12497796E+03</pdfrwt>
<pdfrwt beam="1">  1       -4 0.17141664E-01 0.12497796E+03</pdfrwt>
<totfact> 0.10006232E+04</totfact>
</mgrwt>
</event>
<event>
 5    1  0.3272646E-002  0.1250003E+03  0.7818608E-02  0.1235069E+00
          4   -1    0    0  501    0  0.00000000000E+00  0.00000000000E+00  0.12685560671E+03  0.12686196378E+03  0.12700000000E+01 0.  1.
         -4   -1    0    0    0  501 -0.00000000000E+00 -0.00000000000E+00 -0.30772800385E+02  0.30798995820E+02  0.12700000000E+01 0.  1.
         25    2    1    2    0    0  0.00000000000E+00  0.00000000000E+00  0.96082806326E+02  0.15766095960E+03  0.12500029004E+03 0.  0.
    9000005    1    3    3    0    0  0.50624607560E+02  0.36584111087E+02  0.45512518461E+02  0.77289309813E+02  0.10000000000E+01 0.  0.
    9000005    1    3    3    0    0 -0.50624607560E+02 -0.36584111087E+02  0.50570287865E+02  0.80371649787E+02  0.10000000000E+01 0.  0.
<mgrwt>
<rscale>  0 0.12500029E+03</rscale>
<asrwt>0</asrwt>
<pdfrwt beam="1">  1        4 0.19518752E-01 0.12500029E+03</pdfrwt>
<pdfrwt beam="2">  1       -4 0.47367809E-02 0.12500029E+03</pdfrwt>
<totfact> 0.97795000E+03</totfact>
</mgrwt>
</event>
<event>
 5    1  0.3272646E-002  0.1250002E+03  0.7818608E-02  0.1235069E+00
          4   -1    0    0  501    0  0.00000000000E+00  0.00000000000E+00  0.67368626902E+01  0.68555246996E+01  0.12700000000E+01 0. -1.
         -4   -1    0    0    0  501 -0.00000000000E+00 -0.00000000000E+00 -0.57465301236E+03  0.57465441572E+03  0.12700000000E+01 0. -1.
         25    2    1    2    0    0  0.00000000000E+00  0.00000000000E+00 -0.56791614967E+03  0.58150994042E+03  0.12500023104E+03 0.  0.
    9000005    1    3    3    0    0  0.37513493162E+02 -0.17136791185E+02 -0.65541850774E+02  0.77444599451E+02  0.10000000000E+01 0.  0.
    9000005    1    3    3    0    0 -0.37513493162E+02  0.17136791185E+02 -0.50237429889E+03  0.50406534097E+03  0.10000000000E+01 0.  0.
<mgrwt>
<rscale>  0 0.12500023E+03</rscale>
<asrwt>0</asrwt>
<pdfrwt beam="1">  1        4 0.10456767E-02 0.12500023E+03</pdfrwt>
<pdfrwt beam="2">  1       -4 0.88417353E-01 0.12500023E+03</pdfrwt>
<totfact> 0.50055713E+03</totfact>
</mgrwt>
</event>
<event>
 5    1  0.3272646E-002  0.1250003E+03  0.7818608E-02  0.1235069E+00
         -4   -1    0    0    0  501 -0.00000000000E+00  0.00000000000E+00  0.63112079230E+03  0.63112207010E+03  0.12700000000E+01 0. -1.
          4   -1    0    0  501    0  0.00000000000E+00 -0.00000000000E+00 -0.61229679716E+01  0.62532900765E+01  0.12700000000E+01 0. -1.
         25    2    1    2    0    0  0.00000000000E+00  0.00000000000E+00  0.62499782432E+03  0.63737536018E+03  0.12500027740E+03 0.  0.
    9000005    1    3    3    0    0  0.51940564615E+02 -0.31111948657E+02  0.23358936346E+03  0.24131051847E+03  0.10000000000E+01 0.  0.
    9000005    1    3    3    0    0 -0.51940564615E+02  0.31111948657E+02  0.39140846086E+03  0.39606484171E+03  0.10000000000E+01 0.  0.
<mgrwt>
<rscale>  0 0.12500028E+03</rscale>
<asrwt>0</asrwt>
<pdfrwt beam="2">  1        4 0.95211826E-03 0.12500028E+03</pdfrwt>
<pdfrwt beam="1">  1       -4 0.97105618E-01 0.12500028E+03</pdfrwt>
<totfact> 0.46589979E+03</totfact>
</mgrwt>
</event>
<event>
 5    1  0.3272646E-002  0.1250008E+03  0.7818608E-02  0.1235068E+00
         -4   -1    0    0    0  501 -0.00000000000E+00  0.00000000000E+00  0.10374299873E+02  0.10451746163E+02  0.12700000000E+01 0. -1.
          4   -1    0    0  501    0  0.00000000000E+00 -0.00000000000E+00 -0.37505737460E+03  0.37505952480E+03  0.12700000000E+01 0. -1.
         25    2    1    2    0    0  0.00000000000E+00  0.00000000000E+00 -0.36468307473E+03  0.38551127096E+03  0.12500078018E+03 0.  0.
    9000005    1    3    3    0    0 -0.59057991664E+02 -0.13699830086E+02 -0.22909009530E+03  0.23697848740E+03  0.10000000000E+01 0.  0.
    9000005    1    3    3    0    0  0.59057991664E+02  0.13699830086E+02 -0.13559297943E+03  0.14853278357E+03  0.10000000000E+01 0.  0.
<mgrwt>
<rscale>  0 0.12500078E+03</rscale>
<asrwt>0</asrwt>
<pdfrwt beam="2">  1        4 0.57707247E-01 0.12500078E+03</pdfrwt>
<pdfrwt beam="1">  1       -4 0.16021692E-02 0.12500078E+03</pdfrwt>
<totfact> 0.65985636E+03</totfact>
</mgrwt>
</event>
<event>
 5    1  0.3272646E-002  0.1249954E+03  0.7818608E-02  0.1235077E+00
          4   -1    0    0  501    0  0.00000000000E+00  0.00000000000E+00  0.30035987197E+02  0.30062824666E+02  0.12700000000E+01 0. -1.
         -4   -1    0    0    0  501 -0.00000000000E+00 -0.00000000000E+00 -0.12995469586E+03  0.12996090133E+03  0.12700000000E+01 0. -1.
         25    2    1    2    0    0  0.00000000000E+00  0.00000000000E+00 -0.99918708662E+02  0.16002372600E+03  0.12499537808E+03 0.  0.
    9000005    1    3    3    0    0  0.24437706682E+02 -0.13387267506E+02 -0.12156731872E+03  0.12472382860E+03  0.10000000000E+01 0.  0.
    9000005    1    3    3    0    0 -0.24437706682E+02  0.13387267506E+02  0.21648610059E+02  0.35299897402E+02  0.10000000000E+01 0.  0.
<mgrwt>
<rscale>  0 0.12499538E+03</rscale>
<asrwt>0</asrwt>
<pdfrwt beam="1">  1        4 0.46234629E-02 0.12499538E+03</pdfrwt>
<pdfrwt beam="2">  1       -4 0.19995572E-01 0.12499538E+03</pdfrwt>
<totfact> 0.97348324E+03</totfact>
</mgrwt>
</event>
<event>
 5    1  0.3272646E-002  0.1250008E+03  0.7818608E-02  0.1235068E+00
          4   -1    0    0  501    0  0.00000000000E+00  0.00000000000E+00  0.50434683903E+03  0.50434843802E+03  0.12700000000E+01 0. -1.
         -4   -1    0    0    0  501 -0.00000000000E+00 -0.00000000000E+00 -0.76915815868E+01  0.77957249379E+01  0.12700000000E+01 0. -1.
         25    2    1    2    0    0  0.00000000000E+00  0.00000000000E+00  0.49665525744E+03  0.51214416296E+03  0.12500079565E+03 0.  0.
    9000005    1    3    3    0    0 -0.27905202138E+02  0.40265259927E+02  0.89366047914E+02  0.10191801599E+03  0.10000000000E+01 0.  0.
    9000005    1    3    3    0    0  0.27905202138E+02 -0.40265259927E+02  0.40728920952E+03  0.41022614697E+03  0.10000000000E+01 0.  0.
<mgrwt>
<rscale>  0 0.12500080E+03</rscale>
<asrwt>0</asrwt>
<pdfrwt beam="1">  1        4 0.77599977E-01 0.12500080E+03</pdfrwt>
<pdfrwt beam="2">  1       -4 0.11914539E-02 0.12500080E+03</pdfrwt>
<totfact> 0.54933316E+03</totfact>
</mgrwt>
</event>
<event>
 5    1  0.3272646E-002  0.1250004E+03  0.7818608E-02  0.1235069E+00
         -4   -1    0    0    0  501 -0.00000000000E+00  0.00000000000E+00  0.11437498812E+02  0.11507792102E+02  0.12700000000E+01 0. -1.
          4   -1    0    0  501    0  0.00000000000E+00 -0.00000000000E+00 -0.34041467595E+03  0.34041704496E+03  0.12700000000E+01 0. -1.
         25    2    1    2    0    0  0.00000000000E+00  0.00000000000E+00 -0.32897717713E+03  0.35192483706E+03  0.12500043146E+03 0.  0.
    9000005    1    3    3    0    0 -0.53576200800E+02  0.30824681517E+02 -0.13857680869E+03  0.15174024578E+03  0.10000000000E+01 0.  0.
    9000005    1    3    3    0    0  0.53576200800E+02 -0.30824681517E+02 -0.19040036845E+03  0.20018459128E+03  0.10000000000E+01 0.  0.
<mgrwt>
<rscale>  0 0.12500043E+03</rscale>
<asrwt>0</asrwt>
<pdfrwt beam="2">  1        4 0.52377070E-01 0.12500043E+03</pdfrwt>
<pdfrwt beam="1">  1       -4 0.17652049E-02 0.12500043E+03</pdfrwt>
<totfact> 0.69512658E+03</totfact>
</mgrwt>
</event>
<event>
 5    1  0.3272646E-002  0.1249963E+03  0.7818608E-02  0.1235075E+00
         -4   -1    0    0    0  501 -0.00000000000E+00  0.00000000000E+00  0.95654499369E+03  0.95654583678E+03  0.12700000000E+01 0. -1.
          4   -1    0    0  501    0  0.00000000000E+00 -0.00000000000E+00 -0.39838574450E+01  0.41813897382E+01  0.12700000000E+01 0. -1.
         25    2    1    2    0    0  0.00000000000E+00  0.00000000000E+00  0.95256113624E+03  0.96072722651E+03  0.12499634187E+03 0.  0.
    9000005    1    3    3    0    0  0.54564961389E+02 -0.75263192923E+01  0.24943930152E+03  0.25545047590E+03  0.10000000000E+01 0.  0.
    9000005    1    3    3    0    0 -0.54564961389E+02  0.75263192923E+01  0.70312183472E+03  0.70527675062E+03  0.10000000000E+01 0.  0.
<mgrwt>
<rscale>  0 0.12499634E+03</rscale>
<asrwt>0</asrwt>
<pdfrwt beam="2">  1        4 0.62816160E-03 0.12499634E+03</pdfrwt>
<pdfrwt beam="1">  1       -4 0.14717584E+00 0.12499634E+03</pdfrwt>
<totfact> 0.31940738E+03</totfact>
</mgrwt>
</event>
<event>
 5    1  0.3272646E-002  0.1249924E+03  0.7818608E-02  0.1235081E+00
         -4   -1    0    0    0  501 -0.00000000000E+00  0.00000000000E+00  0.22138016064E+03  0.22138380343E+03  0.12700000000E+01 0. -1.
          4   -1    0    0  501    0  0.00000000000E+00 -0.00000000000E+00 -0.17616202136E+02  0.17661921688E+02  0.12700000000E+01 0. -1.
         25    2    1    2    0    0  0.00000000000E+00  0.00000000000E+00  0.20376395850E+03  0.23904572512E+03  0.12499243143E+03 0.  0.
    9000005    1    3    3    0    0  0.76921619513E+01  0.12373528738E+02  0.21809578344E+03  0.21858418132E+03  0.10000000000E+01 0.  0.
    9000005    1    3    3    0    0 -0.76921619513E+01 -0.12373528738E+02 -0.14331824937E+02  0.20461543806E+02  0.10000000000E+01 0.  0.
<mgrwt>
<rscale>  0 0.12499243E+03</rscale>
<asrwt>0</asrwt>
<pdfrwt beam="2">  1        4 0.27139821E-02 0.12499243E+03</pdfrwt>
<pdfrwt beam="1">  1       -4 0.34062283E-01 0.12499243E+03</pdfrwt>
<totfact> 0.83953860E+03</totfact>
</mgrwt>
</event>
<event>
 5    1  0.3272646E-002  0.1250366E+03  0.7818608E-02  0.1235012E+00
          4   -1    0    0  501    0  0.00000000000E+00  0.00000000000E+00  0.14030286547E+03  0.14030861328E+03  0.12700000000E+01 0.  1.
         -4   -1    0    0    0  501 -0.00000000000E+00 -0.00000000000E+00 -0.27837083803E+02  0.27866039091E+02  0.12700000000E+01 0.  1.
         25    2    1    2    0    0  0.00000000000E+00  0.00000000000E+00  0.11246578167E+03  0.16817465237E+03  0.12503664124E+03 0.  0.
    9000005    1    3    3    0    0 -0.36022058203E+02  0.49536383955E+02  0.73037269773E+02  0.95325152968E+02  0.10000000000E+01 0.  0.
    9000005    1    3    3    0    0  0.36022058203E+02 -0.49536383955E+02  0.39428511898E+02  0.72849499401E+02  0.10000000000E+01 0.  0.
<mgrwt>
<rscale>  0 0.12503664E+03</rscale>
<asrwt>0</asrwt>
<pdfrwt beam="1">  1        4 0.21587725E-01 0.12503664E+03</pdfrwt>
<pdfrwt beam="2">  1       -4 0.42852979E-02 0.12503664E+03</pdfrwt>
<totfact> 0.95710742E+03</totfact>
</mgrwt>
</event>
<event>
 5    1  0.3272646E-002  0.1250010E+03  0.7818608E-02  0.1235068E+00
         -4   -1    0    0    0  501 -0.00000000000E+00  0.00000000000E+00  0.59554348148E+01  0.60893434649E+01  0.12700000000E+01 0.  1.
          4   -1    0    0  501    0  0.00000000000E+00 -0.00000000000E+00 -0.64849743481E+03  0.64849867838E+03  0.12700000000E+01 0.  1.
         25    2    1    2    0    0  0.00000000000E+00  0.00000000000E+00 -0.64254200000E+03  0.65458802184E+03  0.12500102631E+03 0.  0.
    9000005    1    3    3    0    0  0.29844979950E+02  0.19544136628E+01 -0.33932791665E+02  0.45243528942E+02  0.10000000000E+01 0.  0.
    9000005    1    3    3    0    0 -0.29844979950E+02 -0.19544136628E+01 -0.60860920833E+03  0.60934449290E+03  0.10000000000E+01 0.  0.
<mgrwt>
<rscale>  0 0.12500103E+03</rscale>
<asrwt>0</asrwt>
<pdfrwt beam="2">  1        4 0.99779177E-01 0.12500103E+03</pdfrwt>
<pdfrwt beam="1">  1       -4 0.92661758E-03 0.12500103E+03</pdfrwt>
<totfact> 0.45592473E+03</totfact>
</mgrwt>
</event>
<event>
 5    1  0.3272646E-002  0.1250292E+03  0.7818608E-02  0.1235024E+00
         -4   -1    0    0    0  501 -0.00000000000E+00  0.00000000000E+00  0.12861644916E+03  0.12862271920E+03  0.12700000000E+01 0.  1.
          4   -1    0    0  501    0  0.00000000000E+00 -0.00000000000E+00 -0.30365206301E+02  0.30391753054E+02  0.12700000000E+01 0.  1.
         25    2    1    2    0    0  0.00000000000E+00  0.00000000000E+00  0.98251242861E+02  0.15901447226E+03  0.12502917925E+03 0.  0.
    9000005    1    3    3    0    0 -0.19230928728E+02 -0.55959348417E+02  0.23505600213E+02  0.63677237192E+02  0.10000000000E+01 0.  0.
    9000005    1    3    3    0    0  0.19230928728E+02  0.55959348417E+02  0.74745642648E+02  0.95337235065E+02  0.10000000000E+01 0.  0.
<mgrwt>
<rscale>  0 0.12502918E+03</rscale>
<asrwt>0</asrwt>
<pdfrwt beam="2">  1        4 0.46740946E-02 0.12502918E+03</pdfrwt>
<pdfrwt beam="1">  1       -4 0.19789670E-01 0.12502918E+03</pdfrwt>
<totfact> 0.97469175E+03</totfact>
</mgrwt>
</event>
<event>
 4    1  0.3272646E-002  0.1238899E+03  0.7818608E-02  0.1236815E+00
          4   -1    0    0  501    0  0.00000000000E+00  0.00000000000E+00  0.18801190661E+03  0.18801619591E+03  0.12700000000E+01 0. -1.
         -4   -1    0    0    0  501 -0.00000000000E+00 -0.00000000000E+00 -0.20384924257E+02  0.20424447042E+02  0.12700000000E+01 0. -1.
    9000005    1    1    2    0    0  0.25349876094E+02 -0.31780022557E+02  0.51936774005E+01  0.40994637901E+02  0.10000000000E+01 0.  0.
    9000005    1    1    2    0    0 -0.25349876094E+02  0.31780022557E+02  0.16243330495E+03  0.16744600505E+03  0.10000000000E+01 0.  0.
<mgrwt>
<rscale>  0 0.12388986E+03</rscale>
<asrwt>0</asrwt>
<pdfrwt beam="1">  1        4 0.28928279E-01 0.12388986E+03</pdfrwt>
<pdfrwt beam="2">  1       -4 0.31395123E-02 0.12388986E+03</pdfrwt>
<totfact> 0.90970170E+03</totfact>
</mgrwt>
</event>
<event>
 5    1  0.3272646E-002  0.1249938E+03  0.7818608E-02  0.1235079E+00
          4   -1    0    0  501    0  0.00000000000E+00  0.00000000000E+00  0.21418837291E+02  0.21456455692E+02  0.12700000000E+01 0. -1.
         -4   -1    0    0    0  501 -0.00000000000E+00 -0.00000000000E+00 -0.18215647567E+03  0.18216090285E+03  0.12700000000E+01 0. -1.
         25    2    1    2    0    0  0.00000000000E+00  0.00000000000E+00 -0.16073763838E+03  0.20361735854E+03  0.12499376108E+03 0.  0.
    9000005    1    3    3    0    0 -0.27187610306E+02 -0.54532531660E+02 -0.57802513955E+02  0.83994605677E+02  0.10000000000E+01 0.  0.
    9000005    1    3    3    0    0  0.27187610306E+02  0.54532531660E+02 -0.10293512442E+03  0.11962275286E+03  0.10000000000E+01 0.  0.
<mgrwt>
<rscale>  0 0.12499376E+03</rscale>
<asrwt>0</asrwt>
<pdfrwt beam="1">  1        4 0.32984401E-02 0.12499376E+03</pdfrwt>
<pdfrwt beam="2">  1       -4 0.28027306E-01 0.12499376E+03</pdfrwt>
<totfact> 0.89541472E+03</totfact>
</mgrwt>
</event>
<event>
 5    1  0.3272646E-002  0.1250380E+03  0.7818608E-02  0.1235010E+00
          4   -1    0    0  501    0  0.00000000000E+00  0.00000000000E+00  0.17172664484E+03  0.17173134090E+03  0.12700000000E+01 0. -1.
         -4   -1    0    0    0  501 -0.00000000000E+00 -0.00000000000E+00 -0.22738016518E+02  0.22773455934E+02  0.12700000000E+01 0. -1.
         25    2    1    2    0    0  0.00000000000E+00  0.00000000000E+00  0.14898862832E+03  0.19450479684E+03  0.12503801271E+03 0.  0.
    9000005    1    3    3    0    0  0.32149756594E+02 -0.29880430920E+02  0.14373320921E+03  0.15028866368E+03  0.10000000000E+01 0.  0.
    9000005    1    3    3    0    0 -0.32149756594E+02  0.29880430920E+02  0.52554191092E+01  0.44216133153E+02  0.10000000000E+01 0.  0.
<mgrwt>
<rscale>  0 0.12503801E+03</rscale>
<asrwt>0</asrwt>
<pdfrwt beam="1">  1        4 0.26422571E-01 0.12503801E+03</pdfrwt>
<pdfrwt beam="2">  1       -4 0.35012437E-02 0.12503801E+03</pdfrwt>
<totfact> 0.90991882E+03</totfact>
</mgrwt>
</event>
<event>
 5    1  0.3272646E-002  0.1249933E+03  0.7818608E-02  0.1235080E+00
          4   -1    0    0  501    0  0.00000000000E+00  0.00000000000E+00  0.26736414978E+03  0.26736716606E+03  0.12700000000E+01 0.  1.
         -4   -1    0    0    0  501 -0.00000000000E+00 -0.00000000000E+00 -0.14577944650E+02  0.14633159953E+02  0.12700000000E+01 0.  1.
         25    2    1    2    0    0  0.00000000000E+00  0.00000000000E+00  0.25278620513E+03  0.28200032602E+03  0.12499327329E+03 0.  0.
    9000005    1    3    3    0    0  0.51894681556E+02  0.27193201971E+02  0.17542430889E+03  0.18495192986E+03  0.10000000000E+01 0.  0.
    9000005    1    3    3    0    0 -0.51894681556E+02 -0.27193201971E+02  0.77361896239E+02  0.97048396159E+02  0.10000000000E+01 0.  0.
<mgrwt>
<rscale>  0 0.12499327E+03</rscale>
<asrwt>0</asrwt>
<pdfrwt beam="1">  1        4 0.41137424E-01 0.12499327E+03</pdfrwt>
<pdfrwt beam="2">  1       -4 0.22472401E-02 0.12499327E+03</pdfrwt>
<totfact> 0.77925271E+03</totfact>
</mgrwt>
</event>
<event>
 5    1  0.3272646E-002  0.1250127E+03  0.7818608E-02  0.1235049E+00
         -4   -1    0    0    0  501 -0.00000000000E+00  0.00000000000E+00  0.46794282124E+02  0.46811512895E+02  0.12700000000E+01 0.  1.
          4   -1    0    0  501    0  0.00000000000E+00 -0.00000000000E+00 -0.83456575089E+02  0.83466237639E+02  0.12700000000E+01 0.  1.
         25    2    1    2    0    0  0.00000000000E+00  0.00000000000E+00 -0.36662292965E+02  0.13027775053E+03  0.12501267359E+03 0.  0.
    9000005    1    3    3    0    0 -0.91882582792E+01 -0.25316132334E+02  0.40441919493E+02  0.48599171792E+02  0.10000000000E+01 0.  0.
    9000005    1    3    3    0    0  0.91882582792E+01  0.25316132334E+02 -0.77104212458E+02  0.81678578742E+02  0.10000000000E+01 0.  0.
<mgrwt>
<rscale>  0 0.12501267E+03</rscale>
<asrwt>0</asrwt>
<pdfrwt beam="2">  1        4 0.12841542E-01 0.12501267E+03</pdfrwt>
<pdfrwt beam="1">  1       -4 0.72011890E-02 0.12501267E+03</pdfrwt>
<totfact> 0.10335613E+04</totfact>
</mgrwt>
</event>
<event>
 5    1  0.3272646E-002  0.1250007E+03  0.7818608E-02  0.1235068E+00
          4   -1    0    0  501    0  0.00000000000E+00  0.00000000000E+00  0.11110293414E+03  0.11111019249E+03  0.12700000000E+01 0. -1.
         -4   -1    0    0    0  501 -0.00000000000E+00 -0.00000000000E+00 -0.35139345400E+02  0.35162287968E+02  0.12700000000E+01 0. -1.
         25    2    1    2    0    0  0.00000000000E+00  0.00000000000E+00  0.75963588739E+02  0.14627248045E+03  0.12500068690E+03 0.  0.
    9000005    1    3    3    0    0 -0.73844803557E+01  0.61561066456E+02  0.47120951945E+02  0.77882472774E+02  0.10000000000E+01 0.  0.
    9000005    1    3    3    0    0  0.73844803557E+01 -0.61561066456E+02  0.28842636794E+02  0.68390007680E+02  0.10000000000E+01 0.  0.
<mgrwt>
<rscale>  0 0.12500069E+03</rscale>
<asrwt>0</asrwt>
<pdfrwt beam="1">  1        4 0.17095082E-01 0.12500069E+03</pdfrwt>
<pdfrwt beam="2">  1       -4 0.54083763E-02 0.12500069E+03</pdfrwt>
<totfact> 0.10005044E+04</totfact>
</mgrwt>
</event>
<event>
 5    1  0.3272646E-002  0.1250005E+03  0.7818608E-02  0.1235069E+00
         -4   -1    0    0    0  501 -0.00000000000E+00  0.00000000000E+00  0.10688836179E+03  0.10689590631E+03  0.12700000000E+01 0. -1.
          4   -1    0    0  501    0  0.00000000000E+00 -0.00000000000E+00 -0.36525532180E+02  0.36547604587E+02  0.12700000000E+01 0. -1.
         25    2    1    2    0    0  0.00000000000E+00  0.00000000000E+00  0.70362829609E+02  0.14344351090E+03  0.12500045211E+03 0.  0.
    9000005    1    3    3    0    0  0.16498710263E+02 -0.54529856259E+02  0.57101809426E+01  0.57265337075E+02  0.10000000000E+01 0.  0.
    9000005    1    3    3    0    0 -0.16498710263E+02  0.54529856259E+02  0.64652648667E+02  0.86178173823E+02  0.10000000000E+01 0.  0.
<mgrwt>
<rscale>  0 0.12500045E+03</rscale>
<asrwt>0</asrwt>
<pdfrwt beam="2">  1        4 0.56215908E-02 0.12500045E+03</pdfrwt>
<pdfrwt beam="1">  1       -4 0.16446642E-01 0.12500045E+03</pdfrwt>
<totfact> 0.10062607E+04</totfact>
</mgrwt>
</event>
<event>
 5    1  0.3272646E-002  0.1250147E+03  0.7818608E-02  0.1235046E+00
         -4   -1    0    0    0  501 -0.00000000000E+00  0.00000000000E+00  0.35762679473E+02  0.35785222412E+02  0.12700000000E+01 0.  1.
          4   -1    0    0  501    0  0.00000000000E+00 -0.00000000000E+00 -0.10919209215E+03  0.10919947751E+03  0.12700000000E+01 0.  1.
         25    2    1    2    0    0  0.00000000000E+00  0.00000000000E+00 -0.73429412674E+02  0.14498469992E+03  0.12501473739E+03 0.  0.
    9000005    1    3    3    0    0 -0.78299203490E+01  0.19723410067E+02 -0.10489179310E+03  0.10702153436E+03  0.10000000000E+01 0.  0.
    9000005    1    3    3    0    0  0.78299203490E+01 -0.19723410067E+02  0.31462380423E+02  0.37963165558E+02  0.10000000000E+01 0.  0.
<mgrwt>
<rscale>  0 0.12501474E+03</rscale>
<asrwt>0</asrwt>
<pdfrwt beam="2">  1        4 0.16801085E-01 0.12501474E+03</pdfrwt>
<pdfrwt beam="1">  1       -4 0.55042529E-02 0.12501474E+03</pdfrwt>
<totfact> 0.10027971E+04</totfact>
</mgrwt>
</event>
<event>
 5    1  0.3272646E-002  0.1250000E+03  0.7818608E-02  0.1235069E+00
         -4   -1    0    0    0  501 -0.00000000000E+00  0.00000000000E+00  0.45234910809E+02  0.45252735342E+02  0.12700000000E+01 0.  1.
          4   -1    0    0  501    0  0.00000000000E+00 -0.00000000000E+00 -0.86315266564E+02  0.86324609133E+02  0.12700000000E+01 0.  1.
         25    2    1    2    0    0  0.00000000000E+00  0.00000000000E+00 -0.41080355754E+02  0.13157734448E+03  0.12500000780E+03 0.  0.
    9000005    1    3    3    0    0  0.22351305948E+02 -0.57452295135E+02 -0.31321346686E+02  0.69154709543E+02  0.10000000000E+01 0.  0.
    9000005    1    3    3    0    0 -0.22351305948E+02  0.57452295135E+02 -0.97590090686E+01  0.62422634932E+02  0.10000000000E+01 0.  0.
<mgrwt>
<rscale>  0 0.12500001E+03</rscale>
<asrwt>0</asrwt>
<pdfrwt beam="2">  1        4 0.13281361E-01 0.12500001E+03</pdfrwt>
<pdfrwt beam="1">  1       -4 0.69613069E-02 0.12500001E+03</pdfrwt>
<totfact> 0.10310726E+04</totfact>
</mgrwt>
</event>
<event>
 5    1  0.3272646E-002  0.1250083E+03  0.7818608E-02  0.1235056E+00
         -4   -1    0    0    0  501 -0.00000000000E+00  0.00000000000E+00  0.17522465439E+02  0.17568428930E+02  0.12700000000E+01 0.  1.
          4   -1    0    0  501    0  0.00000000000E+00 -0.00000000000E+00 -0.22261799086E+03  0.22262161340E+03  0.12700000000E+01 0.  1.
         25    2    1    2    0    0  0.00000000000E+00  0.00000000000E+00 -0.20509552542E+03  0.24019004233E+03  0.12500832728E+03 0.  0.
    9000005    1    3    3    0    0 -0.94605344662E+01  0.60835281511E+02 -0.81912931844E+02  0.10247517549E+03  0.10000000000E+01 0.  0.
    9000005    1    3    3    0    0  0.94605344662E+01 -0.60835281511E+02 -0.12318259358E+03  0.13771486684E+03  0.10000000000E+01 0.  0.
<mgrwt>
<rscale>  0 0.12500833E+03</rscale>
<asrwt>0</asrwt>
<pdfrwt beam="2">  1        4 0.34252734E-01 0.12500833E+03</pdfrwt>
<pdfrwt beam="1">  1       -4 0.26995784E-02 0.12500833E+03</pdfrwt>
<totfact> 0.83753524E+03</totfact>
</mgrwt>
</event>
<event>
 5    1  0.3272646E-002  0.1250045E+03  0.7818608E-02  0.1235062E+00
         -4   -1    0    0    0  501 -0.00000000000E+00  0.00000000000E+00  0.10292204742E+03  0.10292988267E+03  0.12700000000E+01 0.  1.
          4   -1    0    0  501    0  0.00000000000E+00 -0.00000000000E+00 -0.37936327291E+02  0.37957579327E+02  0.12700000000E+01 0.  1.
         25    2    1    2    0    0  0.00000000000E+00  0.00000000000E+00  0.64985720130E+02  0.14088746199E+03  0.12500453242E+03 0.  0.
    9000005    1    3    3    0    0  0.17437859684E+02  0.39663243065E+02  0.83251584333E+02  0.93856689131E+02  0.10000000000E+01 0.  0.
    9000005    1    3    3    0    0 -0.17437859684E+02 -0.39663243065E+02 -0.18265864202E+02  0.47030772861E+02  0.10000000000E+01 0.  0.
<mgrwt>
<rscale>  0 0.12500453E+03</rscale>
<asrwt>0</asrwt>
<pdfrwt beam="2">  1        4 0.58385956E-02 0.12500453E+03</pdfrwt>
<pdfrwt beam="1">  1       -4 0.15836398E-01 0.12500453E+03</pdfrwt>
<totfact> 0.10114193E+04</totfact>
</mgrwt>
</event>
<event>
 5    1  0.3272646E-002  0.1250001E+03  0.7818608E-02  0.1235069E+00
         -4   -1    0    0    0  501 -0.00000000000E+00  0.00000000000E+00  0.97473134250E+02  0.97481407460E+02  0.12700000000E+01 0. -1.
          4   -1    0    0  501    0  0.00000000000E+00 -0.00000000000E+00 -0.40055154752E+02  0.40075283183E+02  0.12700000000E+01 0. -1.
         25    2    1    2    0    0  0.00000000000E+00  0.00000000000E+00  0.57417979498E+02  0.13755669064E+03  0.12500007508E+03 0.  0.
    9000005    1    3    3    0    0  0.80778546722E+01 -0.33231121969E+02 -0.28848960871E+02  0.44752896518E+02  0.10000000000E+01 0.  0.
    9000005    1    3    3    0    0 -0.80778546722E+01  0.33231121969E+02  0.86266940369E+02  0.92803794125E+02  0.10000000000E+01 0.  0.
<mgrwt>
<rscale>  0 0.12500008E+03</rscale>
<asrwt>0</asrwt>
<pdfrwt beam="2">  1        4 0.61645164E-02 0.12500008E+03</pdfrwt>
<pdfrwt beam="1">  1       -4 0.14998051E-01 0.12500008E+03</pdfrwt>
<totfact> 0.10184442E+04</totfact>
</mgrwt>
</event>
<event>
 5    1  0.3272646E-002  0.1250165E+03  0.7818608E-02  0.1235043E+00
         -4   -1    0    0    0  501 -0.00000000000E+00  0.00000000000E+00  0.30768079930E+02  0.30794279381E+02  0.12700000000E+01 0.  1.
          4   -1    0    0  501    0  0.00000000000E+00 -0.00000000000E+00 -0.12690806484E+03  0.12691441929E+03  0.12700000000E+01 0.  1.
         25    2    1    2    0    0  0.00000000000E+00  0.00000000000E+00 -0.96139984915E+02  0.15770869867E+03  0.12501654665E+03 0.  0.
    9000005    1    3    3    0    0 -0.42126158870E+02  0.24818561264E+01  0.10089400587E+02  0.43400102249E+02  0.10000000000E+01 0.  0.
    9000005    1    3    3    0    0  0.42126158870E+02 -0.24818561264E+01 -0.10622938550E+03  0.11430859642E+03  0.10000000000E+01 0.  0.
<mgrwt>
<rscale>  0 0.12501655E+03</rscale>
<asrwt>0</asrwt>
<pdfrwt beam="2">  1        4 0.19526822E-01 0.12501655E+03</pdfrwt>
<pdfrwt beam="1">  1       -4 0.47360550E-02 0.12501655E+03</pdfrwt>
<totfact> 0.97749988E+03</totfact>
</mgrwt>
</event>
<event>
 5    1  0.3272646E-002  0.1250011E+03  0.7818608E-02  0.1235068E+00
         -4   -1    0    0    0  501 -0.00000000000E+00  0.00000000000E+00  0.32714820753E+02  0.32739462380E+02  0.12700000000E+01 0.  1.
          4   -1    0    0  501    0  0.00000000000E+00 -0.00000000000E+00 -0.11933220999E+03  0.11933896782E+03  0.12700000000E+01 0.  1.
         25    2    1    2    0    0  0.00000000000E+00  0.00000000000E+00 -0.86617389238E+02  0.15207843020E+03  0.12500110726E+03 0.  0.
    9000005    1    3    3    0    0 -0.19602080541E+02  0.40456750665E+02  0.95032456335E+01  0.45959785829E+02  0.10000000000E+01 0.  0.
    9000005    1    3    3    0    0  0.19602080541E+02 -0.40456750665E+02 -0.96120634872E+02  0.10611864438E+03  0.10000000000E+01 0.  0.
<mgrwt>
<rscale>  0 0.12500111E+03</rscale>
<asrwt>0</asrwt>
<pdfrwt beam="2">  1        4 0.18361217E-01 0.12500111E+03</pdfrwt>
<pdfrwt beam="1">  1       -4 0.50354648E-02 0.12500111E+03</pdfrwt>
<totfact> 0.98888533E+03</totfact>
</mgrwt>
</event>
<event>
 5    1  0.3272646E-002  0.1249983E+03  0.7818608E-02  0.1235072E+00
          4   -1    0    0  501    0  0.00000000000E+00  0.00000000000E+00  0.16798370844E+02  0.16846310072E+02  0.12700000000E+01 0.  1.
         -4   -1    0    0    0  501 -0.00000000000E+00 -0.00000000000E+00 -0.23215020592E+03  0.23215367972E+03  0.12700000000E+01 0.  1.
         25    2    1    2    0    0  0.00000000000E+00  0.00000000000E+00 -0.21535183507E+03  0.24899998979E+03  0.12499832818E+03 0.  0.
    9000005    1    3    3    0    0  0.33743622479E+01 -0.50529538119E+02 -0.18061034509E+03  0.18757856299E+03  0.10000000000E+01 0.  0.
    9000005    1    3    3    0    0 -0.33743622479E+01  0.50529538119E+02 -0.34741489985E+02  0.61421426794E+02  0.10000000000E+01 0.  0.
<mgrwt>
<rscale>  0 0.12499833E+03</rscale>
<asrwt>0</asrwt>
<pdfrwt beam="1">  1        4 0.25883198E-02 0.12499833E+03</pdfrwt>
<pdfrwt beam="2">  1       -4 0.35719369E-01 0.12499833E+03</pdfrwt>
<totfact> 0.82478048E+03</totfact>
</mgrwt>
</event>
<event>
 5    1  0.3272646E-002  0.1249982E+03  0.7818608E-02  0.1235072E+00
          4   -1    0    0  501    0  0.00000000000E+00  0.00000000000E+00  0.89952162083E+01  0.90844270394E+01  0.12700000000E+01 0.  1.
         -4   -1    0    0    0  501 -0.00000000000E+00 -0.00000000000E+00 -0.43201323271E+03  0.43201509943E+03  0.12700000000E+01 0.  1.
         25    2    1    2    0    0  0.00000000000E+00  0.00000000000E+00 -0.42301801650E+03  0.44109952647E+03  0.12499819986E+03 0.  0.
    9000005    1    3    3    0    0  0.42662382883E+02  0.40616157401E+02 -0.13787639215E+03  0.14993548835E+03  0.10000000000E+01 0.  0.
    9000005    1    3    3    0    0 -0.42662382883E+02 -0.40616157401E+02 -0.28514162435E+03  0.29116403812E+03  0.10000000000E+01 0.  0.
<mgrwt>
<rscale>  0 0.12499820E+03</rscale>
<asrwt>0</asrwt>
<pdfrwt beam="1">  1        4 0.13908857E-02 0.12499820E+03</pdfrwt>
<pdfrwt beam="2">  1       -4 0.66470564E-01 0.12499820E+03</pdfrwt>
<totfact> 0.60745030E+03</totfact>
</mgrwt>
</event>
<event>
 5    1  0.3272646E-002  0.1249996E+03  0.7818608E-02  0.1235070E+00
          4   -1    0    0  501    0  0.00000000000E+00  0.00000000000E+00  0.17746458693E+03  0.17746913116E+03  0.12700000000E+01 0. -1.
         -4   -1    0    0    0  501 -0.00000000000E+00 -0.00000000000E+00 -0.21988129842E+02  0.22024775912E+02  0.12700000000E+01 0. -1.
         25    2    1    2    0    0  0.00000000000E+00  0.00000000000E+00  0.15547645709E+03  0.19949390707E+03  0.12499956100E+03 0.  0.
    9000005    1    3    3    0    0  0.15338227009E+02  0.34595899122E+02  0.15710535933E+03  0.16160207726E+03  0.10000000000E+01 0.  0.
    9000005    1    3    3    0    0 -0.15338227009E+02 -0.34595899122E+02 -0.16289022441E+01  0.37891829810E+02  0.10000000000E+01 0.  0.
<mgrwt>
<rscale>  0 0.12499956E+03</rscale>
<asrwt>0</asrwt>
<pdfrwt beam="1">  1        4 0.27305412E-01 0.12499956E+03</pdfrwt>
<pdfrwt beam="2">  1       -4 0.33859578E-02 0.12499956E+03</pdfrwt>
<totfact> 0.90221820E+03</totfact>
</mgrwt>
</event>
<event>
 5    1  0.3272646E-002  0.1249968E+03  0.7818608E-02  0.1235074E+00
         -4   -1    0    0    0  501 -0.00000000000E+00  0.00000000000E+00  0.12017628871E+02  0.12084548137E+02  0.12700000000E+01 0.  1.
          4   -1    0    0  501    0  0.00000000000E+00 -0.00000000000E+00 -0.32405603960E+03  0.32405852820E+03  0.12700000000E+01 0.  1.
         25    2    1    2    0    0  0.00000000000E+00  0.00000000000E+00 -0.31203841073E+03  0.33614307634E+03  0.12499679197E+03 0.  0.
    9000005    1    3    3    0    0  0.56956088921E+02 -0.14007671537E+02 -0.21399896134E+03  0.22189359247E+03  0.10000000000E+01 0.  0.
    9000005    1    3    3    0    0 -0.56956088921E+02  0.14007671537E+02 -0.98039449389E+02  0.11424948387E+03  0.10000000000E+01 0.  0.
<mgrwt>
<rscale>  0 0.12499679E+03</rscale>
<asrwt>0</asrwt>
<pdfrwt beam="2">  1        4 0.49860108E-01 0.12499679E+03</pdfrwt>
<pdfrwt beam="1">  1       -4 0.18542053E-02 0.12499679E+03</pdfrwt>
<totfact> 0.71281447E+03</totfact>
</mgrwt>
</event>
<event>
 5    1  0.3272646E-002  0.1249996E+03  0.7818608E-02  0.1235070E+00
         -4   -1    0    0    0  501 -0.00000000000E+00  0.00000000000E+00  0.96375521291E+02  0.96383888717E+02  0.12700000000E+01 0. -1.
          4   -1    0    0  501    0  0.00000000000E+00 -0.00000000000E+00 -0.40511223971E+02  0.40531125911E+02  0.12700000000E+01 0. -1.
         25    2    1    2    0    0  0.00000000000E+00  0.00000000000E+00  0.55864297320E+02  0.13691501463E+03  0.12499960606E+03 0.  0.
    9000005    1    3    3    0    0 -0.39532315776E+02  0.43978113550E+02  0.50066004309E+02  0.77488600771E+02  0.10000000000E+01 0.  0.
    9000005    1    3    3    0    0  0.39532315776E+02 -0.43978113550E+02  0.57982930111E+01  0.59426413857E+02  0.10000000000E+01 0.  0.
<mgrwt>
<rscale>  0 0.12499961E+03</rscale>
<asrwt>0</asrwt>
<pdfrwt beam="2">  1        4 0.62346707E-02 0.12499961E+03</pdfrwt>
<pdfrwt beam="1">  1       -4 0.14829178E-01 0.12499961E+03</pdfrwt>
<totfact> 0.10197954E+04</totfact>
</mgrwt>
</event>
<event>
 5    1  0.3272646E-002  0.1250041E+03  0.7818608E-02  0.1235063E+00
          4   -1    0    0  501    0  0.00000000000E+00  0.00000000000E+00  0.10406764785E+02  0.10483971256E+02  0.12700000000E+01 0. -1.
         -4   -1    0    0    0  501 -0.00000000000E+00 -0.00000000000E+00 -0.37391559159E+03  0.37391774836E+03  0.12700000000E+01 0. -1.
         25    2    1    2    0    0  0.00000000000E+00  0.00000000000E+00 -0.36350882681E+03  0.38440171961E+03  0.12500405943E+03 0.  0.
    9000005    1    3    3    0    0 -0.26492179619E+02  0.52475288905E+02 -0.24698831364E+03  0.25388918567E+03  0.10000000000E+01 0.  0.
    9000005    1    3    3    0    0  0.26492179619E+02 -0.52475288905E+02 -0.11652051317E+03  0.13051253394E+03  0.10000000000E+01 0.  0.
<mgrwt>
<rscale>  0 0.12500406E+03</rscale>
<asrwt>0</asrwt>
<pdfrwt beam="1">  1        4 0.16071459E-02 0.12500406E+03</pdfrwt>
<pdfrwt beam="2">  1       -4 0.57531570E-01 0.12500406E+03</pdfrwt>
<totfact> 0.66092746E+03</totfact>
</mgrwt>
</event>
<event>
 5    1  0.3272646E-002  0.1249908E+03  0.7818608E-02  0.1235084E+00
         -4   -1    0    0    0  501 -0.00000000000E+00  0.00000000000E+00  0.47087701227E+01  0.48770294307E+01  0.12700000000E+01 0.  1.
          4   -1    0    0  501    0  0.00000000000E+00 -0.00000000000E+00 -0.81471924891E+03  0.81472023876E+03  0.12700000000E+01 0.  1.
         25    2    1    2    0    0  0.00000000000E+00  0.00000000000E+00 -0.81001047879E+03  0.81959726819E+03  0.12499082478E+03 0.  0.
    9000005    1    3    3    0    0  0.59165696489E+02  0.19936937922E+02 -0.42187083102E+03  0.42646694971E+03  0.10000000000E+01 0.  0.
    9000005    1    3    3    0    0 -0.59165696489E+02 -0.19936937922E+02 -0.38813964777E+03  0.39313031848E+03  0.10000000000E+01 0.  0.
<mgrwt>
<rscale>  0 0.12499082E+03</rscale>
<asrwt>0</asrwt>
<pdfrwt beam="2">  1        4 0.12535433E+00 0.12499082E+03</pdfrwt>
<pdfrwt beam="1">  1       -4 0.73744599E-03 0.12499082E+03</pdfrwt>
<totfact> 0.37412214E+03</totfact>
</mgrwt>
</event>
<event>
 5    1  0.3272646E-002  0.1250017E+03  0.7818608E-02  0.1235067E+00
          4   -1    0    0  501    0  0.00000000000E+00  0.00000000000E+00  0.51017073177E+02  0.51032878182E+02  0.12700000000E+01 0. -1.
         -4   -1    0    0    0  501 -0.00000000000E+00 -0.00000000000E+00 -0.76536645062E+02  0.76547181119E+02  0.12700000000E+01 0. -1.
         25    2    1    2    0    0  0.00000000000E+00  0.00000000000E+00 -0.25519571885E+02  0.12758005930E+03  0.12500169192E+03 0.  0.
    9000005    1    3    3    0    0 -0.37557028238E+02 -0.12392014771E+02  0.36624871013E+02  0.53911720218E+02  0.10000000000E+01 0.  0.
    9000005    1    3    3    0    0  0.37557028238E+02  0.12392014771E+02 -0.62144442898E+02  0.73668339083E+02  0.10000000000E+01 0.  0.
<mgrwt>
<rscale>  0 0.12500169E+03</rscale>
<asrwt>0</asrwt>
<pdfrwt beam="1">  1        4 0.78508067E-02 0.12500169E+03</pdfrwt>
<pdfrwt beam="2">  1       -4 0.11776895E-01 0.12500169E+03</pdfrwt>
<totfact> 0.10396170E+04</totfact>
</mgrwt>
</event>
<event>
 5    1  0.3272646E-002  0.1249979E+03  0.7818608E-02  0.1235073E+00
         -4   -1    0    0    0  501 -0.00000000000E+00  0.00000000000E+00  0.88292608400E+03  0.88292699738E+03  0.12700000000E+01 0.  1.
          4   -1    0    0  501    0  0.00000000000E+00 -0.00000000000E+00 -0.43319815485E+01  0.45143066064E+01  0.12700000000E+01 0.  1.
         25    2    1    2    0    0  0.00000000000E+00  0.00000000000E+00  0.87859410245E+03  0.88744130399E+03  0.12499788464E+03 0.  0.
    9000005    1    3    3    0    0 -0.17546059994E+02  0.52664066597E+02  0.64306440177E+03  0.64545657712E+03  0.10000000000E+01 0.  0.
    9000005    1    3    3    0    0  0.17546059994E+02 -0.52664066597E+02  0.23552970068E+03  0.24198472686E+03  0.10000000000E+01 0.  0.
<mgrwt>
<rscale>  0 0.12499788E+03</rscale>
<asrwt>0</asrwt>
<pdfrwt beam="2">  1        4 0.68055370E-03 0.12499788E+03</pdfrwt>
<pdfrwt beam="1">  1       -4 0.13584893E+00 0.12499788E+03</pdfrwt>
<totfact> 0.34643773E+03</totfact>
</mgrwt>
</event>
<event>
 5    1  0.3272646E-002  0.1250007E+03  0.7818608E-02  0.1235068E+00
         -4   -1    0    0    0  501 -0.00000000000E+00  0.00000000000E+00  0.34557461885E+02  0.34580790505E+02  0.12700000000E+01 0. -1.
          4   -1    0    0  501    0  0.00000000000E+00 -0.00000000000E+00 -0.11297253349E+03  0.11297967172E+03  0.12700000000E+01 0. -1.
         25    2    1    2    0    0  0.00000000000E+00  0.00000000000E+00 -0.78415071600E+02  0.14756046223E+03  0.12500066623E+03 0.  0.
    9000005    1    3    3    0    0 -0.31919589784E+02  0.29077403511E+02  0.14122561474E+02  0.45440096275E+02  0.10000000000E+01 0.  0.
    9000005    1    3    3    0    0  0.31919589784E+02 -0.29077403511E+02 -0.92537633074E+02  0.10212036595E+03  0.10000000000E+01 0.  0.
<mgrwt>
<rscale>  0 0.12500067E+03</rscale>
<asrwt>0</asrwt>
<pdfrwt beam="2">  1        4 0.17382733E-01 0.12500067E+03</pdfrwt>
<pdfrwt beam="1">  1       -4 0.53188763E-02 0.12500067E+03</pdfrwt>
<totfact> 0.99790728E+03</totfact>
</mgrwt>
</event>
<event>
 5    1  0.3272646E-002  0.1250020E+03  0.7818608E-02  0.1235066E+00
          4   -1    0    0  501    0  0.00000000000E+00  0.00000000000E+00  0.50187506401E+02  0.50203572570E+02  0.12700000000E+01 0.  1.
         -4   -1    0    0    0  501 -0.00000000000E+00 -0.00000000000E+00 -0.77801839444E+02  0.77812204189E+02  0.12700000000E+01 0.  1.
         25    2    1    2    0    0  0.00000000000E+00  0.00000000000E+00 -0.27614333042E+02  0.12801577676E+03  0.12500195082E+03 0.  0.
    9000005    1    3    3    0    0 -0.20101621654E+02  0.34925681446E+02 -0.62723773328E+02  0.74559708678E+02  0.10000000000E+01 0.  0.
    9000005    1    3    3    0    0  0.20101621654E+02 -0.34925681446E+02  0.35109440286E+02  0.53456068081E+02  0.10000000000E+01 0.  0.
<mgrwt>
<rscale>  0 0.12500195E+03</rscale>
<asrwt>0</asrwt>
<pdfrwt beam="1">  1        4 0.77231880E-02 0.12500195E+03</pdfrwt>
<pdfrwt beam="2">  1       -4 0.11971547E-01 0.12500195E+03</pdfrwt>
<totfact> 0.10386689E+04</totfact>
</mgrwt>
</event>
<event>
 5    1  0.3272646E-002  0.1250022E+03  0.7818608E-02  0.1235066E+00
          4   -1    0    0  501    0  0.00000000000E+00  0.00000000000E+00  0.49825260179E+02  0.49841443116E+02  0.12700000000E+01 0. -1.
         -4   -1    0    0    0  501 -0.00000000000E+00 -0.00000000000E+00 -0.78367657774E+02  0.78377947695E+02  0.12700000000E+01 0. -1.
         25    2    1    2    0    0  0.00000000000E+00  0.00000000000E+00 -0.28542397595E+02  0.12821939081E+03  0.12500217486E+03 0.  0.
    9000005    1    3    3    0    0 -0.31830307160E+02  0.51934840299E+02  0.52069610845E-01  0.60921250825E+02  0.10000000000E+01 0.  0.
    9000005    1    3    3    0    0  0.31830307160E+02 -0.51934840299E+02 -0.28594467206E+02  0.67298139986E+02  0.10000000000E+01 0.  0.
<mgrwt>
<rscale>  0 0.12500217E+03</rscale>
<asrwt>0</asrwt>
<pdfrwt beam="1">  1        4 0.76674610E-02 0.12500217E+03</pdfrwt>
<pdfrwt beam="2">  1       -4 0.12058599E-01 0.12500217E+03</pdfrwt>
<totfact> 0.10382243E+04</totfact>
</mgrwt>
</event>
<event>
 5    1  0.3272646E-002  0.1249981E+03  0.7818608E-02  0.1235072E+00
         -4   -1    0    0    0  501 -0.00000000000E+00  0.00000000000E+00  0.53144377827E+02  0.53159550361E+02  0.12700000000E+01 0.  1.
          4   -1    0    0  501    0  0.00000000000E+00 -0.00000000000E+00 -0.73469263277E+02  0.73480239156E+02  0.12700000000E+01 0.  1.
         25    2    1    2    0    0  0.00000000000E+00  0.00000000000E+00 -0.20324885451E+02  0.12663978952E+03  0.12499814127E+03 0.  0.
    9000005    1    3    3    0    0 -0.18544354784E+02 -0.57463896907E+02 -0.26471728084E+02  0.65937431932E+02  0.10000000000E+01 0.  0.
    9000005    1    3    3    0    0  0.18544354784E+02  0.57463896907E+02  0.61468426335E+01  0.60702357585E+02  0.10000000000E+01 0.  0.
<mgrwt>
<rscale>  0 0.12499814E+03</rscale>
<asrwt>0</asrwt>
<pdfrwt beam="2">  1        4 0.11304975E-01 0.12499814E+03</pdfrwt>
<pdfrwt beam="1">  1       -4 0.81780696E-02 0.12499814E+03</pdfrwt>
<totfact> 0.10417418E+04</totfact>
</mgrwt>
</event>
<event>
 5    1  0.3272646E-002  0.1250024E+03  0.7818608E-02  0.1235065E+00
         -4   -1    0    0    0  501 -0.00000000000E+00  0.00000000000E+00  0.50594579049E+03  0.50594738443E+03  0.12700000000E+01 0.  1.
          4   -1    0    0  501    0  0.00000000000E+00 -0.00000000000E+00 -0.76671487455E+01  0.77716195150E+01  0.12700000000E+01 0.  1.
         25    2    1    2    0    0  0.00000000000E+00  0.00000000000E+00  0.49827864174E+03  0.51371900395E+03  0.12500244077E+03 0.  0.
    9000005    1    3    3    0    0 -0.81913352655E+01 -0.24185396272E+02  0.48354813976E+03  0.48422291853E+03  0.10000000000E+01 0.  0.
    9000005    1    3    3    0    0  0.81913352655E+01  0.24185396272E+02  0.14730501989E+02  0.29496085420E+02  0.10000000000E+01 0.  0.
<mgrwt>
<rscale>  0 0.12500244E+03</rscale>
<asrwt>0</asrwt>
<pdfrwt beam="2">  1        4 0.11877202E-02 0.12500244E+03</pdfrwt>
<pdfrwt beam="1">  1       -4 0.77845972E-01 0.12500244E+03</pdfrwt>
<totfact> 0.54812492E+03</totfact>
</mgrwt>
</event>
<event>
 5    1  0.3272646E-002  0.1249996E+03  0.7818608E-02  0.1235070E+00
          4   -1    0    0  501    0  0.00000000000E+00  0.00000000000E+00  0.25032693776E+02  0.25064888942E+02  0.12700000000E+01 0. -1.
         -4   -1    0    0    0  501 -0.00000000000E+00 -0.00000000000E+00 -0.15590978999E+03  0.15591496245E+03  0.12700000000E+01 0. -1.
         25    2    1    2    0    0  0.00000000000E+00  0.00000000000E+00 -0.13087709622E+03  0.18097985139E+03  0.12499956918E+03 0.  0.
    9000005    1    3    3    0    0  0.59123774855E+02 -0.14050624426E+02 -0.86528532617E+02  0.10574132474E+03  0.10000000000E+01 0.  0.
    9000005    1    3    3    0    0 -0.59123774855E+02  0.14050624426E+02 -0.44348563600E+02  0.75238526655E+02  0.10000000000E+01 0.  0.
<mgrwt>
<rscale>  0 0.12499957E+03</rscale>
<asrwt>0</asrwt>
<pdfrwt beam="1">  1        4 0.38540582E-02 0.12499957E+03</pdfrwt>
<pdfrwt beam="2">  1       -4 0.23988995E-01 0.12499957E+03</pdfrwt>
<totfact> 0.93441826E+03</totfact>
</mgrwt>
</event>
<event>
 5    1  0.3272646E-002  0.1249991E+03  0.7818608E-02  0.1235071E+00
         -4   -1    0    0    0  501 -0.00000000000E+00  0.00000000000E+00  0.27130887223E+02  0.27160595382E+02  0.12700000000E+01 0. -1.
          4   -1    0    0  501    0  0.00000000000E+00 -0.00000000000E+00 -0.14386449491E+03  0.14387010042E+03  0.12700000000E+01 0. -1.
         25    2    1    2    0    0  0.00000000000E+00  0.00000000000E+00 -0.11673360769E+03  0.17103069580E+03  0.12499905497E+03 0.  0.
    9000005    1    3    3    0    0  0.29369792203E+02  0.51492381590E+02 -0.31306420957E+02  0.67045820518E+02  0.10000000000E+01 0.  0.
    9000005    1    3    3    0    0 -0.29369792203E+02 -0.51492381590E+02 -0.85427186728E+02  0.10398487529E+03  0.10000000000E+01 0.  0.
<mgrwt>
<rscale>  0 0.12499905E+03</rscale>
<asrwt>0</asrwt>
<pdfrwt beam="2">  1        4 0.22135715E-01 0.12499905E+03</pdfrwt>
<pdfrwt beam="1">  1       -4 0.41766992E-02 0.12499905E+03</pdfrwt>
<totfact> 0.95258897E+03</totfact>
</mgrwt>
</event>
<event>
 5    1  0.3272646E-002  0.1250345E+03  0.7818608E-02  0.1235015E+00
         -4   -1    0    0    0  501 -0.00000000000E+00  0.00000000000E+00  0.12590230875E+04  0.12590237281E+04  0.12700000000E+01 0.  1.
          4   -1    0    0  501    0  0.00000000000E+00 -0.00000000000E+00 -0.29737568934E+01  0.32335939852E+01  0.12700000000E+01 0.  1.
         25    2    1    2    0    0  0.00000000000E+00  0.00000000000E+00  0.12560493306E+04  0.12622573221E+04  0.12503449956E+03 0.  0.
    9000005    1    3    3    0    0  0.72771183206E+00  0.29299358420E+02  0.70639040691E+02  0.76484351590E+02  0.10000000000E+01 0.  0.
    9000005    1    3    3    0    0 -0.72771183206E+00 -0.29299358420E+02  0.11854102900E+04  0.11857729705E+04  0.10000000000E+01 0.  0.
<mgrwt>
<rscale>  0 0.12503450E+03</rscale>
<asrwt>0</asrwt>
<pdfrwt beam="2">  1        4 0.47753751E-03 0.12503450E+03</pdfrwt>
<pdfrwt beam="1">  1       -4 0.19371601E+00 0.12503450E+03</pdfrwt>
<totfact> 0.23119776E+03</totfact>
</mgrwt>
</event>
<event>
 5    1  0.3272646E-002  0.1250008E+03  0.7818608E-02  0.1235068E+00
          4   -1    0    0  501    0  0.00000000000E+00  0.00000000000E+00  0.44188474264E+03  0.44188656766E+03  0.12700000000E+01 0. -1.
         -4   -1    0    0    0  501 -0.00000000000E+00 -0.00000000000E+00 -0.87926156316E+01  0.88838611901E+01  0.12700000000E+01 0. -1.
         25    2    1    2    0    0  0.00000000000E+00  0.00000000000E+00  0.43309212701E+03  0.45077042885E+03  0.12500075619E+03 0.  0.
    9000005    1    3    3    0    0 -0.61797873168E+02  0.83887144601E+01  0.23094789506E+03  0.23922223536E+03  0.10000000000E+01 0.  0.
    9000005    1    3    3    0    0  0.61797873168E+02 -0.83887144601E+01  0.20214423195E+03  0.21154819349E+03  0.10000000000E+01 0.  0.
<mgrwt>
<rscale>  0 0.12500076E+03</rscale>
<asrwt>0</asrwt>
<pdfrwt beam="1">  1        4 0.67989435E-01 0.12500076E+03</pdfrwt>
<pdfrwt beam="2">  1       -4 0.13598692E-02 0.12500076E+03</pdfrwt>
<totfact> 0.59896107E+03</totfact>
</mgrwt>
</event>
<event>
 5    1  0.3272646E-002  0.1249977E+03  0.7818608E-02  0.1235073E+00
          4   -1    0    0  501    0  0.00000000000E+00  0.00000000000E+00  0.17362694352E+01  0.21511698100E+01  0.12700000000E+01 0. -1.
         -4   -1    0    0    0  501 -0.00000000000E+00 -0.00000000000E+00 -0.20091877688E+04  0.20091881702E+04  0.12700000000E+01 0. -1.
         25    2    1    2    0    0  0.00000000000E+00  0.00000000000E+00 -0.20074514994E+04  0.20113393400E+04  0.12499767315E+03 0.  0.
    9000005    1    3    3    0    0  0.22984145713E+02 -0.55841394978E+02 -0.12624721740E+04  0.12639159475E+04  0.10000000000E+01 0.  0.
    9000005    1    3    3    0    0 -0.22984145713E+02  0.55841394978E+02 -0.74497932545E+03  0.74742339252E+03  0.10000000000E+01 0.  0.
<mgrwt>
<rscale>  0 0.12499767E+03</rscale>
<asrwt>0</asrwt>
<pdfrwt beam="1">  1        4 0.29906627E-03 0.12499767E+03</pdfrwt>
<pdfrwt beam="2">  1       -4 0.30913609E+00 0.12499767E+03</pdfrwt>
<totfact> 0.97145458E+02</totfact>
</mgrwt>
</event>
<event>
 5    1  0.3272646E-002  0.1250020E+03  0.7818608E-02  0.1235066E+00
         -4   -1    0    0    0  501 -0.00000000000E+00  0.00000000000E+00  0.88157659048E+03  0.88157750526E+03  0.12700000000E+01 0. -1.
          4   -1    0    0  501    0  0.00000000000E+00 -0.00000000000E+00 -0.43391877861E+01  0.45212222510E+01  0.12700000000E+01 0. -1.
         25    2    1    2    0    0  0.00000000000E+00  0.00000000000E+00  0.87723740270E+03  0.88609872751E+03  0.12500197684E+03 0.  0.
    9000005    1    3    3    0    0  0.59460952491E+02 -0.12906693828E+02  0.33757434674E+03  0.34301549119E+03  0.10000000000E+01 0.  0.
    9000005    1    3    3    0    0 -0.59460952491E+02  0.12906693828E+02  0.53966305595E+03  0.54308323632E+03  0.10000000000E+01 0.  0.
<mgrwt>
<rscale>  0 0.12500198E+03</rscale>
<asrwt>0</asrwt>
<pdfrwt beam="2">  1        4 0.68164114E-03 0.12500198E+03</pdfrwt>
<pdfrwt beam="1">  1       -4 0.13564109E+00 0.12500198E+03</pdfrwt>
<totfact> 0.34692429E+03</totfact>
</mgrwt>
</event>
<event>
 5    1  0.3272646E-002  0.1250001E+03  0.7818608E-02  0.1235069E+00
         -4   -1    0    0    0  501 -0.00000000000E+00  0.00000000000E+00  0.23551161035E+03  0.23551503457E+03  0.12700000000E+01 0. -1.
          4   -1    0    0  501    0  0.00000000000E+00 -0.00000000000E+00 -0.16558407366E+02  0.16607039305E+02  0.12700000000E+01 0. -1.
         25    2    1    2    0    0  0.00000000000E+00  0.00000000000E+00  0.21895320299E+03  0.25212207388E+03  0.12500014016E+03 0.  0.
    9000005    1    3    3    0    0  0.45341493417E+01  0.27719534741E+02 -0.31191300559E+01  0.28278261771E+02  0.10000000000E+01 0.  0.
    9000005    1    3    3    0    0 -0.45341493417E+01 -0.27719534741E+02  0.22207233304E+03  0.22384381211E+03  0.10000000000E+01 0.  0.
<mgrwt>
<rscale>  0 0.12500014E+03</rscale>
<asrwt>0</asrwt>
<pdfrwt beam="2">  1        4 0.25514516E-02 0.12500014E+03</pdfrwt>
<pdfrwt beam="1">  1       -4 0.36236559E-01 0.12500014E+03</pdfrwt>
<totfact> 0.82024230E+03</totfact>
</mgrwt>
</event>
<event>
 5    1  0.3272646E-002  0.1250114E+03  0.7818608E-02  0.1235052E+00
          4   -1    0    0  501    0  0.00000000000E+00  0.00000000000E+00  0.56949697592E+02  0.56963856574E+02  0.12700000000E+01 0. -1.
         -4   -1    0    0    0  501 -0.00000000000E+00 -0.00000000000E+00 -0.68575146798E+02  0.68586905881E+02  0.12700000000E+01 0. -1.
         25    2    1    2    0    0  0.00000000000E+00  0.00000000000E+00 -0.11625449206E+02  0.12555076245E+03  0.12501137102E+03 0.  0.
    9000005    1    3    3    0    0  0.59929877329E+02  0.79753809277E+01 -0.21716574851E+02  0.64248007913E+02  0.10000000000E+01 0.  0.
    9000005    1    3    3    0    0 -0.59929877329E+02 -0.79753809277E+01  0.10091125645E+02  0.61302754541E+02  0.10000000000E+01 0.  0.
<mgrwt>
<rscale>  0 0.12501137E+03</rscale>
<asrwt>0</asrwt>
<pdfrwt beam="1">  1        4 0.87634856E-02 0.12501137E+03</pdfrwt>
<pdfrwt beam="2">  1       -4 0.10552016E-01 0.12501137E+03</pdfrwt>
<totfact> 0.10438156E+04</totfact>
</mgrwt>
</event>
<event>
 5    1  0.3272646E-002  0.1249994E+03  0.7818608E-02  0.1235070E+00
          4   -1    0    0  501    0  0.00000000000E+00  0.00000000000E+00  0.24920404025E+03  0.24920727634E+03  0.12700000000E+01 0.  1.
         -4   -1    0    0    0  501 -0.00000000000E+00 -0.00000000000E+00 -0.15645679819E+02  0.15697139771E+02  0.12700000000E+01 0.  1.
         25    2    1    2    0    0  0.00000000000E+00  0.00000000000E+00  0.23355836044E+03  0.26490441611E+03  0.12499936777E+03 0.  0.
    9000005    1    3    3    0    0 -0.16067224443E+02  0.39792071537E+02  0.21305095180E+03  0.21733217139E+03  0.10000000000E+01 0.  0.
    9000005    1    3    3    0    0  0.16067224443E+02 -0.39792071537E+02  0.20507408636E+02  0.47572244717E+02  0.10000000000E+01 0.  0.
<mgrwt>
<rscale>  0 0.12499937E+03</rscale>
<asrwt>0</asrwt>
<pdfrwt beam="1">  1        4 0.38343288E-01 0.12499937E+03</pdfrwt>
<pdfrwt beam="2">  1       -4 0.24112352E-02 0.12499937E+03</pdfrwt>
<totfact> 0.80223814E+03</totfact>
</mgrwt>
</event>
<event>
 5    1  0.3272646E-002  0.1250015E+03  0.7818608E-02  0.1235067E+00
         -4   -1    0    0    0  501 -0.00000000000E+00  0.00000000000E+00  0.13887878659E+02  0.13945826388E+02  0.12700000000E+01 0. -1.
          4   -1    0    0  501    0  0.00000000000E+00 -0.00000000000E+00 -0.28063226384E+03  0.28063513751E+03  0.12700000000E+01 0. -1.
         25    2    1    2    0    0  0.00000000000E+00  0.00000000000E+00 -0.26674438518E+03  0.29458096390E+03  0.12500150906E+03 0.  0.
    9000005    1    3    3    0    0  0.38264147375E+02 -0.47910503988E+02 -0.10491822776E+03  0.12152528907E+03  0.10000000000E+01 0.  0.
    9000005    1    3    3    0    0 -0.38264147375E+02  0.47910503988E+02 -0.16182615742E+03  0.17305567483E+03  0.10000000000E+01 0.  0.
<mgrwt>
<rscale>  0 0.12500151E+03</rscale>
<asrwt>0</asrwt>
<pdfrwt beam="2">  1        4 0.43178869E-01 0.12500151E+03</pdfrwt>
<pdfrwt beam="1">  1       -4 0.21412755E-02 0.12500151E+03</pdfrwt>
<totfact> 0.76281105E+03</totfact>
</mgrwt>
</event>
<event>
 5    1  0.3272646E-002  0.1249983E+03  0.7818608E-02  0.1235072E+00
          4   -1    0    0  501    0  0.00000000000E+00  0.00000000000E+00  0.50349383517E+01  0.51926394257E+01  0.12700000000E+01 0. -1.
         -4   -1    0    0    0  501 -0.00000000000E+00 -0.00000000000E+00 -0.76368746406E+03  0.76368852006E+03  0.12700000000E+01 0. -1.
         25    2    1    2    0    0  0.00000000000E+00  0.00000000000E+00 -0.75865252571E+03  0.76888115948E+03  0.12499833055E+03 0.  0.
    9000005    1    3    3    0    0 -0.43153756160E+02 -0.30747848224E+02 -0.17555116919E+03  0.18337636119E+03  0.10000000000E+01 0.  0.
    9000005    1    3    3    0    0  0.43153756160E+02  0.30747848224E+02 -0.58310135652E+03  0.58550479829E+03  0.10000000000E+01 0.  0.
<mgrwt>
<rscale>  0 0.12499833E+03</rscale>
<asrwt>0</asrwt>
<pdfrwt beam="1">  1        4 0.78681859E-03 0.12499833E+03</pdfrwt>
<pdfrwt beam="2">  1       -4 0.11750250E+00 0.12499833E+03</pdfrwt>
<totfact> 0.39688390E+03</totfact>
</mgrwt>
</event>
<event>
 5    1  0.3272646E-002  0.1249995E+03  0.7818608E-02  0.1235070E+00
         -4   -1    0    0    0  501 -0.00000000000E+00  0.00000000000E+00  0.80132455328E+01  0.81132609948E+01  0.12700000000E+01 0. -1.
          4   -1    0    0  501    0  0.00000000000E+00 -0.00000000000E+00 -0.48434588334E+03  0.48434754837E+03  0.12700000000E+01 0. -1.
         25    2    1    2    0    0  0.00000000000E+00  0.00000000000E+00 -0.47633263781E+03  0.49246080936E+03  0.12499946766E+03 0.  0.
    9000005    1    3    3    0    0 -0.45065779324E+02 -0.16453831827E+02 -0.80402788322E+02  0.93633655370E+02  0.10000000000E+01 0.  0.
    9000005    1    3    3    0    0  0.45065779324E+02  0.16453831827E+02 -0.39592984949E+03  0.39882715399E+03  0.10000000000E+01 0.  0.
<mgrwt>
<rscale>  0 0.12499947E+03</rscale>
<asrwt>0</asrwt>
<pdfrwt beam="2">  1        4 0.74522550E-01 0.12499947E+03</pdfrwt>
<pdfrwt beam="1">  1       -4 0.12406290E-02 0.12499947E+03</pdfrwt>
<totfact> 0.56454767E+03</totfact>
</mgrwt>
</event>
<event>
 5    1  0.3272646E-002  0.1249998E+03  0.7818608E-02  0.1235070E+00
         -4   -1    0    0    0  501 -0.00000000000E+00  0.00000000000E+00  0.47400071804E+02  0.47417082439E+02  0.12700000000E+01 0.  1.
          4   -1    0    0  501    0  0.00000000000E+00 -0.00000000000E+00 -0.82373231432E+02  0.82383021045E+02  0.12700000000E+01 0.  1.
         25    2    1    2    0    0  0.00000000000E+00  0.00000000000E+00 -0.34973159628E+02  0.12980010348E+03  0.12499977988E+03 0.  0.
    9000005    1    3    3    0    0  0.20612586815E+01 -0.47256152925E+02 -0.59894154382E+02  0.76326289742E+02  0.10000000000E+01 0.  0.
    9000005    1    3    3    0    0 -0.20612586815E+01  0.47256152925E+02  0.24920994754E+02  0.53473813742E+02  0.10000000000E+01 0.  0.
<mgrwt>
<rscale>  0 0.12499978E+03</rscale>
<asrwt>0</asrwt>
<pdfrwt beam="2">  1        4 0.12674866E-01 0.12499978E+03</pdfrwt>
<pdfrwt beam="1">  1       -4 0.72943803E-02 0.12499978E+03</pdfrwt>
<totfact> 0.10348837E+04</totfact>
</mgrwt>
</event>
<event>
 5    1  0.3272646E-002  0.1250009E+03  0.7818608E-02  0.1235068E+00
         -4   -1    0    0    0  501 -0.00000000000E+00  0.00000000000E+00  0.12923932726E+02  0.12986182546E+02  0.12700000000E+01 0. -1.
          4   -1    0    0  501    0  0.00000000000E+00 -0.00000000000E+00 -0.30146378721E+03  0.30146646232E+03  0.12700000000E+01 0. -1.
         25    2    1    2    0    0  0.00000000000E+00  0.00000000000E+00 -0.28853985449E+03  0.31445264486E+03  0.12500087293E+03 0.  0.
    9000005    1    3    3    0    0  0.21783309879E+02  0.94781261925E+00 -0.29159699028E+03  0.29241274883E+03  0.10000000000E+01 0.  0.
    9000005    1    3    3    0    0 -0.21783309879E+02 -0.94781261925E+00  0.30571357884E+01  0.22039896036E+02  0.10000000000E+01 0.  0.
<mgrwt>
<rscale>  0 0.12500087E+03</rscale>
<asrwt>0</asrwt>
<pdfrwt beam="2">  1        4 0.46384033E-01 0.12500087E+03</pdfrwt>
<pdfrwt beam="1">  1       -4 0.19932918E-02 0.12500087E+03</pdfrwt>
<totfact> 0.73819377E+03</totfact>
</mgrwt>
</event>
<event>
 5    1  0.3272646E-002  0.1250017E+03  0.7818608E-02  0.1235067E+00
          4   -1    0    0  501    0  0.00000000000E+00  0.00000000000E+00  0.37407580197E+02  0.37429132453E+02  0.12700000000E+01 0. -1.
         -4   -1    0    0    0  501 -0.00000000000E+00 -0.00000000000E+00 -0.10437132169E+03  0.10437904814E+03  0.12700000000E+01 0. -1.
         25    2    1    2    0    0  0.00000000000E+00  0.00000000000E+00 -0.66963741490E+02  0.14180818059E+03  0.12500166963E+03 0.  0.
    9000005    1    3    3    0    0 -0.27029083120E+02  0.18192770966E+02 -0.93979096865E+02  0.99471698977E+02  0.10000000000E+01 0.  0.
    9000005    1    3    3    0    0  0.27029083120E+02 -0.18192770966E+02  0.27015355375E+02  0.42336481618E+02  0.10000000000E+01 0.  0.
<mgrwt>
<rscale>  0 0.12500167E+03</rscale>
<asrwt>0</asrwt>
<pdfrwt beam="1">  1        4 0.57572646E-02 0.12500167E+03</pdfrwt>
<pdfrwt beam="2">  1       -4 0.16059378E-01 0.12500167E+03</pdfrwt>
<totfact> 0.10095867E+04</totfact>
</mgrwt>
</event>
<event>
 5    1  0.3272646E-002  0.1249990E+03  0.7818608E-02  0.1235071E+00
         -4   -1    0    0    0  501 -0.00000000000E+00  0.00000000000E+00  0.15658635053E+04  0.15658640203E+04  0.12700000000E+01 0.  1.
          4   -1    0    0  501    0  0.00000000000E+00 -0.00000000000E+00 -0.23324001265E+01  0.26557466653E+01  0.12700000000E+01 0.  1.
         25    2    1    2    0    0  0.00000000000E+00  0.00000000000E+00  0.15635311052E+04  0.15685197670E+04  0.12499897030E+03 0.  0.
    9000005    1    3    3    0    0 -0.47543478790E+02  0.39612130882E+02  0.89092991468E+03  0.89307704940E+03  0.10000000000E+01 0.  0.
    9000005    1    3    3    0    0  0.47543478790E+02 -0.39612130882E+02  0.67260119051E+03  0.67544271760E+03  0.10000000000E+01 0.  0.
<mgrwt>
<rscale>  0 0.12499897E+03</rscale>
<asrwt>0</asrwt>
<pdfrwt beam="2">  1        4 0.38374272E-03 0.12499897E+03</pdfrwt>
<pdfrwt beam="1">  1       -4 0.24092730E+00 0.12499897E+03</pdfrwt>
<totfact> 0.16622492E+03</totfact>
</mgrwt>
</event>
<event>
 5    1  0.3272646E-002  0.1249563E+03  0.7818608E-02  0.1235138E+00
         -4   -1    0    0    0  501 -0.00000000000E+00  0.00000000000E+00  0.69497797713E+02  0.69509400709E+02  0.12700000000E+01 0. -1.
          4   -1    0    0  501    0  0.00000000000E+00 -0.00000000000E+00 -0.56144066453E+02  0.56158428556E+02  0.12700000000E+01 0. -1.
         25    2    1    2    0    0  0.00000000000E+00  0.00000000000E+00  0.13353731261E+02  0.12566782927E+03  0.12495631706E+03 0.  0.
    9000005    1    3    3    0    0  0.10582318119E+02  0.58378217570E+02  0.26346312506E+02  0.64924031961E+02  0.10000000000E+01 0.  0.
    9000005    1    3    3    0    0 -0.10582318119E+02 -0.58378217570E+02 -0.12992581245E+02  0.60743797304E+02  0.10000000000E+01 0.  0.
<mgrwt>
<rscale>  0 0.12495632E+03</rscale>
<asrwt>0</asrwt>
<pdfrwt beam="2">  1        4 0.86395460E-02 0.12495632E+03</pdfrwt>
<pdfrwt beam="1">  1       -4 0.10693966E-01 0.12495632E+03</pdfrwt>
<totfact> 0.10448546E+04</totfact>
</mgrwt>
</event>
<event>
 5    1  0.3272646E-002  0.1249934E+03  0.7818608E-02  0.1235080E+00
         -4   -1    0    0    0  501 -0.00000000000E+00  0.00000000000E+00  0.72066001793E+01  0.73176489492E+01  0.12700000000E+01 0. -1.
          4   -1    0    0  501    0  0.00000000000E+00 -0.00000000000E+00 -0.53772523956E+03  0.53772673930E+03  0.12700000000E+01 0. -1.
         25    2    1    2    0    0  0.00000000000E+00  0.00000000000E+00 -0.53051863938E+03  0.54504438825E+03  0.12499343356E+03 0.  0.
    9000005    1    3    3    0    0 -0.54541401031E+02  0.30301683571E+02 -0.25022753486E+03  0.25789101508E+03  0.10000000000E+01 0.  0.
    9000005    1    3    3    0    0  0.54541401031E+02 -0.30301683571E+02 -0.28029110452E+03  0.28715337318E+03  0.10000000000E+01 0.  0.
<mgrwt>
<rscale>  0 0.12499343E+03</rscale>
<asrwt>0</asrwt>
<pdfrwt beam="2">  1        4 0.82735586E-01 0.12499343E+03</pdfrwt>
<pdfrwt beam="1">  1       -4 0.11173657E-02 0.12499343E+03</pdfrwt>
<totfact> 0.52538950E+03</totfact>
</mgrwt>
</event>
<event>
 5    1  0.3272646E-002  0.1250012E+03  0.7818608E-02  0.1235067E+00
         -4   -1    0    0    0  501 -0.00000000000E+00  0.00000000000E+00  0.22837751405E+03  0.22838104524E+03  0.12700000000E+01 0.  1.
          4   -1    0    0  501    0  0.00000000000E+00 -0.00000000000E+00 -0.17077436058E+02  0.17124594077E+02  0.12700000000E+01 0.  1.
         25    2    1    2    0    0  0.00000000000E+00  0.00000000000E+00  0.21130007799E+03  0.24550563932E+03  0.12500118390E+03 0.  0.
    9000005    1    3    3    0    0  0.15526321217E+02  0.11084117070E+02  0.22252858998E+03  0.22334703414E+03  0.10000000000E+01 0.  0.
    9000005    1    3    3    0    0 -0.15526321217E+02 -0.11084117070E+02 -0.11228511987E+02  0.22158605172E+02  0.10000000000E+01 0.  0.
<mgrwt>
<rscale>  0 0.12500118E+03</rscale>
<asrwt>0</asrwt>
<pdfrwt beam="2">  1        4 0.26311971E-02 0.12500118E+03</pdfrwt>
<pdfrwt beam="1">  1       -4 0.35138900E-01 0.12500118E+03</pdfrwt>
<totfact> 0.82981984E+03</totfact>
</mgrwt>
</event>
<event>
 5    1  0.3272646E-002  0.1250131E+03  0.7818608E-02  0.1235049E+00
         -4   -1    0    0    0  501 -0.00000000000E+00  0.00000000000E+00  0.11233656320E+02  0.11305217129E+02  0.12700000000E+01 0. -1.
          4   -1    0    0  501    0  0.00000000000E+00 -0.00000000000E+00 -0.34662310511E+03  0.34662543170E+03  0.12700000000E+01 0. -1.
         25    2    1    2    0    0  0.00000000000E+00  0.00000000000E+00 -0.33538944879E+03  0.35793064883E+03  0.12501306734E+03 0.  0.
    9000005    1    3    3    0    0  0.30804671192E+01 -0.20447238251E+02 -0.33655936744E+03  0.33719547245E+03  0.10000000000E+01 0.  0.
    9000005    1    3    3    0    0 -0.30804671192E+01  0.20447238251E+02  0.11699186439E+01  0.20735176377E+02  0.10000000000E+01 0.  0.
<mgrwt>
<rscale>  0 0.12501307E+03</rscale>
<asrwt>0</asrwt>
<pdfrwt beam="2">  1        4 0.53332307E-01 0.12501307E+03</pdfrwt>
<pdfrwt beam="1">  1       -4 0.17339387E-02 0.12501307E+03</pdfrwt>
<totfact> 0.68840912E+03</totfact>
</mgrwt>
</event>
<event>
 5    1  0.3272646E-002  0.1250153E+03  0.7818608E-02  0.1235045E+00
          4   -1    0    0  501    0  0.00000000000E+00  0.00000000000E+00  0.13771233043E+03  0.13771818636E+03  0.12700000000E+01 0.  1.
         -4   -1    0    0    0  501 -0.00000000000E+00 -0.00000000000E+00 -0.28351553553E+02  0.28379983948E+02  0.12700000000E+01 0.  1.
         25    2    1    2    0    0  0.00000000000E+00  0.00000000000E+00  0.10936077688E+03  0.16609817030E+03  0.12501528970E+03 0.  0.
    9000005    1    3    3    0    0 -0.49844739746E+02  0.70817494110E+01  0.10388531113E+03  0.11544612217E+03  0.10000000000E+01 0.  0.
    9000005    1    3    3    0    0  0.49844739746E+02 -0.70817494110E+01  0.54754657477E+01  0.50652048134E+02  0.10000000000E+01 0.  0.
<mgrwt>
<rscale>  0 0.12501529E+03</rscale>
<asrwt>0</asrwt>
<pdfrwt beam="1">  1        4 0.21189150E-01 0.12501529E+03</pdfrwt>
<pdfrwt beam="2">  1       -4 0.43644149E-02 0.12501529E+03</pdfrwt>
<totfact> 0.96146795E+03</totfact>
</mgrwt>
</event>
<event>
 5    1  0.3272646E-002  0.1250170E+03  0.7818608E-02  0.1235043E+00
         -4   -1    0    0    0  501 -0.00000000000E+00  0.00000000000E+00  0.10621268409E+02  0.10696926784E+02  0.12700000000E+01 0.  1.
          4   -1    0    0  501    0  0.00000000000E+00 -0.00000000000E+00 -0.36649418380E+03  0.36649638424E+03  0.12700000000E+01 0.  1.
         25    2    1    2    0    0  0.00000000000E+00  0.00000000000E+00 -0.35587291539E+03  0.37719331102E+03  0.12501704672E+03 0.  0.
    9000005    1    3    3    0    0 -0.46064601753E+02  0.39716192999E+02 -0.22134462975E+03  0.22955123315E+03  0.10000000000E+01 0.  0.
    9000005    1    3    3    0    0  0.46064601753E+02 -0.39716192999E+02 -0.13452828564E+03  0.14764207787E+03  0.10000000000E+01 0.  0.
<mgrwt>
<rscale>  0 0.12501705E+03</rscale>
<asrwt>0</asrwt>
<pdfrwt beam="2">  1        4 0.56389700E-01 0.12501705E+03</pdfrwt>
<pdfrwt beam="1">  1       -4 0.16400307E-02 0.12501705E+03</pdfrwt>
<totfact> 0.66807869E+03</totfact>
</mgrwt>
</event>
<event>
 5    1  0.3272646E-002  0.1250000E+03  0.7818608E-02  0.1235069E+00
         -4   -1    0    0    0  501 -0.00000000000E+00  0.00000000000E+00  0.88818374234E+02  0.88827453535E+02  0.12700000000E+01 0.  1.
          4   -1    0    0  501    0  0.00000000000E+00 -0.00000000000E+00 -0.43959729090E+02  0.43978070463E+02  0.12700000000E+01 0.  1.
         25    2    1    2    0    0  0.00000000000E+00  0.00000000000E+00  0.44858645144E+02  0.13280552400E+03  0.12500003664E+03 0.  0.
    9000005    1    3    3    0    0  0.52493635128E+01  0.44137156353E+02  0.69099616265E+02  0.82166911565E+02  0.10000000000E+01 0.  0.
    9000005    1    3    3    0    0 -0.52493635128E+01 -0.44137156353E+02 -0.24240971121E+02  0.50638612433E+02  0.10000000000E+01 0.  0.
<mgrwt>
<rscale>  0 0.12500004E+03</rscale>
<asrwt>0</asrwt>
<pdfrwt beam="2">  1        4 0.67651445E-02 0.12500004E+03</pdfrwt>
<pdfrwt beam="1">  1       -4 0.13666475E-01 0.12500004E+03</pdfrwt>
<totfact> 0.10284526E+04</totfact>
</mgrwt>
</event>
<event>
 5    1  0.3272646E-002  0.1249973E+03  0.7818608E-02  0.1235073E+00
         -4   -1    0    0    0  501 -0.00000000000E+00  0.00000000000E+00  0.11468851777E+02  0.11538954073E+02  0.12700000000E+01 0.  1.
          4   -1    0    0  501    0  0.00000000000E+00 -0.00000000000E+00 -0.33947286026E+03  0.33947523585E+03  0.12700000000E+01 0.  1.
         25    2    1    2    0    0  0.00000000000E+00  0.00000000000E+00 -0.32800400849E+03  0.35101418992E+03  0.12499732775E+03 0.  0.
    9000005    1    3    3    0    0 -0.24591494231E+02 -0.29738138185E+02 -0.25972788690E+02  0.46526166869E+02  0.10000000000E+01 0.  0.
    9000005    1    3    3    0    0  0.24591494231E+02  0.29738138185E+02 -0.30203121980E+03  0.30448802305E+03  0.10000000000E+01 0.  0.
<mgrwt>
<rscale>  0 0.12499733E+03</rscale>
<asrwt>0</asrwt>
<pdfrwt beam="2">  1        4 0.52232161E-01 0.12499733E+03</pdfrwt>
<pdfrwt beam="1">  1       -4 0.17700142E-02 0.12499733E+03</pdfrwt>
<totfact> 0.69617247E+03</totfact>
</mgrwt>
</event>
<event>
 5    1  0.3272646E-002  0.1249932E+03  0.7818608E-02  0.1235080E+00
         -4   -1    0    0    0  501 -0.00000000000E+00  0.00000000000E+00  0.74301129761E+02  0.74311982773E+02  0.12700000000E+01 0.  1.
          4   -1    0    0  501    0  0.00000000000E+00 -0.00000000000E+00 -0.52545165633E+02  0.52560511141E+02  0.12700000000E+01 0.  1.
         25    2    1    2    0    0  0.00000000000E+00  0.00000000000E+00  0.21755964127E+02  0.12687249391E+03  0.12499323076E+03 0.  0.
    9000005    1    3    3    0    0  0.48936529209E+02  0.31766723916E+02  0.33595685716E+02  0.67331855300E+02  0.10000000000E+01 0.  0.
    9000005    1    3    3    0    0 -0.48936529209E+02 -0.31766723916E+02 -0.11839721588E+02  0.59540638615E+02  0.10000000000E+01 0.  0.
<mgrwt>
<rscale>  0 0.12499323E+03</rscale>
<asrwt>0</asrwt>
<pdfrwt beam="2">  1        4 0.80858870E-02 0.12499323E+03</pdfrwt>
<pdfrwt beam="1">  1       -4 0.11432958E-01 0.12499323E+03</pdfrwt>
<totfact> 0.10413508E+04</totfact>
</mgrwt>
</event>
<event>
 5    1  0.3272646E-002  0.1249945E+03  0.7818608E-02  0.1235078E+00
         -4   -1    0    0    0  501 -0.00000000000E+00  0.00000000000E+00  0.32424447777E+01  0.34822906450E+01  0.12700000000E+01 0. -1.
          4   -1    0    0  501    0  0.00000000000E+00 -0.00000000000E+00 -0.11614126519E+04  0.11614133463E+04  0.12700000000E+01 0. -1.
         25    2    1    2    0    0  0.00000000000E+00  0.00000000000E+00 -0.11581702071E+04  0.11648956369E+04  0.12499446483E+03 0.  0.
    9000005    1    3    3    0    0  0.13704696104E+02  0.55467631451E+02 -0.34323768331E+03  0.34796204402E+03  0.10000000000E+01 0.  0.
    9000005    1    3    3    0    0 -0.13704696104E+02 -0.55467631451E+02 -0.81493252381E+03  0.81693359290E+03  0.10000000000E+01 0.  0.
<mgrwt>
<rscale>  0 0.12499446E+03</rscale>
<asrwt>0</asrwt>
<pdfrwt beam="2">  1        4 0.17869705E+00 0.12499446E+03</pdfrwt>
<pdfrwt beam="1">  1       -4 0.51734168E-03 0.12499446E+03</pdfrwt>
<totfact> 0.25653684E+03</totfact>
</mgrwt>
</event>
<event>
 5    1  0.3272646E-002  0.1249995E+03  0.7818608E-02  0.1235070E+00
          4   -1    0    0  501    0  0.00000000000E+00  0.00000000000E+00  0.18169056705E+02  0.18213388525E+02  0.12700000000E+01 0. -1.
         -4   -1    0    0    0  501 -0.00000000000E+00 -0.00000000000E+00 -0.21468468979E+03  0.21468844619E+03  0.12700000000E+01 0. -1.
         25    2    1    2    0    0  0.00000000000E+00  0.00000000000E+00 -0.19651563308E+03  0.23290183472E+03  0.12499948228E+03 0.  0.
    9000005    1    3    3    0    0  0.11493149813E+02  0.42431658300E+02 -0.18101257279E+03  0.18627691652E+03  0.10000000000E+01 0.  0.
    9000005    1    3    3    0    0 -0.11493149813E+02 -0.42431658300E+02 -0.15503060289E+02  0.46624918199E+02  0.10000000000E+01 0.  0.
<mgrwt>
<rscale>  0 0.12499948E+03</rscale>
<asrwt>0</asrwt>
<pdfrwt beam="1">  1        4 0.27989387E-02 0.12499948E+03</pdfrwt>
<pdfrwt beam="2">  1       -4 0.33032111E-01 0.12499948E+03</pdfrwt>
<totfact> 0.84866981E+03</totfact>
</mgrwt>
</event>
<event>
 5    1  0.3272646E-002  0.1250018E+03  0.7818608E-02  0.1235066E+00
         -4   -1    0    0    0  501 -0.00000000000E+00  0.00000000000E+00  0.54417654707E+02  0.54432472329E+02  0.12700000000E+01 0. -1.
          4   -1    0    0  501    0  0.00000000000E+00 -0.00000000000E+00 -0.71754612790E+02  0.71765850908E+02  0.12700000000E+01 0. -1.
         25    2    1    2    0    0  0.00000000000E+00  0.00000000000E+00 -0.17336958083E+02  0.12619832324E+03  0.12500178668E+03 0.  0.
    9000005    1    3    3    0    0 -0.21278850064E+02  0.16981404916E+02 -0.65458183454E+02  0.70900855806E+02  0.10000000000E+01 0.  0.
    9000005    1    3    3    0    0  0.21278850064E+02 -0.16981404916E+02  0.48121225372E+02  0.55297467431E+02  0.10000000000E+01 0.  0.
<mgrwt>
<rscale>  0 0.12500179E+03</rscale>
<asrwt>0</asrwt>
<pdfrwt beam="2">  1        4 0.11041176E-01 0.12500179E+03</pdfrwt>
<pdfrwt beam="1">  1       -4 0.83739511E-02 0.12500179E+03</pdfrwt>
<totfact> 0.10426195E+04</totfact>
</mgrwt>
</event>
<event>
 5    1  0.3272646E-002  0.1249970E+03  0.7818608E-02  0.1235074E+00
         -4   -1    0    0    0  501 -0.00000000000E+00  0.00000000000E+00  0.67924287557E+01  0.69101366413E+01  0.12700000000E+01 0. -1.
          4   -1    0    0  501    0  0.00000000000E+00 -0.00000000000E+00 -0.57000258996E+03  0.57000400478E+03  0.12700000000E+01 0. -1.
         25    2    1    2    0    0  0.00000000000E+00  0.00000000000E+00 -0.56321016121E+03  0.57691414142E+03  0.12499696350E+03 0.  0.
    9000005    1    3    3    0    0  0.40787781164E+02  0.27216518814E+02 -0.46040013970E+03  0.46300504384E+03  0.10000000000E+01 0.  0.
    9000005    1    3    3    0    0 -0.40787781164E+02 -0.27216518814E+02 -0.10281002151E+03  0.11390909758E+03  0.10000000000E+01 0.  0.
<mgrwt>
<rscale>  0 0.12499696E+03</rscale>
<asrwt>0</asrwt>
<pdfrwt beam="2">  1        4 0.87701832E-01 0.12499696E+03</pdfrwt>
<pdfrwt beam="1">  1       -4 0.10541528E-02 0.12499696E+03</pdfrwt>
<totfact> 0.50361423E+03</totfact>
</mgrwt>
</event>
<event>
 5    1  0.3272646E-002  0.1249671E+03  0.7818608E-02  0.1235121E+00
          4   -1    0    0  501    0  0.00000000000E+00  0.00000000000E+00  0.37854637770E+02  0.37875935642E+02  0.12700000000E+01 0.  1.
         -4   -1    0    0    0  501 -0.00000000000E+00 -0.00000000000E+00 -0.10308220734E+03  0.10309003041E+03  0.12700000000E+01 0.  1.
         25    2    1    2    0    0  0.00000000000E+00  0.00000000000E+00 -0.65227569569E+02  0.14096596605E+03  0.12496706667E+03 0.  0.
    9000005    1    3    3    0    0  0.29875887516E+02  0.12779547021E+01 -0.94490760152E+02  0.99114608294E+02  0.10000000000E+01 0.  0.
    9000005    1    3    3    0    0 -0.29875887516E+02 -0.12779547021E+01  0.29263190583E+02  0.41851357758E+02  0.10000000000E+01 0.  0.
<mgrwt>
<rscale>  0 0.12496707E+03</rscale>
<asrwt>0</asrwt>
<pdfrwt beam="1">  1        4 0.58260305E-02 0.12496707E+03</pdfrwt>
<pdfrwt beam="2">  1       -4 0.15861041E-01 0.12496707E+03</pdfrwt>
<totfact> 0.10121112E+04</totfact>
</mgrwt>
</event>
<event>
 5    1  0.3272646E-002  0.1250259E+03  0.7818608E-02  0.1235029E+00
          4   -1    0    0  501    0  0.00000000000E+00  0.00000000000E+00  0.38248470568E+03  0.38248681412E+03  0.12700000000E+01 0. -1.
         -4   -1    0    0    0  501 -0.00000000000E+00 -0.00000000000E+00 -0.10175441612E+02  0.10254389889E+02  0.12700000000E+01 0. -1.
         25    2    1    2    0    0  0.00000000000E+00  0.00000000000E+00  0.37230926407E+03  0.39274120401E+03  0.12502585820E+03 0.  0.
    9000005    1    3    3    0    0 -0.31622040997E+01  0.12162499602E+02 -0.61815050790E+01  0.14040546157E+02  0.10000000000E+01 0.  0.
    9000005    1    3    3    0    0  0.31622040997E+01 -0.12162499602E+02  0.37849076915E+03  0.37870065786E+03  0.10000000000E+01 0.  0.
<mgrwt>
<rscale>  0 0.12502586E+03</rscale>
<asrwt>0</asrwt>
<pdfrwt beam="1">  1        4 0.58850029E-01 0.12502586E+03</pdfrwt>
<pdfrwt beam="2">  1       -4 0.15716879E-02 0.12502586E+03</pdfrwt>
<totfact> 0.65227694E+03</totfact>
</mgrwt>
</event>
<event>
 5    1  0.3272646E-002  0.1249983E+03  0.7818608E-02  0.1235072E+00
          4   -1    0    0  501    0  0.00000000000E+00  0.00000000000E+00  0.35687864076E+02  0.35710454244E+02  0.12700000000E+01 0. -1.
         -4   -1    0    0    0  501 -0.00000000000E+00 -0.00000000000E+00 -0.10939210024E+03  0.10939947210E+03  0.12700000000E+01 0. -1.
         25    2    1    2    0    0  0.00000000000E+00  0.00000000000E+00 -0.73704236164E+02  0.14510992634E+03  0.12499830516E+03 0.  0.
    9000005    1    3    3    0    0  0.19443334004E+02 -0.46839761835E+02  0.55346669552E+01  0.51025866619E+02  0.10000000000E+01 0.  0.
    9000005    1    3    3    0    0 -0.19443334004E+02  0.46839761835E+02 -0.79238903119E+02  0.94084059721E+02  0.10000000000E+01 0.  0.
<mgrwt>
<rscale>  0 0.12499831E+03</rscale>
<asrwt>0</asrwt>
<pdfrwt beam="1">  1        4 0.54927454E-02 0.12499831E+03</pdfrwt>
<pdfrwt beam="2">  1       -4 0.16831859E-01 0.12499831E+03</pdfrwt>
<totfact> 0.10029138E+04</totfact>
</mgrwt>
</event>
<event>
 5    1  0.3272646E-002  0.1250003E+03  0.7818608E-02  0.1235069E+00
          4   -1    0    0  501    0  0.00000000000E+00  0.00000000000E+00  0.37832397629E+03  0.37832610792E+03  0.12700000000E+01 0. -1.
         -4   -1    0    0    0  501 -0.00000000000E+00 -0.00000000000E+00 -0.10283976196E+02  0.10362097587E+02  0.12700000000E+01 0. -1.
         25    2    1    2    0    0  0.00000000000E+00  0.00000000000E+00  0.36804000009E+03  0.38868820550E+03  0.12500031773E+03 0.  0.
    9000005    1    3    3    0    0 -0.43742075488E+02 -0.14870129887E+02  0.31486964263E+03  0.31824264608E+03  0.10000000000E+01 0.  0.
    9000005    1    3    3    0    0  0.43742075488E+02  0.14870129887E+02  0.53170357457E+02  0.70445559427E+02  0.10000000000E+01 0.  0.
<mgrwt>
<rscale>  0 0.12500032E+03</rscale>
<asrwt>0</asrwt>
<pdfrwt beam="1">  1        4 0.58209848E-01 0.12500032E+03</pdfrwt>
<pdfrwt beam="2">  1       -4 0.15883239E-02 0.12500032E+03</pdfrwt>
<totfact> 0.65667579E+03</totfact>
</mgrwt>
</event>
<event>
 5    1  0.3272646E-002  0.1249801E+03  0.7818608E-02  0.1235100E+00
          4   -1    0    0  501    0  0.00000000000E+00  0.00000000000E+00  0.28188797611E+02  0.28217391991E+02  0.12700000000E+01 0.  1.
         -4   -1    0    0    0  501 -0.00000000000E+00 -0.00000000000E+00 -0.13842859605E+03  0.13843442168E+03  0.12700000000E+01 0.  1.
         25    2    1    2    0    0  0.00000000000E+00  0.00000000000E+00 -0.11023979844E+03  0.16665181367E+03  0.12498005376E+03 0.  0.
    9000005    1    3    3    0    0  0.50917907067E+02 -0.15908014065E+02 -0.11741370248E+02  0.54631107868E+02  0.10000000000E+01 0.  0.
    9000005    1    3    3    0    0 -0.50917907067E+02  0.15908014065E+02 -0.98498428192E+02  0.11202070580E+03  0.10000000000E+01 0.  0.
<mgrwt>
<rscale>  0 0.12498005E+03</rscale>
<asrwt>0</asrwt>
<pdfrwt beam="1">  1        4 0.43393859E-02 0.12498005E+03</pdfrwt>
<pdfrwt beam="2">  1       -4 0.21299354E-01 0.12498005E+03</pdfrwt>
<totfact> 0.96118532E+03</totfact>
</mgrwt>
</event>
<event>
 5    1  0.3272646E-002  0.1249988E+03  0.7818608E-02  0.1235071E+00
         -4   -1    0    0    0  501 -0.00000000000E+00  0.00000000000E+00  0.39191222146E+02  0.39211794058E+02  0.12700000000E+01 0. -1.
          4   -1    0    0  501    0  0.00000000000E+00 -0.00000000000E+00 -0.99618878958E+02  0.99626973982E+02  0.12700000000E+01 0. -1.
         25    2    1    2    0    0  0.00000000000E+00  0.00000000000E+00 -0.60427656812E+02  0.13883876804E+03  0.12499880721E+03 0.  0.
    9000005    1    3    3    0    0 -0.44651342997E+02  0.29107297868E+02 -0.66447817457E+02  0.85189727464E+02  0.10000000000E+01 0.  0.
    9000005    1    3    3    0    0  0.44651342997E+02 -0.29107297868E+02  0.60201606454E+01  0.53649040576E+02  0.10000000000E+01 0.  0.
<mgrwt>
<rscale>  0 0.12499881E+03</rscale>
<asrwt>0</asrwt>
<pdfrwt beam="2">  1        4 0.15328186E-01 0.12499881E+03</pdfrwt>
<pdfrwt beam="1">  1       -4 0.60316240E-02 0.12499881E+03</pdfrwt>
<totfact> 0.10157983E+04</totfact>
</mgrwt>
</event>
<event>
 5    1  0.3272646E-002  0.1250095E+03  0.7818608E-02  0.1235054E+00
         -4   -1    0    0    0  501 -0.00000000000E+00  0.00000000000E+00  0.14391872037E+04  0.14391877641E+04  0.12700000000E+01 0. -1.
          4   -1    0    0  501    0  0.00000000000E+00 -0.00000000000E+00 -0.25654882333E+01  0.28626263947E+01  0.12700000000E+01 0. -1.
         25    2    1    2    0    0  0.00000000000E+00  0.00000000000E+00  0.14366217155E+04  0.14420503904E+04  0.12500950057E+03 0.  0.
    9000005    1    3    3    0    0  0.35132199248E+02  0.48595416690E+02  0.92143371162E+03  0.92338338238E+03  0.10000000000E+01 0.  0.
    9000005    1    3    3    0    0 -0.35132199248E+02 -0.48595416690E+02  0.51518800385E+03  0.51866700807E+03  0.10000000000E+01 0.  0.
<mgrwt>
<rscale>  0 0.12500950E+03</rscale>
<asrwt>0</asrwt>
<pdfrwt beam="2">  1        4 0.41758980E-03 0.12500950E+03</pdfrwt>
<pdfrwt beam="1">  1       -4 0.22143662E+00 0.12500950E+03</pdfrwt>
<totfact> 0.19092143E+03</totfact>
</mgrwt>
</event>
<event>
 5    1  0.3272646E-002  0.1250041E+03  0.7818608E-02  0.1235063E+00
         -4   -1    0    0    0  501 -0.00000000000E+00  0.00000000000E+00  0.64377015134E+02  0.64389540902E+02  0.12700000000E+01 0. -1.
          4   -1    0    0  501    0  0.00000000000E+00 -0.00000000000E+00 -0.60656652910E+02  0.60669946780E+02  0.12700000000E+01 0. -1.
         25    2    1    2    0    0  0.00000000000E+00  0.00000000000E+00  0.37203622239E+01  0.12505948768E+03  0.12500413739E+03 0.  0.
    9000005    1    3    3    0    0  0.28856926159E+02  0.55754291990E+01  0.57036219796E+02  0.64171161488E+02  0.10000000000E+01 0.  0.
    9000005    1    3    3    0    0 -0.28856926159E+02 -0.55754291990E+01 -0.53315857572E+02  0.60888326194E+02  0.10000000000E+01 0.  0.
<mgrwt>
<rscale>  0 0.12500414E+03</rscale>
<asrwt>0</asrwt>
<pdfrwt beam="2">  1        4 0.93337789E-02 0.12500414E+03</pdfrwt>
<pdfrwt beam="1">  1       -4 0.99061422E-02 0.12500414E+03</pdfrwt>
<totfact> 0.10450593E+04</totfact>
</mgrwt>
</event>
<event>
 5    1  0.3272646E-002  0.1250009E+03  0.7818608E-02  0.1235068E+00
          4   -1    0    0  501    0  0.00000000000E+00  0.00000000000E+00  0.26020571203E+02  0.26051545554E+02  0.12700000000E+01 0. -1.
         -4   -1    0    0    0  501 -0.00000000000E+00 -0.00000000000E+00 -0.15000091270E+03  0.15000628890E+03  0.12700000000E+01 0. -1.
         25    2    1    2    0    0  0.00000000000E+00  0.00000000000E+00 -0.12398034149E+03  0.17605783445E+03  0.12500094398E+03 0.  0.
    9000005    1    3    3    0    0  0.51714031843E+01 -0.39063722573E+01  0.25552866167E+02  0.26380904542E+02  0.10000000000E+01 0.  0.
    9000005    1    3    3    0    0 -0.51714031843E+01  0.39063722573E+01 -0.14953320766E+03  0.14967692991E+03  0.10000000000E+01 0.  0.
<mgrwt>
<rscale>  0 0.12500094E+03</rscale>
<asrwt>0</asrwt>
<pdfrwt beam="1">  1        4 0.40059611E-02 0.12500094E+03</pdfrwt>
<pdfrwt beam="2">  1       -4 0.23079859E-01 0.12500094E+03</pdfrwt>
<totfact> 0.94329460E+03</totfact>
</mgrwt>
</event>
<event>
 4    1  0.3272646E-002  0.1250890E+03  0.7818608E-02  0.1234930E+00
         -4   -1    0    0    0  501 -0.00000000000E+00  0.00000000000E+00  0.54829054077E+01  0.56280682041E+01  0.12700000000E+01 0.  1.
          4   -1    0    0  501    0  0.00000000000E+00 -0.00000000000E+00 -0.70398939632E+03  0.70399054186E+03  0.12700000000E+01 0.  1.
    9000005    1    1    2    0    0 -0.13533387602E+02 -0.89943381191E+01 -0.66750729249E+01  0.17595661304E+02  0.10000000000E+01 0.  0.
    9000005    1    1    2    0    0  0.13533387602E+02  0.89943381191E+01 -0.69183141799E+03  0.69202294876E+03  0.10000000000E+01 0.  0.
<mgrwt>
<rscale>  0 0.12508898E+03</rscale>
<asrwt>0</asrwt>
<pdfrwt beam="2">  1        4 0.10831724E+00 0.12508898E+03</pdfrwt>
<pdfrwt beam="1">  1       -4 0.85477895E-03 0.12508898E+03</pdfrwt>
<totfact> 0.42501023E+03</totfact>
</mgrwt>
</event>
<event>
 5    1  0.3272646E-002  0.1250059E+03  0.7818608E-02  0.1235060E+00
         -4   -1    0    0    0  501 -0.00000000000E+00  0.00000000000E+00  0.21688477279E+03  0.21688849109E+03  0.12700000000E+01 0. -1.
          4   -1    0    0  501    0  0.00000000000E+00 -0.00000000000E+00 -0.17986146916E+02  0.18030928454E+02  0.12700000000E+01 0. -1.
         25    2    1    2    0    0  0.00000000000E+00  0.00000000000E+00  0.19889862587E+03  0.23491941955E+03  0.12500588108E+03 0.  0.
    9000005    1    3    3    0    0 -0.15179161233E+02 -0.42378144848E+02  0.17981335854E+02  0.48483425370E+02  0.10000000000E+01 0.  0.
    9000005    1    3    3    0    0  0.15179161233E+02  0.42378144848E+02  0.18091729002E+03  0.18643599418E+03  0.10000000000E+01 0.  0.
<mgrwt>
<rscale>  0 0.12500588E+03</rscale>
<asrwt>0</asrwt>
<pdfrwt beam="2">  1        4 0.27708305E-02 0.12500588E+03</pdfrwt>
<pdfrwt beam="1">  1       -4 0.33370616E-01 0.12500588E+03</pdfrwt>
<totfact> 0.84548807E+03</totfact>
</mgrwt>
</event>
<event>
 5    1  0.3272646E-002  0.1250007E+03  0.7818608E-02  0.1235068E+00
          4   -1    0    0  501    0  0.00000000000E+00  0.00000000000E+00  0.13288277162E+02  0.13348828036E+02  0.12700000000E+01 0. -1.
         -4   -1    0    0    0  501 -0.00000000000E+00 -0.00000000000E+00 -0.29323545239E+03  0.29323820255E+03  0.12700000000E+01 0. -1.
         25    2    1    2    0    0  0.00000000000E+00  0.00000000000E+00 -0.27994717523E+03  0.30658703059E+03  0.12500074563E+03 0.  0.
    9000005    1    3    3    0    0  0.56612245808E+02 -0.98746628045E+01 -0.79753322867E+02  0.98305889190E+02  0.10000000000E+01 0.  0.
    9000005    1    3    3    0    0 -0.56612245808E+02  0.98746628045E+01 -0.20019385236E+03  0.20828114140E+03  0.10000000000E+01 0.  0.
<mgrwt>
<rscale>  0 0.12500075E+03</rscale>
<asrwt>0</asrwt>
<pdfrwt beam="1">  1        4 0.20492199E-02 0.12500075E+03</pdfrwt>
<pdfrwt beam="2">  1       -4 0.45118011E-01 0.12500075E+03</pdfrwt>
<totfact> 0.74778698E+03</totfact>
</mgrwt>
</event>
<event>
 5    1  0.3272646E-002  0.1249990E+03  0.7818608E-02  0.1235071E+00
          4   -1    0    0  501    0  0.00000000000E+00  0.00000000000E+00  0.17037972110E+03  0.17038445428E+03  0.12700000000E+01 0. -1.
         -4   -1    0    0    0  501 -0.00000000000E+00 -0.00000000000E+00 -0.22903721951E+02  0.22938905362E+02  0.12700000000E+01 0. -1.
         25    2    1    2    0    0  0.00000000000E+00  0.00000000000E+00  0.14747599915E+03  0.19332335965E+03  0.12499900424E+03 0.  0.
    9000005    1    3    3    0    0 -0.44573433281E+02 -0.34597032029E+02  0.11527915265E+03  0.12835119250E+03  0.10000000000E+01 0.  0.
    9000005    1    3    3    0    0  0.44573433281E+02  0.34597032029E+02  0.32196846499E+02  0.64972167150E+02  0.10000000000E+01 0.  0.
<mgrwt>
<rscale>  0 0.12499900E+03</rscale>
<asrwt>0</asrwt>
<pdfrwt beam="1">  1        4 0.26215335E-01 0.12499900E+03</pdfrwt>
<pdfrwt beam="2">  1       -4 0.35267201E-02 0.12499900E+03</pdfrwt>
<totfact> 0.91274290E+03</totfact>
</mgrwt>
</event>
<event>
 5    1  0.3272646E-002  0.1250012E+03  0.7818608E-02  0.1235067E+00
          4   -1    0    0  501    0  0.00000000000E+00  0.00000000000E+00  0.10488958814E+03  0.10489727642E+03  0.12700000000E+01 0.  1.
         -4   -1    0    0    0  501 -0.00000000000E+00 -0.00000000000E+00 -0.37222396015E+02  0.37244055433E+02  0.12700000000E+01 0.  1.
         25    2    1    2    0    0  0.00000000000E+00  0.00000000000E+00  0.67667192127E+02  0.14214133185E+03  0.12500123732E+03 0.  0.
    9000005    1    3    3    0    0  0.21102525213E+02  0.55685502184E+02  0.12284190105E+02  0.60811948254E+02  0.10000000000E+01 0.  0.
    9000005    1    3    3    0    0 -0.21102525213E+02 -0.55685502184E+02  0.55383002021E+02  0.81329383600E+02  0.10000000000E+01 0.  0.
<mgrwt>
<rscale>  0 0.12500124E+03</rscale>
<asrwt>0</asrwt>
<pdfrwt beam="1">  1        4 0.16139117E-01 0.12500124E+03</pdfrwt>
<pdfrwt beam="2">  1       -4 0.57287801E-02 0.12500124E+03</pdfrwt>
<totfact> 0.10089116E+04</totfact>
</mgrwt>
</event>
<event>
 5    1  0.3272646E-002  0.1250019E+03  0.7818608E-02  0.1235066E+00
         -4   -1    0    0    0  501 -0.00000000000E+00  0.00000000000E+00  0.54296121910E+01  0.55761625285E+01  0.12700000000E+01 0. -1.
          4   -1    0    0  501    0  0.00000000000E+00 -0.00000000000E+00 -0.70972942269E+03  0.70973055896E+03  0.12700000000E+01 0. -1.
         25    2    1    2    0    0  0.00000000000E+00  0.00000000000E+00 -0.70429981049E+03  0.71530672149E+03  0.12500193098E+03 0.  0.
    9000005    1    3    3    0    0 -0.61118091196E+02 -0.13027417238E+02 -0.34936989758E+03  0.35491613095E+03  0.10000000000E+01 0.  0.
    9000005    1    3    3    0    0  0.61118091196E+02  0.13027417238E+02 -0.35492991292E+03  0.36039059055E+03  0.10000000000E+01 0.  0.
<mgrwt>
<rscale>  0 0.12500193E+03</rscale>
<asrwt>0</asrwt>
<pdfrwt beam="2">  1        4 0.10920043E+00 0.12500193E+03</pdfrwt>
<pdfrwt beam="1">  1       -4 0.84668602E-03 0.12500193E+03</pdfrwt>
<totfact> 0.42289134E+03</totfact>
</mgrwt>
</event>
<event>
 5    1  0.3272646E-002  0.1249735E+03  0.7818608E-02  0.1235111E+00
          4   -1    0    0  501    0  0.00000000000E+00  0.00000000000E+00  0.77332964103E+03  0.77333068386E+03  0.12700000000E+01 0. -1.
         -4   -1    0    0    0  501 -0.00000000000E+00 -0.00000000000E+00 -0.49681400602E+01  0.51278958314E+01  0.12700000000E+01 0. -1.
         25    2    1    2    0    0  0.00000000000E+00  0.00000000000E+00  0.76836150097E+03  0.77845857969E+03  0.12497345366E+03 0.  0.
    9000005    1    3    3    0    0 -0.79007240007E+00 -0.63735081018E+01 -0.29371748385E+01  0.71325182056E+01  0.10000000000E+01 0.  0.
    9000005    1    3    3    0    0  0.79007240007E+00  0.63735081018E+01  0.77129867581E+03  0.77132606148E+03  0.10000000000E+01 0.  0.
<mgrwt>
<rscale>  0 0.12497345E+03</rscale>
<asrwt>0</asrwt>
<pdfrwt beam="1">  1        4 0.11898616E+00 0.12497345E+03</pdfrwt>
<pdfrwt beam="2">  1       -4 0.77669837E-03 0.12497345E+03</pdfrwt>
<totfact> 0.39267436E+03</totfact>
</mgrwt>
</event>
<event>
 5    1  0.3272646E-002  0.1249996E+03  0.7818608E-02  0.1235070E+00
         -4   -1    0    0    0  501 -0.00000000000E+00  0.00000000000E+00  0.14648352845E+03  0.14648903375E+03  0.12700000000E+01 0. -1.
          4   -1    0    0  501    0  0.00000000000E+00 -0.00000000000E+00 -0.26645533535E+02  0.26675782226E+02  0.12700000000E+01 0. -1.
         25    2    1    2    0    0  0.00000000000E+00  0.00000000000E+00  0.11983799492E+03  0.17316481597E+03  0.12499963386E+03 0.  0.
    9000005    1    3    3    0    0 -0.23162189000E+02  0.23326346001E+02  0.13354497268E+03  0.13753495972E+03  0.10000000000E+01 0.  0.
    9000005    1    3    3    0    0  0.23162189000E+02 -0.23326346001E+02 -0.13706977765E+02  0.35629856251E+02  0.10000000000E+01 0.  0.
<mgrwt>
<rscale>  0 0.12499963E+03</rscale>
<asrwt>0</asrwt>
<pdfrwt beam="2">  1        4 0.41020632E-02 0.12499963E+03</pdfrwt>
<pdfrwt beam="1">  1       -4 0.22538677E-01 0.12499963E+03</pdfrwt>
<totfact> 0.94862808E+03</totfact>
</mgrwt>
</event>
<event>
 5    1  0.3272646E-002  0.1250433E+03  0.7818608E-02  0.1235002E+00
          4   -1    0    0  501    0  0.00000000000E+00  0.00000000000E+00  0.13467763085E+03  0.13468361872E+03  0.12700000000E+01 0.  1.
         -4   -1    0    0    0  501 -0.00000000000E+00 -0.00000000000E+00 -0.29004010713E+02  0.29031802174E+02  0.12700000000E+01 0.  1.
         25    2    1    2    0    0  0.00000000000E+00  0.00000000000E+00  0.10567362014E+03  0.16371542090E+03  0.12504329269E+03 0.  0.
    9000005    1    3    3    0    0 -0.75308081360E+01  0.38699121730E+02 -0.10681285509E+02  0.40858597064E+02  0.10000000000E+01 0.  0.
    9000005    1    3    3    0    0  0.75308081360E+01 -0.38699121730E+02  0.11635490565E+03  0.12285682383E+03  0.10000000000E+01 0.  0.
<mgrwt>
<rscale>  0 0.12504329E+03</rscale>
<asrwt>0</asrwt>
<pdfrwt beam="1">  1        4 0.20722234E-01 0.12504329E+03</pdfrwt>
<pdfrwt beam="2">  1       -4 0.44647539E-02 0.12504329E+03</pdfrwt>
<totfact> 0.96537292E+03</totfact>
</mgrwt>
</event>
<event>
 5    1  0.3272646E-002  0.1249980E+03  0.7818608E-02  0.1235072E+00
         -4   -1    0    0    0  501 -0.00000000000E+00  0.00000000000E+00  0.62344965521E+01  0.63625346568E+01  0.12700000000E+01 0. -1.
          4   -1    0    0  501    0  0.00000000000E+00 -0.00000000000E+00 -0.62003707999E+03  0.62003838064E+03  0.12700000000E+01 0. -1.
         25    2    1    2    0    0  0.00000000000E+00  0.00000000000E+00 -0.61380258344E+03  0.62640091529E+03  0.12499798097E+03 0.  0.
    9000005    1    3    3    0    0 -0.27498392906E+02 -0.52609682343E+02 -0.40474129198E+03  0.40907267535E+03  0.10000000000E+01 0.  0.
    9000005    1    3    3    0    0  0.27498392906E+02  0.52609682343E+02 -0.20906129146E+03  0.21732823994E+03  0.10000000000E+01 0.  0.
<mgrwt>
<rscale>  0 0.12499798E+03</rscale>
<asrwt>0</asrwt>
<pdfrwt beam="2">  1        4 0.95400221E-01 0.12499798E+03</pdfrwt>
<pdfrwt beam="1">  1       -4 0.96910294E-03 0.12499798E+03</pdfrwt>
<totfact> 0.47244526E+03</totfact>
</mgrwt>
</event>
<event>
 5    1  0.3272646E-002  0.1250063E+03  0.7818608E-02  0.1235059E+00
          4   -1    0    0  501    0  0.00000000000E+00  0.00000000000E+00  0.61953743041E+02  0.61966758644E+02  0.12700000000E+01 0.  1.
         -4   -1    0    0    0  501 -0.00000000000E+00 -0.00000000000E+00 -0.63031363233E+02  0.63044156359E+02  0.12700000000E+01 0.  1.
         25    2    1    2    0    0  0.00000000000E+00  0.00000000000E+00 -0.10776201919E+01  0.12501091500E+03  0.12500627026E+03 0.  0.
    9000005    1    3    3    0    0 -0.34919929267E+02 -0.23920999580E+02  0.45441439153E+02  0.62109098152E+02  0.10000000000E+01 0.  0.
    9000005    1    3    3    0    0  0.34919929267E+02  0.23920999580E+02 -0.46519059345E+02  0.62901816852E+02  0.10000000000E+01 0.  0.
<mgrwt>
<rscale>  0 0.12500627E+03</rscale>
<asrwt>0</asrwt>
<pdfrwt beam="1">  1        4 0.95333304E-02 0.12500627E+03</pdfrwt>
<pdfrwt beam="2">  1       -4 0.96991181E-02 0.12500627E+03</pdfrwt>
<totfact> 0.10451144E+04</totfact>
</mgrwt>
</event>
<event>
 5    1  0.3272646E-002  0.1249998E+03  0.7818608E-02  0.1235070E+00
          4   -1    0    0  501    0  0.00000000000E+00  0.00000000000E+00  0.14040091241E+03  0.14040665620E+03  0.12700000000E+01 0. -1.
         -4   -1    0    0    0  501 -0.00000000000E+00 -0.00000000000E+00 -0.27801227536E+02  0.27830220130E+02  0.12700000000E+01 0. -1.
         25    2    1    2    0    0  0.00000000000E+00  0.00000000000E+00  0.11259968488E+03  0.16823687633E+03  0.12499983010E+03 0.  0.
    9000005    1    3    3    0    0 -0.51673513328E+02 -0.23760029296E+02  0.91151773136E+02  0.10744457510E+03  0.10000000000E+01 0.  0.
    9000005    1    3    3    0    0  0.51673513328E+02  0.23760029296E+02  0.21447911741E+02  0.60792301238E+02  0.10000000000E+01 0.  0.
<mgrwt>
<rscale>  0 0.12499983E+03</rscale>
<asrwt>0</asrwt>
<pdfrwt beam="1">  1        4 0.21602812E-01 0.12499983E+03</pdfrwt>
<pdfrwt beam="2">  1       -4 0.42797840E-02 0.12499983E+03</pdfrwt>
<totfact> 0.95778232E+03</totfact>
</mgrwt>
</event>
<event>
 5    1  0.3272646E-002  0.1249969E+03  0.7818608E-02  0.1235074E+00
          4   -1    0    0  501    0  0.00000000000E+00  0.00000000000E+00  0.16018939876E+02  0.16069204546E+02  0.12700000000E+01 0.  1.
         -4   -1    0    0    0  501 -0.00000000000E+00 -0.00000000000E+00 -0.24340608665E+03  0.24340939982E+03  0.12700000000E+01 0.  1.
         25    2    1    2    0    0  0.00000000000E+00  0.00000000000E+00 -0.22738714677E+03  0.25947860436E+03  0.12499692638E+03 0.  0.
    9000005    1    3    3    0    0 -0.21604693694E+02 -0.23733684912E+02 -0.22500037310E+03  0.22728004418E+03  0.10000000000E+01 0.  0.
    9000005    1    3    3    0    0  0.21604693694E+02  0.23733684912E+02 -0.23867736776E+01  0.32198560181E+02  0.10000000000E+01 0.  0.
<mgrwt>
<rscale>  0 0.12499693E+03</rscale>
<asrwt>0</asrwt>
<pdfrwt beam="1">  1        4 0.24685738E-02 0.12499693E+03</pdfrwt>
<pdfrwt beam="2">  1       -4 0.37451209E-01 0.12499693E+03</pdfrwt>
<totfact> 0.80984829E+03</totfact>
</mgrwt>
</event>
<event>
 5    1  0.3272646E-002  0.1250017E+03  0.7818608E-02  0.1235067E+00
          4   -1    0    0  501    0  0.00000000000E+00  0.00000000000E+00  0.38883806292E+03  0.38884013692E+03  0.12700000000E+01 0.  1.
         -4   -1    0    0    0  501 -0.00000000000E+00 -0.00000000000E+00 -0.10003981124E+02  0.10084271829E+02  0.12700000000E+01 0.  1.
         25    2    1    2    0    0  0.00000000000E+00  0.00000000000E+00  0.37883408180E+03  0.39892440874E+03  0.12500168943E+03 0.  0.
    9000005    1    3    3    0    0 -0.58111011903E+02 -0.20446483872E+02  0.15588396497E+03  0.16761789565E+03  0.10000000000E+01 0.  0.
    9000005    1    3    3    0    0  0.58111011903E+02  0.20446483872E+02  0.22295011682E+03  0.23130651309E+03  0.10000000000E+01 0.  0.
<mgrwt>
<rscale>  0 0.12500169E+03</rscale>
<asrwt>0</asrwt>
<pdfrwt beam="1">  1        4 0.59827564E-01 0.12500169E+03</pdfrwt>
<pdfrwt beam="2">  1       -4 0.15454101E-02 0.12500169E+03</pdfrwt>
<totfact> 0.64655128E+03</totfact>
</mgrwt>
</event>
<event>
 5    1  0.3272646E-002  0.1250001E+03  0.7818608E-02  0.1235069E+00
          4   -1    0    0  501    0  0.00000000000E+00  0.00000000000E+00  0.10600868054E+02  0.10676670993E+02  0.12700000000E+01 0. -1.
         -4   -1    0    0    0  501 -0.00000000000E+00 -0.00000000000E+00 -0.36709491104E+03  0.36709710788E+03  0.12700000000E+01 0. -1.
         25    2    1    2    0    0  0.00000000000E+00  0.00000000000E+00 -0.35649404299E+03  0.37777377887E+03  0.12500010127E+03 0.  0.
    9000005    1    3    3    0    0 -0.82652216619E+01 -0.66669897779E+01 -0.36436309381E+03  0.36451917202E+03  0.10000000000E+01 0.  0.
    9000005    1    3    3    0    0  0.82652216619E+01  0.66669897779E+01  0.78690508227E+01  0.13254606847E+02  0.10000000000E+01 0.  0.
<mgrwt>
<rscale>  0 0.12500010E+03</rscale>
<asrwt>0</asrwt>
<pdfrwt beam="1">  1        4 0.16369030E-02 0.12500010E+03</pdfrwt>
<pdfrwt beam="2">  1       -4 0.56482130E-01 0.12500010E+03</pdfrwt>
<totfact> 0.66773276E+03</totfact>
</mgrwt>
</event>
<event>
 5    1  0.3272646E-002  0.1249996E+03  0.7818608E-02  0.1235070E+00
          4   -1    0    0  501    0  0.00000000000E+00  0.00000000000E+00  0.12179092004E+03  0.12179754145E+03  0.12700000000E+01 0. -1.
         -4   -1    0    0    0  501 -0.00000000000E+00 -0.00000000000E+00 -0.32053144154E+02  0.32078294065E+02  0.12700000000E+01 0. -1.
         25    2    1    2    0    0  0.00000000000E+00  0.00000000000E+00  0.89737775881E+02  0.15387583551E+03  0.12499961734E+03 0.  0.
    9000005    1    3    3    0    0  0.57985229430E+02 -0.23284067079E+02  0.43773723034E+02  0.76299236170E+02  0.10000000000E+01 0.  0.
    9000005    1    3    3    0    0 -0.57985229430E+02  0.23284067079E+02  0.45964052847E+02  0.77576599345E+02  0.10000000000E+01 0.  0.
<mgrwt>
<rscale>  0 0.12499962E+03</rscale>
<asrwt>0</asrwt>
<pdfrwt beam="1">  1        4 0.18739509E-01 0.12499962E+03</pdfrwt>
<pdfrwt beam="2">  1       -4 0.49336969E-02 0.12499962E+03</pdfrwt>
<totfact> 0.98537487E+03</totfact>
</mgrwt>
</event>
<event>
 5    1  0.3272646E-002  0.1250005E+03  0.7818608E-02  0.1235068E+00
         -4   -1    0    0    0  501 -0.00000000000E+00  0.00000000000E+00  0.62088619873E+01  0.63374180214E+01  0.12700000000E+01 0.  1.
          4   -1    0    0  501    0  0.00000000000E+00 -0.00000000000E+00 -0.62257053368E+03  0.62257182904E+03  0.12700000000E+01 0.  1.
         25    2    1    2    0    0  0.00000000000E+00  0.00000000000E+00 -0.61636167170E+03  0.62890924706E+03  0.12500052280E+03 0.  0.
    9000005    1    3    3    0    0  0.14285306417E+02 -0.58871750487E+02 -0.38536256649E+03  0.39009647606E+03  0.10000000000E+01 0.  0.
    9000005    1    3    3    0    0 -0.14285306417E+02  0.58871750487E+02 -0.23099910521E+03  0.23881277100E+03  0.10000000000E+01 0.  0.
<mgrwt>
<rscale>  0 0.12500052E+03</rscale>
<asrwt>0</asrwt>
<pdfrwt beam="2">  1        4 0.95790022E-01 0.12500052E+03</pdfrwt>
<pdfrwt beam="1">  1       -4 0.96519860E-03 0.12500052E+03</pdfrwt>
<totfact> 0.47091664E+03</totfact>
</mgrwt>
</event>
<event>
 5    1  0.3272646E-002  0.1250030E+03  0.7818608E-02  0.1235065E+00
          4   -1    0    0  501    0  0.00000000000E+00  0.00000000000E+00  0.27938989291E+02  0.27967839077E+02  0.12700000000E+01 0. -1.
         -4   -1    0    0    0  501 -0.00000000000E+00 -0.00000000000E+00 -0.13971636109E+03  0.13972213302E+03  0.12700000000E+01 0. -1.
         25    2    1    2    0    0  0.00000000000E+00  0.00000000000E+00 -0.11177737180E+03  0.16768997210E+03  0.12500298355E+03 0.  0.
    9000005    1    3    3    0    0 -0.33155286420E+02 -0.38694218060E+02 -0.73549835523E+01  0.51493798772E+02  0.10000000000E+01 0.  0.
    9000005    1    3    3    0    0  0.33155286420E+02  0.38694218060E+02 -0.10442238825E+03  0.11619617333E+03  0.10000000000E+01 0.  0.
<mgrwt>
<rscale>  0 0.12500298E+03</rscale>
<asrwt>0</asrwt>
<pdfrwt beam="1">  1        4 0.43009693E-02 0.12500298E+03</pdfrwt>
<pdfrwt beam="2">  1       -4 0.21497488E-01 0.12500298E+03</pdfrwt>
<totfact> 0.95873942E+03</totfact>
</mgrwt>
</event>
<event>
 5    1  0.3272646E-002  0.1249991E+03  0.7818608E-02  0.1235071E+00
          4   -1    0    0  501    0  0.00000000000E+00  0.00000000000E+00  0.27176576464E+03  0.27176873207E+03  0.12700000000E+01 0. -1.
         -4   -1    0    0    0  501 -0.00000000000E+00 -0.00000000000E+00 -0.14342280431E+02  0.14398399493E+02  0.12700000000E+01 0. -1.
         25    2    1    2    0    0  0.00000000000E+00  0.00000000000E+00  0.25742348421E+03  0.28616713156E+03  0.12499910785E+03 0.  0.
    9000005    1    3    3    0    0 -0.46574168907E+02 -0.40903966370E+02  0.14686944180E+03  0.15941744135E+03  0.10000000000E+01 0.  0.
    9000005    1    3    3    0    0  0.46574168907E+02  0.40903966370E+02  0.11055404242E+03  0.12674969021E+03  0.10000000000E+01 0.  0.
<mgrwt>
<rscale>  0 0.12499911E+03</rscale>
<asrwt>0</asrwt>
<pdfrwt beam="1">  1        4 0.41814662E-01 0.12499911E+03</pdfrwt>
<pdfrwt beam="2">  1       -4 0.22110499E-02 0.12499911E+03</pdfrwt>
<totfact> 0.77368964E+03</totfact>
</mgrwt>
</event>
<event>
 5    1  0.3272646E-002  0.1250015E+03  0.7818608E-02  0.1235067E+00
          4   -1    0    0  501    0  0.00000000000E+00  0.00000000000E+00  0.10371349961E+03  0.10372127507E+03  0.12700000000E+01 0.  1.
         -4   -1    0    0    0  501 -0.00000000000E+00 -0.00000000000E+00 -0.37644868286E+02  0.37666284769E+02  0.12700000000E+01 0.  1.
         25    2    1    2    0    0  0.00000000000E+00  0.00000000000E+00  0.66068631325E+02  0.14138755984E+03  0.12500151212E+03 0.  0.
    9000005    1    3    3    0    0  0.51560946269E+02  0.33362101675E+02  0.46117010421E+02  0.76807158901E+02  0.10000000000E+01 0.  0.
    9000005    1    3    3    0    0 -0.51560946269E+02 -0.33362101675E+02  0.19951620905E+02  0.64580400936E+02  0.10000000000E+01 0.  0.
<mgrwt>
<rscale>  0 0.12500151E+03</rscale>
<asrwt>0</asrwt>
<pdfrwt beam="1">  1        4 0.15958168E-01 0.12500151E+03</pdfrwt>
<pdfrwt beam="2">  1       -4 0.57937639E-02 0.12500151E+03</pdfrwt>
<totfact> 0.10104564E+04</totfact>
</mgrwt>
</event>
<event>
 5    1  0.3272646E-002  0.1249987E+03  0.7818608E-02  0.1235071E+00
          4   -1    0    0  501    0  0.00000000000E+00  0.00000000000E+00  0.26046457180E+03  0.26046766798E+03  0.12700000000E+01 0. -1.
         -4   -1    0    0    0  501 -0.00000000000E+00 -0.00000000000E+00 -0.14966858108E+02  0.15020643849E+02  0.12700000000E+01 0. -1.
         25    2    1    2    0    0  0.00000000000E+00  0.00000000000E+00  0.24549771369E+03  0.27548831182E+03  0.12499873010E+03 0.  0.
    9000005    1    3    3    0    0  0.28217719805E+02 -0.55745535203E+02  0.12532493340E+03  0.14003979198E+03  0.10000000000E+01 0.  0.
    9000005    1    3    3    0    0 -0.28217719805E+02  0.55745535203E+02  0.12017278029E+03  0.13544851985E+03  0.10000000000E+01 0.  0.
<mgrwt>
<rscale>  0 0.12499873E+03</rscale>
<asrwt>0</asrwt>
<pdfrwt beam="1">  1        4 0.40075847E-01 0.12499873E+03</pdfrwt>
<pdfrwt beam="2">  1       -4 0.23069692E-02 0.12499873E+03</pdfrwt>
<totfact> 0.78782375E+03</totfact>
</mgrwt>
</event>
<event>
 5    1  0.3272646E-002  0.1250009E+03  0.7818608E-02  0.1235068E+00
          4   -1    0    0  501    0  0.00000000000E+00  0.00000000000E+00  0.91276882478E+02  0.91285717255E+02  0.12700000000E+01 0.  1.
         -4   -1    0    0    0  501 -0.00000000000E+00 -0.00000000000E+00 -0.42775889019E+02  0.42794737777E+02  0.12700000000E+01 0.  1.
         25    2    1    2    0    0  0.00000000000E+00  0.00000000000E+00  0.48500993458E+02  0.13408045503E+03  0.12500088822E+03 0.  0.
    9000005    1    3    3    0    0 -0.52401006934E+02  0.19358357358E+02  0.54297595070E+02  0.77909180189E+02  0.10000000000E+01 0.  0.
    9000005    1    3    3    0    0  0.52401006934E+02 -0.19358357358E+02 -0.57966016115E+01  0.56171274844E+02  0.10000000000E+01 0.  0.
<mgrwt>
<rscale>  0 0.12500089E+03</rscale>
<asrwt>0</asrwt>
<pdfrwt beam="1">  1        4 0.14044727E-01 0.12500089E+03</pdfrwt>
<pdfrwt beam="2">  1       -4 0.65830356E-02 0.12500089E+03</pdfrwt>
<totfact> 0.10257284E+04</totfact>
</mgrwt>
</event>
<event>
 5    1  0.3272646E-002  0.1249893E+03  0.7818608E-02  0.1235086E+00
         -4   -1    0    0    0  501 -0.00000000000E+00  0.00000000000E+00  0.56634357947E+02  0.56648595747E+02  0.12700000000E+01 0.  1.
          4   -1    0    0  501    0  0.00000000000E+00 -0.00000000000E+00 -0.68932573371E+02  0.68944271492E+02  0.12700000000E+01 0.  1.
         25    2    1    2    0    0  0.00000000000E+00  0.00000000000E+00 -0.12298215424E+02  0.12559286724E+03  0.12498928834E+03 0.  0.
    9000005    1    3    3    0    0 -0.36931582525E+02 -0.40336708332E+02  0.24222483448E+02  0.59822408270E+02  0.10000000000E+01 0.  0.
    9000005    1    3    3    0    0  0.36931582525E+02  0.40336708332E+02 -0.36520698872E+02  0.65770458969E+02  0.10000000000E+01 0.  0.
<mgrwt>
<rscale>  0 0.12498929E+03</rscale>
<asrwt>0</asrwt>
<pdfrwt beam="2">  1        4 0.10607006E-01 0.12498929E+03</pdfrwt>
<pdfrwt beam="1">  1       -4 0.87149732E-02 0.12498929E+03</pdfrwt>
<totfact> 0.10442427E+04</totfact>
</mgrwt>
</event>
<event>
 5    1  0.3272646E-002  0.1250046E+03  0.7818608E-02  0.1235062E+00
         -4   -1    0    0    0  501 -0.00000000000E+00  0.00000000000E+00  0.38392806962E+02  0.38413806455E+02  0.12700000000E+01 0.  1.
          4   -1    0    0  501    0  0.00000000000E+00 -0.00000000000E+00 -0.10169900664E+03  0.10170693611E+03  0.12700000000E+01 0.  1.
         25    2    1    2    0    0  0.00000000000E+00  0.00000000000E+00 -0.63306199681E+02  0.14012074256E+03  0.12500459023E+03 0.  0.
    9000005    1    3    3    0    0  0.59981368183E+02 -0.11564353144E+02 -0.46440731974E+02  0.76741386351E+02  0.10000000000E+01 0.  0.
    9000005    1    3    3    0    0 -0.59981368183E+02  0.11564353144E+02 -0.16865467707E+02  0.63379356211E+02  0.10000000000E+01 0.  0.
<mgrwt>
<rscale>  0 0.12500459E+03</rscale>
<asrwt>0</asrwt>
<pdfrwt beam="2">  1        4 0.15648226E-01 0.12500459E+03</pdfrwt>
<pdfrwt beam="1">  1       -4 0.59088110E-02 0.12500459E+03</pdfrwt>
<totfact> 0.10130036E+04</totfact>
</mgrwt>
</event>
<event>
 5    1  0.3272646E-002  0.1249970E+03  0.7818608E-02  0.1235074E+00
         -4   -1    0    0    0  501 -0.00000000000E+00  0.00000000000E+00  0.44286598616E+02  0.44304804671E+02  0.12700000000E+01 0. -1.
          4   -1    0    0  501    0  0.00000000000E+00 -0.00000000000E+00 -0.88158790810E+02  0.88167938033E+02  0.12700000000E+01 0. -1.
         25    2    1    2    0    0  0.00000000000E+00  0.00000000000E+00 -0.43872192194E+02  0.13247274270E+03  0.12499703321E+03 0.  0.
    9000005    1    3    3    0    0  0.68513703650E+01  0.20064959034E+02  0.40363262237E+02  0.45604131341E+02  0.10000000000E+01 0.  0.
    9000005    1    3    3    0    0 -0.68513703650E+01 -0.20064959034E+02 -0.84235454432E+02  0.86868611364E+02  0.10000000000E+01 0.  0.
<mgrwt>
<rscale>  0 0.12499703E+03</rscale>
<asrwt>0</asrwt>
<pdfrwt beam="2">  1        4 0.13564995E-01 0.12499703E+03</pdfrwt>
<pdfrwt beam="1">  1       -4 0.68154270E-02 0.12499703E+03</pdfrwt>
<totfact> 0.10292307E+04</totfact>
</mgrwt>
</event>
<event>
 5    1  0.3272646E-002  0.1250016E+03  0.7818608E-02  0.1235067E+00
          4   -1    0    0  501    0  0.00000000000E+00  0.00000000000E+00  0.54274606917E+01  0.55740675955E+01  0.12700000000E+01 0. -1.
         -4   -1    0    0    0  501 -0.00000000000E+00 -0.00000000000E+00 -0.70999912496E+03  0.71000026080E+03  0.12700000000E+01 0. -1.
         25    2    1    2    0    0  0.00000000000E+00  0.00000000000E+00 -0.70457166427E+03  0.71557432840E+03  0.12500155750E+03 0.  0.
    9000005    1    3    3    0    0 -0.46531185680E+02  0.35710996780E+02 -0.22885353219E+03  0.23625275813E+03  0.10000000000E+01 0.  0.
    9000005    1    3    3    0    0  0.46531185680E+02 -0.35710996780E+02 -0.47571813208E+03  0.47932157027E+03  0.10000000000E+01 0.  0.
<mgrwt>
<rscale>  0 0.12500156E+03</rscale>
<asrwt>0</asrwt>
<pdfrwt beam="1">  1        4 0.84635934E-03 0.12500156E+03</pdfrwt>
<pdfrwt beam="2">  1       -4 0.10924193E+00 0.12500156E+03</pdfrwt>
<totfact> 0.42275782E+03</totfact>
</mgrwt>
</event>
<event>
 5    1  0.3272646E-002  0.1249938E+03  0.7818608E-02  0.1235079E+00
         -4   -1    0    0    0  501 -0.00000000000E+00  0.00000000000E+00  0.10177616160E+04  0.10177624083E+04  0.12700000000E+01 0.  1.
          4   -1    0    0  501    0  0.00000000000E+00 -0.00000000000E+00 -0.37318109303E+01  0.39419935083E+01  0.12700000000E+01 0.  1.
         25    2    1    2    0    0  0.00000000000E+00  0.00000000000E+00  0.10140298050E+04  0.10217044019E+04  0.12499375688E+03 0.  0.
    9000005    1    3    3    0    0 -0.60693418364E+02 -0.14250625026E+02  0.54177955094E+03  0.54535571250E+03  0.10000000000E+01 0.  0.
    9000005    1    3    3    0    0  0.60693418364E+02  0.14250625026E+02  0.47225025410E+03  0.47634868935E+03  0.10000000000E+01 0.  0.
<mgrwt>
<rscale>  0 0.12499376E+03</rscale>
<asrwt>0</asrwt>
<pdfrwt beam="2">  1        4 0.59035327E-03 0.12499376E+03</pdfrwt>
<pdfrwt beam="1">  1       -4 0.15659503E+00 0.12499376E+03</pdfrwt>
<totfact> 0.29899014E+03</totfact>
</mgrwt>
</event>
<event>
 5    1  0.3272646E-002  0.1250003E+03  0.7818608E-02  0.1235069E+00
         -4   -1    0    0    0  501 -0.00000000000E+00  0.00000000000E+00  0.30699159194E+03  0.30699421887E+03  0.12700000000E+01 0. -1.
          4   -1    0    0  501    0  0.00000000000E+00 -0.00000000000E+00 -0.12689978124E+02  0.12753369939E+02  0.12700000000E+01 0. -1.
         25    2    1    2    0    0  0.00000000000E+00  0.00000000000E+00  0.29430161382E+03  0.31974758881E+03  0.12500032263E+03 0.  0.
    9000005    1    3    3    0    0  0.34676891000E+02  0.28552579228E+01  0.27993481901E+03  0.28209066302E+03  0.10000000000E+01 0.  0.
    9000005    1    3    3    0    0 -0.34676891000E+02 -0.28552579228E+01  0.14366794802E+02  0.37656925792E+02  0.10000000000E+01 0.  0.
<mgrwt>
<rscale>  0 0.12500032E+03</rscale>
<asrwt>0</asrwt>
<pdfrwt beam="2">  1        4 0.19573829E-02 0.12500032E+03</pdfrwt>
<pdfrwt beam="1">  1       -4 0.47234549E-01 0.12500032E+03</pdfrwt>
<totfact> 0.73185635E+03</totfact>
</mgrwt>
</event>
<event>
 5    1  0.3272646E-002  0.1250022E+03  0.7818608E-02  0.1235066E+00
          4   -1    0    0  501    0  0.00000000000E+00  0.00000000000E+00  0.17738089439E+02  0.17783495634E+02  0.12700000000E+01 0.  1.
         -4   -1    0    0    0  501 -0.00000000000E+00 -0.00000000000E+00 -0.21989735140E+03  0.21990101877E+03  0.12700000000E+01 0.  1.
         25    2    1    2    0    0  0.00000000000E+00  0.00000000000E+00 -0.20215926196E+03  0.23768451440E+03  0.12500224473E+03 0.  0.
    9000005    1    3    3    0    0 -0.22522489839E+02  0.42476690961E+02 -0.17699119745E+03  0.18340778555E+03  0.10000000000E+01 0.  0.
    9000005    1    3    3    0    0  0.22522489839E+02 -0.42476690961E+02 -0.25168064511E+02  0.54276728851E+02  0.10000000000E+01 0.  0.
<mgrwt>
<rscale>  0 0.12500224E+03</rscale>
<asrwt>0</asrwt>
<pdfrwt beam="1">  1        4 0.27327119E-02 0.12500224E+03</pdfrwt>
<pdfrwt beam="2">  1       -4 0.33834135E-01 0.12500224E+03</pdfrwt>
<totfact> 0.84139220E+03</totfact>
</mgrwt>
</event>
<event>
 5    1  0.3272646E-002  0.1250399E+03  0.7818608E-02  0.1235007E+00
          4   -1    0    0  501    0  0.00000000000E+00  0.00000000000E+00  0.98094574933E+03  0.98094657145E+03  0.12700000000E+01 0. -1.
         -4   -1    0    0    0  501 -0.00000000000E+00 -0.00000000000E+00 -0.38826310399E+01  0.40850610512E+01  0.12700000000E+01 0. -1.
         25    2    1    2    0    0  0.00000000000E+00  0.00000000000E+00  0.97706311829E+03  0.98503163250E+03  0.12503991320E+03 0.  0.
    9000005    1    3    3    0    0  0.55760573181E+02  0.27737335362E+02  0.44600368227E+03  0.45033197298E+03  0.10000000000E+01 0.  0.
    9000005    1    3    3    0    0 -0.55760573181E+02 -0.27737335362E+02  0.53105943602E+03  0.53469965952E+03  0.10000000000E+01 0.  0.
<mgrwt>
<rscale>  0 0.12503991E+03</rscale>
<asrwt>0</asrwt>
<pdfrwt beam="1">  1        4 0.15093056E+00 0.12503991E+03</pdfrwt>
<pdfrwt beam="2">  1       -4 0.61296182E-03 0.12503991E+03</pdfrwt>
<totfact> 0.31076818E+03</totfact>
</mgrwt>
</event>
<event>
 5    1  0.3272646E-002  0.1249992E+03  0.7818608E-02  0.1235071E+00
         -4   -1    0    0    0  501 -0.00000000000E+00  0.00000000000E+00  0.14999502589E+03  0.15000040230E+03  0.12700000000E+01 0. -1.
          4   -1    0    0  501    0  0.00000000000E+00 -0.00000000000E+00 -0.26020846646E+02  0.26051820669E+02  0.12700000000E+01 0. -1.
         25    2    1    2    0    0  0.00000000000E+00  0.00000000000E+00  0.12397417924E+03  0.17605222297E+03  0.12499915238E+03 0.  0.
    9000005    1    3    3    0    0  0.35822692228E+02 -0.50065770551E+02  0.77113780449E+02  0.98678172837E+02  0.10000000000E+01 0.  0.
    9000005    1    3    3    0    0 -0.35822692228E+02  0.50065770551E+02  0.46860398793E+02  0.77374050136E+02  0.10000000000E+01 0.  0.
<mgrwt>
<rscale>  0 0.12499915E+03</rscale>
<asrwt>0</asrwt>
<pdfrwt beam="2">  1        4 0.40060033E-02 0.12499915E+03</pdfrwt>
<pdfrwt beam="1">  1       -4 0.23078954E-01 0.12499915E+03</pdfrwt>
<totfact> 0.94334274E+03</totfact>
</mgrwt>
</event>
<event>
 5    1  0.3272646E-002  0.1250058E+03  0.7818608E-02  0.1235060E+00
          4   -1    0    0  501    0  0.00000000000E+00  0.00000000000E+00  0.17469049297E+03  0.17469510936E+03  0.12700000000E+01 0. -1.
         -4   -1    0    0    0  501 -0.00000000000E+00 -0.00000000000E+00 -0.22340107164E+02  0.22376176798E+02  0.12700000000E+01 0. -1.
         25    2    1    2    0    0  0.00000000000E+00  0.00000000000E+00  0.15235038581E+03  0.19707128616E+03  0.12500580696E+03 0.  0.
    9000005    1    3    3    0    0 -0.29736183700E+02 -0.14550541947E+02 -0.73888777412E+01  0.33934560646E+02  0.10000000000E+01 0.  0.
    9000005    1    3    3    0    0  0.29736183700E+02  0.14550541947E+02  0.15973926355E+03  0.16313672551E+03  0.10000000000E+01 0.  0.
<mgrwt>
<rscale>  0 0.12500581E+03</rscale>
<asrwt>0</asrwt>
<pdfrwt beam="1">  1        4 0.26878590E-01 0.12500581E+03</pdfrwt>
<pdfrwt beam="2">  1       -4 0.34400692E-02 0.12500581E+03</pdfrwt>
<totfact> 0.90619503E+03</totfact>
</mgrwt>
</event>
<event>
 5    1  0.3272646E-002  0.1249989E+03  0.7818608E-02  0.1235071E+00
         -4   -1    0    0    0  501 -0.00000000000E+00  0.00000000000E+00  0.29296091479E+02  0.29323606121E+02  0.12700000000E+01 0.  1.
          4   -1    0    0  501    0  0.00000000000E+00 -0.00000000000E+00 -0.13324150806E+03  0.13324756047E+03  0.12700000000E+01 0.  1.
         25    2    1    2    0    0  0.00000000000E+00  0.00000000000E+00 -0.10394541658E+03  0.16257116659E+03  0.12499893831E+03 0.  0.
    9000005    1    3    3    0    0  0.12944907589E+02  0.60905526796E+02 -0.58870668055E+02  0.85696028986E+02  0.10000000000E+01 0.  0.
    9000005    1    3    3    0    0 -0.12944907589E+02 -0.60905526796E+02 -0.45074748530E+02  0.76875137605E+02  0.10000000000E+01 0.  0.
<mgrwt>
<rscale>  0 0.12499894E+03</rscale>
<asrwt>0</asrwt>
<pdfrwt beam="2">  1        4 0.20501275E-01 0.12499894E+03</pdfrwt>
<pdfrwt beam="1">  1       -4 0.45096731E-02 0.12499894E+03</pdfrwt>
<totfact> 0.96851673E+03</totfact>
</mgrwt>
</event>
<event>
 5    1  0.3272646E-002  0.1250017E+03  0.7818608E-02  0.1235067E+00
          4   -1    0    0  501    0  0.00000000000E+00  0.00000000000E+00  0.21251165840E+03  0.21251545322E+03  0.12700000000E+01 0.  1.
         -4   -1    0    0    0  501 -0.00000000000E+00 -0.00000000000E+00 -0.18355956279E+02  0.18399837796E+02  0.12700000000E+01 0.  1.
         25    2    1    2    0    0  0.00000000000E+00  0.00000000000E+00  0.19415570212E+03  0.23091529101E+03  0.12500173982E+03 0.  0.
    9000005    1    3    3    0    0 -0.51945417504E+02  0.34682477190E+02  0.10084475821E+03  0.11862489571E+03  0.10000000000E+01 0.  0.
    9000005    1    3    3    0    0  0.51945417504E+02 -0.34682477190E+02  0.93310943912E+02  0.11229039530E+03  0.10000000000E+01 0.  0.
<mgrwt>
<rscale>  0 0.12500174E+03</rscale>
<asrwt>0</asrwt>
<pdfrwt beam="1">  1        4 0.32697770E-01 0.12500174E+03</pdfrwt>
<pdfrwt beam="2">  1       -4 0.28276606E-02 0.12500174E+03</pdfrwt>
<totfact> 0.85165943E+03</totfact>
</mgrwt>
</event>
<event>
 4    1  0.3272646E-002  0.1250699E+03  0.7818608E-02  0.1234960E+00
         -4   -1    0    0    0  501 -0.00000000000E+00  0.00000000000E+00  0.19227246754E+03  0.19227666180E+03  0.12700000000E+01 0. -1.
          4   -1    0    0  501    0  0.00000000000E+00 -0.00000000000E+00 -0.20314692732E+02  0.20354351888E+02  0.12700000000E+01 0. -1.
    9000005    1    1    2    0    0 -0.21500383041E+02 -0.34222223010E+02  0.48681663272E+01  0.40720094082E+02  0.10000000000E+01 0.  0.
    9000005    1    1    2    0    0  0.21500383041E+02  0.34222223010E+02  0.16708960848E+03  0.17191091961E+03  0.10000000000E+01 0.  0.
<mgrwt>
<rscale>  0 0.12506987E+03</rscale>
<asrwt>0</asrwt>
<pdfrwt beam="2">  1        4 0.31287106E-02 0.12506987E+03</pdfrwt>
<pdfrwt beam="1">  1       -4 0.29583754E-01 0.12506987E+03</pdfrwt>
<totfact> 0.87910639E+03</totfact>
</mgrwt>
</event>
<event>
 5    1  0.3272646E-002  0.1249977E+03  0.7818608E-02  0.1235073E+00
         -4   -1    0    0    0  501 -0.00000000000E+00  0.00000000000E+00  0.58372300487E+01  0.59737889686E+01  0.12700000000E+01 0.  1.
          4   -1    0    0  501    0  0.00000000000E+00 -0.00000000000E+00 -0.66129714694E+03  0.66129836644E+03  0.12700000000E+01 0.  1.
         25    2    1    2    0    0  0.00000000000E+00  0.00000000000E+00 -0.65545991690E+03  0.66727215541E+03  0.12499770689E+03 0.  0.
    9000005    1    3    3    0    0  0.15863405924E+02  0.57654702586E+02 -0.42461550626E+03  0.42880653042E+03  0.10000000000E+01 0.  0.
    9000005    1    3    3    0    0 -0.15863405924E+02 -0.57654702586E+02 -0.23084441064E+03  0.23846562499E+03  0.10000000000E+01 0.  0.
<mgrwt>
<rscale>  0 0.12499771E+03</rscale>
<asrwt>0</asrwt>
<pdfrwt beam="2">  1        4 0.10174856E+00 0.12499771E+03</pdfrwt>
<pdfrwt beam="1">  1       -4 0.90863425E-03 0.12499771E+03</pdfrwt>
<totfact> 0.44873805E+03</totfact>
</mgrwt>
</event>
<event>
 5    1  0.3272646E-002  0.1250043E+03  0.7818608E-02  0.1235063E+00
          4   -1    0    0  501    0  0.00000000000E+00  0.00000000000E+00  0.14862991486E+03  0.14863534065E+03  0.12700000000E+01 0. -1.
         -4   -1    0    0    0  501 -0.00000000000E+00 -0.00000000000E+00 -0.26262258643E+02  0.26292948276E+02  0.12700000000E+01 0. -1.
         25    2    1    2    0    0  0.00000000000E+00  0.00000000000E+00  0.12236765621E+03  0.17492828892E+03  0.12500425184E+03 0.  0.
    9000005    1    3    3    0    0  0.52921477851E+02 -0.22414893880E+02  0.26837547610E+02  0.63437877072E+02  0.10000000000E+01 0.  0.
    9000005    1    3    3    0    0 -0.52921477851E+02  0.22414893880E+02  0.95530108602E+02  0.11149041185E+03  0.10000000000E+01 0.  0.
<mgrwt>
<rscale>  0 0.12500425E+03</rscale>
<asrwt>0</asrwt>
<pdfrwt beam="1">  1        4 0.22868919E-01 0.12500425E+03</pdfrwt>
<pdfrwt beam="2">  1       -4 0.40431256E-02 0.12500425E+03</pdfrwt>
<totfact> 0.94528959E+03</totfact>
</mgrwt>
</event>
<event>
 5    1  0.3272646E-002  0.1250010E+03  0.7818608E-02  0.1235068E+00
         -4   -1    0    0    0  501 -0.00000000000E+00  0.00000000000E+00  0.12172371831E+03  0.12173034338E+03  0.12700000000E+01 0.  1.
          4   -1    0    0  501    0  0.00000000000E+00 -0.00000000000E+00 -0.32071559946E+02  0.32096695428E+02  0.12700000000E+01 0.  1.
         25    2    1    2    0    0  0.00000000000E+00  0.00000000000E+00  0.89652158365E+02  0.15382703881E+03  0.12500099347E+03 0.  0.
    9000005    1    3    3    0    0 -0.15413972621E+02  0.60331112123E+02  0.51323687518E+02  0.80700399890E+02  0.10000000000E+01 0.  0.
    9000005    1    3    3    0    0  0.15413972621E+02 -0.60331112123E+02  0.38328470847E+02  0.73126638918E+02  0.10000000000E+01 0.  0.
<mgrwt>
<rscale>  0 0.12500099E+03</rscale>
<asrwt>0</asrwt>
<pdfrwt beam="2">  1        4 0.49365293E-02 0.12500099E+03</pdfrwt>
<pdfrwt beam="1">  1       -4 0.18729169E-01 0.12500099E+03</pdfrwt>
<totfact> 0.98544030E+03</totfact>
</mgrwt>
</event>
<event>
 5    1  0.3272646E-002  0.1249945E+03  0.7818608E-02  0.1235078E+00
          4   -1    0    0  501    0  0.00000000000E+00  0.00000000000E+00  0.25181995451E+02  0.25213999978E+02  0.12700000000E+01 0. -1.
         -4   -1    0    0    0  501 -0.00000000000E+00 -0.00000000000E+00 -0.15497397008E+03  0.15497917377E+03  0.12700000000E+01 0. -1.
         25    2    1    2    0    0  0.00000000000E+00  0.00000000000E+00 -0.12979197463E+03  0.18019317375E+03  0.12499449263E+03 0.  0.
    9000005    1    3    3    0    0 -0.70709470088E+01 -0.61720949539E+02 -0.55179084160E+02  0.83097564540E+02  0.10000000000E+01 0.  0.
    9000005    1    3    3    0    0  0.70709470088E+01  0.61720949539E+02 -0.74612890472E+02  0.97095609212E+02  0.10000000000E+01 0.  0.
<mgrwt>
<rscale>  0 0.12499449E+03</rscale>
<asrwt>0</asrwt>
<pdfrwt beam="1">  1        4 0.38770154E-02 0.12499449E+03</pdfrwt>
<pdfrwt beam="2">  1       -4 0.23845011E-01 0.12499449E+03</pdfrwt>
<totfact> 0.93593800E+03</totfact>
</mgrwt>
</event>
<event>
 5    1  0.3272646E-002  0.1250026E+03  0.7818608E-02  0.1235065E+00
         -4   -1    0    0    0  501 -0.00000000000E+00  0.00000000000E+00  0.22666580541E+02  0.22702131473E+02  0.12700000000E+01 0. -1.
          4   -1    0    0  501    0  0.00000000000E+00 -0.00000000000E+00 -0.17216937955E+03  0.17217406354E+03  0.12700000000E+01 0. -1.
         25    2    1    2    0    0  0.00000000000E+00  0.00000000000E+00 -0.14950279901E+03  0.19487619501E+03  0.12500257785E+03 0.  0.
    9000005    1    3    3    0    0 -0.15890896912E+02 -0.59351770108E+02 -0.56958699573E+02  0.83788105819E+02  0.10000000000E+01 0.  0.
    9000005    1    3    3    0    0  0.15890896912E+02  0.59351770108E+02 -0.92544099438E+02  0.11108808919E+03  0.10000000000E+01 0.  0.
<mgrwt>
<rscale>  0 0.12500258E+03</rscale>
<asrwt>0</asrwt>
<pdfrwt beam="2">  1        4 0.26490691E-01 0.12500258E+03</pdfrwt>
<pdfrwt beam="1">  1       -4 0.34902613E-02 0.12500258E+03</pdfrwt>
<totfact> 0.91000475E+03</totfact>
</mgrwt>
</event>
<event>
 5    1  0.3272646E-002  0.1250103E+03  0.7818608E-02  0.1235053E+00
          4   -1    0    0  501    0  0.00000000000E+00  0.00000000000E+00  0.27347018964E+03  0.27347313857E+03  0.12700000000E+01 0.  1.
         -4   -1    0    0    0  501 -0.00000000000E+00 -0.00000000000E+00 -0.14255109325E+02  0.14311570210E+02  0.12700000000E+01 0.  1.
         25    2    1    2    0    0  0.00000000000E+00  0.00000000000E+00  0.25921508031E+03  0.28778470878E+03  0.12501032256E+03 0.  0.
    9000005    1    3    3    0    0  0.26359459518E+02  0.54857438397E+02  0.96910153805E+02  0.11444097852E+03  0.10000000000E+01 0.  0.
    9000005    1    3    3    0    0 -0.26359459518E+02 -0.54857438397E+02  0.16230492651E+03  0.17334373027E+03  0.10000000000E+01 0.  0.
<mgrwt>
<rscale>  0 0.12501032E+03</rscale>
<asrwt>0</asrwt>
<pdfrwt beam="1">  1        4 0.42076903E-01 0.12501032E+03</pdfrwt>
<pdfrwt beam="2">  1       -4 0.21976639E-02 0.12501032E+03</pdfrwt>
<totfact> 0.77139413E+03</totfact>
</mgrwt>
</event>
<event>
 5    1  0.3272646E-002  0.1250030E+03  0.7818608E-02  0.1235065E+00
          4   -1    0    0  501    0  0.00000000000E+00  0.00000000000E+00  0.39418692114E+02  0.39439145376E+02  0.12700000000E+01 0. -1.
         -4   -1    0    0    0  501 -0.00000000000E+00 -0.00000000000E+00 -0.99050926127E+02  0.99059067564E+02  0.12700000000E+01 0. -1.
         25    2    1    2    0    0  0.00000000000E+00  0.00000000000E+00 -0.59632234013E+02  0.13849821294E+03  0.12500300658E+03 0.  0.
    9000005    1    3    3    0    0  0.11838787030E+01  0.62931037868E+01 -0.98691910073E+02  0.98904488462E+02  0.10000000000E+01 0.  0.
    9000005    1    3    3    0    0 -0.11838787030E+01 -0.62931037868E+01  0.39059676060E+02  0.39593724477E+02  0.10000000000E+01 0.  0.
<mgrwt>
<rscale>  0 0.12500301E+03</rscale>
<asrwt>0</asrwt>
<pdfrwt beam="1">  1        4 0.60666138E-02 0.12500301E+03</pdfrwt>
<pdfrwt beam="2">  1       -4 0.15240804E-01 0.12500301E+03</pdfrwt>
<totfact> 0.10164118E+04</totfact>
</mgrwt>
</event>
<event>
 5    1  0.3272646E-002  0.1250004E+03  0.7818608E-02  0.1235069E+00
          4   -1    0    0  501    0  0.00000000000E+00  0.00000000000E+00  0.15023685493E+03  0.15024222269E+03  0.12700000000E+01 0.  1.
         -4   -1    0    0    0  501 -0.00000000000E+00 -0.00000000000E+00 -0.25979439538E+02  0.26010462870E+02  0.12700000000E+01 0.  1.
         25    2    1    2    0    0  0.00000000000E+00  0.00000000000E+00  0.12425741539E+03  0.17625268556E+03  0.12500041555E+03 0.  0.
    9000005    1    3    3    0    0 -0.18317819912E+02 -0.21844670128E+02 -0.16283235788E+02  0.32846246468E+02  0.10000000000E+01 0.  0.
    9000005    1    3    3    0    0  0.18317819912E+02  0.21844670128E+02  0.14054065118E+03  0.14340643909E+03  0.10000000000E+01 0.  0.
<mgrwt>
<rscale>  0 0.12500042E+03</rscale>
<asrwt>0</asrwt>
<pdfrwt beam="1">  1        4 0.23116161E-01 0.12500042E+03</pdfrwt>
<pdfrwt beam="2">  1       -4 0.39996362E-02 0.12500042E+03</pdfrwt>
<totfact> 0.94295035E+03</totfact>
</mgrwt>
</event>
<event>
 5    1  0.3272646E-002  0.1249993E+03  0.7818608E-02  0.1235070E+00
         -4   -1    0    0    0  501 -0.00000000000E+00  0.00000000000E+00  0.52012170170E+01  0.53540226426E+01  0.12700000000E+01 0. -1.
          4   -1    0    0  501    0  0.00000000000E+00 -0.00000000000E+00 -0.73999152058E+03  0.73999261039E+03  0.12700000000E+01 0. -1.
         25    2    1    2    0    0  0.00000000000E+00  0.00000000000E+00 -0.73479030356E+03  0.74534663303E+03  0.12499925264E+03 0.  0.
    9000005    1    3    3    0    0  0.38966471552E+02  0.38715932481E+01 -0.76997909918E+02  0.86388964986E+02  0.10000000000E+01 0.  0.
    9000005    1    3    3    0    0 -0.38966471552E+02 -0.38715932481E+01 -0.65779239365E+03  0.65895766805E+03  0.10000000000E+01 0.  0.
<mgrwt>
<rscale>  0 0.12499925E+03</rscale>
<asrwt>0</asrwt>
<pdfrwt beam="2">  1        4 0.11385661E+00 0.12499925E+03</pdfrwt>
<pdfrwt beam="1">  1       -4 0.81202593E-03 0.12499925E+03</pdfrwt>
<totfact> 0.40798392E+03</totfact>
</mgrwt>
</event>
<event>
 5    1  0.3272646E-002  0.1250048E+03  0.7818608E-02  0.1235062E+00
         -4   -1    0    0    0  501 -0.00000000000E+00  0.00000000000E+00  0.16127061732E+03  0.16127561784E+03  0.12700000000E+01 0.  1.
          4   -1    0    0  501    0  0.00000000000E+00 -0.00000000000E+00 -0.24201533251E+02  0.24234832611E+02  0.12700000000E+01 0.  1.
         25    2    1    2    0    0  0.00000000000E+00  0.00000000000E+00  0.13706908407E+03  0.18551045045E+03  0.12500477359E+03 0.  0.
    9000005    1    3    3    0    0 -0.37958490619E+02  0.20490023248E+02  0.14266490941E+01  0.43170862748E+02  0.10000000000E+01 0.  0.
    9000005    1    3    3    0    0  0.37958490619E+02 -0.20490023248E+02  0.13564243497E+03  0.14233958771E+03  0.10000000000E+01 0.  0.
<mgrwt>
<rscale>  0 0.12500477E+03</rscale>
<asrwt>0</asrwt>
<pdfrwt beam="2">  1        4 0.37262589E-02 0.12500477E+03</pdfrwt>
<pdfrwt beam="1">  1       -4 0.24813811E-01 0.12500477E+03</pdfrwt>
<totfact> 0.92624494E+03</totfact>
</mgrwt>
</event>
<event>
 5    1  0.3272646E-002  0.1250006E+03  0.7818608E-02  0.1235068E+00
          4   -1    0    0  501    0  0.00000000000E+00  0.00000000000E+00  0.97151743065E+02  0.97160043642E+02  0.12700000000E+01 0. -1.
         -4   -1    0    0    0  501 -0.00000000000E+00 -0.00000000000E+00 -0.40188025970E+02  0.40208087885E+02  0.12700000000E+01 0. -1.
         25    2    1    2    0    0  0.00000000000E+00  0.00000000000E+00  0.56963717095E+02  0.13736813153E+03  0.12500055397E+03 0.  0.
    9000005    1    3    3    0    0  0.49551914651E+01  0.31594030851E+02 -0.30519542009E+02  0.44217407797E+02  0.10000000000E+01 0.  0.
    9000005    1    3    3    0    0 -0.49551914651E+01 -0.31594030851E+02  0.87483259104E+02  0.93150723730E+02  0.10000000000E+01 0.  0.
<mgrwt>
<rscale>  0 0.12500055E+03</rscale>
<asrwt>0</asrwt>
<pdfrwt beam="1">  1        4 0.14948604E-01 0.12500055E+03</pdfrwt>
<pdfrwt beam="2">  1       -4 0.61849549E-02 0.12500055E+03</pdfrwt>
<totfact> 0.10188267E+04</totfact>
</mgrwt>
</event>
<event>
 5    1  0.3272646E-002  0.1250063E+03  0.7818608E-02  0.1235059E+00
         -4   -1    0    0    0  501 -0.00000000000E+00  0.00000000000E+00  0.70739444806E+03  0.70739558809E+03  0.12700000000E+01 0.  1.
          4   -1    0    0  501    0  0.00000000000E+00 -0.00000000000E+00 -0.54484123076E+01  0.55944701871E+01  0.12700000000E+01 0.  1.
         25    2    1    2    0    0  0.00000000000E+00  0.00000000000E+00  0.70194603575E+03  0.71299005828E+03  0.12500634420E+03 0.  0.
    9000005    1    3    3    0    0 -0.10213127197E+01 -0.90271935814E+01 -0.16900648942E+01  0.92946018190E+01  0.10000000000E+01 0.  0.
    9000005    1    3    3    0    0  0.10213127197E+01  0.90271935814E+01  0.70363610065E+03  0.70369545646E+03  0.10000000000E+01 0.  0.
<mgrwt>
<rscale>  0 0.12500634E+03</rscale>
<asrwt>0</asrwt>
<pdfrwt beam="2">  1        4 0.84954069E-03 0.12500634E+03</pdfrwt>
<pdfrwt beam="1">  1       -4 0.10884117E+00 0.12500634E+03</pdfrwt>
<totfact> 0.42403919E+03</totfact>
</mgrwt>
</event>
<event>
 5    1  0.3272646E-002  0.1249981E+03  0.7818608E-02  0.1235072E+00
         -4   -1    0    0    0  501 -0.00000000000E+00  0.00000000000E+00  0.54699560230E+02  0.54714301507E+02  0.12700000000E+01 0.  1.
          4   -1    0    0  501    0  0.00000000000E+00 -0.00000000000E+00 -0.71380606760E+02  0.71391903753E+02  0.12700000000E+01 0.  1.
         25    2    1    2    0    0  0.00000000000E+00  0.00000000000E+00 -0.16681046530E+02  0.12610620526E+03  0.12499807075E+03 0.  0.
    9000005    1    3    3    0    0 -0.56738253822E+02 -0.14049798520E+02  0.13957523705E+02  0.60103566893E+02  0.10000000000E+01 0.  0.
    9000005    1    3    3    0    0  0.56738253822E+02  0.14049798520E+02 -0.30638570235E+02  0.66002638367E+02  0.10000000000E+01 0.  0.
<mgrwt>
<rscale>  0 0.12499807E+03</rscale>
<asrwt>0</asrwt>
<pdfrwt beam="2">  1        4 0.10983635E-01 0.12499807E+03</pdfrwt>
<pdfrwt beam="1">  1       -4 0.84173199E-02 0.12499807E+03</pdfrwt>
<totfact> 0.10429085E+04</totfact>
</mgrwt>
</event>
<event>
 5    1  0.3272646E-002  0.1250010E+03  0.7818608E-02  0.1235068E+00
         -4   -1    0    0    0  501 -0.00000000000E+00  0.00000000000E+00  0.18832859970E+03  0.18833288180E+03  0.12700000000E+01 0.  1.
          4   -1    0    0  501    0  0.00000000000E+00 -0.00000000000E+00 -0.20718036919E+02  0.20756925442E+02  0.12700000000E+01 0.  1.
         25    2    1    2    0    0  0.00000000000E+00  0.00000000000E+00  0.16761056278E+03  0.20908980724E+03  0.12500098693E+03 0.  0.
    9000005    1    3    3    0    0 -0.31962877232E+02  0.23570157415E+02  0.30960164096E+01  0.39846745904E+02  0.10000000000E+01 0.  0.
    9000005    1    3    3    0    0  0.31962877232E+02 -0.23570157415E+02  0.16451454637E+03  0.16924306134E+03  0.10000000000E+01 0.  0.
<mgrwt>
<rscale>  0 0.12500099E+03</rscale>
<asrwt>0</asrwt>
<pdfrwt beam="2">  1        4 0.31907110E-02 0.12500099E+03</pdfrwt>
<pdfrwt beam="1">  1       -4 0.28976952E-01 0.12500099E+03</pdfrwt>
<totfact> 0.88622786E+03</totfact>
</mgrwt>
</event>
<event>
 5    1  0.3272646E-002  0.1250056E+03  0.7818608E-02  0.1235060E+00
         -4   -1    0    0    0  501 -0.00000000000E+00  0.00000000000E+00  0.12017540295E+02  0.12084460051E+02  0.12700000000E+01 0. -1.
          4   -1    0    0  501    0  0.00000000000E+00 -0.00000000000E+00 -0.32410433462E+03  0.32410682285E+03  0.12700000000E+01 0. -1.
         25    2    1    2    0    0  0.00000000000E+00  0.00000000000E+00 -0.31208679433E+03  0.33619128290E+03  0.12500564591E+03 0.  0.
    9000005    1    3    3    0    0 -0.19853890939E+02  0.28437374434E+02 -0.29586010931E+03  0.29788767267E+03  0.10000000000E+01 0.  0.
    9000005    1    3    3    0    0  0.19853890939E+02 -0.28437374434E+02 -0.16226685017E+02  0.38303610231E+02  0.10000000000E+01 0.  0.
<mgrwt>
<rscale>  0 0.12500565E+03</rscale>
<asrwt>0</asrwt>
<pdfrwt beam="2">  1        4 0.49867538E-01 0.12500565E+03</pdfrwt>
<pdfrwt beam="1">  1       -4 0.18541917E-02 0.12500565E+03</pdfrwt>
<totfact> 0.71261977E+03</totfact>
</mgrwt>
</event>
<event>
 5    1  0.3272646E-002  0.1250009E+03  0.7818608E-02  0.1235068E+00
         -4   -1    0    0    0  501 -0.00000000000E+00  0.00000000000E+00  0.73355931851E+02  0.73366924685E+02  0.12700000000E+01 0.  1.
          4   -1    0    0  501    0  0.00000000000E+00 -0.00000000000E+00 -0.53228831910E+02  0.53243980378E+02  0.12700000000E+01 0.  1.
         25    2    1    2    0    0  0.00000000000E+00  0.00000000000E+00  0.20127099941E+02  0.12661090506E+03  0.12500088451E+03 0.  0.
    9000005    1    3    3    0    0 -0.23685306380E+02 -0.22686341217E+02 -0.43815971853E+02  0.54740325223E+02  0.10000000000E+01 0.  0.
    9000005    1    3    3    0    0  0.23685306380E+02  0.22686341217E+02  0.63943071794E+02  0.71870579840E+02  0.10000000000E+01 0.  0.
<mgrwt>
<rscale>  0 0.12500088E+03</rscale>
<asrwt>0</asrwt>
<pdfrwt beam="2">  1        4 0.81910620E-02 0.12500088E+03</pdfrwt>
<pdfrwt beam="1">  1       -4 0.11287539E-01 0.12500088E+03</pdfrwt>
<totfact> 0.10417403E+04</totfact>
</mgrwt>
</event>
<event>
 5    1  0.3272646E-002  0.1249802E+03  0.7818608E-02  0.1235100E+00
         -4   -1    0    0    0  501 -0.00000000000E+00  0.00000000000E+00  0.20020059531E+02  0.20060301185E+02  0.12700000000E+01 0. -1.
          4   -1    0    0  501    0  0.00000000000E+00 -0.00000000000E+00 -0.19481681025E+03  0.19482094974E+03  0.12700000000E+01 0. -1.
         25    2    1    2    0    0  0.00000000000E+00  0.00000000000E+00 -0.17479675072E+03  0.21488125093E+03  0.12498019017E+03 0.  0.
    9000005    1    3    3    0    0 -0.36608665969E+02  0.38645637167E+02 -0.14364761495E+03  0.15319698749E+03  0.10000000000E+01 0.  0.
    9000005    1    3    3    0    0  0.36608665969E+02 -0.38645637167E+02 -0.31149135778E+02  0.61684263437E+02  0.10000000000E+01 0.  0.
<mgrwt>
<rscale>  0 0.12498019E+03</rscale>
<asrwt>0</asrwt>
<pdfrwt beam="2">  1        4 0.29975230E-01 0.12498019E+03</pdfrwt>
<pdfrwt beam="1">  1       -4 0.30834232E-02 0.12498019E+03</pdfrwt>
<totfact> 0.87723691E+03</totfact>
</mgrwt>
</event>
<event>
 5    1  0.3272646E-002  0.1250006E+03  0.7818608E-02  0.1235068E+00
         -4   -1    0    0    0  501 -0.00000000000E+00  0.00000000000E+00  0.16166373074E+02  0.16216180758E+02  0.12700000000E+01 0. -1.
          4   -1    0    0  501    0  0.00000000000E+00 -0.00000000000E+00 -0.24120725290E+03  0.24121059627E+03  0.12700000000E+01 0. -1.
         25    2    1    2    0    0  0.00000000000E+00  0.00000000000E+00 -0.22504087983E+03  0.25742677703E+03  0.12500059174E+03 0.  0.
    9000005    1    3    3    0    0  0.45537189643E+02 -0.42108600182E+02 -0.12827416183E+03  0.14248519377E+03  0.10000000000E+01 0.  0.
    9000005    1    3    3    0    0 -0.45537189643E+02  0.42108600182E+02 -0.96766717993E+02  0.11494158325E+03  0.10000000000E+01 0.  0.
<mgrwt>
<rscale>  0 0.12500059E+03</rscale>
<asrwt>0</asrwt>
<pdfrwt beam="2">  1        4 0.37112894E-01 0.12500059E+03</pdfrwt>
<pdfrwt beam="1">  1       -4 0.24912230E-02 0.12500059E+03</pdfrwt>
<totfact> 0.81267468E+03</totfact>
</mgrwt>
</event>
<event>
 5    1  0.3272646E-002  0.1250062E+03  0.7818608E-02  0.1235060E+00
          4   -1    0    0  501    0  0.00000000000E+00  0.00000000000E+00  0.25085541501E+03  0.25085862979E+03  0.12700000000E+01 0.  1.
         -4   -1    0    0    0  501 -0.00000000000E+00 -0.00000000000E+00 -0.15544039730E+02  0.15595835057E+02  0.12700000000E+01 0.  1.
         25    2    1    2    0    0  0.00000000000E+00  0.00000000000E+00  0.23531137528E+03  0.26645446485E+03  0.12500615385E+03 0.  0.
    9000005    1    3    3    0    0 -0.29418054491E+02  0.79037389220E+01  0.13408124135E+01  0.30507192544E+02  0.10000000000E+01 0.  0.
    9000005    1    3    3    0    0  0.29418054491E+02 -0.79037389220E+01  0.23397056287E+03  0.23594727231E+03  0.10000000000E+01 0.  0.
<mgrwt>
<rscale>  0 0.12500615E+03</rscale>
<asrwt>0</asrwt>
<pdfrwt beam="1">  1        4 0.38597371E-01 0.12500615E+03</pdfrwt>
<pdfrwt beam="2">  1       -4 0.23956223E-02 0.12500615E+03</pdfrwt>
<totfact> 0.79997761E+03</totfact>
</mgrwt>
</event>
<event>
 5    1  0.3272646E-002  0.1249990E+03  0.7818608E-02  0.1235071E+00
          4   -1    0    0  501    0  0.00000000000E+00  0.00000000000E+00  0.49115740041E+03  0.49115904235E+03  0.12700000000E+01 0.  1.
         -4   -1    0    0    0  501 -0.00000000000E+00 -0.00000000000E+00 -0.79006644039E+01  0.80020871042E+01  0.12700000000E+01 0.  1.
         25    2    1    2    0    0  0.00000000000E+00  0.00000000000E+00  0.48325673601E+03  0.49916112945E+03  0.12499904103E+03 0.  0.
    9000005    1    3    3    0    0  0.33838001968E+02  0.45647198918E+02  0.13776267465E+03  0.14902426539E+03  0.10000000000E+01 0.  0.
    9000005    1    3    3    0    0 -0.33838001968E+02 -0.45647198918E+02  0.34549406136E+03  0.35013686407E+03  0.10000000000E+01 0.  0.
<mgrwt>
<rscale>  0 0.12499904E+03</rscale>
<asrwt>0</asrwt>
<pdfrwt beam="1">  1        4 0.75570614E-01 0.12499904E+03</pdfrwt>
<pdfrwt beam="2">  1       -4 0.12234147E-02 0.12499904E+03</pdfrwt>
<totfact> 0.55930685E+03</totfact>
</mgrwt>
</event>
<event>
 5    1  0.3272646E-002  0.1249984E+03  0.7818608E-02  0.1235072E+00
          4   -1    0    0  501    0  0.00000000000E+00  0.00000000000E+00  0.14280236956E+02  0.14336598882E+02  0.12700000000E+01 0. -1.
         -4   -1    0    0    0  501 -0.00000000000E+00 -0.00000000000E+00 -0.27293893042E+03  0.27294188509E+03  0.12700000000E+01 0. -1.
         25    2    1    2    0    0  0.00000000000E+00  0.00000000000E+00 -0.25865869346E+03  0.28727848398E+03  0.12499843060E+03 0.  0.
    9000005    1    3    3    0    0 -0.41911530735E+02 -0.19675788485E+02 -0.32872663178E+02  0.56791945252E+02  0.10000000000E+01 0.  0.
    9000005    1    3    3    0    0  0.41911530735E+02  0.19675788485E+02 -0.22578603029E+03  0.23048653872E+03  0.10000000000E+01 0.  0.
<mgrwt>
<rscale>  0 0.12499843E+03</rscale>
<asrwt>0</asrwt>
<pdfrwt beam="1">  1        4 0.22015225E-02 0.12499843E+03</pdfrwt>
<pdfrwt beam="2">  1       -4 0.41995164E-01 0.12499843E+03</pdfrwt>
<totfact> 0.77225518E+03</totfact>
</mgrwt>
</event>
<event>
 5    1  0.3272646E-002  0.1249934E+03  0.7818608E-02  0.1235080E+00
          4   -1    0    0  501    0  0.00000000000E+00  0.00000000000E+00  0.90761470079E+02  0.90770355022E+02  0.12700000000E+01 0.  1.
         -4   -1    0    0    0  501 -0.00000000000E+00 -0.00000000000E+00 -0.43013713953E+02  0.43032458541E+02  0.12700000000E+01 0.  1.
         25    2    1    2    0    0  0.00000000000E+00  0.00000000000E+00  0.47747756126E+02  0.13380281356E+03  0.12499337863E+03 0.  0.
    9000005    1    3    3    0    0 -0.75107760892E+01 -0.53510427008E+02 -0.97238009111E+01  0.54912019269E+02  0.10000000000E+01 0.  0.
    9000005    1    3    3    0    0  0.75107760892E+01  0.53510427008E+02  0.57471557037E+02  0.78890794294E+02  0.10000000000E+01 0.  0.
<mgrwt>
<rscale>  0 0.12499338E+03</rscale>
<asrwt>0</asrwt>
<pdfrwt beam="1">  1        4 0.13965428E-01 0.12499338E+03</pdfrwt>
<pdfrwt beam="2">  1       -4 0.66196198E-02 0.12499338E+03</pdfrwt>
<totfact> 0.10264899E+04</totfact>
</mgrwt>
</event>
<event>
 5    1  0.3272646E-002  0.1250290E+03  0.7818608E-02  0.1235024E+00
         -4   -1    0    0    0  501 -0.00000000000E+00  0.00000000000E+00  0.28350176122E+02  0.28378607897E+02  0.12700000000E+01 0. -1.
          4   -1    0    0  501    0  0.00000000000E+00 -0.00000000000E+00 -0.13774912585E+03  0.13775498021E+03  0.12700000000E+01 0. -1.
         25    2    1    2    0    0  0.00000000000E+00  0.00000000000E+00 -0.10939894973E+03  0.16613358810E+03  0.12502895223E+03 0.  0.
    9000005    1    3    3    0    0  0.17338353656E+02 -0.12100292701E+02  0.23460861047E+02  0.31598221343E+02  0.10000000000E+01 0.  0.
    9000005    1    3    3    0    0 -0.17338353656E+02  0.12100292701E+02 -0.13285981077E+03  0.13453536676E+03  0.10000000000E+01 0.  0.
<mgrwt>
<rscale>  0 0.12502895E+03</rscale>
<asrwt>0</asrwt>
<pdfrwt beam="2">  1        4 0.21194810E-01 0.12502895E+03</pdfrwt>
<pdfrwt beam="1">  1       -4 0.43642030E-02 0.12502895E+03</pdfrwt>
<totfact> 0.96110622E+03</totfact>
</mgrwt>
</event>
<event>
 5    1  0.3272646E-002  0.1249989E+03  0.7818608E-02  0.1235071E+00
         -4   -1    0    0    0  501 -0.00000000000E+00  0.00000000000E+00  0.43550051969E+02  0.43568565807E+02  0.12700000000E+01 0.  1.
          4   -1    0    0  501    0  0.00000000000E+00 -0.00000000000E+00 -0.89651969459E+02  0.89660964348E+02  0.12700000000E+01 0.  1.
         25    2    1    2    0    0  0.00000000000E+00  0.00000000000E+00 -0.46101917490E+02  0.13322953016E+03  0.12499888363E+03 0.  0.
    9000005    1    3    3    0    0 -0.81806170090E+01  0.57121453722E+02 -0.48617869516E+02  0.75461779771E+02  0.10000000000E+01 0.  0.
    9000005    1    3    3    0    0  0.81806170090E+01 -0.57121453722E+02  0.25159520258E+01  0.57767750385E+02  0.10000000000E+01 0.  0.
<mgrwt>
<rscale>  0 0.12499888E+03</rscale>
<asrwt>0</asrwt>
<pdfrwt beam="2">  1        4 0.13794727E-01 0.12499888E+03</pdfrwt>
<pdfrwt beam="1">  1       -4 0.67021240E-02 0.12499888E+03</pdfrwt>
<totfact> 0.10275783E+04</totfact>
</mgrwt>
</event>
<event>
 5    1  0.3272646E-002  0.1250006E+03  0.7818608E-02  0.1235068E+00
         -4   -1    0    0    0  501 -0.00000000000E+00  0.00000000000E+00  0.41245833197E+02  0.41265380843E+02  0.12700000000E+01 0.  1.
          4   -1    0    0  501    0  0.00000000000E+00 -0.00000000000E+00 -0.94661265775E+02  0.94669784716E+02  0.12700000000E+01 0.  1.
         25    2    1    2    0    0  0.00000000000E+00  0.00000000000E+00 -0.53415432578E+02  0.13593516556E+03  0.12500064319E+03 0.  0.
    9000005    1    3    3    0    0 -0.32818205612E+01  0.47970595442E+02  0.16700710981E+02  0.50910334123E+02  0.10000000000E+01 0.  0.
    9000005    1    3    3    0    0  0.32818205612E+01 -0.47970595442E+02 -0.70116143559E+02  0.85024831436E+02  0.10000000000E+01 0.  0.
<mgrwt>
<rscale>  0 0.12500064E+03</rscale>
<asrwt>0</asrwt>
<pdfrwt beam="2">  1        4 0.14565431E-01 0.12500064E+03</pdfrwt>
<pdfrwt beam="1">  1       -4 0.63476718E-02 0.12500064E+03</pdfrwt>
<totfact> 0.10218249E+04</totfact>
</mgrwt>
</event>
<event>
 5    1  0.3272646E-002  0.1249982E+03  0.7818608E-02  0.1235072E+00
          4   -1    0    0  501    0  0.00000000000E+00  0.00000000000E+00  0.12807018471E+03  0.12807648149E+03  0.12700000000E+01 0. -1.
         -4   -1    0    0    0  501 -0.00000000000E+00 -0.00000000000E+00 -0.30479721800E+02  0.30506168901E+02  0.12700000000E+01 0. -1.
         25    2    1    2    0    0  0.00000000000E+00  0.00000000000E+00  0.97590462910E+02  0.15858265039E+03  0.12499823421E+03 0.  0.
    9000005    1    3    3    0    0  0.39307365893E+02  0.36468881583E+02  0.80769299491E+01  0.54233616280E+02  0.10000000000E+01 0.  0.
    9000005    1    3    3    0    0 -0.39307365893E+02 -0.36468881583E+02  0.89513532961E+02  0.10434903411E+03  0.10000000000E+01 0.  0.
<mgrwt>
<rscale>  0 0.12499823E+03</rscale>
<asrwt>0</asrwt>
<pdfrwt beam="1">  1        4 0.19705624E-01 0.12499823E+03</pdfrwt>
<pdfrwt beam="2">  1       -4 0.46917067E-02 0.12499823E+03</pdfrwt>
<totfact> 0.97620611E+03</totfact>
</mgrwt>
</event>
<event>
 5    1  0.3272646E-002  0.1249954E+03  0.7818608E-02  0.1235076E+00
         -4   -1    0    0    0  501 -0.00000000000E+00  0.00000000000E+00  0.33755194021E+02  0.33779076711E+02  0.12700000000E+01 0.  1.
          4   -1    0    0  501    0  0.00000000000E+00 -0.00000000000E+00 -0.11564612644E+03  0.11565309966E+03  0.12700000000E+01 0.  1.
         25    2    1    2    0    0  0.00000000000E+00  0.00000000000E+00 -0.81890932420E+02  0.14943217637E+03  0.12499540200E+03 0.  0.
    9000005    1    3    3    0    0 -0.13759479485E+02  0.59488524688E+02 -0.56839556442E+02  0.83426272971E+02  0.10000000000E+01 0.  0.
    9000005    1    3    3    0    0  0.13759479485E+02 -0.59488524688E+02 -0.25051375978E+02  0.66005903399E+02  0.10000000000E+01 0.  0.
<mgrwt>
<rscale>  0 0.12499540E+03</rscale>
<asrwt>0</asrwt>
<pdfrwt beam="2">  1        4 0.17794085E-01 0.12499540E+03</pdfrwt>
<pdfrwt beam="1">  1       -4 0.51954804E-02 0.12499540E+03</pdfrwt>
<totfact> 0.99427295E+03</totfact>
</mgrwt>
</event>
<event>
 5    1  0.3272646E-002  0.1249986E+03  0.7818608E-02  0.1235071E+00
         -4   -1    0    0    0  501 -0.00000000000E+00  0.00000000000E+00  0.10120863879E+03  0.10121660667E+03  0.12700000000E+01 0. -1.
          4   -1    0    0  501    0  0.00000000000E+00 -0.00000000000E+00 -0.38575233564E+02  0.38596133803E+02  0.12700000000E+01 0. -1.
         25    2    1    2    0    0  0.00000000000E+00  0.00000000000E+00  0.62633405228E+02  0.13981274047E+03  0.12499863579E+03 0.  0.
    9000005    1    3    3    0    0 -0.53702986531E+02  0.31280329526E+02  0.24008176919E+02  0.66632291995E+02  0.10000000000E+01 0.  0.
    9000005    1    3    3    0    0  0.53702986531E+02 -0.31280329526E+02  0.38625228309E+02  0.73180448479E+02  0.10000000000E+01 0.  0.
<mgrwt>
<rscale>  0 0.12499864E+03</rscale>
<asrwt>0</asrwt>
<pdfrwt beam="2">  1        4 0.59368720E-02 0.12499864E+03</pdfrwt>
<pdfrwt beam="1">  1       -4 0.15572780E-01 0.12499864E+03</pdfrwt>
<totfact> 0.10137780E+04</totfact>
</mgrwt>
</event>
<event>
 5    1  0.3272646E-002  0.1249973E+03  0.7818608E-02  0.1235074E+00
         -4   -1    0    0    0  501 -0.00000000000E+00  0.00000000000E+00  0.16399711270E+03  0.16400203009E+03  0.12700000000E+01 0.  1.
          4   -1    0    0  501    0  0.00000000000E+00 -0.00000000000E+00 -0.23795776460E+02  0.23829642829E+02  0.12700000000E+01 0.  1.
         25    2    1    2    0    0  0.00000000000E+00  0.00000000000E+00  0.14020133624E+03  0.18783167292E+03  0.12499729064E+03 0.  0.
    9000005    1    3    3    0    0  0.14266392321E+02 -0.59120403660E+02  0.91685463210E+02  0.11002716139E+03  0.10000000000E+01 0.  0.
    9000005    1    3    3    0    0 -0.14266392321E+02  0.59120403660E+02  0.48515873026E+02  0.77804511529E+02  0.10000000000E+01 0.  0.
<mgrwt>
<rscale>  0 0.12499729E+03</rscale>
<asrwt>0</asrwt>
<pdfrwt beam="2">  1        4 0.36638721E-02 0.12499729E+03</pdfrwt>
<pdfrwt beam="1">  1       -4 0.25233308E-01 0.12499729E+03</pdfrwt>
<totfact> 0.92231569E+03</totfact>
</mgrwt>
</event>
<event>
 5    1  0.3272646E-002  0.1250199E+03  0.7818608E-02  0.1235038E+00
          4   -1    0    0  501    0  0.00000000000E+00  0.00000000000E+00  0.68017851202E+02  0.68029706615E+02  0.12700000000E+01 0.  1.
         -4   -1    0    0    0  501 -0.00000000000E+00 -0.00000000000E+00 -0.57424216193E+02  0.57438258203E+02  0.12700000000E+01 0.  1.
         25    2    1    2    0    0  0.00000000000E+00  0.00000000000E+00  0.10593635009E+02  0.12546796482E+03  0.12501993878E+03 0.  0.
    9000005    1    3    3    0    0 -0.10616329972E+02 -0.60068449253E+02  0.18968088051E+02  0.63888288614E+02  0.10000000000E+01 0.  0.
    9000005    1    3    3    0    0  0.10616329972E+02  0.60068449253E+02 -0.83744530426E+01  0.61579676205E+02  0.10000000000E+01 0.  0.
<mgrwt>
<rscale>  0 0.12501994E+03</rscale>
<asrwt>0</asrwt>
<pdfrwt beam="1">  1        4 0.10466277E-01 0.12501994E+03</pdfrwt>
<pdfrwt beam="2">  1       -4 0.88364869E-02 0.12501994E+03</pdfrwt>
<totfact> 0.10437968E+04</totfact>
</mgrwt>
</event>
<event>
 5    1  0.3272646E-002  0.1250006E+03  0.7818608E-02  0.1235068E+00
          4   -1    0    0  501    0  0.00000000000E+00  0.00000000000E+00  0.44739472030E+02  0.44757493870E+02  0.12700000000E+01 0. -1.
         -4   -1    0    0    0  501 -0.00000000000E+00 -0.00000000000E+00 -0.87271596834E+02  0.87280837038E+02  0.12700000000E+01 0. -1.
         25    2    1    2    0    0  0.00000000000E+00  0.00000000000E+00 -0.42532124805E+02  0.13203833091E+03  0.12500055675E+03 0.  0.
    9000005    1    3    3    0    0 -0.51704458285E+02 -0.26298133765E+02  0.32879472218E+01  0.58109839468E+02  0.10000000000E+01 0.  0.
    9000005    1    3    3    0    0  0.51704458285E+02  0.26298133765E+02 -0.45820072027E+02  0.73928491440E+02  0.10000000000E+01 0.  0.
<mgrwt>
<rscale>  0 0.12500056E+03</rscale>
<asrwt>0</asrwt>
<pdfrwt beam="1">  1        4 0.68850928E-02 0.12500056E+03</pdfrwt>
<pdfrwt beam="2">  1       -4 0.13428497E-01 0.12500056E+03</pdfrwt>
<totfact> 0.10300751E+04</totfact>
</mgrwt>
</event>
<event>
 5    1  0.3272646E-002  0.1250004E+03  0.7818608E-02  0.1235069E+00
          4   -1    0    0  501    0  0.00000000000E+00  0.00000000000E+00  0.10082460680E+03  0.10083260502E+03  0.12700000000E+01 0.  1.
         -4   -1    0    0    0  501 -0.00000000000E+00 -0.00000000000E+00 -0.38723305089E+02  0.38744125452E+02  0.12700000000E+01 0.  1.
         25    2    1    2    0    0  0.00000000000E+00  0.00000000000E+00  0.62101301706E+02  0.13957673047E+03  0.12500036806E+03 0.  0.
    9000005    1    3    3    0    0  0.37030669127E+02 -0.17265677710E+01  0.87226500187E+02  0.94782455271E+02  0.10000000000E+01 0.  0.
    9000005    1    3    3    0    0 -0.37030669127E+02  0.17265677710E+01 -0.25125198481E+02  0.44794275203E+02  0.10000000000E+01 0.  0.
<mgrwt>
<rscale>  0 0.12500037E+03</rscale>
<asrwt>0</asrwt>
<pdfrwt beam="1">  1        4 0.15513695E-01 0.12500037E+03</pdfrwt>
<pdfrwt beam="2">  1       -4 0.59596484E-02 0.12500037E+03</pdfrwt>
<totfact> 0.10142282E+04</totfact>
</mgrwt>
</event>
<event>
 5    1  0.3272646E-002  0.1249952E+03  0.7818608E-02  0.1235077E+00
         -4   -1    0    0    0  501 -0.00000000000E+00  0.00000000000E+00  0.91916212636E+02  0.91924985969E+02  0.12700000000E+01 0.  1.
          4   -1    0    0  501    0  0.00000000000E+00 -0.00000000000E+00 -0.42474415993E+02  0.42493398475E+02  0.12700000000E+01 0.  1.
         25    2    1    2    0    0  0.00000000000E+00  0.00000000000E+00  0.49441796643E+02  0.13441838444E+03  0.12499524319E+03 0.  0.
    9000005    1    3    3    0    0 -0.50866725744E+02  0.28263598815E+02  0.49212795648E+02  0.76217806721E+02  0.10000000000E+01 0.  0.
    9000005    1    3    3    0    0  0.50866725744E+02 -0.28263598815E+02  0.22900099575E+00  0.58200577723E+02  0.10000000000E+01 0.  0.
<mgrwt>
<rscale>  0 0.12499524E+03</rscale>
<asrwt>0</asrwt>
<pdfrwt beam="2">  1        4 0.65366606E-02 0.12499524E+03</pdfrwt>
<pdfrwt beam="1">  1       -4 0.14143091E-01 0.12499524E+03</pdfrwt>
<totfact> 0.10251444E+04</totfact>
</mgrwt>
</event>
<event>
 5    1  0.3272646E-002  0.1250035E+03  0.7818608E-02  0.1235064E+00
         -4   -1    0    0    0  501 -0.00000000000E+00  0.00000000000E+00  0.10302732409E+04  0.10302740236E+04  0.12700000000E+01 0. -1.
          4   -1    0    0  501    0  0.00000000000E+00 -0.00000000000E+00 -0.36845285247E+01  0.38972619169E+01  0.12700000000E+01 0. -1.
         25    2    1    2    0    0  0.00000000000E+00  0.00000000000E+00  0.10265887124E+04  0.10341712856E+04  0.12500345404E+03 0.  0.
    9000005    1    3    3    0    0 -0.85310402581E+01 -0.25939354580E+02  0.97834774115E+03  0.97872924314E+03  0.10000000000E+01 0.  0.
    9000005    1    3    3    0    0  0.85310402581E+01  0.25939354580E+02  0.48240971213E+02  0.55442042418E+02  0.10000000000E+01 0.  0.
<mgrwt>
<rscale>  0 0.12500345E+03</rscale>
<asrwt>0</asrwt>
<pdfrwt beam="2">  1        4 0.58327510E-03 0.12500345E+03</pdfrwt>
<pdfrwt beam="1">  1       -4 0.15851994E+00 0.12500345E+03</pdfrwt>
<totfact> 0.29491984E+03</totfact>
</mgrwt>
</event>
<event>
 5    1  0.3272646E-002  0.1250016E+03  0.7818608E-02  0.1235067E+00
          4   -1    0    0  501    0  0.00000000000E+00  0.00000000000E+00  0.29169271969E+03  0.29169548440E+03  0.12700000000E+01 0. -1.
         -4   -1    0    0    0  501 -0.00000000000E+00 -0.00000000000E+00 -0.13359055797E+02  0.13419287305E+02  0.12700000000E+01 0. -1.
         25    2    1    2    0    0  0.00000000000E+00  0.00000000000E+00  0.27833366389E+03  0.30511477170E+03  0.12500158182E+03 0.  0.
    9000005    1    3    3    0    0 -0.70742716824E+01 -0.59035373610E+02  0.18612637009E+03  0.19539510306E+03  0.10000000000E+01 0.  0.
    9000005    1    3    3    0    0  0.70742716824E+01  0.59035373610E+02  0.92207293801E+02  0.10971966864E+03  0.10000000000E+01 0.  0.
<mgrwt>
<rscale>  0 0.12500158E+03</rscale>
<asrwt>0</asrwt>
<pdfrwt beam="1">  1        4 0.44880652E-01 0.12500158E+03</pdfrwt>
<pdfrwt beam="2">  1       -4 0.20600851E-02 0.12500158E+03</pdfrwt>
<totfact> 0.74959062E+03</totfact>
</mgrwt>
</event>
<event>
 5    1  0.3272646E-002  0.1249760E+03  0.7818608E-02  0.1235107E+00
         -4   -1    0    0    0  501 -0.00000000000E+00  0.00000000000E+00  0.92730713745E+02  0.92739410024E+02  0.12700000000E+01 0.  1.
          4   -1    0    0  501    0  0.00000000000E+00 -0.00000000000E+00 -0.42088257201E+02  0.42107413768E+02  0.12700000000E+01 0.  1.
         25    2    1    2    0    0  0.00000000000E+00  0.00000000000E+00  0.50642456543E+02  0.13484682379E+03  0.12497602763E+03 0.  0.
    9000005    1    3    3    0    0  0.37484151616E+02 -0.23371235929E+02  0.72997996635E+02  0.85328681016E+02  0.10000000000E+01 0.  0.
    9000005    1    3    3    0    0 -0.37484151616E+02  0.23371235929E+02 -0.22355540092E+02  0.49518142776E+02  0.10000000000E+01 0.  0.
<mgrwt>
<rscale>  0 0.12497603E+03</rscale>
<asrwt>0</asrwt>
<pdfrwt beam="2">  1        4 0.64772591E-02 0.12497603E+03</pdfrwt>
<pdfrwt beam="1">  1       -4 0.14268406E-01 0.12497603E+03</pdfrwt>
<totfact> 0.10246839E+04</totfact>
</mgrwt>
</event>
<event>
 5    1  0.3272646E-002  0.1249996E+03  0.7818608E-02  0.1235070E+00
          4   -1    0    0  501    0  0.00000000000E+00  0.00000000000E+00  0.81367842298E+02  0.81377752858E+02  0.12700000000E+01 0. -1.
         -4   -1    0    0    0  501 -0.00000000000E+00 -0.00000000000E+00 -0.47985730038E+02  0.48002533134E+02  0.12700000000E+01 0. -1.
         25    2    1    2    0    0  0.00000000000E+00  0.00000000000E+00  0.33382112261E+02  0.12938028599E+03  0.12499957194E+03 0.  0.
    9000005    1    3    3    0    0  0.23574015397E+02 -0.31035144885E+02  0.67252900183E+02  0.77735879766E+02  0.10000000000E+01 0.  0.
    9000005    1    3    3    0    0 -0.23574015397E+02  0.31035144885E+02 -0.33870787922E+02  0.51644406226E+02  0.10000000000E+01 0.  0.
<mgrwt>
<rscale>  0 0.12499957E+03</rscale>
<asrwt>0</asrwt>
<pdfrwt beam="1">  1        4 0.12520184E-01 0.12499957E+03</pdfrwt>
<pdfrwt beam="2">  1       -4 0.73844750E-02 0.12499957E+03</pdfrwt>
<totfact> 0.10357882E+04</totfact>
</mgrwt>
</event>
<event>
 5    1  0.3272646E-002  0.1249990E+03  0.7818608E-02  0.1235071E+00
          4   -1    0    0  501    0  0.00000000000E+00  0.00000000000E+00  0.55031986105E+01  0.56478398479E+01  0.12700000000E+01 0.  1.
         -4   -1    0    0    0  501 -0.00000000000E+00 -0.00000000000E+00 -0.70045107313E+03  0.70045222446E+03  0.12700000000E+01 0.  1.
         25    2    1    2    0    0  0.00000000000E+00  0.00000000000E+00 -0.69494787452E+03  0.70610006431E+03  0.12499901005E+03 0.  0.
    9000005    1    3    3    0    0 -0.40170127656E+02  0.11464004533E+02 -0.84931703090E+02  0.94654406900E+02  0.10000000000E+01 0.  0.
    9000005    1    3    3    0    0  0.40170127656E+02 -0.11464004533E+02 -0.61001617143E+03  0.61144565741E+03  0.10000000000E+01 0.  0.
<mgrwt>
<rscale>  0 0.12499901E+03</rscale>
<asrwt>0</asrwt>
<pdfrwt beam="1">  1        4 0.85786131E-03 0.12499901E+03</pdfrwt>
<pdfrwt beam="2">  1       -4 0.10777285E+00 0.12499901E+03</pdfrwt>
<totfact> 0.42767581E+03</totfact>
</mgrwt>
</event>
<event>
 5    1  0.3272646E-002  0.1249776E+03  0.7818608E-02  0.1235104E+00
          4   -1    0    0  501    0  0.00000000000E+00  0.00000000000E+00  0.28288530627E+01  0.31008562770E+01  0.12700000000E+01 0.  1.
         -4   -1    0    0    0  501 -0.00000000000E+00 -0.00000000000E+00 -0.13167729568E+04  0.13167735692E+04  0.12700000000E+01 0.  1.
         25    2    1    2    0    0  0.00000000000E+00  0.00000000000E+00 -0.13139441037E+04  0.13198744255E+04  0.12497756358E+03 0.  0.
    9000005    1    3    3    0    0 -0.19969831981E+02  0.30360006813E+02 -0.12019990818E+03  0.12557683756E+03  0.10000000000E+01 0.  0.
    9000005    1    3    3    0    0  0.19969831981E+02 -0.30360006813E+02 -0.11937441955E+04  0.11942975879E+04  0.10000000000E+01 0.  0.
<mgrwt>
<rscale>  0 0.12497756E+03</rscale>
<asrwt>0</asrwt>
<pdfrwt beam="1">  1        4 0.45617965E-03 0.12497756E+03</pdfrwt>
<pdfrwt beam="2">  1       -4 0.20260096E+00 0.12497756E+03</pdfrwt>
<totfact> 0.21774987E+03</totfact>
</mgrwt>
</event>
<event>
 5    1  0.3272646E-002  0.1250005E+03  0.7818608E-02  0.1235069E+00
          4   -1    0    0  501    0  0.00000000000E+00  0.00000000000E+00  0.19378137373E+02  0.19419709267E+02  0.12700000000E+01 0.  1.
         -4   -1    0    0    0  501 -0.00000000000E+00 -0.00000000000E+00 -0.20132228147E+03  0.20132628720E+03  0.12700000000E+01 0.  1.
         25    2    1    2    0    0  0.00000000000E+00  0.00000000000E+00 -0.18194414410E+03  0.22074599647E+03  0.12500049353E+03 0.  0.
    9000005    1    3    3    0    0 -0.88435975515E+01 -0.52546653571E+02 -0.14862794898E+03  0.15789435467E+03  0.10000000000E+01 0.  0.
    9000005    1    3    3    0    0  0.88435975515E+01  0.52546653571E+02 -0.33316195122E+02  0.62851641797E+02  0.10000000000E+01 0.  0.
<mgrwt>
<rscale>  0 0.12500049E+03</rscale>
<asrwt>0</asrwt>
<pdfrwt beam="1">  1        4 0.29847580E-02 0.12500049E+03</pdfrwt>
<pdfrwt beam="2">  1       -4 0.30976163E-01 0.12500049E+03</pdfrwt>
<totfact> 0.86749487E+03</totfact>
</mgrwt>
</event>
<event>
 5    1  0.3272646E-002  0.1249985E+03  0.7818608E-02  0.1235072E+00
         -4   -1    0    0    0  501 -0.00000000000E+00  0.00000000000E+00  0.59007651748E+02  0.59021317037E+02  0.12700000000E+01 0.  1.
          4   -1    0    0  501    0  0.00000000000E+00 -0.00000000000E+00 -0.66170061156E+02  0.66182247570E+02  0.12700000000E+01 0.  1.
         25    2    1    2    0    0  0.00000000000E+00  0.00000000000E+00 -0.71624094081E+01  0.12520356461E+03  0.12499852992E+03 0.  0.
    9000005    1    3    3    0    0  0.45338774118E+02 -0.14341589096E+02 -0.44192407650E+02  0.64924991415E+02  0.10000000000E+01 0.  0.
    9000005    1    3    3    0    0 -0.45338774118E+02  0.14341589096E+02  0.37029998241E+02  0.60278573192E+02  0.10000000000E+01 0.  0.
<mgrwt>
<rscale>  0 0.12499853E+03</rscale>
<asrwt>0</asrwt>
<pdfrwt beam="2">  1        4 0.10181998E-01 0.12499853E+03</pdfrwt>
<pdfrwt beam="1">  1       -4 0.90800889E-02 0.12499853E+03</pdfrwt>
<totfact> 0.10448790E+04</totfact>
</mgrwt>
</event>
<event>
 4    1  0.3272646E-002  0.1250612E+03  0.7818608E-02  0.1234974E+00
         -4   -1    0    0    0  501 -0.00000000000E+00  0.00000000000E+00  0.93117751659E+02  0.93126411796E+02  0.12700000000E+01 0.  1.
          4   -1    0    0  501    0  0.00000000000E+00 -0.00000000000E+00 -0.41970430239E+02  0.41989640561E+02  0.12700000000E+01 0.  1.
    9000005    1    1    2    0    0  0.74172345582E+01 -0.61145665307E+02  0.37173099098E+02  0.71948919734E+02  0.10000000000E+01 0.  0.
    9000005    1    1    2    0    0 -0.74172345582E+01  0.61145665307E+02  0.13974222322E+02  0.63167132623E+02  0.10000000000E+01 0.  0.
<mgrwt>
<rscale>  0 0.12506118E+03</rscale>
<asrwt>0</asrwt>
<pdfrwt beam="2">  1        4 0.64591332E-02 0.12506118E+03</pdfrwt>
<pdfrwt beam="1">  1       -4 0.14327952E-01 0.12506118E+03</pdfrwt>
<totfact> 0.10221515E+04</totfact>
</mgrwt>
</event>
<event>
 5    1  0.3272646E-002  0.1249993E+03  0.7818608E-02  0.1235070E+00
          4   -1    0    0  501    0  0.00000000000E+00  0.00000000000E+00  0.89508722290E+02  0.89517731573E+02  0.12700000000E+01 0.  1.
         -4   -1    0    0    0  501 -0.00000000000E+00 -0.00000000000E+00 -0.43620088530E+02  0.43638572655E+02  0.12700000000E+01 0.  1.
         25    2    1    2    0    0  0.00000000000E+00  0.00000000000E+00  0.45888633759E+02  0.13315630423E+03  0.12499933859E+03 0.  0.
    9000005    1    3    3    0    0 -0.10945972154E+02  0.11343510906E+02  0.87361216550E+02  0.88777653174E+02  0.10000000000E+01 0.  0.
    9000005    1    3    3    0    0  0.10945972154E+02 -0.11343510906E+02 -0.41472582790E+02  0.44378651054E+02  0.10000000000E+01 0.  0.
<mgrwt>
<rscale>  0 0.12499934E+03</rscale>
<asrwt>0</asrwt>
<pdfrwt beam="1">  1        4 0.13772688E-01 0.12499934E+03</pdfrwt>
<pdfrwt beam="2">  1       -4 0.67128977E-02 0.12499934E+03</pdfrwt>
<totfact> 0.10277232E+04</totfact>
</mgrwt>
</event>
<event>
 5    1  0.3272646E-002  0.1249995E+03  0.7818608E-02  0.1235070E+00
          4   -1    0    0  501    0  0.00000000000E+00  0.00000000000E+00  0.31269147878E+02  0.31294927848E+02  0.12700000000E+01 0. -1.
         -4   -1    0    0    0  501 -0.00000000000E+00 -0.00000000000E+00 -0.12484189811E+03  0.12484835772E+03  0.12700000000E+01 0. -1.
         25    2    1    2    0    0  0.00000000000E+00  0.00000000000E+00 -0.93572750235E+02  0.15614328556E+03  0.12499946416E+03 0.  0.
    9000005    1    3    3    0    0 -0.18360899079E+02 -0.57800311891E+02 -0.65615770549E+02  0.89355626652E+02  0.10000000000E+01 0.  0.
    9000005    1    3    3    0    0  0.18360899079E+02  0.57800311891E+02 -0.27956979686E+02  0.66787658912E+02  0.10000000000E+01 0.  0.
<mgrwt>
<rscale>  0 0.12499946E+03</rscale>
<asrwt>0</asrwt>
<pdfrwt beam="1">  1        4 0.48131182E-02 0.12499946E+03</pdfrwt>
<pdfrwt beam="2">  1       -4 0.19208926E-01 0.12499946E+03</pdfrwt>
<totfact> 0.98092706E+03</totfact>
</mgrwt>
</event>
<event>
 5    1  0.3272646E-002  0.1250003E+03  0.7818608E-02  0.1235069E+00
          4   -1    0    0  501    0  0.00000000000E+00  0.00000000000E+00  0.73550275490E+01  0.74638683166E+01  0.12700000000E+01 0. -1.
         -4   -1    0    0    0  501 -0.00000000000E+00 -0.00000000000E+00 -0.52709126715E+03  0.52709279714E+03  0.12700000000E+01 0. -1.
         25    2    1    2    0    0  0.00000000000E+00  0.00000000000E+00 -0.51973623960E+03  0.53455666546E+03  0.12500027935E+03 0.  0.
    9000005    1    3    3    0    0  0.53519219346E+00 -0.60753207172E+02 -0.32243131515E+03  0.32810698195E+03  0.10000000000E+01 0.  0.
    9000005    1    3    3    0    0 -0.53519219346E+00  0.60753207172E+02 -0.19730492444E+03  0.20644968351E+03  0.10000000000E+01 0.  0.
<mgrwt>
<rscale>  0 0.12500028E+03</rscale>
<asrwt>0</asrwt>
<pdfrwt beam="1">  1        4 0.11400332E-02 0.12500028E+03</pdfrwt>
<pdfrwt beam="2">  1       -4 0.81099425E-01 0.12500028E+03</pdfrwt>
<totfact> 0.53279146E+03</totfact>
</mgrwt>
</event>
<event>
 5    1  0.3272646E-002  0.1249990E+03  0.7818608E-02  0.1235071E+00
          4   -1    0    0  501    0  0.00000000000E+00  0.00000000000E+00  0.21352692695E+03  0.21353070373E+03  0.12700000000E+01 0. -1.
         -4   -1    0    0    0  501 -0.00000000000E+00 -0.00000000000E+00 -0.18267654418E+02  0.18311747539E+02  0.12700000000E+01 0. -1.
         25    2    1    2    0    0  0.00000000000E+00  0.00000000000E+00  0.19525927254E+03  0.23184245127E+03  0.12499895479E+03 0.  0.
    9000005    1    3    3    0    0  0.35839060866E+02  0.14382718734E+02  0.65031220783E+01  0.39173862188E+02  0.10000000000E+01 0.  0.
    9000005    1    3    3    0    0 -0.35839060866E+02 -0.14382718734E+02  0.18875615046E+03  0.19266858908E+03  0.10000000000E+01 0.  0.
<mgrwt>
<rscale>  0 0.12499895E+03</rscale>
<asrwt>0</asrwt>
<pdfrwt beam="1">  1        4 0.32853979E-01 0.12499895E+03</pdfrwt>
<pdfrwt beam="2">  1       -4 0.28140907E-02 0.12499895E+03</pdfrwt>
<totfact> 0.85029469E+03</totfact>
</mgrwt>
</event>
<event>
 5    1  0.3272646E-002  0.1249979E+03  0.7818608E-02  0.1235073E+00
         -4   -1    0    0    0  501 -0.00000000000E+00  0.00000000000E+00  0.84259052571E+02  0.84268623106E+02  0.12700000000E+01 0. -1.
          4   -1    0    0  501    0  0.00000000000E+00 -0.00000000000E+00 -0.46337561002E+02  0.46354961543E+02  0.12700000000E+01 0. -1.
         25    2    1    2    0    0  0.00000000000E+00  0.00000000000E+00  0.37921491569E+02  0.13062358465E+03  0.12499792536E+03 0.  0.
    9000005    1    3    3    0    0 -0.22960657629E+02 -0.18592947065E+02 -0.38583237919E+02  0.48606128498E+02  0.10000000000E+01 0.  0.
    9000005    1    3    3    0    0  0.22960657629E+02  0.18592947065E+02  0.76504729488E+02  0.82017456150E+02  0.10000000000E+01 0.  0.
<mgrwt>
<rscale>  0 0.12499793E+03</rscale>
<asrwt>0</asrwt>
<pdfrwt beam="2">  1        4 0.71309304E-02 0.12499793E+03</pdfrwt>
<pdfrwt beam="1">  1       -4 0.12965006E-01 0.12499793E+03</pdfrwt>
<totfact> 0.10331649E+04</totfact>
</mgrwt>
</event>
<event>
 5    1  0.3272646E-002  0.1250575E+03  0.7818608E-02  0.1234979E+00
          4   -1    0    0  501    0  0.00000000000E+00  0.00000000000E+00  0.17250044726E+03  0.17250512225E+03  0.12700000000E+01 0. -1.
         -4   -1    0    0    0  501 -0.00000000000E+00 -0.00000000000E+00 -0.22642930301E+02  0.22678518307E+02  0.12700000000E+01 0. -1.
         25    2    1    2    0    0  0.00000000000E+00  0.00000000000E+00  0.14985751696E+03  0.19518364056E+03  0.12505749939E+03 0.  0.
    9000005    1    3    3    0    0 -0.16600705323E+02 -0.32804763515E+02 -0.39950912872E+01  0.36995900866E+02  0.10000000000E+01 0.  0.
    9000005    1    3    3    0    0  0.16600705323E+02  0.32804763515E+02  0.15385260824E+03  0.15818773970E+03  0.10000000000E+01 0.  0.
<mgrwt>
<rscale>  0 0.12505750E+03</rscale>
<asrwt>0</asrwt>
<pdfrwt beam="1">  1        4 0.26541628E-01 0.12505750E+03</pdfrwt>
<pdfrwt beam="2">  1       -4 0.34866249E-02 0.12505750E+03</pdfrwt>
<totfact> 0.90836131E+03</totfact>
</mgrwt>
</event>
<event>
 5    1  0.3272646E-002  0.1250009E+03  0.7818608E-02  0.1235068E+00
         -4   -1    0    0    0  501 -0.00000000000E+00  0.00000000000E+00  0.24464147303E+03  0.24464476946E+03  0.12700000000E+01 0. -1.
          4   -1    0    0  501    0  0.00000000000E+00 -0.00000000000E+00 -0.15938820954E+02  0.15989337491E+02  0.12700000000E+01 0. -1.
         25    2    1    2    0    0  0.00000000000E+00  0.00000000000E+00  0.22870265208E+03  0.26063410696E+03  0.12500093856E+03 0.  0.
    9000005    1    3    3    0    0 -0.39625819700E+02 -0.44752602461E+02  0.15236047458E+03  0.16366953054E+03  0.10000000000E+01 0.  0.
    9000005    1    3    3    0    0  0.39625819700E+02  0.44752602461E+02  0.76342177499E+02  0.96964576415E+02  0.10000000000E+01 0.  0.
<mgrwt>
<rscale>  0 0.12500094E+03</rscale>
<asrwt>0</asrwt>
<pdfrwt beam="2">  1        4 0.24562657E-02 0.12500094E+03</pdfrwt>
<pdfrwt beam="1">  1       -4 0.37641290E-01 0.12500094E+03</pdfrwt>
<totfact> 0.80815465E+03</totfact>
</mgrwt>
</event>
<event>
 5    1  0.3272646E-002  0.1250020E+03  0.7818608E-02  0.1235066E+00
          4   -1    0    0  501    0  0.00000000000E+00  0.00000000000E+00  0.24230069354E+03  0.24230402182E+03  0.12700000000E+01 0. -1.
         -4   -1    0    0    0  501 -0.00000000000E+00 -0.00000000000E+00 -0.16093551395E+02  0.16143583756E+02  0.12700000000E+01 0. -1.
         25    2    1    2    0    0  0.00000000000E+00  0.00000000000E+00  0.22620714215E+03  0.25844760558E+03  0.12500197467E+03 0.  0.
    9000005    1    3    3    0    0 -0.57592210607E+02 -0.15257277199E+02  0.15209898712E+03  0.16335467276E+03  0.10000000000E+01 0.  0.
    9000005    1    3    3    0    0  0.57592210607E+02  0.15257277199E+02  0.74108155032E+02  0.95092932821E+02  0.10000000000E+01 0.  0.
<mgrwt>
<rscale>  0 0.12500197E+03</rscale>
<asrwt>0</asrwt>
<pdfrwt beam="1">  1        4 0.37281133E-01 0.12500197E+03</pdfrwt>
<pdfrwt beam="2">  1       -4 0.24800357E-02 0.12500197E+03</pdfrwt>
<totfact> 0.81120846E+03</totfact>
</mgrwt>
</event>
<event>
 5    1  0.3272646E-002  0.1250004E+03  0.7818608E-02  0.1235069E+00
          4   -1    0    0  501    0  0.00000000000E+00  0.00000000000E+00  0.62944824836E+02  0.62957635547E+02  0.12700000000E+01 0.  1.
         -4   -1    0    0    0  501 -0.00000000000E+00 -0.00000000000E+00 -0.62033077625E+02  0.62046076585E+02  0.12700000000E+01 0.  1.
         25    2    1    2    0    0  0.00000000000E+00  0.00000000000E+00  0.91174721178E+00  0.12500371213E+03  0.12500038705E+03 0.  0.
    9000005    1    3    3    0    0  0.61558218679E+02 -0.79196803285E+01 -0.68339408344E+01  0.62448685901E+02  0.10000000000E+01 0.  0.
    9000005    1    3    3    0    0 -0.61558218679E+02  0.79196803285E+01  0.77456880462E+01  0.62555026231E+02  0.10000000000E+01 0.  0.
<mgrwt>
<rscale>  0 0.12500039E+03</rscale>
<asrwt>0</asrwt>
<pdfrwt beam="1">  1        4 0.96858046E-02 0.12500039E+03</pdfrwt>
<pdfrwt beam="2">  1       -4 0.95455357E-02 0.12500039E+03</pdfrwt>
<totfact> 0.10452690E+04</totfact>
</mgrwt>
</event>
<event>
 5    1  0.3272646E-002  0.1249995E+03  0.7818608E-02  0.1235070E+00
         -4   -1    0    0    0  501 -0.00000000000E+00  0.00000000000E+00  0.18971079214E+02  0.19013541137E+02  0.12700000000E+01 0.  1.
          4   -1    0    0  501    0  0.00000000000E+00 -0.00000000000E+00 -0.20562936918E+03  0.20563329101E+03  0.12700000000E+01 0.  1.
         25    2    1    2    0    0  0.00000000000E+00  0.00000000000E+00 -0.18665828997E+03  0.22464683214E+03  0.12499952791E+03 0.  0.
    9000005    1    3    3    0    0 -0.13911340407E+02  0.60748249656E+02 -0.85025998197E+02  0.10542435960E+03  0.10000000000E+01 0.  0.
    9000005    1    3    3    0    0  0.13911340407E+02 -0.60748249656E+02 -0.10163229177E+03  0.11922247254E+03  0.10000000000E+01 0.  0.
<mgrwt>
<rscale>  0 0.12499953E+03</rscale>
<asrwt>0</asrwt>
<pdfrwt beam="2">  1        4 0.31638854E-01 0.12499953E+03</pdfrwt>
<pdfrwt beam="1">  1       -4 0.29221957E-02 0.12499953E+03</pdfrwt>
<totfact> 0.86139257E+03</totfact>
</mgrwt>
</event>
<event>
 5    1  0.3272646E-002  0.1250000E+03  0.7818608E-02  0.1235069E+00
         -4   -1    0    0    0  501 -0.00000000000E+00  0.00000000000E+00  0.30553276602E+01  0.33087651943E+01  0.12700000000E+01 0. -1.
          4   -1    0    0  501    0  0.00000000000E+00 -0.00000000000E+00 -0.12273361105E+04  0.12273367676E+04  0.12700000000E+01 0. -1.
         25    2    1    2    0    0  0.00000000000E+00  0.00000000000E+00 -0.12242807829E+04  0.12306455328E+04  0.12499996836E+03 0.  0.
    9000005    1    3    3    0    0  0.49358669333E+02 -0.38324286481E+02 -0.61674609954E+03  0.61990465433E+03  0.10000000000E+01 0.  0.
    9000005    1    3    3    0    0 -0.49358669333E+02  0.38324286481E+02 -0.60753468332E+03  0.61074087845E+03  0.10000000000E+01 0.  0.
<mgrwt>
<rscale>  0 0.12499997E+03</rscale>
<asrwt>0</asrwt>
<pdfrwt beam="2">  1        4 0.18884011E+00 0.12499997E+03</pdfrwt>
<pdfrwt beam="1">  1       -4 0.48959713E-03 0.12499997E+03</pdfrwt>
<totfact> 0.23924487E+03</totfact>
</mgrwt>
</event>
<event>
 5    1  0.3272646E-002  0.1250108E+03  0.7818608E-02  0.1235052E+00
          4   -1    0    0  501    0  0.00000000000E+00  0.00000000000E+00  0.12770947402E+03  0.12771578859E+03  0.12700000000E+01 0. -1.
         -4   -1    0    0    0  501 -0.00000000000E+00 -0.00000000000E+00 -0.30572031822E+02  0.30598399137E+02  0.12700000000E+01 0. -1.
         25    2    1    2    0    0  0.00000000000E+00  0.00000000000E+00  0.97137442198E+02  0.15831418773E+03  0.12501079697E+03 0.  0.
    9000005    1    3    3    0    0  0.17869043582E+02 -0.18757834202E+00  0.12441128291E+03  0.12569210484E+03  0.10000000000E+01 0.  0.
    9000005    1    3    3    0    0 -0.17869043582E+02  0.18757834202E+00 -0.27273840715E+02  0.32622082881E+02  0.10000000000E+01 0.  0.
<mgrwt>
<rscale>  0 0.12501080E+03</rscale>
<asrwt>0</asrwt>
<pdfrwt beam="1">  1        4 0.19650125E-01 0.12501080E+03</pdfrwt>
<pdfrwt beam="2">  1       -4 0.47059035E-02 0.12501080E+03</pdfrwt>
<totfact> 0.97645080E+03</totfact>
</mgrwt>
</event>
<event>
 5    1  0.3272646E-002  0.1249990E+03  0.7818608E-02  0.1235071E+00
         -4   -1    0    0    0  501 -0.00000000000E+00  0.00000000000E+00  0.44818263229E+02  0.44836253399E+02  0.12700000000E+01 0. -1.
          4   -1    0    0  501    0  0.00000000000E+00 -0.00000000000E+00 -0.87115986767E+02  0.87125243474E+02  0.12700000000E+01 0. -1.
         25    2    1    2    0    0  0.00000000000E+00  0.00000000000E+00 -0.42297723538E+02  0.13196149687E+03  0.12499895696E+03 0.  0.
    9000005    1    3    3    0    0 -0.62437977933E+02 -0.22432085601E+01 -0.19792075916E+02  0.65545856788E+02  0.10000000000E+01 0.  0.
    9000005    1    3    3    0    0  0.62437977933E+02  0.22432085601E+01 -0.22505647622E+02  0.66415640085E+02  0.10000000000E+01 0.  0.
<mgrwt>
<rscale>  0 0.12499896E+03</rscale>
<asrwt>0</asrwt>
<pdfrwt beam="2">  1        4 0.13404555E-01 0.12499896E+03</pdfrwt>
<pdfrwt beam="1">  1       -4 0.68972133E-02 0.12499896E+03</pdfrwt>
<totfact> 0.10302763E+04</totfact>
</mgrwt>
</event>
<event>
 5    1  0.3272646E-002  0.1249991E+03  0.7818608E-02  0.1235071E+00
          4   -1    0    0  501    0  0.00000000000E+00  0.00000000000E+00  0.12389282573E+04  0.12389289083E+04  0.12700000000E+01 0.  1.
         -4   -1    0    0    0  501 -0.00000000000E+00 -0.00000000000E+00 -0.30243125166E+01  0.32801472830E+01  0.12700000000E+01 0.  1.
         25    2    1    2    0    0  0.00000000000E+00  0.00000000000E+00  0.12359039448E+04  0.12422090555E+04  0.12499910742E+03 0.  0.
    9000005    1    3    3    0    0  0.39584968154E+02 -0.27972672285E+02  0.22597707215E+03  0.23111918405E+03  0.10000000000E+01 0.  0.
    9000005    1    3    3    0    0 -0.39584968154E+02  0.27972672285E+02  0.10099268727E+04  0.10110898715E+04  0.10000000000E+01 0.  0.
<mgrwt>
<rscale>  0 0.12499911E+03</rscale>
<asrwt>0</asrwt>
<pdfrwt beam="1">  1        4 0.19062407E+00 0.12499911E+03</pdfrwt>
<pdfrwt beam="2">  1       -4 0.48500854E-03 0.12499911E+03</pdfrwt>
<totfact> 0.23634342E+03</totfact>
</mgrwt>
</event>
<event>
 5    1  0.3272646E-002  0.1249963E+03  0.7818608E-02  0.1235075E+00
         -4   -1    0    0    0  501 -0.00000000000E+00  0.00000000000E+00  0.16847219579E+02  0.16895020200E+02  0.12700000000E+01 0.  1.
          4   -1    0    0  501    0  0.00000000000E+00 -0.00000000000E+00 -0.23147141909E+03  0.23147490308E+03  0.12700000000E+01 0.  1.
         25    2    1    2    0    0  0.00000000000E+00  0.00000000000E+00 -0.21462419951E+03  0.24836992328E+03  0.12499628704E+03 0.  0.
    9000005    1    3    3    0    0 -0.53834501190E+02  0.96675133588E+01 -0.16736489851E+03  0.17607845861E+03  0.10000000000E+01 0.  0.
    9000005    1    3    3    0    0  0.53834501190E+02 -0.96675133588E+01 -0.47259301000E+02  0.72291464669E+02  0.10000000000E+01 0.  0.
<mgrwt>
<rscale>  0 0.12499629E+03</rscale>
<asrwt>0</asrwt>
<pdfrwt beam="2">  1        4 0.35614930E-01 0.12499629E+03</pdfrwt>
<pdfrwt beam="1">  1       -4 0.25958251E-02 0.12499629E+03</pdfrwt>
<totfact> 0.82573228E+03</totfact>
</mgrwt>
</event>
<event>
 5    1  0.3272646E-002  0.1249991E+03  0.7818608E-02  0.1235071E+00
         -4   -1    0    0    0  501 -0.00000000000E+00  0.00000000000E+00  0.33689327589E+03  0.33689566966E+03  0.12700000000E+01 0.  1.
          4   -1    0    0  501    0  0.00000000000E+00 -0.00000000000E+00 -0.11557526425E+02  0.11627094093E+02  0.12700000000E+01 0.  1.
         25    2    1    2    0    0  0.00000000000E+00  0.00000000000E+00  0.32533574946E+03  0.34852276376E+03  0.12499906791E+03 0.  0.
    9000005    1    3    3    0    0 -0.54976067772E+02 -0.19683670622E+02  0.22472508075E+03  0.23218995851E+03  0.10000000000E+01 0.  0.
    9000005    1    3    3    0    0  0.54976067772E+02  0.19683670622E+02  0.10061066872E+03  0.11633280525E+03  0.10000000000E+01 0.  0.
<mgrwt>
<rscale>  0 0.12499907E+03</rscale>
<asrwt>0</asrwt>
<pdfrwt beam="2">  1        4 0.17836167E-02 0.12499907E+03</pdfrwt>
<pdfrwt beam="1">  1       -4 0.51835264E-01 0.12499907E+03</pdfrwt>
<totfact> 0.69888820E+03</totfact>
</mgrwt>
</event>
<event>
 5    1  0.3272646E-002  0.1250004E+03  0.7818608E-02  0.1235069E+00
          4   -1    0    0  501    0  0.00000000000E+00  0.00000000000E+00  0.14497542385E+04  0.14497547948E+04  0.12700000000E+01 0.  1.
         -4   -1    0    0    0  501 -0.00000000000E+00 -0.00000000000E+00 -0.25442021288E+01  0.28435654507E+01  0.12700000000E+01 0.  1.
         25    2    1    2    0    0  0.00000000000E+00  0.00000000000E+00  0.14472100364E+04  0.14525983602E+04  0.12500042693E+03 0.  0.
    9000005    1    3    3    0    0  0.58757909209E+02 -0.89270057555E+01  0.94806700942E+03  0.94992854345E+03  0.10000000000E+01 0.  0.
    9000005    1    3    3    0    0 -0.58757909209E+02  0.89270057555E+01  0.49914302694E+03  0.50266981675E+03  0.10000000000E+01 0.  0.
<mgrwt>
<rscale>  0 0.12500043E+03</rscale>
<asrwt>0</asrwt>
<pdfrwt beam="1">  1        4 0.22306198E+00 0.12500043E+03</pdfrwt>
<pdfrwt beam="2">  1       -4 0.41448682E-03 0.12500043E+03</pdfrwt>
<totfact> 0.18879425E+03</totfact>
</mgrwt>
</event>
<event>
 5    1  0.3272646E-002  0.1250108E+03  0.7818608E-02  0.1235052E+00
          4   -1    0    0  501    0  0.00000000000E+00  0.00000000000E+00  0.79312712405E+02  0.79322879733E+02  0.12700000000E+01 0. -1.
         -4   -1    0    0    0  501 -0.00000000000E+00 -0.00000000000E+00 -0.49238213974E+02  0.49254589790E+02  0.12700000000E+01 0. -1.
         25    2    1    2    0    0  0.00000000000E+00  0.00000000000E+00  0.30074498431E+02  0.12857746952E+03  0.12501076039E+03 0.  0.
    9000005    1    3    3    0    0 -0.21859374521E+02  0.10727324944E+02 -0.44163767510E+02  0.50441511829E+02  0.10000000000E+01 0.  0.
    9000005    1    3    3    0    0  0.21859374521E+02 -0.10727324944E+02  0.74238265941E+02  0.78135957694E+02  0.10000000000E+01 0.  0.
<mgrwt>
<rscale>  0 0.12501076E+03</rscale>
<asrwt>0</asrwt>
<pdfrwt beam="1">  1        4 0.12203998E-01 0.12501076E+03</pdfrwt>
<pdfrwt beam="2">  1       -4 0.75771516E-02 0.12501076E+03</pdfrwt>
<totfact> 0.10372516E+04</totfact>
</mgrwt>
</event>
<event>
 5    1  0.3272646E-002  0.1250002E+03  0.7818608E-02  0.1235069E+00
         -4   -1    0    0    0  501 -0.00000000000E+00  0.00000000000E+00  0.66835413092E+01  0.68031334275E+01  0.12700000000E+01 0.  1.
          4   -1    0    0  501    0  0.00000000000E+00 -0.00000000000E+00 -0.57915686263E+03  0.57915825508E+03  0.12700000000E+01 0.  1.
         25    2    1    2    0    0  0.00000000000E+00  0.00000000000E+00 -0.57247332132E+03  0.58596138851E+03  0.12500018081E+03 0.  0.
    9000005    1    3    3    0    0 -0.38055078410E+02 -0.47945003562E+02 -0.22724835256E+03  0.23535022010E+03  0.10000000000E+01 0.  0.
    9000005    1    3    3    0    0  0.38055078410E+02  0.47945003562E+02 -0.34522496876E+03  0.35061116841E+03  0.10000000000E+01 0.  0.
<mgrwt>
<rscale>  0 0.12500018E+03</rscale>
<asrwt>0</asrwt>
<pdfrwt beam="2">  1        4 0.89110323E-01 0.12500018E+03</pdfrwt>
<pdfrwt beam="1">  1       -4 0.10375441E-02 0.12500018E+03</pdfrwt>
<totfact> 0.49765749E+03</totfact>
</mgrwt>
</event>
<event>
 5    1  0.3272646E-002  0.1250120E+03  0.7818608E-02  0.1235051E+00
          4   -1    0    0  501    0  0.00000000000E+00  0.00000000000E+00  0.54973119678E+02  0.54987787618E+02  0.12700000000E+01 0. -1.
         -4   -1    0    0    0  501 -0.00000000000E+00 -0.00000000000E+00 -0.71041249046E+02  0.71052599995E+02  0.12700000000E+01 0. -1.
         25    2    1    2    0    0  0.00000000000E+00  0.00000000000E+00 -0.16068129368E+02  0.12604038761E+03  0.12501197754E+03 0.  0.
    9000005    1    3    3    0    0  0.71257143496E+00 -0.61957519181E+02 -0.16271755835E+02  0.64070367403E+02  0.10000000000E+01 0.  0.
    9000005    1    3    3    0    0 -0.71257143496E+00  0.61957519181E+02  0.20362646724E+00  0.61970020211E+02  0.10000000000E+01 0.  0.
<mgrwt>
<rscale>  0 0.12501198E+03</rscale>
<asrwt>0</asrwt>
<pdfrwt beam="1">  1        4 0.84594044E-02 0.12501198E+03</pdfrwt>
<pdfrwt beam="2">  1       -4 0.10931425E-01 0.12501198E+03</pdfrwt>
<totfact> 0.10427253E+04</totfact>
</mgrwt>
</event>
<event>
 5    1  0.3272646E-002  0.1249906E+03  0.7818608E-02  0.1235084E+00
         -4   -1    0    0    0  501 -0.00000000000E+00  0.00000000000E+00  0.20918311408E+03  0.20918696928E+03  0.12700000000E+01 0. -1.
          4   -1    0    0  501    0  0.00000000000E+00 -0.00000000000E+00 -0.18645404287E+02  0.18688606182E+02  0.12700000000E+01 0. -1.
         25    2    1    2    0    0  0.00000000000E+00  0.00000000000E+00  0.19053770979E+03  0.22787557546E+03  0.12499063580E+03 0.  0.
    9000005    1    3    3    0    0 -0.35552581655E+02  0.44881969479E+02  0.14089430664E+03  0.15208741858E+03  0.10000000000E+01 0.  0.
    9000005    1    3    3    0    0  0.35552581655E+02 -0.44881969479E+02  0.49643403146E+02  0.75788156875E+02  0.10000000000E+01 0.  0.
<mgrwt>
<rscale>  0 0.12499064E+03</rscale>
<asrwt>0</asrwt>
<pdfrwt beam="2">  1        4 0.28721433E-02 0.12499064E+03</pdfrwt>
<pdfrwt beam="1">  1       -4 0.32185640E-01 0.12499064E+03</pdfrwt>
<totfact> 0.85654770E+03</totfact>
</mgrwt>
</event>
<event>
 5    1  0.3272646E-002  0.1250023E+03  0.7818608E-02  0.1235066E+00
         -4   -1    0    0    0  501 -0.00000000000E+00  0.00000000000E+00  0.28581259740E+03  0.28581541899E+03  0.12700000000E+01 0.  1.
          4   -1    0    0  501    0  0.00000000000E+00 -0.00000000000E+00 -0.13635267477E+02  0.13694284179E+02  0.12700000000E+01 0.  1.
         25    2    1    2    0    0  0.00000000000E+00  0.00000000000E+00  0.27217732992E+03  0.29950970317E+03  0.12500225345E+03 0.  0.
    9000005    1    3    3    0    0  0.51888790989E+02  0.82011077623E+01  0.54987729100E+02  0.76054948231E+02  0.10000000000E+01 0.  0.
    9000005    1    3    3    0    0 -0.51888790989E+02 -0.82011077623E+01  0.21718960082E+03  0.22345475494E+03  0.10000000000E+01 0.  0.
<mgrwt>
<rscale>  0 0.12500225E+03</rscale>
<asrwt>0</asrwt>
<pdfrwt beam="2">  1        4 0.21024902E-02 0.12500225E+03</pdfrwt>
<pdfrwt beam="1">  1       -4 0.43975927E-01 0.12500225E+03</pdfrwt>
<totfact> 0.75656595E+03</totfact>
</mgrwt>
</event>
<event>
 5    1  0.3272646E-002  0.1250116E+03  0.7818608E-02  0.1235051E+00
          4   -1    0    0  501    0  0.00000000000E+00  0.00000000000E+00  0.47182761945E+02  0.47199850898E+02  0.12700000000E+01 0.  1.
         -4   -1    0    0    0  501 -0.00000000000E+00 -0.00000000000E+00 -0.82768139312E+02  0.82777882222E+02  0.12700000000E+01 0.  1.
         25    2    1    2    0    0  0.00000000000E+00  0.00000000000E+00 -0.35585377367E+02  0.12997773312E+03  0.12501156756E+03 0.  0.
    9000005    1    3    3    0    0  0.25713135947E+01 -0.61200562264E+02 -0.48962119150E+01  0.61458061849E+02  0.10000000000E+01 0.  0.
    9000005    1    3    3    0    0 -0.25713135947E+01  0.61200562264E+02 -0.30689165452E+02  0.68519671272E+02  0.10000000000E+01 0.  0.
<mgrwt>
<rscale>  0 0.12501157E+03</rscale>
<asrwt>0</asrwt>
<pdfrwt beam="1">  1        4 0.72609504E-02 0.12501157E+03</pdfrwt>
<pdfrwt beam="2">  1       -4 0.12735624E-01 0.12501157E+03</pdfrwt>
<totfact> 0.10342283E+04</totfact>
</mgrwt>
</event>
<event>
 5    1  0.3272646E-002  0.1249972E+03  0.7818608E-02  0.1235074E+00
          4   -1    0    0  501    0  0.00000000000E+00  0.00000000000E+00  0.21243429051E+03  0.21243808671E+03  0.12700000000E+01 0.  1.
         -4   -1    0    0    0  501 -0.00000000000E+00 -0.00000000000E+00 -0.18361319539E+02  0.18405188269E+02  0.12700000000E+01 0.  1.
         25    2    1    2    0    0  0.00000000000E+00  0.00000000000E+00  0.19407297097E+03  0.23084327498E+03  0.12499719813E+03 0.  0.
    9000005    1    3    3    0    0 -0.49921423346E+02 -0.27757594047E+02  0.50226982544E+02  0.76068274015E+02  0.10000000000E+01 0.  0.
    9000005    1    3    3    0    0  0.49921423346E+02  0.27757594047E+02  0.14384598843E+03  0.15477500096E+03  0.10000000000E+01 0.  0.
<mgrwt>
<rscale>  0 0.12499720E+03</rscale>
<asrwt>0</asrwt>
<pdfrwt beam="1">  1        4 0.32685866E-01 0.12499720E+03</pdfrwt>
<pdfrwt beam="2">  1       -4 0.28284849E-02 0.12499720E+03</pdfrwt>
<totfact> 0.85185603E+03</totfact>
</mgrwt>
</event>
<event>
 5    1  0.3272646E-002  0.1250009E+03  0.7818608E-02  0.1235068E+00
          4   -1    0    0  501    0  0.00000000000E+00  0.00000000000E+00  0.25337809154E+03  0.25338127431E+03  0.12700000000E+01 0.  1.
         -4   -1    0    0    0  501 -0.00000000000E+00 -0.00000000000E+00 -0.15387471495E+02  0.15439792065E+02  0.12700000000E+01 0.  1.
         25    2    1    2    0    0  0.00000000000E+00  0.00000000000E+00  0.23799062004E+03  0.26882106638E+03  0.12500092199E+03 0.  0.
    9000005    1    3    3    0    0 -0.46334069608E+02  0.22659798235E+02  0.43114158092E+02  0.67232009418E+02  0.10000000000E+01 0.  0.
    9000005    1    3    3    0    0  0.46334069608E+02 -0.22659798235E+02  0.19487646195E+03  0.20158905696E+03  0.10000000000E+01 0.  0.
<mgrwt>
<rscale>  0 0.12500092E+03</rscale>
<asrwt>0</asrwt>
<pdfrwt beam="1">  1        4 0.38985509E-01 0.12500092E+03</pdfrwt>
<pdfrwt beam="2">  1       -4 0.23715731E-02 0.12500092E+03</pdfrwt>
<totfact> 0.79682237E+03</totfact>
</mgrwt>
</event>
<event>
 5    1  0.3272646E-002  0.1249994E+03  0.7818608E-02  0.1235070E+00
          4   -1    0    0  501    0  0.00000000000E+00  0.00000000000E+00  0.15742941687E+02  0.15794084746E+02  0.12700000000E+01 0.  1.
         -4   -1    0    0    0  501 -0.00000000000E+00 -0.00000000000E+00 -0.24766938674E+03  0.24767264287E+03  0.12700000000E+01 0.  1.
         25    2    1    2    0    0  0.00000000000E+00  0.00000000000E+00 -0.23192644505E+03  0.26346672761E+03  0.12499936259E+03 0.  0.
    9000005    1    3    3    0    0 -0.30817509910E+02 -0.41460019481E+02 -0.19008148501E+03  0.19697873762E+03  0.10000000000E+01 0.  0.
    9000005    1    3    3    0    0  0.30817509910E+02  0.41460019481E+02 -0.41844960039E+02  0.66487989991E+02  0.10000000000E+01 0.  0.
<mgrwt>
<rscale>  0 0.12499936E+03</rscale>
<asrwt>0</asrwt>
<pdfrwt beam="1">  1        4 0.24261758E-02 0.12499936E+03</pdfrwt>
<pdfrwt beam="2">  1       -4 0.38107164E-01 0.12499936E+03</pdfrwt>
<totfact> 0.80423145E+03</totfact>
</mgrwt>
</event>
<event>
 5    1  0.3272646E-002  0.1249986E+03  0.7818608E-02  0.1235072E+00
          4   -1    0    0  501    0  0.00000000000E+00  0.00000000000E+00  0.21265291868E+02  0.21303181411E+02  0.12700000000E+01 0. -1.
         -4   -1    0    0    0  501 -0.00000000000E+00 -0.00000000000E+00 -0.18348353412E+03  0.18348792928E+03  0.12700000000E+01 0. -1.
         25    2    1    2    0    0  0.00000000000E+00  0.00000000000E+00 -0.16221824225E+03  0.20479111070E+03  0.12499856359E+03 0.  0.
    9000005    1    3    3    0    0  0.49605302809E+02  0.27496156415E+02 -0.12409617884E+03  0.13644627619E+03  0.10000000000E+01 0.  0.
    9000005    1    3    3    0    0 -0.49605302809E+02 -0.27496156415E+02 -0.38122063411E+02  0.68344834501E+02  0.10000000000E+01 0.  0.
<mgrwt>
<rscale>  0 0.12499856E+03</rscale>
<asrwt>0</asrwt>
<pdfrwt beam="1">  1        4 0.32748362E-02 0.12499856E+03</pdfrwt>
<pdfrwt beam="2">  1       -4 0.28231488E-01 0.12499856E+03</pdfrwt>
<totfact> 0.89336560E+03</totfact>
</mgrwt>
</event>
<event>
 5    1  0.3272646E-002  0.1249971E+03  0.7818608E-02  0.1235074E+00
         -4   -1    0    0    0  501 -0.00000000000E+00  0.00000000000E+00  0.30891828664E+02  0.30917923252E+02  0.12700000000E+01 0.  1.
          4   -1    0    0  501    0  0.00000000000E+00 -0.00000000000E+00 -0.12636076746E+03  0.12636714942E+03  0.12700000000E+01 0.  1.
         25    2    1    2    0    0  0.00000000000E+00  0.00000000000E+00 -0.95468938792E+02  0.15728507267E+03  0.12499710321E+03 0.  0.
    9000005    1    3    3    0    0  0.58223711669E+02  0.22695014721E+02 -0.47820356658E+02  0.78694668210E+02  0.10000000000E+01 0.  0.
    9000005    1    3    3    0    0 -0.58223711669E+02 -0.22695014721E+02 -0.47648582134E+02  0.78590404460E+02  0.10000000000E+01 0.  0.
<mgrwt>
<rscale>  0 0.12499710E+03</rscale>
<asrwt>0</asrwt>
<pdfrwt beam="2">  1        4 0.19442616E-01 0.12499710E+03</pdfrwt>
<pdfrwt beam="1">  1       -4 0.47550873E-02 0.12499710E+03</pdfrwt>
<totfact> 0.97875144E+03</totfact>
</mgrwt>
</event>
<event>
 5    1  0.3272646E-002  0.1250008E+03  0.7818608E-02  0.1235068E+00
          4   -1    0    0  501    0  0.00000000000E+00  0.00000000000E+00  0.81077596772E+02  0.81087542806E+02  0.12700000000E+01 0. -1.
         -4   -1    0    0    0  501 -0.00000000000E+00 -0.00000000000E+00 -0.48158466023E+02  0.48175208870E+02  0.12700000000E+01 0. -1.
         25    2    1    2    0    0  0.00000000000E+00  0.00000000000E+00  0.32919130749E+02  0.12926275168E+03  0.12500075920E+03 0.  0.
    9000005    1    3    3    0    0  0.40040772077E+02 -0.71549369904E-01 -0.33155792924E+02  0.51995914765E+02  0.10000000000E+01 0.  0.
    9000005    1    3    3    0    0 -0.40040772077E+02  0.71549369904E-01  0.66074923673E+02  0.77266836911E+02  0.10000000000E+01 0.  0.
<mgrwt>
<rscale>  0 0.12500076E+03</rscale>
<asrwt>0</asrwt>
<pdfrwt beam="1">  1        4 0.12475529E-01 0.12500076E+03</pdfrwt>
<pdfrwt beam="2">  1       -4 0.74110478E-02 0.12500076E+03</pdfrwt>
<totfact> 0.10360127E+04</totfact>
</mgrwt>
</event>
<event>
 5    1  0.3272646E-002  0.1249959E+03  0.7818608E-02  0.1235076E+00
         -4   -1    0    0    0  501 -0.00000000000E+00  0.00000000000E+00  0.16276065343E+04  0.16276070298E+04  0.12700000000E+01 0. -1.
          4   -1    0    0  501    0  0.00000000000E+00 -0.00000000000E+00 -0.22312867872E+01  0.25673996040E+01  0.12700000000E+01 0. -1.
         25    2    1    2    0    0  0.00000000000E+00  0.00000000000E+00  0.16253752475E+04  0.16301744294E+04  0.12499589992E+03 0.  0.
    9000005    1    3    3    0    0  0.39696355710E+02  0.38294344945E+02  0.42961834052E+03  0.43314567529E+03  0.10000000000E+01 0.  0.
    9000005    1    3    3    0    0 -0.39696355710E+02 -0.38294344945E+02  0.11957569070E+04  0.11970287541E+04  0.10000000000E+01 0.  0.
<mgrwt>
<rscale>  0 0.12499590E+03</rscale>
<asrwt>0</asrwt>
<pdfrwt beam="2">  1        4 0.36916860E-03 0.12499590E+03</pdfrwt>
<pdfrwt beam="1">  1       -4 0.25042638E+00 0.12499590E+03</pdfrwt>
<totfact> 0.15508259E+03</totfact>
</mgrwt>
</event>
<event>
 5    1  0.3272646E-002  0.1249988E+03  0.7818608E-02  0.1235071E+00
          4   -1    0    0  501    0  0.00000000000E+00  0.00000000000E+00  0.26305631485E+02  0.26336270575E+02  0.12700000000E+01 0. -1.
         -4   -1    0    0    0  501 -0.00000000000E+00 -0.00000000000E+00 -0.14837220576E+03  0.14837764098E+03  0.12700000000E+01 0. -1.
         25    2    1    2    0    0  0.00000000000E+00  0.00000000000E+00 -0.12206657428E+03  0.17471391156E+03  0.12499880934E+03 0.  0.
    9000005    1    3    3    0    0  0.20281438779E+02 -0.30205845456E+02 -0.13204878074E+03  0.13697302783E+03  0.10000000000E+01 0.  0.
    9000005    1    3    3    0    0 -0.20281438779E+02  0.30205845456E+02  0.99822064586E+01  0.37740883726E+02  0.10000000000E+01 0.  0.
<mgrwt>
<rscale>  0 0.12499881E+03</rscale>
<asrwt>0</asrwt>
<pdfrwt beam="1">  1        4 0.40497953E-02 0.12499881E+03</pdfrwt>
<pdfrwt beam="2">  1       -4 0.22829268E-01 0.12499881E+03</pdfrwt>
<totfact> 0.94579790E+03</totfact>
</mgrwt>
</event>
<event>
 5    1  0.3272646E-002  0.1250084E+03  0.7818608E-02  0.1235056E+00
         -4   -1    0    0    0  501 -0.00000000000E+00  0.00000000000E+00  0.36482300636E+03  0.36482521688E+03  0.12700000000E+01 0.  1.
          4   -1    0    0  501    0  0.00000000000E+00 -0.00000000000E+00 -0.10668781415E+02  0.10744105215E+02  0.12700000000E+01 0.  1.
         25    2    1    2    0    0  0.00000000000E+00  0.00000000000E+00  0.35415422495E+03  0.37556932210E+03  0.12500840232E+03 0.  0.
    9000005    1    3    3    0    0 -0.13110647907E+02  0.58850649322E+02  0.22648817847E+03  0.23437829038E+03  0.10000000000E+01 0.  0.
    9000005    1    3    3    0    0  0.13110647907E+02 -0.58850649322E+02  0.12766604648E+03  0.14119103172E+03  0.10000000000E+01 0.  0.
<mgrwt>
<rscale>  0 0.12500840E+03</rscale>
<asrwt>0</asrwt>
<pdfrwt beam="2">  1        4 0.16473152E-02 0.12500840E+03</pdfrwt>
<pdfrwt beam="1">  1       -4 0.56132579E-01 0.12500840E+03</pdfrwt>
<totfact> 0.66987837E+03</totfact>
</mgrwt>
</event>
<event>
 5    1  0.3272646E-002  0.1249999E+03  0.7818608E-02  0.1235069E+00
         -4   -1    0    0    0  501 -0.00000000000E+00  0.00000000000E+00  0.40110546205E+02  0.40130646854E+02  0.12700000000E+01 0.  1.
          4   -1    0    0  501    0  0.00000000000E+00 -0.00000000000E+00 -0.97338318594E+02  0.97346603263E+02  0.12700000000E+01 0.  1.
         25    2    1    2    0    0  0.00000000000E+00  0.00000000000E+00 -0.57227772389E+02  0.13747725012E+03  0.12499990547E+03 0.  0.
    9000005    1    3    3    0    0 -0.61726655857E+02 -0.45509381960E+01 -0.38097425079E+02  0.72686345894E+02  0.10000000000E+01 0.  0.
    9000005    1    3    3    0    0  0.61726655857E+02  0.45509381960E+01 -0.19130347310E+02  0.64790904222E+02  0.10000000000E+01 0.  0.
<mgrwt>
<rscale>  0 0.12499991E+03</rscale>
<asrwt>0</asrwt>
<pdfrwt beam="2">  1        4 0.14977309E-01 0.12499991E+03</pdfrwt>
<pdfrwt beam="1">  1       -4 0.61730368E-02 0.12499991E+03</pdfrwt>
<totfact> 0.10186138E+04</totfact>
</mgrwt>
</event>
<event>
 5    1  0.3272646E-002  0.1250113E+03  0.7818608E-02  0.1235052E+00
         -4   -1    0    0    0  501 -0.00000000000E+00  0.00000000000E+00  0.40449241912E+02  0.40469174333E+02  0.12700000000E+01 0.  1.
          4   -1    0    0  501    0  0.00000000000E+00 -0.00000000000E+00 -0.96541189375E+02  0.96549542443E+02  0.12700000000E+01 0.  1.
         25    2    1    2    0    0  0.00000000000E+00  0.00000000000E+00 -0.56091947464E+02  0.13701871678E+03  0.12501128820E+03 0.  0.
    9000005    1    3    3    0    0 -0.29219060205E+02  0.33479429610E+02  0.20122057164E+02  0.48790602280E+02  0.10000000000E+01 0.  0.
    9000005    1    3    3    0    0  0.29219060205E+02 -0.33479429610E+02 -0.76214004628E+02  0.88228114497E+02  0.10000000000E+01 0.  0.
<mgrwt>
<rscale>  0 0.12501129E+03</rscale>
<asrwt>0</asrwt>
<pdfrwt beam="2">  1        4 0.14854666E-01 0.12501129E+03</pdfrwt>
<pdfrwt beam="1">  1       -4 0.62251361E-02 0.12501129E+03</pdfrwt>
<totfact> 0.10193100E+04</totfact>
</mgrwt>
</event>
<event>
 5    1  0.3272646E-002  0.1250051E+03  0.7818608E-02  0.1235061E+00
         -4   -1    0    0    0  501 -0.00000000000E+00  0.00000000000E+00  0.58062497486E+02  0.58076385169E+02  0.12700000000E+01 0. -1.
          4   -1    0    0  501    0  0.00000000000E+00 -0.00000000000E+00 -0.67254231798E+02  0.67266221797E+02  0.12700000000E+01 0. -1.
         25    2    1    2    0    0  0.00000000000E+00  0.00000000000E+00 -0.91917343121E+01  0.12534260697E+03  0.12500512446E+03 0.  0.
    9000005    1    3    3    0    0  0.23156045685E+02 -0.57359825821E+02 -0.13520357696E+02  0.63325762074E+02  0.10000000000E+01 0.  0.
    9000005    1    3    3    0    0 -0.23156045685E+02  0.57359825821E+02  0.43286233835E+01  0.62016844892E+02  0.10000000000E+01 0.  0.
<mgrwt>
<rscale>  0 0.12500512E+03</rscale>
<asrwt>0</asrwt>
<pdfrwt beam="2">  1        4 0.10348795E-01 0.12500512E+03</pdfrwt>
<pdfrwt beam="1">  1       -4 0.89346825E-02 0.12500512E+03</pdfrwt>
<totfact> 0.10444216E+04</totfact>
</mgrwt>
</event>
<event>
 5    1  0.3272646E-002  0.1249995E+03  0.7818608E-02  0.1235070E+00
          4   -1    0    0  501    0  0.00000000000E+00  0.00000000000E+00  0.16803191342E+02  0.16851116855E+02  0.12700000000E+01 0.  1.
         -4   -1    0    0    0  501 -0.00000000000E+00 -0.00000000000E+00 -0.23208818587E+03  0.23209166060E+03  0.12700000000E+01 0.  1.
         25    2    1    2    0    0  0.00000000000E+00  0.00000000000E+00 -0.21528499452E+03  0.24894277745E+03  0.12499951031E+03 0.  0.
    9000005    1    3    3    0    0  0.30399877023E+02  0.38684893191E+02 -0.18437653219E+03  0.19083076038E+03  0.10000000000E+01 0.  0.
    9000005    1    3    3    0    0 -0.30399877023E+02 -0.38684893191E+02 -0.30908462328E+02  0.58112017068E+02  0.10000000000E+01 0.  0.
<mgrwt>
<rscale>  0 0.12499951E+03</rscale>
<asrwt>0</asrwt>
<pdfrwt beam="1">  1        4 0.25890604E-02 0.12499951E+03</pdfrwt>
<pdfrwt beam="2">  1       -4 0.35709826E-01 0.12499951E+03</pdfrwt>
<totfact> 0.82484171E+03</totfact>
</mgrwt>
</event>
<event>
 5    1  0.3272646E-002  0.1250035E+03  0.7818608E-02  0.1235064E+00
         -4   -1    0    0    0  501 -0.00000000000E+00  0.00000000000E+00  0.29662163396E+02  0.29689338783E+02  0.12700000000E+01 0. -1.
          4   -1    0    0  501    0  0.00000000000E+00 -0.00000000000E+00 -0.13160818085E+03  0.13161430837E+03  0.12700000000E+01 0. -1.
         25    2    1    2    0    0  0.00000000000E+00  0.00000000000E+00 -0.10194601746E+03  0.16130364715E+03  0.12500350439E+03 0.  0.
    9000005    1    3    3    0    0  0.96136430092E+01  0.28395457237E+02 -0.12173015201E+03  0.12537126477E+03  0.10000000000E+01 0.  0.
    9000005    1    3    3    0    0 -0.96136430092E+01 -0.28395457237E+02  0.19784134548E+02  0.35932382379E+02  0.10000000000E+01 0.  0.
<mgrwt>
<rscale>  0 0.12500350E+03</rscale>
<asrwt>0</asrwt>
<pdfrwt beam="2">  1        4 0.20249974E-01 0.12500350E+03</pdfrwt>
<pdfrwt beam="1">  1       -4 0.45659716E-02 0.12500350E+03</pdfrwt>
<totfact> 0.97084393E+03</totfact>
</mgrwt>
</event>
<event>
 5    1  0.3272646E-002  0.1250006E+03  0.7818608E-02  0.1235068E+00
          4   -1    0    0  501    0  0.00000000000E+00  0.00000000000E+00  0.12144293135E+02  0.12210518242E+02  0.12700000000E+01 0.  1.
         -4   -1    0    0    0  501 -0.00000000000E+00 -0.00000000000E+00 -0.32071385325E+03  0.32071636778E+03  0.12700000000E+01 0.  1.
         25    2    1    2    0    0  0.00000000000E+00  0.00000000000E+00 -0.30856956011E+03  0.33292688602E+03  0.12500055204E+03 0.  0.
    9000005    1    3    3    0    0 -0.60728834071E+02 -0.12611414988E+02 -0.13395803430E+03  0.14762382609E+03  0.10000000000E+01 0.  0.
    9000005    1    3    3    0    0  0.60728834071E+02  0.12611414988E+02 -0.17461152581E+03  0.18530305993E+03  0.10000000000E+01 0.  0.
<mgrwt>
<rscale>  0 0.12500055E+03</rscale>
<asrwt>0</asrwt>
<pdfrwt beam="1">  1        4 0.18736407E-02 0.12500055E+03</pdfrwt>
<pdfrwt beam="2">  1       -4 0.49345874E-01 0.12500055E+03</pdfrwt>
<totfact> 0.71643697E+03</totfact>
</mgrwt>
</event>
<event>
 5    1  0.3272646E-002  0.1249997E+03  0.7818608E-02  0.1235070E+00
         -4   -1    0    0    0  501 -0.00000000000E+00  0.00000000000E+00  0.12588249809E+02  0.12652151329E+02  0.12700000000E+01 0. -1.
          4   -1    0    0  501    0  0.00000000000E+00 -0.00000000000E+00 -0.30945679175E+03  0.30945939775E+03  0.12700000000E+01 0. -1.
         25    2    1    2    0    0  0.00000000000E+00  0.00000000000E+00 -0.29686854194E+03  0.32211154908E+03  0.12499967544E+03 0.  0.
    9000005    1    3    3    0    0  0.32362908520E+02  0.26219873160E+01 -0.10841443594E+02  0.34245723303E+02  0.10000000000E+01 0.  0.
    9000005    1    3    3    0    0 -0.32362908520E+02 -0.26219873160E+01 -0.28602709834E+03  0.28786582578E+03  0.10000000000E+01 0.  0.
<mgrwt>
<rscale>  0 0.12499968E+03</rscale>
<asrwt>0</asrwt>
<pdfrwt beam="2">  1        4 0.47613847E-01 0.12499968E+03</pdfrwt>
<pdfrwt beam="1">  1       -4 0.19417700E-02 0.12499968E+03</pdfrwt>
<totfact> 0.72906213E+03</totfact>
</mgrwt>
</event>
<event>
 5    1  0.3272646E-002  0.1250147E+03  0.7818608E-02  0.1235046E+00
         -4   -1    0    0    0  501 -0.00000000000E+00  0.00000000000E+00  0.21022284816E+02  0.21060611551E+02  0.12700000000E+01 0.  1.
          4   -1    0    0  501    0  0.00000000000E+00 -0.00000000000E+00 -0.18564869752E+03  0.18565304143E+03  0.12700000000E+01 0.  1.
         25    2    1    2    0    0  0.00000000000E+00  0.00000000000E+00 -0.16462641271E+03  0.20671365298E+03  0.12501471340E+03 0.  0.
    9000005    1    3    3    0    0  0.11016674530E+02 -0.61116372962E+02 -0.93957457605E+02  0.11263028900E+03  0.10000000000E+01 0.  0.
    9000005    1    3    3    0    0 -0.11016674530E+02  0.61116372962E+02 -0.70668955103E+02  0.94083363976E+02  0.10000000000E+01 0.  0.
<mgrwt>
<rscale>  0 0.12501471E+03</rscale>
<asrwt>0</asrwt>
<pdfrwt beam="2">  1        4 0.28564619E-01 0.12501471E+03</pdfrwt>
<pdfrwt beam="1">  1       -4 0.32374801E-02 0.12501471E+03</pdfrwt>
<totfact> 0.88986130E+03</totfact>
</mgrwt>
</event>
<event>
 5    1  0.3272646E-002  0.1250001E+03  0.7818608E-02  0.1235069E+00
          4   -1    0    0  501    0  0.00000000000E+00  0.00000000000E+00  0.22834807794E+02  0.22870097223E+02  0.12700000000E+01 0.  1.
         -4   -1    0    0    0  501 -0.00000000000E+00 -0.00000000000E+00 -0.17089601734E+03  0.17090073623E+03  0.12700000000E+01 0.  1.
         25    2    1    2    0    0  0.00000000000E+00  0.00000000000E+00 -0.14806120955E+03  0.19377083345E+03  0.12500005649E+03 0.  0.
    9000005    1    3    3    0    0  0.61534715926E+02  0.29619594123E+01 -0.57775352513E+02  0.84464701655E+02  0.10000000000E+01 0.  0.
    9000005    1    3    3    0    0 -0.61534715926E+02 -0.29619594123E+01 -0.90285857032E+02  0.10930613179E+03  0.10000000000E+01 0.  0.
<mgrwt>
<rscale>  0 0.12500006E+03</rscale>
<asrwt>0</asrwt>
<pdfrwt beam="1">  1        4 0.35161250E-02 0.12500006E+03</pdfrwt>
<pdfrwt beam="2">  1       -4 0.26294772E-01 0.12500006E+03</pdfrwt>
<totfact> 0.91195195E+03</totfact>
</mgrwt>
</event>
<event>
 5    1  0.3272646E-002  0.1250029E+03  0.7818608E-02  0.1235065E+00
          4   -1    0    0  501    0  0.00000000000E+00  0.00000000000E+00  0.46427039257E+02  0.46444406274E+02  0.12700000000E+01 0.  1.
         -4   -1    0    0    0  501 -0.00000000000E+00 -0.00000000000E+00 -0.84103342852E+02  0.84112931103E+02  0.12700000000E+01 0.  1.
         25    2    1    2    0    0  0.00000000000E+00  0.00000000000E+00 -0.37676303595E+02  0.13055733738E+03  0.12500285793E+03 0.  0.
    9000005    1    3    3    0    0  0.78262696698E+01  0.77928515448E+01  0.45404774934E+02  0.46739411838E+02  0.10000000000E+01 0.  0.
    9000005    1    3    3    0    0 -0.78262696698E+01 -0.77928515448E+01 -0.83081078529E+02  0.83817925539E+02  0.10000000000E+01 0.  0.
<mgrwt>
<rscale>  0 0.12500286E+03</rscale>
<asrwt>0</asrwt>
<pdfrwt beam="1">  1        4 0.71446949E-02 0.12500286E+03</pdfrwt>
<pdfrwt beam="2">  1       -4 0.12941049E-01 0.12500286E+03</pdfrwt>
<totfact> 0.10331922E+04</totfact>
</mgrwt>
</event>
<event>
 5    1  0.3272646E-002  0.1249942E+03  0.7818608E-02  0.1235078E+00
          4   -1    0    0  501    0  0.00000000000E+00  0.00000000000E+00  0.36079525919E+01  0.38249473075E+01  0.12700000000E+01 0. -1.
         -4   -1    0    0    0  501 -0.00000000000E+00 -0.00000000000E+00 -0.10507558800E+04  0.10507566475E+04  0.12700000000E+01 0. -1.
         25    2    1    2    0    0  0.00000000000E+00  0.00000000000E+00 -0.10471479274E+04  0.10545815948E+04  0.12499423275E+03 0.  0.
    9000005    1    3    3    0    0  0.26967147147E+01 -0.14071035116E+01  0.30243604180E+01  0.44044257835E+01  0.10000000000E+01 0.  0.
    9000005    1    3    3    0    0 -0.26967147147E+01  0.14071035116E+01 -0.10501722878E+04  0.10501771690E+04  0.10000000000E+01 0.  0.
<mgrwt>
<rscale>  0 0.12499423E+03</rscale>
<asrwt>0</asrwt>
<pdfrwt beam="1">  1        4 0.57182140E-03 0.12499423E+03</pdfrwt>
<pdfrwt beam="2">  1       -4 0.16167127E+00 0.12499423E+03</pdfrwt>
<totfact> 0.28855819E+03</totfact>
</mgrwt>
</event>
<event>
 5    1  0.3272646E-002  0.1249931E+03  0.7818608E-02  0.1235080E+00
         -4   -1    0    0    0  501 -0.00000000000E+00  0.00000000000E+00  0.39005959126E+03  0.39006165876E+03  0.12700000000E+01 0.  1.
          4   -1    0    0  501    0  0.00000000000E+00 -0.00000000000E+00 -0.99710198701E+01  0.10051573869E+02  0.12700000000E+01 0.  1.
         25    2    1    2    0    0  0.00000000000E+00  0.00000000000E+00  0.38008857139E+03  0.40011323263E+03  0.12499310710E+03 0.  0.
    9000005    1    3    3    0    0  0.42780897021E+02 -0.29132364292E+02  0.77964366088E+02  0.93586014867E+02  0.10000000000E+01 0.  0.
    9000005    1    3    3    0    0 -0.42780897021E+02  0.29132364292E+02  0.30212420530E+03  0.30652721776E+03  0.10000000000E+01 0.  0.
<mgrwt>
<rscale>  0 0.12499311E+03</rscale>
<asrwt>0</asrwt>
<pdfrwt beam="2">  1        4 0.15403585E-02 0.12499311E+03</pdfrwt>
<pdfrwt beam="1">  1       -4 0.60015525E-01 0.12499311E+03</pdfrwt>
<totfact> 0.64551598E+03</totfact>
</mgrwt>
</event>
<event>
 5    1  0.3272646E-002  0.1249995E+03  0.7818608E-02  0.1235070E+00
          4   -1    0    0  501    0  0.00000000000E+00  0.00000000000E+00  0.64969776945E+03  0.64969901072E+03  0.12700000000E+01 0.  1.
         -4   -1    0    0    0  501 -0.00000000000E+00 -0.00000000000E+00 -0.59440394517E+01  0.60781991579E+01  0.12700000000E+01 0.  1.
         25    2    1    2    0    0  0.00000000000E+00  0.00000000000E+00  0.64375373000E+03  0.65577720988E+03  0.12499953642E+03 0.  0.
    9000005    1    3    3    0    0  0.55625226356E+02  0.27895519702E+02  0.35196631038E+03  0.35742636930E+03  0.10000000000E+01 0.  0.
    9000005    1    3    3    0    0 -0.55625226356E+02 -0.27895519702E+02  0.29178741962E+03  0.29835084058E+03  0.10000000000E+01 0.  0.
<mgrwt>
<rscale>  0 0.12499954E+03</rscale>
<asrwt>0</asrwt>
<pdfrwt beam="1">  1        4 0.99963919E-01 0.12499954E+03</pdfrwt>
<pdfrwt beam="2">  1       -4 0.92488306E-03 0.12499954E+03</pdfrwt>
<totfact> 0.45526226E+03</totfact>
</mgrwt>
</event>
<event>
 5    1  0.3272646E-002  0.1249992E+03  0.7818608E-02  0.1235071E+00
         -4   -1    0    0    0  501 -0.00000000000E+00  0.00000000000E+00  0.97305685844E+01  0.98130966048E+01  0.12700000000E+01 0. -1.
          4   -1    0    0  501    0  0.00000000000E+00 -0.00000000000E+00 -0.39965714715E+03  0.39965916499E+03  0.12700000000E+01 0. -1.
         25    2    1    2    0    0  0.00000000000E+00  0.00000000000E+00 -0.38992657856E+03  0.40947226160E+03  0.12499918540E+03 0.  0.
    9000005    1    3    3    0    0  0.12035583095E+02 -0.41586427279E+02 -0.34258932337E+03  0.34531540754E+03  0.10000000000E+01 0.  0.
    9000005    1    3    3    0    0 -0.12035583095E+02  0.41586427279E+02 -0.47337255187E+02  0.64156854060E+02  0.10000000000E+01 0.  0.
<mgrwt>
<rscale>  0 0.12499919E+03</rscale>
<asrwt>0</asrwt>
<pdfrwt beam="2">  1        4 0.61492206E-01 0.12499919E+03</pdfrwt>
<pdfrwt beam="1">  1       -4 0.15035144E-02 0.12499919E+03</pdfrwt>
<totfact> 0.63642988E+03</totfact>
</mgrwt>
</event>
<event>
 5    1  0.3272646E-002  0.1249987E+03  0.7818608E-02  0.1235071E+00
         -4   -1    0    0    0  501 -0.00000000000E+00  0.00000000000E+00  0.13258250452E+03  0.13258858701E+03  0.12700000000E+01 0.  1.
          4   -1    0    0  501    0  0.00000000000E+00 -0.00000000000E+00 -0.29441721056E+02  0.29469099727E+02  0.12700000000E+01 0.  1.
         25    2    1    2    0    0  0.00000000000E+00  0.00000000000E+00  0.10314078346E+03  0.16205768673E+03  0.12499869046E+03 0.  0.
    9000005    1    3    3    0    0  0.54392185962E+02  0.29115351985E+02  0.38673589728E+02  0.72820739885E+02  0.10000000000E+01 0.  0.
    9000005    1    3    3    0    0 -0.54392185962E+02 -0.29115351985E+02  0.64467193734E+02  0.89236946849E+02  0.10000000000E+01 0.  0.
<mgrwt>
<rscale>  0 0.12499869E+03</rscale>
<asrwt>0</asrwt>
<pdfrwt beam="2">  1        4 0.45320696E-02 0.12499869E+03</pdfrwt>
<pdfrwt beam="1">  1       -4 0.20399882E-01 0.12499869E+03</pdfrwt>
<totfact> 0.96950393E+03</totfact>
</mgrwt>
</event>
<event>
 5    1  0.3272646E-002  0.1250019E+03  0.7818608E-02  0.1235066E+00
         -4   -1    0    0    0  501 -0.00000000000E+00  0.00000000000E+00  0.11230679015E+04  0.11230686196E+04  0.12700000000E+01 0. -1.
          4   -1    0    0  501    0  0.00000000000E+00 -0.00000000000E+00 -0.33616299909E+01  0.35935297683E+01  0.12700000000E+01 0. -1.
         25    2    1    2    0    0  0.00000000000E+00  0.00000000000E+00  0.11197062715E+04  0.11266621493E+04  0.12500185723E+03 0.  0.
    9000005    1    3    3    0    0 -0.58152961843E+02 -0.22882115223E+02  0.56065473090E+03  0.56412772087E+03  0.10000000000E+01 0.  0.
    9000005    1    3    3    0    0  0.58152961843E+02  0.22882115223E+02  0.55905154061E+03  0.56253442848E+03  0.10000000000E+01 0.  0.
<mgrwt>
<rscale>  0 0.12500186E+03</rscale>
<asrwt>0</asrwt>
<pdfrwt beam="2">  1        4 0.53506755E-03 0.12500186E+03</pdfrwt>
<pdfrwt beam="1">  1       -4 0.17279756E+00 0.12500186E+03</pdfrwt>
<totfact> 0.26714790E+03</totfact>
</mgrwt>
</event>
<event>
 5    1  0.3272646E-002  0.1249958E+03  0.7818608E-02  0.1235076E+00
          4   -1    0    0  501    0  0.00000000000E+00  0.00000000000E+00  0.28079767791E+01  0.30818230955E+01  0.12700000000E+01 0. -1.
         -4   -1    0    0    0  501 -0.00000000000E+00 -0.00000000000E+00 -0.13260825720E+04  0.13260831802E+04  0.12700000000E+01 0. -1.
         25    2    1    2    0    0  0.00000000000E+00  0.00000000000E+00 -0.13232745953E+04  0.13291650033E+04  0.12499580586E+03 0.  0.
    9000005    1    3    3    0    0  0.36912394774E+01 -0.58198698360E+02 -0.90042766393E+03  0.90231463011E+03  0.10000000000E+01 0.  0.
    9000005    1    3    3    0    0 -0.36912394774E+01  0.58198698360E+02 -0.42284693133E+03  0.42685037317E+03  0.10000000000E+01 0.  0.
<mgrwt>
<rscale>  0 0.12499581E+03</rscale>
<asrwt>0</asrwt>
<pdfrwt beam="1">  1        4 0.45310937E-03 0.12499581E+03</pdfrwt>
<pdfrwt beam="2">  1       -4 0.20403334E+00 0.12499581E+03</pdfrwt>
<totfact> 0.21552512E+03</totfact>
</mgrwt>
</event>
<event>
 5    1  0.3272646E-002  0.1250006E+03  0.7818608E-02  0.1235068E+00
         -4   -1    0    0    0  501 -0.00000000000E+00  0.00000000000E+00  0.70443976268E+02  0.70455423442E+02  0.12700000000E+01 0.  1.
          4   -1    0    0  501    0  0.00000000000E+00 -0.00000000000E+00 -0.55429153841E+02  0.55443701135E+02  0.12700000000E+01 0.  1.
         25    2    1    2    0    0  0.00000000000E+00  0.00000000000E+00  0.15014822427E+02  0.12589912458E+03  0.12500057871E+03 0.  0.
    9000005    1    3    3    0    0  0.37885875566E+02  0.43081080132E+02  0.32463886580E+02  0.65925889942E+02  0.10000000000E+01 0.  0.
    9000005    1    3    3    0    0 -0.37885875566E+02 -0.43081080132E+02 -0.17449064153E+02  0.59973234635E+02  0.10000000000E+01 0.  0.
<mgrwt>
<rscale>  0 0.12500058E+03</rscale>
<asrwt>0</asrwt>
<pdfrwt beam="2">  1        4 0.85295617E-02 0.12500058E+03</pdfrwt>
<pdfrwt beam="1">  1       -4 0.10839534E-01 0.12500058E+03</pdfrwt>
<totfact> 0.10433033E+04</totfact>
</mgrwt>
</event>
<event>
 5    1  0.3272646E-002  0.1250027E+03  0.7818608E-02  0.1235065E+00
          4   -1    0    0  501    0  0.00000000000E+00  0.00000000000E+00  0.23523996779E+03  0.23524339596E+03  0.12700000000E+01 0. -1.
         -4   -1    0    0    0  501 -0.00000000000E+00 -0.00000000000E+00 -0.16578268672E+02  0.16626842519E+02  0.12700000000E+01 0. -1.
         25    2    1    2    0    0  0.00000000000E+00  0.00000000000E+00  0.21866169912E+03  0.25187023848E+03  0.12500271346E+03 0.  0.
    9000005    1    3    3    0    0  0.54068532983E+02  0.12456347643E+02  0.16726991654E+03  0.17623504713E+03  0.10000000000E+01 0.  0.
    9000005    1    3    3    0    0 -0.54068532983E+02 -0.12456347643E+02  0.51391782574E+02  0.75635191357E+02  0.10000000000E+01 0.  0.
<mgrwt>
<rscale>  0 0.12500271E+03</rscale>
<asrwt>0</asrwt>
<pdfrwt beam="1">  1        4 0.36194761E-01 0.12500271E+03</pdfrwt>
<pdfrwt beam="2">  1       -4 0.25545032E-02 0.12500271E+03</pdfrwt>
<totfact> 0.82055712E+03</totfact>
</mgrwt>
</event>
<event>
 5    1  0.3272646E-002  0.1250004E+03  0.7818608E-02  0.1235069E+00
          4   -1    0    0  501    0  0.00000000000E+00  0.00000000000E+00  0.97338145803E+01  0.98163153110E+01  0.12700000000E+01 0.  1.
         -4   -1    0    0    0  501 -0.00000000000E+00 -0.00000000000E+00 -0.39953279620E+03  0.39953481468E+03  0.12700000000E+01 0.  1.
         25    2    1    2    0    0  0.00000000000E+00  0.00000000000E+00 -0.38979898162E+03  0.40935112999E+03  0.12500040620E+03 0.  0.
    9000005    1    3    3    0    0 -0.41517055417E+02 -0.38788089434E+02 -0.10968588780E+03  0.12353208391E+03  0.10000000000E+01 0.  0.
    9000005    1    3    3    0    0  0.41517055417E+02  0.38788089434E+02 -0.28011309382E+03  0.28581904608E+03  0.10000000000E+01 0.  0.
<mgrwt>
<rscale>  0 0.12500041E+03</rscale>
<asrwt>0</asrwt>
<pdfrwt beam="1">  1        4 0.15040117E-02 0.12500041E+03</pdfrwt>
<pdfrwt beam="2">  1       -4 0.61473073E-01 0.12500041E+03</pdfrwt>
<totfact> 0.63652794E+03</totfact>
</mgrwt>
</event>
<event>
 5    1  0.3272646E-002  0.1250005E+03  0.7818608E-02  0.1235069E+00
         -4   -1    0    0    0  501 -0.00000000000E+00  0.00000000000E+00  0.38932214416E+02  0.38952923116E+02  0.12700000000E+01 0.  1.
          4   -1    0    0  501    0  0.00000000000E+00 -0.00000000000E+00 -0.10028399466E+03  0.10029203600E+03  0.12700000000E+01 0.  1.
         25    2    1    2    0    0  0.00000000000E+00  0.00000000000E+00 -0.61351780249E+02  0.13924495912E+03  0.12500047080E+03 0.  0.
    9000005    1    3    3    0    0  0.57533572834E+02 -0.20964383500E+02 -0.16777669505E+02  0.63498878514E+02  0.10000000000E+01 0.  0.
    9000005    1    3    3    0    0 -0.57533572834E+02  0.20964383500E+02 -0.44574110743E+02  0.75746080606E+02  0.10000000000E+01 0.  0.
<mgrwt>
<rscale>  0 0.12500047E+03</rscale>
<asrwt>0</asrwt>
<pdfrwt beam="2">  1        4 0.15430518E-01 0.12500047E+03</pdfrwt>
<pdfrwt beam="1">  1       -4 0.59917830E-02 0.12500047E+03</pdfrwt>
<totfact> 0.10149151E+04</totfact>
</mgrwt>
</event>
<event>
 5    1  0.3272646E-002  0.1250052E+03  0.7818608E-02  0.1235061E+00
          4   -1    0    0  501    0  0.00000000000E+00  0.00000000000E+00  0.13319343595E+02  0.13379753877E+02  0.12700000000E+01 0. -1.
         -4   -1    0    0    0  501 -0.00000000000E+00 -0.00000000000E+00 -0.29257563802E+03  0.29257839439E+03  0.12700000000E+01 0. -1.
         25    2    1    2    0    0  0.00000000000E+00  0.00000000000E+00 -0.27925629442E+03  0.30595814826E+03  0.12500524195E+03 0.  0.
    9000005    1    3    3    0    0 -0.32550754781E+01  0.32932780465E+02 -0.98746848956E+01  0.34549572317E+02  0.10000000000E+01 0.  0.
    9000005    1    3    3    0    0  0.32550754781E+01 -0.32932780465E+02 -0.26938160953E+03  0.27140857594E+03  0.10000000000E+01 0.  0.
<mgrwt>
<rscale>  0 0.12500524E+03</rscale>
<asrwt>0</asrwt>
<pdfrwt beam="1">  1        4 0.20539890E-02 0.12500524E+03</pdfrwt>
<pdfrwt beam="2">  1       -4 0.45016491E-01 0.12500524E+03</pdfrwt>
<totfact> 0.74848781E+03</totfact>
</mgrwt>
</event>
<event>
 5    1  0.3272646E-002  0.1250002E+03  0.7818608E-02  0.1235069E+00
         -4   -1    0    0    0  501 -0.00000000000E+00  0.00000000000E+00  0.16736405082E+03  0.16736886928E+03  0.12700000000E+01 0.  1.
          4   -1    0    0  501    0  0.00000000000E+00 -0.00000000000E+00 -0.23317479153E+02  0.23352039184E+02  0.12700000000E+01 0.  1.
         25    2    1    2    0    0  0.00000000000E+00  0.00000000000E+00  0.14404657166E+03  0.19072090847E+03  0.12500020048E+03 0.  0.
    9000005    1    3    3    0    0 -0.35877694750E+02  0.23770512126E+02  0.28905416584E+01  0.43146279775E+02  0.10000000000E+01 0.  0.
    9000005    1    3    3    0    0  0.35877694750E+02 -0.23770512126E+02  0.14115603001E+03  0.14757462869E+03  0.10000000000E+01 0.  0.
<mgrwt>
<rscale>  0 0.12500020E+03</rscale>
<asrwt>0</asrwt>
<pdfrwt beam="2">  1        4 0.35903336E-02 0.12500020E+03</pdfrwt>
<pdfrwt beam="1">  1       -4 0.25751345E-01 0.12500020E+03</pdfrwt>
<totfact> 0.91721618E+03</totfact>
</mgrwt>
</event>
<event>
 5    1  0.3272646E-002  0.1250003E+03  0.7818608E-02  0.1235069E+00
          4   -1    0    0  501    0  0.00000000000E+00  0.00000000000E+00  0.32312455940E+03  0.32312705517E+03  0.12700000000E+01 0. -1.
         -4   -1    0    0    0  501 -0.00000000000E+00 -0.00000000000E+00 -0.12053144538E+02  0.12119867708E+02  0.12700000000E+01 0. -1.
         25    2    1    2    0    0  0.00000000000E+00  0.00000000000E+00  0.31107141486E+03  0.33524692288E+03  0.12500029664E+03 0.  0.
    9000005    1    3    3    0    0  0.52954891469E+02  0.32574123518E+02  0.13857885647E+03  0.15188941212E+03  0.10000000000E+01 0.  0.
    9000005    1    3    3    0    0 -0.52954891469E+02 -0.32574123518E+02  0.17249255839E+03  0.18335751076E+03  0.10000000000E+01 0.  0.
<mgrwt>
<rscale>  0 0.12500030E+03</rscale>
<asrwt>0</asrwt>
<pdfrwt beam="1">  1        4 0.49716795E-01 0.12500030E+03</pdfrwt>
<pdfrwt beam="2">  1       -4 0.18596545E-02 0.12500030E+03</pdfrwt>
<totfact> 0.71378192E+03</totfact>
</mgrwt>
</event>
<event>
 5    1  0.3272646E-002  0.1250001E+03  0.7818608E-02  0.1235069E+00
          4   -1    0    0  501    0  0.00000000000E+00  0.00000000000E+00  0.43733555783E+02  0.43751991971E+02  0.12700000000E+01 0.  1.
         -4   -1    0    0    0  501 -0.00000000000E+00 -0.00000000000E+00 -0.89277609188E+02  0.89286641791E+02  0.12700000000E+01 0.  1.
         25    2    1    2    0    0  0.00000000000E+00  0.00000000000E+00 -0.45544053405E+02  0.13303863376E+03  0.12500006909E+03 0.  0.
    9000005    1    3    3    0    0  0.58082905171E+02 -0.18085879786E+02 -0.75508749448E+01  0.61308552692E+02  0.10000000000E+01 0.  0.
    9000005    1    3    3    0    0 -0.58082905171E+02  0.18085879786E+02 -0.37993178460E+02  0.71730081070E+02  0.10000000000E+01 0.  0.
<mgrwt>
<rscale>  0 0.12500007E+03</rscale>
<asrwt>0</asrwt>
<pdfrwt beam="1">  1        4 0.67303524E-02 0.12500007E+03</pdfrwt>
<pdfrwt beam="2">  1       -4 0.13737130E-01 0.12500007E+03</pdfrwt>
<totfact> 0.10279563E+04</totfact>
</mgrwt>
</event>
<event>
 5    1  0.3272646E-002  0.1250023E+03  0.7818608E-02  0.1235066E+00
          4   -1    0    0  501    0  0.00000000000E+00  0.00000000000E+00  0.12254685757E+02  0.12320317488E+02  0.12700000000E+01 0.  1.
         -4   -1    0    0    0  501 -0.00000000000E+00 -0.00000000000E+00 -0.31784920897E+03  0.31785174617E+03  0.12700000000E+01 0.  1.
         25    2    1    2    0    0  0.00000000000E+00  0.00000000000E+00 -0.30559452321E+03  0.33017206366E+03  0.12500231599E+03 0.  0.
    9000005    1    3    3    0    0  0.29759128247E+02 -0.29151476876E+02 -0.29756170556E+02  0.51203945202E+02  0.10000000000E+01 0.  0.
    9000005    1    3    3    0    0 -0.29759128247E+02  0.29151476876E+02 -0.27583835266E+03  0.27896811846E+03  0.10000000000E+01 0.  0.
<mgrwt>
<rscale>  0 0.12500232E+03</rscale>
<asrwt>0</asrwt>
<pdfrwt beam="1">  1        4 0.18905803E-02 0.12500232E+03</pdfrwt>
<pdfrwt beam="2">  1       -4 0.48905116E-01 0.12500232E+03</pdfrwt>
<totfact> 0.71958716E+03</totfact>
</mgrwt>
</event>
<event>
 5    1  0.3272646E-002  0.1249989E+03  0.7818608E-02  0.1235071E+00
         -4   -1    0    0    0  501 -0.00000000000E+00  0.00000000000E+00  0.93346164555E+01  0.94206138001E+01  0.12700000000E+01 0. -1.
          4   -1    0    0  501    0  0.00000000000E+00 -0.00000000000E+00 -0.41645595729E+03  0.41645789375E+03  0.12700000000E+01 0. -1.
         25    2    1    2    0    0  0.00000000000E+00  0.00000000000E+00 -0.40712134084E+03  0.42587850755E+03  0.12499886810E+03 0.  0.
    9000005    1    3    3    0    0  0.24507140933E+02  0.45468631768E+02 -0.83722109753E+02  0.98378799002E+02  0.10000000000E+01 0.  0.
    9000005    1    3    3    0    0 -0.24507140933E+02 -0.45468631768E+02 -0.32339923109E+03  0.32749970855E+03  0.10000000000E+01 0.  0.
<mgrwt>
<rscale>  0 0.12499887E+03</rscale>
<asrwt>0</asrwt>
<pdfrwt beam="2">  1        4 0.64076897E-01 0.12499887E+03</pdfrwt>
<pdfrwt beam="1">  1       -4 0.14428593E-02 0.12499887E+03</pdfrwt>
<totfact> 0.62112921E+03</totfact>
</mgrwt>
</event>
<event>
 5    1  0.3272646E-002  0.1250003E+03  0.7818608E-02  0.1235069E+00
         -4   -1    0    0    0  501 -0.00000000000E+00  0.00000000000E+00  0.50844943686E+03  0.50845102295E+03  0.12700000000E+01 0.  1.
          4   -1    0    0  501    0  0.00000000000E+00 -0.00000000000E+00 -0.76286133051E+01  0.77336046549E+01  0.12700000000E+01 0.  1.
         25    2    1    2    0    0  0.00000000000E+00  0.00000000000E+00  0.50082082356E+03  0.51618462761E+03  0.12500028990E+03 0.  0.
    9000005    1    3    3    0    0 -0.16641865463E+02 -0.19250770378E+02  0.48610586701E+03  0.48677249079E+03  0.10000000000E+01 0.  0.
    9000005    1    3    3    0    0  0.16641865463E+02  0.19250770378E+02  0.14714956543E+02  0.29412136820E+02  0.10000000000E+01 0.  0.
<mgrwt>
<rscale>  0 0.12500029E+03</rscale>
<asrwt>0</asrwt>
<pdfrwt beam="2">  1        4 0.11818308E-02 0.12500029E+03</pdfrwt>
<pdfrwt beam="1">  1       -4 0.78231205E-01 0.12500029E+03</pdfrwt>
<totfact> 0.54629789E+03</totfact>
</mgrwt>
</event>
<event>
 5    1  0.3272646E-002  0.1249997E+03  0.7818608E-02  0.1235070E+00
          4   -1    0    0  501    0  0.00000000000E+00  0.00000000000E+00  0.22790664084E+02  0.22826021760E+02  0.12700000000E+01 0. -1.
         -4   -1    0    0    0  501 -0.00000000000E+00 -0.00000000000E+00 -0.17122551789E+03  0.17123022770E+03  0.12700000000E+01 0. -1.
         25    2    1    2    0    0  0.00000000000E+00  0.00000000000E+00 -0.14843485381E+03  0.19405624946E+03  0.12499968851E+03 0.  0.
    9000005    1    3    3    0    0 -0.17990901944E+02  0.53855055000E+02 -0.11473590859E+03  0.12802096790E+03  0.10000000000E+01 0.  0.
    9000005    1    3    3    0    0  0.17990901944E+02 -0.53855055000E+02 -0.33698945221E+02  0.66035281561E+02  0.10000000000E+01 0.  0.
<mgrwt>
<rscale>  0 0.12499969E+03</rscale>
<asrwt>0</asrwt>
<pdfrwt beam="1">  1        4 0.35093382E-02 0.12499969E+03</pdfrwt>
<pdfrwt beam="2">  1       -4 0.26345469E-01 0.12499969E+03</pdfrwt>
<totfact> 0.91146928E+03</totfact>
</mgrwt>
</event>
<event>
 5    1  0.3272646E-002  0.1250020E+03  0.7818608E-02  0.1235066E+00
         -4   -1    0    0    0  501 -0.00000000000E+00  0.00000000000E+00  0.48162317470E+02  0.48179058979E+02  0.12700000000E+01 0.  1.
          4   -1    0    0  501    0  0.00000000000E+00 -0.00000000000E+00 -0.81072701491E+02  0.81082648125E+02  0.12700000000E+01 0.  1.
         25    2    1    2    0    0  0.00000000000E+00  0.00000000000E+00 -0.32910384020E+02  0.12926170710E+03  0.12500198217E+03 0.  0.
    9000005    1    3    3    0    0  0.26821045143E+02 -0.61388119103E+00  0.41909548170E+02  0.49771031137E+02  0.10000000000E+01 0.  0.
    9000005    1    3    3    0    0 -0.26821045143E+02  0.61388119103E+00 -0.74819932190E+02  0.79490675967E+02  0.10000000000E+01 0.  0.
<mgrwt>
<rscale>  0 0.12500198E+03</rscale>
<asrwt>0</asrwt>
<pdfrwt beam="2">  1        4 0.12474776E-01 0.12500198E+03</pdfrwt>
<pdfrwt beam="1">  1       -4 0.74116403E-02 0.12500198E+03</pdfrwt>
<totfact> 0.10359863E+04</totfact>
</mgrwt>
</event>
<event>
 5    1  0.3272646E-002  0.1249964E+03  0.7818608E-02  0.1235075E+00
          4   -1    0    0  501    0  0.00000000000E+00  0.00000000000E+00  0.44995764657E+03  0.44995943884E+03  0.12700000000E+01 0. -1.
         -4   -1    0    0    0  501 -0.00000000000E+00 -0.00000000000E+00 -0.86326057375E+01  0.87255247303E+01  0.12700000000E+01 0. -1.
         25    2    1    2    0    0  0.00000000000E+00  0.00000000000E+00  0.44132504083E+03  0.45868496357E+03  0.12499641653E+03 0.  0.
    9000005    1    3    3    0    0  0.22921026351E+02 -0.95123307401E+01  0.10207166224E+02  0.26852264847E+02  0.10000000000E+01 0.  0.
    9000005    1    3    3    0    0 -0.22921026351E+02  0.95123307401E+01  0.43111787461E+03  0.43183269873E+03  0.10000000000E+01 0.  0.
<mgrwt>
<rscale>  0 0.12499642E+03</rscale>
<asrwt>0</asrwt>
<pdfrwt beam="1">  1        4 0.69231552E-01 0.12499642E+03</pdfrwt>
<pdfrwt beam="2">  1       -4 0.13353784E-02 0.12499642E+03</pdfrwt>
<totfact> 0.59223397E+03</totfact>
</mgrwt>
</event>
<event>
 5    1  0.3272646E-002  0.1249976E+03  0.7818608E-02  0.1235073E+00
         -4   -1    0    0    0  501 -0.00000000000E+00  0.00000000000E+00  0.49899029862E+02  0.49915188882E+02  0.12700000000E+01 0. -1.
          4   -1    0    0  501    0  0.00000000000E+00 -0.00000000000E+00 -0.78246147078E+02  0.78256452977E+02  0.12700000000E+01 0. -1.
         25    2    1    2    0    0  0.00000000000E+00  0.00000000000E+00 -0.28347117216E+02  0.12817164186E+03  0.12499764287E+03 0.  0.
    9000005    1    3    3    0    0 -0.46103814963E+02  0.34966081719E+02 -0.38371822784E+02  0.69437636831E+02  0.10000000000E+01 0.  0.
    9000005    1    3    3    0    0  0.46103814963E+02 -0.34966081719E+02  0.10024705568E+02  0.58734005028E+02  0.10000000000E+01 0.  0.
<mgrwt>
<rscale>  0 0.12499764E+03</rscale>
<asrwt>0</asrwt>
<pdfrwt beam="2">  1        4 0.12039905E-01 0.12499764E+03</pdfrwt>
<pdfrwt beam="1">  1       -4 0.76788096E-02 0.12499764E+03</pdfrwt>
<totfact> 0.10384335E+04</totfact>
</mgrwt>
</event>
<event>
 5    1  0.3272646E-002  0.1250034E+03  0.7818608E-02  0.1235064E+00
          4   -1    0    0  501    0  0.00000000000E+00  0.00000000000E+00  0.13742679314E+03  0.13743266123E+03  0.12700000000E+01 0.  1.
         -4   -1    0    0    0  501 -0.00000000000E+00 -0.00000000000E+00 -0.28405108318E+02  0.28433485164E+02  0.12700000000E+01 0.  1.
         25    2    1    2    0    0  0.00000000000E+00  0.00000000000E+00  0.10902168482E+03  0.16586614640E+03  0.12500340299E+03 0.  0.
    9000005    1    3    3    0    0  0.58842179942E+02 -0.17776782927E+02  0.69466907153E+02  0.92763502202E+02  0.10000000000E+01 0.  0.
    9000005    1    3    3    0    0 -0.58842179942E+02  0.17776782927E+02  0.39554777672E+02  0.73102644195E+02  0.10000000000E+01 0.  0.
<mgrwt>
<rscale>  0 0.12500340E+03</rscale>
<asrwt>0</asrwt>
<pdfrwt beam="1">  1        4 0.21145217E-01 0.12500340E+03</pdfrwt>
<pdfrwt beam="2">  1       -4 0.43726511E-02 0.12500340E+03</pdfrwt>
<totfact> 0.96216255E+03</totfact>
</mgrwt>
</event>
<event>
 5    1  0.3272646E-002  0.1250023E+03  0.7818608E-02  0.1235066E+00
         -4   -1    0    0    0  501 -0.00000000000E+00  0.00000000000E+00  0.19311606941E+02  0.19353321747E+02  0.12700000000E+01 0. -1.
          4   -1    0    0  501    0  0.00000000000E+00 -0.00000000000E+00 -0.20202010894E+03  0.20202410083E+03  0.12700000000E+01 0. -1.
         25    2    1    2    0    0  0.00000000000E+00  0.00000000000E+00 -0.18270850199E+03  0.22137742257E+03  0.12500226608E+03 0.  0.
    9000005    1    3    3    0    0 -0.53988066730E+01 -0.59864271571E+02 -0.61065009150E+02  0.85690218034E+02  0.10000000000E+01 0.  0.
    9000005    1    3    3    0    0  0.53988066730E+01  0.59864271571E+02 -0.12164349284E+03  0.13568720454E+03  0.10000000000E+01 0.  0.
<mgrwt>
<rscale>  0 0.12500227E+03</rscale>
<asrwt>0</asrwt>
<pdfrwt beam="2">  1        4 0.31083531E-01 0.12500227E+03</pdfrwt>
<pdfrwt beam="1">  1       -4 0.29745325E-02 0.12500227E+03</pdfrwt>
<totfact> 0.86646474E+03</totfact>
</mgrwt>
</event>
<event>
 5    1  0.3272646E-002  0.1249999E+03  0.7818608E-02  0.1235069E+00
         -4   -1    0    0    0  501 -0.00000000000E+00  0.00000000000E+00  0.70944710955E+03  0.70944824628E+03  0.12700000000E+01 0.  1.
          4   -1    0    0  501    0  0.00000000000E+00 -0.00000000000E+00 -0.54316467471E+01  0.55781436325E+01  0.12700000000E+01 0.  1.
         25    2    1    2    0    0  0.00000000000E+00  0.00000000000E+00  0.70401546280E+03  0.71502638991E+03  0.12499986562E+03 0.  0.
    9000005    1    3    3    0    0  0.14202238879E+02  0.26582018947E+02  0.38858655469E+02  0.49186404884E+02  0.10000000000E+01 0.  0.
    9000005    1    3    3    0    0 -0.14202238879E+02 -0.26582018947E+02  0.66515680733E+03  0.66583998503E+03  0.10000000000E+01 0.  0.
<mgrwt>
<rscale>  0 0.12499987E+03</rscale>
<asrwt>0</asrwt>
<pdfrwt beam="2">  1        4 0.84699445E-03 0.12499987E+03</pdfrwt>
<pdfrwt beam="1">  1       -4 0.10915706E+00 0.12499987E+03</pdfrwt>
<totfact> 0.42305380E+03</totfact>
</mgrwt>
</event>
<event>
 5    1  0.3272646E-002  0.1250067E+03  0.7818608E-02  0.1235059E+00
          4   -1    0    0  501    0  0.00000000000E+00  0.00000000000E+00  0.60625641655E+02  0.60638942324E+02  0.12700000000E+01 0.  1.
         -4   -1    0    0    0  501 -0.00000000000E+00 -0.00000000000E+00 -0.64412593189E+02  0.64425112040E+02  0.12700000000E+01 0.  1.
         25    2    1    2    0    0  0.00000000000E+00  0.00000000000E+00 -0.37869515336E+01  0.12506405436E+03  0.12500670659E+03 0.  0.
    9000005    1    3    3    0    0  0.37622222956E+02 -0.26913328545E+02 -0.43935489046E+02  0.63805063367E+02  0.10000000000E+01 0.  0.
    9000005    1    3    3    0    0 -0.37622222956E+02  0.26913328545E+02  0.40148537512E+02  0.61258990996E+02  0.10000000000E+01 0.  0.
<mgrwt>
<rscale>  0 0.12500671E+03</rscale>
<asrwt>0</asrwt>
<pdfrwt beam="1">  1        4 0.93290079E-02 0.12500671E+03</pdfrwt>
<pdfrwt beam="2">  1       -4 0.99116158E-02 0.12500671E+03</pdfrwt>
<totfact> 0.10449887E+04</totfact>
</mgrwt>
</event>
<event>
 5    1  0.3272646E-002  0.1250013E+03  0.7818608E-02  0.1235067E+00
         -4   -1    0    0    0  501 -0.00000000000E+00  0.00000000000E+00  0.36347179369E+02  0.36369360017E+02  0.12700000000E+01 0. -1.
          4   -1    0    0  501    0  0.00000000000E+00 -0.00000000000E+00 -0.10741404528E+03  0.10742155288E+03  0.12700000000E+01 0. -1.
         25    2    1    2    0    0  0.00000000000E+00  0.00000000000E+00 -0.71066865914E+02  0.14379091290E+03  0.12500130880E+03 0.  0.
    9000005    1    3    3    0    0 -0.12960290372E+02  0.59941874636E+02 -0.49353231583E+02  0.78725719616E+02  0.10000000000E+01 0.  0.
    9000005    1    3    3    0    0  0.12960290372E+02 -0.59941874636E+02 -0.21713634331E+02  0.65065193286E+02  0.10000000000E+01 0.  0.
<mgrwt>
<rscale>  0 0.12500131E+03</rscale>
<asrwt>0</asrwt>
<pdfrwt beam="2">  1        4 0.16527521E-01 0.12500131E+03</pdfrwt>
<pdfrwt beam="1">  1       -4 0.55941575E-02 0.12500131E+03</pdfrwt>
<totfact> 0.10055316E+04</totfact>
</mgrwt>
</event>
<event>
 5    1  0.3272646E-002  0.1249915E+03  0.7818608E-02  0.1235083E+00
         -4   -1    0    0    0  501 -0.00000000000E+00  0.00000000000E+00  0.97150546298E+02  0.97158846978E+02  0.12700000000E+01 0. -1.
          4   -1    0    0  501    0  0.00000000000E+00 -0.00000000000E+00 -0.40182690999E+02  0.40202755576E+02  0.12700000000E+01 0. -1.
         25    2    1    2    0    0  0.00000000000E+00  0.00000000000E+00  0.56967855299E+02  0.13736160255E+03  0.12499149299E+03 0.  0.
    9000005    1    3    3    0    0  0.12696176880E+02  0.59122710167E+02  0.11176301946E+02  0.61502825057E+02  0.10000000000E+01 0.  0.
    9000005    1    3    3    0    0 -0.12696176880E+02 -0.59122710167E+02  0.45791553354E+02  0.75858777497E+02  0.10000000000E+01 0.  0.
<mgrwt>
<rscale>  0 0.12499149E+03</rscale>
<asrwt>0</asrwt>
<pdfrwt beam="2">  1        4 0.61841345E-02 0.12499149E+03</pdfrwt>
<pdfrwt beam="1">  1       -4 0.14948420E-01 0.12499149E+03</pdfrwt>
<totfact> 0.10190485E+04</totfact>
</mgrwt>
</event>
<event>
 5    1  0.3272646E-002  0.1250035E+03  0.7818608E-02  0.1235064E+00
         -4   -1    0    0    0  501 -0.00000000000E+00  0.00000000000E+00  0.52805958884E+02  0.52821228627E+02  0.12700000000E+01 0.  1.
          4   -1    0    0  501    0  0.00000000000E+00 -0.00000000000E+00 -0.73946429117E+02  0.73957334181E+02  0.12700000000E+01 0.  1.
         25    2    1    2    0    0  0.00000000000E+00  0.00000000000E+00 -0.21140470233E+02  0.12677856281E+03  0.12500353797E+03 0.  0.
    9000005    1    3    3    0    0 -0.31006635014E+02 -0.86664402271E+01  0.43752946768E+02  0.54330828743E+02  0.10000000000E+01 0.  0.
    9000005    1    3    3    0    0  0.31006635014E+02  0.86664402271E+01 -0.64893417001E+02  0.72447734065E+02  0.10000000000E+01 0.  0.
<mgrwt>
<rscale>  0 0.12500354E+03</rscale>
<asrwt>0</asrwt>
<pdfrwt beam="2">  1        4 0.11378387E-01 0.12500354E+03</pdfrwt>
<pdfrwt beam="1">  1       -4 0.81260071E-02 0.12500354E+03</pdfrwt>
<totfact> 0.10413129E+04</totfact>
</mgrwt>
</event>
<event>
 5    1  0.3272646E-002  0.1250017E+03  0.7818608E-02  0.1235067E+00
          4   -1    0    0  501    0  0.00000000000E+00  0.00000000000E+00  0.26142762386E+02  0.26173592133E+02  0.12700000000E+01 0. -1.
         -4   -1    0    0    0  501 -0.00000000000E+00 -0.00000000000E+00 -0.14930231346E+03  0.14930771482E+03  0.12700000000E+01 0. -1.
         25    2    1    2    0    0  0.00000000000E+00  0.00000000000E+00 -0.12315955108E+03  0.17548130696E+03  0.12500165627E+03 0.  0.
    9000005    1    3    3    0    0 -0.20476484683E+02 -0.13895962094E+02  0.18978272733E+02  0.31201907368E+02  0.10000000000E+01 0.  0.
    9000005    1    3    3    0    0  0.20476484683E+02  0.13895962094E+02 -0.14213782381E+03  0.14427939959E+03  0.10000000000E+01 0.  0.
<mgrwt>
<rscale>  0 0.12500166E+03</rscale>
<asrwt>0</asrwt>
<pdfrwt beam="1">  1        4 0.40247506E-02 0.12500166E+03</pdfrwt>
<pdfrwt beam="2">  1       -4 0.22972373E-01 0.12500166E+03</pdfrwt>
<totfact> 0.94433256E+03</totfact>
</mgrwt>
</event>
<event>
 5    1  0.3272646E-002  0.1249996E+03  0.7818608E-02  0.1235070E+00
         -4   -1    0    0    0  501 -0.00000000000E+00  0.00000000000E+00  0.14438291993E+03  0.14438850531E+03  0.12700000000E+01 0. -1.
          4   -1    0    0  501    0  0.00000000000E+00 -0.00000000000E+00 -0.27033611703E+02  0.27063426644E+02  0.12700000000E+01 0. -1.
         25    2    1    2    0    0  0.00000000000E+00  0.00000000000E+00  0.11734930822E+03  0.17145193196E+03  0.12499961932E+03 0.  0.
    9000005    1    3    3    0    0  0.30393946343E+02 -0.52128847567E+02  0.80961573258E+02  0.10098012214E+03  0.10000000000E+01 0.  0.
    9000005    1    3    3    0    0 -0.30393946343E+02  0.52128847567E+02  0.36387734964E+02  0.70471809816E+02  0.10000000000E+01 0.  0.
<mgrwt>
<rscale>  0 0.12499962E+03</rscale>
<asrwt>0</asrwt>
<pdfrwt beam="2">  1        4 0.41617403E-02 0.12499962E+03</pdfrwt>
<pdfrwt beam="1">  1       -4 0.22215480E-01 0.12499962E+03</pdfrwt>
<totfact> 0.95179519E+03</totfact>
</mgrwt>
</event>
<event>
 5    1  0.3272646E-002  0.1249987E+03  0.7818608E-02  0.1235071E+00
         -4   -1    0    0    0  501 -0.00000000000E+00  0.00000000000E+00  0.26285208050E+03  0.26285514855E+03  0.12700000000E+01 0. -1.
          4   -1    0    0  501    0  0.00000000000E+00 -0.00000000000E+00 -0.14830415713E+02  0.14884694496E+02  0.12700000000E+01 0. -1.
         25    2    1    2    0    0  0.00000000000E+00  0.00000000000E+00  0.24802166478E+03  0.27773984305E+03  0.12499869686E+03 0.  0.
    9000005    1    3    3    0    0 -0.31879833941E+01 -0.61107154438E+02  0.95824468706E+02  0.11369950028E+03  0.10000000000E+01 0.  0.
    9000005    1    3    3    0    0  0.31879833941E+01  0.61107154438E+02  0.15219719608E+03  0.16404034277E+03  0.10000000000E+01 0.  0.
<mgrwt>
<rscale>  0 0.12499870E+03</rscale>
<asrwt>0</asrwt>
<pdfrwt beam="2">  1        4 0.22860137E-02 0.12499870E+03</pdfrwt>
<pdfrwt beam="1">  1       -4 0.40443193E-01 0.12499870E+03</pdfrwt>
<totfact> 0.78481015E+03</totfact>
</mgrwt>
</event>
<event>
 5    1  0.3272646E-002  0.1250005E+03  0.7818608E-02  0.1235069E+00
         -4   -1    0    0    0  501 -0.00000000000E+00  0.00000000000E+00  0.13957600197E+03  0.13958177970E+03  0.12700000000E+01 0.  1.
          4   -1    0    0  501    0  0.00000000000E+00 -0.00000000000E+00 -0.27965980166E+02  0.27994802136E+02  0.12700000000E+01 0.  1.
         25    2    1    2    0    0  0.00000000000E+00  0.00000000000E+00  0.11161002180E+03  0.16757658184E+03  0.12500045526E+03 0.  0.
    9000005    1    3    3    0    0 -0.21632675518E+01 -0.60611161083E+02  0.35611796027E+02  0.70339125603E+02  0.10000000000E+01 0.  0.
    9000005    1    3    3    0    0  0.21632675518E+01  0.60611161083E+02  0.75998225774E+02  0.97237456235E+02  0.10000000000E+01 0.  0.
<mgrwt>
<rscale>  0 0.12500046E+03</rscale>
<asrwt>0</asrwt>
<pdfrwt beam="2">  1        4 0.43051201E-02 0.12500046E+03</pdfrwt>
<pdfrwt beam="1">  1       -4 0.21475892E-01 0.12500046E+03</pdfrwt>
<totfact> 0.95900661E+03</totfact>
</mgrwt>
</event>
<event>
 5    1  0.3272646E-002  0.1249898E+03  0.7818608E-02  0.1235085E+00
          4   -1    0    0  501    0  0.00000000000E+00  0.00000000000E+00  0.29197485752E+02  0.29225093229E+02  0.12700000000E+01 0.  1.
         -4   -1    0    0    0  501 -0.00000000000E+00 -0.00000000000E+00 -0.13367142988E+03  0.13367746282E+03  0.12700000000E+01 0.  1.
         25    2    1    2    0    0  0.00000000000E+00  0.00000000000E+00 -0.10447394413E+03  0.16290255605E+03  0.12498975064E+03 0.  0.
    9000005    1    3    3    0    0 -0.26912018087E+02 -0.22696157174E+02  0.15048519272E+02  0.38299219316E+02  0.10000000000E+01 0.  0.
    9000005    1    3    3    0    0  0.26912018087E+02  0.22696157174E+02 -0.11952246340E+03  0.12460333673E+03  0.10000000000E+01 0.  0.
<mgrwt>
<rscale>  0 0.12498975E+03</rscale>
<asrwt>0</asrwt>
<pdfrwt beam="1">  1        4 0.44945087E-02 0.12498975E+03</pdfrwt>
<pdfrwt beam="2">  1       -4 0.20567423E-01 0.12498975E+03</pdfrwt>
<totfact> 0.96808390E+03</totfact>
</mgrwt>
</event>
<event>
 5    1  0.3272646E-002  0.1250289E+03  0.7818608E-02  0.1235024E+00
          4   -1    0    0  501    0  0.00000000000E+00  0.00000000000E+00  0.18294967877E+03  0.18295408676E+03  0.12700000000E+01 0. -1.
         -4   -1    0    0    0  501 -0.00000000000E+00 -0.00000000000E+00 -0.21337841741E+02  0.21375602685E+02  0.12700000000E+01 0. -1.
         25    2    1    2    0    0  0.00000000000E+00  0.00000000000E+00  0.16161183703E+03  0.20432968944E+03  0.12502894113E+03 0.  0.
    9000005    1    3    3    0    0 -0.99292354315E+01  0.44788309005E+02  0.15018934608E+03  0.15704273945E+03  0.10000000000E+01 0.  0.
    9000005    1    3    3    0    0  0.99292354315E+01 -0.44788309005E+02  0.11422490950E+02  0.47286949990E+02  0.10000000000E+01 0.  0.
<mgrwt>
<rscale>  0 0.12502894E+03</rscale>
<asrwt>0</asrwt>
<pdfrwt beam="1">  1        4 0.28149349E-01 0.12502894E+03</pdfrwt>
<pdfrwt beam="2">  1       -4 0.32859885E-02 0.12502894E+03</pdfrwt>
<totfact> 0.89352514E+03</totfact>
</mgrwt>
</event>
<event>
 5    1  0.3272646E-002  0.1250003E+03  0.7818608E-02  0.1235069E+00
          4   -1    0    0  501    0  0.00000000000E+00  0.00000000000E+00  0.41879316317E+02  0.41898568414E+02  0.12700000000E+01 0. -1.
         -4   -1    0    0    0  501 -0.00000000000E+00 -0.00000000000E+00 -0.93229426804E+02  0.93238076569E+02  0.12700000000E+01 0. -1.
         25    2    1    2    0    0  0.00000000000E+00  0.00000000000E+00 -0.51350110488E+02  0.13513664498E+03  0.12500031588E+03 0.  0.
    9000005    1    3    3    0    0  0.16591794253E+02  0.23587434527E+02  0.34260807106E+02  0.44793499614E+02  0.10000000000E+01 0.  0.
    9000005    1    3    3    0    0 -0.16591794253E+02 -0.23587434527E+02 -0.85610917593E+02  0.90343145370E+02  0.10000000000E+01 0.  0.
<mgrwt>
<rscale>  0 0.12500032E+03</rscale>
<asrwt>0</asrwt>
<pdfrwt beam="1">  1        4 0.64451181E-02 0.12500032E+03</pdfrwt>
<pdfrwt beam="2">  1       -4 0.14345135E-01 0.12500032E+03</pdfrwt>
<totfact> 0.10235119E+04</totfact>
</mgrwt>
</event>
<event>
 5    1  0.3272646E-002  0.1250017E+03  0.7818608E-02  0.1235067E+00
         -4   -1    0    0    0  501 -0.00000000000E+00  0.00000000000E+00  0.47724639837E+01  0.49385536825E+01  0.12700000000E+01 0. -1.
          4   -1    0    0  501    0  0.00000000000E+00 -0.00000000000E+00 -0.80435325305E+03  0.80435425565E+03  0.12700000000E+01 0. -1.
         25    2    1    2    0    0  0.00000000000E+00  0.00000000000E+00 -0.79958078906E+03  0.80929280933E+03  0.12500165200E+03 0.  0.
    9000005    1    3    3    0    0 -0.50716053602E+02 -0.20116486179E+02 -0.20250478154E+03  0.20972834252E+03  0.10000000000E+01 0.  0.
    9000005    1    3    3    0    0  0.50716053602E+02  0.20116486179E+02 -0.59707600753E+03  0.59956446682E+03  0.10000000000E+01 0.  0.
<mgrwt>
<rscale>  0 0.12500165E+03</rscale>
<asrwt>0</asrwt>
<pdfrwt beam="2">  1        4 0.12375940E+00 0.12500165E+03</pdfrwt>
<pdfrwt beam="1">  1       -4 0.74707912E-03 0.12500165E+03</pdfrwt>
<totfact> 0.37851886E+03</totfact>
</mgrwt>
</event>
<event>
 5    1  0.3272646E-002  0.1249894E+03  0.7818608E-02  0.1235086E+00
         -4   -1    0    0    0  501 -0.00000000000E+00  0.00000000000E+00  0.24747655019E+02  0.24780220519E+02  0.12700000000E+01 0. -1.
          4   -1    0    0  501    0  0.00000000000E+00 -0.00000000000E+00 -0.15767753397E+03  0.15768264844E+03  0.12700000000E+01 0. -1.
         25    2    1    2    0    0  0.00000000000E+00  0.00000000000E+00 -0.13292987895E+03  0.18246286896E+03  0.12498938287E+03 0.  0.
    9000005    1    3    3    0    0 -0.55867719678E+02 -0.15719868760E+02 -0.32658988311E+02  0.66602746890E+02  0.10000000000E+01 0.  0.
    9000005    1    3    3    0    0  0.55867719678E+02  0.15719868760E+02 -0.10027089064E+03  0.11586012207E+03  0.10000000000E+01 0.  0.
<mgrwt>
<rscale>  0 0.12498938E+03</rscale>
<asrwt>0</asrwt>
<pdfrwt beam="2">  1        4 0.24260980E-01 0.12498938E+03</pdfrwt>
<pdfrwt beam="1">  1       -4 0.38102301E-02 0.12498938E+03</pdfrwt>
<totfact> 0.93197727E+03</totfact>
</mgrwt>
</event>
<event>
 5    1  0.3272646E-002  0.1249999E+03  0.7818608E-02  0.1235070E+00
         -4   -1    0    0    0  501 -0.00000000000E+00  0.00000000000E+00  0.76006603199E+01  0.77060325264E+01  0.12700000000E+01 0.  1.
          4   -1    0    0  501    0  0.00000000000E+00 -0.00000000000E+00 -0.51029030502E+03  0.51029188539E+03  0.12700000000E+01 0.  1.
         25    2    1    2    0    0  0.00000000000E+00  0.00000000000E+00 -0.50268964470E+03  0.51799791791E+03  0.12499985632E+03 0.  0.
    9000005    1    3    3    0    0 -0.61149608796E+02 -0.10826955436E+02 -0.28027668599E+03  0.28707580590E+03  0.10000000000E+01 0.  0.
    9000005    1    3    3    0    0  0.61149608796E+02  0.10826955436E+02 -0.22241295870E+03  0.23092211202E+03  0.10000000000E+01 0.  0.
<mgrwt>
<rscale>  0 0.12499986E+03</rscale>
<asrwt>0</asrwt>
<pdfrwt beam="2">  1        4 0.78514402E-01 0.12499986E+03</pdfrwt>
<pdfrwt beam="1">  1       -4 0.11775599E-02 0.12499986E+03</pdfrwt>
<totfact> 0.54494682E+03</totfact>
</mgrwt>
</event>
<event>
 5    1  0.3272646E-002  0.1250010E+03  0.7818608E-02  0.1235068E+00
          4   -1    0    0  501    0  0.00000000000E+00  0.00000000000E+00  0.55151095812E+01  0.56594464122E+01  0.12700000000E+01 0.  1.
         -4   -1    0    0    0  501 -0.00000000000E+00 -0.00000000000E+00 -0.69899963952E+03  0.69900079324E+03  0.12700000000E+01 0.  1.
         25    2    1    2    0    0  0.00000000000E+00  0.00000000000E+00 -0.69348452994E+03  0.70466023965E+03  0.12500104032E+03 0.  0.
    9000005    1    3    3    0    0 -0.17682490972E+02 -0.13818835871E+02 -0.67552813360E+03  0.67590153869E+03  0.10000000000E+01 0.  0.
    9000005    1    3    3    0    0  0.17682490972E+02  0.13818835871E+02 -0.17956396340E+02  0.28758700967E+02  0.10000000000E+01 0.  0.
<mgrwt>
<rscale>  0 0.12500104E+03</rscale>
<asrwt>0</asrwt>
<pdfrwt beam="1">  1        4 0.85967053E-03 0.12500104E+03</pdfrwt>
<pdfrwt beam="2">  1       -4 0.10754953E+00 0.12500104E+03</pdfrwt>
<totfact> 0.42840873E+03</totfact>
</mgrwt>
</event>
<event>
 5    1  0.3272646E-002  0.1249992E+03  0.7818608E-02  0.1235070E+00
         -4   -1    0    0    0  501 -0.00000000000E+00  0.00000000000E+00  0.35524007996E+02  0.35546702296E+02  0.12700000000E+01 0. -1.
          4   -1    0    0  501    0  0.00000000000E+00 -0.00000000000E+00 -0.10989802052E+03  0.10990535844E+03  0.12700000000E+01 0. -1.
         25    2    1    2    0    0  0.00000000000E+00  0.00000000000E+00 -0.74374012520E+02  0.14545206073E+03  0.12499923293E+03 0.  0.
    9000005    1    3    3    0    0 -0.27308857997E+02 -0.47308557151E+02 -0.72506936999E+02  0.90786173054E+02  0.10000000000E+01 0.  0.
    9000005    1    3    3    0    0  0.27308857997E+02  0.47308557151E+02 -0.18670755203E+01  0.54665887679E+02  0.10000000000E+01 0.  0.
<mgrwt>
<rscale>  0 0.12499923E+03</rscale>
<asrwt>0</asrwt>
<pdfrwt beam="2">  1        4 0.16909698E-01 0.12499923E+03</pdfrwt>
<pdfrwt beam="1">  1       -4 0.54675422E-02 0.12499923E+03</pdfrwt>
<totfact> 0.10021985E+04</totfact>
</mgrwt>
</event>
<event>
 5    1  0.3272646E-002  0.1250221E+03  0.7818608E-02  0.1235035E+00
          4   -1    0    0  501    0  0.00000000000E+00  0.00000000000E+00  0.53680572135E+03  0.53680722366E+03  0.12700000000E+01 0. -1.
         -4   -1    0    0    0  501 -0.00000000000E+00 -0.00000000000E+00 -0.72224937457E+01  0.73333018421E+01  0.12700000000E+01 0. -1.
         25    2    1    2    0    0  0.00000000000E+00  0.00000000000E+00  0.52958322760E+03  0.54414052550E+03  0.12502206419E+03 0.  0.
    9000005    1    3    3    0    0  0.38409604567E+02  0.40901079172E+01  0.50922916997E+02  0.63923158411E+02  0.10000000000E+01 0.  0.
    9000005    1    3    3    0    0 -0.38409604567E+02 -0.40901079172E+01  0.47866031060E+03  0.48021736709E+03  0.10000000000E+01 0.  0.
<mgrwt>
<rscale>  0 0.12502206E+03</rscale>
<asrwt>0</asrwt>
<pdfrwt beam="1">  1        4 0.82594155E-01 0.12502206E+03</pdfrwt>
<pdfrwt beam="2">  1       -4 0.11197919E-02 0.12502206E+03</pdfrwt>
<totfact> 0.52569712E+03</totfact>
</mgrwt>
</event>
<event>
 5    1  0.3272646E-002  0.1249960E+03  0.7818608E-02  0.1235075E+00
          4   -1    0    0  501    0  0.00000000000E+00  0.00000000000E+00  0.23211120888E+04  0.23211124363E+04  0.12700000000E+01 0.  1.
         -4   -1    0    0    0  501 -0.00000000000E+00 -0.00000000000E+00 -0.14428042287E+01  0.19221300794E+01  0.12700000000E+01 0.  1.
         25    2    1    2    0    0  0.00000000000E+00  0.00000000000E+00  0.23196692846E+04  0.23230345664E+04  0.12499602609E+03 0.  0.
    9000005    1    3    3    0    0  0.14962706549E+02 -0.39703723296E+02  0.20124595449E+04  0.20129070242E+04  0.10000000000E+01 0.  0.
    9000005    1    3    3    0    0 -0.14962706549E+02  0.39703723296E+02  0.30720973976E+03  0.31012754221E+03  0.10000000000E+01 0.  0.
<mgrwt>
<rscale>  0 0.12499603E+03</rscale>
<asrwt>0</asrwt>
<pdfrwt beam="1">  1        4 0.35713018E+00 0.12499603E+03</pdfrwt>
<pdfrwt beam="2">  1       -4 0.25886847E-03 0.12499603E+03</pdfrwt>
<totfact> 0.62130514E+02</totfact>
</mgrwt>
</event>
<event>
 5    1  0.3272646E-002  0.1250014E+03  0.7818608E-02  0.1235067E+00
          4   -1    0    0  501    0  0.00000000000E+00  0.00000000000E+00  0.50120910324E+02  0.50136997833E+02  0.12700000000E+01 0. -1.
         -4   -1    0    0    0  501 -0.00000000000E+00 -0.00000000000E+00 -0.77904524853E+02  0.77914875939E+02  0.12700000000E+01 0. -1.
         25    2    1    2    0    0  0.00000000000E+00  0.00000000000E+00 -0.27783614529E+02  0.12805187377E+03  0.12500141255E+03 0.  0.
    9000005    1    3    3    0    0 -0.49089310592E+02 -0.38380248210E+02 -0.90289201264E+01  0.62970828689E+02  0.10000000000E+01 0.  0.
    9000005    1    3    3    0    0  0.49089310592E+02  0.38380248210E+02 -0.18754694403E+02  0.65081045084E+02  0.10000000000E+01 0.  0.
<mgrwt>
<rscale>  0 0.12500141E+03</rscale>
<asrwt>0</asrwt>
<pdfrwt beam="1">  1        4 0.77129430E-02 0.12500141E+03</pdfrwt>
<pdfrwt beam="2">  1       -4 0.11987345E-01 0.12500141E+03</pdfrwt>
<totfact> 0.10386036E+04</totfact>
</mgrwt>
</event>
<event>
 5    1  0.3272646E-002  0.1250018E+03  0.7818608E-02  0.1235066E+00
         -4   -1    0    0    0  501 -0.00000000000E+00  0.00000000000E+00  0.18120406778E+03  0.18120851823E+03  0.12700000000E+01 0. -1.
          4   -1    0    0  501    0  0.00000000000E+00 -0.00000000000E+00 -0.21534395626E+02  0.21571812510E+02  0.12700000000E+01 0. -1.
         25    2    1    2    0    0  0.00000000000E+00  0.00000000000E+00  0.15966967215E+03  0.20278033074E+03  0.12500183331E+03 0.  0.
    9000005    1    3    3    0    0 -0.22941534050E+02  0.38745321576E+02  0.15013235048E+03  0.15674258065E+03  0.10000000000E+01 0.  0.
    9000005    1    3    3    0    0  0.22941534050E+02 -0.38745321576E+02  0.95373216731E+01  0.46037750090E+02  0.10000000000E+01 0.  0.
<mgrwt>
<rscale>  0 0.12500183E+03</rscale>
<asrwt>0</asrwt>
<pdfrwt beam="2">  1        4 0.33162044E-02 0.12500183E+03</pdfrwt>
<pdfrwt beam="1">  1       -4 0.27880770E-01 0.12500183E+03</pdfrwt>
<totfact> 0.89665012E+03</totfact>
</mgrwt>
</event>
<event>
 5    1  0.3272646E-002  0.1250003E+03  0.7818608E-02  0.1235069E+00
          4   -1    0    0  501    0  0.00000000000E+00  0.00000000000E+00  0.12804581741E+02  0.12867408969E+02  0.12700000000E+01 0. -1.
         -4   -1    0    0    0  501 -0.00000000000E+00 -0.00000000000E+00 -0.30425734918E+03  0.30425999972E+03  0.12700000000E+01 0. -1.
         25    2    1    2    0    0  0.00000000000E+00  0.00000000000E+00 -0.29145276744E+03  0.31712740869E+03  0.12500031078E+03 0.  0.
    9000005    1    3    3    0    0 -0.48897959955E+01 -0.13766584129E+02 -0.29987660405E+03  0.30023391980E+03  0.10000000000E+01 0.  0.
    9000005    1    3    3    0    0  0.48897959955E+01  0.13766584129E+02  0.84238366128E+01  0.16893488886E+02  0.10000000000E+01 0.  0.
<mgrwt>
<rscale>  0 0.12500031E+03</rscale>
<asrwt>0</asrwt>
<pdfrwt beam="1">  1        4 0.19749726E-02 0.12500031E+03</pdfrwt>
<pdfrwt beam="2">  1       -4 0.46813854E-01 0.12500031E+03</pdfrwt>
<totfact> 0.73498585E+03</totfact>
</mgrwt>
</event>
<event>
 5    1  0.3272646E-002  0.1250487E+03  0.7818608E-02  0.1234993E+00
         -4   -1    0    0    0  501 -0.00000000000E+00  0.00000000000E+00  0.67344395131E+02  0.67356369079E+02  0.12700000000E+01 0.  1.
          4   -1    0    0  501    0  0.00000000000E+00 -0.00000000000E+00 -0.58025172803E+02  0.58039069417E+02  0.12700000000E+01 0.  1.
         25    2    1    2    0    0  0.00000000000E+00  0.00000000000E+00  0.93192223279E+01  0.12539543850E+03  0.12504866289E+03 0.  0.
    9000005    1    3    3    0    0 -0.15148342506E+02 -0.24689896643E+02  0.60213864470E+02  0.66826437518E+02  0.10000000000E+01 0.  0.
    9000005    1    3    3    0    0  0.15148342506E+02  0.24689896643E+02 -0.50894642142E+02  0.58569000979E+02  0.10000000000E+01 0.  0.
<mgrwt>
<rscale>  0 0.12504866E+03</rscale>
<asrwt>0</asrwt>
<pdfrwt beam="2">  1        4 0.89289397E-02 0.12504866E+03</pdfrwt>
<pdfrwt beam="1">  1       -4 0.10362666E-01 0.12504866E+03</pdfrwt>
<totfact> 0.10432802E+04</totfact>
</mgrwt>
</event>
<event>
 5    1  0.3272646E-002  0.1249929E+03  0.7818608E-02  0.1235080E+00
         -4   -1    0    0    0  501 -0.00000000000E+00  0.00000000000E+00  0.36995166457E+03  0.36995384445E+03  0.12700000000E+01 0.  1.
          4   -1    0    0  501    0  0.00000000000E+00 -0.00000000000E+00 -0.10517204225E+02  0.10593605841E+02  0.12700000000E+01 0.  1.
         25    2    1    2    0    0  0.00000000000E+00  0.00000000000E+00  0.35943446035E+03  0.38054745029E+03  0.12499292234E+03 0.  0.
    9000005    1    3    3    0    0 -0.13450276686E+02 -0.39898272093E+02  0.39138504559E+02  0.57494387535E+02  0.10000000000E+01 0.  0.
    9000005    1    3    3    0    0  0.13450276686E+02  0.39898272093E+02  0.32029595579E+03  0.32305306275E+03  0.10000000000E+01 0.  0.
<mgrwt>
<rscale>  0 0.12499292E+03</rscale>
<asrwt>0</asrwt>
<pdfrwt beam="2">  1        4 0.16240762E-02 0.12499292E+03</pdfrwt>
<pdfrwt beam="1">  1       -4 0.56921682E-01 0.12499292E+03</pdfrwt>
<totfact> 0.66500124E+03</totfact>
</mgrwt>
</event>
<event>
 5    1  0.3272646E-002  0.1249939E+03  0.7818608E-02  0.1235079E+00
         -4   -1    0    0    0  501 -0.00000000000E+00  0.00000000000E+00  0.17842119354E+02  0.17887261474E+02  0.12700000000E+01 0. -1.
          4   -1    0    0  501    0  0.00000000000E+00 -0.00000000000E+00 -0.21858919631E+03  0.21859288562E+03  0.12700000000E+01 0. -1.
         25    2    1    2    0    0  0.00000000000E+00  0.00000000000E+00 -0.20074707695E+03  0.23648014709E+03  0.12499388410E+03 0.  0.
    9000005    1    3    3    0    0 -0.23202125766E+02 -0.48773169455E+02 -0.40914209499E+02  0.67765280474E+02  0.10000000000E+01 0.  0.
    9000005    1    3    3    0    0  0.23202125766E+02  0.48773169455E+02 -0.15983286745E+03  0.16871486662E+03  0.10000000000E+01 0.  0.
<mgrwt>
<rscale>  0 0.12499388E+03</rscale>
<asrwt>0</asrwt>
<pdfrwt beam="2">  1        4 0.33632861E-01 0.12499388E+03</pdfrwt>
<pdfrwt beam="1">  1       -4 0.27486979E-02 0.12499388E+03</pdfrwt>
<totfact> 0.84335898E+03</totfact>
</mgrwt>
</event>
<event>
 5    1  0.3272646E-002  0.1250141E+03  0.7818608E-02  0.1235047E+00
         -4   -1    0    0    0  501 -0.00000000000E+00  0.00000000000E+00  0.39225847953E+02  0.39246401716E+02  0.12700000000E+01 0.  1.
          4   -1    0    0  501    0  0.00000000000E+00 -0.00000000000E+00 -0.99555392355E+02  0.99563492541E+02  0.12700000000E+01 0.  1.
         25    2    1    2    0    0  0.00000000000E+00  0.00000000000E+00 -0.60329544402E+02  0.13880989426E+03  0.12501413046E+03 0.  0.
    9000005    1    3    3    0    0  0.25245378562E+02  0.31786705890E+02  0.22602258303E+02  0.46471344832E+02  0.10000000000E+01 0.  0.
    9000005    1    3    3    0    0 -0.25245378562E+02 -0.31786705890E+02 -0.82931802705E+02  0.92338549425E+02  0.10000000000E+01 0.  0.
<mgrwt>
<rscale>  0 0.12501413E+03</rscale>
<asrwt>0</asrwt>
<pdfrwt beam="2">  1        4 0.15318418E-01 0.12501413E+03</pdfrwt>
<pdfrwt beam="1">  1       -4 0.60369500E-02 0.12501413E+03</pdfrwt>
<totfact> 0.10155077E+04</totfact>
</mgrwt>
</event>
<event>
 5    1  0.3272646E-002  0.1249863E+03  0.7818608E-02  0.1235091E+00
          4   -1    0    0  501    0  0.00000000000E+00  0.00000000000E+00  0.16624702680E+02  0.16673141252E+02  0.12700000000E+01 0. -1.
         -4   -1    0    0    0  501 -0.00000000000E+00 -0.00000000000E+00 -0.23452320386E+03  0.23452664251E+03  0.12700000000E+01 0. -1.
         25    2    1    2    0    0  0.00000000000E+00  0.00000000000E+00 -0.21789850118E+03  0.25119978377E+03  0.12498629744E+03 0.  0.
    9000005    1    3    3    0    0 -0.12135532616E+02 -0.58242701397E+02 -0.70556443106E+02  0.92296777201E+02  0.10000000000E+01 0.  0.
    9000005    1    3    3    0    0  0.12135532616E+02  0.58242701397E+02 -0.14734205807E+03  0.15890300656E+03  0.10000000000E+01 0.  0.
<mgrwt>
<rscale>  0 0.12498630E+03</rscale>
<asrwt>0</asrwt>
<pdfrwt beam="1">  1        4 0.25616373E-02 0.12498630E+03</pdfrwt>
<pdfrwt beam="2">  1       -4 0.36084481E-01 0.12498630E+03</pdfrwt>
<totfact> 0.82182212E+03</totfact>
</mgrwt>
</event>
<event>
 5    1  0.3272646E-002  0.1249996E+03  0.7818608E-02  0.1235070E+00
         -4   -1    0    0    0  501 -0.00000000000E+00  0.00000000000E+00  0.58714365772E+02  0.58728099305E+02  0.12700000000E+01 0. -1.
          4   -1    0    0  501    0  0.00000000000E+00 -0.00000000000E+00 -0.66501755200E+02  0.66513880842E+02  0.12700000000E+01 0. -1.
         25    2    1    2    0    0  0.00000000000E+00  0.00000000000E+00 -0.77873894281E+01  0.12524198015E+03  0.12499964063E+03 0.  0.
    9000005    1    3    3    0    0  0.47064905647E+02 -0.32155168027E+02  0.21771731116E+02  0.61025146048E+02  0.10000000000E+01 0.  0.
    9000005    1    3    3    0    0 -0.47064905647E+02  0.32155168027E+02 -0.29559120544E+02  0.64216834099E+02  0.10000000000E+01 0.  0.
<mgrwt>
<rscale>  0 0.12499964E+03</rscale>
<asrwt>0</asrwt>
<pdfrwt beam="2">  1        4 0.10233028E-01 0.12499964E+03</pdfrwt>
<pdfrwt beam="1">  1       -4 0.90349686E-02 0.12499964E+03</pdfrwt>
<totfact> 0.10447694E+04</totfact>
</mgrwt>
</event>
<event>
 5    1  0.3272646E-002  0.1250012E+03  0.7818608E-02  0.1235067E+00
          4   -1    0    0  501    0  0.00000000000E+00  0.00000000000E+00  0.15143735342E+02  0.15196895081E+02  0.12700000000E+01 0. -1.
         -4   -1    0    0    0  501 -0.00000000000E+00 -0.00000000000E+00 -0.25744312873E+03  0.25744626125E+03  0.12700000000E+01 0. -1.
         25    2    1    2    0    0  0.00000000000E+00  0.00000000000E+00 -0.24229939339E+03  0.27264315633E+03  0.12500117862E+03 0.  0.
    9000005    1    3    3    0    0  0.11913678969E+02 -0.29017426957E+02 -0.23903896838E+03  0.24109038807E+03  0.10000000000E+01 0.  0.
    9000005    1    3    3    0    0 -0.11913678969E+02  0.29017426957E+02 -0.32604250089E+01  0.31552768262E+02  0.10000000000E+01 0.  0.
<mgrwt>
<rscale>  0 0.12500118E+03</rscale>
<asrwt>0</asrwt>
<pdfrwt beam="1">  1        4 0.23341358E-02 0.12500118E+03</pdfrwt>
<pdfrwt beam="2">  1       -4 0.39610962E-01 0.12500118E+03</pdfrwt>
<totfact> 0.79161718E+03</totfact>
</mgrwt>
</event>
<event>
 5    1  0.3272646E-002  0.1249979E+03  0.7818608E-02  0.1235073E+00
         -4   -1    0    0    0  501 -0.00000000000E+00  0.00000000000E+00  0.61622710783E+01  0.62917791477E+01  0.12700000000E+01 0.  1.
          4   -1    0    0  501    0  0.00000000000E+00 -0.00000000000E+00 -0.62715490740E+03  0.62715619328E+03  0.12700000000E+01 0.  1.
         25    2    1    2    0    0  0.00000000000E+00  0.00000000000E+00 -0.62099263632E+03  0.63344797243E+03  0.12499791764E+03 0.  0.
    9000005    1    3    3    0    0 -0.34126982282E+02 -0.29138223818E+02 -0.53089228134E+03  0.53278635624E+03  0.10000000000E+01 0.  0.
    9000005    1    3    3    0    0  0.34126982282E+02  0.29138223818E+02 -0.90100354975E+02  0.10066161619E+03  0.10000000000E+01 0.  0.
<mgrwt>
<rscale>  0 0.12499792E+03</rscale>
<asrwt>0</asrwt>
<pdfrwt beam="2">  1        4 0.96495382E-01 0.12499792E+03</pdfrwt>
<pdfrwt beam="1">  1       -4 0.95810327E-03 0.12499792E+03</pdfrwt>
<totfact> 0.46824283E+03</totfact>
</mgrwt>
</event>
<event>
 5    1  0.3272646E-002  0.1250048E+03  0.7818608E-02  0.1235062E+00
          4   -1    0    0  501    0  0.00000000000E+00  0.00000000000E+00  0.35995416358E+03  0.35995640400E+03  0.12700000000E+01 0.  1.
         -4   -1    0    0    0  501 -0.00000000000E+00 -0.00000000000E+00 -0.10813471920E+02  0.10887794771E+02  0.12700000000E+01 0.  1.
         25    2    1    2    0    0  0.00000000000E+00  0.00000000000E+00  0.34914069166E+03  0.37084419877E+03  0.12500478866E+03 0.  0.
    9000005    1    3    3    0    0 -0.83621646642E+01 -0.57474037136E+02  0.24301932222E+03  0.24986512704E+03  0.10000000000E+01 0.  0.
    9000005    1    3    3    0    0  0.83621646642E+01  0.57474037136E+02  0.10612136945E+03  0.12097907173E+03  0.10000000000E+01 0.  0.
<mgrwt>
<rscale>  0 0.12500479E+03</rscale>
<asrwt>0</asrwt>
<pdfrwt beam="1">  1        4 0.55383445E-01 0.12500479E+03</pdfrwt>
<pdfrwt beam="2">  1       -4 0.16695008E-02 0.12500479E+03</pdfrwt>
<totfact> 0.67483570E+03</totfact>
</mgrwt>
</event>
<event>
 5    1  0.3272646E-002  0.1250010E+03  0.7818608E-02  0.1235068E+00
          4   -1    0    0  501    0  0.00000000000E+00  0.00000000000E+00  0.34468213840E+02  0.34491602824E+02  0.12700000000E+01 0.  1.
         -4   -1    0    0    0  501 -0.00000000000E+00 -0.00000000000E+00 -0.11326549288E+03  0.11327261265E+03  0.12700000000E+01 0.  1.
         25    2    1    2    0    0  0.00000000000E+00  0.00000000000E+00 -0.78797279038E+02  0.14776421548E+03  0.12500100876E+03 0.  0.
    9000005    1    3    3    0    0 -0.53027277668E+01  0.38060864503E+02 -0.97653289253E+02  0.10494719258E+03  0.10000000000E+01 0.  0.
    9000005    1    3    3    0    0  0.53027277668E+01 -0.38060864503E+02  0.18856010214E+02  0.42817022896E+02  0.10000000000E+01 0.  0.
<mgrwt>
<rscale>  0 0.12500101E+03</rscale>
<asrwt>0</asrwt>
<pdfrwt beam="1">  1        4 0.53051490E-02 0.12500101E+03</pdfrwt>
<pdfrwt beam="2">  1       -4 0.17427807E-01 0.12500101E+03</pdfrwt>
<totfact> 0.99748984E+03</totfact>
</mgrwt>
</event>
<event>
 5    1  0.3272646E-002  0.1249955E+03  0.7818608E-02  0.1235076E+00
         -4   -1    0    0    0  501 -0.00000000000E+00  0.00000000000E+00  0.24196287008E+02  0.24229593579E+02  0.12700000000E+01 0. -1.
          4   -1    0    0  501    0  0.00000000000E+00 -0.00000000000E+00 -0.16128148499E+03  0.16128648517E+03  0.12700000000E+01 0. -1.
         25    2    1    2    0    0  0.00000000000E+00  0.00000000000E+00 -0.13708519798E+03  0.18551607875E+03  0.12499545580E+03 0.  0.
    9000005    1    3    3    0    0 -0.23033858162E+02  0.57963301910E+02 -0.62859322492E+02  0.88558440672E+02  0.10000000000E+01 0.  0.
    9000005    1    3    3    0    0  0.23033858162E+02 -0.57963301910E+02 -0.74225875485E+02  0.96957638078E+02  0.10000000000E+01 0.  0.
<mgrwt>
<rscale>  0 0.12499546E+03</rscale>
<asrwt>0</asrwt>
<pdfrwt beam="2">  1        4 0.24815482E-01 0.12499546E+03</pdfrwt>
<pdfrwt beam="1">  1       -4 0.37254525E-02 0.12499546E+03</pdfrwt>
<totfact> 0.92642843E+03</totfact>
</mgrwt>
</event>
<event>
 5    1  0.3272646E-002  0.1249853E+03  0.7818608E-02  0.1235092E+00
          4   -1    0    0  501    0  0.00000000000E+00  0.00000000000E+00  0.12333985037E+04  0.12333991575E+04  0.12700000000E+01 0. -1.
         -4   -1    0    0    0  501 -0.00000000000E+00 -0.00000000000E+00 -0.30382900334E+01  0.32930390716E+01  0.12700000000E+01 0. -1.
         25    2    1    2    0    0  0.00000000000E+00  0.00000000000E+00  0.12303602136E+04  0.12366921966E+04  0.12498533432E+03 0.  0.
    9000005    1    3    3    0    0  0.40489441539E+02  0.30658341205E+02  0.97535320486E+03  0.97667507545E+03  0.10000000000E+01 0.  0.
    9000005    1    3    3    0    0 -0.40489441539E+02 -0.30658341205E+02  0.25500700877E+03  0.26001712113E+03  0.10000000000E+01 0.  0.
<mgrwt>
<rscale>  0 0.12498533E+03</rscale>
<asrwt>0</asrwt>
<pdfrwt beam="1">  1        4 0.18977331E+00 0.12498533E+03</pdfrwt>
<pdfrwt beam="2">  1       -4 0.48707549E-03 0.12498533E+03</pdfrwt>
<totfact> 0.23779629E+03</totfact>
</mgrwt>
</event>
<event>
 5    1  0.3272646E-002  0.1250001E+03  0.7818608E-02  0.1235069E+00
         -4   -1    0    0    0  501 -0.00000000000E+00  0.00000000000E+00  0.15063159813E+02  0.15116602911E+02  0.12700000000E+01 0.  1.
          4   -1    0    0  501    0  0.00000000000E+00 -0.00000000000E+00 -0.25881107046E+03  0.25881418642E+03  0.12700000000E+01 0.  1.
         25    2    1    2    0    0  0.00000000000E+00  0.00000000000E+00 -0.24374791065E+03  0.27393078933E+03  0.12500013360E+03 0.  0.
    9000005    1    3    3    0    0  0.12136514106E+02  0.28523085058E+02 -0.29611692420E+01  0.31154933464E+02  0.10000000000E+01 0.  0.
    9000005    1    3    3    0    0 -0.12136514106E+02 -0.28523085058E+02 -0.24078674141E+03  0.24277585587E+03  0.10000000000E+01 0.  0.
<mgrwt>
<rscale>  0 0.12500013E+03</rscale>
<asrwt>0</asrwt>
<pdfrwt beam="2">  1        4 0.39821435E-01 0.12500013E+03</pdfrwt>
<pdfrwt beam="1">  1       -4 0.23217601E-02 0.12500013E+03</pdfrwt>
<totfact> 0.78989549E+03</totfact>
</mgrwt>
</event>
<event>
 4    1  0.3272646E-002  0.1247211E+03  0.7818608E-02  0.1235506E+00
          4   -1    0    0  501    0  0.00000000000E+00  0.00000000000E+00  0.62560029996E+03  0.62560158904E+03  0.12700000000E+01 0. -1.
         -4   -1    0    0    0  501 -0.00000000000E+00 -0.00000000000E+00 -0.61499900470E+01  0.62797513946E+01  0.12700000000E+01 0. -1.
    9000005    1    1    2    0    0 -0.62279648652E+02 -0.22983196981E+01  0.31959945006E+03  0.32562070786E+03  0.10000000000E+01 0.  0.
    9000005    1    1    2    0    0  0.62279648652E+02  0.22983196981E+01  0.29985085986E+03  0.30626063258E+03  0.10000000000E+01 0.  0.
<mgrwt>
<rscale>  0 0.12472106E+03</rscale>
<asrwt>0</asrwt>
<pdfrwt beam="1">  1        4 0.96256290E-01 0.12472106E+03</pdfrwt>
<pdfrwt beam="2">  1       -4 0.95623302E-03 0.12472106E+03</pdfrwt>
<totfact> 0.47202989E+03</totfact>
</mgrwt>
</event>
<event>
 5    1  0.3272646E-002  0.1250001E+03  0.7818608E-02  0.1235069E+00
         -4   -1    0    0    0  501 -0.00000000000E+00  0.00000000000E+00  0.13906175105E+03  0.13906755015E+03  0.12700000000E+01 0. -1.
          4   -1    0    0  501    0  0.00000000000E+00 -0.00000000000E+00 -0.28069324838E+02  0.28098040801E+02  0.12700000000E+01 0. -1.
         25    2    1    2    0    0  0.00000000000E+00  0.00000000000E+00  0.11099242621E+03  0.16716559095E+03  0.12500006449E+03 0.  0.
    9000005    1    3    3    0    0 -0.61111207131E+02 -0.82411774892E+01  0.69052575723E+02  0.92583772107E+02  0.10000000000E+01 0.  0.
    9000005    1    3    3    0    0  0.61111207131E+02  0.82411774892E+01  0.41939850489E+02  0.74581818847E+02  0.10000000000E+01 0.  0.
<mgrwt>
<rscale>  0 0.12500006E+03</rscale>
<asrwt>0</asrwt>
<pdfrwt beam="2">  1        4 0.43210128E-02 0.12500006E+03</pdfrwt>
<pdfrwt beam="1">  1       -4 0.21396770E-01 0.12500006E+03</pdfrwt>
<totfact> 0.95978690E+03</totfact>
</mgrwt>
</event>
<event>
 5    1  0.3272646E-002  0.1250005E+03  0.7818608E-02  0.1235069E+00
         -4   -1    0    0    0  501 -0.00000000000E+00  0.00000000000E+00  0.83690074057E+01  0.84648204326E+01  0.12700000000E+01 0. -1.
          4   -1    0    0  501    0  0.00000000000E+00 -0.00000000000E+00 -0.46400200778E+03  0.46400374581E+03  0.12700000000E+01 0. -1.
         25    2    1    2    0    0  0.00000000000E+00  0.00000000000E+00 -0.45563300038E+03  0.47246856624E+03  0.12500046022E+03 0.  0.
    9000005    1    3    3    0    0  0.33803947079E+02 -0.49476589388E+02 -0.29486168680E+03  0.30089043533E+03  0.10000000000E+01 0.  0.
    9000005    1    3    3    0    0 -0.33803947079E+02  0.49476589388E+02 -0.16077131358E+03  0.17157813091E+03  0.10000000000E+01 0.  0.
<mgrwt>
<rscale>  0 0.12500046E+03</rscale>
<asrwt>0</asrwt>
<pdfrwt beam="2">  1        4 0.71392408E-01 0.12500046E+03</pdfrwt>
<pdfrwt beam="1">  1       -4 0.12950439E-02 0.12500046E+03</pdfrwt>
<totfact> 0.58065006E+03</totfact>
</mgrwt>
</event>
<event>
 5    1  0.3272646E-002  0.1250021E+03  0.7818608E-02  0.1235066E+00
          4   -1    0    0  501    0  0.00000000000E+00  0.00000000000E+00  0.31499171426E+03  0.31499427448E+03  0.12700000000E+01 0.  1.
         -4   -1    0    0    0  501 -0.00000000000E+00 -0.00000000000E+00 -0.12366403370E+02  0.12431445303E+02  0.12700000000E+01 0.  1.
         25    2    1    2    0    0  0.00000000000E+00  0.00000000000E+00  0.30262531089E+03  0.32742571978E+03  0.12500209271E+03 0.  0.
    9000005    1    3    3    0    0 -0.50169241339E+02 -0.22527571884E+02  0.73568488328E+02  0.91857317326E+02  0.10000000000E+01 0.  0.
    9000005    1    3    3    0    0  0.50169241339E+02  0.22527571884E+02  0.22905682257E+03  0.23556840246E+03  0.10000000000E+01 0.  0.
<mgrwt>
<rscale>  0 0.12500209E+03</rscale>
<asrwt>0</asrwt>
<pdfrwt beam="1">  1        4 0.48465469E-01 0.12500209E+03</pdfrwt>
<pdfrwt beam="2">  1       -4 0.19077236E-02 0.12500209E+03</pdfrwt>
<totfact> 0.72278196E+03</totfact>
</mgrwt>
</event>
<event>
 5    1  0.3272646E-002  0.1249994E+03  0.7818608E-02  0.1235070E+00
         -4   -1    0    0    0  501 -0.00000000000E+00  0.00000000000E+00  0.17123921493E+03  0.17124392436E+03  0.12700000000E+01 0. -1.
          4   -1    0    0  501    0  0.00000000000E+00 -0.00000000000E+00 -0.22788728543E+02  0.22824089217E+02  0.12700000000E+01 0. -1.
         25    2    1    2    0    0  0.00000000000E+00  0.00000000000E+00  0.14845048639E+03  0.19406801358E+03  0.12499938794E+03 0.  0.
    9000005    1    3    3    0    0 -0.57208769037E+02 -0.15774938920E+02  0.10462989020E+03  0.12029175315E+03  0.10000000000E+01 0.  0.
    9000005    1    3    3    0    0  0.57208769037E+02  0.15774938920E+02  0.43820596194E+02  0.73776260433E+02  0.10000000000E+01 0.  0.
<mgrwt>
<rscale>  0 0.12499939E+03</rscale>
<asrwt>0</asrwt>
<pdfrwt beam="2">  1        4 0.35090405E-02 0.12499939E+03</pdfrwt>
<pdfrwt beam="1">  1       -4 0.26347577E-01 0.12499939E+03</pdfrwt>
<totfact> 0.91145521E+03</totfact>
</mgrwt>
</event>
<event>
 4    1  0.3272646E-002  0.1248344E+03  0.7818608E-02  0.1235328E+00
         -4   -1    0    0    0  501 -0.00000000000E+00  0.00000000000E+00  0.33696760617E+03  0.33696999942E+03  0.12700000000E+01 0.  1.
          4   -1    0    0  501    0  0.00000000000E+00 -0.00000000000E+00 -0.11524354993E+02  0.11594121701E+02  0.12700000000E+01 0.  1.
    9000005    1    1    2    0    0  0.29302251254E+02  0.34131364419E+02  0.28350976795E+03  0.28705811343E+03  0.10000000000E+01 0.  0.
    9000005    1    1    2    0    0 -0.29302251254E+02 -0.34131364419E+02  0.41933483225E+02  0.61506007682E+02  0.10000000000E+01 0.  0.
<mgrwt>
<rscale>  0 0.12483444E+03</rscale>
<asrwt>0</asrwt>
<pdfrwt beam="2">  1        4 0.17785285E-02 0.12483444E+03</pdfrwt>
<pdfrwt beam="1">  1       -4 0.51846721E-01 0.12483444E+03</pdfrwt>
<totfact> 0.70139495E+03</totfact>
</mgrwt>
</event>
<event>
 5    1  0.3272646E-002  0.1250021E+03  0.7818608E-02  0.1235066E+00
          4   -1    0    0  501    0  0.00000000000E+00  0.00000000000E+00  0.59174936507E+01  0.60522418248E+01  0.12700000000E+01 0. -1.
         -4   -1    0    0    0  501 -0.00000000000E+00 -0.00000000000E+00 -0.65257388585E+03  0.65257512165E+03  0.12700000000E+01 0. -1.
         25    2    1    2    0    0  0.00000000000E+00  0.00000000000E+00 -0.64665639220E+03  0.65862736347E+03  0.12500205735E+03 0.  0.
    9000005    1    3    3    0    0 -0.62304003077E+02 -0.26542583394E+01 -0.34475967013E+03  0.35035562509E+03  0.10000000000E+01 0.  0.
    9000005    1    3    3    0    0  0.62304003077E+02  0.26542583394E+01 -0.30189672207E+03  0.30827173838E+03  0.10000000000E+01 0.  0.
<mgrwt>
<rscale>  0 0.12500206E+03</rscale>
<asrwt>0</asrwt>
<pdfrwt beam="1">  1        4 0.92084446E-03 0.12500206E+03</pdfrwt>
<pdfrwt beam="2">  1       -4 0.10040639E+00 0.12500206E+03</pdfrwt>
<totfact> 0.45360303E+03</totfact>
</mgrwt>
</event>
<event>
 5    1  0.3272646E-002  0.1250036E+03  0.7818608E-02  0.1235064E+00
          4   -1    0    0  501    0  0.00000000000E+00  0.00000000000E+00  0.15310973355E+02  0.15363554442E+02  0.12700000000E+01 0.  1.
         -4   -1    0    0    0  501 -0.00000000000E+00 -0.00000000000E+00 -0.25465082084E+03  0.25465398771E+03  0.12700000000E+01 0.  1.
         25    2    1    2    0    0  0.00000000000E+00  0.00000000000E+00 -0.23933984749E+03  0.27001754215E+03  0.12500364184E+03 0.  0.
    9000005    1    3    3    0    0 -0.25829697555E+02 -0.38758739500E+02 -0.29667907960E+02  0.55232218190E+02  0.10000000000E+01 0.  0.
    9000005    1    3    3    0    0  0.25829697555E+02  0.38758739500E+02 -0.20967193953E+03  0.21478532396E+03  0.10000000000E+01 0.  0.
<mgrwt>
<rscale>  0 0.12500364E+03</rscale>
<asrwt>0</asrwt>
<pdfrwt beam="1">  1        4 0.23598229E-02 0.12500364E+03</pdfrwt>
<pdfrwt beam="2">  1       -4 0.39181335E-01 0.12500364E+03</pdfrwt>
<totfact> 0.79514035E+03</totfact>
</mgrwt>
</event>
<event>
 5    1  0.3272646E-002  0.1250019E+03  0.7818608E-02  0.1235066E+00
          4   -1    0    0  501    0  0.00000000000E+00  0.00000000000E+00  0.11356979433E+03  0.11357689503E+03  0.12700000000E+01 0. -1.
         -4   -1    0    0    0  501 -0.00000000000E+00 -0.00000000000E+00 -0.34376274942E+02  0.34399726436E+02  0.12700000000E+01 0. -1.
         25    2    1    2    0    0  0.00000000000E+00  0.00000000000E+00  0.79193519390E+02  0.14797662147E+03  0.12500186793E+03 0.  0.
    9000005    1    3    3    0    0 -0.59655609905E+02  0.18461493729E+02  0.36758561955E+02  0.72469375745E+02  0.10000000000E+01 0.  0.
    9000005    1    3    3    0    0  0.59655609905E+02 -0.18461493729E+02  0.42434957435E+02  0.75507245721E+02  0.10000000000E+01 0.  0.
<mgrwt>
<rscale>  0 0.12500187E+03</rscale>
<asrwt>0</asrwt>
<pdfrwt beam="1">  1        4 0.17474627E-01 0.12500187E+03</pdfrwt>
<pdfrwt beam="2">  1       -4 0.52910077E-02 0.12500187E+03</pdfrwt>
<totfact> 0.99704374E+03</totfact>
</mgrwt>
</event>
<event>
 5    1  0.3272646E-002  0.1249997E+03  0.7818608E-02  0.1235070E+00
         -4   -1    0    0    0  501 -0.00000000000E+00  0.00000000000E+00  0.96069201432E+02  0.96077595535E+02  0.12700000000E+01 0.  1.
          4   -1    0    0  501    0  0.00000000000E+00 -0.00000000000E+00 -0.40640482993E+02  0.40660321665E+02  0.12700000000E+01 0.  1.
         25    2    1    2    0    0  0.00000000000E+00  0.00000000000E+00  0.55428718439E+02  0.13673791720E+03  0.12499966069E+03 0.  0.
    9000005    1    3    3    0    0 -0.20210655644E+02  0.58489933200E+02  0.37231086692E+02  0.72226703536E+02  0.10000000000E+01 0.  0.
    9000005    1    3    3    0    0  0.20210655644E+02 -0.58489933200E+02  0.18197631746E+02  0.64511213665E+02  0.10000000000E+01 0.  0.
<mgrwt>
<rscale>  0 0.12499966E+03</rscale>
<asrwt>0</asrwt>
<pdfrwt beam="2">  1        4 0.62545538E-02 0.12499966E+03</pdfrwt>
<pdfrwt beam="1">  1       -4 0.14782049E-01 0.12499966E+03</pdfrwt>
<totfact> 0.10201647E+04</totfact>
</mgrwt>
</event>
<event>
 5    1  0.3272646E-002  0.1250054E+03  0.7818608E-02  0.1235061E+00
          4   -1    0    0  501    0  0.00000000000E+00  0.00000000000E+00  0.33648584195E+01  0.35965500390E+01  0.12700000000E+01 0.  1.
         -4   -1    0    0    0  501 -0.00000000000E+00 -0.00000000000E+00 -0.11221241308E+04  0.11221248495E+04  0.12700000000E+01 0.  1.
         25    2    1    2    0    0  0.00000000000E+00  0.00000000000E+00 -0.11187592724E+04  0.11257213996E+04  0.12500543909E+03 0.  0.
    9000005    1    3    3    0    0 -0.51223238348E+02  0.20639571454E+02 -0.82282013736E+03  0.82467192902E+03  0.10000000000E+01 0.  0.
    9000005    1    3    3    0    0  0.51223238348E+02 -0.20639571454E+02 -0.29593913507E+03  0.30104947055E+03  0.10000000000E+01 0.  0.
<mgrwt>
<rscale>  0 0.12500544E+03</rscale>
<asrwt>0</asrwt>
<pdfrwt beam="1">  1        4 0.53554914E-03 0.12500544E+03</pdfrwt>
<pdfrwt beam="2">  1       -4 0.17265207E+00 0.12500544E+03</pdfrwt>
<totfact> 0.26739409E+03</totfact>
</mgrwt>
</event>
<event>
 5    1  0.3272646E-002  0.1250012E+03  0.7818608E-02  0.1235067E+00
         -4   -1    0    0    0  501 -0.00000000000E+00  0.00000000000E+00  0.10111515923E+04  0.10111523899E+04  0.12700000000E+01 0.  1.
          4   -1    0    0  501    0  0.00000000000E+00 -0.00000000000E+00 -0.37580452021E+01  0.39668380028E+01  0.12700000000E+01 0.  1.
         25    2    1    2    0    0  0.00000000000E+00  0.00000000000E+00  0.10073935471E+04  0.10151192279E+04  0.12500115213E+03 0.  0.
    9000005    1    3    3    0    0  0.52665731100E+02 -0.33112418987E+02  0.45550875804E+03  0.45973833881E+03  0.10000000000E+01 0.  0.
    9000005    1    3    3    0    0 -0.52665731100E+02  0.33112418987E+02  0.55188478909E+03  0.55538088908E+03  0.10000000000E+01 0.  0.
<mgrwt>
<rscale>  0 0.12500115E+03</rscale>
<asrwt>0</asrwt>
<pdfrwt beam="2">  1        4 0.59428206E-03 0.12500115E+03</pdfrwt>
<pdfrwt beam="1">  1       -4 0.15557819E+00 0.12500115E+03</pdfrwt>
<totfact> 0.30108512E+03</totfact>
</mgrwt>
</event>
<event>
 5    1  0.3272646E-002  0.1250031E+03  0.7818608E-02  0.1235064E+00
         -4   -1    0    0    0  501 -0.00000000000E+00  0.00000000000E+00  0.21729993668E+02  0.21767074328E+02  0.12700000000E+01 0.  1.
          4   -1    0    0  501    0  0.00000000000E+00 -0.00000000000E+00 -0.17957936527E+03  0.17958385598E+03  0.12700000000E+01 0.  1.
         25    2    1    2    0    0  0.00000000000E+00  0.00000000000E+00 -0.15784937160E+03  0.20135093031E+03  0.12500309205E+03 0.  0.
    9000005    1    3    3    0    0  0.11182707044E+02  0.11676627427E+02  0.18310814083E+02  0.24447545424E+02  0.10000000000E+01 0.  0.
    9000005    1    3    3    0    0 -0.11182707044E+02 -0.11676627427E+02 -0.17616018568E+03  0.17690338489E+03  0.10000000000E+01 0.  0.
<mgrwt>
<rscale>  0 0.12500309E+03</rscale>
<asrwt>0</asrwt>
<pdfrwt beam="2">  1        4 0.27630792E-01 0.12500309E+03</pdfrwt>
<pdfrwt beam="1">  1       -4 0.33462739E-02 0.12500309E+03</pdfrwt>
<totfact> 0.89901941E+03</totfact>
</mgrwt>
</event>
<event>
 5    1  0.3272646E-002  0.1250015E+03  0.7818608E-02  0.1235067E+00
         -4   -1    0    0    0  501 -0.00000000000E+00  0.00000000000E+00  0.24208453332E+04  0.24208456663E+04  0.12700000000E+01 0.  1.
          4   -1    0    0  501    0  0.00000000000E+00 -0.00000000000E+00 -0.13633555930E+01  0.18632333383E+01  0.12700000000E+01 0.  1.
         25    2    1    2    0    0  0.00000000000E+00  0.00000000000E+00  0.24194819776E+04  0.24227088996E+04  0.12500149021E+03 0.  0.
    9000005    1    3    3    0    0  0.35779183593E+00 -0.27235853502E+01 -0.28769155026E+00  0.29374646527E+01  0.10000000000E+01 0.  0.
    9000005    1    3    3    0    0 -0.35779183593E+00  0.27235853502E+01  0.24197696691E+04  0.24197714350E+04  0.10000000000E+01 0.  0.
<mgrwt>
<rscale>  0 0.12500149E+03</rscale>
<asrwt>0</asrwt>
<pdfrwt beam="2">  1        4 0.24822531E-03 0.12500149E+03</pdfrwt>
<pdfrwt beam="1">  1       -4 0.37247542E+00 0.12500149E+03</pdfrwt>
<totfact> 0.53052260E+02</totfact>
</mgrwt>
</event>
<event>
 5    1  0.3272646E-002  0.1250143E+03  0.7818608E-02  0.1235047E+00
         -4   -1    0    0    0  501 -0.00000000000E+00  0.00000000000E+00  0.38342236567E+02  0.38363263742E+02  0.12700000000E+01 0.  1.
          4   -1    0    0  501    0  0.00000000000E+00 -0.00000000000E+00 -0.10184884210E+03  0.10185675989E+03  0.12700000000E+01 0.  1.
         25    2    1    2    0    0  0.00000000000E+00  0.00000000000E+00 -0.63506605528E+02  0.14022002364E+03  0.12501426352E+03 0.  0.
    9000005    1    3    3    0    0  0.50766124082E+01  0.59425220491E+02 -0.52707502654E+02  0.79600311934E+02  0.10000000000E+01 0.  0.
    9000005    1    3    3    0    0 -0.50766124082E+01 -0.59425220491E+02 -0.10799102874E+02  0.60619711702E+02  0.10000000000E+01 0.  0.
<mgrwt>
<rscale>  0 0.12501426E+03</rscale>
<asrwt>0</asrwt>
<pdfrwt beam="2">  1        4 0.15671279E-01 0.12501426E+03</pdfrwt>
<pdfrwt beam="1">  1       -4 0.59010322E-02 0.12501426E+03</pdfrwt>
<totfact> 0.10125774E+04</totfact>
</mgrwt>
</event>
<event>
 5    1  0.3272646E-002  0.1250003E+03  0.7818608E-02  0.1235069E+00
         -4   -1    0    0    0  501 -0.00000000000E+00  0.00000000000E+00  0.15514487151E+02  0.15566380811E+02  0.12700000000E+01 0.  1.
          4   -1    0    0  501    0  0.00000000000E+00 -0.00000000000E+00 -0.25130826713E+03  0.25131147611E+03  0.12700000000E+01 0.  1.
         25    2    1    2    0    0  0.00000000000E+00  0.00000000000E+00 -0.23579377997E+03  0.26687785692E+03  0.12500033537E+03 0.  0.
    9000005    1    3    3    0    0 -0.18664778075E+01  0.60354092218E+02 -0.83525715244E+02  0.10307106914E+03  0.10000000000E+01 0.  0.
    9000005    1    3    3    0    0  0.18664778075E+01 -0.60354092218E+02 -0.15226806473E+03  0.16380678778E+03  0.10000000000E+01 0.  0.
<mgrwt>
<rscale>  0 0.12500034E+03</rscale>
<asrwt>0</asrwt>
<pdfrwt beam="2">  1        4 0.38667046E-01 0.12500034E+03</pdfrwt>
<pdfrwt beam="1">  1       -4 0.23910830E-02 0.12500034E+03</pdfrwt>
<totfact> 0.79949841E+03</totfact>
</mgrwt>
</event>
<event>
 5    1  0.3272646E-002  0.1250356E+03  0.7818608E-02  0.1235014E+00
          4   -1    0    0  501    0  0.00000000000E+00  0.00000000000E+00  0.10880773590E+03  0.10881514734E+03  0.12700000000E+01 0.  1.
         -4   -1    0    0    0  501 -0.00000000000E+00 -0.00000000000E+00 -0.35901065734E+02  0.35923521832E+02  0.12700000000E+01 0.  1.
         25    2    1    2    0    0  0.00000000000E+00  0.00000000000E+00  0.72906670164E+02  0.14473866917E+03  0.12503559413E+03 0.  0.
    9000005    1    3    3    0    0  0.53402560977E+01  0.18227597628E+01 -0.35611318067E+02  0.36069471341E+02  0.10000000000E+01 0.  0.
    9000005    1    3    3    0    0 -0.53402560977E+01 -0.18227597628E+01  0.10851798823E+03  0.10866919783E+03  0.10000000000E+01 0.  0.
<mgrwt>
<rscale>  0 0.12503559E+03</rscale>
<asrwt>0</asrwt>
<pdfrwt beam="1">  1        4 0.16741949E-01 0.12503559E+03</pdfrwt>
<pdfrwt beam="2">  1       -4 0.55255385E-02 0.12503559E+03</pdfrwt>
<totfact> 0.10028261E+04</totfact>
</mgrwt>
</event>
<event>
 5    1  0.3272646E-002  0.1250041E+03  0.7818608E-02  0.1235063E+00
          4   -1    0    0  501    0  0.00000000000E+00  0.00000000000E+00  0.89574890669E+03  0.89574980699E+03  0.12700000000E+01 0. -1.
         -4   -1    0    0    0  501 -0.00000000000E+00 -0.00000000000E+00 -0.42677814650E+01  0.44527360839E+01  0.12700000000E+01 0. -1.
         25    2    1    2    0    0  0.00000000000E+00  0.00000000000E+00  0.89148112522E+03  0.90020254308E+03  0.12500408769E+03 0.  0.
    9000005    1    3    3    0    0 -0.28161863881E+02  0.82128718866E+01  0.84312154252E+03  0.84363231167E+03  0.10000000000E+01 0.  0.
    9000005    1    3    3    0    0  0.28161863881E+02 -0.82128718866E+01  0.48359582704E+02  0.56570231405E+02  0.10000000000E+01 0.  0.
<mgrwt>
<rscale>  0 0.12500409E+03</rscale>
<asrwt>0</asrwt>
<pdfrwt beam="1">  1        4 0.13782177E+00 0.12500409E+03</pdfrwt>
<pdfrwt beam="2">  1       -4 0.67087852E-03 0.12500409E+03</pdfrwt>
<totfact> 0.34149125E+03</totfact>
</mgrwt>
</event>
<event>
 5    1  0.3272646E-002  0.1249966E+03  0.7818608E-02  0.1235075E+00
         -4   -1    0    0    0  501 -0.00000000000E+00  0.00000000000E+00  0.64831772300E+01  0.66063974294E+01  0.12700000000E+01 0.  1.
          4   -1    0    0  501    0  0.00000000000E+00 -0.00000000000E+00 -0.59669280105E+03  0.59669415258E+03  0.12700000000E+01 0.  1.
         25    2    1    2    0    0  0.00000000000E+00  0.00000000000E+00 -0.59020962382E+03  0.60330055001E+03  0.12499661433E+03 0.  0.
    9000005    1    3    3    0    0 -0.20231454057E+01  0.16185358233E+02 -0.58626049634E+03  0.58648821685E+03  0.10000000000E+01 0.  0.
    9000005    1    3    3    0    0  0.20231454057E+01 -0.16185358233E+02 -0.39491274844E+01  0.16812333162E+02  0.10000000000E+01 0.  0.
<mgrwt>
<rscale>  0 0.12499661E+03</rscale>
<asrwt>0</asrwt>
<pdfrwt beam="2">  1        4 0.91808431E-01 0.12499661E+03</pdfrwt>
<pdfrwt beam="1">  1       -4 0.10069948E-02 0.12499661E+03</pdfrwt>
<totfact> 0.48663560E+03</totfact>
</mgrwt>
</event>
<event>
 5    1  0.3272646E-002  0.1249983E+03  0.7818608E-02  0.1235072E+00
         -4   -1    0    0    0  501 -0.00000000000E+00  0.00000000000E+00  0.21028986682E+02  0.21067301224E+02  0.12700000000E+01 0.  1.
          4   -1    0    0  501    0  0.00000000000E+00 -0.00000000000E+00 -0.18554089652E+03  0.18554524295E+03  0.12700000000E+01 0.  1.
         25    2    1    2    0    0  0.00000000000E+00  0.00000000000E+00 -0.16451190983E+03  0.20661254417E+03  0.12499829971E+03 0.  0.
    9000005    1    3    3    0    0  0.13358897829E+02  0.47369257158E+02 -0.14590608499E+03  0.15398666277E+03  0.10000000000E+01 0.  0.
    9000005    1    3    3    0    0 -0.13358897829E+02 -0.47369257158E+02 -0.18605824846E+02  0.52625881400E+02  0.10000000000E+01 0.  0.
<mgrwt>
<rscale>  0 0.12499830E+03</rscale>
<asrwt>0</asrwt>
<pdfrwt beam="2">  1        4 0.28548034E-01 0.12499830E+03</pdfrwt>
<pdfrwt beam="1">  1       -4 0.32385105E-02 0.12499830E+03</pdfrwt>
<totfact> 0.89035488E+03</totfact>
</mgrwt>
</event>
<event>
 5    1  0.3272646E-002  0.1250022E+03  0.7818608E-02  0.1235066E+00
          4   -1    0    0  501    0  0.00000000000E+00  0.00000000000E+00  0.17426121187E+03  0.17426583963E+03  0.12700000000E+01 0. -1.
         -4   -1    0    0    0  501 -0.00000000000E+00 -0.00000000000E+00 -0.22393950814E+02  0.22429933862E+02  0.12700000000E+01 0. -1.
         25    2    1    2    0    0  0.00000000000E+00  0.00000000000E+00  0.15186726106E+03  0.19669577349E+03  0.12500224930E+03 0.  0.
    9000005    1    3    3    0    0  0.53475087816E+02  0.32065588661E+02  0.82535665403E+02  0.10344526599E+03  0.10000000000E+01 0.  0.
    9000005    1    3    3    0    0 -0.53475087816E+02 -0.32065588661E+02  0.69331595653E+02  0.93250507500E+02  0.10000000000E+01 0.  0.
<mgrwt>
<rscale>  0 0.12500225E+03</rscale>
<asrwt>0</asrwt>
<pdfrwt beam="1">  1        4 0.26812540E-01 0.12500225E+03</pdfrwt>
<pdfrwt beam="2">  1       -4 0.34483473E-02 0.12500225E+03</pdfrwt>
<totfact> 0.90690582E+03</totfact>
</mgrwt>
</event>
<event>
 5    1  0.3272646E-002  0.1249982E+03  0.7818608E-02  0.1235072E+00
         -4   -1    0    0    0  501 -0.00000000000E+00  0.00000000000E+00  0.35801644217E+02  0.35824162637E+02  0.12700000000E+01 0. -1.
          4   -1    0    0  501    0  0.00000000000E+00 -0.00000000000E+00 -0.10904446794E+03  0.10905186330E+03  0.12700000000E+01 0. -1.
         25    2    1    2    0    0  0.00000000000E+00  0.00000000000E+00 -0.73242823724E+02  0.14487602593E+03  0.12499820664E+03 0.  0.
    9000005    1    3    3    0    0 -0.89851263263E+01  0.55726804596E+02 -0.55446583014E+01  0.56726999579E+02  0.10000000000E+01 0.  0.
    9000005    1    3    3    0    0  0.89851263263E+01 -0.55726804596E+02 -0.67698165423E+02  0.88149026354E+02  0.10000000000E+01 0.  0.
<mgrwt>
<rscale>  0 0.12499821E+03</rscale>
<asrwt>0</asrwt>
<pdfrwt beam="2">  1        4 0.16778373E-01 0.12499821E+03</pdfrwt>
<pdfrwt beam="1">  1       -4 0.55102463E-02 0.12499821E+03</pdfrwt>
<totfact> 0.10033913E+04</totfact>
</mgrwt>
</event>
<event>
 5    1  0.3272646E-002  0.1249974E+03  0.7818608E-02  0.1235073E+00
          4   -1    0    0  501    0  0.00000000000E+00  0.00000000000E+00  0.20558563286E+02  0.20597752896E+02  0.12700000000E+01 0. -1.
         -4   -1    0    0    0  501 -0.00000000000E+00 -0.00000000000E+00 -0.18977589986E+03  0.18978014929E+03  0.12700000000E+01 0. -1.
         25    2    1    2    0    0  0.00000000000E+00  0.00000000000E+00 -0.16921733657E+03  0.21037790219E+03  0.12499741891E+03 0.  0.
    9000005    1    3    3    0    0 -0.53460523789E+02  0.32353447671E+02 -0.83663299702E+02  0.10442854446E+03  0.10000000000E+01 0.  0.
    9000005    1    3    3    0    0  0.53460523789E+02 -0.32353447671E+02 -0.85554036868E+02  0.10594935773E+03  0.10000000000E+01 0.  0.
<mgrwt>
<rscale>  0 0.12499742E+03</rscale>
<asrwt>0</asrwt>
<pdfrwt beam="1">  1        4 0.31661975E-02 0.12499742E+03</pdfrwt>
<pdfrwt beam="2">  1       -4 0.29199633E-01 0.12499742E+03</pdfrwt>
<totfact> 0.88419304E+03</totfact>
</mgrwt>
</event>
<event>
 5    1  0.3272646E-002  0.1250047E+03  0.7818608E-02  0.1235062E+00
         -4   -1    0    0    0  501 -0.00000000000E+00  0.00000000000E+00  0.20477638371E+03  0.20478032187E+03  0.12700000000E+01 0. -1.
          4   -1    0    0  501    0  0.00000000000E+00 -0.00000000000E+00 -0.19051842996E+02  0.19094125315E+02  0.12700000000E+01 0. -1.
         25    2    1    2    0    0  0.00000000000E+00  0.00000000000E+00  0.18572454071E+03  0.22387444718E+03  0.12500465223E+03 0.  0.
    9000005    1    3    3    0    0  0.43949045722E+02 -0.55236519714E+01  0.13908677358E+02  0.46437922615E+02  0.10000000000E+01 0.  0.
    9000005    1    3    3    0    0 -0.43949045722E+02  0.55236519714E+01  0.17181586335E+03  0.17743652457E+03  0.10000000000E+01 0.  0.
<mgrwt>
<rscale>  0 0.12500465E+03</rscale>
<asrwt>0</asrwt>
<pdfrwt beam="2">  1        4 0.29346083E-02 0.12500465E+03</pdfrwt>
<pdfrwt beam="1">  1       -4 0.31507614E-01 0.12500465E+03</pdfrwt>
<totfact> 0.86249998E+03</totfact>
</mgrwt>
</event>
<event>
 5    1  0.3272646E-002  0.1250070E+03  0.7818608E-02  0.1235058E+00
          4   -1    0    0  501    0  0.00000000000E+00  0.00000000000E+00  0.45621297937E+02  0.45638971564E+02  0.12700000000E+01 0. -1.
         -4   -1    0    0    0  501 -0.00000000000E+00 -0.00000000000E+00 -0.85593967482E+02  0.85603388773E+02  0.12700000000E+01 0. -1.
         25    2    1    2    0    0  0.00000000000E+00  0.00000000000E+00 -0.39972669545E+02  0.13124236034E+03  0.12500697115E+03 0.  0.
    9000005    1    3    3    0    0  0.22775138226E+02  0.52847507507E+02 -0.45576718035E+02  0.73415279048E+02  0.10000000000E+01 0.  0.
    9000005    1    3    3    0    0 -0.22775138226E+02 -0.52847507507E+02  0.56040484898E+01  0.57827081289E+02  0.10000000000E+01 0.  0.
<mgrwt>
<rscale>  0 0.12500697E+03</rscale>
<asrwt>0</asrwt>
<pdfrwt beam="1">  1        4 0.70207455E-02 0.12500697E+03</pdfrwt>
<pdfrwt beam="2">  1       -4 0.13170387E-01 0.12500697E+03</pdfrwt>
<totfact> 0.10316274E+04</totfact>
</mgrwt>
</event>
<event>
 5    1  0.3272646E-002  0.1250060E+03  0.7818608E-02  0.1235060E+00
         -4   -1    0    0    0  501 -0.00000000000E+00  0.00000000000E+00  0.12629455317E+02  0.12693149397E+02  0.12700000000E+01 0.  1.
          4   -1    0    0  501    0  0.00000000000E+00 -0.00000000000E+00 -0.30848347059E+03  0.30848608482E+03  0.12700000000E+01 0.  1.
         25    2    1    2    0    0  0.00000000000E+00  0.00000000000E+00 -0.29585401528E+03  0.32117923422E+03  0.12500600841E+03 0.  0.
    9000005    1    3    3    0    0 -0.83098191246E+01  0.61725843470E+02 -0.16115151760E+03  0.17277136473E+03  0.10000000000E+01 0.  0.
    9000005    1    3    3    0    0  0.83098191246E+01 -0.61725843470E+02 -0.13470249768E+03  0.14840786949E+03  0.10000000000E+01 0.  0.
<mgrwt>
<rscale>  0 0.12500601E+03</rscale>
<asrwt>0</asrwt>
<pdfrwt beam="2">  1        4 0.47464091E-01 0.12500601E+03</pdfrwt>
<pdfrwt beam="1">  1       -4 0.19480940E-02 0.12500601E+03</pdfrwt>
<totfact> 0.73006369E+03</totfact>
</mgrwt>
</event>
<event>
 5    1  0.3272646E-002  0.1250027E+03  0.7818608E-02  0.1235065E+00
          4   -1    0    0  501    0  0.00000000000E+00  0.00000000000E+00  0.13810831135E+03  0.13811415049E+03  0.12700000000E+01 0.  1.
         -4   -1    0    0    0  501 -0.00000000000E+00 -0.00000000000E+00 -0.28264468396E+02  0.28292986298E+02  0.12700000000E+01 0.  1.
         25    2    1    2    0    0  0.00000000000E+00  0.00000000000E+00  0.10984384296E+03  0.16640713678E+03  0.12500266132E+03 0.  0.
    9000005    1    3    3    0    0 -0.34807572879E+02  0.51262726303E+02  0.65735408029E+02  0.90341452869E+02  0.10000000000E+01 0.  0.
    9000005    1    3    3    0    0  0.34807572879E+02 -0.51262726303E+02  0.44108434927E+02  0.76065683915E+02  0.10000000000E+01 0.  0.
<mgrwt>
<rscale>  0 0.12500266E+03</rscale>
<asrwt>0</asrwt>
<pdfrwt beam="1">  1        4 0.21250076E-01 0.12500266E+03</pdfrwt>
<pdfrwt beam="2">  1       -4 0.43510225E-02 0.12500266E+03</pdfrwt>
<totfact> 0.96115819E+03</totfact>
</mgrwt>
</event>
<event>
 5    1  0.3272646E-002  0.1250003E+03  0.7818608E-02  0.1235069E+00
         -4   -1    0    0    0  501 -0.00000000000E+00  0.00000000000E+00  0.61556209106E+01  0.62852660082E+01  0.12700000000E+01 0. -1.
          4   -1    0    0  501    0  0.00000000000E+00 -0.00000000000E+00 -0.62784216210E+03  0.62784344658E+03  0.12700000000E+01 0. -1.
         25    2    1    2    0    0  0.00000000000E+00  0.00000000000E+00 -0.62168654119E+03  0.63412871259E+03  0.12500027452E+03 0.  0.
    9000005    1    3    3    0    0  0.49705369556E+02  0.11684095395E+00 -0.11869505026E+03  0.12868625557E+03  0.10000000000E+01 0.  0.
    9000005    1    3    3    0    0 -0.49705369556E+02 -0.11684095395E+00 -0.50299149093E+03  0.50544245702E+03  0.10000000000E+01 0.  0.
<mgrwt>
<rscale>  0 0.12500027E+03</rscale>
<asrwt>0</asrwt>
<pdfrwt beam="2">  1        4 0.96601124E-01 0.12500027E+03</pdfrwt>
<pdfrwt beam="1">  1       -4 0.95709060E-03 0.12500027E+03</pdfrwt>
<totfact> 0.46781558E+03</totfact>
</mgrwt>
</event>
<event>
 5    1  0.3272646E-002  0.1250002E+03  0.7818608E-02  0.1235069E+00
         -4   -1    0    0    0  501 -0.00000000000E+00  0.00000000000E+00  0.33177701577E+02  0.33201999668E+02  0.12700000000E+01 0.  1.
          4   -1    0    0  501    0  0.00000000000E+00 -0.00000000000E+00 -0.11766684066E+03  0.11767369413E+03  0.12700000000E+01 0.  1.
         25    2    1    2    0    0  0.00000000000E+00  0.00000000000E+00 -0.84489139084E+02  0.15087569380E+03  0.12500024143E+03 0.  0.
    9000005    1    3    3    0    0  0.37369435348E+02  0.50078714101E+02 -0.43397737854E+02  0.76083611606E+02  0.10000000000E+01 0.  0.
    9000005    1    3    3    0    0 -0.37369435348E+02 -0.50078714101E+02 -0.41091401230E+02  0.74792082196E+02  0.10000000000E+01 0.  0.
<mgrwt>
<rscale>  0 0.12500024E+03</rscale>
<asrwt>0</asrwt>
<pdfrwt beam="2">  1        4 0.18104987E-01 0.12500024E+03</pdfrwt>
<pdfrwt beam="1">  1       -4 0.51066581E-02 0.12500024E+03</pdfrwt>
<totfact> 0.99128889E+03</totfact>
</mgrwt>
</event>
<event>
 5    1  0.3272646E-002  0.1249987E+03  0.7818608E-02  0.1235071E+00
         -4   -1    0    0    0  501 -0.00000000000E+00  0.00000000000E+00  0.47548488667E+03  0.47548658272E+03  0.12700000000E+01 0. -1.
          4   -1    0    0  501    0  0.00000000000E+00 -0.00000000000E+00 -0.81643291841E+01  0.82625160227E+01  0.12700000000E+01 0. -1.
         25    2    1    2    0    0  0.00000000000E+00  0.00000000000E+00  0.46732055748E+03  0.48374909874E+03  0.12499874835E+03 0.  0.
    9000005    1    3    3    0    0 -0.61746564725E+02  0.71290040062E+01  0.20866610043E+03  0.21772919515E+03  0.10000000000E+01 0.  0.
    9000005    1    3    3    0    0  0.61746564725E+02 -0.71290040062E+01  0.25865445705E+03  0.26601990359E+03  0.10000000000E+01 0.  0.
<mgrwt>
<rscale>  0 0.12499875E+03</rscale>
<asrwt>0</asrwt>
<pdfrwt beam="2">  1        4 0.12637338E-02 0.12499875E+03</pdfrwt>
<pdfrwt beam="1">  1       -4 0.73159213E-01 0.12499875E+03</pdfrwt>
<totfact> 0.57149223E+03</totfact>
</mgrwt>
</event>
<event>
 5    1  0.3272646E-002  0.1250042E+03  0.7818608E-02  0.1235063E+00
          4   -1    0    0  501    0  0.00000000000E+00  0.00000000000E+00  0.11400449903E+03  0.11401157265E+03  0.12700000000E+01 0. -1.
         -4   -1    0    0    0  501 -0.00000000000E+00 -0.00000000000E+00 -0.34246403169E+02  0.34269943537E+02  0.12700000000E+01 0. -1.
         25    2    1    2    0    0  0.00000000000E+00  0.00000000000E+00  0.79758095860E+02  0.14828151619E+03  0.12500421668E+03 0.  0.
    9000005    1    3    3    0    0 -0.99612450653E+01 -0.54668567661E+02  0.73797970859E+02  0.92385167621E+02  0.10000000000E+01 0.  0.
    9000005    1    3    3    0    0  0.99612450653E+01  0.54668567661E+02  0.59601250011E+01  0.55896348569E+02  0.10000000000E+01 0.  0.
<mgrwt>
<rscale>  0 0.12500422E+03</rscale>
<asrwt>0</asrwt>
<pdfrwt beam="1">  1        4 0.17541508E-01 0.12500422E+03</pdfrwt>
<pdfrwt beam="2">  1       -4 0.52710325E-02 0.12500422E+03</pdfrwt>
<totfact> 0.99637904E+03</totfact>
</mgrwt>
</event>
<event>
 5    1  0.3272646E-002  0.1249983E+03  0.7818608E-02  0.1235072E+00
          4   -1    0    0  501    0  0.00000000000E+00  0.00000000000E+00  0.23785296908E+02  0.23819178176E+02  0.12700000000E+01 0. -1.
         -4   -1    0    0    0  501 -0.00000000000E+00 -0.00000000000E+00 -0.16407183017E+03  0.16407674532E+03  0.12700000000E+01 0. -1.
         25    2    1    2    0    0  0.00000000000E+00  0.00000000000E+00 -0.14028653326E+03  0.18789592350E+03  0.12499826660E+03 0.  0.
    9000005    1    3    3    0    0 -0.39199910528E+02 -0.14215931212E+02 -0.17771019445E+00  0.41710397583E+02  0.10000000000E+01 0.  0.
    9000005    1    3    3    0    0  0.39199910528E+02  0.14215931212E+02 -0.14010882307E+03  0.14618552591E+03  0.10000000000E+01 0.  0.
<mgrwt>
<rscale>  0 0.12499827E+03</rscale>
<asrwt>0</asrwt>
<pdfrwt beam="1">  1        4 0.36622609E-02 0.12499827E+03</pdfrwt>
<pdfrwt beam="2">  1       -4 0.25244804E-01 0.12499827E+03</pdfrwt>
<totfact> 0.92218293E+03</totfact>
</mgrwt>
</event>
<event>
 5    1  0.3272646E-002  0.1250041E+03  0.7818608E-02  0.1235063E+00
         -4   -1    0    0    0  501 -0.00000000000E+00  0.00000000000E+00  0.18023251472E+04  0.18023255947E+04  0.12700000000E+01 0.  1.
          4   -1    0    0  501    0  0.00000000000E+00 -0.00000000000E+00 -0.19809623183E+01  0.23531068200E+01  0.12700000000E+01 0.  1.
         25    2    1    2    0    0  0.00000000000E+00  0.00000000000E+00  0.18003441849E+04  0.18046787015E+04  0.12500412594E+03 0.  0.
    9000005    1    3    3    0    0  0.21826515068E+02  0.56914958722E+02  0.70127793084E+03  0.70392289746E+03  0.10000000000E+01 0.  0.
    9000005    1    3    3    0    0 -0.21826515068E+02 -0.56914958722E+02  0.10990662541E+04  0.11007558040E+04  0.10000000000E+01 0.  0.
<mgrwt>
<rscale>  0 0.12500413E+03</rscale>
<asrwt>0</asrwt>
<pdfrwt beam="2">  1        4 0.33342503E-03 0.12500413E+03</pdfrwt>
<pdfrwt beam="1">  1       -4 0.27730889E+00 0.12500413E+03</pdfrwt>
<totfact> 0.12630458E+03</totfact>
</mgrwt>
</event>
<event>
 5    1  0.3272646E-002  0.1249984E+03  0.7818608E-02  0.1235072E+00
          4   -1    0    0  501    0  0.00000000000E+00  0.00000000000E+00  0.22114284508E+03  0.22114649178E+03  0.12700000000E+01 0.  1.
         -4   -1    0    0    0  501 -0.00000000000E+00 -0.00000000000E+00 -0.17636835887E+02  0.17682502089E+02  0.12700000000E+01 0.  1.
         25    2    1    2    0    0  0.00000000000E+00  0.00000000000E+00  0.20350600919E+03  0.23882899387E+03  0.12499837014E+03 0.  0.
    9000005    1    3    3    0    0 -0.41895221889E+02 -0.38638564776E+02  0.15072697644E+03  0.16114518215E+03  0.10000000000E+01 0.  0.
    9000005    1    3    3    0    0  0.41895221889E+02  0.38638564776E+02  0.52779032750E+02  0.77683811719E+02  0.10000000000E+01 0.  0.
<mgrwt>
<rscale>  0 0.12499837E+03</rscale>
<asrwt>0</asrwt>
<pdfrwt beam="1">  1        4 0.34025769E-01 0.12499837E+03</pdfrwt>
<pdfrwt beam="2">  1       -4 0.27171527E-02 0.12499837E+03</pdfrwt>
<totfact> 0.83975129E+03</totfact>
</mgrwt>
</event>
<event>
 5    1  0.3272646E-002  0.1249969E+03  0.7818608E-02  0.1235074E+00
          4   -1    0    0  501    0  0.00000000000E+00  0.00000000000E+00  0.20004157170E+02  0.20044430750E+02  0.12700000000E+01 0.  1.
         -4   -1    0    0    0  501 -0.00000000000E+00 -0.00000000000E+00 -0.19502366593E+03  0.19502780102E+03  0.12700000000E+01 0.  1.
         25    2    1    2    0    0  0.00000000000E+00  0.00000000000E+00 -0.17501950876E+03  0.21507223177E+03  0.12499694570E+03 0.  0.
    9000005    1    3    3    0    0  0.22235326804E+02 -0.13540907976E+02 -0.18525691470E+03  0.18707990376E+03  0.10000000000E+01 0.  0.
    9000005    1    3    3    0    0 -0.22235326804E+02  0.13540907976E+02  0.10237405946E+02  0.27992328009E+02  0.10000000000E+01 0.  0.
<mgrwt>
<rscale>  0 0.12499695E+03</rscale>
<asrwt>0</asrwt>
<pdfrwt beam="1">  1        4 0.30809788E-02 0.12499695E+03</pdfrwt>
<pdfrwt beam="2">  1       -4 0.30007056E-01 0.12499695E+03</pdfrwt>
<totfact> 0.87660144E+03</totfact>
</mgrwt>
</event>
<event>
 5    1  0.3272646E-002  0.1249962E+03  0.7818608E-02  0.1235075E+00
         -4   -1    0    0    0  501 -0.00000000000E+00  0.00000000000E+00  0.29828844990E+02  0.29855868660E+02  0.12700000000E+01 0.  1.
          4   -1    0    0  501    0  0.00000000000E+00 -0.00000000000E+00 -0.13085814427E+03  0.13086430691E+03  0.12700000000E+01 0.  1.
         25    2    1    2    0    0  0.00000000000E+00  0.00000000000E+00 -0.10102929928E+03  0.16072017557E+03  0.12499622203E+03 0.  0.
    9000005    1    3    3    0    0 -0.31631157791E+02 -0.30034369093E+02 -0.10805217019E+03  0.11652838690E+03  0.10000000000E+01 0.  0.
    9000005    1    3    3    0    0  0.31631157791E+02  0.30034369093E+02  0.70228709088E+01  0.44191788670E+02  0.10000000000E+01 0.  0.
<mgrwt>
<rscale>  0 0.12499622E+03</rscale>
<asrwt>0</asrwt>
<pdfrwt beam="2">  1        4 0.20134575E-01 0.12499622E+03</pdfrwt>
<pdfrwt beam="1">  1       -4 0.45916059E-02 0.12499622E+03</pdfrwt>
<totfact> 0.97212375E+03</totfact>
</mgrwt>
</event>
<event>
 5    1  0.3272646E-002  0.1250021E+03  0.7818608E-02  0.1235066E+00
         -4   -1    0    0    0  501 -0.00000000000E+00  0.00000000000E+00  0.35580128004E+03  0.35580354661E+03  0.12700000000E+01 0.  1.
          4   -1    0    0  501    0  0.00000000000E+00 -0.00000000000E+00 -0.10940064974E+02  0.11013533567E+02  0.12700000000E+01 0.  1.
         25    2    1    2    0    0  0.00000000000E+00  0.00000000000E+00  0.34486121507E+03  0.36681708018E+03  0.12500205059E+03 0.  0.
    9000005    1    3    3    0    0 -0.59125794742E+02 -0.18743732215E+02  0.15004542954E+03  0.16236322868E+03  0.10000000000E+01 0.  0.
    9000005    1    3    3    0    0  0.59125794742E+02  0.18743732215E+02  0.19481578553E+03  0.20445385150E+03  0.10000000000E+01 0.  0.
<mgrwt>
<rscale>  0 0.12500205E+03</rscale>
<asrwt>0</asrwt>
<pdfrwt beam="2">  1        4 0.16889131E-02 0.12500205E+03</pdfrwt>
<pdfrwt beam="1">  1       -4 0.54744470E-01 0.12500205E+03</pdfrwt>
<totfact> 0.67910178E+03</totfact>
</mgrwt>
</event>
<event>
 5    1  0.3272646E-002  0.1250001E+03  0.7818608E-02  0.1235069E+00
         -4   -1    0    0    0  501 -0.00000000000E+00  0.00000000000E+00  0.22314848998E+02  0.22350959393E+02  0.12700000000E+01 0. -1.
          4   -1    0    0  501    0  0.00000000000E+00 -0.00000000000E+00 -0.17487180447E+03  0.17487641607E+03  0.12700000000E+01 0. -1.
         25    2    1    2    0    0  0.00000000000E+00  0.00000000000E+00 -0.15255695547E+03  0.19722737547E+03  0.12500005188E+03 0.  0.
    9000005    1    3    3    0    0 -0.30657736193E+02 -0.31643266543E+02 -0.63531689566E+01  0.44525901022E+02  0.10000000000E+01 0.  0.
    9000005    1    3    3    0    0  0.30657736193E+02  0.31643266543E+02 -0.14620378652E+03  0.15270147445E+03  0.10000000000E+01 0.  0.
<mgrwt>
<rscale>  0 0.12500005E+03</rscale>
<asrwt>0</asrwt>
<pdfrwt beam="2">  1        4 0.26906486E-01 0.12500005E+03</pdfrwt>
<pdfrwt beam="1">  1       -4 0.34361863E-02 0.12500005E+03</pdfrwt>
<totfact> 0.90604655E+03</totfact>
</mgrwt>
</event>
<event>
 5    1  0.3272646E-002  0.1249996E+03  0.7818608E-02  0.1235070E+00
         -4   -1    0    0    0  501 -0.00000000000E+00  0.00000000000E+00  0.94704552786E+02  0.94713067834E+02  0.12700000000E+01 0.  1.
          4   -1    0    0  501    0  0.00000000000E+00 -0.00000000000E+00 -0.41226317257E+02  0.41245874152E+02  0.12700000000E+01 0.  1.
         25    2    1    2    0    0  0.00000000000E+00  0.00000000000E+00  0.53478235530E+02  0.13595894199E+03  0.12499964892E+03 0.  0.
    9000005    1    3    3    0    0 -0.58971316631E+02  0.80368113759E+01  0.60155188826E+01  0.59828028463E+02  0.10000000000E+01 0.  0.
    9000005    1    3    3    0    0  0.58971316631E+02 -0.80368113759E+01  0.47462716647E+02  0.76130913523E+02  0.10000000000E+01 0.  0.
<mgrwt>
<rscale>  0 0.12499965E+03</rscale>
<asrwt>0</asrwt>
<pdfrwt beam="2">  1        4 0.63446698E-02 0.12499965E+03</pdfrwt>
<pdfrwt beam="1">  1       -4 0.14572090E-01 0.12499965E+03</pdfrwt>
<totfact> 0.10217979E+04</totfact>
</mgrwt>
</event>
<event>
 5    1  0.3272646E-002  0.1249970E+03  0.7818608E-02  0.1235074E+00
         -4   -1    0    0    0  501 -0.00000000000E+00  0.00000000000E+00  0.11186782974E+03  0.11187503846E+03  0.12700000000E+01 0. -1.
          4   -1    0    0  501    0  0.00000000000E+00 -0.00000000000E+00 -0.34896855294E+02  0.34919957180E+02  0.12700000000E+01 0. -1.
         25    2    1    2    0    0  0.00000000000E+00  0.00000000000E+00  0.76970974443E+02  0.14679499564E+03  0.12499695931E+03 0.  0.
    9000005    1    3    3    0    0  0.83370952260E+01  0.14767524190E+02  0.10911959326E+03  0.11043401904E+03  0.10000000000E+01 0.  0.
    9000005    1    3    3    0    0 -0.83370952260E+01 -0.14767524190E+02 -0.32148618817E+02  0.36360976601E+02  0.10000000000E+01 0.  0.
<mgrwt>
<rscale>  0 0.12499696E+03</rscale>
<asrwt>0</asrwt>
<pdfrwt beam="2">  1        4 0.53710785E-02 0.12499696E+03</pdfrwt>
<pdfrwt beam="1">  1       -4 0.17212767E-01 0.12499696E+03</pdfrwt>
<totfact> 0.99953290E+03</totfact>
</mgrwt>
</event>
<event>
 5    1  0.3272646E-002  0.1250092E+03  0.7818608E-02  0.1235055E+00
          4   -1    0    0  501    0  0.00000000000E+00  0.00000000000E+00  0.11928618261E+03  0.11929294306E+03  0.12700000000E+01 0. -1.
         -4   -1    0    0    0  501 -0.00000000000E+00 -0.00000000000E+00 -0.32731696684E+02  0.32756325615E+02  0.12700000000E+01 0. -1.
         25    2    1    2    0    0  0.00000000000E+00  0.00000000000E+00  0.86554485931E+02  0.15204926867E+03  0.12500920393E+03 0.  0.
    9000005    1    3    3    0    0  0.53125516596E+02 -0.12594167805E+02  0.80267537118E+02  0.97081466261E+02  0.10000000000E+01 0.  0.
    9000005    1    3    3    0    0 -0.53125516596E+02  0.12594167805E+02  0.62869488127E+01  0.54967802409E+02  0.10000000000E+01 0.  0.
<mgrwt>
<rscale>  0 0.12500920E+03</rscale>
<asrwt>0</asrwt>
<pdfrwt beam="1">  1        4 0.18354135E-01 0.12500920E+03</pdfrwt>
<pdfrwt beam="2">  1       -4 0.50380602E-02 0.12500920E+03</pdfrwt>
<totfact> 0.98876287E+03</totfact>
</mgrwt>
</event>
<event>
 4    1  0.3272646E-002  0.1251367E+03  0.7818608E-02  0.1234856E+00
          4   -1    0    0  501    0  0.00000000000E+00  0.00000000000E+00  0.56118519188E+02  0.56132887828E+02  0.12700000000E+01 0. -1.
         -4   -1    0    0    0  501 -0.00000000000E+00 -0.00000000000E+00 -0.69730346105E+02  0.69741910412E+02  0.12700000000E+01 0. -1.
    9000005    1    1    2    0    0 -0.87255513082E+01 -0.61621146234E+02 -0.40482118777E+00  0.62245198923E+02  0.10000000000E+01 0.  0.
    9000005    1    1    2    0    0  0.87255513082E+01  0.61621146234E+02 -0.13207005729E+02  0.63629599316E+02  0.10000000000E+01 0.  0.
<mgrwt>
<rscale>  0 0.12513666E+03</rscale>
<asrwt>0</asrwt>
<pdfrwt beam="1">  1        4 0.86356132E-02 0.12513666E+03</pdfrwt>
<pdfrwt beam="2">  1       -4 0.10729740E-01 0.12513666E+03</pdfrwt>
<totfact> 0.10401596E+04</totfact>
</mgrwt>
</event>
<event>
 5    1  0.3272646E-002  0.1250035E+03  0.7818608E-02  0.1235064E+00
          4   -1    0    0  501    0  0.00000000000E+00  0.00000000000E+00  0.29684393104E+02  0.29711548158E+02  0.12700000000E+01 0.  1.
         -4   -1    0    0    0  501 -0.00000000000E+00 -0.00000000000E+00 -0.13150976116E+03  0.13151589326E+03  0.12700000000E+01 0.  1.
         25    2    1    2    0    0  0.00000000000E+00  0.00000000000E+00 -0.10182536806E+03  0.16122744142E+03  0.12500352910E+03 0.  0.
    9000005    1    3    3    0    0  0.41301105781E+01  0.60727886668E+02 -0.32647946075E+02  0.69078378785E+02  0.10000000000E+01 0.  0.
    9000005    1    3    3    0    0 -0.41301105781E+01 -0.60727886668E+02 -0.69177421980E+02  0.92149062635E+02  0.10000000000E+01 0.  0.
<mgrwt>
<rscale>  0 0.12500353E+03</rscale>
<asrwt>0</asrwt>
<pdfrwt beam="1">  1        4 0.45693903E-02 0.12500353E+03</pdfrwt>
<pdfrwt beam="2">  1       -4 0.20234831E-01 0.12500353E+03</pdfrwt>
<totfact> 0.97098963E+03</totfact>
</mgrwt>
</event>
<event>
 5    1  0.3272646E-002  0.1249973E+03  0.7818608E-02  0.1235073E+00
          4   -1    0    0  501    0  0.00000000000E+00  0.00000000000E+00  0.21193898880E+03  0.21194279387E+03  0.12700000000E+01 0. -1.
         -4   -1    0    0    0  501 -0.00000000000E+00 -0.00000000000E+00 -0.18404371177E+02  0.18448137532E+02  0.12700000000E+01 0. -1.
         25    2    1    2    0    0  0.00000000000E+00  0.00000000000E+00  0.19353461763E+03  0.23039093141E+03  0.12499733219E+03 0.  0.
    9000005    1    3    3    0    0 -0.20214458601E+02 -0.36465968839E+02  0.10972061439E+02  0.43125135966E+02  0.10000000000E+01 0.  0.
    9000005    1    3    3    0    0  0.20214458601E+02  0.36465968839E+02  0.18256255619E+03  0.18726579544E+03  0.10000000000E+01 0.  0.
<mgrwt>
<rscale>  0 0.12499733E+03</rscale>
<asrwt>0</asrwt>
<pdfrwt beam="1">  1        4 0.32609658E-01 0.12499733E+03</pdfrwt>
<pdfrwt beam="2">  1       -4 0.28351010E-02 0.12499733E+03</pdfrwt>
<totfact> 0.85254678E+03</totfact>
</mgrwt>
</event>
<event>
 5    1  0.3272646E-002  0.1250064E+03  0.7818608E-02  0.1235059E+00
         -4   -1    0    0    0  501 -0.00000000000E+00  0.00000000000E+00  0.69291162979E+02  0.69302800571E+02  0.12700000000E+01 0. -1.
          4   -1    0    0  501    0  0.00000000000E+00 -0.00000000000E+00 -0.56356722412E+02  0.56371030334E+02  0.12700000000E+01 0. -1.
         25    2    1    2    0    0  0.00000000000E+00  0.00000000000E+00  0.12934440568E+02  0.12567383091E+03  0.12500644792E+03 0.  0.
    9000005    1    3    3    0    0 -0.26053962649E+02 -0.94323623546E+01  0.62783016569E+02  0.68632977488E+02  0.10000000000E+01 0.  0.
    9000005    1    3    3    0    0  0.26053962649E+02  0.94323623546E+01 -0.49848576002E+02  0.57040853418E+02  0.10000000000E+01 0.  0.
<mgrwt>
<rscale>  0 0.12500645E+03</rscale>
<asrwt>0</asrwt>
<pdfrwt beam="2">  1        4 0.86722608E-02 0.12500645E+03</pdfrwt>
<pdfrwt beam="1">  1       -4 0.10662175E-01 0.12500645E+03</pdfrwt>
<totfact> 0.10436602E+04</totfact>
</mgrwt>
</event>
<event>
 5    1  0.3272646E-002  0.1250061E+03  0.7818608E-02  0.1235060E+00
          4   -1    0    0  501    0  0.00000000000E+00  0.00000000000E+00  0.24786457160E+02  0.24818971746E+02  0.12700000000E+01 0.  1.
         -4   -1    0    0    0  501 -0.00000000000E+00 -0.00000000000E+00 -0.15747306234E+03  0.15747818345E+03  0.12700000000E+01 0.  1.
         25    2    1    2    0    0  0.00000000000E+00  0.00000000000E+00 -0.13268660518E+03  0.18229715519E+03  0.12500607025E+03 0.  0.
    9000005    1    3    3    0    0  0.40454360085E+02 -0.26650420666E+02 -0.12392017349E+03  0.13305641499E+03  0.10000000000E+01 0.  0.
    9000005    1    3    3    0    0 -0.40454360085E+02  0.26650420666E+02 -0.87664316889E+01  0.49240740207E+02  0.10000000000E+01 0.  0.
<mgrwt>
<rscale>  0 0.12500607E+03</rscale>
<asrwt>0</asrwt>
<pdfrwt beam="1">  1        4 0.38161963E-02 0.12500607E+03</pdfrwt>
<pdfrwt beam="2">  1       -4 0.24229519E-01 0.12500607E+03</pdfrwt>
<totfact> 0.93192453E+03</totfact>
</mgrwt>
</event>
<event>
 5    1  0.3272646E-002  0.1250011E+03  0.7818608E-02  0.1235068E+00
         -4   -1    0    0    0  501 -0.00000000000E+00  0.00000000000E+00  0.72114190591E+02  0.72125372682E+02  0.12700000000E+01 0. -1.
          4   -1    0    0  501    0  0.00000000000E+00 -0.00000000000E+00 -0.54145705959E+02  0.54160597983E+02  0.12700000000E+01 0. -1.
         25    2    1    2    0    0  0.00000000000E+00  0.00000000000E+00  0.17968484631E+02  0.12628597066E+03  0.12500111978E+03 0.  0.
    9000005    1    3    3    0    0 -0.74000232416E+01 -0.15045853425E+02  0.69804211946E+02  0.71796699469E+02  0.10000000000E+01 0.  0.
    9000005    1    3    3    0    0  0.74000232416E+01  0.15045853425E+02 -0.51835727315E+02  0.54489271196E+02  0.10000000000E+01 0.  0.
<mgrwt>
<rscale>  0 0.12500112E+03</rscale>
<asrwt>0</asrwt>
<pdfrwt beam="2">  1        4 0.83321143E-02 0.12500112E+03</pdfrwt>
<pdfrwt beam="1">  1       -4 0.11096497E-01 0.12500112E+03</pdfrwt>
<totfact> 0.10424436E+04</totfact>
</mgrwt>
</event>
<event>
 5    1  0.3272646E-002  0.1250031E+03  0.7818608E-02  0.1235064E+00
          4   -1    0    0  501    0  0.00000000000E+00  0.00000000000E+00  0.76791203609E+02  0.76801704745E+02  0.12700000000E+01 0. -1.
         -4   -1    0    0    0  501 -0.00000000000E+00 -0.00000000000E+00 -0.50849071364E+02  0.50864928571E+02  0.12700000000E+01 0. -1.
         25    2    1    2    0    0  0.00000000000E+00  0.00000000000E+00  0.25942132245E+02  0.12766663332E+03  0.12500310011E+03 0.  0.
    9000005    1    3    3    0    0 -0.47655219337E+02 -0.26699440886E+02 -0.18033045979E+02  0.57533214937E+02  0.10000000000E+01 0.  0.
    9000005    1    3    3    0    0  0.47655219337E+02  0.26699440886E+02  0.43975178224E+02  0.70133418379E+02  0.10000000000E+01 0.  0.
<mgrwt>
<rscale>  0 0.12500310E+03</rscale>
<asrwt>0</asrwt>
<pdfrwt beam="1">  1        4 0.11816059E-01 0.12500310E+03</pdfrwt>
<pdfrwt beam="2">  1       -4 0.78249617E-02 0.12500310E+03</pdfrwt>
<totfact> 0.10393966E+04</totfact>
</mgrwt>
</event>
<event>
 5    1  0.3272646E-002  0.1250053E+03  0.7818608E-02  0.1235061E+00
          4   -1    0    0  501    0  0.00000000000E+00  0.00000000000E+00  0.21455952673E+02  0.21493506115E+02  0.12700000000E+01 0. -1.
         -4   -1    0    0    0  501 -0.00000000000E+00 -0.00000000000E+00 -0.18187536446E+03  0.18187979848E+03  0.12700000000E+01 0. -1.
         25    2    1    2    0    0  0.00000000000E+00  0.00000000000E+00 -0.16041941178E+03  0.20337330460E+03  0.12500525327E+03 0.  0.
    9000005    1    3    3    0    0  0.45394149031E+01 -0.52009035811E+02 -0.24322471593E+02  0.57603200589E+02  0.10000000000E+01 0.  0.
    9000005    1    3    3    0    0 -0.45394149031E+01  0.52009035811E+02 -0.13609694019E+03  0.14577010401E+03  0.10000000000E+01 0.  0.
<mgrwt>
<rscale>  0 0.12500525E+03</rscale>
<asrwt>0</asrwt>
<pdfrwt beam="1">  1        4 0.33041457E-02 0.12500525E+03</pdfrwt>
<pdfrwt beam="2">  1       -4 0.27984054E-01 0.12500525E+03</pdfrwt>
<totfact> 0.89559149E+03</totfact>
</mgrwt>
</event>
<event>
 5    1  0.3272646E-002  0.1249988E+03  0.7818608E-02  0.1235071E+00
         -4   -1    0    0    0  501 -0.00000000000E+00  0.00000000000E+00  0.58990902602E+02  0.59004571770E+02  0.12700000000E+01 0.  1.
          4   -1    0    0  501    0  0.00000000000E+00 -0.00000000000E+00 -0.66189149001E+02  0.66201331901E+02  0.12700000000E+01 0.  1.
         25    2    1    2    0    0  0.00000000000E+00  0.00000000000E+00 -0.71982463998E+01  0.12520590367E+03  0.12499881425E+03 0.  0.
    9000005    1    3    3    0    0  0.40226776736E+02  0.45123288614E+02 -0.19464276508E+02  0.63515059646E+02  0.10000000000E+01 0.  0.
    9000005    1    3    3    0    0 -0.40226776736E+02 -0.45123288614E+02  0.12266030108E+02  0.61690844025E+02  0.10000000000E+01 0.  0.
<mgrwt>
<rscale>  0 0.12499881E+03</rscale>
<asrwt>0</asrwt>
<pdfrwt beam="2">  1        4 0.10184935E-01 0.12499881E+03</pdfrwt>
<pdfrwt beam="1">  1       -4 0.90775121E-02 0.12499881E+03</pdfrwt>
<totfact> 0.10448672E+04</totfact>
</mgrwt>
</event>
<event>
 5    1  0.3272646E-002  0.1250025E+03  0.7818608E-02  0.1235065E+00
          4   -1    0    0  501    0  0.00000000000E+00  0.00000000000E+00  0.44308501396E+03  0.44308683404E+03  0.12700000000E+01 0. -1.
         -4   -1    0    0    0  501 -0.00000000000E+00 -0.00000000000E+00 -0.87688008626E+01  0.88602916751E+01  0.12700000000E+01 0. -1.
         25    2    1    2    0    0  0.00000000000E+00  0.00000000000E+00  0.43431621310E+03  0.45194712571E+03  0.12500252589E+03 0.  0.
    9000005    1    3    3    0    0 -0.61625009688E+02  0.82217074109E+01  0.19424323251E+03  0.20395262114E+03  0.10000000000E+01 0.  0.
    9000005    1    3    3    0    0  0.61625009688E+02 -0.82217074109E+01  0.24007298059E+03  0.24799450457E+03  0.10000000000E+01 0.  0.
<mgrwt>
<rscale>  0 0.12500253E+03</rscale>
<asrwt>0</asrwt>
<pdfrwt beam="1">  1        4 0.68174099E-01 0.12500253E+03</pdfrwt>
<pdfrwt beam="2">  1       -4 0.13562241E-02 0.12500253E+03</pdfrwt>
<totfact> 0.59792159E+03</totfact>
</mgrwt>
</event>
<event>
 5    1  0.3272646E-002  0.1249932E+03  0.7818608E-02  0.1235080E+00
          4   -1    0    0  501    0  0.00000000000E+00  0.00000000000E+00  0.96461241170E+01  0.97293684523E+01  0.12700000000E+01 0. -1.
         -4   -1    0    0    0  501 -0.00000000000E+00 -0.00000000000E+00 -0.40308772780E+03  0.40308972847E+03  0.12700000000E+01 0. -1.
         25    2    1    2    0    0  0.00000000000E+00  0.00000000000E+00 -0.39344160368E+03  0.41281909692E+03  0.12499324494E+03 0.  0.
    9000005    1    3    3    0    0  0.44184630764E+02 -0.40881768559E+01 -0.51406893080E+02  0.67916591801E+02  0.10000000000E+01 0.  0.
    9000005    1    3    3    0    0 -0.44184630764E+02  0.40881768559E+01 -0.34203471060E+03  0.34490250512E+03  0.10000000000E+01 0.  0.
<mgrwt>
<rscale>  0 0.12499324E+03</rscale>
<asrwt>0</asrwt>
<pdfrwt beam="1">  1        4 0.14905767E-02 0.12499324E+03</pdfrwt>
<pdfrwt beam="2">  1       -4 0.62020041E-01 0.12499324E+03</pdfrwt>
<totfact> 0.63334272E+03</totfact>
</mgrwt>
</event>
<event>
 5    1  0.3272646E-002  0.1250019E+03  0.7818608E-02  0.1235066E+00
          4   -1    0    0  501    0  0.00000000000E+00  0.00000000000E+00  0.57933032343E+02  0.57946951054E+02  0.12700000000E+01 0.  1.
         -4   -1    0    0    0  501 -0.00000000000E+00 -0.00000000000E+00 -0.67401062242E+02  0.67413026125E+02  0.12700000000E+01 0.  1.
         25    2    1    2    0    0  0.00000000000E+00  0.00000000000E+00 -0.94680298990E+01  0.12535997718E+03  0.12500192114E+03 0.  0.
    9000005    1    3    3    0    0  0.58116662148E+01  0.62201616104E+02 -0.31314508484E+01  0.62558952154E+02  0.10000000000E+01 0.  0.
    9000005    1    3    3    0    0 -0.58116662148E+01 -0.62201616104E+02 -0.63365790506E+01  0.62801025025E+02  0.10000000000E+01 0.  0.
<mgrwt>
<rscale>  0 0.12500192E+03</rscale>
<asrwt>0</asrwt>
<pdfrwt beam="1">  1        4 0.89147652E-02 0.12500192E+03</pdfrwt>
<pdfrwt beam="2">  1       -4 0.10371385E-01 0.12500192E+03</pdfrwt>
<totfact> 0.10444595E+04</totfact>
</mgrwt>
</event>
<event>
 5    1  0.3272646E-002  0.1249984E+03  0.7818608E-02  0.1235072E+00
         -4   -1    0    0    0  501 -0.00000000000E+00  0.00000000000E+00  0.49919215054E+01  0.51509397508E+01  0.12700000000E+01 0.  1.
          4   -1    0    0  501    0  0.00000000000E+00 -0.00000000000E+00 -0.77006749832E+03  0.77006854556E+03  0.12700000000E+01 0.  1.
         25    2    1    2    0    0  0.00000000000E+00  0.00000000000E+00 -0.76507557681E+03  0.77521948531E+03  0.12499844869E+03 0.  0.
    9000005    1    3    3    0    0 -0.43748206684E+02 -0.17249890385E+02 -0.63777080704E+03  0.63950298406E+03  0.10000000000E+01 0.  0.
    9000005    1    3    3    0    0  0.43748206684E+02  0.17249890385E+02 -0.12730476977E+03  0.13571650125E+03  0.10000000000E+01 0.  0.
<mgrwt>
<rscale>  0 0.12499845E+03</rscale>
<asrwt>0</asrwt>
<pdfrwt beam="2">  1        4 0.11848414E+00 0.12499845E+03</pdfrwt>
<pdfrwt beam="1">  1       -4 0.78030127E-03 0.12499845E+03</pdfrwt>
<totfact> 0.39396561E+03</totfact>
</mgrwt>
</event>
<event>
 5    1  0.3272646E-002  0.1249709E+03  0.7818608E-02  0.1235115E+00
         -4   -1    0    0    0  501 -0.00000000000E+00  0.00000000000E+00  0.37935670248E+03  0.37935882831E+03  0.12700000000E+01 0.  1.
          4   -1    0    0  501    0  0.00000000000E+00 -0.00000000000E+00 -0.10250909210E+02  0.10329280693E+02  0.12700000000E+01 0.  1.
         25    2    1    2    0    0  0.00000000000E+00  0.00000000000E+00  0.36910579327E+03  0.38968810901E+03  0.12497093931E+03 0.  0.
    9000005    1    3    3    0    0 -0.25140293315E+02  0.51685037507E+02  0.26093721026E+03  0.26719394669E+03  0.10000000000E+01 0.  0.
    9000005    1    3    3    0    0  0.25140293315E+02 -0.51685037507E+02  0.10816858301E+03  0.12249416231E+03  0.10000000000E+01 0.  0.
<mgrwt>
<rscale>  0 0.12497094E+03</rscale>
<asrwt>0</asrwt>
<pdfrwt beam="2">  1        4 0.15832554E-02 0.12497094E+03</pdfrwt>
<pdfrwt beam="1">  1       -4 0.58368749E-01 0.12497094E+03</pdfrwt>
<totfact> 0.65610332E+03</totfact>
</mgrwt>
</event>
<event>
 5    1  0.3272646E-002  0.1250006E+03  0.7818608E-02  0.1235068E+00
         -4   -1    0    0    0  501 -0.00000000000E+00  0.00000000000E+00  0.27048306033E+03  0.27048604183E+03  0.12700000000E+01 0.  1.
          4   -1    0    0  501    0  0.00000000000E+00 -0.00000000000E+00 -0.14410894567E+02  0.14466747466E+02  0.12700000000E+01 0.  1.
         25    2    1    2    0    0  0.00000000000E+00  0.00000000000E+00  0.25607216576E+03  0.28495278929E+03  0.12500055220E+03 0.  0.
    9000005    1    3    3    0    0  0.22187098243E+02  0.57648331255E+02  0.10644741022E+03  0.12307578384E+03  0.10000000000E+01 0.  0.
    9000005    1    3    3    0    0 -0.22187098243E+02 -0.57648331255E+02  0.14962475554E+03  0.16187700546E+03  0.10000000000E+01 0.  0.
<mgrwt>
<rscale>  0 0.12500055E+03</rscale>
<asrwt>0</asrwt>
<pdfrwt beam="2">  1        4 0.22215864E-02 0.12500055E+03</pdfrwt>
<pdfrwt beam="1">  1       -4 0.41617305E-01 0.12500055E+03</pdfrwt>
<totfact> 0.77524998E+03</totfact>
</mgrwt>
</event>
<event>
 5    1  0.3272646E-002  0.1250016E+03  0.7818608E-02  0.1235067E+00
          4   -1    0    0  501    0  0.00000000000E+00  0.00000000000E+00  0.27777898984E+03  0.27778189303E+03  0.12700000000E+01 0.  1.
         -4   -1    0    0    0  501 -0.00000000000E+00 -0.00000000000E+00 -0.14031136268E+02  0.14088494773E+02  0.12700000000E+01 0.  1.
         25    2    1    2    0    0  0.00000000000E+00  0.00000000000E+00  0.26374785357E+03  0.29187038781E+03  0.12500157204E+03 0.  0.
    9000005    1    3    3    0    0  0.41909273266E+02 -0.39456083901E+02  0.18869388135E+03  0.19728038575E+03  0.10000000000E+01 0.  0.
    9000005    1    3    3    0    0 -0.41909273266E+02  0.39456083901E+02  0.75053972223E+02  0.94590002056E+02  0.10000000000E+01 0.  0.
<mgrwt>
<rscale>  0 0.12500157E+03</rscale>
<asrwt>0</asrwt>
<pdfrwt beam="1">  1        4 0.42739859E-01 0.12500157E+03</pdfrwt>
<pdfrwt beam="2">  1       -4 0.21632722E-02 0.12500157E+03</pdfrwt>
<totfact> 0.76627378E+03</totfact>
</mgrwt>
</event>
<event>
 5    1  0.3272646E-002  0.1250017E+03  0.7818608E-02  0.1235067E+00
         -4   -1    0    0    0  501 -0.00000000000E+00  0.00000000000E+00  0.97251978787E+01  0.98077710913E+01  0.12700000000E+01 0.  1.
          4   -1    0    0  501    0  0.00000000000E+00 -0.00000000000E+00 -0.39989225841E+03  0.39989427507E+03  0.12700000000E+01 0.  1.
         25    2    1    2    0    0  0.00000000000E+00  0.00000000000E+00 -0.39016706053E+03  0.40970204616E+03  0.12500172602E+03 0.  0.
    9000005    1    3    3    0    0  0.53103632505E+01 -0.36674076180E+02 -0.30153948567E+02  0.47785441671E+02  0.10000000000E+01 0.  0.
    9000005    1    3    3    0    0 -0.53103632505E+01  0.36674076180E+02 -0.36001311196E+03  0.36191660449E+03  0.10000000000E+01 0.  0.
<mgrwt>
<rscale>  0 0.12500173E+03</rscale>
<asrwt>0</asrwt>
<pdfrwt beam="2">  1        4 0.61528380E-01 0.12500173E+03</pdfrwt>
<pdfrwt beam="1">  1       -4 0.15026915E-02 0.12500173E+03</pdfrwt>
<totfact> 0.63617575E+03</totfact>
</mgrwt>
</event>
<event>
 5    1  0.3272646E-002  0.1250099E+03  0.7818608E-02  0.1235054E+00
         -4   -1    0    0    0  501 -0.00000000000E+00  0.00000000000E+00  0.45885330919E+02  0.45902902888E+02  0.12700000000E+01 0.  1.
          4   -1    0    0  501    0  0.00000000000E+00 -0.00000000000E+00 -0.85105531063E+02  0.85115006418E+02  0.12700000000E+01 0.  1.
         25    2    1    2    0    0  0.00000000000E+00  0.00000000000E+00 -0.39220200144E+02  0.13101790931E+03  0.12500987345E+03 0.  0.
    9000005    1    3    3    0    0  0.21083799505E+01 -0.57767959249E+02  0.52862395450E+01  0.58056237480E+02  0.10000000000E+01 0.  0.
    9000005    1    3    3    0    0 -0.21083799505E+01  0.57767959249E+02 -0.44506439689E+02  0.72961671826E+02  0.10000000000E+01 0.  0.
<mgrwt>
<rscale>  0 0.12500987E+03</rscale>
<asrwt>0</asrwt>
<pdfrwt beam="2">  1        4 0.13095239E-01 0.12500987E+03</pdfrwt>
<pdfrwt beam="1">  1       -4 0.70613623E-02 0.12500987E+03</pdfrwt>
<totfact> 0.10320406E+04</totfact>
</mgrwt>
</event>
<event>
 5    1  0.3272646E-002  0.1249918E+03  0.7818608E-02  0.1235082E+00
         -4   -1    0    0    0  501 -0.00000000000E+00  0.00000000000E+00  0.19255400008E+03  0.19255818821E+03  0.12700000000E+01 0. -1.
          4   -1    0    0  501    0  0.00000000000E+00 -0.00000000000E+00 -0.20259558313E+02  0.20299325187E+02  0.12700000000E+01 0. -1.
         25    2    1    2    0    0  0.00000000000E+00  0.00000000000E+00  0.17229444177E+03  0.21285751340E+03  0.12499178511E+03 0.  0.
    9000005    1    3    3    0    0 -0.14550534296E+02  0.60598945791E+00 -0.17337602803E+02  0.22664459898E+02  0.10000000000E+01 0.  0.
    9000005    1    3    3    0    0  0.14550534296E+02 -0.60598945791E+00  0.18963204457E+03  0.19019305350E+03  0.10000000000E+01 0.  0.
<mgrwt>
<rscale>  0 0.12499179E+03</rscale>
<asrwt>0</asrwt>
<pdfrwt beam="2">  1        4 0.31202362E-02 0.12499179E+03</pdfrwt>
<pdfrwt beam="1">  1       -4 0.29627074E-01 0.12499179E+03</pdfrwt>
<totfact> 0.88027488E+03</totfact>
</mgrwt>
</event>
<event>
 5    1  0.3272646E-002  0.1249999E+03  0.7818608E-02  0.1235069E+00
         -4   -1    0    0    0  501 -0.00000000000E+00  0.00000000000E+00  0.10941123969E+02  0.11014585498E+02  0.12700000000E+01 0.  1.
          4   -1    0    0  501    0  0.00000000000E+00 -0.00000000000E+00 -0.35575504511E+03  0.35575731197E+03  0.12700000000E+01 0.  1.
         25    2    1    2    0    0  0.00000000000E+00  0.00000000000E+00 -0.34481392114E+03  0.36677189747E+03  0.12499993824E+03 0.  0.
    9000005    1    3    3    0    0 -0.15975903950E+02 -0.78825766823E+01  0.33470751341E+01  0.18153992236E+02  0.10000000000E+01 0.  0.
    9000005    1    3    3    0    0  0.15975903950E+02  0.78825766823E+01 -0.34816099627E+03  0.34861790523E+03  0.10000000000E+01 0.  0.
<mgrwt>
<rscale>  0 0.12499994E+03</rscale>
<asrwt>0</asrwt>
<pdfrwt beam="2">  1        4 0.54737362E-01 0.12499994E+03</pdfrwt>
<pdfrwt beam="1">  1       -4 0.16890754E-02 0.12499994E+03</pdfrwt>
<totfact> 0.67918111E+03</totfact>
</mgrwt>
</event>
<event>
 5    1  0.3272646E-002  0.1249996E+03  0.7818608E-02  0.1235070E+00
          4   -1    0    0  501    0  0.00000000000E+00  0.00000000000E+00  0.12707665991E+03  0.12708300592E+03  0.12700000000E+01 0.  1.
         -4   -1    0    0    0  501 -0.00000000000E+00 -0.00000000000E+00 -0.30718863348E+02  0.30745104739E+02  0.12700000000E+01 0.  1.
         25    2    1    2    0    0  0.00000000000E+00  0.00000000000E+00  0.96357796565E+02  0.15782811066E+03  0.12499955023E+03 0.  0.
    9000005    1    3    3    0    0  0.17758446251E+01  0.56107171616E+02  0.13507049155E+02  0.57746070929E+02  0.10000000000E+01 0.  0.
    9000005    1    3    3    0    0 -0.17758446251E+01 -0.56107171616E+02  0.82850747411E+02  0.10008203973E+03  0.10000000000E+01 0.  0.
<mgrwt>
<rscale>  0 0.12499955E+03</rscale>
<asrwt>0</asrwt>
<pdfrwt beam="1">  1        4 0.19552762E-01 0.12499955E+03</pdfrwt>
<pdfrwt beam="2">  1       -4 0.47284857E-02 0.12499955E+03</pdfrwt>
<totfact> 0.97764138E+03</totfact>
</mgrwt>
</event>
<event>
 5    1  0.3272646E-002  0.1249947E+03  0.7818608E-02  0.1235078E+00
         -4   -1    0    0    0  501 -0.00000000000E+00  0.00000000000E+00  0.37318148742E+02  0.37339752617E+02  0.12700000000E+01 0.  1.
          4   -1    0    0  501    0  0.00000000000E+00 -0.00000000000E+00 -0.10460959953E+03  0.10461730839E+03  0.12700000000E+01 0.  1.
         25    2    1    2    0    0  0.00000000000E+00  0.00000000000E+00 -0.67291450791E+02  0.14195706101E+03  0.12499467117E+03 0.  0.
    9000005    1    3    3    0    0 -0.12455718534E+02 -0.26926646039E+02  0.28815233529E+02  0.41370362271E+02  0.10000000000E+01 0.  0.
    9000005    1    3    3    0    0  0.12455718534E+02  0.26926646039E+02 -0.96106684321E+02  0.10058669873E+03  0.10000000000E+01 0.  0.
<mgrwt>
<rscale>  0 0.12499467E+03</rscale>
<asrwt>0</asrwt>
<pdfrwt beam="2">  1        4 0.16096039E-01 0.12499467E+03</pdfrwt>
<pdfrwt beam="1">  1       -4 0.57435085E-02 0.12499467E+03</pdfrwt>
<totfact> 0.10094396E+04</totfact>
</mgrwt>
</event>
<event>
 5    1  0.3272646E-002  0.1250005E+03  0.7818608E-02  0.1235069E+00
          4   -1    0    0  501    0  0.00000000000E+00  0.00000000000E+00  0.32186110607E+02  0.32211156701E+02  0.12700000000E+01 0. -1.
         -4   -1    0    0    0  501 -0.00000000000E+00 -0.00000000000E+00 -0.12128978320E+03  0.12129643197E+03  0.12700000000E+01 0. -1.
         25    2    1    2    0    0  0.00000000000E+00  0.00000000000E+00 -0.89103672592E+02  0.15350758867E+03  0.12500046124E+03 0.  0.
    9000005    1    3    3    0    0 -0.43071592401E+02 -0.32600241890E+02 -0.83139796028E+02  0.99152224014E+02  0.10000000000E+01 0.  0.
    9000005    1    3    3    0    0  0.43071592401E+02  0.32600241890E+02 -0.59638765639E+01  0.54355364656E+02  0.10000000000E+01 0.  0.
<mgrwt>
<rscale>  0 0.12500046E+03</rscale>
<asrwt>0</asrwt>
<pdfrwt beam="1">  1        4 0.49541474E-02 0.12500046E+03</pdfrwt>
<pdfrwt beam="2">  1       -4 0.18662405E-01 0.12500046E+03</pdfrwt>
<totfact> 0.98608029E+03</totfact>
</mgrwt>
</event>
<event>
 5    1  0.3272646E-002  0.1250045E+03  0.7818608E-02  0.1235062E+00
         -4   -1    0    0    0  501 -0.00000000000E+00  0.00000000000E+00  0.32269174928E+02  0.32294156601E+02  0.12700000000E+01 0.  1.
          4   -1    0    0  501    0  0.00000000000E+00 -0.00000000000E+00 -0.12098561854E+03  0.12099228403E+03  0.12700000000E+01 0.  1.
         25    2    1    2    0    0  0.00000000000E+00  0.00000000000E+00 -0.88716443616E+02  0.15328644063E+03  0.12500450197E+03 0.  0.
    9000005    1    3    3    0    0 -0.35132395480E+02 -0.43400002061E+02 -0.78773766339E+02  0.96561646912E+02  0.10000000000E+01 0.  0.
    9000005    1    3    3    0    0  0.35132395480E+02  0.43400002061E+02 -0.99426772768E+01  0.56724793719E+02  0.10000000000E+01 0.  0.
<mgrwt>
<rscale>  0 0.12500450E+03</rscale>
<asrwt>0</asrwt>
<pdfrwt beam="2">  1        4 0.18615606E-01 0.12500450E+03</pdfrwt>
<pdfrwt beam="1">  1       -4 0.49669229E-02 0.12500450E+03</pdfrwt>
<totfact> 0.98642592E+03</totfact>
</mgrwt>
</event>
<event>
 5    1  0.3272646E-002  0.1249994E+03  0.7818608E-02  0.1235070E+00
         -4   -1    0    0    0  501 -0.00000000000E+00  0.00000000000E+00  0.12710472890E+02  0.12773762996E+02  0.12700000000E+01 0.  1.
          4   -1    0    0  501    0  0.00000000000E+00 -0.00000000000E+00 -0.30649470363E+03  0.30649733482E+03  0.12700000000E+01 0.  1.
         25    2    1    2    0    0  0.00000000000E+00  0.00000000000E+00 -0.29378423074E+03  0.31927109781E+03  0.12499943868E+03 0.  0.
    9000005    1    3    3    0    0 -0.59968879121E+01  0.27370375337E+02 -0.28956348487E+03  0.29091770637E+03  0.10000000000E+01 0.  0.
    9000005    1    3    3    0    0  0.59968879121E+01 -0.27370375337E+02 -0.42207458691E+01  0.28353391445E+02  0.10000000000E+01 0.  0.
<mgrwt>
<rscale>  0 0.12499944E+03</rscale>
<asrwt>0</asrwt>
<pdfrwt beam="2">  1        4 0.47158097E-01 0.12499944E+03</pdfrwt>
<pdfrwt beam="1">  1       -4 0.19605285E-02 0.12499944E+03</pdfrwt>
<totfact> 0.73243816E+03</totfact>
</mgrwt>
</event>
<event>
 5    1  0.3272646E-002  0.1250008E+03  0.7818608E-02  0.1235068E+00
         -4   -1    0    0    0  501 -0.00000000000E+00  0.00000000000E+00  0.13532816485E+02  0.13592278029E+02  0.12700000000E+01 0. -1.
          4   -1    0    0  501    0  0.00000000000E+00 -0.00000000000E+00 -0.28796046132E+03  0.28796326186E+03  0.12700000000E+01 0. -1.
         25    2    1    2    0    0  0.00000000000E+00  0.00000000000E+00 -0.27442764483E+03  0.30155553989E+03  0.12500084556E+03 0.  0.
    9000005    1    3    3    0    0 -0.44128486814E+02  0.40728240567E+01 -0.30919287996E+02  0.54045477281E+02  0.10000000000E+01 0.  0.
    9000005    1    3    3    0    0  0.44128486814E+02 -0.40728240567E+01 -0.24350835683E+03  0.24751006261E+03  0.10000000000E+01 0.  0.
<mgrwt>
<rscale>  0 0.12500085E+03</rscale>
<asrwt>0</asrwt>
<pdfrwt beam="2">  1        4 0.44306394E-01 0.12500085E+03</pdfrwt>
<pdfrwt beam="1">  1       -4 0.20867614E-02 0.12500085E+03</pdfrwt>
<totfact> 0.75402715E+03</totfact>
</mgrwt>
</event>
<event>
 5    1  0.3272646E-002  0.1250511E+03  0.7818608E-02  0.1234990E+00
         -4   -1    0    0    0  501 -0.00000000000E+00  0.00000000000E+00  0.63786180984E+01  0.65038195582E+01  0.12700000000E+01 0.  1.
          4   -1    0    0  501    0  0.00000000000E+00 -0.00000000000E+00 -0.60681542617E+03  0.60681675515E+03  0.12700000000E+01 0.  1.
         25    2    1    2    0    0  0.00000000000E+00  0.00000000000E+00 -0.60043680807E+03  0.61332057471E+03  0.12505105709E+03 0.  0.
    9000005    1    3    3    0    0 -0.60163967982E+02 -0.15395657670E+02 -0.26494904876E+03  0.27213182055E+03  0.10000000000E+01 0.  0.
    9000005    1    3    3    0    0  0.60163967982E+02  0.15395657670E+02 -0.33548775931E+03  0.34118875416E+03  0.10000000000E+01 0.  0.
<mgrwt>
<rscale>  0 0.12505106E+03</rscale>
<asrwt>0</asrwt>
<pdfrwt beam="2">  1        4 0.93365907E-01 0.12505106E+03</pdfrwt>
<pdfrwt beam="1">  1       -4 0.99105946E-03 0.12505106E+03</pdfrwt>
<totfact> 0.47983724E+03</totfact>
</mgrwt>
</event>
<event>
 5    1  0.3272646E-002  0.1250004E+03  0.7818608E-02  0.1235069E+00
          4   -1    0    0  501    0  0.00000000000E+00  0.00000000000E+00  0.20828038776E+02  0.20866722293E+02  0.12700000000E+01 0. -1.
         -4   -1    0    0    0  501 -0.00000000000E+00 -0.00000000000E+00 -0.18733416591E+03  0.18733847074E+03  0.12700000000E+01 0. -1.
         25    2    1    2    0    0  0.00000000000E+00  0.00000000000E+00 -0.16650612714E+03  0.20820519303E+03  0.12500044812E+03 0.  0.
    9000005    1    3    3    0    0 -0.22609163959E+02 -0.52376603425E+02 -0.12574457052E+03  0.13808395959E+03  0.10000000000E+01 0.  0.
    9000005    1    3    3    0    0  0.22609163959E+02  0.52376603425E+02 -0.40761556621E+02  0.70121233442E+02  0.10000000000E+01 0.  0.
<mgrwt>
<rscale>  0 0.12500045E+03</rscale>
<asrwt>0</asrwt>
<pdfrwt beam="1">  1        4 0.32076206E-02 0.12500045E+03</pdfrwt>
<pdfrwt beam="2">  1       -4 0.28823947E-01 0.12500045E+03</pdfrwt>
<totfact> 0.88768949E+03</totfact>
</mgrwt>
</event>
<event>
 5    1  0.3272646E-002  0.1249986E+03  0.7818608E-02  0.1235071E+00
         -4   -1    0    0    0  501 -0.00000000000E+00  0.00000000000E+00  0.11367935319E+03  0.11368644705E+03  0.12700000000E+01 0.  1.
          4   -1    0    0  501    0  0.00000000000E+00 -0.00000000000E+00 -0.34341331901E+02  0.34364807241E+02  0.12700000000E+01 0.  1.
         25    2    1    2    0    0  0.00000000000E+00  0.00000000000E+00  0.79338021291E+02  0.14805125429E+03  0.12499860909E+03 0.  0.
    9000005    1    3    3    0    0  0.58497977527E+02  0.15173060292E+02  0.20832289445E+02  0.63931364891E+02  0.10000000000E+01 0.  0.
    9000005    1    3    3    0    0 -0.58497977527E+02 -0.15173060292E+02  0.58505731845E+02  0.84119889397E+02  0.10000000000E+01 0.  0.
<mgrwt>
<rscale>  0 0.12499861E+03</rscale>
<asrwt>0</asrwt>
<pdfrwt beam="2">  1        4 0.52856334E-02 0.12499861E+03</pdfrwt>
<pdfrwt beam="1">  1       -4 0.17491483E-01 0.12499861E+03</pdfrwt>
<totfact> 0.99696700E+03</totfact>
</mgrwt>
</event>
<event>
 5    1  0.3272646E-002  0.1250030E+03  0.7818608E-02  0.1235065E+00
          4   -1    0    0  501    0  0.00000000000E+00  0.00000000000E+00  0.55688106798E+02  0.55702586463E+02  0.12700000000E+01 0.  1.
         -4   -1    0    0    0  501 -0.00000000000E+00 -0.00000000000E+00 -0.70119147370E+02  0.70130647565E+02  0.12700000000E+01 0.  1.
         25    2    1    2    0    0  0.00000000000E+00  0.00000000000E+00 -0.14431040573E+02  0.12583323403E+03  0.12500299138E+03 0.  0.
    9000005    1    3    3    0    0  0.37664230329E+02 -0.15017631497E+01 -0.57392220110E+02  0.68671074464E+02  0.10000000000E+01 0.  0.
    9000005    1    3    3    0    0 -0.37664230329E+02  0.15017631497E+01  0.42961179538E+02  0.57162159565E+02  0.10000000000E+01 0.  0.
<mgrwt>
<rscale>  0 0.12500299E+03</rscale>
<asrwt>0</asrwt>
<pdfrwt beam="1">  1        4 0.85693995E-02 0.12500299E+03</pdfrwt>
<pdfrwt beam="2">  1       -4 0.10789560E-01 0.12500299E+03</pdfrwt>
<totfact> 0.10433911E+04</totfact>
</mgrwt>
</event>
<event>
 4    1  0.3702184E-002  0.6416430E+02  0.7818608E-02  0.1381143E+00
         -4   -1    0    0    0  501 -0.00000000000E+00  0.00000000000E+00  0.30470577010E+02  0.30497032041E+02  0.12700000000E+01 0. -1.
          4   -1    0    0  501    0  0.00000000000E+00 -0.00000000000E+00 -0.33725893322E+02  0.33749796746E+02  0.12700000000E+01 0. -1.
    9000005    1    1    2    0    0  0.98222601286E+01 -0.25339342107E+01  0.28831309470E+02  0.30580091929E+02  0.10000000000E+01 0.  0.
    9000005    1    1    2    0    0 -0.98222601286E+01  0.25339342107E+01 -0.32086625782E+02  0.33666736859E+02  0.10000000000E+01 0.  0.
<mgrwt>
<rscale>  0 0.64164304E+02</rscale>
<asrwt>0</asrwt>
<pdfrwt beam="2">  1        4 0.51924727E-02 0.64164304E+02</pdfrwt>
<pdfrwt beam="1">  1       -4 0.46916548E-02 0.64164304E+02</pdfrwt>
<totfact> 0.73454534E+04</totfact>
</mgrwt>
</event>
<event>
 5    1  0.3272646E-002  0.1250013E+03  0.7818608E-02  0.1235067E+00
          4   -1    0    0  501    0  0.00000000000E+00  0.00000000000E+00  0.30666932386E+03  0.30667195356E+03  0.12700000000E+01 0.  1.
         -4   -1    0    0    0  501 -0.00000000000E+00 -0.00000000000E+00 -0.12703581067E+02  0.12766905339E+02  0.12700000000E+01 0.  1.
         25    2    1    2    0    0  0.00000000000E+00  0.00000000000E+00  0.29396574280E+03  0.31943885890E+03  0.12500130653E+03 0.  0.
    9000005    1    3    3    0    0 -0.43697239787E+02  0.30777631280E+02  0.22973560049E+03  0.23587318094E+03  0.10000000000E+01 0.  0.
    9000005    1    3    3    0    0  0.43697239787E+02 -0.30777631280E+02  0.64230142305E+02  0.83565677959E+02  0.10000000000E+01 0.  0.
<mgrwt>
<rscale>  0 0.12500131E+03</rscale>
<asrwt>0</asrwt>
<pdfrwt beam="1">  1        4 0.47184966E-01 0.12500131E+03</pdfrwt>
<pdfrwt beam="2">  1       -4 0.19594706E-02 0.12500131E+03</pdfrwt>
<totfact> 0.73220795E+03</totfact>
</mgrwt>
</event>
<event>
 5    1  0.3272646E-002  0.1249777E+03  0.7818608E-02  0.1235104E+00
         -4   -1    0    0    0  501 -0.00000000000E+00  0.00000000000E+00  0.78742091108E+02  0.78752332106E+02  0.12700000000E+01 0. -1.
          4   -1    0    0  501    0  0.00000000000E+00 -0.00000000000E+00 -0.49568849383E+02  0.49585116004E+02  0.12700000000E+01 0. -1.
         25    2    1    2    0    0  0.00000000000E+00  0.00000000000E+00  0.29173241726E+02  0.12833744811E+03  0.12497768823E+03 0.  0.
    9000005    1    3    3    0    0  0.26514294139E+02  0.40387834641E+02 -0.26097523099E+02  0.54920539806E+02  0.10000000000E+01 0.  0.
    9000005    1    3    3    0    0 -0.26514294139E+02 -0.40387834641E+02  0.55270764824E+02  0.73416908304E+02  0.10000000000E+01 0.  0.
<mgrwt>
<rscale>  0 0.12497769E+03</rscale>
<asrwt>0</asrwt>
<pdfrwt beam="2">  1        4 0.76280159E-02 0.12497769E+03</pdfrwt>
<pdfrwt beam="1">  1       -4 0.12116207E-01 0.12497769E+03</pdfrwt>
<totfact> 0.10385437E+04</totfact>
</mgrwt>
</event>
<event>
 5    1  0.3272646E-002  0.1250008E+03  0.7818608E-02  0.1235068E+00
          4   -1    0    0  501    0  0.00000000000E+00  0.00000000000E+00  0.28328867866E+03  0.28329152539E+03  0.12700000000E+01 0. -1.
         -4   -1    0    0    0  501 -0.00000000000E+00 -0.00000000000E+00 -0.13756949048E+02  0.13815445961E+02  0.12700000000E+01 0. -1.
         25    2    1    2    0    0  0.00000000000E+00  0.00000000000E+00  0.26953172961E+03  0.29710697135E+03  0.12500079663E+03 0.  0.
    9000005    1    3    3    0    0 -0.53735536002E+01 -0.21803963816E+02 -0.38471902383E+01  0.22805455249E+02  0.10000000000E+01 0.  0.
    9000005    1    3    3    0    0  0.53735536002E+01  0.21803963816E+02  0.27337891985E+03  0.27430151610E+03  0.10000000000E+01 0.  0.
<mgrwt>
<rscale>  0 0.12500080E+03</rscale>
<asrwt>0</asrwt>
<pdfrwt beam="1">  1        4 0.43587594E-01 0.12500080E+03</pdfrwt>
<pdfrwt beam="2">  1       -4 0.21211723E-02 0.12500080E+03</pdfrwt>
<totfact> 0.75961827E+03</totfact>
</mgrwt>
</event>
<event>
 5    1  0.3272646E-002  0.1249980E+03  0.7818608E-02  0.1235072E+00
         -4   -1    0    0    0  501 -0.00000000000E+00  0.00000000000E+00  0.49780524515E+01  0.51374999961E+01  0.12700000000E+01 0. -1.
          4   -1    0    0  501    0  0.00000000000E+00 -0.00000000000E+00 -0.77214030030E+03  0.77214134474E+03  0.12700000000E+01 0. -1.
         25    2    1    2    0    0  0.00000000000E+00  0.00000000000E+00 -0.76716224785E+03  0.77727884473E+03  0.12499795175E+03 0.  0.
    9000005    1    3    3    0    0 -0.55899425782E+02 -0.18423320384E+02 -0.51415980948E+03  0.51751857379E+03  0.10000000000E+01 0.  0.
    9000005    1    3    3    0    0  0.55899425782E+02  0.18423320384E+02 -0.25300243838E+03  0.25976027094E+03  0.10000000000E+01 0.  0.
<mgrwt>
<rscale>  0 0.12499795E+03</rscale>
<asrwt>0</asrwt>
<pdfrwt beam="2">  1        4 0.11880307E+00 0.12499795E+03</pdfrwt>
<pdfrwt beam="1">  1       -4 0.77820037E-03 0.12499795E+03</pdfrwt>
<totfact> 0.39301179E+03</totfact>
</mgrwt>
</event>
<event>
 5    1  0.3272646E-002  0.1249991E+03  0.7818608E-02  0.1235071E+00
          4   -1    0    0  501    0  0.00000000000E+00  0.00000000000E+00  0.16386896372E+03  0.16387388496E+03  0.12700000000E+01 0.  1.
         -4   -1    0    0    0  501 -0.00000000000E+00 -0.00000000000E+00 -0.23815117725E+02  0.23848956629E+02  0.12700000000E+01 0.  1.
         25    2    1    2    0    0  0.00000000000E+00  0.00000000000E+00  0.14005384600E+03  0.18772284159E+03  0.12499914190E+03 0.  0.
    9000005    1    3    3    0    0 -0.38472963695E+02 -0.24568992485E+02  0.59337451405E+01  0.46043606055E+02  0.10000000000E+01 0.  0.
    9000005    1    3    3    0    0  0.38472963695E+02  0.24568992485E+02  0.13412010086E+03  0.14167923553E+03  0.10000000000E+01 0.  0.
<mgrwt>
<rscale>  0 0.12499914E+03</rscale>
<asrwt>0</asrwt>
<pdfrwt beam="1">  1        4 0.25213591E-01 0.12499914E+03</pdfrwt>
<pdfrwt beam="2">  1       -4 0.36668458E-02 0.12499914E+03</pdfrwt>
<totfact> 0.92246822E+03</totfact>
</mgrwt>
</event>
<event>
 5    1  0.3272646E-002  0.1250025E+03  0.7818608E-02  0.1235065E+00
         -4   -1    0    0    0  501 -0.00000000000E+00  0.00000000000E+00  0.17690451681E+02  0.17735979834E+02  0.12700000000E+01 0.  1.
          4   -1    0    0  501    0  0.00000000000E+00 -0.00000000000E+00 -0.22048872389E+03  0.22049238142E+03  0.12700000000E+01 0.  1.
         25    2    1    2    0    0  0.00000000000E+00  0.00000000000E+00 -0.20279827221E+03  0.23822836125E+03  0.12500245155E+03 0.  0.
    9000005    1    3    3    0    0  0.50802529187E+01 -0.21799435326E+02  0.97980701731E+01  0.24454580949E+02  0.10000000000E+01 0.  0.
    9000005    1    3    3    0    0 -0.50802529187E+01  0.21799435326E+02 -0.21259634238E+03  0.21377378030E+03  0.10000000000E+01 0.  0.
<mgrwt>
<rscale>  0 0.12500245E+03</rscale>
<asrwt>0</asrwt>
<pdfrwt beam="2">  1        4 0.33925124E-01 0.12500245E+03</pdfrwt>
<pdfrwt beam="1">  1       -4 0.27253916E-02 0.12500245E+03</pdfrwt>
<totfact> 0.84057337E+03</totfact>
</mgrwt>
</event>
<event>
 5    1  0.3272646E-002  0.1250025E+03  0.7818608E-02  0.1235065E+00
         -4   -1    0    0    0  501 -0.00000000000E+00  0.00000000000E+00  0.16207603016E+02  0.16257284384E+02  0.12700000000E+01 0. -1.
          4   -1    0    0  501    0  0.00000000000E+00 -0.00000000000E+00 -0.24060295370E+03  0.24060630546E+03  0.12700000000E+01 0. -1.
         25    2    1    2    0    0  0.00000000000E+00  0.00000000000E+00 -0.22439535068E+03  0.25686358984E+03  0.12500252150E+03 0.  0.
    9000005    1    3    3    0    0  0.59315377301E+02 -0.15425030223E+02 -0.13729416337E+03  0.15035602029E+03  0.10000000000E+01 0.  0.
    9000005    1    3    3    0    0 -0.59315377301E+02  0.15425030223E+02 -0.87101187313E+02  0.10650756956E+03  0.10000000000E+01 0.  0.
<mgrwt>
<rscale>  0 0.12500252E+03</rscale>
<asrwt>0</asrwt>
<pdfrwt beam="2">  1        4 0.37019916E-01 0.12500252E+03</pdfrwt>
<pdfrwt beam="1">  1       -4 0.24975570E-02 0.12500252E+03</pdfrwt>
<totfact> 0.81343670E+03</totfact>
</mgrwt>
</event>
<event>
 5    1  0.3272646E-002  0.1250017E+03  0.7818608E-02  0.1235067E+00
         -4   -1    0    0    0  501 -0.00000000000E+00  0.00000000000E+00  0.26559819261E+02  0.26590165460E+02  0.12700000000E+01 0.  1.
          4   -1    0    0  501    0  0.00000000000E+00 -0.00000000000E+00 -0.14696064011E+03  0.14696612753E+03  0.12700000000E+01 0.  1.
         25    2    1    2    0    0  0.00000000000E+00  0.00000000000E+00 -0.12040082085E+03  0.17355629299E+03  0.12500171669E+03 0.  0.
    9000005    1    3    3    0    0  0.32644577554E+02 -0.53287370882E+02 -0.59671794374E+02  0.86411430859E+02  0.10000000000E+01 0.  0.
    9000005    1    3    3    0    0 -0.32644577554E+02  0.53287370882E+02 -0.60729026471E+02  0.87144862128E+02  0.10000000000E+01 0.  0.
<mgrwt>
<rscale>  0 0.12500172E+03</rscale>
<asrwt>0</asrwt>
<pdfrwt beam="2">  1        4 0.22612085E-01 0.12500172E+03</pdfrwt>
<pdfrwt beam="1">  1       -4 0.40888826E-02 0.12500172E+03</pdfrwt>
<totfact> 0.94786269E+03</totfact>
</mgrwt>
</event>
<event>
 5    1  0.3272646E-002  0.1250011E+03  0.7818608E-02  0.1235068E+00
         -4   -1    0    0    0  501 -0.00000000000E+00  0.00000000000E+00  0.30287550201E+01  0.32842437443E+01  0.12700000000E+01 0. -1.
          4   -1    0    0  501    0  0.00000000000E+00 -0.00000000000E+00 -0.12372915729E+04  0.12372922247E+04  0.12700000000E+01 0. -1.
         25    2    1    2    0    0  0.00000000000E+00  0.00000000000E+00 -0.12342628179E+04  0.12405764685E+04  0.12500108169E+03 0.  0.
    9000005    1    3    3    0    0 -0.43171179845E+02 -0.83354483112E+01 -0.17640120111E+03  0.18180102920E+03  0.10000000000E+01 0.  0.
    9000005    1    3    3    0    0  0.43171179845E+02  0.83354483112E+01 -0.10578616168E+04  0.10587754393E+04  0.10000000000E+01 0.  0.
<mgrwt>
<rscale>  0 0.12500108E+03</rscale>
<asrwt>0</asrwt>
<pdfrwt beam="2">  1        4 0.19037187E+00 0.12500108E+03</pdfrwt>
<pdfrwt beam="1">  1       -4 0.48566641E-03 0.12500108E+03</pdfrwt>
<totfact> 0.23674180E+03</totfact>
</mgrwt>
</event>
<event>
 5    1  0.3272646E-002  0.1249993E+03  0.7818608E-02  0.1235070E+00
          4   -1    0    0  501    0  0.00000000000E+00  0.00000000000E+00  0.29890977413E+01  0.32477077003E+01  0.12700000000E+01 0.  1.
         -4   -1    0    0    0  501 -0.00000000000E+00 -0.00000000000E+00 -0.12523713204E+04  0.12523719644E+04  0.12700000000E+01 0.  1.
         25    2    1    2    0    0  0.00000000000E+00  0.00000000000E+00 -0.12493822227E+04  0.12556196721E+04  0.12499929006E+03 0.  0.
    9000005    1    3    3    0    0 -0.97271737332E+01  0.61047330884E+02 -0.53273060240E+03  0.53630615254E+03  0.10000000000E+01 0.  0.
    9000005    1    3    3    0    0  0.97271737332E+01 -0.61047330884E+02 -0.71665162030E+03  0.71931351954E+03  0.10000000000E+01 0.  0.
<mgrwt>
<rscale>  0 0.12499929E+03</rscale>
<asrwt>0</asrwt>
<pdfrwt beam="1">  1        4 0.47980480E-03 0.12499929E+03</pdfrwt>
<pdfrwt beam="2">  1       -4 0.19269205E+00 0.12499929E+03</pdfrwt>
<totfact> 0.23301218E+03</totfact>
</mgrwt>
</event>
<event>
 5    1  0.3272646E-002  0.1250032E+03  0.7818608E-02  0.1235064E+00
         -4   -1    0    0    0  501 -0.00000000000E+00  0.00000000000E+00  0.24065011826E+03  0.24065346937E+03  0.12700000000E+01 0. -1.
          4   -1    0    0  501    0  0.00000000000E+00 -0.00000000000E+00 -0.16204592935E+02  0.16254283503E+02  0.12700000000E+01 0. -1.
         25    2    1    2    0    0  0.00000000000E+00  0.00000000000E+00  0.22444552532E+03  0.25690775287E+03  0.12500319855E+03 0.  0.
    9000005    1    3    3    0    0 -0.20957621608E+02 -0.40693668381E+02  0.24779618288E+02  0.52059831274E+02  0.10000000000E+01 0.  0.
    9000005    1    3    3    0    0  0.20957621608E+02  0.40693668381E+02  0.19966590704E+03  0.20484792160E+03  0.10000000000E+01 0.  0.
<mgrwt>
<rscale>  0 0.12500320E+03</rscale>
<asrwt>0</asrwt>
<pdfrwt beam="2">  1        4 0.24970944E-02 0.12500320E+03</pdfrwt>
<pdfrwt beam="1">  1       -4 0.37027176E-01 0.12500320E+03</pdfrwt>
<totfact> 0.81336187E+03</totfact>
</mgrwt>
</event>
<event>
 5    1  0.3272646E-002  0.1249980E+03  0.7818608E-02  0.1235072E+00
          4   -1    0    0  501    0  0.00000000000E+00  0.00000000000E+00  0.36156514797E+02  0.36178812339E+02  0.12700000000E+01 0.  1.
         -4   -1    0    0    0  501 -0.00000000000E+00 -0.00000000000E+00 -0.10797450542E+03  0.10798197405E+03  0.12700000000E+01 0.  1.
         25    2    1    2    0    0  0.00000000000E+00  0.00000000000E+00 -0.71817990623E+02  0.14416078639E+03  0.12499803421E+03 0.  0.
    9000005    1    3    3    0    0  0.31353060062E+02  0.10834999211E+02 -0.96987496488E+02  0.10250846823E+03  0.10000000000E+01 0.  0.
    9000005    1    3    3    0    0 -0.31353060062E+02 -0.10834999211E+02  0.25169505866E+02  0.41652318167E+02  0.10000000000E+01 0.  0.
<mgrwt>
<rscale>  0 0.12499803E+03</rscale>
<asrwt>0</asrwt>
<pdfrwt beam="1">  1        4 0.55648305E-02 0.12499803E+03</pdfrwt>
<pdfrwt beam="2">  1       -4 0.16613752E-01 0.12499803E+03</pdfrwt>
<totfact> 0.10048512E+04</totfact>
</mgrwt>
</event>
<event>
 5    1  0.3272646E-002  0.1250020E+03  0.7818608E-02  0.1235066E+00
         -4   -1    0    0    0  501 -0.00000000000E+00  0.00000000000E+00  0.20223892255E+02  0.20263729122E+02  0.12700000000E+01 0. -1.
          4   -1    0    0  501    0  0.00000000000E+00 -0.00000000000E+00 -0.19292440662E+03  0.19292858671E+03  0.12700000000E+01 0. -1.
         25    2    1    2    0    0  0.00000000000E+00  0.00000000000E+00 -0.17270051437E+03  0.21319231583E+03  0.12500198346E+03 0.  0.
    9000005    1    3    3    0    0  0.34543121905E+02  0.29530739112E+02 -0.15951018166E+03  0.16586075448E+03  0.10000000000E+01 0.  0.
    9000005    1    3    3    0    0 -0.34543121905E+02 -0.29530739112E+02 -0.13190332710E+02  0.47331561356E+02  0.10000000000E+01 0.  0.
<mgrwt>
<rscale>  0 0.12500198E+03</rscale>
<asrwt>0</asrwt>
<pdfrwt beam="2">  1        4 0.29684063E-01 0.12500198E+03</pdfrwt>
<pdfrwt beam="1">  1       -4 0.31147541E-02 0.12500198E+03</pdfrwt>
<totfact> 0.87953275E+03</totfact>
</mgrwt>
</event>
<event>
 5    1  0.3272646E-002  0.1249994E+03  0.7818608E-02  0.1235070E+00
          4   -1    0    0  501    0  0.00000000000E+00  0.00000000000E+00  0.33101393967E+02  0.33125748030E+02  0.12700000000E+01 0.  1.
         -4   -1    0    0    0  501 -0.00000000000E+00 -0.00000000000E+00 -0.11793626695E+03  0.11794310477E+03  0.12700000000E+01 0.  1.
         25    2    1    2    0    0  0.00000000000E+00  0.00000000000E+00 -0.84834872985E+02  0.15106885280E+03  0.12499937044E+03 0.  0.
    9000005    1    3    3    0    0 -0.35997861026E+02 -0.31164709541E+02 -0.91332283039E+02  0.10300325745E+03  0.10000000000E+01 0.  0.
    9000005    1    3    3    0    0  0.35997861026E+02  0.31164709541E+02  0.64974100536E+01  0.48065595353E+02  0.10000000000E+01 0.  0.
<mgrwt>
<rscale>  0 0.12499937E+03</rscale>
<asrwt>0</asrwt>
<pdfrwt beam="1">  1        4 0.50949216E-02 0.12499937E+03</pdfrwt>
<pdfrwt beam="2">  1       -4 0.18146440E-01 0.12499937E+03</pdfrwt>
<totfact> 0.99092468E+03</totfact>
</mgrwt>
</event>
<event>
 5    1  0.3272646E-002  0.1249952E+03  0.7818608E-02  0.1235077E+00
          4   -1    0    0  501    0  0.00000000000E+00  0.00000000000E+00  0.28505132753E+02  0.28533410123E+02  0.12700000000E+01 0. -1.
         -4   -1    0    0    0  501 -0.00000000000E+00 -0.00000000000E+00 -0.13692711138E+03  0.13693300088E+03  0.12700000000E+01 0. -1.
         25    2    1    2    0    0  0.00000000000E+00  0.00000000000E+00 -0.10842197862E+03  0.16546641100E+03  0.12499523080E+03 0.  0.
    9000005    1    3    3    0    0  0.19539456451E+02 -0.35051607714E+02  0.92000430131E+01  0.41183083337E+02  0.10000000000E+01 0.  0.
    9000005    1    3    3    0    0 -0.19539456451E+02  0.35051607714E+02 -0.11762202164E+03  0.12428332767E+03  0.10000000000E+01 0.  0.
<mgrwt>
<rscale>  0 0.12499523E+03</rscale>
<asrwt>0</asrwt>
<pdfrwt beam="1">  1        4 0.43880333E-02 0.12499523E+03</pdfrwt>
<pdfrwt beam="2">  1       -4 0.21068337E-01 0.12499523E+03</pdfrwt>
<totfact> 0.96309452E+03</totfact>
</mgrwt>
</event>
<event>
 5    1  0.3272646E-002  0.1250016E+03  0.7818608E-02  0.1235067E+00
         -4   -1    0    0    0  501 -0.00000000000E+00  0.00000000000E+00  0.52396970363E+03  0.52397124275E+03  0.12700000000E+01 0.  1.
          4   -1    0    0  501    0  0.00000000000E+00 -0.00000000000E+00 -0.73996471648E+01  0.75078411121E+01  0.12700000000E+01 0.  1.
         25    2    1    2    0    0  0.00000000000E+00  0.00000000000E+00  0.51657005647E+03  0.53147908386E+03  0.12500157335E+03 0.  0.
    9000005    1    3    3    0    0 -0.27026258310E+02  0.36132685156E+02  0.44211529910E+03  0.44441301429E+03  0.10000000000E+01 0.  0.
    9000005    1    3    3    0    0  0.27026258310E+02 -0.36132685156E+02  0.74454757370E+02  0.87066069568E+02  0.10000000000E+01 0.  0.
<mgrwt>
<rscale>  0 0.12500157E+03</rscale>
<asrwt>0</asrwt>
<pdfrwt beam="2">  1        4 0.11468488E-02 0.12500157E+03</pdfrwt>
<pdfrwt beam="1">  1       -4 0.80619129E-01 0.12500157E+03</pdfrwt>
<totfact> 0.53500270E+03</totfact>
</mgrwt>
</event>
<event>
 5    1  0.3272646E-002  0.1250010E+03  0.7818608E-02  0.1235068E+00
         -4   -1    0    0    0  501 -0.00000000000E+00  0.00000000000E+00  0.11392097000E+02  0.11462668715E+02  0.12700000000E+01 0. -1.
          4   -1    0    0  501    0  0.00000000000E+00 -0.00000000000E+00 -0.34176601502E+03  0.34176837467E+03  0.12700000000E+01 0. -1.
         25    2    1    2    0    0  0.00000000000E+00  0.00000000000E+00 -0.33037391802E+03  0.35323104338E+03  0.12500097720E+03 0.  0.
    9000005    1    3    3    0    0  0.14914986601E+02 -0.53067764782E+02 -0.81996890171E+02  0.98808574942E+02  0.10000000000E+01 0.  0.
    9000005    1    3    3    0    0 -0.14914986601E+02  0.53067764782E+02 -0.24837702785E+03  0.25442246844E+03  0.10000000000E+01 0.  0.
<mgrwt>
<rscale>  0 0.12500098E+03</rscale>
<asrwt>0</asrwt>
<pdfrwt beam="2">  1        4 0.52584989E-01 0.12500098E+03</pdfrwt>
<pdfrwt beam="1">  1       -4 0.17582407E-02 0.12500098E+03</pdfrwt>
<totfact> 0.69369062E+03</totfact>
</mgrwt>
</event>
<event>
 5    1  0.3272646E-002  0.1250003E+03  0.7818608E-02  0.1235069E+00
         -4   -1    0    0    0  501 -0.00000000000E+00  0.00000000000E+00  0.60927529912E+02  0.60940764692E+02  0.12700000000E+01 0. -1.
          4   -1    0    0  501    0  0.00000000000E+00 -0.00000000000E+00 -0.64086877172E+02  0.64099459636E+02  0.12700000000E+01 0. -1.
         25    2    1    2    0    0  0.00000000000E+00  0.00000000000E+00 -0.31593472599E+01  0.12504022433E+03  0.12500030490E+03 0.  0.
    9000005    1    3    3    0    0 -0.53054838218E+02  0.23591423503E+02  0.21533936972E+02  0.61936108715E+02  0.10000000000E+01 0.  0.
    9000005    1    3    3    0    0  0.53054838218E+02 -0.23591423503E+02 -0.24693284231E+02  0.63104115614E+02  0.10000000000E+01 0.  0.
<mgrwt>
<rscale>  0 0.12500030E+03</rscale>
<asrwt>0</asrwt>
<pdfrwt beam="2">  1        4 0.98615056E-02 0.12500030E+03</pdfrwt>
<pdfrwt beam="1">  1       -4 0.93754520E-02 0.12500030E+03</pdfrwt>
<totfact> 0.10451917E+04</totfact>
</mgrwt>
</event>
<event>
 5    1  0.3272646E-002  0.1250033E+03  0.7818608E-02  0.1235064E+00
          4   -1    0    0  501    0  0.00000000000E+00  0.00000000000E+00  0.66894958859E+03  0.66895079413E+03  0.12700000000E+01 0. -1.
         -4   -1    0    0    0  501 -0.00000000000E+00 -0.00000000000E+00 -0.57694082223E+01  0.59075351235E+01  0.12700000000E+01 0. -1.
         25    2    1    2    0    0  0.00000000000E+00  0.00000000000E+00  0.66318018037E+03  0.67485832926E+03  0.12500325171E+03 0.  0.
    9000005    1    3    3    0    0  0.15665549118E+00  0.62492162265E+02  0.32944177013E+03  0.33531802038E+03  0.10000000000E+01 0.  0.
    9000005    1    3    3    0    0 -0.15665549118E+00 -0.62492162265E+02  0.33373841023E+03  0.33954030888E+03  0.10000000000E+01 0.  0.
<mgrwt>
<rscale>  0 0.12500325E+03</rscale>
<asrwt>0</asrwt>
<pdfrwt beam="1">  1        4 0.10292608E+00 0.12500325E+03</pdfrwt>
<pdfrwt beam="2">  1       -4 0.89831881E-03 0.12500325E+03</pdfrwt>
<totfact> 0.44444357E+03</totfact>
</mgrwt>
</event>
<event>
 5    1  0.3272646E-002  0.1249995E+03  0.7818608E-02  0.1235070E+00
          4   -1    0    0  501    0  0.00000000000E+00  0.00000000000E+00  0.26856491238E+02  0.26886502592E+02  0.12700000000E+01 0.  1.
         -4   -1    0    0    0  501 -0.00000000000E+00 -0.00000000000E+00 -0.14533391637E+03  0.14533946521E+03  0.12700000000E+01 0.  1.
         25    2    1    2    0    0  0.00000000000E+00  0.00000000000E+00 -0.11847742514E+03  0.17222596781E+03  0.12499953488E+03 0.  0.
    9000005    1    3    3    0    0  0.59012672404E+02 -0.92281253579E+01 -0.33924156754E+02  0.68698633271E+02  0.10000000000E+01 0.  0.
    9000005    1    3    3    0    0 -0.59012672404E+02  0.92281253579E+01 -0.84553268382E+02  0.10352733453E+03  0.10000000000E+01 0.  0.
<mgrwt>
<rscale>  0 0.12499953E+03</rscale>
<asrwt>0</asrwt>
<pdfrwt beam="1">  1        4 0.41345033E-02 0.12499953E+03</pdfrwt>
<pdfrwt beam="2">  1       -4 0.22361799E-01 0.12499953E+03</pdfrwt>
<totfact> 0.95036359E+03</totfact>
</mgrwt>
</event>
<event>
 5    1  0.3272646E-002  0.1249999E+03  0.7818608E-02  0.1235069E+00
         -4   -1    0    0    0  501 -0.00000000000E+00  0.00000000000E+00  0.10544886264E+03  0.10545651014E+03  0.12700000000E+01 0.  1.
          4   -1    0    0  501    0  0.00000000000E+00 -0.00000000000E+00 -0.37024097423E+02  0.37045872779E+02  0.12700000000E+01 0.  1.
         25    2    1    2    0    0  0.00000000000E+00  0.00000000000E+00  0.68424765216E+02  0.14250238292E+03  0.12499992258E+03 0.  0.
    9000005    1    3    3    0    0  0.50035339613E+02  0.36739685663E+02  0.25999060493E+02  0.67307435394E+02  0.10000000000E+01 0.  0.
    9000005    1    3    3    0    0 -0.50035339613E+02 -0.36739685663E+02  0.42425704724E+02  0.75194947530E+02  0.10000000000E+01 0.  0.
<mgrwt>
<rscale>  0 0.12499992E+03</rscale>
<asrwt>0</asrwt>
<pdfrwt beam="2">  1        4 0.56982784E-02 0.12499992E+03</pdfrwt>
<pdfrwt beam="1">  1       -4 0.16225165E-01 0.12499992E+03</pdfrwt>
<totfact> 0.10082001E+04</totfact>
</mgrwt>
</event>
<event>
 5    1  0.3272646E-002  0.1250002E+03  0.7818608E-02  0.1235069E+00
         -4   -1    0    0    0  501 -0.00000000000E+00  0.00000000000E+00  0.22129809951E+03  0.22130174366E+03  0.12700000000E+01 0. -1.
          4   -1    0    0  501    0  0.00000000000E+00 -0.00000000000E+00 -0.17624952380E+02  0.17670649292E+02  0.12700000000E+01 0. -1.
         25    2    1    2    0    0  0.00000000000E+00  0.00000000000E+00  0.20367314713E+03  0.23897239295E+03  0.12500021492E+03 0.  0.
    9000005    1    3    3    0    0 -0.29988310993E+02 -0.33062055254E+02  0.18545060221E+03  0.19074937524E+03  0.10000000000E+01 0.  0.
    9000005    1    3    3    0    0  0.29988310993E+02  0.33062055254E+02  0.18222544919E+02  0.48223017711E+02  0.10000000000E+01 0.  0.
<mgrwt>
<rscale>  0 0.12500021E+03</rscale>
<asrwt>0</asrwt>
<pdfrwt beam="2">  1        4 0.27153264E-02 0.12500021E+03</pdfrwt>
<pdfrwt beam="1">  1       -4 0.34049659E-01 0.12500021E+03</pdfrwt>
<totfact> 0.83950244E+03</totfact>
</mgrwt>
</event>
<event>
 5    1  0.3272646E-002  0.1249939E+03  0.7818608E-02  0.1235079E+00
          4   -1    0    0  501    0  0.00000000000E+00  0.00000000000E+00  0.23521973192E+04  0.23521976621E+04  0.12700000000E+01 0.  1.
         -4   -1    0    0    0  501 -0.00000000000E+00 -0.00000000000E+00 -0.14172951678E+01  0.19030569074E+01  0.12700000000E+01 0.  1.
         25    2    1    2    0    0  0.00000000000E+00  0.00000000000E+00  0.23507800241E+04  0.23541007190E+04  0.12499389427E+03 0.  0.
    9000005    1    3    3    0    0  0.61624583499E+01  0.46440248125E+02  0.39653043105E+03  0.39928943799E+03  0.10000000000E+01 0.  0.
    9000005    1    3    3    0    0 -0.61624583499E+01 -0.46440248125E+02  0.19542495930E+04  0.19548112810E+04  0.10000000000E+01 0.  0.
<mgrwt>
<rscale>  0 0.12499389E+03</rscale>
<asrwt>0</asrwt>
<pdfrwt beam="1">  1        4 0.36191185E+00 0.12499389E+03</pdfrwt>
<pdfrwt beam="2">  1       -4 0.25543952E-03 0.12499389E+03</pdfrwt>
<totfact> 0.59199495E+02</totfact>
</mgrwt>
</event>
<event>
 5    1  0.3272646E-002  0.1250032E+03  0.7818608E-02  0.1235064E+00
          4   -1    0    0  501    0  0.00000000000E+00  0.00000000000E+00  0.16539812067E+02  0.16588498522E+02  0.12700000000E+01 0. -1.
         -4   -1    0    0    0  501 -0.00000000000E+00 -0.00000000000E+00 -0.23578713455E+03  0.23579055477E+03  0.12700000000E+01 0. -1.
         25    2    1    2    0    0  0.00000000000E+00  0.00000000000E+00 -0.21924732249E+03  0.25237905330E+03  0.12500319246E+03 0.  0.
    9000005    1    3    3    0    0  0.81692830564E+01 -0.30547297273E+02 -0.21845356510E+03  0.22073249571E+03  0.10000000000E+01 0.  0.
    9000005    1    3    3    0    0 -0.81692830564E+01  0.30547297273E+02 -0.79375738549E+00  0.31646557587E+02  0.10000000000E+01 0.  0.
<mgrwt>
<rscale>  0 0.12500319E+03</rscale>
<asrwt>0</asrwt>
<pdfrwt beam="1">  1        4 0.25485949E-02 0.12500319E+03</pdfrwt>
<pdfrwt beam="2">  1       -4 0.36278949E-01 0.12500319E+03</pdfrwt>
<totfact> 0.81981764E+03</totfact>
</mgrwt>
</event>
<event>
 5    1  0.3272646E-002  0.1249969E+03  0.7818608E-02  0.1235074E+00
          4   -1    0    0  501    0  0.00000000000E+00  0.00000000000E+00  0.19316609928E+03  0.19317027414E+03  0.12700000000E+01 0.  1.
         -4   -1    0    0    0  501 -0.00000000000E+00 -0.00000000000E+00 -0.20196889202E+02  0.20236779226E+02  0.12700000000E+01 0.  1.
         25    2    1    2    0    0  0.00000000000E+00  0.00000000000E+00  0.17296921008E+03  0.21340705337E+03  0.12499689113E+03 0.  0.
    9000005    1    3    3    0    0  0.15976415096E+02 -0.47807512979E+02  0.14954501466E+03  0.15781481409E+03  0.10000000000E+01 0.  0.
    9000005    1    3    3    0    0 -0.15976415096E+02  0.47807512979E+02  0.23424195416E+02  0.55592239273E+02  0.10000000000E+01 0.  0.
<mgrwt>
<rscale>  0 0.12499689E+03</rscale>
<asrwt>0</asrwt>
<pdfrwt beam="1">  1        4 0.29721251E-01 0.12499689E+03</pdfrwt>
<pdfrwt beam="2">  1       -4 0.31106033E-02 0.12499689E+03</pdfrwt>
<totfact> 0.87928579E+03</totfact>
</mgrwt>
</event>
<event>
 5    1  0.3272646E-002  0.1250023E+03  0.7818608E-02  0.1235066E+00
          4   -1    0    0  501    0  0.00000000000E+00  0.00000000000E+00  0.32611963059E+01  0.34997573267E+01  0.12700000000E+01 0. -1.
         -4   -1    0    0    0  501 -0.00000000000E+00 -0.00000000000E+00 -0.11553349908E+04  0.11553356888E+04  0.12700000000E+01 0. -1.
         25    2    1    2    0    0  0.00000000000E+00  0.00000000000E+00 -0.11520737945E+04  0.11588354461E+04  0.12500225315E+03 0.  0.
    9000005    1    3    3    0    0 -0.18677390217E+02  0.28276762455E+02 -0.89271162678E+02  0.95492202227E+02  0.10000000000E+01 0.  0.
    9000005    1    3    3    0    0  0.18677390217E+02 -0.28276762455E+02 -0.10628026318E+04  0.10633432439E+04  0.10000000000E+01 0.  0.
<mgrwt>
<rscale>  0 0.12500225E+03</rscale>
<asrwt>0</asrwt>
<pdfrwt beam="1">  1        4 0.52012797E-03 0.12500225E+03</pdfrwt>
<pdfrwt beam="2">  1       -4 0.17776193E+00 0.12500225E+03</pdfrwt>
<totfact> 0.25815137E+03</totfact>
</mgrwt>
</event>
<event>
 5    1  0.3272646E-002  0.1249992E+03  0.7818608E-02  0.1235070E+00
         -4   -1    0    0    0  501 -0.00000000000E+00  0.00000000000E+00  0.48997783155E+01  0.50616921618E+01  0.12700000000E+01 0.  1.
          4   -1    0    0  501    0  0.00000000000E+00 -0.00000000000E+00 -0.78409958832E+03  0.78410061682E+03  0.12700000000E+01 0.  1.
         25    2    1    2    0    0  0.00000000000E+00  0.00000000000E+00 -0.77919981000E+03  0.78916230898E+03  0.12499922405E+03 0.  0.
    9000005    1    3    3    0    0 -0.64018787990E+01 -0.61413518836E+02 -0.32884828830E+03  0.33459647498E+03  0.10000000000E+01 0.  0.
    9000005    1    3    3    0    0  0.64018787990E+01  0.61413518836E+02 -0.45035152170E+03  0.45456583400E+03  0.10000000000E+01 0.  0.
<mgrwt>
<rscale>  0 0.12499922E+03</rscale>
<asrwt>0</asrwt>
<pdfrwt beam="2">  1        4 0.12064314E+00 0.12499922E+03</pdfrwt>
<pdfrwt beam="1">  1       -4 0.76634670E-03 0.12499922E+03</pdfrwt>
<totfact> 0.38753839E+03</totfact>
</mgrwt>
</event>
<event>
 5    1  0.3272646E-002  0.1249776E+03  0.7818608E-02  0.1235104E+00
         -4   -1    0    0    0  501 -0.00000000000E+00  0.00000000000E+00  0.40084098953E+03  0.40084300142E+03  0.12700000000E+01 0.  1.
          4   -1    0    0  501    0  0.00000000000E+00 -0.00000000000E+00 -0.96982128933E+01  0.97810139210E+01  0.12700000000E+01 0.  1.
         25    2    1    2    0    0  0.00000000000E+00  0.00000000000E+00  0.39114277663E+03  0.41062401534E+03  0.12497763904E+03 0.  0.
    9000005    1    3    3    0    0 -0.59826723222E+02  0.12443705989E+02  0.15276166507E+03  0.16453330650E+03  0.10000000000E+01 0.  0.
    9000005    1    3    3    0    0  0.59826723222E+02 -0.12443705989E+02  0.23838111156E+03  0.24609070884E+03  0.10000000000E+01 0.  0.
<mgrwt>
<rscale>  0 0.12497764E+03</rscale>
<asrwt>0</asrwt>
<pdfrwt beam="2">  1        4 0.14985568E-02 0.12497764E+03</pdfrwt>
<pdfrwt beam="1">  1       -4 0.61674368E-01 0.12497764E+03</pdfrwt>
<totfact> 0.63563819E+03</totfact>
</mgrwt>
</event>
<event>
 5    1  0.3272646E-002  0.1249987E+03  0.7818608E-02  0.1235071E+00
         -4   -1    0    0    0  501 -0.00000000000E+00  0.00000000000E+00  0.11670821106E+03  0.11671512082E+03  0.12700000000E+01 0.  1.
          4   -1    0    0  501    0  0.00000000000E+00 -0.00000000000E+00 -0.33449571362E+02  0.33473672106E+02  0.12700000000E+01 0.  1.
         25    2    1    2    0    0  0.00000000000E+00  0.00000000000E+00  0.83258639697E+02  0.15018879293E+03  0.12499868974E+03 0.  0.
    9000005    1    3    3    0    0 -0.46504760743E+02 -0.25389330437E+02  0.18181443784E+01  0.53024678413E+02  0.10000000000E+01 0.  0.
    9000005    1    3    3    0    0  0.46504760743E+02  0.25389330437E+02  0.81440495318E+02  0.97164114515E+02  0.10000000000E+01 0.  0.
<mgrwt>
<rscale>  0 0.12499869E+03</rscale>
<asrwt>0</asrwt>
<pdfrwt beam="2">  1        4 0.51484734E-02 0.12499869E+03</pdfrwt>
<pdfrwt beam="1">  1       -4 0.17957495E-01 0.12499869E+03</pdfrwt>
<totfact> 0.99269005E+03</totfact>
</mgrwt>
</event>
<event>
 5    1  0.3272646E-002  0.1249977E+03  0.7818608E-02  0.1235073E+00
          4   -1    0    0  501    0  0.00000000000E+00  0.00000000000E+00  0.12973758827E+02  0.13035770714E+02  0.12700000000E+01 0.  1.
         -4   -1    0    0    0  501 -0.00000000000E+00 -0.00000000000E+00 -0.30029607412E+03  0.30029875963E+03  0.12700000000E+01 0.  1.
         25    2    1    2    0    0  0.00000000000E+00  0.00000000000E+00 -0.28732231530E+03  0.31333453034E+03  0.12499766013E+03 0.  0.
    9000005    1    3    3    0    0 -0.15207511853E+02 -0.60460614012E+02 -0.15439903505E+03  0.16651371201E+03  0.10000000000E+01 0.  0.
    9000005    1    3    3    0    0  0.15207511853E+02  0.60460614012E+02 -0.13292328025E+03  0.14682081833E+03  0.10000000000E+01 0.  0.
<mgrwt>
<rscale>  0 0.12499766E+03</rscale>
<asrwt>0</asrwt>
<pdfrwt beam="1">  1        4 0.20009398E-02 0.12499766E+03</pdfrwt>
<pdfrwt beam="2">  1       -4 0.46204367E-01 0.12499766E+03</pdfrwt>
<totfact> 0.73959811E+03</totfact>
</mgrwt>
</event>
<event>
 5    1  0.3272646E-002  0.1249999E+03  0.7818608E-02  0.1235069E+00
         -4   -1    0    0    0  501 -0.00000000000E+00  0.00000000000E+00  0.17393434613E+03  0.17393898258E+03  0.12700000000E+01 0. -1.
          4   -1    0    0  501    0  0.00000000000E+00 -0.00000000000E+00 -0.22435267698E+02  0.22471184586E+02  0.12700000000E+01 0. -1.
         25    2    1    2    0    0  0.00000000000E+00  0.00000000000E+00  0.15149907843E+03  0.19641016717E+03  0.12499993201E+03 0.  0.
    9000005    1    3    3    0    0  0.54134856461E+02 -0.30777918238E+02  0.67527240693E+02  0.91862893329E+02  0.10000000000E+01 0.  0.
    9000005    1    3    3    0    0 -0.54134856461E+02  0.30777918238E+02  0.83971837734E+02  0.10454727384E+03  0.10000000000E+01 0.  0.
<mgrwt>
<rscale>  0 0.12499993E+03</rscale>
<asrwt>0</asrwt>
<pdfrwt beam="2">  1        4 0.34546991E-02 0.12499993E+03</pdfrwt>
<pdfrwt beam="1">  1       -4 0.26762250E-01 0.12499993E+03</pdfrwt>
<totfact> 0.90743911E+03</totfact>
</mgrwt>
</event>
<event>
 5    1  0.3272646E-002  0.1250010E+03  0.7818608E-02  0.1235068E+00
          4   -1    0    0  501    0  0.00000000000E+00  0.00000000000E+00  0.10101835940E+03  0.10102634228E+03  0.12700000000E+01 0.  1.
         -4   -1    0    0    0  501 -0.00000000000E+00 -0.00000000000E+00 -0.38649376514E+02  0.38670236681E+02  0.12700000000E+01 0.  1.
         25    2    1    2    0    0  0.00000000000E+00  0.00000000000E+00  0.62368982882E+02  0.13969657896E+03  0.12500097659E+03 0.  0.
    9000005    1    3    3    0    0  0.23140664429E+02  0.48062105988E+02 -0.51982584184E+01  0.53604834416E+02  0.10000000000E+01 0.  0.
    9000005    1    3    3    0    0 -0.23140664429E+02 -0.48062105988E+02  0.67567241301E+02  0.86091744548E+02  0.10000000000E+01 0.  0.
<mgrwt>
<rscale>  0 0.12500098E+03</rscale>
<asrwt>0</asrwt>
<pdfrwt beam="1">  1        4 0.15543505E-01 0.12500098E+03</pdfrwt>
<pdfrwt beam="2">  1       -4 0.59482767E-02 0.12500098E+03</pdfrwt>
<totfact> 0.10139655E+04</totfact>
</mgrwt>
</event>
<event>
 4    1  0.3272646E-002  0.1249304E+03  0.7818608E-02  0.1235178E+00
         -4   -1    0    0    0  501 -0.00000000000E+00  0.00000000000E+00  0.26656459539E+02  0.26686695846E+02  0.12700000000E+01 0.  1.
          4   -1    0    0  501    0  0.00000000000E+00 -0.00000000000E+00 -0.14626127017E+03  0.14626678383E+03  0.12700000000E+01 0.  1.
    9000005    1    1    2    0    0 -0.32753166455E+02  0.52393700301E+02 -0.47187718015E+02  0.77753138043E+02  0.10000000000E+01 0.  0.
    9000005    1    1    2    0    0  0.32753166455E+02 -0.52393700301E+02 -0.72417092618E+02  0.95200341635E+02  0.10000000000E+01 0.  0.
<mgrwt>
<rscale>  0 0.12493036E+03</rscale>
<asrwt>0</asrwt>
<pdfrwt beam="2">  1        4 0.22504483E-01 0.12493036E+03</pdfrwt>
<pdfrwt beam="1">  1       -4 0.41037439E-02 0.12493036E+03</pdfrwt>
<totfact> 0.95049437E+03</totfact>
</mgrwt>
</event>
<event>
 5    1  0.3272646E-002  0.1250050E+03  0.7818608E-02  0.1235061E+00
          4   -1    0    0  501    0  0.00000000000E+00  0.00000000000E+00  0.56850685065E+02  0.56864868701E+02  0.12700000000E+01 0.  1.
         -4   -1    0    0    0  501 -0.00000000000E+00 -0.00000000000E+00 -0.68687558357E+02  0.68699298199E+02  0.12700000000E+01 0.  1.
         25    2    1    2    0    0  0.00000000000E+00  0.00000000000E+00 -0.11836873292E+02  0.12556416690E+03  0.12500499366E+03 0.  0.
    9000005    1    3    3    0    0  0.45842830446E+02  0.40019167178E+02 -0.20211044404E+02  0.64129440671E+02  0.10000000000E+01 0.  0.
    9000005    1    3    3    0    0 -0.45842830446E+02 -0.40019167178E+02  0.83741711118E+01  0.61434726228E+02  0.10000000000E+01 0.  0.
<mgrwt>
<rscale>  0 0.12500499E+03</rscale>
<asrwt>0</asrwt>
<pdfrwt beam="1">  1        4 0.87482533E-02 0.12500499E+03</pdfrwt>
<pdfrwt beam="2">  1       -4 0.10569311E-01 0.12500499E+03</pdfrwt>
<totfact> 0.10439361E+04</totfact>
</mgrwt>
</event>
<event>
 5    1  0.3272646E-002  0.1249857E+03  0.7818608E-02  0.1235092E+00
          4   -1    0    0  501    0  0.00000000000E+00  0.00000000000E+00  0.26004398562E+02  0.26035392153E+02  0.12700000000E+01 0.  1.
         -4   -1    0    0    0  501 -0.00000000000E+00 -0.00000000000E+00 -0.15005754090E+03  0.15006291508E+03  0.12700000000E+01 0.  1.
         25    2    1    2    0    0  0.00000000000E+00  0.00000000000E+00 -0.12405314234E+03  0.17609830723E+03  0.12498572593E+03 0.  0.
    9000005    1    3    3    0    0 -0.51413936306E+02 -0.35507798463E+02 -0.61460666665E+02  0.87650499971E+02  0.10000000000E+01 0.  0.
    9000005    1    3    3    0    0  0.51413936306E+02  0.35507798463E+02 -0.62592475677E+02  0.88447807263E+02  0.10000000000E+01 0.  0.
<mgrwt>
<rscale>  0 0.12498573E+03</rscale>
<asrwt>0</asrwt>
<pdfrwt beam="1">  1        4 0.40034743E-02 0.12498573E+03</pdfrwt>
<pdfrwt beam="2">  1       -4 0.23088573E-01 0.12498573E+03</pdfrwt>
<totfact> 0.94354280E+03</totfact>
</mgrwt>
</event>
<event>
 5    1  0.3272646E-002  0.1250007E+03  0.7818608E-02  0.1235068E+00
         -4   -1    0    0    0  501 -0.00000000000E+00  0.00000000000E+00  0.20682747978E+03  0.20683137889E+03  0.12700000000E+01 0.  1.
          4   -1    0    0  501    0  0.00000000000E+00 -0.00000000000E+00 -0.18861298105E+02  0.18904006618E+02  0.12700000000E+01 0.  1.
         25    2    1    2    0    0  0.00000000000E+00  0.00000000000E+00  0.18796618168E+03  0.22573538551E+03  0.12500071526E+03 0.  0.
    9000005    1    3    3    0    0 -0.51579431961E+02 -0.22989357130E+02  0.45649543056E+02  0.72621134141E+02  0.10000000000E+01 0.  0.
    9000005    1    3    3    0    0  0.51579431961E+02  0.22989357130E+02  0.14231663862E+03  0.15311425136E+03  0.10000000000E+01 0.  0.
<mgrwt>
<rscale>  0 0.12500072E+03</rscale>
<asrwt>0</asrwt>
<pdfrwt beam="2">  1        4 0.29053233E-02 0.12500072E+03</pdfrwt>
<pdfrwt beam="1">  1       -4 0.31823199E-01 0.12500072E+03</pdfrwt>
<totfact> 0.85967389E+03</totfact>
</mgrwt>
</event>
<event>
 5    1  0.3272646E-002  0.1250022E+03  0.7818608E-02  0.1235066E+00
         -4   -1    0    0    0  501 -0.00000000000E+00  0.00000000000E+00  0.22672609354E+03  0.22672965045E+03  0.12700000000E+01 0. -1.
          4   -1    0    0  501    0  0.00000000000E+00 -0.00000000000E+00 -0.17202431754E+02  0.17249248049E+02  0.12700000000E+01 0. -1.
         25    2    1    2    0    0  0.00000000000E+00  0.00000000000E+00  0.20952366178E+03  0.24397889850E+03  0.12500215224E+03 0.  0.
    9000005    1    3    3    0    0 -0.38921457951E+02  0.29697921090E+02  0.18056946078E+03  0.18709135889E+03  0.10000000000E+01 0.  0.
    9000005    1    3    3    0    0  0.38921457951E+02 -0.29697921090E+02  0.28954201003E+02  0.56887539601E+02  0.10000000000E+01 0.  0.
<mgrwt>
<rscale>  0 0.12500215E+03</rscale>
<asrwt>0</asrwt>
<pdfrwt beam="2">  1        4 0.26504027E-02 0.12500215E+03</pdfrwt>
<pdfrwt beam="1">  1       -4 0.34884815E-01 0.12500215E+03</pdfrwt>
<totfact> 0.83204333E+03</totfact>
</mgrwt>
</event>
<event>
 5    1  0.3272646E-002  0.1250013E+03  0.7818608E-02  0.1235067E+00
         -4   -1    0    0    0  501 -0.00000000000E+00  0.00000000000E+00  0.29573273511E+03  0.29573546205E+03  0.12700000000E+01 0. -1.
          4   -1    0    0  501    0  0.00000000000E+00 -0.00000000000E+00 -0.13175666718E+02  0.13236732733E+02  0.12700000000E+01 0. -1.
         25    2    1    2    0    0  0.00000000000E+00  0.00000000000E+00  0.28255706839E+03  0.30897219478E+03  0.12500128100E+03 0.  0.
    9000005    1    3    3    0    0  0.44386637007E+02  0.23158601086E+01  0.32695910208E+02  0.55186586206E+02  0.10000000000E+01 0.  0.
    9000005    1    3    3    0    0 -0.44386637007E+02 -0.23158601086E+01  0.24986115818E+03  0.25378560858E+03  0.10000000000E+01 0.  0.
<mgrwt>
<rscale>  0 0.12500128E+03</rscale>
<asrwt>0</asrwt>
<pdfrwt beam="2">  1        4 0.20319327E-02 0.12500128E+03</pdfrwt>
<pdfrwt beam="1">  1       -4 0.45502253E-01 0.12500128E+03</pdfrwt>
<totfact> 0.74484871E+03</totfact>
</mgrwt>
</event>
<event>
 5    1  0.3272646E-002  0.1250008E+03  0.7818608E-02  0.1235068E+00
         -4   -1    0    0    0  501 -0.00000000000E+00  0.00000000000E+00  0.53628170330E+02  0.53643206028E+02  0.12700000000E+01 0. -1.
          4   -1    0    0  501    0  0.00000000000E+00 -0.00000000000E+00 -0.72809657290E+02  0.72820732588E+02  0.12700000000E+01 0. -1.
         25    2    1    2    0    0  0.00000000000E+00  0.00000000000E+00 -0.19181486960E+02  0.12646393862E+03  0.12500079331E+03 0.  0.
    9000005    1    3    3    0    0 -0.26422292045E+02 -0.55750234908E+02 -0.19660811598E+02  0.64759352390E+02  0.10000000000E+01 0.  0.
    9000005    1    3    3    0    0  0.26422292045E+02  0.55750234908E+02  0.47932463811E+00  0.61704586226E+02  0.10000000000E+01 0.  0.
<mgrwt>
<rscale>  0 0.12500079E+03</rscale>
<asrwt>0</asrwt>
<pdfrwt beam="2">  1        4 0.11203494E-01 0.12500079E+03</pdfrwt>
<pdfrwt beam="1">  1       -4 0.82524963E-02 0.12500079E+03</pdfrwt>
<totfact> 0.10420628E+04</totfact>
</mgrwt>
</event>
<event>
 5    1  0.3272646E-002  0.1250007E+03  0.7818608E-02  0.1235068E+00
          4   -1    0    0  501    0  0.00000000000E+00  0.00000000000E+00  0.12541926919E+03  0.12542569906E+03  0.12700000000E+01 0.  1.
         -4   -1    0    0    0  501 -0.00000000000E+00 -0.00000000000E+00 -0.31125703349E+02  0.31151602029E+02  0.12700000000E+01 0.  1.
         25    2    1    2    0    0  0.00000000000E+00  0.00000000000E+00  0.94293565839E+02  0.15657730109E+03  0.12500069862E+03 0.  0.
    9000005    1    3    3    0    0  0.40383575043E+02 -0.10029705951E+02 -0.11255886865E+02  0.43117550068E+02  0.10000000000E+01 0.  0.
    9000005    1    3    3    0    0 -0.40383575043E+02  0.10029705951E+02  0.10554945270E+03  0.11345975102E+03  0.10000000000E+01 0.  0.
<mgrwt>
<rscale>  0 0.12500070E+03</rscale>
<asrwt>0</asrwt>
<pdfrwt beam="1">  1        4 0.19297759E-01 0.12500070E+03</pdfrwt>
<pdfrwt beam="2">  1       -4 0.47910565E-02 0.12500070E+03</pdfrwt>
<totfact> 0.98005202E+03</totfact>
</mgrwt>
</event>
<event>
 4    1  0.3272646E-002  0.1250837E+03  0.7818608E-02  0.1234939E+00
          4   -1    0    0  501    0  0.00000000000E+00  0.00000000000E+00  0.10691661113E+04  0.10691668655E+04  0.12700000000E+01 0. -1.
         -4   -1    0    0    0  501 -0.00000000000E+00 -0.00000000000E+00 -0.35474462389E+01  0.37679271248E+01  0.12700000000E+01 0. -1.
    9000005    1    1    2    0    0  0.12673744062E+02  0.38497835638E+02  0.94129107893E+03  0.94216378747E+03  0.10000000000E+01 0.  0.
    9000005    1    1    2    0    0 -0.12673744062E+02 -0.38497835638E+02  0.12432758609E+03  0.13077100519E+03  0.10000000000E+01 0.  0.
<mgrwt>
<rscale>  0 0.12508369E+03</rscale>
<asrwt>0</asrwt>
<pdfrwt beam="1">  1        4 0.16450406E+00 0.12508369E+03</pdfrwt>
<pdfrwt beam="2">  1       -4 0.56277924E-03 0.12508369E+03</pdfrwt>
<totfact> 0.28237760E+03</totfact>
</mgrwt>
</event>
<event>
 5    1  0.3272646E-002  0.1249989E+03  0.7818608E-02  0.1235071E+00
          4   -1    0    0  501    0  0.00000000000E+00  0.00000000000E+00  0.38087456258E+03  0.38087667993E+03  0.12700000000E+01 0. -1.
         -4   -1    0    0    0  501 -0.00000000000E+00 -0.00000000000E+00 -0.10214347794E+02  0.10292997661E+02  0.12700000000E+01 0. -1.
         25    2    1    2    0    0  0.00000000000E+00  0.00000000000E+00  0.37066021478E+03  0.39116967760E+03  0.12499888739E+03 0.  0.
    9000005    1    3    3    0    0 -0.46201032002E+02 -0.37614580009E+02  0.12630252821E+03  0.13965214148E+03  0.10000000000E+01 0.  0.
    9000005    1    3    3    0    0  0.46201032002E+02  0.37614580009E+02  0.24435768657E+03  0.25151753612E+03  0.10000000000E+01 0.  0.
<mgrwt>
<rscale>  0 0.12499889E+03</rscale>
<asrwt>0</asrwt>
<pdfrwt beam="1">  1        4 0.58602308E-01 0.12499889E+03</pdfrwt>
<pdfrwt beam="2">  1       -4 0.15776507E-02 0.12499889E+03</pdfrwt>
<totfact> 0.65422373E+03</totfact>
</mgrwt>
</event>
<event>
 4    1  0.3272646E-002  0.1249256E+03  0.7818608E-02  0.1235186E+00
          4   -1    0    0  501    0  0.00000000000E+00  0.00000000000E+00  0.30449452792E+02  0.30475926160E+02  0.12700000000E+01 0. -1.
         -4   -1    0    0    0  501 -0.00000000000E+00 -0.00000000000E+00 -0.12804834861E+03  0.12805464647E+03  0.12700000000E+01 0. -1.
    9000005    1    1    2    0    0 -0.15375825070E+02  0.60227670591E+02 -0.56498755283E+02  0.84005342984E+02  0.10000000000E+01 0.  0.
    9000005    1    1    2    0    0  0.15375825070E+02 -0.60227670591E+02 -0.41100140538E+02  0.74525229645E+02  0.10000000000E+01 0.  0.
<mgrwt>
<rscale>  0 0.12492557E+03</rscale>
<asrwt>0</asrwt>
<pdfrwt beam="1">  1        4 0.46870521E-02 0.12492557E+03</pdfrwt>
<pdfrwt beam="2">  1       -4 0.19702267E-01 0.12492557E+03</pdfrwt>
<totfact> 0.97790364E+03</totfact>
</mgrwt>
</event>
<event>
 5    1  0.3272646E-002  0.1249989E+03  0.7818608E-02  0.1235071E+00
         -4   -1    0    0    0  501 -0.00000000000E+00  0.00000000000E+00  0.19513201561E+03  0.19513614841E+03  0.12700000000E+01 0. -1.
          4   -1    0    0  501    0  0.00000000000E+00 -0.00000000000E+00 -0.19993664260E+02  0.20033958933E+02  0.12700000000E+01 0. -1.
         25    2    1    2    0    0  0.00000000000E+00  0.00000000000E+00  0.17513835135E+03  0.21517010734E+03  0.12499893192E+03 0.  0.
    9000005    1    3    3    0    0 -0.33587440038E+02  0.50872866583E+02  0.63903012080E+02  0.88321909149E+02  0.10000000000E+01 0.  0.
    9000005    1    3    3    0    0  0.33587440038E+02 -0.50872866583E+02  0.11123533927E+03  0.12684819820E+03  0.10000000000E+01 0.  0.
<mgrwt>
<rscale>  0 0.12499893E+03</rscale>
<asrwt>0</asrwt>
<pdfrwt beam="2">  1        4 0.30793659E-02 0.12499893E+03</pdfrwt>
<pdfrwt beam="1">  1       -4 0.30023727E-01 0.12499893E+03</pdfrwt>
<totfact> 0.87640526E+03</totfact>
</mgrwt>
</event>
<event>
 5    1  0.3272646E-002  0.1250037E+03  0.7818608E-02  0.1235063E+00
          4   -1    0    0  501    0  0.00000000000E+00  0.00000000000E+00  0.10735256847E+03  0.10736008038E+03  0.12700000000E+01 0.  1.
         -4   -1    0    0    0  501 -0.00000000000E+00 -0.00000000000E+00 -0.36369416347E+02  0.36391583442E+02  0.12700000000E+01 0.  1.
         25    2    1    2    0    0  0.00000000000E+00  0.00000000000E+00  0.70983152128E+02  0.14375166382E+03  0.12500373180E+03 0.  0.
    9000005    1    3    3    0    0  0.30046993952E+02  0.50351616849E+02  0.60352836364E+02  0.84152076754E+02  0.10000000000E+01 0.  0.
    9000005    1    3    3    0    0 -0.30046993952E+02 -0.50351616849E+02  0.10630315764E+02  0.59599587063E+02  0.10000000000E+01 0.  0.
<mgrwt>
<rscale>  0 0.12500373E+03</rscale>
<asrwt>0</asrwt>
<pdfrwt beam="1">  1        4 0.16518063E-01 0.12500373E+03</pdfrwt>
<pdfrwt beam="2">  1       -4 0.55975779E-02 0.12500373E+03</pdfrwt>
<totfact> 0.10055569E+04</totfact>
</mgrwt>
</event>
<event>
 5    1  0.3272646E-002  0.1249981E+03  0.7818608E-02  0.1235072E+00
          4   -1    0    0  501    0  0.00000000000E+00  0.00000000000E+00  0.79089060860E+03  0.79089162828E+03  0.12700000000E+01 0.  1.
         -4   -1    0    0    0  501 -0.00000000000E+00 -0.00000000000E+00 -0.48562176874E+01  0.50195368539E+01  0.12700000000E+01 0.  1.
         25    2    1    2    0    0  0.00000000000E+00  0.00000000000E+00  0.78603439092E+03  0.79591116513E+03  0.12499807629E+03 0.  0.
    9000005    1    3    3    0    0  0.56965728697E+02 -0.43296614951E+01  0.55426297297E+03  0.55720039790E+03  0.10000000000E+01 0.  0.
    9000005    1    3    3    0    0 -0.56965728697E+02  0.43296614951E+01  0.23177141795E+03  0.23871076723E+03  0.10000000000E+01 0.  0.
<mgrwt>
<rscale>  0 0.12499808E+03</rscale>
<asrwt>0</asrwt>
<pdfrwt beam="1">  1        4 0.12168804E+00 0.12499808E+03</pdfrwt>
<pdfrwt beam="2">  1       -4 0.75975237E-03 0.12499808E+03</pdfrwt>
<totfact> 0.38449553E+03</totfact>
</mgrwt>
</event>
<event>
 5    1  0.3272646E-002  0.1249997E+03  0.7818608E-02  0.1235070E+00
         -4   -1    0    0    0  501 -0.00000000000E+00  0.00000000000E+00  0.29773860413E+02  0.29800933943E+02  0.12700000000E+01 0.  1.
          4   -1    0    0  501    0  0.00000000000E+00 -0.00000000000E+00 -0.13110682202E+03  0.13111297297E+03  0.12700000000E+01 0.  1.
         25    2    1    2    0    0  0.00000000000E+00  0.00000000000E+00 -0.10133296161E+03  0.16091390691E+03  0.12499966532E+03 0.  0.
    9000005    1    3    3    0    0  0.50711890447E+02  0.31663165494E+01 -0.38339137514E+01  0.50964892699E+02  0.10000000000E+01 0.  0.
    9000005    1    3    3    0    0 -0.50711890447E+02 -0.31663165494E+01 -0.97499047860E+02  0.10994901421E+03  0.10000000000E+01 0.  0.
<mgrwt>
<rscale>  0 0.12499967E+03</rscale>
<asrwt>0</asrwt>
<pdfrwt beam="2">  1        4 0.20172836E-01 0.12499967E+03</pdfrwt>
<pdfrwt beam="1">  1       -4 0.45831497E-02 0.12499967E+03</pdfrwt>
<totfact> 0.97167611E+03</totfact>
</mgrwt>
</event>
<event>
 5    1  0.3272646E-002  0.1249989E+03  0.7818608E-02  0.1235071E+00
          4   -1    0    0  501    0  0.00000000000E+00  0.00000000000E+00  0.48667927582E+01  0.50297685584E+01  0.12700000000E+01 0.  1.
         -4   -1    0    0    0  501 -0.00000000000E+00 -0.00000000000E+00 -0.78923767414E+03  0.78923869595E+03  0.12700000000E+01 0.  1.
         25    2    1    2    0    0  0.00000000000E+00  0.00000000000E+00 -0.78437088138E+03  0.79426846451E+03  0.12499885659E+03 0.  0.
    9000005    1    3    3    0    0 -0.57589754091E+01 -0.53541342379E+02 -0.59365860066E+03  0.59609678348E+03  0.10000000000E+01 0.  0.
    9000005    1    3    3    0    0  0.57589754091E+01  0.53541342379E+02 -0.19071228072E+03  0.19817168102E+03  0.10000000000E+01 0.  0.
<mgrwt>
<rscale>  0 0.12499886E+03</rscale>
<asrwt>0</asrwt>
<pdfrwt beam="1">  1        4 0.76135317E-03 0.12499886E+03</pdfrwt>
<pdfrwt beam="2">  1       -4 0.12143370E+00 0.12499886E+03</pdfrwt>
<totfact> 0.38522871E+03</totfact>
</mgrwt>
</event>
<event>
 5    1  0.3272646E-002  0.1249962E+03  0.7818608E-02  0.1235075E+00
         -4   -1    0    0    0  501 -0.00000000000E+00  0.00000000000E+00  0.25186674055E+03  0.25186994242E+03  0.12700000000E+01 0. -1.
          4   -1    0    0  501    0  0.00000000000E+00 -0.00000000000E+00 -0.15478936690E+02  0.15530949136E+02  0.12700000000E+01 0. -1.
         25    2    1    2    0    0  0.00000000000E+00  0.00000000000E+00  0.23638780386E+03  0.26740089156E+03  0.12499617191E+03 0.  0.
    9000005    1    3    3    0    0 -0.57004135085E+02  0.15124688314E+02  0.16238855843E+03  0.17276941721E+03  0.10000000000E+01 0.  0.
    9000005    1    3    3    0    0  0.57004135085E+02 -0.15124688314E+02  0.73999245431E+02  0.94631474350E+02  0.10000000000E+01 0.  0.
<mgrwt>
<rscale>  0 0.12499617E+03</rscale>
<asrwt>0</asrwt>
<pdfrwt beam="2">  1        4 0.23856223E-02 0.12499617E+03</pdfrwt>
<pdfrwt beam="1">  1       -4 0.38752974E-01 0.12499617E+03</pdfrwt>
<totfact> 0.79885345E+03</totfact>
</mgrwt>
</event>
<event>
 5    1  0.3272646E-002  0.1250049E+03  0.7818608E-02  0.1235062E+00
         -4   -1    0    0    0  501 -0.00000000000E+00  0.00000000000E+00  0.52783347238E+02  0.52798623520E+02  0.12700000000E+01 0.  1.
          4   -1    0    0  501    0  0.00000000000E+00 -0.00000000000E+00 -0.73979695002E+02  0.73990595163E+02  0.12700000000E+01 0.  1.
         25    2    1    2    0    0  0.00000000000E+00  0.00000000000E+00 -0.21196347765E+02  0.12678921868E+03  0.12500488317E+03 0.  0.
    9000005    1    3    3    0    0 -0.53479947084E+02  0.32229762491E+02 -0.79741870050E+01  0.62955936883E+02  0.10000000000E+01 0.  0.
    9000005    1    3    3    0    0  0.53479947084E+02 -0.32229762491E+02 -0.13222160759E+02  0.63833281801E+02  0.10000000000E+01 0.  0.
<mgrwt>
<rscale>  0 0.12500488E+03</rscale>
<asrwt>0</asrwt>
<pdfrwt beam="2">  1        4 0.11383505E-01 0.12500488E+03</pdfrwt>
<pdfrwt beam="1">  1       -4 0.81225285E-02 0.12500488E+03</pdfrwt>
<totfact> 0.10412581E+04</totfact>
</mgrwt>
</event>
<event>
 5    1  0.3272646E-002  0.1249983E+03  0.7818608E-02  0.1235072E+00
          4   -1    0    0  501    0  0.00000000000E+00  0.00000000000E+00  0.31423105697E+03  0.31423362338E+03  0.12700000000E+01 0.  1.
         -4   -1    0    0    0  501 -0.00000000000E+00 -0.00000000000E+00 -0.12395747657E+02  0.12460636419E+02  0.12700000000E+01 0.  1.
         25    2    1    2    0    0  0.00000000000E+00  0.00000000000E+00  0.30183530931E+03  0.32669425980E+03  0.12499834175E+03 0.  0.
    9000005    1    3    3    0    0 -0.51192158993E+02 -0.35644747657E+02  0.16068324147E+03  0.17236962977E+03  0.10000000000E+01 0.  0.
    9000005    1    3    3    0    0  0.51192158993E+02  0.35644747657E+02  0.14115206784E+03  0.15432463003E+03  0.10000000000E+01 0.  0.
<mgrwt>
<rscale>  0 0.12499834E+03</rscale>
<asrwt>0</asrwt>
<pdfrwt beam="1">  1        4 0.48348430E-01 0.12499834E+03</pdfrwt>
<pdfrwt beam="2">  1       -4 0.19122269E-02 0.12499834E+03</pdfrwt>
<totfact> 0.72369599E+03</totfact>
</mgrwt>
</event>
<event>
 5    1  0.3272646E-002  0.1249997E+03  0.7818608E-02  0.1235070E+00
         -4   -1    0    0    0  501 -0.00000000000E+00  0.00000000000E+00  0.53862322872E+02  0.53877293224E+02  0.12700000000E+01 0. -1.
          4   -1    0    0  501    0  0.00000000000E+00 -0.00000000000E+00 -0.72491918208E+02  0.72503042043E+02  0.12700000000E+01 0. -1.
         25    2    1    2    0    0  0.00000000000E+00  0.00000000000E+00 -0.18629595336E+02  0.12638033527E+03  0.12499970928E+03 0.  0.
    9000005    1    3    3    0    0  0.20959828508E+01 -0.46839800382E+02  0.32455825077E+02  0.57032803064E+02  0.10000000000E+01 0.  0.
    9000005    1    3    3    0    0 -0.20959828508E+01  0.46839800382E+02 -0.51085420413E+02  0.69347532203E+02  0.10000000000E+01 0.  0.
<mgrwt>
<rscale>  0 0.12499971E+03</rscale>
<asrwt>0</asrwt>
<pdfrwt beam="2">  1        4 0.11154610E-01 0.12499971E+03</pdfrwt>
<pdfrwt beam="1">  1       -4 0.82885185E-02 0.12499971E+03</pdfrwt>
<totfact> 0.10422707E+04</totfact>
</mgrwt>
</event>
<event>
 5    1  0.3272646E-002  0.1249979E+03  0.7818608E-02  0.1235073E+00
         -4   -1    0    0    0  501 -0.00000000000E+00  0.00000000000E+00  0.94600153562E+02  0.94608678005E+02  0.12700000000E+01 0.  1.
          4   -1    0    0  501    0  0.00000000000E+00 -0.00000000000E+00 -0.41270674266E+02  0.41290210152E+02  0.12700000000E+01 0.  1.
         25    2    1    2    0    0  0.00000000000E+00  0.00000000000E+00  0.53329479296E+02  0.13589888816E+03  0.12499789774E+03 0.  0.
    9000005    1    3    3    0    0  0.16431706036E+00  0.56555092042E+02 -0.22356740616E+01  0.56608335733E+02  0.10000000000E+01 0.  0.
    9000005    1    3    3    0    0 -0.16431706036E+00 -0.56555092042E+02  0.55565153357E+02  0.79290552423E+02  0.10000000000E+01 0.  0.
<mgrwt>
<rscale>  0 0.12499790E+03</rscale>
<asrwt>0</asrwt>
<pdfrwt beam="2">  1        4 0.63514930E-02 0.12499790E+03</pdfrwt>
<pdfrwt beam="1">  1       -4 0.14556028E-01 0.12499790E+03</pdfrwt>
<totfact> 0.10219644E+04</totfact>
</mgrwt>
</event>
<event>
 4    1  0.3272646E-002  0.1248104E+03  0.7818608E-02  0.1235366E+00
         -4   -1    0    0    0  501 -0.00000000000E+00  0.00000000000E+00  0.11358577081E+02  0.11429355770E+02  0.12700000000E+01 0.  1.
          4   -1    0    0  501    0  0.00000000000E+00 -0.00000000000E+00 -0.34172393923E+03  0.34172629917E+03  0.12700000000E+01 0.  1.
    9000005    1    1    2    0    0  0.97957703737E+01  0.52033206817E+02 -0.25860021214E+03  0.26396681884E+03  0.10000000000E+01 0.  0.
    9000005    1    1    2    0    0 -0.97957703737E+01 -0.52033206817E+02 -0.71765150010E+02  0.89188836100E+02  0.10000000000E+01 0.  0.
<mgrwt>
<rscale>  0 0.12481043E+03</rscale>
<asrwt>0</asrwt>
<pdfrwt beam="2">  1        4 0.52578532E-01 0.12481043E+03</pdfrwt>
<pdfrwt beam="1">  1       -4 0.17530997E-02 0.12481043E+03</pdfrwt>
<totfact> 0.69670605E+03</totfact>
</mgrwt>
</event>
<event>
 5    1  0.3272646E-002  0.1250010E+03  0.7818608E-02  0.1235068E+00
         -4   -1    0    0    0  501 -0.00000000000E+00  0.00000000000E+00  0.58847363666E+02  0.58861066168E+02  0.12700000000E+01 0. -1.
          4   -1    0    0  501    0  0.00000000000E+00 -0.00000000000E+00 -0.66352895661E+02  0.66365048501E+02  0.12700000000E+01 0. -1.
         25    2    1    2    0    0  0.00000000000E+00  0.00000000000E+00 -0.75055319943E+01  0.12522611467E+03  0.12500098713E+03 0.  0.
    9000005    1    3    3    0    0 -0.21010760749E+02 -0.11758731850E+01  0.55196025899E+02  0.59079912153E+02  0.10000000000E+01 0.  0.
    9000005    1    3    3    0    0  0.21010760749E+02  0.11758731850E+01 -0.62701557893E+02  0.66146202516E+02  0.10000000000E+01 0.  0.
<mgrwt>
<rscale>  0 0.12500099E+03</rscale>
<asrwt>0</asrwt>
<pdfrwt beam="2">  1        4 0.10210127E-01 0.12500099E+03</pdfrwt>
<pdfrwt beam="1">  1       -4 0.90554294E-02 0.12500099E+03</pdfrwt>
<totfact> 0.10447720E+04</totfact>
</mgrwt>
</event>
<event>
 5    1  0.3272646E-002  0.1250024E+03  0.7818608E-02  0.1235065E+00
         -4   -1    0    0    0  501 -0.00000000000E+00  0.00000000000E+00  0.31439619417E+01  0.33907811328E+01  0.12700000000E+01 0.  1.
          4   -1    0    0  501    0  0.00000000000E+00 -0.00000000000E+00 -0.11953325133E+04  0.11953331879E+04  0.12700000000E+01 0.  1.
         25    2    1    2    0    0  0.00000000000E+00  0.00000000000E+00 -0.11921885513E+04  0.11987239691E+04  0.12500244838E+03 0.  0.
    9000005    1    3    3    0    0  0.49679695015E+02 -0.45347108687E+01 -0.95704667753E+03  0.95834648154E+03  0.10000000000E+01 0.  0.
    9000005    1    3    3    0    0 -0.49679695015E+02  0.45347108687E+01 -0.23514187379E+03  0.24037748752E+03  0.10000000000E+01 0.  0.
<mgrwt>
<rscale>  0 0.12500245E+03</rscale>
<asrwt>0</asrwt>
<pdfrwt beam="2">  1        4 0.18391600E+00 0.12500245E+03</pdfrwt>
<pdfrwt beam="1">  1       -4 0.50272540E-03 0.12500245E+03</pdfrwt>
<totfact> 0.24744909E+03</totfact>
</mgrwt>
</event>
<event>
 5    1  0.3272646E-002  0.1250005E+03  0.7818608E-02  0.1235069E+00
          4   -1    0    0  501    0  0.00000000000E+00  0.00000000000E+00  0.68232577376E+02  0.68244395487E+02  0.12700000000E+01 0.  1.
         -4   -1    0    0    0  501 -0.00000000000E+00 -0.00000000000E+00 -0.57225650234E+02  0.57239740956E+02  0.12700000000E+01 0.  1.
         25    2    1    2    0    0  0.00000000000E+00  0.00000000000E+00  0.11006927142E+02  0.12548413644E+03  0.12500046421E+03 0.  0.
    9000005    1    3    3    0    0 -0.31631077971E+02  0.53636928800E+02  0.10799651216E+02  0.63206626956E+02  0.10000000000E+01 0.  0.
    9000005    1    3    3    0    0  0.31631077971E+02 -0.53636928800E+02  0.20727592654E+00  0.62277509488E+02  0.10000000000E+01 0.  0.
<mgrwt>
<rscale>  0 0.12500046E+03</rscale>
<asrwt>0</asrwt>
<pdfrwt beam="1">  1        4 0.10499313E-01 0.12500046E+03</pdfrwt>
<pdfrwt beam="2">  1       -4 0.88059392E-02 0.12500046E+03</pdfrwt>
<totfact> 0.10442195E+04</totfact>
</mgrwt>
</event>
<event>
 5    1  0.3272646E-002  0.1249984E+03  0.7818608E-02  0.1235072E+00
         -4   -1    0    0    0  501 -0.00000000000E+00  0.00000000000E+00  0.12055340286E+03  0.12056009224E+03  0.12700000000E+01 0. -1.
          4   -1    0    0  501    0  0.00000000000E+00 -0.00000000000E+00 -0.32381764836E+02  0.32406659715E+02  0.12700000000E+01 0. -1.
         25    2    1    2    0    0  0.00000000000E+00  0.00000000000E+00  0.88171638025E+02  0.15296675196E+03  0.12499835780E+03 0.  0.
    9000005    1    3    3    0    0 -0.46832446175E+01  0.21852196258E+02  0.11550184567E+03  0.11764832177E+03  0.10000000000E+01 0.  0.
    9000005    1    3    3    0    0  0.46832446175E+01 -0.21852196258E+02 -0.27330207643E+02  0.35318430192E+02  0.10000000000E+01 0.  0.
<mgrwt>
<rscale>  0 0.12499836E+03</rscale>
<asrwt>0</asrwt>
<pdfrwt beam="2">  1        4 0.49842395E-02 0.12499836E+03</pdfrwt>
<pdfrwt beam="1">  1       -4 0.18549107E-01 0.12499836E+03</pdfrwt>
<totfact> 0.98719221E+03</totfact>
</mgrwt>
</event>
<event>
 5    1  0.3272646E-002  0.1249990E+03  0.7818608E-02  0.1235071E+00
          4   -1    0    0  501    0  0.00000000000E+00  0.00000000000E+00  0.57745094879E+03  0.57745234536E+03  0.12700000000E+01 0.  1.
         -4   -1    0    0    0  501 -0.00000000000E+00 -0.00000000000E+00 -0.67035093268E+01  0.68227514460E+01  0.12700000000E+01 0.  1.
         25    2    1    2    0    0  0.00000000000E+00  0.00000000000E+00  0.57074743947E+03  0.58427509681E+03  0.12499899636E+03 0.  0.
    9000005    1    3    3    0    0 -0.25092495637E+02  0.26198337285E+02  0.52321856199E+03  0.52447559507E+03  0.10000000000E+01 0.  0.
    9000005    1    3    3    0    0  0.25092495637E+02 -0.26198337285E+02  0.47528877481E+02  0.59799501740E+02  0.10000000000E+01 0.  0.
<mgrwt>
<rscale>  0 0.12499900E+03</rscale>
<asrwt>0</asrwt>
<pdfrwt beam="1">  1        4 0.88847895E-01 0.12499900E+03</pdfrwt>
<pdfrwt beam="2">  1       -4 0.10405889E-02 0.12499900E+03</pdfrwt>
<totfact> 0.49876592E+03</totfact>
</mgrwt>
</event>
<event>
 5    1  0.3272646E-002  0.1250001E+03  0.7818608E-02  0.1235069E+00
          4   -1    0    0  501    0  0.00000000000E+00  0.00000000000E+00  0.46492501241E+02  0.46509843814E+02  0.12700000000E+01 0.  1.
         -4   -1    0    0    0  501 -0.00000000000E+00 -0.00000000000E+00 -0.83981247566E+02  0.83990849756E+02  0.12700000000E+01 0.  1.
         25    2    1    2    0    0  0.00000000000E+00  0.00000000000E+00 -0.37488746325E+02  0.13050069357E+03  0.12500009969E+03 0.  0.
    9000005    1    3    3    0    0  0.52264396206E+02  0.16561293561E+02 -0.50054293477E+02  0.74244702509E+02  0.10000000000E+01 0.  0.
    9000005    1    3    3    0    0 -0.52264396206E+02 -0.16561293561E+02  0.12565547151E+02  0.56255991062E+02  0.10000000000E+01 0.  0.
<mgrwt>
<rscale>  0 0.12500010E+03</rscale>
<asrwt>0</asrwt>
<pdfrwt beam="1">  1        4 0.71547652E-02 0.12500010E+03</pdfrwt>
<pdfrwt beam="2">  1       -4 0.12922265E-01 0.12500010E+03</pdfrwt>
<totfact> 0.10333782E+04</totfact>
</mgrwt>
</event>
<event>
 5    1  0.3272646E-002  0.1249967E+03  0.7818608E-02  0.1235074E+00
          4   -1    0    0  501    0  0.00000000000E+00  0.00000000000E+00  0.14358498941E+03  0.14359060583E+03  0.12700000000E+01 0. -1.
         -4   -1    0    0    0  501 -0.00000000000E+00 -0.00000000000E+00 -0.27182727344E+02  0.27212378908E+02  0.12700000000E+01 0. -1.
         25    2    1    2    0    0  0.00000000000E+00  0.00000000000E+00  0.11640226207E+03  0.17080298474E+03  0.12499669189E+03 0.  0.
    9000005    1    3    3    0    0  0.11395249537E+02 -0.60783893994E+02  0.70461998975E+02  0.93757275881E+02  0.10000000000E+01 0.  0.
    9000005    1    3    3    0    0 -0.11395249537E+02  0.60783893994E+02  0.45940263091E+02  0.77045708862E+02  0.10000000000E+01 0.  0.
<mgrwt>
<rscale>  0 0.12499669E+03</rscale>
<asrwt>0</asrwt>
<pdfrwt beam="1">  1        4 0.22092712E-01 0.12499669E+03</pdfrwt>
<pdfrwt beam="2">  1       -4 0.41846709E-02 0.12499669E+03</pdfrwt>
<totfact> 0.95306258E+03</totfact>
</mgrwt>
</event>
<event>
 5    1  0.3272646E-002  0.1249993E+03  0.7818608E-02  0.1235070E+00
         -4   -1    0    0    0  501 -0.00000000000E+00  0.00000000000E+00  0.47919935051E+02  0.47936761210E+02  0.12700000000E+01 0.  1.
          4   -1    0    0  501    0  0.00000000000E+00 -0.00000000000E+00 -0.81479131839E+02  0.81489028864E+02  0.12700000000E+01 0.  1.
         25    2    1    2    0    0  0.00000000000E+00  0.00000000000E+00 -0.33559196788E+02  0.12942579007E+03  0.12499926179E+03 0.  0.
    9000005    1    3    3    0    0  0.58585578191E+02  0.17752533866E+02 -0.29785525696E+02  0.68085240483E+02  0.10000000000E+01 0.  0.
    9000005    1    3    3    0    0 -0.58585578191E+02 -0.17752533866E+02 -0.37736710916E+01  0.61340549591E+02  0.10000000000E+01 0.  0.
<mgrwt>
<rscale>  0 0.12499926E+03</rscale>
<asrwt>0</asrwt>
<pdfrwt beam="2">  1        4 0.12537307E-01 0.12499926E+03</pdfrwt>
<pdfrwt beam="1">  1       -4 0.73743533E-02 0.12499926E+03</pdfrwt>
<totfact> 0.10356979E+04</totfact>
</mgrwt>
</event>
<event>
 5    1  0.3272646E-002  0.1249985E+03  0.7818608E-02  0.1235072E+00
          4   -1    0    0  501    0  0.00000000000E+00  0.00000000000E+00  0.54858363631E+03  0.54858510637E+03  0.12700000000E+01 0. -1.
         -4   -1    0    0    0  501 -0.00000000000E+00 -0.00000000000E+00 -0.70623193907E+01  0.71756013808E+01  0.12700000000E+01 0. -1.
         25    2    1    2    0    0  0.00000000000E+00  0.00000000000E+00  0.54152131692E+03  0.55576070775E+03  0.12499851038E+03 0.  0.
    9000005    1    3    3    0    0  0.32544503164E+02  0.23608550219E+02  0.48346313992E+03  0.48513309101E+03  0.10000000000E+01 0.  0.
    9000005    1    3    3    0    0 -0.32544503164E+02 -0.23608550219E+02  0.58058176994E+02  0.70627616734E+02  0.10000000000E+01 0.  0.
<mgrwt>
<rscale>  0 0.12499851E+03</rscale>
<asrwt>0</asrwt>
<pdfrwt beam="1">  1        4 0.84406302E-01 0.12499851E+03</pdfrwt>
<pdfrwt beam="2">  1       -4 0.10953379E-02 0.12499851E+03</pdfrwt>
<totfact> 0.51786446E+03</totfact>
</mgrwt>
</event>
<event>
 5    1  0.3272646E-002  0.1250006E+03  0.7818608E-02  0.1235068E+00
         -4   -1    0    0    0  501 -0.00000000000E+00  0.00000000000E+00  0.17121190105E+04  0.17121194815E+04  0.12700000000E+01 0. -1.
          4   -1    0    0  501    0  0.00000000000E+00 -0.00000000000E+00 -0.21043087240E+01  0.24578476775E+01  0.12700000000E+01 0. -1.
         25    2    1    2    0    0  0.00000000000E+00  0.00000000000E+00  0.17100147018E+04  0.17145773292E+04  0.12500055009E+03 0.  0.
    9000005    1    3    3    0    0 -0.30588620573E+02  0.29515087149E+02  0.22666316430E+03  0.23061655216E+03  0.10000000000E+01 0.  0.
    9000005    1    3    3    0    0  0.30588620573E+02 -0.29515087149E+02  0.14833515375E+04  0.14839607770E+04  0.10000000000E+01 0.  0.
<mgrwt>
<rscale>  0 0.12500055E+03</rscale>
<asrwt>0</asrwt>
<pdfrwt beam="2">  1        4 0.35097221E-03 0.12500055E+03</pdfrwt>
<pdfrwt beam="1">  1       -4 0.26342951E+00 0.12500055E+03</pdfrwt>
<totfact> 0.14066044E+03</totfact>
</mgrwt>
</event>
<event>
 5    1  0.3272646E-002  0.1250006E+03  0.7818608E-02  0.1235068E+00
          4   -1    0    0  501    0  0.00000000000E+00  0.00000000000E+00  0.13083887728E+03  0.13084504083E+03  0.12700000000E+01 0. -1.
         -4   -1    0    0    0  501 -0.00000000000E+00 -0.00000000000E+00 -0.29835343474E+02  0.29862361263E+02  0.12700000000E+01 0. -1.
         25    2    1    2    0    0  0.00000000000E+00  0.00000000000E+00  0.10100353381E+03  0.16070740209E+03  0.12500062098E+03 0.  0.
    9000005    1    3    3    0    0  0.56899536976E+02  0.22818442761E+02  0.34911394835E+02  0.70555255845E+02  0.10000000000E+01 0.  0.
    9000005    1    3    3    0    0 -0.56899536976E+02 -0.22818442761E+02  0.66092138975E+02  0.90152146244E+02  0.10000000000E+01 0.  0.
<mgrwt>
<rscale>  0 0.12500062E+03</rscale>
<asrwt>0</asrwt>
<pdfrwt beam="1">  1        4 0.20131611E-01 0.12500062E+03</pdfrwt>
<pdfrwt beam="2">  1       -4 0.45926052E-02 0.12500062E+03</pdfrwt>
<totfact> 0.97205220E+03</totfact>
</mgrwt>
</event>
<event>
 5    1  0.3272646E-002  0.1250018E+03  0.7818608E-02  0.1235066E+00
          4   -1    0    0  501    0  0.00000000000E+00  0.00000000000E+00  0.51593388786E+02  0.51609017297E+02  0.12700000000E+01 0.  1.
         -4   -1    0    0    0  501 -0.00000000000E+00 -0.00000000000E+00 -0.75681999485E+02  0.75692654505E+02  0.12700000000E+01 0.  1.
         25    2    1    2    0    0  0.00000000000E+00  0.00000000000E+00 -0.24088610700E+02  0.12730167180E+03  0.12500181790E+03 0.  0.
    9000005    1    3    3    0    0 -0.23462064551E+02  0.57782983003E+02 -0.79679086856E+01  0.62879481284E+02  0.10000000000E+01 0.  0.
    9000005    1    3    3    0    0  0.23462064551E+02 -0.57782983003E+02 -0.16120702014E+02  0.64422190518E+02  0.10000000000E+01 0.  0.
<mgrwt>
<rscale>  0 0.12500182E+03</rscale>
<asrwt>0</asrwt>
<pdfrwt beam="1">  1        4 0.79394662E-02 0.12500182E+03</pdfrwt>
<pdfrwt beam="2">  1       -4 0.11645406E-01 0.12500182E+03</pdfrwt>
<totfact> 0.10402171E+04</totfact>
</mgrwt>
</event>
<event>
 5    1  0.3272646E-002  0.1250008E+03  0.7818608E-02  0.1235068E+00
         -4   -1    0    0    0  501 -0.00000000000E+00  0.00000000000E+00  0.31674456445E+02  0.31699906799E+02  0.12700000000E+01 0. -1.
          4   -1    0    0  501    0  0.00000000000E+00 -0.00000000000E+00 -0.12324818921E+03  0.12325473234E+03  0.12700000000E+01 0. -1.
         25    2    1    2    0    0  0.00000000000E+00  0.00000000000E+00 -0.91573732767E+02  0.15495463914E+03  0.12500076663E+03 0.  0.
    9000005    1    3    3    0    0  0.62087050428E+02  0.10739940815E+01 -0.37079175359E+02  0.72331324746E+02  0.10000000000E+01 0.  0.
    9000005    1    3    3    0    0 -0.62087050428E+02 -0.10739940815E+01 -0.54494557407E+02  0.82623314392E+02  0.10000000000E+01 0.  0.
<mgrwt>
<rscale>  0 0.12500077E+03</rscale>
<asrwt>0</asrwt>
<pdfrwt beam="2">  1        4 0.18963721E-01 0.12500077E+03</pdfrwt>
<pdfrwt beam="1">  1       -4 0.48754544E-02 0.12500077E+03</pdfrwt>
<totfact> 0.98322709E+03</totfact>
</mgrwt>
</event>
<event>
 5    1  0.3272646E-002  0.1250040E+03  0.7818608E-02  0.1235063E+00
          4   -1    0    0  501    0  0.00000000000E+00  0.00000000000E+00  0.60266136993E+02  0.60279516986E+02  0.12700000000E+01 0.  1.
         -4   -1    0    0    0  501 -0.00000000000E+00 -0.00000000000E+00 -0.64793980957E+02  0.64806426134E+02  0.12700000000E+01 0.  1.
         25    2    1    2    0    0  0.00000000000E+00  0.00000000000E+00 -0.45278439638E+01  0.12508594312E+03  0.12500396712E+03 0.  0.
    9000005    1    3    3    0    0  0.42208358970E+02 -0.41197913562E+02 -0.22933806154E+02  0.63291177217E+02  0.10000000000E+01 0.  0.
    9000005    1    3    3    0    0 -0.42208358970E+02  0.41197913562E+02  0.18405962190E+02  0.61794765903E+02  0.10000000000E+01 0.  0.
<mgrwt>
<rscale>  0 0.12500397E+03</rscale>
<asrwt>0</asrwt>
<pdfrwt beam="1">  1        4 0.92736999E-02 0.12500397E+03</pdfrwt>
<pdfrwt beam="2">  1       -4 0.99702914E-02 0.12500397E+03</pdfrwt>
<totfact> 0.10450059E+04</totfact>
</mgrwt>
</event>
<event>
 5    1  0.3272646E-002  0.1250060E+03  0.7818608E-02  0.1235060E+00
          4   -1    0    0  501    0  0.00000000000E+00  0.00000000000E+00  0.35739388050E+01  0.37928799852E+01  0.12700000000E+01 0. -1.
         -4   -1    0    0    0  501 -0.00000000000E+00 -0.00000000000E+00 -0.10603810779E+04  0.10603818384E+04  0.12700000000E+01 0. -1.
         25    2    1    2    0    0  0.00000000000E+00  0.00000000000E+00 -0.10568071391E+04  0.10641747184E+04  0.12500600813E+03 0.  0.
    9000005    1    3    3    0    0  0.14049191953E+02 -0.60831572717E+02 -0.50468075066E+03  0.50852878003E+03  0.10000000000E+01 0.  0.
    9000005    1    3    3    0    0 -0.14049191953E+02  0.60831572717E+02 -0.55212638843E+03  0.55564593837E+03  0.10000000000E+01 0.  0.
<mgrwt>
<rscale>  0 0.12500601E+03</rscale>
<asrwt>0</asrwt>
<pdfrwt beam="1">  1        4 0.56673772E-03 0.12500601E+03</pdfrwt>
<pdfrwt beam="2">  1       -4 0.16315221E+00 0.12500601E+03</pdfrwt>
<totfact> 0.28552582E+03</totfact>
</mgrwt>
</event>
<event>
 5    1  0.3272646E-002  0.1250500E+03  0.7818608E-02  0.1234991E+00
          4   -1    0    0  501    0  0.00000000000E+00  0.00000000000E+00  0.71815763937E+01  0.72930062045E+01  0.12700000000E+01 0.  1.
         -4   -1    0    0    0  501 -0.00000000000E+00 -0.00000000000E+00 -0.54005863134E+03  0.54006012460E+03  0.12700000000E+01 0.  1.
         25    2    1    2    0    0  0.00000000000E+00  0.00000000000E+00 -0.53287705495E+03  0.54735313081E+03  0.12504996647E+03 0.  0.
    9000005    1    3    3    0    0 -0.56140838622E+02  0.21777691602E+02 -0.33998276196E+03  0.34527574494E+03  0.10000000000E+01 0.  0.
    9000005    1    3    3    0    0  0.56140838622E+02 -0.21777691602E+02 -0.19289429299E+03  0.20207738587E+03  0.10000000000E+01 0.  0.
<mgrwt>
<rscale>  0 0.12504997E+03</rscale>
<asrwt>0</asrwt>
<pdfrwt beam="1">  1        4 0.11135447E-02 0.12504997E+03</pdfrwt>
<pdfrwt beam="2">  1       -4 0.83094598E-01 0.12504997E+03</pdfrwt>
<totfact> 0.52311516E+03</totfact>
</mgrwt>
</event>
<event>
 5    1  0.3272646E-002  0.1250003E+03  0.7818608E-02  0.1235069E+00
         -4   -1    0    0    0  501 -0.00000000000E+00  0.00000000000E+00  0.16601520715E+02  0.16650026728E+02  0.12700000000E+01 0.  1.
          4   -1    0    0  501    0  0.00000000000E+00 -0.00000000000E+00 -0.23490230615E+03  0.23490573926E+03  0.12700000000E+01 0.  1.
         25    2    1    2    0    0  0.00000000000E+00  0.00000000000E+00 -0.21830078544E+03  0.25155576599E+03  0.12500028191E+03 0.  0.
    9000005    1    3    3    0    0 -0.55789645435E+02  0.24595569234E+02 -0.81568850626E+02  0.10184254492E+03  0.10000000000E+01 0.  0.
    9000005    1    3    3    0    0  0.55789645435E+02 -0.24595569234E+02 -0.13673193481E+03  0.14971322106E+03  0.10000000000E+01 0.  0.
<mgrwt>
<rscale>  0 0.12500028E+03</rscale>
<asrwt>0</asrwt>
<pdfrwt beam="2">  1        4 0.36142809E-01 0.12500028E+03</pdfrwt>
<pdfrwt beam="1">  1       -4 0.25580756E-02 0.12500028E+03</pdfrwt>
<totfact> 0.82105376E+03</totfact>
</mgrwt>
</event>
<event>
 5    1  0.3272646E-002  0.1249998E+03  0.7818608E-02  0.1235070E+00
          4   -1    0    0  501    0  0.00000000000E+00  0.00000000000E+00  0.27730589673E+01  0.30500419729E+01  0.12700000000E+01 0. -1.
         -4   -1    0    0    0  501 -0.00000000000E+00 -0.00000000000E+00 -0.13413572630E+04  0.13413578643E+04  0.12700000000E+01 0. -1.
         25    2    1    2    0    0  0.00000000000E+00  0.00000000000E+00 -0.13385842041E+04  0.13444079062E+04  0.12499978779E+03 0.  0.
    9000005    1    3    3    0    0  0.35943258234E+02  0.32905161123E+01 -0.12061550558E+03  0.12590411230E+03  0.10000000000E+01 0.  0.
    9000005    1    3    3    0    0 -0.35943258234E+02 -0.32905161123E+01 -0.12179686985E+04  0.12185037939E+04  0.10000000000E+01 0.  0.
<mgrwt>
<rscale>  0 0.12499979E+03</rscale>
<asrwt>0</asrwt>
<pdfrwt beam="1">  1        4 0.44797816E-03 0.12499979E+03</pdfrwt>
<pdfrwt beam="2">  1       -4 0.20638351E+00 0.12499979E+03</pdfrwt>
<totfact> 0.21204196E+03</totfact>
</mgrwt>
</event>
<event>
 5    1  0.3272646E-002  0.1250015E+03  0.7818608E-02  0.1235067E+00
         -4   -1    0    0    0  501 -0.00000000000E+00  0.00000000000E+00  0.54661349434E+02  0.54676101013E+02  0.12700000000E+01 0. -1.
          4   -1    0    0  501    0  0.00000000000E+00 -0.00000000000E+00 -0.71434451048E+02  0.71445739527E+02  0.12700000000E+01 0. -1.
         25    2    1    2    0    0  0.00000000000E+00  0.00000000000E+00 -0.16773101614E+02  0.12612184054E+03  0.12500152688E+03 0.  0.
    9000005    1    3    3    0    0  0.41957049401E+02  0.46310662330E+02 -0.89146834989E+01  0.63131157298E+02  0.10000000000E+01 0.  0.
    9000005    1    3    3    0    0 -0.41957049401E+02 -0.46310662330E+02 -0.78584181154E+01  0.62990683241E+02  0.10000000000E+01 0.  0.
<mgrwt>
<rscale>  0 0.12500153E+03</rscale>
<asrwt>0</asrwt>
<pdfrwt beam="2">  1        4 0.10991919E-01 0.12500153E+03</pdfrwt>
<pdfrwt beam="1">  1       -4 0.84114414E-02 0.12500153E+03</pdfrwt>
<totfact> 0.10427929E+04</totfact>
</mgrwt>
</event>
<event>
 5    1  0.3272646E-002  0.1249980E+03  0.7818608E-02  0.1235072E+00
          4   -1    0    0  501    0  0.00000000000E+00  0.00000000000E+00  0.15140601278E+03  0.15141133910E+03  0.12700000000E+01 0.  1.
         -4   -1    0    0    0  501 -0.00000000000E+00 -0.00000000000E+00 -0.25777599654E+02  0.25808865607E+02  0.12700000000E+01 0.  1.
         25    2    1    2    0    0  0.00000000000E+00  0.00000000000E+00  0.12562841313E+03  0.17722020470E+03  0.12499801106E+03 0.  0.
    9000005    1    3    3    0    0 -0.52164565939E+02  0.15371563665E+02  0.19168121705E+02  0.57670129173E+02  0.10000000000E+01 0.  0.
    9000005    1    3    3    0    0  0.52164565939E+02 -0.15371563665E+02  0.10646029143E+03  0.11955007553E+03  0.10000000000E+01 0.  0.
<mgrwt>
<rscale>  0 0.12499801E+03</rscale>
<asrwt>0</asrwt>
<pdfrwt beam="1">  1        4 0.23296047E-01 0.12499801E+03</pdfrwt>
<pdfrwt beam="2">  1       -4 0.39685994E-02 0.12499801E+03</pdfrwt>
<totfact> 0.94123981E+03</totfact>
</mgrwt>
</event>
<event>
 5    1  0.3272646E-002  0.1249958E+03  0.7818608E-02  0.1235076E+00
          4   -1    0    0  501    0  0.00000000000E+00  0.00000000000E+00  0.62843716705E+03  0.62843845031E+03  0.12700000000E+01 0.  1.
         -4   -1    0    0    0  501 -0.00000000000E+00 -0.00000000000E+00 -0.61492198852E+01  0.62789971489E+01  0.12700000000E+01 0.  1.
         25    2    1    2    0    0  0.00000000000E+00  0.00000000000E+00  0.62228794717E+03  0.63471744746E+03  0.12499579563E+03 0.  0.
    9000005    1    3    3    0    0  0.53299922689E+02 -0.32116347645E+02  0.28213061986E+03  0.28891353068E+03  0.10000000000E+01 0.  0.
    9000005    1    3    3    0    0 -0.53299922689E+02  0.32116347645E+02  0.34015732731E+03  0.34580391679E+03  0.10000000000E+01 0.  0.
<mgrwt>
<rscale>  0 0.12499580E+03</rscale>
<asrwt>0</asrwt>
<pdfrwt beam="1">  1        4 0.96692768E-01 0.12499580E+03</pdfrwt>
<pdfrwt beam="2">  1       -4 0.95611496E-03 0.12499580E+03</pdfrwt>
<totfact> 0.46751290E+03</totfact>
</mgrwt>
</event>
<event>
 5    1  0.3272646E-002  0.1249944E+03  0.7818608E-02  0.1235078E+00
          4   -1    0    0  501    0  0.00000000000E+00  0.00000000000E+00  0.46523696784E+02  0.46541027734E+02  0.12700000000E+01 0. -1.
         -4   -1    0    0    0  501 -0.00000000000E+00 -0.00000000000E+00 -0.83917339419E+02  0.83926948920E+02  0.12700000000E+01 0. -1.
         25    2    1    2    0    0  0.00000000000E+00  0.00000000000E+00 -0.37393642634E+02  0.13046797665E+03  0.12499443357E+03 0.  0.
    9000005    1    3    3    0    0  0.49317371332E+01  0.10141783893E+02  0.45457864721E+02  0.46846507625E+02  0.10000000000E+01 0.  0.
    9000005    1    3    3    0    0 -0.49317371332E+01 -0.10141783893E+02 -0.82851507355E+02  0.83621469029E+02  0.10000000000E+01 0.  0.
<mgrwt>
<rscale>  0 0.12499443E+03</rscale>
<asrwt>0</asrwt>
<pdfrwt beam="1">  1        4 0.71595642E-02 0.12499443E+03</pdfrwt>
<pdfrwt beam="2">  1       -4 0.12912432E-01 0.12499443E+03</pdfrwt>
<totfact> 0.10335805E+04</totfact>
</mgrwt>
</event>
<event>
 5    1  0.3272646E-002  0.1250013E+03  0.7818608E-02  0.1235067E+00
          4   -1    0    0  501    0  0.00000000000E+00  0.00000000000E+00  0.25943437464E+02  0.25974503796E+02  0.12700000000E+01 0. -1.
         -4   -1    0    0    0  501 -0.00000000000E+00 -0.00000000000E+00 -0.15044728733E+03  0.15045264759E+03  0.12700000000E+01 0. -1.
         25    2    1    2    0    0  0.00000000000E+00  0.00000000000E+00 -0.12450384987E+03  0.17642715138E+03  0.12500132444E+03 0.  0.
    9000005    1    3    3    0    0 -0.24196876545E+02 -0.70314251529E+01  0.18462553348E+02  0.31253730183E+02  0.10000000000E+01 0.  0.
    9000005    1    3    3    0    0  0.24196876545E+02  0.70314251529E+01 -0.14296640322E+03  0.14517342120E+03  0.10000000000E+01 0.  0.
<mgrwt>
<rscale>  0 0.12500132E+03</rscale>
<asrwt>0</asrwt>
<pdfrwt beam="1">  1        4 0.39941002E-02 0.12500132E+03</pdfrwt>
<pdfrwt beam="2">  1       -4 0.23148538E-01 0.12500132E+03</pdfrwt>
<totfact> 0.94261309E+03</totfact>
</mgrwt>
</event>
<event>
 4    1  0.3272646E-002  0.1264188E+03  0.7818608E-02  0.1232868E+00
         -4   -1    0    0    0  501 -0.00000000000E+00  0.00000000000E+00  0.28919460650E+02  0.28947333285E+02  0.12700000000E+01 0.  1.
          4   -1    0    0  501    0  0.00000000000E+00 -0.00000000000E+00 -0.13805982054E+03  0.13806566173E+03  0.12700000000E+01 0.  1.
    9000005    1    1    2    0    0  0.48569482247E+02  0.20456613935E+02 -0.84833169725E+01  0.53389458943E+02  0.10000000000E+01 0.  0.
    9000005    1    1    2    0    0 -0.48569482247E+02 -0.20456613935E+02 -0.10065704292E+03  0.11362353607E+03  0.10000000000E+01 0.  0.
<mgrwt>
<rscale>  0 0.12641884E+03</rscale>
<asrwt>0</asrwt>
<pdfrwt beam="2">  1        4 0.21242565E-01 0.12641884E+03</pdfrwt>
<pdfrwt beam="1">  1       -4 0.44517412E-02 0.12641884E+03</pdfrwt>
<totfact> 0.93011014E+03</totfact>
</mgrwt>
</event>
<event>
 5    1  0.3272646E-002  0.1250005E+03  0.7818608E-02  0.1235069E+00
         -4   -1    0    0    0  501 -0.00000000000E+00  0.00000000000E+00  0.80550002031E+01  0.81545035577E+01  0.12700000000E+01 0.  1.
          4   -1    0    0  501    0  0.00000000000E+00 -0.00000000000E+00 -0.48187379081E+03  0.48187546438E+03  0.12700000000E+01 0.  1.
         25    2    1    2    0    0  0.00000000000E+00  0.00000000000E+00 -0.47381879061E+03  0.49002996794E+03  0.12500049257E+03 0.  0.
    9000005    1    3    3    0    0  0.14798754883E+02  0.59647177906E+02 -0.19247199587E+03  0.20204766312E+03  0.10000000000E+01 0.  0.
    9000005    1    3    3    0    0 -0.14798754883E+02 -0.59647177906E+02 -0.28134679474E+03  0.28798230482E+03  0.10000000000E+01 0.  0.
<mgrwt>
<rscale>  0 0.12500049E+03</rscale>
<asrwt>0</asrwt>
<pdfrwt beam="2">  1        4 0.74142189E-01 0.12500049E+03</pdfrwt>
<pdfrwt beam="1">  1       -4 0.12470140E-02 0.12500049E+03</pdfrwt>
<totfact> 0.56645697E+03</totfact>
</mgrwt>
</event>
<event>
 5    1  0.3272646E-002  0.1249991E+03  0.7818608E-02  0.1235071E+00
          4   -1    0    0  501    0  0.00000000000E+00  0.00000000000E+00  0.49010359568E+02  0.49026811491E+02  0.12700000000E+01 0. -1.
         -4   -1    0    0    0  501 -0.00000000000E+00 -0.00000000000E+00 -0.79666509583E+02  0.79676631763E+02  0.12700000000E+01 0. -1.
         25    2    1    2    0    0  0.00000000000E+00  0.00000000000E+00 -0.30656150016E+02  0.12870344325E+03  0.12499910708E+03 0.  0.
    9000005    1    3    3    0    0  0.34842060474E+02 -0.53339696659E+01 -0.68459368785E+02  0.77007178788E+02  0.10000000000E+01 0.  0.
    9000005    1    3    3    0    0 -0.34842060474E+02  0.53339696659E+01  0.37803218769E+02  0.51696264466E+02  0.10000000000E+01 0.  0.
<mgrwt>
<rscale>  0 0.12499911E+03</rscale>
<asrwt>0</asrwt>
<pdfrwt beam="1">  1        4 0.75420995E-02 0.12499911E+03</pdfrwt>
<pdfrwt beam="2">  1       -4 0.12258430E-01 0.12499911E+03</pdfrwt>
<totfact> 0.10372533E+04</totfact>
</mgrwt>
</event>
<event>
 5    1  0.3272646E-002  0.1250011E+03  0.7818608E-02  0.1235068E+00
         -4   -1    0    0    0  501 -0.00000000000E+00  0.00000000000E+00  0.34077371344E+03  0.34077607996E+03  0.12700000000E+01 0. -1.
          4   -1    0    0  501    0  0.00000000000E+00 -0.00000000000E+00 -0.11425500067E+02  0.11495866726E+02  0.12700000000E+01 0. -1.
         25    2    1    2    0    0  0.00000000000E+00  0.00000000000E+00  0.32934821337E+03  0.35227194669E+03  0.12500111507E+03 0.  0.
    9000005    1    3    3    0    0  0.42048569594E+02  0.36120406885E+02  0.24598903776E+03  0.25215941921E+03  0.10000000000E+01 0.  0.
    9000005    1    3    3    0    0 -0.42048569594E+02 -0.36120406885E+02  0.83359175612E+02  0.10011252747E+03  0.10000000000E+01 0.  0.
<mgrwt>
<rscale>  0 0.12500112E+03</rscale>
<asrwt>0</asrwt>
<pdfrwt beam="2">  1        4 0.17633639E-02 0.12500112E+03</pdfrwt>
<pdfrwt beam="1">  1       -4 0.52432325E-01 0.12500112E+03</pdfrwt>
<totfact> 0.69473616E+03</totfact>
</mgrwt>
</event>
<event>
 5    1  0.3272646E-002  0.1249800E+03  0.7818608E-02  0.1235101E+00
         -4   -1    0    0    0  501 -0.00000000000E+00  0.00000000000E+00  0.18594280472E+03  0.18594714176E+03  0.12700000000E+01 0.  1.
          4   -1    0    0  501    0  0.00000000000E+00 -0.00000000000E+00 -0.20977290352E+02  0.21015699144E+02  0.12700000000E+01 0.  1.
         25    2    1    2    0    0  0.00000000000E+00  0.00000000000E+00  0.16496551437E+03  0.20696284090E+03  0.12497998473E+03 0.  0.
    9000005    1    3    3    0    0 -0.22037955013E+02  0.20945779144E+02  0.17287497454E+03  0.17553106263E+03  0.10000000000E+01 0.  0.
    9000005    1    3    3    0    0  0.22037955013E+02 -0.20945779144E+02 -0.79094601733E+01  0.31431778271E+02  0.10000000000E+01 0.  0.
<mgrwt>
<rscale>  0 0.12497998E+03</rscale>
<asrwt>0</asrwt>
<pdfrwt beam="2">  1        4 0.32305637E-02 0.12497998E+03</pdfrwt>
<pdfrwt beam="1">  1       -4 0.28609873E-01 0.12497998E+03</pdfrwt>
<totfact> 0.89014140E+03</totfact>
</mgrwt>
</event>
<event>
 5    1  0.3272646E-002  0.1250007E+03  0.7818608E-02  0.1235068E+00
          4   -1    0    0  501    0  0.00000000000E+00  0.00000000000E+00  0.13404582308E+02  0.13464610163E+02  0.12700000000E+01 0.  1.
         -4   -1    0    0    0  501 -0.00000000000E+00 -0.00000000000E+00 -0.29070220391E+03  0.29070497804E+03  0.12700000000E+01 0.  1.
         25    2    1    2    0    0  0.00000000000E+00  0.00000000000E+00 -0.27729762160E+03  0.30416958820E+03  0.12500066977E+03 0.  0.
    9000005    1    3    3    0    0  0.14089614125E+02  0.60547745967E+02 -0.15418130160E+03  0.16624506168E+03  0.10000000000E+01 0.  0.
    9000005    1    3    3    0    0 -0.14089614125E+02 -0.60547745967E+02 -0.12311632000E+03  0.13792452653E+03  0.10000000000E+01 0.  0.
<mgrwt>
<rscale>  0 0.12500067E+03</rscale>
<asrwt>0</asrwt>
<pdfrwt beam="1">  1        4 0.20670746E-02 0.12500067E+03</pdfrwt>
<pdfrwt beam="2">  1       -4 0.44728242E-01 0.12500067E+03</pdfrwt>
<totfact> 0.75077658E+03</totfact>
</mgrwt>
</event>
<event>
 5    1  0.3272646E-002  0.1250001E+03  0.7818608E-02  0.1235069E+00
          4   -1    0    0  501    0  0.00000000000E+00  0.00000000000E+00  0.13528902347E+04  0.13528908308E+04  0.12700000000E+01 0.  1.
         -4   -1    0    0    0  501 -0.00000000000E+00 -0.00000000000E+00 -0.27470638578E+01  0.30264269096E+01  0.12700000000E+01 0.  1.
         25    2    1    2    0    0  0.00000000000E+00  0.00000000000E+00  0.13501431708E+04  0.13559172577E+04  0.12500011187E+03 0.  0.
    9000005    1    3    3    0    0  0.33864652836E+02 -0.52443313081E+02  0.64412114636E+03  0.64713999026E+03  0.10000000000E+01 0.  0.
    9000005    1    3    3    0    0 -0.33864652836E+02  0.52443313081E+02  0.70602202448E+03  0.70877726745E+03  0.10000000000E+01 0.  0.
<mgrwt>
<rscale>  0 0.12500011E+03</rscale>
<asrwt>0</asrwt>
<pdfrwt beam="1">  1        4 0.20815815E+00 0.12500011E+03</pdfrwt>
<pdfrwt beam="2">  1       -4 0.44416127E-03 0.12500011E+03</pdfrwt>
<totfact> 0.20945919E+03</totfact>
</mgrwt>
</event>
<event>
 5    1  0.3272646E-002  0.1250148E+03  0.7818608E-02  0.1235046E+00
         -4   -1    0    0    0  501 -0.00000000000E+00  0.00000000000E+00  0.12011523559E+03  0.12012194937E+03  0.12700000000E+01 0.  1.
          4   -1    0    0  501    0  0.00000000000E+00 -0.00000000000E+00 -0.32508508577E+02  0.32533306470E+02  0.12700000000E+01 0.  1.
         25    2    1    2    0    0  0.00000000000E+00  0.00000000000E+00  0.87606727012E+02  0.15265525584E+03  0.12501475320E+03 0.  0.
    9000005    1    3    3    0    0 -0.26752031601E+02  0.83548672468E+01 -0.24411074298E+02  0.37180311320E+02  0.10000000000E+01 0.  0.
    9000005    1    3    3    0    0  0.26752031601E+02 -0.83548672468E+01  0.11201780131E+03  0.11547494452E+03  0.10000000000E+01 0.  0.
<mgrwt>
<rscale>  0 0.12501475E+03</rscale>
<asrwt>0</asrwt>
<pdfrwt beam="2">  1        4 0.50037329E-02 0.12501475E+03</pdfrwt>
<pdfrwt beam="1">  1       -4 0.18481691E-01 0.12501475E+03</pdfrwt>
<totfact> 0.98744242E+03</totfact>
</mgrwt>
</event>
<event>
 5    1  0.3272646E-002  0.1250055E+03  0.7818608E-02  0.1235061E+00
         -4   -1    0    0    0  501 -0.00000000000E+00  0.00000000000E+00  0.44019992917E+02  0.44038309192E+02  0.12700000000E+01 0. -1.
          4   -1    0    0  501    0  0.00000000000E+00 -0.00000000000E+00 -0.88704625730E+02  0.88713716673E+02  0.12700000000E+01 0. -1.
         25    2    1    2    0    0  0.00000000000E+00  0.00000000000E+00 -0.44684632812E+02  0.13275202586E+03  0.12500553572E+03 0.  0.
    9000005    1    3    3    0    0 -0.16895576971E+02 -0.57602166434E+02 -0.38834135615E+01  0.60162704394E+02  0.10000000000E+01 0.  0.
    9000005    1    3    3    0    0  0.16895576971E+02  0.57602166434E+02 -0.40801219251E+02  0.72589321470E+02  0.10000000000E+01 0.  0.
<mgrwt>
<rscale>  0 0.12500554E+03</rscale>
<asrwt>0</asrwt>
<pdfrwt beam="2">  1        4 0.13648974E-01 0.12500554E+03</pdfrwt>
<pdfrwt beam="1">  1       -4 0.67744149E-02 0.12500554E+03</pdfrwt>
<totfact> 0.10284389E+04</totfact>
</mgrwt>
</event>
<event>
 5    1  0.3272646E-002  0.1250041E+03  0.7818608E-02  0.1235063E+00
         -4   -1    0    0    0  501 -0.00000000000E+00  0.00000000000E+00  0.13665206825E+02  0.13724094782E+02  0.12700000000E+01 0.  1.
          4   -1    0    0  501    0  0.00000000000E+00 -0.00000000000E+00 -0.28519734976E+03  0.28520017744E+03  0.12700000000E+01 0.  1.
         25    2    1    2    0    0  0.00000000000E+00  0.00000000000E+00 -0.27153214294E+03  0.29892427222E+03  0.12500406343E+03 0.  0.
    9000005    1    3    3    0    0 -0.43050173580E+02  0.12364416116E+02 -0.31549995021E+02  0.54795970810E+02  0.10000000000E+01 0.  0.
    9000005    1    3    3    0    0  0.43050173580E+02 -0.12364416116E+02 -0.23998214791E+03  0.24412830141E+03  0.10000000000E+01 0.  0.
<mgrwt>
<rscale>  0 0.12500406E+03</rscale>
<asrwt>0</asrwt>
<pdfrwt beam="2">  1        4 0.43881258E-01 0.12500406E+03</pdfrwt>
<pdfrwt beam="1">  1       -4 0.21070871E-02 0.12500406E+03</pdfrwt>
<totfact> 0.75727145E+03</totfact>
</mgrwt>
</event>
<event>
 5    1  0.3272646E-002  0.1250146E+03  0.7818608E-02  0.1235047E+00
         -4   -1    0    0    0  501 -0.00000000000E+00  0.00000000000E+00  0.92526070845E+02  0.92534786356E+02  0.12700000000E+01 0. -1.
          4   -1    0    0  501    0  0.00000000000E+00 -0.00000000000E+00 -0.42207406916E+02  0.42226509429E+02  0.12700000000E+01 0. -1.
         25    2    1    2    0    0  0.00000000000E+00  0.00000000000E+00  0.50318663929E+02  0.13476129579E+03  0.12501455476E+03 0.  0.
    9000005    1    3    3    0    0 -0.16711116837E+02  0.55897514574E+02  0.49320325551E+02  0.76402147051E+02  0.10000000000E+01 0.  0.
    9000005    1    3    3    0    0  0.16711116837E+02 -0.55897514574E+02  0.99833837758E+00  0.58359148735E+02  0.10000000000E+01 0.  0.
<mgrwt>
<rscale>  0 0.12501455E+03</rscale>
<asrwt>0</asrwt>
<pdfrwt beam="2">  1        4 0.64955871E-02 0.12501455E+03</pdfrwt>
<pdfrwt beam="1">  1       -4 0.14236920E-01 0.12501455E+03</pdfrwt>
<totfact> 0.10239743E+04</totfact>
</mgrwt>
</event>
<event>
 5    1  0.3272646E-002  0.1250014E+03  0.7818608E-02  0.1235067E+00
         -4   -1    0    0    0  501 -0.00000000000E+00  0.00000000000E+00  0.55829278944E+02  0.55843722005E+02  0.12700000000E+01 0.  1.
          4   -1    0    0  501    0  0.00000000000E+00 -0.00000000000E+00 -0.69940117393E+02  0.69951647021E+02  0.12700000000E+01 0.  1.
         25    2    1    2    0    0  0.00000000000E+00  0.00000000000E+00 -0.14110838449E+02  0.12579536903E+03  0.12500143642E+03 0.  0.
    9000005    1    3    3    0    0  0.40029597145E+02 -0.79313879195E+01  0.40574504275E+02  0.57554895180E+02  0.10000000000E+01 0.  0.
    9000005    1    3    3    0    0 -0.40029597145E+02  0.79313879195E+01 -0.54685342724E+02  0.68240473847E+02  0.10000000000E+01 0.  0.
<mgrwt>
<rscale>  0 0.12500144E+03</rscale>
<asrwt>0</asrwt>
<pdfrwt beam="2">  1        4 0.10762016E-01 0.12500144E+03</pdfrwt>
<pdfrwt beam="1">  1       -4 0.85911178E-02 0.12500144E+03</pdfrwt>
<totfact> 0.10435109E+04</totfact>
</mgrwt>
</event>
<event>
 5    1  0.3272646E-002  0.1249984E+03  0.7818608E-02  0.1235072E+00
         -4   -1    0    0    0  501 -0.00000000000E+00  0.00000000000E+00  0.19783957687E+02  0.19824678604E+02  0.12700000000E+01 0. -1.
          4   -1    0    0  501    0  0.00000000000E+00 -0.00000000000E+00 -0.19719465572E+03  0.19719874529E+03  0.12700000000E+01 0. -1.
         25    2    1    2    0    0  0.00000000000E+00  0.00000000000E+00 -0.17741069803E+03  0.21702342389E+03  0.12499844296E+03 0.  0.
    9000005    1    3    3    0    0  0.13767790573E+02 -0.35985211127E+02 -0.32834205465E+01  0.38681627779E+02  0.10000000000E+01 0.  0.
    9000005    1    3    3    0    0 -0.13767790573E+02  0.35985211127E+02 -0.17412727748E+03  0.17834179611E+03  0.10000000000E+01 0.  0.
<mgrwt>
<rscale>  0 0.12499844E+03</rscale>
<asrwt>0</asrwt>
<pdfrwt beam="2">  1        4 0.30341085E-01 0.12499844E+03</pdfrwt>
<pdfrwt beam="1">  1       -4 0.30471329E-02 0.12499844E+03</pdfrwt>
<totfact> 0.87344595E+03</totfact>
</mgrwt>
</event>
<event>
 5    1  0.3272646E-002  0.1250026E+03  0.7818608E-02  0.1235065E+00
          4   -1    0    0  501    0  0.00000000000E+00  0.00000000000E+00  0.10585502863E+02  0.10661415050E+02  0.12700000000E+01 0. -1.
         -4   -1    0    0    0  501 -0.00000000000E+00 -0.00000000000E+00 -0.36763873100E+03  0.36764092459E+03  0.12700000000E+01 0. -1.
         25    2    1    2    0    0  0.00000000000E+00  0.00000000000E+00 -0.35705322814E+03  0.37830233964E+03  0.12500260978E+03 0.  0.
    9000005    1    3    3    0    0 -0.49801515981E+02 -0.26001616618E+02 -0.26135913440E+03  0.26733101615E+03  0.10000000000E+01 0.  0.
    9000005    1    3    3    0    0  0.49801515981E+02  0.26001616618E+02 -0.95694093742E+02  0.11097132349E+03  0.10000000000E+01 0.  0.
<mgrwt>
<rscale>  0 0.12500261E+03</rscale>
<asrwt>0</asrwt>
<pdfrwt beam="1">  1        4 0.16345473E-02 0.12500261E+03</pdfrwt>
<pdfrwt beam="2">  1       -4 0.56565803E-01 0.12500261E+03</pdfrwt>
<totfact> 0.66715366E+03</totfact>
</mgrwt>
</event>
<event>
 5    1  0.3272646E-002  0.1249994E+03  0.7818608E-02  0.1235070E+00
         -4   -1    0    0    0  501 -0.00000000000E+00  0.00000000000E+00  0.12450026307E+03  0.12450674040E+03  0.12700000000E+01 0. -1.
          4   -1    0    0  501    0  0.00000000000E+00 -0.00000000000E+00 -0.31355007596E+02  0.31380717030E+02  0.12700000000E+01 0. -1.
         25    2    1    2    0    0  0.00000000000E+00  0.00000000000E+00  0.93145255478E+02  0.15588745743E+03  0.12499944306E+03 0.  0.
    9000005    1    3    3    0    0  0.40547248002E+02 -0.42907028263E+02  0.72134415204E+02  0.93217306610E+02  0.10000000000E+01 0.  0.
    9000005    1    3    3    0    0 -0.40547248002E+02  0.42907028263E+02  0.21010840274E+02  0.62670150821E+02  0.10000000000E+01 0.  0.
<mgrwt>
<rscale>  0 0.12499944E+03</rscale>
<asrwt>0</asrwt>
<pdfrwt beam="2">  1        4 0.48263232E-02 0.12499944E+03</pdfrwt>
<pdfrwt beam="1">  1       -4 0.19156362E-01 0.12499944E+03</pdfrwt>
<totfact> 0.98142790E+03</totfact>
</mgrwt>
</event>
<event>
 5    1  0.3272646E-002  0.1249763E+03  0.7818608E-02  0.1235106E+00
         -4   -1    0    0    0  501 -0.00000000000E+00  0.00000000000E+00  0.19576265820E+02  0.19617417859E+02  0.12700000000E+01 0. -1.
          4   -1    0    0  501    0  0.00000000000E+00 -0.00000000000E+00 -0.19921186267E+03  0.19921591083E+03  0.12700000000E+01 0. -1.
         25    2    1    2    0    0  0.00000000000E+00  0.00000000000E+00 -0.17963559685E+03  0.21883332869E+03  0.12497631012E+03 0.  0.
    9000005    1    3    3    0    0 -0.31704053765E+02 -0.28067197705E+02 -0.93698524667E+01  0.43378666962E+02  0.10000000000E+01 0.  0.
    9000005    1    3    3    0    0  0.31704053765E+02  0.28067197705E+02 -0.17026574438E+03  0.17545466173E+03  0.10000000000E+01 0.  0.
<mgrwt>
<rscale>  0 0.12497631E+03</rscale>
<asrwt>0</asrwt>
<pdfrwt beam="2">  1        4 0.30651454E-01 0.12497631E+03</pdfrwt>
<pdfrwt beam="1">  1       -4 0.30152103E-02 0.12497631E+03</pdfrwt>
<totfact> 0.87099383E+03</totfact>
</mgrwt>
</event>
<event>
 5    1  0.3272646E-002  0.1250012E+03  0.7818608E-02  0.1235067E+00
         -4   -1    0    0    0  501 -0.00000000000E+00  0.00000000000E+00  0.47604255159E+02  0.47621192858E+02  0.12700000000E+01 0. -1.
          4   -1    0    0  501    0  0.00000000000E+00 -0.00000000000E+00 -0.82021866570E+02  0.82031698115E+02  0.12700000000E+01 0. -1.
         25    2    1    2    0    0  0.00000000000E+00  0.00000000000E+00 -0.34417611411E+02  0.12965289097E+03  0.12500120064E+03 0.  0.
    9000005    1    3    3    0    0 -0.57493301912E+02  0.10864129975E+02  0.55583411839E+01  0.58782686580E+02  0.10000000000E+01 0.  0.
    9000005    1    3    3    0    0  0.57493301912E+02 -0.10864129975E+02 -0.39975952595E+02  0.70870204393E+02  0.10000000000E+01 0.  0.
<mgrwt>
<rscale>  0 0.12500120E+03</rscale>
<asrwt>0</asrwt>
<pdfrwt beam="2">  1        4 0.12620808E-01 0.12500120E+03</pdfrwt>
<pdfrwt beam="1">  1       -4 0.73257908E-02 0.12500120E+03</pdfrwt>
<totfact> 0.10351658E+04</totfact>
</mgrwt>
</event>
<event>
 5    1  0.3272646E-002  0.1250001E+03  0.7818608E-02  0.1235069E+00
          4   -1    0    0  501    0  0.00000000000E+00  0.00000000000E+00  0.55075367490E+01  0.56520669707E+01  0.12700000000E+01 0. -1.
         -4   -1    0    0    0  501 -0.00000000000E+00 -0.00000000000E+00 -0.69992536911E+03  0.69992652130E+03  0.12700000000E+01 0. -1.
         25    2    1    2    0    0  0.00000000000E+00  0.00000000000E+00 -0.69441783236E+03  0.70557858827E+03  0.12500007332E+03 0.  0.
    9000005    1    3    3    0    0  0.84708949886E+01  0.49616484635E+02 -0.13815169890E+03  0.14703891838E+03  0.10000000000E+01 0.  0.
    9000005    1    3    3    0    0 -0.84708949886E+01 -0.49616484635E+02 -0.55626613346E+03  0.55853966989E+03  0.10000000000E+01 0.  0.
<mgrwt>
<rscale>  0 0.12500007E+03</rscale>
<asrwt>0</asrwt>
<pdfrwt beam="1">  1        4 0.85852024E-03 0.12500007E+03</pdfrwt>
<pdfrwt beam="2">  1       -4 0.10769196E+00 0.12500007E+03</pdfrwt>
<totfact> 0.42793795E+03</totfact>
</mgrwt>
</event>
<event>
 5    1  0.3272646E-002  0.1250019E+03  0.7818608E-02  0.1235066E+00
          4   -1    0    0  501    0  0.00000000000E+00  0.00000000000E+00  0.68651278831E+02  0.68663024876E+02  0.12700000000E+01 0. -1.
         -4   -1    0    0    0  501 -0.00000000000E+00 -0.00000000000E+00 -0.56877951006E+02  0.56892127845E+02  0.12700000000E+01 0. -1.
         25    2    1    2    0    0  0.00000000000E+00  0.00000000000E+00  0.11773327824E+02  0.12555515272E+03  0.12500194049E+03 0.  0.
    9000005    1    3    3    0    0  0.35935756456E+02 -0.27474950258E+02 -0.37421669703E+02  0.58716546621E+02  0.10000000000E+01 0.  0.
    9000005    1    3    3    0    0 -0.35935756456E+02  0.27474950258E+02  0.49194997527E+02  0.66838606100E+02  0.10000000000E+01 0.  0.
<mgrwt>
<rscale>  0 0.12500194E+03</rscale>
<asrwt>0</asrwt>
<pdfrwt beam="1">  1        4 0.10563729E-01 0.12500194E+03</pdfrwt>
<pdfrwt beam="2">  1       -4 0.87524481E-02 0.12500194E+03</pdfrwt>
<totfact> 0.10440279E+04</totfact>
</mgrwt>
</event>
<event>
 5    1  0.3272646E-002  0.1250021E+03  0.7818608E-02  0.1235066E+00
         -4   -1    0    0    0  501 -0.00000000000E+00  0.00000000000E+00  0.28948945544E+03  0.28949224119E+03  0.12700000000E+01 0.  1.
          4   -1    0    0  501    0  0.00000000000E+00 -0.00000000000E+00 -0.13461287451E+02  0.13521063562E+02  0.12700000000E+01 0.  1.
         25    2    1    2    0    0  0.00000000000E+00  0.00000000000E+00  0.27602816799E+03  0.30301330475E+03  0.12500205332E+03 0.  0.
    9000005    1    3    3    0    0 -0.43979869363E+02  0.83763260909E+01  0.32324040358E+02  0.55228935650E+02  0.10000000000E+01 0.  0.
    9000005    1    3    3    0    0  0.43979869363E+02 -0.83763260909E+01  0.24370412763E+03  0.24778436910E+03  0.10000000000E+01 0.  0.
<mgrwt>
<rscale>  0 0.12500205E+03</rscale>
<asrwt>0</asrwt>
<pdfrwt beam="2">  1        4 0.20757797E-02 0.12500205E+03</pdfrwt>
<pdfrwt beam="1">  1       -4 0.44541653E-01 0.12500205E+03</pdfrwt>
<totfact> 0.75218972E+03</totfact>
</mgrwt>
</event>
<event>
 5    1  0.3272646E-002  0.1249998E+03  0.7818608E-02  0.1235070E+00
          4   -1    0    0  501    0  0.00000000000E+00  0.00000000000E+00  0.14226902173E+02  0.14283474558E+02  0.12700000000E+01 0. -1.
         -4   -1    0    0    0  501 -0.00000000000E+00 -0.00000000000E+00 -0.27396422978E+03  0.27396717340E+03  0.12700000000E+01 0. -1.
         25    2    1    2    0    0  0.00000000000E+00  0.00000000000E+00 -0.25973732761E+03  0.28825064795E+03  0.12499982678E+03 0.  0.
    9000005    1    3    3    0    0  0.17738230871E+02 -0.55068648049E+02 -0.18434311963E+03  0.19321124861E+03  0.10000000000E+01 0.  0.
    9000005    1    3    3    0    0 -0.17738230871E+02  0.55068648049E+02 -0.75394207973E+02  0.95039399347E+02  0.10000000000E+01 0.  0.
<mgrwt>
<rscale>  0 0.12499983E+03</rscale>
<asrwt>0</asrwt>
<pdfrwt beam="1">  1        4 0.21933325E-02 0.12499983E+03</pdfrwt>
<pdfrwt beam="2">  1       -4 0.42152917E-01 0.12499983E+03</pdfrwt>
<totfact> 0.77096993E+03</totfact>
</mgrwt>
</event>
<event>
 5    1  0.3272646E-002  0.1249998E+03  0.7818608E-02  0.1235070E+00
          4   -1    0    0  501    0  0.00000000000E+00  0.00000000000E+00  0.43541108377E+03  0.43541293592E+03  0.12700000000E+01 0.  1.
         -4   -1    0    0    0  501 -0.00000000000E+00 -0.00000000000E+00 -0.89245457527E+01  0.90144559954E+01  0.12700000000E+01 0.  1.
         25    2    1    2    0    0  0.00000000000E+00  0.00000000000E+00  0.42648653801E+03  0.44442739191E+03  0.12499975831E+03 0.  0.
    9000005    1    3    3    0    0 -0.56780771066E+02 -0.80786902092E+01  0.30148044009E+03  0.30688886743E+03  0.10000000000E+01 0.  0.
    9000005    1    3    3    0    0  0.56780771066E+02  0.80786902092E+01  0.12500609793E+03  0.13753852448E+03  0.10000000000E+01 0.  0.
<mgrwt>
<rscale>  0 0.12499976E+03</rscale>
<asrwt>0</asrwt>
<pdfrwt beam="1">  1        4 0.66993397E-01 0.12499976E+03</pdfrwt>
<pdfrwt beam="2">  1       -4 0.13800653E-02 0.12499976E+03</pdfrwt>
<totfact> 0.60449918E+03</totfact>
</mgrwt>
</event>
<event>
 5    1  0.3272646E-002  0.1250026E+03  0.7818608E-02  0.1235065E+00
         -4   -1    0    0    0  501 -0.00000000000E+00  0.00000000000E+00  0.52192156387E+02  0.52207605656E+02  0.12700000000E+01 0.  1.
          4   -1    0    0  501    0  0.00000000000E+00 -0.00000000000E+00 -0.74814874822E+02  0.74825653319E+02  0.12700000000E+01 0.  1.
         25    2    1    2    0    0  0.00000000000E+00  0.00000000000E+00 -0.22622718434E+02  0.12703325898E+03  0.12500264596E+03 0.  0.
    9000005    1    3    3    0    0 -0.42592923988E+02  0.92396487222E+00  0.35152298846E+02  0.55242148755E+02  0.10000000000E+01 0.  0.
    9000005    1    3    3    0    0  0.42592923988E+02 -0.92396487222E+00 -0.57775017280E+02  0.71791110220E+02  0.10000000000E+01 0.  0.
<mgrwt>
<rscale>  0 0.12500265E+03</rscale>
<asrwt>0</asrwt>
<pdfrwt beam="2">  1        4 0.11511998E-01 0.12500265E+03</pdfrwt>
<pdfrwt beam="1">  1       -4 0.80315801E-02 0.12500265E+03</pdfrwt>
<totfact> 0.10407802E+04</totfact>
</mgrwt>
</event>
<event>
 5    1  0.3272646E-002  0.1250004E+03  0.7818608E-02  0.1235069E+00
          4   -1    0    0  501    0  0.00000000000E+00  0.00000000000E+00  0.67909155786E+03  0.67909274540E+03  0.12700000000E+01 0. -1.
         -4   -1    0    0    0  501 -0.00000000000E+00 -0.00000000000E+00 -0.56809023371E+01  0.58211297326E+01  0.12700000000E+01 0. -1.
         25    2    1    2    0    0  0.00000000000E+00  0.00000000000E+00  0.67341065553E+03  0.68491387514E+03  0.12500042152E+03 0.  0.
    9000005    1    3    3    0    0 -0.31748130958E+02  0.17040455956E+02  0.56941677200E+02  0.67391954719E+02  0.10000000000E+01 0.  0.
    9000005    1    3    3    0    0  0.31748130958E+02 -0.17040455956E+02  0.61646897833E+03  0.61752192042E+03  0.10000000000E+01 0.  0.
<mgrwt>
<rscale>  0 0.12500042E+03</rscale>
<asrwt>0</asrwt>
<pdfrwt beam="1">  1        4 0.10448648E+00 0.12500042E+03</pdfrwt>
<pdfrwt beam="2">  1       -4 0.88486322E-03 0.12500042E+03</pdfrwt>
<totfact> 0.43894727E+03</totfact>
</mgrwt>
</event>
<event>
 5    1  0.3272646E-002  0.1249991E+03  0.7818608E-02  0.1235071E+00
          4   -1    0    0  501    0  0.00000000000E+00  0.00000000000E+00  0.23657866475E+03  0.23658207353E+03  0.12700000000E+01 0.  1.
         -4   -1    0    0    0  501 -0.00000000000E+00 -0.00000000000E+00 -0.16483220875E+02  0.16532073990E+02  0.12700000000E+01 0.  1.
         25    2    1    2    0    0  0.00000000000E+00  0.00000000000E+00  0.22009544387E+03  0.25311414752E+03  0.12499906903E+03 0.  0.
    9000005    1    3    3    0    0 -0.32509196941E+02 -0.51410412420E+02  0.81033006569E+02  0.10132732378E+03  0.10000000000E+01 0.  0.
    9000005    1    3    3    0    0  0.32509196941E+02  0.51410412420E+02  0.13906243730E+03  0.15178682374E+03  0.10000000000E+01 0.  0.
<mgrwt>
<rscale>  0 0.12499907E+03</rscale>
<asrwt>0</asrwt>
<pdfrwt beam="1">  1        4 0.36400736E-01 0.12499907E+03</pdfrwt>
<pdfrwt beam="2">  1       -4 0.25399004E-02 0.12499907E+03</pdfrwt>
<totfact> 0.81883908E+03</totfact>
</mgrwt>
</event>
<event>
 5    1  0.3272646E-002  0.1249989E+03  0.7818608E-02  0.1235071E+00
          4   -1    0    0  501    0  0.00000000000E+00  0.00000000000E+00  0.34529051661E+03  0.34529285217E+03  0.12700000000E+01 0. -1.
         -4   -1    0    0    0  501 -0.00000000000E+00 -0.00000000000E+00 -0.11274716356E+02  0.11346018196E+02  0.12700000000E+01 0. -1.
         25    2    1    2    0    0  0.00000000000E+00  0.00000000000E+00  0.33401580026E+03  0.35663887037E+03  0.12499891615E+03 0.  0.
    9000005    1    3    3    0    0 -0.23088786783E+02  0.41101230307E+02  0.49967451793E+02  0.68703343780E+02  0.10000000000E+01 0.  0.
    9000005    1    3    3    0    0  0.23088786783E+02 -0.41101230307E+02  0.28404834846E+03  0.28793552659E+03  0.10000000000E+01 0.  0.
<mgrwt>
<rscale>  0 0.12499892E+03</rscale>
<asrwt>0</asrwt>
<pdfrwt beam="1">  1        4 0.53127292E-01 0.12499892E+03</pdfrwt>
<pdfrwt beam="2">  1       -4 0.17402359E-02 0.12499892E+03</pdfrwt>
<totfact> 0.69001968E+03</totfact>
</mgrwt>
</event>
<event>
 5    1  0.3272646E-002  0.1250009E+03  0.7818608E-02  0.1235068E+00
          4   -1    0    0  501    0  0.00000000000E+00  0.00000000000E+00  0.59224013627E+03  0.59224149797E+03  0.12700000000E+01 0.  1.
         -4   -1    0    0    0  501 -0.00000000000E+00 -0.00000000000E+00 -0.65332955180E+01  0.66555879023E+01  0.12700000000E+01 0.  1.
         25    2    1    2    0    0  0.00000000000E+00  0.00000000000E+00  0.58570684076E+03  0.59889708587E+03  0.12500086461E+03 0.  0.
    9000005    1    3    3    0    0 -0.19523945313E+02  0.31857504868E+02  0.52854954834E+02  0.64735857973E+02  0.10000000000E+01 0.  0.
    9000005    1    3    3    0    0  0.19523945313E+02 -0.31857504868E+02  0.53285188592E+03  0.53416122790E+03  0.10000000000E+01 0.  0.
<mgrwt>
<rscale>  0 0.12500086E+03</rscale>
<asrwt>0</asrwt>
<pdfrwt beam="1">  1        4 0.91123377E-01 0.12500086E+03</pdfrwt>
<pdfrwt beam="2">  1       -4 0.10146343E-02 0.12500086E+03</pdfrwt>
<totfact> 0.48936376E+03</totfact>
</mgrwt>
</event>
<event>
 5    1  0.3272646E-002  0.1250004E+03  0.7818608E-02  0.1235069E+00
          4   -1    0    0  501    0  0.00000000000E+00  0.00000000000E+00  0.48666231984E+02  0.48682800203E+02  0.12700000000E+01 0.  1.
         -4   -1    0    0    0  501 -0.00000000000E+00 -0.00000000000E+00 -0.80231373076E+02  0.80241424001E+02  0.12700000000E+01 0.  1.
         25    2    1    2    0    0  0.00000000000E+00  0.00000000000E+00 -0.31565141092E+02  0.12892422420E+03  0.12500038982E+03 0.  0.
    9000005    1    3    3    0    0 -0.13158867537E+02  0.60996737180E+02 -0.19282712976E+02  0.65319068894E+02  0.10000000000E+01 0.  0.
    9000005    1    3    3    0    0  0.13158867537E+02 -0.60996737180E+02 -0.12282428115E+02  0.63605155309E+02  0.10000000000E+01 0.  0.
<mgrwt>
<rscale>  0 0.12500039E+03</rscale>
<asrwt>0</asrwt>
<pdfrwt beam="1">  1        4 0.74891603E-02 0.12500039E+03</pdfrwt>
<pdfrwt beam="2">  1       -4 0.12345336E-01 0.12500039E+03</pdfrwt>
<totfact> 0.10367484E+04</totfact>
</mgrwt>
</event>
<event>
 5    1  0.3272646E-002  0.1249971E+03  0.7818608E-02  0.1235074E+00
         -4   -1    0    0    0  501 -0.00000000000E+00  0.00000000000E+00  0.56444205766E+02  0.56458491519E+02  0.12700000000E+01 0.  1.
          4   -1    0    0  501    0  0.00000000000E+00 -0.00000000000E+00 -0.69173467432E+02  0.69185124821E+02  0.12700000000E+01 0.  1.
         25    2    1    2    0    0  0.00000000000E+00  0.00000000000E+00 -0.12729261665E+02  0.12564361634E+03  0.12499713687E+03 0.  0.
    9000005    1    3    3    0    0  0.45061488501E+02  0.31964255737E+02 -0.35718744108E+02  0.65795745086E+02  0.10000000000E+01 0.  0.
    9000005    1    3    3    0    0 -0.45061488501E+02 -0.31964255737E+02  0.22989482442E+02  0.59847871255E+02  0.10000000000E+01 0.  0.
<mgrwt>
<rscale>  0 0.12499714E+03</rscale>
<asrwt>0</asrwt>
<pdfrwt beam="2">  1        4 0.10644068E-01 0.12499714E+03</pdfrwt>
<pdfrwt beam="1">  1       -4 0.86857196E-02 0.12499714E+03</pdfrwt>
<totfact> 0.10439460E+04</totfact>
</mgrwt>
</event>
<event>
 5    1  0.3272646E-002  0.1249982E+03  0.7818608E-02  0.1235072E+00
          4   -1    0    0  501    0  0.00000000000E+00  0.00000000000E+00  0.51827207916E+01  0.53360561095E+01  0.12700000000E+01 0. -1.
         -4   -1    0    0    0  501 -0.00000000000E+00 -0.00000000000E+00 -0.74254419961E+03  0.74254528567E+03  0.12700000000E+01 0. -1.
         25    2    1    2    0    0  0.00000000000E+00  0.00000000000E+00 -0.73736147881E+03  0.74788134178E+03  0.12499820375E+03 0.  0.
    9000005    1    3    3    0    0 -0.52681002282E+02 -0.10636952437E+02 -0.17790356989E+03  0.18584701488E+03  0.10000000000E+01 0.  0.
    9000005    1    3    3    0    0  0.52681002282E+02  0.10636952437E+02 -0.55945790892E+03  0.56203432690E+03  0.10000000000E+01 0.  0.
<mgrwt>
<rscale>  0 0.12499820E+03</rscale>
<asrwt>0</asrwt>
<pdfrwt beam="1">  1        4 0.80922082E-03 0.12499820E+03</pdfrwt>
<pdfrwt beam="2">  1       -4 0.11424936E+00 0.12499820E+03</pdfrwt>
<totfact> 0.40677298E+03</totfact>
</mgrwt>
</event>
<event>
 5    1  0.3272646E-002  0.1249972E+03  0.7818608E-02  0.1235074E+00
          4   -1    0    0  501    0  0.00000000000E+00  0.00000000000E+00  0.33956364912E+02  0.33980106210E+02  0.12700000000E+01 0. -1.
         -4   -1    0    0    0  501 -0.00000000000E+00 -0.00000000000E+00 -0.11496477747E+03  0.11497179201E+03  0.12700000000E+01 0. -1.
         25    2    1    2    0    0  0.00000000000E+00  0.00000000000E+00 -0.81008412560E+02  0.14895189822E+03  0.12499722029E+03 0.  0.
    9000005    1    3    3    0    0 -0.38430664697E+02 -0.41148638669E+02 -0.81988503835E+01  0.56906481186E+02  0.10000000000E+01 0.  0.
    9000005    1    3    3    0    0  0.38430664697E+02  0.41148638669E+02 -0.72809562177E+02  0.92045417038E+02  0.10000000000E+01 0.  0.
<mgrwt>
<rscale>  0 0.12499722E+03</rscale>
<asrwt>0</asrwt>
<pdfrwt beam="1">  1        4 0.52264220E-02 0.12499722E+03</pdfrwt>
<pdfrwt beam="2">  1       -4 0.17689255E-01 0.12499722E+03</pdfrwt>
<totfact> 0.99519259E+03</totfact>
</mgrwt>
</event>
<event>
 5    1  0.3272646E-002  0.1249951E+03  0.7818608E-02  0.1235077E+00
          4   -1    0    0  501    0  0.00000000000E+00  0.00000000000E+00  0.55940604178E+02  0.55955018504E+02  0.12700000000E+01 0. -1.
         -4   -1    0    0    0  501 -0.00000000000E+00 -0.00000000000E+00 -0.69793833016E+02  0.69805386806E+02  0.12700000000E+01 0. -1.
         25    2    1    2    0    0  0.00000000000E+00  0.00000000000E+00 -0.13853228838E+02  0.12576040531E+03  0.12499507028E+03 0.  0.
    9000005    1    3    3    0    0 -0.21660199197E+01 -0.99867263543E+01  0.55099175003E+02  0.56047706747E+02  0.10000000000E+01 0.  0.
    9000005    1    3    3    0    0  0.21660199197E+01  0.99867263543E+01 -0.68952403841E+02  0.69712698563E+02  0.10000000000E+01 0.  0.
<mgrwt>
<rscale>  0 0.12499507E+03</rscale>
<asrwt>0</asrwt>
<pdfrwt beam="1">  1        4 0.86082443E-02 0.12499507E+03</pdfrwt>
<pdfrwt beam="2">  1       -4 0.10739510E-01 0.12499507E+03</pdfrwt>
<totfact> 0.10437376E+04</totfact>
</mgrwt>
</event>
<event>
 5    1  0.3272646E-002  0.1249971E+03  0.7818608E-02  0.1235074E+00
          4   -1    0    0  501    0  0.00000000000E+00  0.00000000000E+00  0.14727201511E+02  0.14781859299E+02  0.12700000000E+01 0. -1.
         -4   -1    0    0    0  501 -0.00000000000E+00 -0.00000000000E+00 -0.26468079019E+03  0.26468383705E+03  0.12700000000E+01 0. -1.
         25    2    1    2    0    0  0.00000000000E+00  0.00000000000E+00 -0.24995358868E+03  0.27946569635E+03  0.12499711574E+03 0.  0.
    9000005    1    3    3    0    0 -0.50633332977E+02 -0.35390307358E+02 -0.10390093617E+03  0.12088264061E+03  0.10000000000E+01 0.  0.
    9000005    1    3    3    0    0  0.50633332977E+02  0.35390307358E+02 -0.14605265250E+03  0.15858305574E+03  0.10000000000E+01 0.  0.
<mgrwt>
<rscale>  0 0.12499712E+03</rscale>
<asrwt>0</asrwt>
<pdfrwt beam="1">  1        4 0.22701623E-02 0.12499712E+03</pdfrwt>
<pdfrwt beam="2">  1       -4 0.40724557E-01 0.12499712E+03</pdfrwt>
<totfact> 0.78254022E+03</totfact>
</mgrwt>
</event>
<event>
 5    1  0.3272646E-002  0.1250057E+03  0.7818608E-02  0.1235060E+00
          4   -1    0    0  501    0  0.00000000000E+00  0.00000000000E+00  0.40308834285E+02  0.40328836103E+02  0.12700000000E+01 0. -1.
         -4   -1    0    0    0  501 -0.00000000000E+00 -0.00000000000E+00 -0.96868726759E+02  0.96877051585E+02  0.12700000000E+01 0. -1.
         25    2    1    2    0    0  0.00000000000E+00  0.00000000000E+00 -0.56559892473E+02  0.13720588769E+03  0.12500573659E+03 0.  0.
    9000005    1    3    3    0    0  0.22891689688E+02  0.50349362132E+02  0.36546644962E+01  0.55438653451E+02  0.10000000000E+01 0.  0.
    9000005    1    3    3    0    0 -0.22891689688E+02 -0.50349362132E+02 -0.60214556970E+02  0.81767234238E+02  0.10000000000E+01 0.  0.
<mgrwt>
<rscale>  0 0.12500574E+03</rscale>
<asrwt>0</asrwt>
<pdfrwt beam="1">  1        4 0.62035381E-02 0.12500574E+03</pdfrwt>
<pdfrwt beam="2">  1       -4 0.14905060E-01 0.12500574E+03</pdfrwt>
<totfact> 0.10190465E+04</totfact>
</mgrwt>
</event>
<event>
 5    1  0.3272646E-002  0.1249917E+03  0.7818608E-02  0.1235082E+00
          4   -1    0    0  501    0  0.00000000000E+00  0.00000000000E+00  0.71620471408E+01  0.72737761340E+01  0.12700000000E+01 0. -1.
         -4   -1    0    0    0  501 -0.00000000000E+00 -0.00000000000E+00 -0.54100419268E+03  0.54100568333E+03  0.12700000000E+01 0. -1.
         25    2    1    2    0    0  0.00000000000E+00  0.00000000000E+00 -0.53384214554E+03  0.54827945946E+03  0.12499171700E+03 0.  0.
    9000005    1    3    3    0    0 -0.62057918215E+02 -0.30548175913E+01 -0.23775307839E+03  0.24573978801E+03  0.10000000000E+01 0.  0.
    9000005    1    3    3    0    0  0.62057918215E+02  0.30548175913E+01 -0.29608906714E+03  0.30253967145E+03  0.10000000000E+01 0.  0.
<mgrwt>
<rscale>  0 0.12499172E+03</rscale>
<asrwt>0</asrwt>
<pdfrwt beam="1">  1        4 0.11105630E-02 0.12499172E+03</pdfrwt>
<pdfrwt beam="2">  1       -4 0.83240092E-01 0.12499172E+03</pdfrwt>
<totfact> 0.52313590E+03</totfact>
</mgrwt>
</event>
<event>
 5    1  0.3272646E-002  0.1250006E+03  0.7818608E-02  0.1235068E+00
          4   -1    0    0  501    0  0.00000000000E+00  0.00000000000E+00  0.38590771411E+02  0.38611663239E+02  0.12700000000E+01 0.  1.
         -4   -1    0    0    0  501 -0.00000000000E+00 -0.00000000000E+00 -0.10117108684E+03  0.10117905767E+03  0.12700000000E+01 0.  1.
         25    2    1    2    0    0  0.00000000000E+00  0.00000000000E+00 -0.62580315426E+02  0.13979072091E+03  0.12500059910E+03 0.  0.
    9000005    1    3    3    0    0  0.27411135086E+02 -0.38131254992E+02 -0.77398665562E+02  0.90536823253E+02  0.10000000000E+01 0.  0.
    9000005    1    3    3    0    0 -0.27411135086E+02  0.38131254992E+02  0.14818350136E+02  0.49253897660E+02  0.10000000000E+01 0.  0.
<mgrwt>
<rscale>  0 0.12500060E+03</rscale>
<asrwt>0</asrwt>
<pdfrwt beam="1">  1        4 0.59392620E-02 0.12500060E+03</pdfrwt>
<pdfrwt beam="2">  1       -4 0.15567003E-01 0.12500060E+03</pdfrwt>
<totfact> 0.10137788E+04</totfact>
</mgrwt>
</event>
<event>
 5    1  0.3272646E-002  0.1249870E+03  0.7818608E-02  0.1235090E+00
         -4   -1    0    0    0  501 -0.00000000000E+00  0.00000000000E+00  0.24783020756E+03  0.24783346158E+03  0.12700000000E+01 0.  1.
          4   -1    0    0  501    0  0.00000000000E+00 -0.00000000000E+00 -0.15729565963E+02  0.15780752370E+02  0.12700000000E+01 0.  1.
         25    2    1    2    0    0  0.00000000000E+00  0.00000000000E+00  0.23210064159E+03  0.26361421395E+03  0.12498698319E+03 0.  0.
    9000005    1    3    3    0    0 -0.58149016632E+02  0.21358605052E+01  0.16407961983E+03  0.17409477786E+03  0.10000000000E+01 0.  0.
    9000005    1    3    3    0    0  0.58149016632E+02 -0.21358605052E+01  0.68021021769E+02  0.89519436090E+02  0.10000000000E+01 0.  0.
<mgrwt>
<rscale>  0 0.12498698E+03</rscale>
<asrwt>0</asrwt>
<pdfrwt beam="2">  1        4 0.24241211E-02 0.12498698E+03</pdfrwt>
<pdfrwt beam="1">  1       -4 0.38131910E-01 0.12498698E+03</pdfrwt>
<totfact> 0.80424813E+03</totfact>
</mgrwt>
</event>
<event>
 5    1  0.3272646E-002  0.1250004E+03  0.7818608E-02  0.1235069E+00
         -4   -1    0    0    0  501 -0.00000000000E+00  0.00000000000E+00  0.28832035394E+02  0.28859992463E+02  0.12700000000E+01 0. -1.
          4   -1    0    0  501    0  0.00000000000E+00 -0.00000000000E+00 -0.13538735247E+03  0.13539330895E+03  0.12700000000E+01 0. -1.
         25    2    1    2    0    0  0.00000000000E+00  0.00000000000E+00 -0.10655531708E+03  0.16425330142E+03  0.12500044571E+03 0.  0.
    9000005    1    3    3    0    0 -0.61095674531E+02  0.56572592449E+01 -0.37697115664E+02  0.72019154104E+02  0.10000000000E+01 0.  0.
    9000005    1    3    3    0    0  0.61095674531E+02 -0.56572592449E+01 -0.68858201413E+02  0.92234147312E+02  0.10000000000E+01 0.  0.
<mgrwt>
<rscale>  0 0.12500045E+03</rscale>
<asrwt>0</asrwt>
<pdfrwt beam="2">  1        4 0.20831432E-01 0.12500045E+03</pdfrwt>
<pdfrwt beam="1">  1       -4 0.44383066E-02 0.12500045E+03</pdfrwt>
<totfact> 0.96528026E+03</totfact>
</mgrwt>
</event>
<event>
 5    1  0.3272646E-002  0.1250006E+03  0.7818608E-02  0.1235068E+00
         -4   -1    0    0    0  501 -0.00000000000E+00  0.00000000000E+00  0.24346502310E+03  0.24346833546E+03  0.12700000000E+01 0.  1.
          4   -1    0    0  501    0  0.00000000000E+00 -0.00000000000E+00 -0.16015990856E+02  0.16066264753E+02  0.12700000000E+01 0.  1.
         25    2    1    2    0    0  0.00000000000E+00  0.00000000000E+00  0.22744903224E+03  0.25953460021E+03  0.12500058576E+03 0.  0.
    9000005    1    3    3    0    0 -0.58940818056E+02  0.20758718198E+02  0.11493908061E+03  0.13083171124E+03  0.10000000000E+01 0.  0.
    9000005    1    3    3    0    0  0.58940818056E+02 -0.20758718198E+02  0.11250995163E+03  0.12870288897E+03  0.10000000000E+01 0.  0.
<mgrwt>
<rscale>  0 0.12500059E+03</rscale>
<asrwt>0</asrwt>
<pdfrwt beam="2">  1        4 0.24681205E-02 0.12500059E+03</pdfrwt>
<pdfrwt beam="1">  1       -4 0.37460282E-01 0.12500059E+03</pdfrwt>
<totfact> 0.80970359E+03</totfact>
</mgrwt>
</event>
<event>
 5    1  0.3272646E-002  0.1250000E+03  0.7818608E-02  0.1235069E+00
          4   -1    0    0  501    0  0.00000000000E+00  0.00000000000E+00  0.61698475033E+02  0.61711544474E+02  0.12700000000E+01 0. -1.
         -4   -1    0    0    0  501 -0.00000000000E+00 -0.00000000000E+00 -0.63285796821E+02  0.63298538524E+02  0.12700000000E+01 0. -1.
         25    2    1    2    0    0  0.00000000000E+00  0.00000000000E+00 -0.15873217885E+01  0.12501008300E+03  0.12500000504E+03 0.  0.
    9000005    1    3    3    0    0 -0.59676118521E+02  0.79768301621E+01  0.15952281498E+02  0.62292409057E+02  0.10000000000E+01 0.  0.
    9000005    1    3    3    0    0  0.59676118521E+02 -0.79768301621E+01 -0.17539603286E+02  0.62717673941E+02  0.10000000000E+01 0.  0.
<mgrwt>
<rscale>  0 0.12500001E+03</rscale>
<asrwt>0</asrwt>
<pdfrwt beam="1">  1        4 0.94940586E-02 0.12500001E+03</pdfrwt>
<pdfrwt beam="2">  1       -4 0.97382619E-02 0.12500001E+03</pdfrwt>
<totfact> 0.10452642E+04</totfact>
</mgrwt>
</event>
<event>
 5    1  0.3272646E-002  0.1250040E+03  0.7818608E-02  0.1235063E+00
         -4   -1    0    0    0  501 -0.00000000000E+00  0.00000000000E+00  0.55073922731E+02  0.55088563831E+02  0.12700000000E+01 0. -1.
          4   -1    0    0  501    0  0.00000000000E+00 -0.00000000000E+00 -0.70902158801E+02  0.70913532013E+02  0.12700000000E+01 0. -1.
         25    2    1    2    0    0  0.00000000000E+00  0.00000000000E+00 -0.15828236070E+02  0.12600209584E+03  0.12500398034E+03 0.  0.
    9000005    1    3    3    0    0  0.51361514354E+02 -0.24464874105E+02 -0.33984965914E+02  0.66276037374E+02  0.10000000000E+01 0.  0.
    9000005    1    3    3    0    0 -0.51361514354E+02  0.24464874105E+02  0.18156729844E+02  0.59726058470E+02  0.10000000000E+01 0.  0.
<mgrwt>
<rscale>  0 0.12500398E+03</rscale>
<asrwt>0</asrwt>
<pdfrwt beam="2">  1        4 0.10910026E-01 0.12500398E+03</pdfrwt>
<pdfrwt beam="1">  1       -4 0.84749123E-02 0.12500398E+03</pdfrwt>
<totfact> 0.10429974E+04</totfact>
</mgrwt>
</event>
<event>
 4    1  0.3272646E-002  0.1251438E+03  0.7818608E-02  0.1234845E+00
          4   -1    0    0  501    0  0.00000000000E+00  0.00000000000E+00  0.50230312347E+03  0.50230472897E+03  0.12700000000E+01 0. -1.
         -4   -1    0    0    0  501 -0.00000000000E+00 -0.00000000000E+00 -0.77412197999E+01  0.78447042004E+01  0.12700000000E+01 0. -1.
    9000005    1    1    2    0    0  0.21031473415E+02 -0.32078429759E+02  0.45797042678E+02  0.59747114138E+02  0.10000000000E+01 0.  0.
    9000005    1    1    2    0    0 -0.21031473415E+02  0.32078429759E+02  0.44876486099E+03  0.45040231903E+03  0.10000000000E+01 0.  0.
<mgrwt>
<rscale>  0 0.12514379E+03</rscale>
<asrwt>0</asrwt>
<pdfrwt beam="1">  1        4 0.77285499E-01 0.12514379E+03</pdfrwt>
<pdfrwt beam="2">  1       -4 0.11990406E-02 0.12514379E+03</pdfrwt>
<totfact> 0.54911658E+03</totfact>
</mgrwt>
</event>
<event>
 5    1  0.3272646E-002  0.1249990E+03  0.7818608E-02  0.1235071E+00
         -4   -1    0    0    0  501 -0.00000000000E+00  0.00000000000E+00  0.20945730949E+02  0.20984197506E+02  0.12700000000E+01 0.  1.
          4   -1    0    0  501    0  0.00000000000E+00 -0.00000000000E+00 -0.18627922553E+03  0.18628355474E+03  0.12700000000E+01 0.  1.
         25    2    1    2    0    0  0.00000000000E+00  0.00000000000E+00 -0.16533349459E+03  0.20726775224E+03  0.12499902675E+03 0.  0.
    9000005    1    3    3    0    0  0.28546560172E+02  0.22488631283E+02 -0.16696471727E+03  0.17087674344E+03  0.10000000000E+01 0.  0.
    9000005    1    3    3    0    0 -0.28546560172E+02 -0.22488631283E+02  0.16312226830E+01  0.36391008808E+02  0.10000000000E+01 0.  0.
<mgrwt>
<rscale>  0 0.12499903E+03</rscale>
<asrwt>0</asrwt>
<pdfrwt beam="2">  1        4 0.28661633E-01 0.12499903E+03</pdfrwt>
<pdfrwt beam="1">  1       -4 0.32257122E-02 0.12499903E+03</pdfrwt>
<totfact> 0.88925981E+03</totfact>
</mgrwt>
</event>
<event>
 5    1  0.3272646E-002  0.1250011E+03  0.7818608E-02  0.1235068E+00
         -4   -1    0    0    0  501 -0.00000000000E+00  0.00000000000E+00  0.17682707430E+02  0.17728255471E+02  0.12700000000E+01 0. -1.
          4   -1    0    0  501    0  0.00000000000E+00 -0.00000000000E+00 -0.22058030678E+03  0.22058396279E+03  0.12700000000E+01 0. -1.
         25    2    1    2    0    0  0.00000000000E+00  0.00000000000E+00 -0.20289759935E+03  0.23831221826E+03  0.12500111019E+03 0.  0.
    9000005    1    3    3    0    0  0.31403262400E+02 -0.18711584844E+02 -0.48176561294E+01  0.36884930626E+02  0.10000000000E+01 0.  0.
    9000005    1    3    3    0    0 -0.31403262400E+02  0.18711584844E+02 -0.19807994322E+03  0.20142728764E+03  0.10000000000E+01 0.  0.
<mgrwt>
<rscale>  0 0.12500111E+03</rscale>
<asrwt>0</asrwt>
<pdfrwt beam="2">  1        4 0.33939215E-01 0.12500111E+03</pdfrwt>
<pdfrwt beam="1">  1       -4 0.27242016E-02 0.12500111E+03</pdfrwt>
<totfact> 0.84047297E+03</totfact>
</mgrwt>
</event>
<event>
 5    1  0.3272646E-002  0.1250004E+03  0.7818608E-02  0.1235069E+00
         -4   -1    0    0    0  501 -0.00000000000E+00  0.00000000000E+00  0.24199682056E+03  0.24200015302E+03  0.12700000000E+01 0. -1.
          4   -1    0    0  501    0  0.00000000000E+00 -0.00000000000E+00 -0.16113425587E+02  0.16163396430E+02  0.12700000000E+01 0. -1.
         25    2    1    2    0    0  0.00000000000E+00  0.00000000000E+00  0.22588339497E+03  0.25816354945E+03  0.12500044056E+03 0.  0.
    9000005    1    3    3    0    0  0.44862265926E+02  0.43325080239E+02  0.10478648969E+03  0.12194627466E+03  0.10000000000E+01 0.  0.
    9000005    1    3    3    0    0 -0.44862265926E+02 -0.43325080239E+02  0.12109690528E+03  0.13621727479E+03  0.10000000000E+01 0.  0.
<mgrwt>
<rscale>  0 0.12500044E+03</rscale>
<asrwt>0</asrwt>
<pdfrwt beam="2">  1        4 0.24830891E-02 0.12500044E+03</pdfrwt>
<pdfrwt beam="1">  1       -4 0.37234376E-01 0.12500044E+03</pdfrwt>
<totfact> 0.81163679E+03</totfact>
</mgrwt>
</event>
<event>
 5    1  0.3272646E-002  0.1249980E+03  0.7818608E-02  0.1235072E+00
         -4   -1    0    0    0  501 -0.00000000000E+00  0.00000000000E+00  0.46518989516E+02  0.46536322218E+02  0.12700000000E+01 0. -1.
          4   -1    0    0  501    0  0.00000000000E+00 -0.00000000000E+00 -0.83930654056E+02  0.83940262033E+02  0.12700000000E+01 0. -1.
         25    2    1    2    0    0  0.00000000000E+00  0.00000000000E+00 -0.37411664540E+02  0.13047658425E+03  0.12499802556E+03 0.  0.
    9000005    1    3    3    0    0  0.54218701323E+02  0.18956984496E+02 -0.44403790395E+02  0.72606690021E+02  0.10000000000E+01 0.  0.
    9000005    1    3    3    0    0 -0.54218701323E+02 -0.18956984496E+02  0.69921258557E+01  0.57869894231E+02  0.10000000000E+01 0.  0.
<mgrwt>
<rscale>  0 0.12499803E+03</rscale>
<asrwt>0</asrwt>
<pdfrwt beam="2">  1        4 0.12914481E-01 0.12499803E+03</pdfrwt>
<pdfrwt beam="1">  1       -4 0.71588400E-02 0.12499803E+03</pdfrwt>
<totfact> 0.10334783E+04</totfact>
</mgrwt>
</event>
<event>
 5    1  0.3272646E-002  0.1249886E+03  0.7818608E-02  0.1235087E+00
          4   -1    0    0  501    0  0.00000000000E+00  0.00000000000E+00  0.25019082288E+03  0.25019404620E+03  0.12700000000E+01 0.  1.
         -4   -1    0    0    0  501 -0.00000000000E+00 -0.00000000000E+00 -0.15581074459E+02  0.15632747081E+02  0.12700000000E+01 0.  1.
         25    2    1    2    0    0  0.00000000000E+00  0.00000000000E+00  0.23460974843E+03  0.26582679328E+03  0.12498859937E+03 0.  0.
    9000005    1    3    3    0    0  0.11895405551E+02 -0.53637582872E+02  0.53997162808E+02  0.77040149019E+02  0.10000000000E+01 0.  0.
    9000005    1    3    3    0    0 -0.11895405551E+02  0.53637582872E+02  0.18061258562E+03  0.18878664426E+03  0.10000000000E+01 0.  0.
<mgrwt>
<rscale>  0 0.12498860E+03</rscale>
<asrwt>0</asrwt>
<pdfrwt beam="1">  1        4 0.38495121E-01 0.12498860E+03</pdfrwt>
<pdfrwt beam="2">  1       -4 0.24013110E-02 0.12498860E+03</pdfrwt>
<totfact> 0.80115562E+03</totfact>
</mgrwt>
</event>
<event>
 5    1  0.3272646E-002  0.1249983E+03  0.7818608E-02  0.1235072E+00
          4   -1    0    0  501    0  0.00000000000E+00  0.00000000000E+00  0.99899396030E+02  0.99907468326E+02  0.12700000000E+01 0. -1.
         -4   -1    0    0    0  501 -0.00000000000E+00 -0.00000000000E+00 -0.39080794305E+02  0.39101424316E+02  0.12700000000E+01 0. -1.
         25    2    1    2    0    0  0.00000000000E+00  0.00000000000E+00  0.60818601725E+02  0.13900889264E+03  0.12499827966E+03 0.  0.
    9000005    1    3    3    0    0  0.50877149576E+02 -0.35548499462E+02  0.38502533676E+02  0.73045364414E+02  0.10000000000E+01 0.  0.
    9000005    1    3    3    0    0 -0.50877149576E+02  0.35548499462E+02  0.22316068049E+02  0.65963528227E+02  0.10000000000E+01 0.  0.
<mgrwt>
<rscale>  0 0.12499828E+03</rscale>
<asrwt>0</asrwt>
<pdfrwt beam="1">  1        4 0.15371345E-01 0.12499828E+03</pdfrwt>
<pdfrwt beam="2">  1       -4 0.60146379E-02 0.12499828E+03</pdfrwt>
<totfact> 0.10154562E+04</totfact>
</mgrwt>
</event>
<event>
 5    1  0.3272646E-002  0.1250076E+03  0.7818608E-02  0.1235057E+00
         -4   -1    0    0    0  501 -0.00000000000E+00  0.00000000000E+00  0.14953796892E+04  0.14953802285E+04  0.12700000000E+01 0. -1.
          4   -1    0    0  501    0  0.00000000000E+00 -0.00000000000E+00 -0.24576170217E+01  0.27663661048E+01  0.12700000000E+01 0. -1.
         25    2    1    2    0    0  0.00000000000E+00  0.00000000000E+00  0.14929220721E+04  0.14981465946E+04  0.12500762101E+03 0.  0.
    9000005    1    3    3    0    0 -0.32471002241E+02  0.34017957325E+02  0.12397397000E+04  0.12406317387E+04  0.10000000000E+01 0.  0.
    9000005    1    3    3    0    0  0.32471002241E+02 -0.34017957325E+02  0.25318237214E+03  0.25751485582E+03  0.10000000000E+01 0.  0.
<mgrwt>
<rscale>  0 0.12500762E+03</rscale>
<asrwt>0</asrwt>
<pdfrwt beam="2">  1        4 0.40188615E-03 0.12500762E+03</pdfrwt>
<pdfrwt beam="1">  1       -4 0.23008232E+00 0.12500762E+03</pdfrwt>
<totfact> 0.17963905E+03</totfact>
</mgrwt>
</event>
<event>
 5    1  0.3272646E-002  0.1249958E+03  0.7818608E-02  0.1235076E+00
          4   -1    0    0  501    0  0.00000000000E+00  0.00000000000E+00  0.27549404275E+02  0.27578661604E+02  0.12700000000E+01 0.  1.
         -4   -1    0    0    0  501 -0.00000000000E+00 -0.00000000000E+00 -0.14167395045E+03  0.14167964263E+03  0.12700000000E+01 0.  1.
         25    2    1    2    0    0  0.00000000000E+00  0.00000000000E+00 -0.11412454618E+03  0.16925830424E+03  0.12499584598E+03 0.  0.
    9000005    1    3    3    0    0 -0.31394136343E+02 -0.41487012893E+02 -0.10393539034E+03  0.11623394255E+03  0.10000000000E+01 0.  0.
    9000005    1    3    3    0    0  0.31394136343E+02  0.41487012893E+02 -0.10189155834E+02  0.53024361685E+02  0.10000000000E+01 0.  0.
<mgrwt>
<rscale>  0 0.12499585E+03</rscale>
<asrwt>0</asrwt>
<pdfrwt beam="1">  1        4 0.42410584E-02 0.12499585E+03</pdfrwt>
<pdfrwt beam="2">  1       -4 0.21798680E-01 0.12499585E+03</pdfrwt>
<totfact> 0.95595876E+03</totfact>
</mgrwt>
</event>
<event>
 5    1  0.3272646E-002  0.1250004E+03  0.7818608E-02  0.1235069E+00
         -4   -1    0    0    0  501 -0.00000000000E+00  0.00000000000E+00  0.26822381314E+02  0.26852430790E+02  0.12700000000E+01 0.  1.
          4   -1    0    0  501    0  0.00000000000E+00 -0.00000000000E+00 -0.14552044575E+03  0.14552598748E+03  0.12700000000E+01 0.  1.
         25    2    1    2    0    0  0.00000000000E+00  0.00000000000E+00 -0.11869806444E+03  0.17237841827E+03  0.12500035434E+03 0.  0.
    9000005    1    3    3    0    0 -0.28940005001E+02  0.21305007095E+02  0.11154610551E+02  0.37641101914E+02  0.10000000000E+01 0.  0.
    9000005    1    3    3    0    0  0.28940005001E+02 -0.21305007095E+02 -0.12985267499E+03  0.13473731636E+03  0.10000000000E+01 0.  0.
<mgrwt>
<rscale>  0 0.12500035E+03</rscale>
<asrwt>0</asrwt>
<pdfrwt beam="2">  1        4 0.22390498E-01 0.12500035E+03</pdfrwt>
<pdfrwt beam="1">  1       -4 0.41292581E-02 0.12500035E+03</pdfrwt>
<totfact> 0.95006427E+03</totfact>
</mgrwt>
</event>
<event>
 5    1  0.3272646E-002  0.1250000E+03  0.7818608E-02  0.1235069E+00
          4   -1    0    0  501    0  0.00000000000E+00  0.00000000000E+00  0.21484110356E+02  0.21521614665E+02  0.12700000000E+01 0.  1.
         -4   -1    0    0    0  501 -0.00000000000E+00 -0.00000000000E+00 -0.18162208541E+03  0.18162652562E+03  0.12700000000E+01 0.  1.
         25    2    1    2    0    0  0.00000000000E+00  0.00000000000E+00 -0.16013797505E+03  0.20314814028E+03  0.12499998338E+03 0.  0.
    9000005    1    3    3    0    0 -0.19520277080E+02 -0.53181356073E+02 -0.12294281556E+03  0.13537072708E+03  0.10000000000E+01 0.  0.
    9000005    1    3    3    0    0  0.19520277080E+02  0.53181356073E+02 -0.37195159487E+02  0.67777413202E+02  0.10000000000E+01 0.  0.
<mgrwt>
<rscale>  0 0.12499998E+03</rscale>
<asrwt>0</asrwt>
<pdfrwt beam="1">  1        4 0.33084744E-02 0.12499998E+03</pdfrwt>
<pdfrwt beam="2">  1       -4 0.27945085E-01 0.12499998E+03</pdfrwt>
<totfact> 0.89607284E+03</totfact>
</mgrwt>
</event>
<event>
 5    1  0.3272646E-002  0.1249980E+03  0.7818608E-02  0.1235072E+00
          4   -1    0    0  501    0  0.00000000000E+00  0.00000000000E+00  0.78604139818E+03  0.78604242414E+03  0.12700000000E+01 0.  1.
         -4   -1    0    0    0  501 -0.00000000000E+00 -0.00000000000E+00 -0.48871723349E+01  0.50494904130E+01  0.12700000000E+01 0.  1.
         25    2    1    2    0    0  0.00000000000E+00  0.00000000000E+00  0.78115422585E+03  0.79109191456E+03  0.12499797087E+03 0.  0.
    9000005    1    3    3    0    0 -0.57484692814E+02 -0.24466053595E+02  0.39962866500E+03  0.40448380385E+03  0.10000000000E+01 0.  0.
    9000005    1    3    3    0    0  0.57484692814E+02  0.24466053595E+02  0.38152556084E+03  0.38660811071E+03  0.10000000000E+01 0.  0.
<mgrwt>
<rscale>  0 0.12499797E+03</rscale>
<asrwt>0</asrwt>
<pdfrwt beam="1">  1        4 0.12094208E+00 0.12499797E+03</pdfrwt>
<pdfrwt beam="2">  1       -4 0.76443714E-03 0.12499797E+03</pdfrwt>
<totfact> 0.38667207E+03</totfact>
</mgrwt>
</event>
<event>
 5    1  0.3272646E-002  0.1250023E+03  0.7818608E-02  0.1235066E+00
         -4   -1    0    0    0  501 -0.00000000000E+00  0.00000000000E+00  0.33880952447E+02  0.33904746551E+02  0.12700000000E+01 0.  1.
          4   -1    0    0  501    0  0.00000000000E+00 -0.00000000000E+00 -0.11522989296E+03  0.11523689136E+03  0.12700000000E+01 0.  1.
         25    2    1    2    0    0  0.00000000000E+00  0.00000000000E+00 -0.81348940513E+02  0.14914163792E+03  0.12500231213E+03 0.  0.
    9000005    1    3    3    0    0  0.20785727723E+02 -0.57750694216E+02 -0.26648164887E+02  0.66920205105E+02  0.10000000000E+01 0.  0.
    9000005    1    3    3    0    0 -0.20785727723E+02  0.57750694216E+02 -0.54700775626E+02  0.82221432811E+02  0.10000000000E+01 0.  0.
<mgrwt>
<rscale>  0 0.12500231E+03</rscale>
<asrwt>0</asrwt>
<pdfrwt beam="2">  1        4 0.17730044E-01 0.12500231E+03</pdfrwt>
<pdfrwt beam="1">  1       -4 0.52148229E-02 0.12500231E+03</pdfrwt>
<totfact> 0.99469899E+03</totfact>
</mgrwt>
</event>
<event>
 5    1  0.3272646E-002  0.1249990E+03  0.7818608E-02  0.1235071E+00
          4   -1    0    0  501    0  0.00000000000E+00  0.00000000000E+00  0.23968105272E+03  0.23968441738E+03  0.12700000000E+01 0. -1.
         -4   -1    0    0    0  501 -0.00000000000E+00 -0.00000000000E+00 -0.16269210180E+02  0.16318703989E+02  0.12700000000E+01 0. -1.
         25    2    1    2    0    0  0.00000000000E+00  0.00000000000E+00  0.22341184254E+03  0.25600312136E+03  0.12499898704E+03 0.  0.
    9000005    1    3    3    0    0 -0.40179354182E+02 -0.47849493898E+02  0.10943257522E+03  0.12601763007E+03  0.10000000000E+01 0.  0.
    9000005    1    3    3    0    0  0.40179354182E+02  0.47849493898E+02  0.11397926732E+03  0.12998549129E+03  0.10000000000E+01 0.  0.
<mgrwt>
<rscale>  0 0.12499899E+03</rscale>
<asrwt>0</asrwt>
<pdfrwt beam="1">  1        4 0.36878075E-01 0.12499899E+03</pdfrwt>
<pdfrwt beam="2">  1       -4 0.25070214E-02 0.12499899E+03</pdfrwt>
<totfact> 0.81472094E+03</totfact>
</mgrwt>
</event>
<event>
 5    1  0.3272646E-002  0.1249983E+03  0.7818608E-02  0.1235072E+00
          4   -1    0    0  501    0  0.00000000000E+00  0.00000000000E+00  0.69270445989E+02  0.69282087061E+02  0.12700000000E+01 0.  1.
         -4   -1    0    0    0  501 -0.00000000000E+00 -0.00000000000E+00 -0.56366259245E+02  0.56380564748E+02  0.12700000000E+01 0.  1.
         25    2    1    2    0    0  0.00000000000E+00  0.00000000000E+00  0.12904186744E+02  0.12566265181E+03  0.12499833609E+03 0.  0.
    9000005    1    3    3    0    0 -0.36817866260E+02  0.54721581065E+01 -0.44010756222E+02  0.57649340443E+02  0.10000000000E+01 0.  0.
    9000005    1    3    3    0    0  0.36817866260E+02 -0.54721581065E+01  0.56914942965E+02  0.68013311366E+02  0.10000000000E+01 0.  0.
<mgrwt>
<rscale>  0 0.12499834E+03</rscale>
<asrwt>0</asrwt>
<pdfrwt beam="1">  1        4 0.10658988E-01 0.12499834E+03</pdfrwt>
<pdfrwt beam="2">  1       -4 0.86737281E-02 0.12499834E+03</pdfrwt>
<totfact> 0.10438758E+04</totfact>
</mgrwt>
</event>
<event>
 5    1  0.3272646E-002  0.1250026E+03  0.7818608E-02  0.1235065E+00
          4   -1    0    0  501    0  0.00000000000E+00  0.00000000000E+00  0.15394622009E+02  0.15446918359E+02  0.12700000000E+01 0.  1.
         -4   -1    0    0    0  501 -0.00000000000E+00 -0.00000000000E+00 -0.25326752798E+03  0.25327071215E+03  0.12700000000E+01 0.  1.
         25    2    1    2    0    0  0.00000000000E+00  0.00000000000E+00 -0.23787290597E+03  0.26871763050E+03  0.12500258216E+03 0.  0.
    9000005    1    3    3    0    0  0.29636383397E+02  0.50733369637E+02 -0.73171568838E+02  0.93847048445E+02  0.10000000000E+01 0.  0.
    9000005    1    3    3    0    0 -0.29636383397E+02 -0.50733369637E+02 -0.16470133714E+03  0.17487058206E+03  0.10000000000E+01 0.  0.
<mgrwt>
<rscale>  0 0.12500258E+03</rscale>
<asrwt>0</asrwt>
<pdfrwt beam="1">  1        4 0.23726713E-02 0.12500258E+03</pdfrwt>
<pdfrwt beam="2">  1       -4 0.38968500E-01 0.12500258E+03</pdfrwt>
<totfact> 0.79693444E+03</totfact>
</mgrwt>
</event>
<event>
 5    1  0.3272646E-002  0.1250004E+03  0.7818608E-02  0.1235069E+00
          4   -1    0    0  501    0  0.00000000000E+00  0.00000000000E+00  0.83553900488E+02  0.83563551784E+02  0.12700000000E+01 0.  1.
         -4   -1    0    0    0  501 -0.00000000000E+00 -0.00000000000E+00 -0.46730544076E+02  0.46747798340E+02  0.12700000000E+01 0.  1.
         25    2    1    2    0    0  0.00000000000E+00  0.00000000000E+00  0.36823356412E+02  0.13031135012E+03  0.12500035357E+03 0.  0.
    9000005    1    3    3    0    0  0.56918057668E+02 -0.22761641768E+02  0.31073270353E+02  0.68733585351E+02  0.10000000000E+01 0.  0.
    9000005    1    3    3    0    0 -0.56918057668E+02  0.22761641768E+02  0.57500860587E+01  0.61577764773E+02  0.10000000000E+01 0.  0.
<mgrwt>
<rscale>  0 0.12500035E+03</rscale>
<asrwt>0</asrwt>
<pdfrwt beam="1">  1        4 0.12856516E-01 0.12500035E+03</pdfrwt>
<pdfrwt beam="2">  1       -4 0.71913842E-02 0.12500035E+03</pdfrwt>
<totfact> 0.10337769E+04</totfact>
</mgrwt>
</event>
<event>
 5    1  0.3272646E-002  0.1249906E+03  0.7818608E-02  0.1235084E+00
          4   -1    0    0  501    0  0.00000000000E+00  0.00000000000E+00  0.44266439142E+03  0.44266621323E+03  0.12700000000E+01 0.  1.
         -4   -1    0    0    0  501 -0.00000000000E+00 -0.00000000000E+00 -0.87755343646E+01  0.88669556999E+01  0.12700000000E+01 0.  1.
         25    2    1    2    0    0  0.00000000000E+00  0.00000000000E+00  0.43388885706E+03  0.45153316893E+03  0.12499064910E+03 0.  0.
    9000005    1    3    3    0    0  0.61366547259E+02  0.11357900378E+02  0.22825954928E+03  0.23663955050E+03  0.10000000000E+01 0.  0.
    9000005    1    3    3    0    0 -0.61366547259E+02 -0.11357900378E+02  0.20562930777E+03  0.21489361842E+03  0.10000000000E+01 0.  0.
<mgrwt>
<rscale>  0 0.12499065E+03</rscale>
<asrwt>0</asrwt>
<pdfrwt beam="1">  1        4 0.68109373E-01 0.12499065E+03</pdfrwt>
<pdfrwt beam="2">  1       -4 0.13572550E-02 0.12499065E+03</pdfrwt>
<totfact> 0.59843536E+03</totfact>
</mgrwt>
</event>
<event>
 5    1  0.3272646E-002  0.1249977E+03  0.7818608E-02  0.1235073E+00
          4   -1    0    0  501    0  0.00000000000E+00  0.00000000000E+00  0.33504811781E+03  0.33505052477E+03  0.12700000000E+01 0.  1.
         -4   -1    0    0    0  501 -0.00000000000E+00 -0.00000000000E+00 -0.11621308027E+02  0.11690496151E+02  0.12700000000E+01 0.  1.
         25    2    1    2    0    0  0.00000000000E+00  0.00000000000E+00  0.32342680978E+03  0.34674102092E+03  0.12499773719E+03 0.  0.
    9000005    1    3    3    0    0 -0.73085302854E+00 -0.29068543598E+01  0.33486220752E+03  0.33487711474E+03  0.10000000000E+01 0.  0.
    9000005    1    3    3    0    0  0.73085302854E+00  0.29068543598E+01 -0.11435397740E+02  0.11863906182E+02  0.10000000000E+01 0.  0.
<mgrwt>
<rscale>  0 0.12499774E+03</rscale>
<asrwt>0</asrwt>
<pdfrwt beam="1">  1        4 0.51551362E-01 0.12499774E+03</pdfrwt>
<pdfrwt beam="2">  1       -4 0.17934012E-02 0.12499774E+03</pdfrwt>
<totfact> 0.70088093E+03</totfact>
</mgrwt>
</event>
<event>
 4    1  0.3272646E-002  0.1251261E+03  0.7818608E-02  0.1234872E+00
         -4   -1    0    0    0  501 -0.00000000000E+00  0.00000000000E+00  0.17487644131E+03  0.17488105279E+03  0.12700000000E+01 0. -1.
          4   -1    0    0  501    0  0.00000000000E+00 -0.00000000000E+00 -0.22359360878E+02  0.22395399503E+02  0.12700000000E+01 0. -1.
    9000005    1    1    2    0    0  0.55474046673E+02 -0.17544501686E+01  0.30763065881E+02  0.63465062610E+02  0.10000000000E+01 0.  0.
    9000005    1    1    2    0    0 -0.55474046673E+02  0.17544501686E+01  0.12175401455E+03  0.13381138968E+03  0.10000000000E+01 0.  0.
<mgrwt>
<rscale>  0 0.12512609E+03</rscale>
<asrwt>0</asrwt>
<pdfrwt beam="2">  1        4 0.34430286E-02 0.12512609E+03</pdfrwt>
<pdfrwt beam="1">  1       -4 0.26907195E-01 0.12512609E+03</pdfrwt>
<totfact> 0.90341192E+03</totfact>
</mgrwt>
</event>
<event>
 5    1  0.3272646E-002  0.1249988E+03  0.7818608E-02  0.1235071E+00
         -4   -1    0    0    0  501 -0.00000000000E+00  0.00000000000E+00  0.17094403119E+02  0.17141514461E+02  0.12700000000E+01 0.  1.
          4   -1    0    0  501    0  0.00000000000E+00 -0.00000000000E+00 -0.22814277316E+03  0.22814630798E+03  0.12700000000E+01 0.  1.
         25    2    1    2    0    0  0.00000000000E+00  0.00000000000E+00 -0.21104837004E+03  0.24528782244E+03  0.12499880536E+03 0.  0.
    9000005    1    3    3    0    0 -0.46779230154E+01  0.61595700986E+02 -0.86984454745E+02  0.10669212113E+03  0.10000000000E+01 0.  0.
    9000005    1    3    3    0    0  0.46779230154E+01 -0.61595700986E+02 -0.12406391529E+03  0.13859570131E+03  0.10000000000E+01 0.  0.
<mgrwt>
<rscale>  0 0.12499881E+03</rscale>
<asrwt>0</asrwt>
<pdfrwt beam="2">  1        4 0.35102782E-01 0.12499881E+03</pdfrwt>
<pdfrwt beam="1">  1       -4 0.26338042E-02 0.12499881E+03</pdfrwt>
<totfact> 0.83018301E+03</totfact>
</mgrwt>
</event>
<event>
 5    1  0.3272646E-002  0.1250049E+03  0.7818608E-02  0.1235062E+00
         -4   -1    0    0    0  501 -0.00000000000E+00  0.00000000000E+00  0.48110680369E+02  0.48127439841E+02  0.12700000000E+01 0.  1.
          4   -1    0    0  501    0  0.00000000000E+00 -0.00000000000E+00 -0.81163533181E+02  0.81173468685E+02  0.12700000000E+01 0.  1.
         25    2    1    2    0    0  0.00000000000E+00  0.00000000000E+00 -0.33052852811E+02  0.12930090853E+03  0.12500493537E+03 0.  0.
    9000005    1    3    3    0    0  0.51299508705E+02 -0.19835107406E+02  0.14166336614E+02  0.56804543588E+02  0.10000000000E+01 0.  0.
    9000005    1    3    3    0    0 -0.51299508705E+02  0.19835107406E+02 -0.47219189425E+02  0.72496364937E+02  0.10000000000E+01 0.  0.
<mgrwt>
<rscale>  0 0.12500494E+03</rscale>
<asrwt>0</asrwt>
<pdfrwt beam="2">  1        4 0.12488751E-01 0.12500494E+03</pdfrwt>
<pdfrwt beam="1">  1       -4 0.74036966E-02 0.12500494E+03</pdfrwt>
<totfact> 0.10358331E+04</totfact>
</mgrwt>
</event>
<event>
 5    1  0.3272646E-002  0.1250016E+03  0.7818608E-02  0.1235067E+00
          4   -1    0    0  501    0  0.00000000000E+00  0.00000000000E+00  0.11983629606E+02  0.12050737675E+02  0.12700000000E+01 0.  1.
         -4   -1    0    0    0  501 -0.00000000000E+00 -0.00000000000E+00 -0.32499550406E+03  0.32499798547E+03  0.12700000000E+01 0.  1.
         25    2    1    2    0    0  0.00000000000E+00  0.00000000000E+00 -0.31301187445E+03  0.33704872315E+03  0.12500163289E+03 0.  0.
    9000005    1    3    3    0    0  0.21714922106E+02 -0.58523112291E+02 -0.16453163181E+03  0.17597769853E+03  0.10000000000E+01 0.  0.
    9000005    1    3    3    0    0 -0.21714922106E+02  0.58523112291E+02 -0.14848024265E+03  0.16107102462E+03  0.10000000000E+01 0.  0.
<mgrwt>
<rscale>  0 0.12500163E+03</rscale>
<asrwt>0</asrwt>
<pdfrwt beam="1">  1        4 0.18489886E-02 0.12500163E+03</pdfrwt>
<pdfrwt beam="2">  1       -4 0.50004655E-01 0.12500163E+03</pdfrwt>
<totfact> 0.71170685E+03</totfact>
</mgrwt>
</event>
<event>
 5    1  0.3272646E-002  0.1249971E+03  0.7818608E-02  0.1235074E+00
          4   -1    0    0  501    0  0.00000000000E+00  0.00000000000E+00  0.38885594079E+02  0.38906327594E+02  0.12700000000E+01 0.  1.
         -4   -1    0    0    0  501 -0.00000000000E+00 -0.00000000000E+00 -0.10039871566E+03  0.10040674781E+03  0.12700000000E+01 0.  1.
         25    2    1    2    0    0  0.00000000000E+00  0.00000000000E+00 -0.61513121583E+02  0.13931307541E+03  0.12499707538E+03 0.  0.
    9000005    1    3    3    0    0  0.28663373874E+02 -0.43629031352E+02 -0.69041717121E+02  0.86561192699E+02  0.10000000000E+01 0.  0.
    9000005    1    3    3    0    0 -0.28663373874E+02  0.43629031352E+02  0.75285955380E+01  0.52751882709E+02  0.10000000000E+01 0.  0.
<mgrwt>
<rscale>  0 0.12499708E+03</rscale>
<asrwt>0</asrwt>
<pdfrwt beam="1">  1        4 0.59846119E-02 0.12499708E+03</pdfrwt>
<pdfrwt beam="2">  1       -4 0.15448169E-01 0.12499708E+03</pdfrwt>
<totfact> 0.10148511E+04</totfact>
</mgrwt>
</event>
<event>
 5    1  0.3272646E-002  0.1250046E+03  0.7818608E-02  0.1235062E+00
         -4   -1    0    0    0  501 -0.00000000000E+00  0.00000000000E+00  0.87426581431E+02  0.87435805256E+02  0.12700000000E+01 0.  1.
          4   -1    0    0  501    0  0.00000000000E+00 -0.00000000000E+00 -0.44663021005E+02  0.44681073681E+02  0.12700000000E+01 0.  1.
         25    2    1    2    0    0  0.00000000000E+00  0.00000000000E+00  0.42763560427E+02  0.13211687894E+03  0.12500459031E+03 0.  0.
    9000005    1    3    3    0    0  0.26761986418E+02  0.51408440939E+02  0.46089319071E+02  0.74055769858E+02  0.10000000000E+01 0.  0.
    9000005    1    3    3    0    0 -0.26761986418E+02 -0.51408440939E+02 -0.33257586450E+01  0.58061109078E+02  0.10000000000E+01 0.  0.
<mgrwt>
<rscale>  0 0.12500459E+03</rscale>
<asrwt>0</asrwt>
<pdfrwt beam="2">  1        4 0.68733322E-02 0.12500459E+03</pdfrwt>
<pdfrwt beam="1">  1       -4 0.13452341E-01 0.12500459E+03</pdfrwt>
<totfact> 0.10298138E+04</totfact>
</mgrwt>
</event>
<event>
 5    1  0.3272646E-002  0.1250479E+03  0.7818608E-02  0.1234995E+00
          4   -1    0    0  501    0  0.00000000000E+00  0.00000000000E+00  0.79868290817E+02  0.79878387427E+02  0.12700000000E+01 0. -1.
         -4   -1    0    0    0  501 -0.00000000000E+00 -0.00000000000E+00 -0.48924670003E+02  0.48941150731E+02  0.12700000000E+01 0. -1.
         25    2    1    2    0    0  0.00000000000E+00  0.00000000000E+00  0.30943620814E+02  0.12881953816E+03  0.12504785381E+03 0.  0.
    9000005    1    3    3    0    0  0.51114720526E+02  0.11317378426E+02 -0.19726634248E+02  0.55954783599E+02  0.10000000000E+01 0.  0.
    9000005    1    3    3    0    0 -0.51114720526E+02 -0.11317378426E+02  0.50670255062E+02  0.72864754559E+02  0.10000000000E+01 0.  0.
<mgrwt>
<rscale>  0 0.12504785E+03</rscale>
<asrwt>0</asrwt>
<pdfrwt beam="1">  1        4 0.12289474E-01 0.12504785E+03</pdfrwt>
<pdfrwt beam="2">  1       -4 0.75289168E-02 0.12504785E+03</pdfrwt>
<totfact> 0.10358632E+04</totfact>
</mgrwt>
</event>
<event>
 5    1  0.3272646E-002  0.1249944E+03  0.7818608E-02  0.1235078E+00
         -4   -1    0    0    0  501 -0.00000000000E+00  0.00000000000E+00  0.53200528220E+03  0.53200679807E+03  0.12700000000E+01 0. -1.
          4   -1    0    0  501    0  0.00000000000E+00 -0.00000000000E+00 -0.72853818798E+01  0.73952477399E+01  0.12700000000E+01 0. -1.
         25    2    1    2    0    0  0.00000000000E+00  0.00000000000E+00  0.52471990032E+03  0.53940204581E+03  0.12499437278E+03 0.  0.
    9000005    1    3    3    0    0 -0.19361732690E+02 -0.35827635725E+02  0.46689412312E+03  0.46866791908E+03  0.10000000000E+01 0.  0.
    9000005    1    3    3    0    0  0.19361732690E+02  0.35827635725E+02  0.57825777202E+02  0.70734126724E+02  0.10000000000E+01 0.  0.
<mgrwt>
<rscale>  0 0.12499437E+03</rscale>
<asrwt>0</asrwt>
<pdfrwt beam="2">  1        4 0.11293960E-02 0.12499437E+03</pdfrwt>
<pdfrwt beam="1">  1       -4 0.81855517E-01 0.12499437E+03</pdfrwt>
<totfact> 0.52938358E+03</totfact>
</mgrwt>
</event>
<event>
 5    1  0.3272646E-002  0.1250005E+03  0.7818608E-02  0.1235069E+00
          4   -1    0    0  501    0  0.00000000000E+00  0.00000000000E+00  0.26512008980E+03  0.26512313161E+03  0.12700000000E+01 0.  1.
         -4   -1    0    0    0  501 -0.00000000000E+00 -0.00000000000E+00 -0.14703496243E+02  0.14758241825E+02  0.12700000000E+01 0.  1.
         25    2    1    2    0    0  0.00000000000E+00  0.00000000000E+00  0.25041659355E+03  0.27988137343E+03  0.12500045147E+03 0.  0.
    9000005    1    3    3    0    0 -0.51092234406E+02 -0.32932901616E+02  0.92739411440E+02  0.11088999441E+03  0.10000000000E+01 0.  0.
    9000005    1    3    3    0    0  0.51092234406E+02  0.32932901616E+02  0.15767718211E+03  0.16899137902E+03  0.10000000000E+01 0.  0.
<mgrwt>
<rscale>  0 0.12500045E+03</rscale>
<asrwt>0</asrwt>
<pdfrwt beam="1">  1        4 0.40792147E-01 0.12500045E+03</pdfrwt>
<pdfrwt beam="2">  1       -4 0.22665218E-02 0.12500045E+03</pdfrwt>
<totfact> 0.78193054E+03</totfact>
</mgrwt>
</event>
<event>
 5    1  0.3272646E-002  0.1250025E+03  0.7818608E-02  0.1235065E+00
         -4   -1    0    0    0  501 -0.00000000000E+00  0.00000000000E+00  0.60876512987E+02  0.60889758855E+02  0.12700000000E+01 0. -1.
          4   -1    0    0  501    0  0.00000000000E+00 -0.00000000000E+00 -0.64142835636E+02  0.64155407125E+02  0.12700000000E+01 0. -1.
         25    2    1    2    0    0  0.00000000000E+00  0.00000000000E+00 -0.32663226490E+01  0.12504516598E+03  0.12500249866E+03 0.  0.
    9000005    1    3    3    0    0  0.19160967299E+02 -0.93196537373E+01  0.57135572763E+02  0.60987476489E+02  0.10000000000E+01 0.  0.
    9000005    1    3    3    0    0 -0.19160967299E+02  0.93196537373E+01 -0.60401895412E+02  0.64057689491E+02  0.10000000000E+01 0.  0.
<mgrwt>
<rscale>  0 0.12500250E+03</rscale>
<asrwt>0</asrwt>
<pdfrwt beam="2">  1        4 0.98701145E-02 0.12500250E+03</pdfrwt>
<pdfrwt beam="1">  1       -4 0.93676033E-02 0.12500250E+03</pdfrwt>
<totfact> 0.10451291E+04</totfact>
</mgrwt>
</event>
<event>
 4    1  0.3272646E-002  0.1288356E+03  0.7818608E-02  0.1229194E+00
         -4   -1    0    0    0  501 -0.00000000000E+00  0.00000000000E+00  0.64855915968E+02  0.64868349262E+02  0.12700000000E+01 0. -1.
          4   -1    0    0  501    0  0.00000000000E+00 -0.00000000000E+00 -0.63957822307E+02  0.63970430155E+02  0.12700000000E+01 0. -1.
    9000005    1    1    2    0    0  0.43348280745E+01  0.60240719442E+01 -0.63533566965E+02  0.63973387502E+02  0.10000000000E+01 0.  0.
    9000005    1    1    2    0    0 -0.43348280745E+01 -0.60240719442E+01  0.64431660626E+02  0.64865391915E+02  0.10000000000E+01 0.  0.
<mgrwt>
<rscale>  0 0.12883565E+03</rscale>
<asrwt>0</asrwt>
<pdfrwt beam="2">  1        4 0.98415911E-02 0.12883565E+03</pdfrwt>
<pdfrwt beam="1">  1       -4 0.99797595E-02 0.12883565E+03</pdfrwt>
<totfact> 0.95203628E+03</totfact>
</mgrwt>
</event>
<event>
 5    1  0.3272646E-002  0.1250260E+03  0.7818608E-02  0.1235029E+00
         -4   -1    0    0    0  501 -0.00000000000E+00  0.00000000000E+00  0.30997358286E+02  0.31023364110E+02  0.12700000000E+01 0. -1.
          4   -1    0    0  501    0  0.00000000000E+00 -0.00000000000E+00 -0.12598906212E+03  0.12599546291E+03  0.12700000000E+01 0. -1.
         25    2    1    2    0    0  0.00000000000E+00  0.00000000000E+00 -0.94991703836E+02  0.15701882702E+03  0.12502595027E+03 0.  0.
    9000005    1    3    3    0    0 -0.29987755485E+02 -0.21100415802E+02 -0.11106893162E+03  0.11696922928E+03  0.10000000000E+01 0.  0.
    9000005    1    3    3    0    0  0.29987755485E+02  0.21100415802E+02  0.16077227787E+02  0.40049597743E+02  0.10000000000E+01 0.  0.
<mgrwt>
<rscale>  0 0.12502595E+03</rscale>
<asrwt>0</asrwt>
<pdfrwt beam="2">  1        4 0.19385425E-01 0.12502595E+03</pdfrwt>
<pdfrwt beam="1">  1       -4 0.47713172E-02 0.12502595E+03</pdfrwt>
<totfact> 0.97863516E+03</totfact>
</mgrwt>
</event>
<event>
 5    1  0.3272646E-002  0.1250001E+03  0.7818608E-02  0.1235069E+00
          4   -1    0    0  501    0  0.00000000000E+00  0.00000000000E+00  0.85315646277E+01  0.86255721548E+01  0.12700000000E+01 0.  1.
         -4   -1    0    0    0  501 -0.00000000000E+00 -0.00000000000E+00 -0.45525551894E+03  0.45525729035E+03  0.12700000000E+01 0.  1.
         25    2    1    2    0    0  0.00000000000E+00  0.00000000000E+00 -0.44672395431E+03  0.46388286251E+03  0.12500007511E+03 0.  0.
    9000005    1    3    3    0    0 -0.48007672702E+02 -0.19463481828E+02 -0.35307355119E+03  0.35685500741E+03  0.10000000000E+01 0.  0.
    9000005    1    3    3    0    0  0.48007672702E+02  0.19463481828E+02 -0.93650403115E+02  0.10702785510E+03  0.10000000000E+01 0.  0.
<mgrwt>
<rscale>  0 0.12500008E+03</rscale>
<asrwt>0</asrwt>
<pdfrwt beam="1">  1        4 0.13199164E-02 0.12500008E+03</pdfrwt>
<pdfrwt beam="2">  1       -4 0.70046659E-01 0.12500008E+03</pdfrwt>
<totfact> 0.58779623E+03</totfact>
</mgrwt>
</event>
<event>
 5    1  0.3272646E-002  0.1249994E+03  0.7818608E-02  0.1235070E+00
          4   -1    0    0  501    0  0.00000000000E+00  0.00000000000E+00  0.50507563244E+01  0.52079784416E+01  0.12700000000E+01 0.  1.
         -4   -1    0    0    0  501 -0.00000000000E+00 -0.00000000000E+00 -0.76138135614E+03  0.76138241534E+03  0.12700000000E+01 0.  1.
         25    2    1    2    0    0  0.00000000000E+00  0.00000000000E+00 -0.75633059982E+03  0.76659039378E+03  0.12499942244E+03 0.  0.
    9000005    1    3    3    0    0 -0.48659281145E+02  0.17785663172E+02 -0.16385582350E+03  0.17185396809E+03  0.10000000000E+01 0.  0.
    9000005    1    3    3    0    0  0.48659281145E+02 -0.17785663172E+02 -0.59247477632E+03  0.59473642568E+03  0.10000000000E+01 0.  0.
<mgrwt>
<rscale>  0 0.12499942E+03</rscale>
<asrwt>0</asrwt>
<pdfrwt beam="1">  1        4 0.78921552E-03 0.12499942E+03</pdfrwt>
<pdfrwt beam="2">  1       -4 0.11714768E+00 0.12499942E+03</pdfrwt>
<totfact> 0.39793438E+03</totfact>
</mgrwt>
</event>
<event>
 5    1  0.3272646E-002  0.1250016E+03  0.7818608E-02  0.1235067E+00
         -4   -1    0    0    0  501 -0.00000000000E+00  0.00000000000E+00  0.74305139851E+03  0.74305248383E+03  0.12700000000E+01 0.  1.
          4   -1    0    0  501    0  0.00000000000E+00 -0.00000000000E+00 -0.51793662735E+01  0.53327980456E+01  0.12700000000E+01 0.  1.
         25    2    1    2    0    0  0.00000000000E+00  0.00000000000E+00  0.73787203223E+03  0.74838528187E+03  0.12500157668E+03 0.  0.
    9000005    1    3    3    0    0  0.20454187140E+02  0.12337673635E+02  0.71466979740E+03  0.71506958492E+03  0.10000000000E+01 0.  0.
    9000005    1    3    3    0    0 -0.20454187140E+02 -0.12337673635E+02  0.23202234836E+02  0.33315696956E+02  0.10000000000E+01 0.  0.
<mgrwt>
<rscale>  0 0.12500158E+03</rscale>
<asrwt>0</asrwt>
<pdfrwt beam="2">  1        4 0.80871214E-03 0.12500158E+03</pdfrwt>
<pdfrwt beam="1">  1       -4 0.11432740E+00 0.12500158E+03</pdfrwt>
<totfact> 0.40650111E+03</totfact>
</mgrwt>
</event>
<event>
 5    1  0.3272646E-002  0.1249926E+03  0.7818608E-02  0.1235081E+00
         -4   -1    0    0    0  501 -0.00000000000E+00  0.00000000000E+00  0.74774090473E+02  0.74784874848E+02  0.12700000000E+01 0.  1.
          4   -1    0    0  501    0  0.00000000000E+00 -0.00000000000E+00 -0.52212228862E+02  0.52227672193E+02  0.12700000000E+01 0.  1.
         25    2    1    2    0    0  0.00000000000E+00  0.00000000000E+00  0.22561861611E+02  0.12701254704E+03  0.12499259781E+03 0.  0.
    9000005    1    3    3    0    0  0.11731182747E+02 -0.54233360447E+02  0.40484001532E+02  0.68693758188E+02  0.10000000000E+01 0.  0.
    9000005    1    3    3    0    0 -0.11731182747E+02  0.54233360447E+02 -0.17922139921E+02  0.58318788853E+02  0.10000000000E+01 0.  0.
<mgrwt>
<rscale>  0 0.12499260E+03</rscale>
<asrwt>0</asrwt>
<pdfrwt beam="2">  1        4 0.80346681E-02 0.12499260E+03</pdfrwt>
<pdfrwt beam="1">  1       -4 0.11505724E-01 0.12499260E+03</pdfrwt>
<totfact> 0.10410613E+04</totfact>
</mgrwt>
</event>
<event>
 5    1  0.3272646E-002  0.1250012E+03  0.7818608E-02  0.1235067E+00
          4   -1    0    0  501    0  0.00000000000E+00  0.00000000000E+00  0.10067219723E+04  0.10067227734E+04  0.12700000000E+01 0.  1.
         -4   -1    0    0    0  501 -0.00000000000E+00 -0.00000000000E+00 -0.37755028734E+01  0.39833807184E+01  0.12700000000E+01 0.  1.
         25    2    1    2    0    0  0.00000000000E+00  0.00000000000E+00  0.10029464694E+04  0.10107061541E+04  0.12500123746E+03 0.  0.
    9000005    1    3    3    0    0  0.51916852919E+02 -0.15331773956E+02  0.24901379148E+03  0.25483188823E+03  0.10000000000E+01 0.  0.
    9000005    1    3    3    0    0 -0.51916852919E+02  0.15331773956E+02  0.75393267797E+03  0.75587426588E+03  0.10000000000E+01 0.  0.
<mgrwt>
<rscale>  0 0.12500124E+03</rscale>
<asrwt>0</asrwt>
<pdfrwt beam="1">  1        4 0.15489648E+00 0.12500124E+03</pdfrwt>
<pdfrwt beam="2">  1       -4 0.59689833E-03 0.12500124E+03</pdfrwt>
<totfact> 0.30252726E+03</totfact>
</mgrwt>
</event>
<event>
 5    1  0.3272646E-002  0.1249989E+03  0.7818608E-02  0.1235071E+00
         -4   -1    0    0    0  501 -0.00000000000E+00  0.00000000000E+00  0.30990078430E+03  0.30990338657E+03  0.12700000000E+01 0. -1.
          4   -1    0    0  501    0  0.00000000000E+00 -0.00000000000E+00 -0.12569959841E+02  0.12633953870E+02  0.12700000000E+01 0. -1.
         25    2    1    2    0    0  0.00000000000E+00  0.00000000000E+00  0.29733082446E+03  0.32253734044E+03  0.12499886722E+03 0.  0.
    9000005    1    3    3    0    0 -0.25184353360E+02 -0.51016062360E+02  0.81960770413E+02  0.99777042247E+02  0.10000000000E+01 0.  0.
    9000005    1    3    3    0    0  0.25184353360E+02  0.51016062360E+02  0.21537005404E+03  0.22276029820E+03  0.10000000000E+01 0.  0.
<mgrwt>
<rscale>  0 0.12499887E+03</rscale>
<asrwt>0</asrwt>
<pdfrwt beam="2">  1        4 0.19389629E-02 0.12499887E+03</pdfrwt>
<pdfrwt beam="1">  1       -4 0.47682164E-01 0.12499887E+03</pdfrwt>
<totfact> 0.72857185E+03</totfact>
</mgrwt>
</event>
<event>
 5    1  0.3272646E-002  0.1249997E+03  0.7818608E-02  0.1235070E+00
          4   -1    0    0  501    0  0.00000000000E+00  0.00000000000E+00  0.31102093413E+02  0.31128011736E+02  0.12700000000E+01 0. -1.
         -4   -1    0    0    0  501 -0.00000000000E+00 -0.00000000000E+00 -0.12551232158E+03  0.12551874668E+03  0.12700000000E+01 0. -1.
         25    2    1    2    0    0  0.00000000000E+00  0.00000000000E+00 -0.94410228164E+02  0.15664675841E+03  0.12499966296E+03 0.  0.
    9000005    1    3    3    0    0  0.51690471973E+02 -0.33652711246E+02 -0.59788105755E+02  0.85907086185E+02  0.10000000000E+01 0.  0.
    9000005    1    3    3    0    0 -0.51690471973E+02  0.33652711246E+02 -0.34622122408E+02  0.70739672229E+02  0.10000000000E+01 0.  0.
<mgrwt>
<rscale>  0 0.12499966E+03</rscale>
<asrwt>0</asrwt>
<pdfrwt beam="1">  1        4 0.47874255E-02 0.12499966E+03</pdfrwt>
<pdfrwt beam="2">  1       -4 0.19312076E-01 0.12499966E+03</pdfrwt>
<totfact> 0.97993929E+03</totfact>
</mgrwt>
</event>
<event>
 5    1  0.3272646E-002  0.1249962E+03  0.7818608E-02  0.1235075E+00
         -4   -1    0    0    0  501 -0.00000000000E+00  0.00000000000E+00  0.22146297640E+02  0.22182682415E+02  0.12700000000E+01 0. -1.
          4   -1    0    0  501    0  0.00000000000E+00 -0.00000000000E+00 -0.17618966627E+03  0.17619424338E+03  0.12700000000E+01 0. -1.
         25    2    1    2    0    0  0.00000000000E+00  0.00000000000E+00 -0.15404336863E+03  0.19837692580E+03  0.12499618102E+03 0.  0.
    9000005    1    3    3    0    0 -0.42453761610E+02 -0.16696439983E+02 -0.92423801477E+01  0.46556573904E+02  0.10000000000E+01 0.  0.
    9000005    1    3    3    0    0  0.42453761610E+02  0.16696439983E+02 -0.14480098849E+03  0.15182035190E+03  0.10000000000E+01 0.  0.
<mgrwt>
<rscale>  0 0.12499618E+03</rscale>
<asrwt>0</asrwt>
<pdfrwt beam="2">  1        4 0.27109252E-01 0.12499618E+03</pdfrwt>
<pdfrwt beam="1">  1       -4 0.34102738E-02 0.12499618E+03</pdfrwt>
<totfact> 0.90417569E+03</totfact>
</mgrwt>
</event>
<event>
 5    1  0.3272646E-002  0.1249937E+03  0.7818608E-02  0.1235079E+00
         -4   -1    0    0    0  501 -0.00000000000E+00  0.00000000000E+00  0.19068308255E+03  0.19068731177E+03  0.12700000000E+01 0.  1.
          4   -1    0    0  501    0  0.00000000000E+00 -0.00000000000E+00 -0.20459336545E+02  0.20498715858E+02  0.12700000000E+01 0.  1.
         25    2    1    2    0    0  0.00000000000E+00  0.00000000000E+00  0.17022374601E+03  0.21118602763E+03  0.12499365809E+03 0.  0.
    9000005    1    3    3    0    0 -0.28957916337E+02 -0.38235057739E+02  0.17436620281E+02  0.51044258107E+02  0.10000000000E+01 0.  0.
    9000005    1    3    3    0    0  0.28957916337E+02  0.38235057739E+02  0.15278712573E+03  0.16014176952E+03  0.10000000000E+01 0.  0.
<mgrwt>
<rscale>  0 0.12499366E+03</rscale>
<asrwt>0</asrwt>
<pdfrwt beam="2">  1        4 0.31509447E-02 0.12499366E+03</pdfrwt>
<pdfrwt beam="1">  1       -4 0.29339214E-01 0.12499366E+03</pdfrwt>
<totfact> 0.88295069E+03</totfact>
</mgrwt>
</event>
<event>
 5    1  0.3272646E-002  0.1249992E+03  0.7818608E-02  0.1235070E+00
         -4   -1    0    0    0  501 -0.00000000000E+00  0.00000000000E+00  0.25288412192E+02  0.25320282210E+02  0.12700000000E+01 0.  1.
          4   -1    0    0  501    0  0.00000000000E+00 -0.00000000000E+00 -0.15433433517E+03  0.15433956042E+03  0.12700000000E+01 0.  1.
         25    2    1    2    0    0  0.00000000000E+00  0.00000000000E+00 -0.12904592297E+03  0.17965984263E+03  0.12499923527E+03 0.  0.
    9000005    1    3    3    0    0 -0.45217200851E+02 -0.10947914501E+02 -0.12448989977E+03  0.13290292408E+03  0.10000000000E+01 0.  0.
    9000005    1    3    3    0    0  0.45217200851E+02  0.10947914501E+02 -0.45560232013E+01  0.46756918548E+02  0.10000000000E+01 0.  0.
<mgrwt>
<rscale>  0 0.12499924E+03</rscale>
<asrwt>0</asrwt>
<pdfrwt beam="2">  1        4 0.23746597E-01 0.12499924E+03</pdfrwt>
<pdfrwt beam="1">  1       -4 0.38933785E-02 0.12499924E+03</pdfrwt>
<totfact> 0.93679875E+03</totfact>
</mgrwt>
</event>
<event>
 5    1  0.3272646E-002  0.1250002E+03  0.7818608E-02  0.1235069E+00
          4   -1    0    0  501    0  0.00000000000E+00  0.00000000000E+00  0.13074576754E+03  0.13075193547E+03  0.12700000000E+01 0. -1.
         -4   -1    0    0    0  501 -0.00000000000E+00 -0.00000000000E+00 -0.29856400252E+02  0.29883399004E+02  0.12700000000E+01 0. -1.
         25    2    1    2    0    0  0.00000000000E+00  0.00000000000E+00  0.10088936729E+03  0.16063533448E+03  0.12500018500E+03 0.  0.
    9000005    1    3    3    0    0 -0.38209193821E+02 -0.35150758512E+02  0.95141545153E+02  0.10839018374E+03  0.10000000000E+01 0.  0.
    9000005    1    3    3    0    0  0.38209193821E+02  0.35150758512E+02  0.57478221350E+01  0.52245150739E+02  0.10000000000E+01 0.  0.
<mgrwt>
<rscale>  0 0.12500019E+03</rscale>
<asrwt>0</asrwt>
<pdfrwt beam="1">  1        4 0.20117285E-01 0.12500019E+03</pdfrwt>
<pdfrwt beam="2">  1       -4 0.45958436E-02 0.12500019E+03</pdfrwt>
<totfact> 0.97220033E+03</totfact>
</mgrwt>
</event>
<event>
 5    1  0.3272646E-002  0.1249989E+03  0.7818608E-02  0.1235071E+00
         -4   -1    0    0    0  501 -0.00000000000E+00  0.00000000000E+00  0.13396007417E+03  0.13396609411E+03  0.12700000000E+01 0. -1.
          4   -1    0    0  501    0  0.00000000000E+00 -0.00000000000E+00 -0.29138801111E+02  0.29166464136E+02  0.12700000000E+01 0. -1.
         25    2    1    2    0    0  0.00000000000E+00  0.00000000000E+00  0.10482127306E+03  0.16313255825E+03  0.12499892910E+03 0.  0.
    9000005    1    3    3    0    0 -0.38565872342E+02  0.40898012225E+02  0.16784113005E+02  0.58674358648E+02  0.10000000000E+01 0.  0.
    9000005    1    3    3    0    0  0.38565872342E+02 -0.40898012225E+02  0.88037160055E+02  0.10445819960E+03  0.10000000000E+01 0.  0.
<mgrwt>
<rscale>  0 0.12499893E+03</rscale>
<asrwt>0</asrwt>
<pdfrwt beam="2">  1        4 0.44854834E-02 0.12499893E+03</pdfrwt>
<pdfrwt beam="1">  1       -4 0.20611834E-01 0.12499893E+03</pdfrwt>
<totfact> 0.96744557E+03</totfact>
</mgrwt>
</event>
<event>
 5    1  0.3272646E-002  0.1249595E+03  0.7818608E-02  0.1235133E+00
          4   -1    0    0  501    0  0.00000000000E+00  0.00000000000E+00  0.35575466424E+03  0.35575693110E+03  0.12700000000E+01 0. -1.
         -4   -1    0    0    0  501 -0.00000000000E+00 -0.00000000000E+00 -0.10934008675E+02  0.11007517691E+02  0.12700000000E+01 0. -1.
         25    2    1    2    0    0  0.00000000000E+00  0.00000000000E+00  0.34482065556E+03  0.36676444879E+03  0.12495949902E+03 0.  0.
    9000005    1    3    3    0    0  0.56292331184E+02 -0.15875388270E+02  0.10798146498E+03  0.12280818899E+03  0.10000000000E+01 0.  0.
    9000005    1    3    3    0    0 -0.56292331184E+02  0.15875388270E+02  0.23683919058E+03  0.24395625980E+03  0.10000000000E+01 0.  0.
<mgrwt>
<rscale>  0 0.12495950E+03</rscale>
<asrwt>0</asrwt>
<pdfrwt beam="1">  1        4 0.54737316E-01 0.12495950E+03</pdfrwt>
<pdfrwt beam="2">  1       -4 0.16879841E-02 0.12495950E+03</pdfrwt>
<totfact> 0.67979658E+03</totfact>
</mgrwt>
</event>
<event>
 5    1  0.3272646E-002  0.1249960E+03  0.7818608E-02  0.1235076E+00
         -4   -1    0    0    0  501 -0.00000000000E+00  0.00000000000E+00  0.10186038933E+02  0.10264905705E+02  0.12700000000E+01 0.  1.
          4   -1    0    0  501    0  0.00000000000E+00 -0.00000000000E+00 -0.38190716090E+03  0.38190927254E+03  0.12700000000E+01 0.  1.
         25    2    1    2    0    0  0.00000000000E+00  0.00000000000E+00 -0.37172112197E+03  0.39217417824E+03  0.12499597418E+03 0.  0.
    9000005    1    3    3    0    0  0.16984096465E+02 -0.58337234071E+02 -0.23168366276E+03  0.23952037910E+03  0.10000000000E+01 0.  0.
    9000005    1    3    3    0    0 -0.16984096465E+02  0.58337234071E+02 -0.14003745921E+03  0.15265379914E+03  0.10000000000E+01 0.  0.
<mgrwt>
<rscale>  0 0.12499597E+03</rscale>
<asrwt>0</asrwt>
<pdfrwt beam="2">  1        4 0.58761166E-01 0.12499597E+03</pdfrwt>
<pdfrwt beam="1">  1       -4 0.15733123E-02 0.12499597E+03</pdfrwt>
<totfact> 0.65326916E+03</totfact>
</mgrwt>
</event>
<event>
 5    1  0.3272646E-002  0.1250008E+03  0.7818608E-02  0.1235068E+00
         -4   -1    0    0    0  501 -0.00000000000E+00  0.00000000000E+00  0.11593108147E+03  0.11593803755E+03  0.12700000000E+01 0. -1.
          4   -1    0    0  501    0  0.00000000000E+00 -0.00000000000E+00 -0.33675072252E+02  0.33699011724E+02  0.12700000000E+01 0. -1.
         25    2    1    2    0    0  0.00000000000E+00  0.00000000000E+00  0.82256009216E+02  0.14963704927E+03  0.12500078185E+03 0.  0.
    9000005    1    3    3    0    0  0.16619774344E+02 -0.58225062356E+02  0.22624398819E+02  0.64647027832E+02  0.10000000000E+01 0.  0.
    9000005    1    3    3    0    0 -0.16619774344E+02  0.58225062356E+02  0.59631610397E+02  0.84990021438E+02  0.10000000000E+01 0.  0.
<mgrwt>
<rscale>  0 0.12500078E+03</rscale>
<asrwt>0</asrwt>
<pdfrwt beam="2">  1        4 0.51831568E-02 0.12500078E+03</pdfrwt>
<pdfrwt beam="1">  1       -4 0.17837928E-01 0.12500078E+03</pdfrwt>
<totfact> 0.99374347E+03</totfact>
</mgrwt>
</event>
<event>
 4    1  0.3272646E-002  0.1245268E+03  0.7818608E-02  0.1235811E+00
         -4   -1    0    0    0  501 -0.00000000000E+00  0.00000000000E+00  0.43798853920E+03  0.43799038045E+03  0.12700000000E+01 0.  1.
          4   -1    0    0  501    0  0.00000000000E+00 -0.00000000000E+00 -0.88037904528E+01  0.88949213789E+01  0.12700000000E+01 0.  1.
    9000005    1    1    2    0    0  0.45734197697E+01  0.94184532633E+01  0.43482395817E+03  0.43495114442E+03  0.10000000000E+01 0.  0.
    9000005    1    1    2    0    0 -0.45734197697E+01 -0.94184532633E+01 -0.56392094251E+01  0.11934157415E+02  0.10000000000E+01 0.  0.
<mgrwt>
<rscale>  0 0.12452680E+03</rscale>
<asrwt>0</asrwt>
<pdfrwt beam="2">  1        4 0.13615810E-02 0.12452680E+03</pdfrwt>
<pdfrwt beam="1">  1       -4 0.67390003E-01 0.12452680E+03</pdfrwt>
<totfact> 0.60866834E+03</totfact>
</mgrwt>
</event>
<event>
 5    1  0.3272646E-002  0.1249963E+03  0.7818608E-02  0.1235075E+00
          4   -1    0    0  501    0  0.00000000000E+00  0.00000000000E+00  0.65737767358E+02  0.65750033896E+02  0.12700000000E+01 0. -1.
         -4   -1    0    0    0  501 -0.00000000000E+00 -0.00000000000E+00 -0.59393629272E+02  0.59407205776E+02  0.12700000000E+01 0. -1.
         25    2    1    2    0    0  0.00000000000E+00  0.00000000000E+00  0.63441380861E+01  0.12515723967E+03  0.12499634616E+03 0.  0.
    9000005    1    3    3    0    0 -0.77222393464E+01 -0.61935997892E+02  0.62290011402E+01  0.62733573711E+02  0.10000000000E+01 0.  0.
    9000005    1    3    3    0    0  0.77222393464E+01  0.61935997892E+02  0.11513694587E+00  0.62423665960E+02  0.10000000000E+01 0.  0.
<mgrwt>
<rscale>  0 0.12499635E+03</rscale>
<asrwt>0</asrwt>
<pdfrwt beam="1">  1        4 0.10115491E-01 0.12499635E+03</pdfrwt>
<pdfrwt beam="2">  1       -4 0.91394694E-02 0.12499635E+03</pdfrwt>
<totfact> 0.10450311E+04</totfact>
</mgrwt>
</event>
<event>
 5    1  0.3272646E-002  0.1249961E+03  0.7818608E-02  0.1235075E+00
          4   -1    0    0  501    0  0.00000000000E+00  0.00000000000E+00  0.34921487499E+03  0.34921718430E+03  0.12700000000E+01 0. -1.
         -4   -1    0    0    0  501 -0.00000000000E+00 -0.00000000000E+00 -0.11146706274E+02  0.11218821718E+02  0.12700000000E+01 0. -1.
         25    2    1    2    0    0  0.00000000000E+00  0.00000000000E+00  0.33806816871E+03  0.36043600602E+03  0.12499611090E+03 0.  0.
    9000005    1    3    3    0    0  0.19044218313E+02 -0.49662818140E+02  0.26361935495E+03  0.26893352721E+03  0.10000000000E+01 0.  0.
    9000005    1    3    3    0    0 -0.19044218313E+02  0.49662818140E+02  0.74448813767E+02  0.91502478808E+02  0.10000000000E+01 0.  0.
<mgrwt>
<rscale>  0 0.12499611E+03</rscale>
<asrwt>0</asrwt>
<pdfrwt beam="1">  1        4 0.53731091E-01 0.12499611E+03</pdfrwt>
<pdfrwt beam="2">  1       -4 0.17206028E-02 0.12499611E+03</pdfrwt>
<totfact> 0.68597421E+03</totfact>
</mgrwt>
</event>
<event>
 5    1  0.3272646E-002  0.1249992E+03  0.7818608E-02  0.1235071E+00
          4   -1    0    0  501    0  0.00000000000E+00  0.00000000000E+00  0.60320630693E+01  0.61643073311E+01  0.12700000000E+01 0. -1.
         -4   -1    0    0    0  501 -0.00000000000E+00 -0.00000000000E+00 -0.64041806776E+03  0.64041932702E+03  0.12700000000E+01 0. -1.
         25    2    1    2    0    0  0.00000000000E+00  0.00000000000E+00 -0.63438600470E+03  0.64658363435E+03  0.12499917302E+03 0.  0.
    9000005    1    3    3    0    0 -0.50108653984E+02 -0.36450102492E+02 -0.35912418032E+03  0.36443197454E+03  0.10000000000E+01 0.  0.
    9000005    1    3    3    0    0  0.50108653984E+02  0.36450102492E+02 -0.27526182438E+03  0.28215165981E+03  0.10000000000E+01 0.  0.
<mgrwt>
<rscale>  0 0.12499917E+03</rscale>
<asrwt>0</asrwt>
<pdfrwt beam="1">  1        4 0.93827971E-03 0.12499917E+03</pdfrwt>
<pdfrwt beam="2">  1       -4 0.98536073E-01 0.12499917E+03</pdfrwt>
<totfact> 0.46053944E+03</totfact>
</mgrwt>
</event>
<event>
 5    1  0.3272646E-002  0.1249995E+03  0.7818608E-02  0.1235070E+00
          4   -1    0    0  501    0  0.00000000000E+00  0.00000000000E+00  0.12572662625E+02  0.12636642967E+02  0.12700000000E+01 0.  1.
         -4   -1    0    0    0  501 -0.00000000000E+00 -0.00000000000E+00 -0.30983744341E+03  0.30984004622E+03  0.12700000000E+01 0.  1.
         25    2    1    2    0    0  0.00000000000E+00  0.00000000000E+00 -0.29726478079E+03  0.32247668918E+03  0.12499946068E+03 0.  0.
    9000005    1    3    3    0    0 -0.23487272293E+02  0.46136724690E+02 -0.23892503554E+03  0.24447172011E+03  0.10000000000E+01 0.  0.
    9000005    1    3    3    0    0  0.23487272293E+02 -0.46136724690E+02 -0.58339745241E+02  0.78004969070E+02  0.10000000000E+01 0.  0.
<mgrwt>
<rscale>  0 0.12499946E+03</rscale>
<asrwt>0</asrwt>
<pdfrwt beam="1">  1        4 0.19393778E-02 0.12499946E+03</pdfrwt>
<pdfrwt beam="2">  1       -4 0.47672415E-01 0.12499946E+03</pdfrwt>
<totfact> 0.72863394E+03</totfact>
</mgrwt>
</event>
<event>
 5    1  0.3272646E-002  0.1250016E+03  0.7818608E-02  0.1235067E+00
          4   -1    0    0  501    0  0.00000000000E+00  0.00000000000E+00  0.82886395169E+02  0.82896124181E+02  0.12700000000E+01 0.  1.
         -4   -1    0    0    0  501 -0.00000000000E+00 -0.00000000000E+00 -0.47107923847E+02  0.47125039938E+02  0.12700000000E+01 0.  1.
         25    2    1    2    0    0  0.00000000000E+00  0.00000000000E+00  0.35778471322E+02  0.13002116412E+03  0.12500161642E+03 0.  0.
    9000005    1    3    3    0    0 -0.49122038600E+02  0.99667897225E+01  0.56711434482E+02  0.75693450011E+02  0.10000000000E+01 0.  0.
    9000005    1    3    3    0    0  0.49122038600E+02 -0.99667897225E+01 -0.20932963160E+02  0.54327714108E+02  0.10000000000E+01 0.  0.
<mgrwt>
<rscale>  0 0.12500162E+03</rscale>
<asrwt>0</asrwt>
<pdfrwt beam="1">  1        4 0.12753818E-01 0.12500162E+03</pdfrwt>
<pdfrwt beam="2">  1       -4 0.72494379E-02 0.12500162E+03</pdfrwt>
<totfact> 0.10343677E+04</totfact>
</mgrwt>
</event>
<event>
 5    1  0.3272646E-002  0.1250008E+03  0.7818608E-02  0.1235068E+00
         -4   -1    0    0    0  501 -0.00000000000E+00  0.00000000000E+00  0.41556432564E+02  0.41575834177E+02  0.12700000000E+01 0. -1.
          4   -1    0    0  501    0  0.00000000000E+00 -0.00000000000E+00 -0.93954237840E+02  0.93962820882E+02  0.12700000000E+01 0. -1.
         25    2    1    2    0    0  0.00000000000E+00  0.00000000000E+00 -0.52397805276E+02  0.13553865506E+03  0.12500078807E+03 0.  0.
    9000005    1    3    3    0    0 -0.61503415121E+02  0.85984148859E+01 -0.18632332774E+02  0.64844171941E+02  0.10000000000E+01 0.  0.
    9000005    1    3    3    0    0  0.61503415121E+02 -0.85984148859E+01 -0.33765472502E+02  0.70694483118E+02  0.10000000000E+01 0.  0.
<mgrwt>
<rscale>  0 0.12500079E+03</rscale>
<asrwt>0</asrwt>
<pdfrwt beam="2">  1        4 0.14456651E-01 0.12500079E+03</pdfrwt>
<pdfrwt beam="1">  1       -4 0.63954500E-02 0.12500079E+03</pdfrwt>
<totfact> 0.10226548E+04</totfact>
</mgrwt>
</event>
<event>
 5    1  0.3272646E-002  0.1250024E+03  0.7818608E-02  0.1235066E+00
          4   -1    0    0  501    0  0.00000000000E+00  0.00000000000E+00  0.53005564306E+02  0.53020776563E+02  0.12700000000E+01 0.  1.
         -4   -1    0    0    0  501 -0.00000000000E+00 -0.00000000000E+00 -0.73666679080E+02  0.73677625550E+02  0.12700000000E+01 0.  1.
         25    2    1    2    0    0  0.00000000000E+00  0.00000000000E+00 -0.20661114774E+02  0.12669840211E+03  0.12500241371E+03 0.  0.
    9000005    1    3    3    0    0  0.22155937801E+02  0.32776743903E+02  0.38701403007E+02  0.55353402022E+02  0.10000000000E+01 0.  0.
    9000005    1    3    3    0    0 -0.22155937801E+02 -0.32776743903E+02 -0.59362517781E+02  0.71345000091E+02  0.10000000000E+01 0.  0.
<mgrwt>
<rscale>  0 0.12500241E+03</rscale>
<asrwt>0</asrwt>
<pdfrwt beam="1">  1        4 0.81567144E-02 0.12500241E+03</pdfrwt>
<pdfrwt beam="2">  1       -4 0.11335348E-01 0.12500241E+03</pdfrwt>
<totfact> 0.10415138E+04</totfact>
</mgrwt>
</event>
<event>
 5    1  0.3272646E-002  0.1249988E+03  0.7818608E-02  0.1235071E+00
         -4   -1    0    0    0  501 -0.00000000000E+00  0.00000000000E+00  0.60036002059E+01  0.61364578897E+01  0.12700000000E+01 0. -1.
          4   -1    0    0  501    0  0.00000000000E+00 -0.00000000000E+00 -0.64338435712E+03  0.64338561057E+03  0.12700000000E+01 0. -1.
         25    2    1    2    0    0  0.00000000000E+00  0.00000000000E+00 -0.63738075691E+03  0.64952206846E+03  0.12499875251E+03 0.  0.
    9000005    1    3    3    0    0 -0.55267962274E+02 -0.23121073370E+02 -0.22631430544E+03  0.23411171806E+03  0.10000000000E+01 0.  0.
    9000005    1    3    3    0    0  0.55267962274E+02  0.23121073370E+02 -0.41106645148E+03  0.41541035040E+03  0.10000000000E+01 0.  0.
<mgrwt>
<rscale>  0 0.12499875E+03</rscale>
<asrwt>0</asrwt>
<pdfrwt beam="2">  1        4 0.98992471E-01 0.12499875E+03</pdfrwt>
<pdfrwt beam="1">  1       -4 0.93394755E-03 0.12499875E+03</pdfrwt>
<totfact> 0.45884856E+03</totfact>
</mgrwt>
</event>
<event>
 5    1  0.3272646E-002  0.1250001E+03  0.7818608E-02  0.1235069E+00
          4   -1    0    0  501    0  0.00000000000E+00  0.00000000000E+00  0.32186848147E+02  0.32211893667E+02  0.12700000000E+01 0.  1.
         -4   -1    0    0    0  501 -0.00000000000E+00 -0.00000000000E+00 -0.12128628567E+03  0.12129293464E+03  0.12700000000E+01 0.  1.
         25    2    1    2    0    0  0.00000000000E+00  0.00000000000E+00 -0.89099437528E+02  0.15350482830E+03  0.12500009018E+03 0.  0.
    9000005    1    3    3    0    0 -0.19773489466E+02 -0.10505828546E+02 -0.11619698435E+03  0.11833893058E+03  0.10000000000E+01 0.  0.
    9000005    1    3    3    0    0  0.19773489466E+02  0.10505828546E+02  0.27097546820E+02  0.35165897725E+02  0.10000000000E+01 0.  0.
<mgrwt>
<rscale>  0 0.12500009E+03</rscale>
<asrwt>0</asrwt>
<pdfrwt beam="1">  1        4 0.49542609E-02 0.12500009E+03</pdfrwt>
<pdfrwt beam="2">  1       -4 0.18661866E-01 0.12500009E+03</pdfrwt>
<totfact> 0.98609395E+03</totfact>
</mgrwt>
</event>
<event>
 5    1  0.3272646E-002  0.1249983E+03  0.7818608E-02  0.1235072E+00
          4   -1    0    0  501    0  0.00000000000E+00  0.00000000000E+00  0.12469160487E+02  0.12533669186E+02  0.12700000000E+01 0. -1.
         -4   -1    0    0    0  501 -0.00000000000E+00 -0.00000000000E+00 -0.31239022394E+03  0.31239280547E+03  0.12700000000E+01 0. -1.
         25    2    1    2    0    0  0.00000000000E+00  0.00000000000E+00 -0.29992106345E+03  0.32492647466E+03  0.12499827852E+03 0.  0.
    9000005    1    3    3    0    0 -0.19139922096E+02  0.48967061433E+01  0.41502804060E+01  0.20212352073E+02  0.10000000000E+01 0.  0.
    9000005    1    3    3    0    0  0.19139922096E+02 -0.48967061433E+01 -0.30407134386E+03  0.30471412259E+03  0.10000000000E+01 0.  0.
<mgrwt>
<rscale>  0 0.12499828E+03</rscale>
<asrwt>0</asrwt>
<pdfrwt beam="1">  1        4 0.19234934E-02 0.12499828E+03</pdfrwt>
<pdfrwt beam="2">  1       -4 0.48065189E-01 0.12499828E+03</pdfrwt>
<totfact> 0.72576764E+03</totfact>
</mgrwt>
</event>
<event>
 5    1  0.3272646E-002  0.1249992E+03  0.7818608E-02  0.1235071E+00
          4   -1    0    0  501    0  0.00000000000E+00  0.00000000000E+00  0.11082657207E+03  0.11083384851E+03  0.12700000000E+01 0.  1.
         -4   -1    0    0    0  501 -0.00000000000E+00 -0.00000000000E+00 -0.35226191764E+02  0.35249077806E+02  0.12700000000E+01 0.  1.
         25    2    1    2    0    0  0.00000000000E+00  0.00000000000E+00  0.75600380305E+02  0.14608292632E+03  0.12499921544E+03 0.  0.
    9000005    1    3    3    0    0 -0.31813983411E+02  0.18288391374E+02 -0.21314292603E+02  0.42448720460E+02  0.10000000000E+01 0.  0.
    9000005    1    3    3    0    0  0.31813983411E+02 -0.18288391374E+02  0.96914672908E+02  0.10363420586E+03  0.10000000000E+01 0.  0.
<mgrwt>
<rscale>  0 0.12499922E+03</rscale>
<asrwt>0</asrwt>
<pdfrwt beam="1">  1        4 0.17052562E-01 0.12499922E+03</pdfrwt>
<pdfrwt beam="2">  1       -4 0.54217343E-02 0.12499922E+03</pdfrwt>
<totfact> 0.10009209E+04</totfact>
</mgrwt>
</event>
<event>
 5    1  0.3272646E-002  0.1249872E+03  0.7818608E-02  0.1235089E+00
          4   -1    0    0  501    0  0.00000000000E+00  0.00000000000E+00  0.92780915525E+02  0.92789607099E+02  0.12700000000E+01 0. -1.
         -4   -1    0    0    0  501 -0.00000000000E+00 -0.00000000000E+00 -0.42072993325E+02  0.42092156838E+02  0.12700000000E+01 0. -1.
         25    2    1    2    0    0  0.00000000000E+00  0.00000000000E+00  0.50707922200E+02  0.13488176394E+03  0.12498718682E+03 0.  0.
    9000005    1    3    3    0    0 -0.25093422148E+02  0.98545963863E+01 -0.35479314971E+02  0.44571007346E+02  0.10000000000E+01 0.  0.
    9000005    1    3    3    0    0  0.25093422148E+02 -0.98545963863E+01  0.86187237171E+02  0.90310756592E+02  0.10000000000E+01 0.  0.
<mgrwt>
<rscale>  0 0.12498719E+03</rscale>
<asrwt>0</asrwt>
<pdfrwt beam="1">  1        4 0.14276130E-01 0.12498719E+03</pdfrwt>
<pdfrwt beam="2">  1       -4 0.64749110E-02 0.12498719E+03</pdfrwt>
<totfact> 0.10243523E+04</totfact>
</mgrwt>
</event>
<event>
 5    1  0.3272646E-002  0.1249971E+03  0.7818608E-02  0.1235074E+00
         -4   -1    0    0    0  501 -0.00000000000E+00  0.00000000000E+00  0.10229688791E+03  0.10230477103E+03  0.12700000000E+01 0. -1.
          4   -1    0    0  501    0  0.00000000000E+00 -0.00000000000E+00 -0.38163716062E+02  0.38184841543E+02  0.12700000000E+01 0. -1.
         25    2    1    2    0    0  0.00000000000E+00  0.00000000000E+00  0.64133171845E+02  0.14048961257E+03  0.12499707001E+03 0.  0.
    9000005    1    3    3    0    0 -0.28004038685E+02 -0.43934865945E+02 -0.67146396812E+01  0.52541269630E+02  0.10000000000E+01 0.  0.
    9000005    1    3    3    0    0  0.28004038685E+02  0.43934865945E+02  0.70847811527E+02  0.87948342943E+02  0.10000000000E+01 0.  0.
<mgrwt>
<rscale>  0 0.12499707E+03</rscale>
<asrwt>0</asrwt>
<pdfrwt beam="2">  1        4 0.58735724E-02 0.12499707E+03</pdfrwt>
<pdfrwt beam="1">  1       -4 0.15740214E-01 0.12499707E+03</pdfrwt>
<totfact> 0.10124117E+04</totfact>
</mgrwt>
</event>
<event>
 5    1  0.3272646E-002  0.1250002E+03  0.7818608E-02  0.1235069E+00
         -4   -1    0    0    0  501 -0.00000000000E+00  0.00000000000E+00  0.31160331588E+02  0.31186201510E+02  0.12700000000E+01 0.  1.
          4   -1    0    0  501    0  0.00000000000E+00 -0.00000000000E+00 -0.12527891332E+03  0.12528535040E+03  0.12700000000E+01 0.  1.
         25    2    1    2    0    0  0.00000000000E+00  0.00000000000E+00 -0.94118581737E+02  0.15647155191E+03  0.12500015651E+03 0.  0.
    9000005    1    3    3    0    0  0.18682947997E+02  0.31374051047E+02  0.16422600756E+02  0.40051035450E+02  0.10000000000E+01 0.  0.
    9000005    1    3    3    0    0 -0.18682947997E+02 -0.31374051047E+02 -0.11054118249E+03  0.11642051646E+03  0.10000000000E+01 0.  0.
<mgrwt>
<rscale>  0 0.12500016E+03</rscale>
<asrwt>0</asrwt>
<pdfrwt beam="2">  1        4 0.19276164E-01 0.12500016E+03</pdfrwt>
<pdfrwt beam="1">  1       -4 0.47963824E-02 0.12500016E+03</pdfrwt>
<totfact> 0.98027042E+03</totfact>
</mgrwt>
</event>
<event>
 5    1  0.3272646E-002  0.1250033E+03  0.7818608E-02  0.1235064E+00
          4   -1    0    0  501    0  0.00000000000E+00  0.00000000000E+00  0.91298520263E+02  0.91307352947E+02  0.12700000000E+01 0.  1.
         -4   -1    0    0    0  501 -0.00000000000E+00 -0.00000000000E+00 -0.42767405608E+02  0.42786258102E+02  0.12700000000E+01 0.  1.
         25    2    1    2    0    0  0.00000000000E+00  0.00000000000E+00  0.48531114655E+02  0.13409361105E+03  0.12500330969E+03 0.  0.
    9000005    1    3    3    0    0 -0.17763321338E+02 -0.14096407173E+01 -0.39989720891E+02  0.43791556822E+02  0.10000000000E+01 0.  0.
    9000005    1    3    3    0    0  0.17763321338E+02  0.14096407173E+01  0.88520835546E+02  0.90302054228E+02  0.10000000000E+01 0.  0.
<mgrwt>
<rscale>  0 0.12500331E+03</rscale>
<asrwt>0</asrwt>
<pdfrwt beam="1">  1        4 0.14048056E-01 0.12500331E+03</pdfrwt>
<pdfrwt beam="2">  1       -4 0.65817306E-02 0.12500331E+03</pdfrwt>
<totfact> 0.10256445E+04</totfact>
</mgrwt>
</event>
<event>
 5    1  0.3272646E-002  0.1249948E+03  0.7818608E-02  0.1235077E+00
         -4   -1    0    0    0  501 -0.00000000000E+00  0.00000000000E+00  0.44188431335E+03  0.44188613838E+03  0.12700000000E+01 0.  1.
          4   -1    0    0  501    0  0.00000000000E+00 -0.00000000000E+00 -0.87917811123E+01  0.88830352429E+01  0.12700000000E+01 0.  1.
         25    2    1    2    0    0  0.00000000000E+00  0.00000000000E+00  0.43309253224E+03  0.45076917362E+03  0.12499482550E+03 0.  0.
    9000005    1    3    3    0    0 -0.34598170213E+02 -0.53952608656E+01  0.40319758066E+03  0.40471648258E+03  0.10000000000E+01 0.  0.
    9000005    1    3    3    0    0  0.34598170213E+02  0.53952608656E+01  0.29894951585E+02  0.46052691042E+02  0.10000000000E+01 0.  0.
<mgrwt>
<rscale>  0 0.12499483E+03</rscale>
<asrwt>0</asrwt>
<pdfrwt beam="2">  1        4 0.13597421E-02 0.12499483E+03</pdfrwt>
<pdfrwt beam="1">  1       -4 0.67989338E-01 0.12499483E+03</pdfrwt>
<totfact> 0.59904058E+03</totfact>
</mgrwt>
</event>
<event>
 5    1  0.3272646E-002  0.1249939E+03  0.7818608E-02  0.1235079E+00
          4   -1    0    0  501    0  0.00000000000E+00  0.00000000000E+00  0.22429212643E+02  0.22465139212E+02  0.12700000000E+01 0.  1.
         -4   -1    0    0    0  501 -0.00000000000E+00 -0.00000000000E+00 -0.17396436818E+03  0.17396900384E+03  0.12700000000E+01 0.  1.
         25    2    1    2    0    0  0.00000000000E+00  0.00000000000E+00 -0.15153515554E+03  0.19643414305E+03  0.12499387662E+03 0.  0.
    9000005    1    3    3    0    0 -0.25617326813E+02 -0.54444157648E+02 -0.10227295123E+03  0.11866410699E+03  0.10000000000E+01 0.  0.
    9000005    1    3    3    0    0  0.25617326813E+02  0.54444157648E+02 -0.49262204305E+02  0.77770036056E+02  0.10000000000E+01 0.  0.
<mgrwt>
<rscale>  0 0.12499388E+03</rscale>
<asrwt>0</asrwt>
<pdfrwt beam="1">  1        4 0.34537684E-02 0.12499388E+03</pdfrwt>
<pdfrwt beam="2">  1       -4 0.26766868E-01 0.12499388E+03</pdfrwt>
<totfact> 0.90752130E+03</totfact>
</mgrwt>
</event>
<event>
 5    1  0.3272646E-002  0.1249980E+03  0.7818608E-02  0.1235072E+00
         -4   -1    0    0    0  501 -0.00000000000E+00  0.00000000000E+00  0.42884574544E+03  0.42884762595E+03  0.12700000000E+01 0.  1.
          4   -1    0    0  501    0  0.00000000000E+00 -0.00000000000E+00 -0.90622879872E+01  0.91508449644E+01  0.12700000000E+01 0.  1.
         25    2    1    2    0    0  0.00000000000E+00  0.00000000000E+00  0.41978345745E+03  0.43799847091E+03  0.12499803747E+03 0.  0.
    9000005    1    3    3    0    0 -0.34188233560E+02  0.14382074213E+00  0.39318603776E+03  0.39467089617E+03  0.10000000000E+01 0.  0.
    9000005    1    3    3    0    0  0.34188233560E+02 -0.14382074213E+00  0.26597419692E+02  0.43327574737E+02  0.10000000000E+01 0.  0.
<mgrwt>
<rscale>  0 0.12499804E+03</rscale>
<asrwt>0</asrwt>
<pdfrwt beam="2">  1        4 0.14011548E-02 0.12499804E+03</pdfrwt>
<pdfrwt beam="1">  1       -4 0.65983231E-01 0.12499804E+03</pdfrwt>
<totfact> 0.61020245E+03</totfact>
</mgrwt>
</event>
<event>
 5    1  0.3272646E-002  0.1249967E+03  0.7818608E-02  0.1235074E+00
         -4   -1    0    0    0  501 -0.00000000000E+00  0.00000000000E+00  0.32449763550E+04  0.32449766036E+04  0.12700000000E+01 0.  1.
          4   -1    0    0  501    0  0.00000000000E+00 -0.00000000000E+00 -0.86842042070E+00  0.15385233268E+01  0.12700000000E+01 0.  1.
         25    2    1    2    0    0  0.00000000000E+00  0.00000000000E+00  0.32441079346E+04  0.32465151269E+04  0.12499671060E+03 0.  0.
    9000005    1    3    3    0    0  0.22664283104E+02  0.54098013890E+02  0.21819950930E+04  0.21827835098E+04  0.10000000000E+01 0.  0.
    9000005    1    3    3    0    0 -0.22664283104E+02 -0.54098013890E+02  0.10621128416E+04  0.10637316171E+04  0.10000000000E+01 0.  0.
<mgrwt>
<rscale>  0 0.12499671E+03</rscale>
<asrwt>0</asrwt>
<pdfrwt beam="2">  1        4 0.18517021E-03 0.12499671E+03</pdfrwt>
<pdfrwt beam="1">  1       -4 0.49927446E+00 0.12499671E+03</pdfrwt>
<totfact> 0.10585030E+02</totfact>
</mgrwt>
</event>
<event>
 5    1  0.3272646E-002  0.1250038E+03  0.7818608E-02  0.1235063E+00
          4   -1    0    0  501    0  0.00000000000E+00  0.00000000000E+00  0.15778205761E+04  0.15778210872E+04  0.12700000000E+01 0.  1.
         -4   -1    0    0    0  501 -0.00000000000E+00 -0.00000000000E+00 -0.23124690779E+01  0.26382595089E+01  0.12700000000E+01 0.  1.
         25    2    1    2    0    0  0.00000000000E+00  0.00000000000E+00  0.15755081070E+04  0.15804593467E+04  0.12500380538E+03 0.  0.
    9000005    1    3    3    0    0 -0.47006449629E+02  0.13041437220E+02  0.12816201905E+04  0.12825486338E+04  0.10000000000E+01 0.  0.
    9000005    1    3    3    0    0  0.47006449629E+02 -0.13041437220E+02  0.29388791649E+03  0.29791071288E+03  0.10000000000E+01 0.  0.
<mgrwt>
<rscale>  0 0.12500381E+03</rscale>
<asrwt>0</asrwt>
<pdfrwt beam="1">  1        4 0.24276615E+00 0.12500381E+03</pdfrwt>
<pdfrwt beam="2">  1       -4 0.38086549E-03 0.12500381E+03</pdfrwt>
<totfact> 0.16400600E+03</totfact>
</mgrwt>
</event>
<event>
 5    1  0.3272646E-002  0.1250014E+03  0.7818608E-02  0.1235067E+00
          4   -1    0    0  501    0  0.00000000000E+00  0.00000000000E+00  0.28681954127E+01  0.31367889514E+01  0.12700000000E+01 0. -1.
         -4   -1    0    0    0  501 -0.00000000000E+00 -0.00000000000E+00 -0.13007621786E+04  0.13007627986E+04  0.12700000000E+01 0. -1.
         25    2    1    2    0    0  0.00000000000E+00  0.00000000000E+00 -0.12978939832E+04  0.13038995875E+04  0.12500137110E+03 0.  0.
    9000005    1    3    3    0    0  0.43892609958E+02 -0.40720410319E+02 -0.46216866345E+03  0.46603174409E+03  0.10000000000E+01 0.  0.
    9000005    1    3    3    0    0 -0.43892609958E+02  0.40720410319E+02 -0.83572531973E+03  0.83786784344E+03  0.10000000000E+01 0.  0.
<mgrwt>
<rscale>  0 0.12500137E+03</rscale>
<asrwt>0</asrwt>
<pdfrwt beam="1">  1        4 0.46197060E-03 0.12500137E+03</pdfrwt>
<pdfrwt beam="2">  1       -4 0.20013752E+00 0.12500137E+03</pdfrwt>
<totfact> 0.22136070E+03</totfact>
</mgrwt>
</event>
<event>
 5    1  0.3272646E-002  0.1250022E+03  0.7818608E-02  0.1235066E+00
          4   -1    0    0  501    0  0.00000000000E+00  0.00000000000E+00  0.74725950597E+01  0.75797478142E+01  0.12700000000E+01 0. -1.
         -4   -1    0    0    0  501 -0.00000000000E+00 -0.00000000000E+00 -0.51893263206E+03  0.51893418612E+03  0.12700000000E+01 0. -1.
         25    2    1    2    0    0  0.00000000000E+00  0.00000000000E+00 -0.51146003701E+03  0.52651393393E+03  0.12500221267E+03 0.  0.
    9000005    1    3    3    0    0 -0.17827278338E+02  0.30856665892E+02 -0.47196151311E+03  0.47330604850E+03  0.10000000000E+01 0.  0.
    9000005    1    3    3    0    0  0.17827278338E+02 -0.30856665892E+02 -0.39498523892E+02  0.53207885436E+02  0.10000000000E+01 0.  0.
<mgrwt>
<rscale>  0 0.12500221E+03</rscale>
<asrwt>0</asrwt>
<pdfrwt beam="1">  1        4 0.11579925E-02 0.12500221E+03</pdfrwt>
<pdfrwt beam="2">  1       -4 0.79844124E-01 0.12500221E+03</pdfrwt>
<totfact> 0.53861731E+03</totfact>
</mgrwt>
</event>
<event>
 5    1  0.3272646E-002  0.1250013E+03  0.7818608E-02  0.1235067E+00
         -4   -1    0    0    0  501 -0.00000000000E+00  0.00000000000E+00  0.53045347729E+03  0.53045499759E+03  0.12700000000E+01 0.  1.
          4   -1    0    0  501    0  0.00000000000E+00 -0.00000000000E+00 -0.73078433736E+01  0.74173765425E+01  0.12700000000E+01 0.  1.
         25    2    1    2    0    0  0.00000000000E+00  0.00000000000E+00  0.52314563392E+03  0.53787237413E+03  0.12500134627E+03 0.  0.
    9000005    1    3    3    0    0 -0.60510907591E+02  0.13750798118E+02  0.29339118001E+03  0.29988337549E+03  0.10000000000E+01 0.  0.
    9000005    1    3    3    0    0  0.60510907591E+02 -0.13750798118E+02  0.22975445391E+03  0.23798899864E+03  0.10000000000E+01 0.  0.
<mgrwt>
<rscale>  0 0.12500135E+03</rscale>
<asrwt>0</asrwt>
<pdfrwt beam="2">  1        4 0.11328260E-02 0.12500135E+03</pdfrwt>
<pdfrwt beam="1">  1       -4 0.81616779E-01 0.12500135E+03</pdfrwt>
<totfact> 0.53039610E+03</totfact>
</mgrwt>
</event>
<event>
 5    1  0.3272646E-002  0.1249966E+03  0.7818608E-02  0.1235075E+00
         -4   -1    0    0    0  501 -0.00000000000E+00  0.00000000000E+00  0.39498358538E+02  0.39518770568E+02  0.12700000000E+01 0.  1.
          4   -1    0    0  501    0  0.00000000000E+00 -0.00000000000E+00 -0.98841059698E+02  0.98849218419E+02  0.12700000000E+01 0.  1.
         25    2    1    2    0    0  0.00000000000E+00  0.00000000000E+00 -0.59342701159E+02  0.13836798899E+03  0.12499657674E+03 0.  0.
    9000005    1    3    3    0    0 -0.48125220497E+02 -0.24350982605E+02 -0.64607373851E+02  0.84167214268E+02  0.10000000000E+01 0.  0.
    9000005    1    3    3    0    0  0.48125220497E+02  0.24350982605E+02  0.52646726919E+01  0.54200774720E+02  0.10000000000E+01 0.  0.
<mgrwt>
<rscale>  0 0.12499658E+03</rscale>
<asrwt>0</asrwt>
<pdfrwt beam="2">  1        4 0.15208515E-01 0.12499658E+03</pdfrwt>
<pdfrwt beam="1">  1       -4 0.60788683E-02 0.12499658E+03</pdfrwt>
<totfact> 0.10168307E+04</totfact>
</mgrwt>
</event>
<event>
 5    1  0.3272646E-002  0.1250020E+03  0.7818608E-02  0.1235066E+00
          4   -1    0    0  501    0  0.00000000000E+00  0.00000000000E+00  0.88819972388E+02  0.88829051526E+02  0.12700000000E+01 0. -1.
         -4   -1    0    0    0  501 -0.00000000000E+00 -0.00000000000E+00 -0.43960346518E+02  0.43978687634E+02  0.12700000000E+01 0. -1.
         25    2    1    2    0    0  0.00000000000E+00  0.00000000000E+00  0.44859625869E+02  0.13280773916E+03  0.12500203817E+03 0.  0.
    9000005    1    3    3    0    0 -0.27976355023E+02 -0.54845780416E+02  0.33805479997E+02  0.70246327645E+02  0.10000000000E+01 0.  0.
    9000005    1    3    3    0    0  0.27976355023E+02  0.54845780416E+02  0.11054145872E+02  0.62561411515E+02  0.10000000000E+01 0.  0.
<mgrwt>
<rscale>  0 0.12500204E+03</rscale>
<asrwt>0</asrwt>
<pdfrwt beam="1">  1        4 0.13666720E-01 0.12500204E+03</pdfrwt>
<pdfrwt beam="2">  1       -4 0.67652396E-02 0.12500204E+03</pdfrwt>
<totfact> 0.10284015E+04</totfact>
</mgrwt>
</event>
<event>
 5    1  0.3272646E-002  0.1250191E+03  0.7818608E-02  0.1235039E+00
          4   -1    0    0  501    0  0.00000000000E+00  0.00000000000E+00  0.25620648822E+03  0.25620963585E+03  0.12700000000E+01 0.  1.
         -4   -1    0    0    0  501 -0.00000000000E+00 -0.00000000000E+00 -0.15221463826E+02  0.15274353047E+02  0.12700000000E+01 0.  1.
         25    2    1    2    0    0  0.00000000000E+00  0.00000000000E+00  0.24098502439E+03  0.27148398890E+03  0.12501909554E+03 0.  0.
    9000005    1    3    3    0    0 -0.26102253839E+02  0.14742398727E+02  0.13982801355E+01  0.30027007228E+02  0.10000000000E+01 0.  0.
    9000005    1    3    3    0    0  0.26102253839E+02 -0.14742398727E+02  0.23958674425E+03  0.24145698167E+03  0.10000000000E+01 0.  0.
<mgrwt>
<rscale>  0 0.12501910E+03</rscale>
<asrwt>0</asrwt>
<pdfrwt beam="1">  1        4 0.39420695E-01 0.12501910E+03</pdfrwt>
<pdfrwt beam="2">  1       -4 0.23460741E-02 0.12501910E+03</pdfrwt>
<totfact> 0.79287295E+03</totfact>
</mgrwt>
</event>
<event>
 5    1  0.3272646E-002  0.1250033E+03  0.7818608E-02  0.1235064E+00
         -4   -1    0    0    0  501 -0.00000000000E+00  0.00000000000E+00  0.12720156365E+04  0.12720162705E+04  0.12700000000E+01 0.  1.
          4   -1    0    0  501    0  0.00000000000E+00 -0.00000000000E+00 -0.29391184989E+01  0.32017678790E+01  0.12700000000E+01 0.  1.
         25    2    1    2    0    0  0.00000000000E+00  0.00000000000E+00  0.12690765180E+04  0.12752180384E+04  0.12500334735E+03 0.  0.
    9000005    1    3    3    0    0  0.19181910367E+01 -0.53784528876E+02  0.31049029768E+03  0.31512169071E+03  0.10000000000E+01 0.  0.
    9000005    1    3    3    0    0 -0.19181910367E+01  0.53784528876E+02  0.95858622033E+03  0.96009634767E+03  0.10000000000E+01 0.  0.
<mgrwt>
<rscale>  0 0.12500335E+03</rscale>
<asrwt>0</asrwt>
<pdfrwt beam="2">  1        4 0.47242386E-03 0.12500335E+03</pdfrwt>
<pdfrwt beam="1">  1       -4 0.19571529E+00 0.12500335E+03</pdfrwt>
<totfact> 0.22819359E+03</totfact>
</mgrwt>
</event>
<event>
 5    1  0.3272646E-002  0.1250003E+03  0.7818608E-02  0.1235069E+00
          4   -1    0    0  501    0  0.00000000000E+00  0.00000000000E+00  0.66814928390E+01  0.68011209780E+01  0.12700000000E+01 0. -1.
         -4   -1    0    0    0  501 -0.00000000000E+00 -0.00000000000E+00 -0.57933251227E+03  0.57933390430E+03  0.12700000000E+01 0. -1.
         25    2    1    2    0    0  0.00000000000E+00  0.00000000000E+00 -0.57265101943E+03  0.58613502528E+03  0.12500031121E+03 0.  0.
    9000005    1    3    3    0    0 -0.52862419013E+02  0.29578599880E+02 -0.35835127158E+03  0.36343632558E+03  0.10000000000E+01 0.  0.
    9000005    1    3    3    0    0  0.52862419013E+02 -0.29578599880E+02 -0.21429974785E+03  0.22269869969E+03  0.10000000000E+01 0.  0.
<mgrwt>
<rscale>  0 0.12500031E+03</rscale>
<asrwt>0</asrwt>
<pdfrwt beam="1">  1        4 0.10372317E-02 0.12500031E+03</pdfrwt>
<pdfrwt beam="2">  1       -4 0.89137348E-01 0.12500031E+03</pdfrwt>
<totfact> 0.49754345E+03</totfact>
</mgrwt>
</event>
<event>
 5    1  0.3272646E-002  0.1249890E+03  0.7818608E-02  0.1235087E+00
          4   -1    0    0  501    0  0.00000000000E+00  0.00000000000E+00  0.26534899058E+02  0.26565273724E+02  0.12700000000E+01 0.  1.
         -4   -1    0    0    0  501 -0.00000000000E+00 -0.00000000000E+00 -0.14706846446E+03  0.14707394786E+03  0.12700000000E+01 0.  1.
         25    2    1    2    0    0  0.00000000000E+00  0.00000000000E+00 -0.12053356541E+03  0.17363922159E+03  0.12498895505E+03 0.  0.
    9000005    1    3    3    0    0  0.24671359488E+02  0.25790685014E+00  0.19488186688E+02  0.31456826212E+02  0.10000000000E+01 0.  0.
    9000005    1    3    3    0    0 -0.24671359488E+02 -0.25790685014E+00 -0.14002175209E+03  0.14218239537E+03  0.10000000000E+01 0.  0.
<mgrwt>
<rscale>  0 0.12498896E+03</rscale>
<asrwt>0</asrwt>
<pdfrwt beam="1">  1        4 0.40850506E-02 0.12498896E+03</pdfrwt>
<pdfrwt beam="2">  1       -4 0.22628675E-01 0.12498896E+03</pdfrwt>
<totfact> 0.94798147E+03</totfact>
</mgrwt>
</event>
<event>
 5    1  0.3272646E-002  0.1249921E+03  0.7818608E-02  0.1235082E+00
         -4   -1    0    0    0  501 -0.00000000000E+00  0.00000000000E+00  0.20703895253E+02  0.20742810288E+02  0.12700000000E+01 0.  1.
          4   -1    0    0  501    0  0.00000000000E+00 -0.00000000000E+00 -0.18843027376E+03  0.18843455355E+03  0.12700000000E+01 0.  1.
         25    2    1    2    0    0  0.00000000000E+00  0.00000000000E+00 -0.16772637851E+03  0.20917736384E+03  0.12499212572E+03 0.  0.
    9000005    1    3    3    0    0  0.44754072908E+02 -0.16220484403E+01 -0.15679506077E+03  0.16306823469E+03  0.10000000000E+01 0.  0.
    9000005    1    3    3    0    0 -0.44754072908E+02  0.16220484403E+01 -0.10931317741E+02  0.46109129145E+02  0.10000000000E+01 0.  0.
<mgrwt>
<rscale>  0 0.12499213E+03</rscale>
<asrwt>0</asrwt>
<pdfrwt beam="2">  1        4 0.28992594E-01 0.12499213E+03</pdfrwt>
<pdfrwt beam="1">  1       -4 0.31885375E-02 0.12499213E+03</pdfrwt>
<totfact> 0.88626007E+03</totfact>
</mgrwt>
</event>
<event>
 5    1  0.3272646E-002  0.1250010E+03  0.7818608E-02  0.1235068E+00
         -4   -1    0    0    0  501 -0.00000000000E+00  0.00000000000E+00  0.36415605249E+01  0.38566647582E+01  0.12700000000E+01 0.  1.
          4   -1    0    0  501    0  0.00000000000E+00 -0.00000000000E+00 -0.10417151630E+04  0.10417159372E+04  0.12700000000E+01 0.  1.
         25    2    1    2    0    0  0.00000000000E+00  0.00000000000E+00 -0.10380736025E+04  0.10455726019E+04  0.12500104686E+03 0.  0.
    9000005    1    3    3    0    0  0.50700221280E+02  0.16159366811E+02 -0.24495667709E+03  0.25067191950E+03  0.10000000000E+01 0.  0.
    9000005    1    3    3    0    0 -0.50700221280E+02 -0.16159366811E+02 -0.79311692538E+03  0.79490068241E+03  0.10000000000E+01 0.  0.
<mgrwt>
<rscale>  0 0.12500105E+03</rscale>
<asrwt>0</asrwt>
<pdfrwt beam="2">  1        4 0.16028025E+00 0.12500105E+03</pdfrwt>
<pdfrwt beam="1">  1       -4 0.57684694E-03 0.12500105E+03</pdfrwt>
<totfact> 0.29132792E+03</totfact>
</mgrwt>
</event>
<event>
 5    1  0.3272646E-002  0.1249994E+03  0.7818608E-02  0.1235070E+00
         -4   -1    0    0    0  501 -0.00000000000E+00  0.00000000000E+00  0.16016958433E+04  0.16016963468E+04  0.12700000000E+01 0. -1.
          4   -1    0    0  501    0  0.00000000000E+00 -0.00000000000E+00 -0.22729240371E+01  0.26036673517E+01  0.12700000000E+01 0. -1.
         25    2    1    2    0    0  0.00000000000E+00  0.00000000000E+00  0.15994229192E+04  0.16043000141E+04  0.12499944294E+03 0.  0.
    9000005    1    3    3    0    0  0.47600982347E+02  0.19874610652E+02  0.12524534703E+04  0.12535156755E+04  0.10000000000E+01 0.  0.
    9000005    1    3    3    0    0 -0.47600982347E+02 -0.19874610652E+02  0.34696944899E+03  0.35078433859E+03  0.10000000000E+01 0.  0.
<mgrwt>
<rscale>  0 0.12499944E+03</rscale>
<asrwt>0</asrwt>
<pdfrwt beam="2">  1        4 0.37516241E-03 0.12499944E+03</pdfrwt>
<pdfrwt beam="1">  1       -4 0.24643939E+00 0.12499944E+03</pdfrwt>
<totfact> 0.15968896E+03</totfact>
</mgrwt>
</event>
<event>
 5    1  0.3272646E-002  0.1250026E+03  0.7818608E-02  0.1235065E+00
         -4   -1    0    0    0  501 -0.00000000000E+00  0.00000000000E+00  0.95677620232E+01  0.96516822437E+01  0.12700000000E+01 0.  1.
          4   -1    0    0  501    0  0.00000000000E+00 -0.00000000000E+00 -0.40642122212E+03  0.40642320639E+03  0.12700000000E+01 0.  1.
         25    2    1    2    0    0  0.00000000000E+00  0.00000000000E+00 -0.39685346010E+03  0.41607488863E+03  0.12500257660E+03 0.  0.
    9000005    1    3    3    0    0 -0.26728764341E+02 -0.18016129212E+02 -0.20221195825E+02  0.38064478396E+02  0.10000000000E+01 0.  0.
    9000005    1    3    3    0    0  0.26728764341E+02  0.18016129212E+02 -0.37663226427E+03  0.37801041024E+03  0.10000000000E+01 0.  0.
<mgrwt>
<rscale>  0 0.12500258E+03</rscale>
<asrwt>0</asrwt>
<pdfrwt beam="2">  1        4 0.62532937E-01 0.12500258E+03</pdfrwt>
<pdfrwt beam="1">  1       -4 0.14785717E-02 0.12500258E+03</pdfrwt>
<totfact> 0.63015250E+03</totfact>
</mgrwt>
</event>
<event>
 5    1  0.3272646E-002  0.1250008E+03  0.7818608E-02  0.1235068E+00
         -4   -1    0    0    0  501 -0.00000000000E+00  0.00000000000E+00  0.11820307984E+02  0.11888338018E+02  0.12700000000E+01 0. -1.
          4   -1    0    0  501    0  0.00000000000E+00 -0.00000000000E+00 -0.32945618451E+03  0.32945863232E+03  0.12700000000E+01 0. -1.
         25    2    1    2    0    0  0.00000000000E+00  0.00000000000E+00 -0.31763587652E+03  0.34134697034E+03  0.12500081641E+03 0.  0.
    9000005    1    3    3    0    0 -0.42327807652E+02 -0.44607323419E+02 -0.18920728957E+03  0.19895189125E+03  0.10000000000E+01 0.  0.
    9000005    1    3    3    0    0  0.42327807652E+02  0.44607323419E+02 -0.12842858695E+03  0.14239507909E+03  0.10000000000E+01 0.  0.
<mgrwt>
<rscale>  0 0.12500082E+03</rscale>
<asrwt>0</asrwt>
<pdfrwt beam="2">  1        4 0.50690981E-01 0.12500082E+03</pdfrwt>
<pdfrwt beam="1">  1       -4 0.18239305E-02 0.12500082E+03</pdfrwt>
<totfact> 0.70685829E+03</totfact>
</mgrwt>
</event>
<event>
 5    1  0.3272646E-002  0.1250013E+03  0.7818608E-02  0.1235067E+00
         -4   -1    0    0    0  501 -0.00000000000E+00  0.00000000000E+00  0.73855180129E+02  0.73866098664E+02  0.12700000000E+01 0. -1.
          4   -1    0    0  501    0  0.00000000000E+00 -0.00000000000E+00 -0.52869320366E+02  0.52884571814E+02  0.12700000000E+01 0. -1.
         25    2    1    2    0    0  0.00000000000E+00  0.00000000000E+00  0.20985859763E+02  0.12675067048E+03  0.12500130462E+03 0.  0.
    9000005    1    3    3    0    0 -0.49556870142E+02  0.45001873916E+00 -0.28108795916E+02  0.56984123254E+02  0.10000000000E+01 0.  0.
    9000005    1    3    3    0    0  0.49556870142E+02 -0.45001873916E+00  0.49094655680E+02  0.69766547224E+02  0.10000000000E+01 0.  0.
<mgrwt>
<rscale>  0 0.12500130E+03</rscale>
<asrwt>0</asrwt>
<pdfrwt beam="2">  1        4 0.81357547E-02 0.12500130E+03</pdfrwt>
<pdfrwt beam="1">  1       -4 0.11364349E-01 0.12500130E+03</pdfrwt>
<totfact> 0.10414260E+04</totfact>
</mgrwt>
</event>
<event>
 5    1  0.3272646E-002  0.1250018E+03  0.7818608E-02  0.1235066E+00
         -4   -1    0    0    0  501 -0.00000000000E+00  0.00000000000E+00  0.24753015092E+03  0.24753340889E+03  0.12700000000E+01 0. -1.
          4   -1    0    0  501    0  0.00000000000E+00 -0.00000000000E+00 -0.15752453620E+02  0.15803565896E+02  0.12700000000E+01 0. -1.
         25    2    1    2    0    0  0.00000000000E+00  0.00000000000E+00  0.23177769730E+03  0.26333697478E+03  0.12500184527E+03 0.  0.
    9000005    1    3    3    0    0  0.68638894415E+01 -0.55767616988E+02  0.58263761224E+02  0.80949403672E+02  0.10000000000E+01 0.  0.
    9000005    1    3    3    0    0 -0.68638894415E+01  0.55767616988E+02  0.17351393608E+03  0.18238757111E+03  0.10000000000E+01 0.  0.
<mgrwt>
<rscale>  0 0.12500185E+03</rscale>
<asrwt>0</asrwt>
<pdfrwt beam="2">  1        4 0.24276367E-02 0.12500185E+03</pdfrwt>
<pdfrwt beam="1">  1       -4 0.38085744E-01 0.12500185E+03</pdfrwt>
<totfact> 0.80436729E+03</totfact>
</mgrwt>
</event>
<event>
 5    1  0.3272646E-002  0.1250025E+03  0.7818608E-02  0.1235065E+00
          4   -1    0    0  501    0  0.00000000000E+00  0.00000000000E+00  0.84125306912E+02  0.84134892661E+02  0.12700000000E+01 0.  1.
         -4   -1    0    0    0  501 -0.00000000000E+00 -0.00000000000E+00 -0.46414661764E+02  0.46432033411E+02  0.12700000000E+01 0.  1.
         25    2    1    2    0    0  0.00000000000E+00  0.00000000000E+00  0.37710645149E+02  0.13056692607E+03  0.12500251768E+03 0.  0.
    9000005    1    3    3    0    0 -0.36032273791E+01  0.53566051293E+02  0.52265127586E+02  0.74932961107E+02  0.10000000000E+01 0.  0.
    9000005    1    3    3    0    0  0.36032273791E+01 -0.53566051293E+02 -0.14554482438E+02  0.55633964965E+02  0.10000000000E+01 0.  0.
<mgrwt>
<rscale>  0 0.12500252E+03</rscale>
<asrwt>0</asrwt>
<pdfrwt beam="1">  1        4 0.12944428E-01 0.12500252E+03</pdfrwt>
<pdfrwt beam="2">  1       -4 0.71427909E-02 0.12500252E+03</pdfrwt>
<totfact> 0.10331796E+04</totfact>
</mgrwt>
</event>
<event>
 5    1  0.3272646E-002  0.1249916E+03  0.7818608E-02  0.1235082E+00
          4   -1    0    0  501    0  0.00000000000E+00  0.00000000000E+00  0.22901464815E+02  0.22936651689E+02  0.12700000000E+01 0. -1.
         -4   -1    0    0    0  501 -0.00000000000E+00 -0.00000000000E+00 -0.17037631709E+03  0.17038105037E+03  0.12700000000E+01 0. -1.
         25    2    1    2    0    0  0.00000000000E+00  0.00000000000E+00 -0.14747485228E+03  0.19331770206E+03  0.12499160722E+03 0.  0.
    9000005    1    3    3    0    0  0.30604616560E+02  0.52842917305E+02 -0.53235824948E+02  0.81018945451E+02  0.10000000000E+01 0.  0.
    9000005    1    3    3    0    0 -0.30604616560E+02 -0.52842917305E+02 -0.94239027328E+02  0.11229875661E+03  0.10000000000E+01 0.  0.
<mgrwt>
<rscale>  0 0.12499161E+03</rscale>
<asrwt>0</asrwt>
<pdfrwt beam="1">  1        4 0.35263732E-02 0.12499161E+03</pdfrwt>
<pdfrwt beam="2">  1       -4 0.26214811E-01 0.12499161E+03</pdfrwt>
<totfact> 0.91290385E+03</totfact>
</mgrwt>
</event>
<event>
 5    1  0.3272646E-002  0.1249974E+03  0.7818608E-02  0.1235073E+00
          4   -1    0    0  501    0  0.00000000000E+00  0.00000000000E+00  0.66388538226E+03  0.66388659700E+03  0.12700000000E+01 0. -1.
         -4   -1    0    0    0  501 -0.00000000000E+00 -0.00000000000E+00 -0.58139108441E+01  0.59510048986E+01  0.12700000000E+01 0. -1.
         25    2    1    2    0    0  0.00000000000E+00  0.00000000000E+00  0.65807147142E+03  0.66983760190E+03  0.12499740569E+03 0.  0.
    9000005    1    3    3    0    0 -0.34877682354E+01 -0.39188710514E+02  0.68861780148E+02  0.79314969106E+02  0.10000000000E+01 0.  0.
    9000005    1    3    3    0    0  0.34877682354E+01  0.39188710514E+02  0.58920969127E+03  0.59052263280E+03  0.10000000000E+01 0.  0.
<mgrwt>
<rscale>  0 0.12499741E+03</rscale>
<asrwt>0</asrwt>
<pdfrwt beam="1">  1        4 0.10214678E+00 0.12499741E+03</pdfrwt>
<pdfrwt beam="2">  1       -4 0.90508760E-03 0.12499741E+03</pdfrwt>
<totfact> 0.44730013E+03</totfact>
</mgrwt>
</event>
<event>
 5    1  0.3272646E-002  0.1250031E+03  0.7818608E-02  0.1235064E+00
          4   -1    0    0  501    0  0.00000000000E+00  0.00000000000E+00  0.10753905247E+02  0.10828636943E+02  0.12700000000E+01 0. -1.
         -4   -1    0    0    0  501 -0.00000000000E+00 -0.00000000000E+00 -0.36192441388E+03  0.36192664210E+03  0.12700000000E+01 0. -1.
         25    2    1    2    0    0  0.00000000000E+00  0.00000000000E+00 -0.35117050864E+03  0.37275527905E+03  0.12500308765E+03 0.  0.
    9000005    1    3    3    0    0  0.51792594081E+01  0.39505965420E+02 -0.31915076633E+03  0.32162984576E+03  0.10000000000E+01 0.  0.
    9000005    1    3    3    0    0 -0.51792594081E+01 -0.39505965420E+02 -0.32019742303E+02  0.51125433288E+02  0.10000000000E+01 0.  0.
<mgrwt>
<rscale>  0 0.12500309E+03</rscale>
<asrwt>0</asrwt>
<pdfrwt beam="1">  1        4 0.16603672E-02 0.12500309E+03</pdfrwt>
<pdfrwt beam="2">  1       -4 0.55686590E-01 0.12500309E+03</pdfrwt>
<totfact> 0.67287077E+03</totfact>
</mgrwt>
</event>
<event>
 5    1  0.3272646E-002  0.1249940E+03  0.7818608E-02  0.1235079E+00
         -4   -1    0    0    0  501 -0.00000000000E+00  0.00000000000E+00  0.32891568403E+03  0.32891813586E+03  0.12700000000E+01 0. -1.
          4   -1    0    0  501    0  0.00000000000E+00 -0.00000000000E+00 -0.11838536434E+02  0.11906462317E+02  0.12700000000E+01 0. -1.
         25    2    1    2    0    0  0.00000000000E+00  0.00000000000E+00  0.31707714759E+03  0.34082459818E+03  0.12499395665E+03 0.  0.
    9000005    1    3    3    0    0  0.89902759076E+01 -0.10188252099E+02  0.32485218327E+03  0.32513776544E+03  0.10000000000E+01 0.  0.
    9000005    1    3    3    0    0 -0.89902759076E+01  0.10188252099E+02 -0.77750356728E+01  0.15686832741E+02  0.10000000000E+01 0.  0.
<mgrwt>
<rscale>  0 0.12499396E+03</rscale>
<asrwt>0</asrwt>
<pdfrwt beam="2">  1        4 0.18267268E-02 0.12499396E+03</pdfrwt>
<pdfrwt beam="1">  1       -4 0.50607831E-01 0.12499396E+03</pdfrwt>
<totfact> 0.70755361E+03</totfact>
</mgrwt>
</event>
<event>
 5    1  0.3272646E-002  0.1249953E+03  0.7818608E-02  0.1235077E+00
         -4   -1    0    0    0  501 -0.00000000000E+00  0.00000000000E+00  0.77684937485E+02  0.77695317825E+02  0.12700000000E+01 0.  1.
          4   -1    0    0  501    0  0.00000000000E+00 -0.00000000000E+00 -0.50257672333E+02  0.50273716079E+02  0.12700000000E+01 0.  1.
         25    2    1    2    0    0  0.00000000000E+00  0.00000000000E+00  0.27427265151E+02  0.12796903390E+03  0.12499527497E+03 0.  0.
    9000005    1    3    3    0    0  0.46927200822E+02 -0.85625294102E+01 -0.27613495527E+02  0.55126982705E+02  0.10000000000E+01 0.  0.
    9000005    1    3    3    0    0 -0.46927200822E+02  0.85625294102E+01  0.55040760678E+02  0.72842051199E+02  0.10000000000E+01 0.  0.
<mgrwt>
<rscale>  0 0.12499527E+03</rscale>
<asrwt>0</asrwt>
<pdfrwt beam="2">  1        4 0.77339823E-02 0.12499527E+03</pdfrwt>
<pdfrwt beam="1">  1       -4 0.11953561E-01 0.12499527E+03</pdfrwt>
<totfact> 0.10389264E+04</totfact>
</mgrwt>
</event>
<event>
 5    1  0.3272646E-002  0.1249887E+03  0.7818608E-02  0.1235087E+00
         -4   -1    0    0    0  501 -0.00000000000E+00  0.00000000000E+00  0.10121215194E+03  0.10122011954E+03  0.12700000000E+01 0. -1.
          4   -1    0    0  501    0  0.00000000000E+00 -0.00000000000E+00 -0.38567761015E+02  0.38588665301E+02  0.12700000000E+01 0. -1.
         25    2    1    2    0    0  0.00000000000E+00  0.00000000000E+00  0.62644390923E+02  0.13980878484E+03  0.12498870591E+03 0.  0.
    9000005    1    3    3    0    0 -0.57774192604E+02 -0.14907776808E+02  0.52082018096E+02  0.79206286047E+02  0.10000000000E+01 0.  0.
    9000005    1    3    3    0    0  0.57774192604E+02  0.14907776808E+02  0.10562372827E+02  0.60602498795E+02  0.10000000000E+01 0.  0.
<mgrwt>
<rscale>  0 0.12498871E+03</rscale>
<asrwt>0</asrwt>
<pdfrwt beam="2">  1        4 0.59357226E-02 0.12498871E+03</pdfrwt>
<pdfrwt beam="1">  1       -4 0.15573321E-01 0.12498871E+03</pdfrwt>
<totfact> 0.10140130E+04</totfact>
</mgrwt>
</event>
<event>
 5    1  0.3272646E-002  0.1250051E+03  0.7818608E-02  0.1235061E+00
         -4   -1    0    0    0  501 -0.00000000000E+00  0.00000000000E+00  0.15673679968E+03  0.15674194484E+03  0.12700000000E+01 0. -1.
          4   -1    0    0  501    0  0.00000000000E+00 -0.00000000000E+00 -0.24902664031E+02  0.24935027087E+02  0.12700000000E+01 0. -1.
         25    2    1    2    0    0  0.00000000000E+00  0.00000000000E+00  0.13183413565E+03  0.18167697193E+03  0.12500513113E+03 0.  0.
    9000005    1    3    3    0    0 -0.25972181289E+02  0.14304818028E+02  0.14586999986E+03  0.14885643714E+03  0.10000000000E+01 0.  0.
    9000005    1    3    3    0    0  0.25972181289E+02 -0.14304818028E+02 -0.14035864211E+02  0.32820534789E+02  0.10000000000E+01 0.  0.
<mgrwt>
<rscale>  0 0.12500513E+03</rscale>
<asrwt>0</asrwt>
<pdfrwt beam="2">  1        4 0.38340643E-02 0.12500513E+03</pdfrwt>
<pdfrwt beam="1">  1       -4 0.24116239E-01 0.12500513E+03</pdfrwt>
<totfact> 0.93305277E+03</totfact>
</mgrwt>
</event>
<event>
 5    1  0.3272646E-002  0.1249980E+03  0.7818608E-02  0.1235072E+00
          4   -1    0    0  501    0  0.00000000000E+00  0.00000000000E+00  0.49495592113E+03  0.49495755046E+03  0.12700000000E+01 0. -1.
         -4   -1    0    0    0  501 -0.00000000000E+00 -0.00000000000E+00 -0.78391126763E+01  0.79413215243E+01  0.12700000000E+01 0. -1.
         25    2    1    2    0    0  0.00000000000E+00  0.00000000000E+00  0.48711680845E+03  0.50289887198E+03  0.12499796146E+03 0.  0.
    9000005    1    3    3    0    0  0.17950994385E+02  0.48473537692E+02  0.38484292525E+03  0.38830014058E+03  0.10000000000E+01 0.  0.
    9000005    1    3    3    0    0 -0.17950994385E+02 -0.48473537692E+02  0.10227388320E+03  0.11459873140E+03  0.10000000000E+01 0.  0.
<mgrwt>
<rscale>  0 0.12499796E+03</rscale>
<asrwt>0</asrwt>
<pdfrwt beam="1">  1        4 0.76155062E-01 0.12499796E+03</pdfrwt>
<pdfrwt beam="2">  1       -4 0.12140047E-02 0.12499796E+03</pdfrwt>
<totfact> 0.55642637E+03</totfact>
</mgrwt>
</event>
<event>
 5    1  0.3272646E-002  0.1250411E+03  0.7818608E-02  0.1235005E+00
          4   -1    0    0  501    0  0.00000000000E+00  0.00000000000E+00  0.27338848222E+02  0.27368330642E+02  0.12700000000E+01 0.  1.
         -4   -1    0    0    0  501 -0.00000000000E+00 -0.00000000000E+00 -0.14286739305E+03  0.14287303768E+03  0.12700000000E+01 0.  1.
         25    2    1    2    0    0  0.00000000000E+00  0.00000000000E+00 -0.11552854482E+03  0.17024136832E+03  0.12504110852E+03 0.  0.
    9000005    1    3    3    0    0  0.36959942661E+02 -0.50079544288E+02 -0.49846385803E+02  0.79747478300E+02  0.10000000000E+01 0.  0.
    9000005    1    3    3    0    0 -0.36959942661E+02  0.50079544288E+02 -0.65682159020E+02  0.90493890021E+02  0.10000000000E+01 0.  0.
<mgrwt>
<rscale>  0 0.12504111E+03</rscale>
<asrwt>0</asrwt>
<pdfrwt beam="1">  1        4 0.42086788E-02 0.12504111E+03</pdfrwt>
<pdfrwt beam="2">  1       -4 0.21982300E-01 0.12504111E+03</pdfrwt>
<totfact> 0.95315696E+03</totfact>
</mgrwt>
</event>
<event>
 5    1  0.3272646E-002  0.1249991E+03  0.7818608E-02  0.1235071E+00
          4   -1    0    0  501    0  0.00000000000E+00  0.00000000000E+00  0.24428532716E+02  0.24461523065E+02  0.12700000000E+01 0. -1.
         -4   -1    0    0    0  501 -0.00000000000E+00 -0.00000000000E+00 -0.15975954118E+03  0.15976458900E+03  0.12700000000E+01 0. -1.
         25    2    1    2    0    0  0.00000000000E+00  0.00000000000E+00 -0.13533100846E+03  0.18422611206E+03  0.12499911405E+03 0.  0.
    9000005    1    3    3    0    0 -0.20507278325E+02  0.48682383149E+02 -0.18459540033E+02  0.55966753627E+02  0.10000000000E+01 0.  0.
    9000005    1    3    3    0    0  0.20507278325E+02 -0.48682383149E+02 -0.11687146843E+03  0.12825935844E+03  0.10000000000E+01 0.  0.
<mgrwt>
<rscale>  0 0.12499911E+03</rscale>
<asrwt>0</asrwt>
<pdfrwt beam="1">  1        4 0.37611619E-02 0.12499911E+03</pdfrwt>
<pdfrwt beam="2">  1       -4 0.24581316E-01 0.12499911E+03</pdfrwt>
<totfact> 0.92863617E+03</totfact>
</mgrwt>
</event>
<event>
 5    1  0.3272646E-002  0.1250017E+03  0.7818608E-02  0.1235067E+00
          4   -1    0    0  501    0  0.00000000000E+00  0.00000000000E+00  0.41263156866E+03  0.41263352306E+03  0.12700000000E+01 0. -1.
         -4   -1    0    0    0  501 -0.00000000000E+00 -0.00000000000E+00 -0.94223509081E+01  0.95075547138E+01  0.12700000000E+01 0. -1.
         25    2    1    2    0    0  0.00000000000E+00  0.00000000000E+00  0.40320921775E+03  0.42214107778E+03  0.12500166505E+03 0.  0.
    9000005    1    3    3    0    0  0.20206348655E+02  0.55435701255E+02  0.13207107455E+03  0.14465539130E+03  0.10000000000E+01 0.  0.
    9000005    1    3    3    0    0 -0.20206348655E+02 -0.55435701255E+02  0.27113814321E+03  0.27748568648E+03  0.10000000000E+01 0.  0.
<mgrwt>
<rscale>  0 0.12500167E+03</rscale>
<asrwt>0</asrwt>
<pdfrwt beam="1">  1        4 0.63488480E-01 0.12500167E+03</pdfrwt>
<pdfrwt beam="2">  1       -4 0.14562970E-02 0.12500167E+03</pdfrwt>
<totfact> 0.62452579E+03</totfact>
</mgrwt>
</event>
<event>
 5    1  0.3272646E-002  0.1250000E+03  0.7818608E-02  0.1235069E+00
         -4   -1    0    0    0  501 -0.00000000000E+00  0.00000000000E+00  0.36298851600E+02  0.36321061762E+02  0.12700000000E+01 0.  1.
          4   -1    0    0  501    0  0.00000000000E+00 -0.00000000000E+00 -0.10755466705E+03  0.10756216484E+03  0.12700000000E+01 0.  1.
         25    2    1    2    0    0  0.00000000000E+00  0.00000000000E+00 -0.71255815451E+02  0.14388322660E+03  0.12499996664E+03 0.  0.
    9000005    1    3    3    0    0 -0.33816850582E+02  0.21229813165E+02 -0.90962513528E+02  0.99345172091E+02  0.10000000000E+01 0.  0.
    9000005    1    3    3    0    0  0.33816850582E+02 -0.21229813165E+02  0.19706698077E+02  0.44538054508E+02  0.10000000000E+01 0.  0.
<mgrwt>
<rscale>  0 0.12499997E+03</rscale>
<asrwt>0</asrwt>
<pdfrwt beam="2">  1        4 0.16549157E-01 0.12499997E+03</pdfrwt>
<pdfrwt beam="1">  1       -4 0.55867240E-02 0.12499997E+03</pdfrwt>
<totfact> 0.10053736E+04</totfact>
</mgrwt>
</event>
<event>
 5    1  0.3272646E-002  0.1250005E+03  0.7818608E-02  0.1235069E+00
          4   -1    0    0  501    0  0.00000000000E+00  0.00000000000E+00  0.95224200067E+01  0.96067363232E+01  0.12700000000E+01 0.  1.
         -4   -1    0    0    0  501 -0.00000000000E+00 -0.00000000000E+00 -0.40832588171E+03  0.40832785672E+03  0.12700000000E+01 0.  1.
         25    2    1    2    0    0  0.00000000000E+00  0.00000000000E+00 -0.39880346170E+03  0.41793459304E+03  0.12500049198E+03 0.  0.
    9000005    1    3    3    0    0  0.31388282047E+02  0.35060537813E+02 -0.33688335927E+03  0.34015564572E+03  0.10000000000E+01 0.  0.
    9000005    1    3    3    0    0 -0.31388282047E+02 -0.35060537813E+02 -0.61920102432E+02  0.77778947323E+02  0.10000000000E+01 0.  0.
<mgrwt>
<rscale>  0 0.12500049E+03</rscale>
<asrwt>0</asrwt>
<pdfrwt beam="1">  1        4 0.14716258E-02 0.12500049E+03</pdfrwt>
<pdfrwt beam="2">  1       -4 0.62825991E-01 0.12500049E+03</pdfrwt>
<totfact> 0.62844409E+03</totfact>
</mgrwt>
</event>
<event>
 5    1  0.3272646E-002  0.1249990E+03  0.7818608E-02  0.1235071E+00
          4   -1    0    0  501    0  0.00000000000E+00  0.00000000000E+00  0.76157665657E+02  0.76168254137E+02  0.12700000000E+01 0.  1.
         -4   -1    0    0    0  501 -0.00000000000E+00 -0.00000000000E+00 -0.51268781181E+02  0.51284508614E+02  0.12700000000E+01 0.  1.
         25    2    1    2    0    0  0.00000000000E+00  0.00000000000E+00  0.24888884476E+02  0.12745276275E+03  0.12499900065E+03 0.  0.
    9000005    1    3    3    0    0  0.29294355021E+02  0.24857455234E+02 -0.37809317475E+02  0.53912863073E+02  0.10000000000E+01 0.  0.
    9000005    1    3    3    0    0 -0.29294355021E+02 -0.24857455234E+02  0.62698201951E+02  0.73539899678E+02  0.10000000000E+01 0.  0.
<mgrwt>
<rscale>  0 0.12499900E+03</rscale>
<asrwt>0</asrwt>
<pdfrwt beam="1">  1        4 0.11718588E-01 0.12499900E+03</pdfrwt>
<pdfrwt beam="2">  1       -4 0.78895292E-02 0.12499900E+03</pdfrwt>
<totfact> 0.10399558E+04</totfact>
</mgrwt>
</event>
<event>
 5    1  0.3272646E-002  0.1249977E+03  0.7818608E-02  0.1235073E+00
          4   -1    0    0  501    0  0.00000000000E+00  0.00000000000E+00  0.33068773472E+02  0.33093151541E+02  0.12700000000E+01 0.  1.
         -4   -1    0    0    0  501 -0.00000000000E+00 -0.00000000000E+00 -0.11804939368E+03  0.11805622494E+03  0.12700000000E+01 0.  1.
         25    2    1    2    0    0  0.00000000000E+00  0.00000000000E+00 -0.84980620207E+02  0.15114937648E+03  0.12499771278E+03 0.  0.
    9000005    1    3    3    0    0  0.24555380616E+02 -0.10338937694E+02 -0.11084313867E+03  0.11400465666E+03  0.10000000000E+01 0.  0.
    9000005    1    3    3    0    0 -0.24555380616E+02  0.10338937694E+02  0.25862518461E+02  0.37144719827E+02  0.10000000000E+01 0.  0.
<mgrwt>
<rscale>  0 0.12499771E+03</rscale>
<asrwt>0</asrwt>
<pdfrwt beam="1">  1        4 0.50899044E-02 0.12499771E+03</pdfrwt>
<pdfrwt beam="2">  1       -4 0.18163846E-01 0.12499771E+03</pdfrwt>
<totfact> 0.99080179E+03</totfact>
</mgrwt>
</event>
<event>
 5    1  0.3272646E-002  0.1249981E+03  0.7818608E-02  0.1235072E+00
         -4   -1    0    0    0  501 -0.00000000000E+00  0.00000000000E+00  0.78724807020E+02  0.78735050265E+02  0.12700000000E+01 0.  1.
          4   -1    0    0  501    0  0.00000000000E+00 -0.00000000000E+00 -0.49595925102E+02  0.49612182846E+02  0.12700000000E+01 0.  1.
         25    2    1    2    0    0  0.00000000000E+00  0.00000000000E+00  0.29128881918E+02  0.12834723311E+03  0.12499808193E+03 0.  0.
    9000005    1    3    3    0    0  0.57844059297E+02 -0.23593210968E+02  0.16205808930E+02  0.64546131122E+02  0.10000000000E+01 0.  0.
    9000005    1    3    3    0    0 -0.57844059297E+02  0.23593210968E+02  0.12923072987E+02  0.63801101990E+02  0.10000000000E+01 0.  0.
<mgrwt>
<rscale>  0 0.12499808E+03</rscale>
<asrwt>0</asrwt>
<pdfrwt beam="2">  1        4 0.76321809E-02 0.12499808E+03</pdfrwt>
<pdfrwt beam="1">  1       -4 0.12113547E-01 0.12499808E+03</pdfrwt>
<totfact> 0.10380445E+04</totfact>
</mgrwt>
</event>
<event>
 5    1  0.3272646E-002  0.1250055E+03  0.7818608E-02  0.1235061E+00
          4   -1    0    0  501    0  0.00000000000E+00  0.00000000000E+00  0.21726699130E+03  0.21727070306E+03  0.12700000000E+01 0.  1.
         -4   -1    0    0    0  501 -0.00000000000E+00 -0.00000000000E+00 -0.17954308279E+02  0.17999169030E+02  0.12700000000E+01 0.  1.
         25    2    1    2    0    0  0.00000000000E+00  0.00000000000E+00  0.19931268302E+03  0.23526987209E+03  0.12500546828E+03 0.  0.
    9000005    1    3    3    0    0 -0.16154213254E+01  0.62326155161E+02  0.10773669343E+03  0.12448033706E+03  0.10000000000E+01 0.  0.
    9000005    1    3    3    0    0  0.16154213254E+01 -0.62326155161E+02  0.91575989598E+02  0.11078953504E+03  0.10000000000E+01 0.  0.
<mgrwt>
<rscale>  0 0.12500547E+03</rscale>
<asrwt>0</asrwt>
<pdfrwt beam="1">  1        4 0.33429427E-01 0.12500547E+03</pdfrwt>
<pdfrwt beam="2">  1       -4 0.27659377E-02 0.12500547E+03</pdfrwt>
<totfact> 0.84496612E+03</totfact>
</mgrwt>
</event>
<event>
 5    1  0.3272646E-002  0.1249998E+03  0.7818608E-02  0.1235070E+00
          4   -1    0    0  501    0  0.00000000000E+00  0.00000000000E+00  0.41463456126E+03  0.41463650623E+03  0.12700000000E+01 0. -1.
         -4   -1    0    0    0  501 -0.00000000000E+00 -0.00000000000E+00 -0.93761389358E+01  0.94617588927E+01  0.12700000000E+01 0. -1.
         25    2    1    2    0    0  0.00000000000E+00  0.00000000000E+00  0.40525842233E+03  0.42409826512E+03  0.12499979843E+03 0.  0.
    9000005    1    3    3    0    0  0.59736951473E+02 -0.10710757493E+02  0.15207619466E+03  0.16374184768E+03  0.10000000000E+01 0.  0.
    9000005    1    3    3    0    0 -0.59736951473E+02  0.10710757493E+02  0.25318222767E+03  0.26035641744E+03  0.10000000000E+01 0.  0.
<mgrwt>
<rscale>  0 0.12499980E+03</rscale>
<asrwt>0</asrwt>
<pdfrwt beam="1">  1        4 0.63796636E-01 0.12499980E+03</pdfrwt>
<pdfrwt beam="2">  1       -4 0.14492194E-02 0.12499980E+03</pdfrwt>
<totfact> 0.62274909E+03</totfact>
</mgrwt>
</event>
<event>
 5    1  0.3272646E-002  0.1250027E+03  0.7818608E-02  0.1235065E+00
          4   -1    0    0  501    0  0.00000000000E+00  0.00000000000E+00  0.11319745056E+02  0.11390765037E+02  0.12700000000E+01 0.  1.
         -4   -1    0    0    0  501 -0.00000000000E+00 -0.00000000000E+00 -0.34394622297E+03  0.34394856766E+03  0.12700000000E+01 0.  1.
         25    2    1    2    0    0  0.00000000000E+00  0.00000000000E+00 -0.33262647791E+03  0.35533933270E+03  0.12500267018E+03 0.  0.
    9000005    1    3    3    0    0 -0.58156271083E+02 -0.19820290417E+02 -0.13384954485E+03  0.14728101179E+03  0.10000000000E+01 0.  0.
    9000005    1    3    3    0    0  0.58156271083E+02  0.19820290417E+02 -0.19877693306E+03  0.20805832090E+03  0.10000000000E+01 0.  0.
<mgrwt>
<rscale>  0 0.12500267E+03</rscale>
<asrwt>0</asrwt>
<pdfrwt beam="1">  1        4 0.17471429E-02 0.12500267E+03</pdfrwt>
<pdfrwt beam="2">  1       -4 0.52920439E-01 0.12500267E+03</pdfrwt>
<totfact> 0.69137050E+03</totfact>
</mgrwt>
</event>
<event>
 5    1  0.3272646E-002  0.1249997E+03  0.7818608E-02  0.1235070E+00
         -4   -1    0    0    0  501 -0.00000000000E+00  0.00000000000E+00  0.77834543965E+01  0.78863846179E+01  0.12700000000E+01 0. -1.
          4   -1    0    0  501    0  0.00000000000E+00 -0.00000000000E+00 -0.49846313148E+03  0.49846474935E+03  0.12700000000E+01 0. -1.
         25    2    1    2    0    0  0.00000000000E+00  0.00000000000E+00 -0.49067967708E+03  0.50635113397E+03  0.12499970147E+03 0.  0.
    9000005    1    3    3    0    0 -0.47019582072E+02 -0.18039620281E+02 -0.95461606276E+02  0.10793603324E+03  0.10000000000E+01 0.  0.
    9000005    1    3    3    0    0  0.47019582072E+02  0.18039620281E+02 -0.39521807081E+03  0.39841510073E+03  0.10000000000E+01 0.  0.
<mgrwt>
<rscale>  0 0.12499970E+03</rscale>
<asrwt>0</asrwt>
<pdfrwt beam="2">  1        4 0.76694653E-01 0.12499970E+03</pdfrwt>
<pdfrwt beam="1">  1       -4 0.12054971E-02 0.12499970E+03</pdfrwt>
<totfact> 0.55375316E+03</totfact>
</mgrwt>
</event>
<event>
 5    1  0.3272646E-002  0.1249972E+03  0.7818608E-02  0.1235074E+00
         -4   -1    0    0    0  501 -0.00000000000E+00  0.00000000000E+00  0.38635109891E+03  0.38635318626E+03  0.12700000000E+01 0. -1.
          4   -1    0    0  501    0  0.00000000000E+00 -0.00000000000E+00 -0.10068155156E+02  0.10147938128E+02  0.12700000000E+01 0. -1.
         25    2    1    2    0    0  0.00000000000E+00  0.00000000000E+00  0.37628294376E+03  0.39650112439E+03  0.12499715148E+03 0.  0.
    9000005    1    3    3    0    0  0.29091642565E+02  0.48865431200E+02  0.10597795729E+03  0.12027668713E+03  0.10000000000E+01 0.  0.
    9000005    1    3    3    0    0 -0.29091642565E+02 -0.48865431200E+02  0.27030498646E+03  0.27622443726E+03  0.10000000000E+01 0.  0.
<mgrwt>
<rscale>  0 0.12499715E+03</rscale>
<asrwt>0</asrwt>
<pdfrwt beam="2">  1        4 0.15552448E-02 0.12499715E+03</pdfrwt>
<pdfrwt beam="1">  1       -4 0.59444921E-01 0.12499715E+03</pdfrwt>
<totfact> 0.64898598E+03</totfact>
</mgrwt>
</event>
<event>
 4    1  0.3272646E-002  0.1254439E+03  0.7818608E-02  0.1234377E+00
          4   -1    0    0  501    0  0.00000000000E+00  0.00000000000E+00  0.17043283458E+03  0.17043756629E+03  0.12700000000E+01 0.  1.
         -4   -1    0    0    0  501 -0.00000000000E+00 -0.00000000000E+00 -0.23060129644E+02  0.23095074782E+02  0.12700000000E+01 0.  1.
    9000005    1    1    2    0    0 -0.31002272744E+02  0.31479130715E+01  0.15765103626E+03  0.16070438546E+03  0.10000000000E+01 0.  0.
    9000005    1    1    2    0    0  0.31002272744E+02 -0.31479130715E+01 -0.10278331321E+02  0.32828255615E+02  0.10000000000E+01 0.  0.
<mgrwt>
<rscale>  0 0.12544389E+03</rscale>
<asrwt>0</asrwt>
<pdfrwt beam="1">  1        4 0.26223488E-01 0.12544389E+03</pdfrwt>
<pdfrwt beam="2">  1       -4 0.35507643E-02 0.12544389E+03</pdfrwt>
<totfact> 0.90335295E+03</totfact>
</mgrwt>
</event>
<event>
 5    1  0.3272646E-002  0.1249996E+03  0.7818608E-02  0.1235070E+00
          4   -1    0    0  501    0  0.00000000000E+00  0.00000000000E+00  0.32298478998E+02  0.32323438022E+02  0.12700000000E+01 0.  1.
         -4   -1    0    0    0  501 -0.00000000000E+00 -0.00000000000E+00 -0.12086653240E+03  0.12087320445E+03  0.12700000000E+01 0.  1.
         25    2    1    2    0    0  0.00000000000E+00  0.00000000000E+00 -0.88568053403E+02  0.15319664247E+03  0.12499964473E+03 0.  0.
    9000005    1    3    3    0    0  0.17077909391E+02 -0.47880734782E+02 -0.88828435521E+02  0.10235091944E+03  0.10000000000E+01 0.  0.
    9000005    1    3    3    0    0 -0.17077909391E+02  0.47880734782E+02  0.26038211810E+00  0.50845723038E+02  0.10000000000E+01 0.  0.
<mgrwt>
<rscale>  0 0.12499964E+03</rscale>
<asrwt>0</asrwt>
<pdfrwt beam="1">  1        4 0.49714300E-02 0.12499964E+03</pdfrwt>
<pdfrwt beam="2">  1       -4 0.18597284E-01 0.12499964E+03</pdfrwt>
<totfact> 0.98671058E+03</totfact>
</mgrwt>
</event>
<event>
 5    1  0.3272646E-002  0.1250008E+03  0.7818608E-02  0.1235068E+00
         -4   -1    0    0    0  501 -0.00000000000E+00  0.00000000000E+00  0.16808191916E+03  0.16808671705E+03  0.12700000000E+01 0.  1.
          4   -1    0    0  501    0  0.00000000000E+00 -0.00000000000E+00 -0.23217963481E+02  0.23252671421E+02  0.12700000000E+01 0.  1.
         25    2    1    2    0    0  0.00000000000E+00  0.00000000000E+00  0.14486395568E+03  0.19133938847E+03  0.12500078370E+03 0.  0.
    9000005    1    3    3    0    0  0.27987200945E+02  0.55871946886E+02  0.73325988102E+02  0.96346553632E+02  0.10000000000E+01 0.  0.
    9000005    1    3    3    0    0 -0.27987200945E+02 -0.55871946886E+02  0.71537967578E+02  0.94992834840E+02  0.10000000000E+01 0.  0.
<mgrwt>
<rscale>  0 0.12500078E+03</rscale>
<asrwt>0</asrwt>
<pdfrwt beam="2">  1        4 0.35750335E-02 0.12500078E+03</pdfrwt>
<pdfrwt beam="1">  1       -4 0.25861794E-01 0.12500078E+03</pdfrwt>
<totfact> 0.91613179E+03</totfact>
</mgrwt>
</event>
<event>
 5    1  0.3272646E-002  0.1250012E+03  0.7818608E-02  0.1235067E+00
          4   -1    0    0  501    0  0.00000000000E+00  0.00000000000E+00  0.27630458786E+02  0.27659630379E+02  0.12700000000E+01 0. -1.
         -4   -1    0    0    0  501 -0.00000000000E+00 -0.00000000000E+00 -0.14127096837E+03  0.14127667679E+03  0.12700000000E+01 0. -1.
         25    2    1    2    0    0  0.00000000000E+00  0.00000000000E+00 -0.11364050958E+03  0.16893630717E+03  0.12500124184E+03 0.  0.
    9000005    1    3    3    0    0 -0.39202358963E+02 -0.36463284312E+02 -0.10038168594E+03  0.11377116912E+03  0.10000000000E+01 0.  0.
    9000005    1    3    3    0    0  0.39202358963E+02  0.36463284312E+02 -0.13258823644E+02  0.55165138045E+02  0.10000000000E+01 0.  0.
<mgrwt>
<rscale>  0 0.12500124E+03</rscale>
<asrwt>0</asrwt>
<pdfrwt beam="1">  1        4 0.42535229E-02 0.12500124E+03</pdfrwt>
<pdfrwt beam="2">  1       -4 0.21736678E-01 0.12500124E+03</pdfrwt>
<totfact> 0.95644401E+03</totfact>
</mgrwt>
</event>
<event>
 5    1  0.3272646E-002  0.1249989E+03  0.7818608E-02  0.1235071E+00
         -4   -1    0    0    0  501 -0.00000000000E+00  0.00000000000E+00  0.72324347251E+02  0.72335496855E+02  0.12700000000E+01 0.  1.
          4   -1    0    0  501    0  0.00000000000E+00 -0.00000000000E+00 -0.53986443197E+02  0.54001379140E+02  0.12700000000E+01 0.  1.
         25    2    1    2    0    0  0.00000000000E+00  0.00000000000E+00  0.18337904054E+02  0.12633687599E+03  0.12499891004E+03 0.  0.
    9000005    1    3    3    0    0  0.26483253717E+02 -0.52027458306E+02 -0.13362325581E+02  0.59898004058E+02  0.10000000000E+01 0.  0.
    9000005    1    3    3    0    0 -0.26483253717E+02  0.52027458306E+02  0.31700229635E+02  0.66438871936E+02  0.10000000000E+01 0.  0.
<mgrwt>
<rscale>  0 0.12499891E+03</rscale>
<asrwt>0</asrwt>
<pdfrwt beam="2">  1        4 0.83076133E-02 0.12499891E+03</pdfrwt>
<pdfrwt beam="1">  1       -4 0.11128829E-01 0.12499891E+03</pdfrwt>
<totfact> 0.10423844E+04</totfact>
</mgrwt>
</event>
<event>
 5    1  0.3272646E-002  0.1249991E+03  0.7818608E-02  0.1235071E+00
          4   -1    0    0  501    0  0.00000000000E+00  0.00000000000E+00  0.14136495644E+03  0.14137066106E+03  0.12700000000E+01 0.  1.
         -4   -1    0    0    0  501 -0.00000000000E+00 -0.00000000000E+00 -0.27611140837E+02  0.27640332819E+02  0.12700000000E+01 0.  1.
         25    2    1    2    0    0  0.00000000000E+00  0.00000000000E+00  0.11375381560E+03  0.16901099388E+03  0.12499914195E+03 0.  0.
    9000005    1    3    3    0    0 -0.15134414274E+02  0.15480242308E+02  0.13613919530E+03  0.13785343265E+03  0.10000000000E+01 0.  0.
    9000005    1    3    3    0    0  0.15134414274E+02 -0.15480242308E+02 -0.22385379699E+02  0.31157561227E+02  0.10000000000E+01 0.  0.
<mgrwt>
<rscale>  0 0.12499914E+03</rscale>
<asrwt>0</asrwt>
<pdfrwt beam="1">  1        4 0.21751140E-01 0.12499914E+03</pdfrwt>
<pdfrwt beam="2">  1       -4 0.42505521E-02 0.12499914E+03</pdfrwt>
<totfact> 0.95634962E+03</totfact>
</mgrwt>
</event>
<event>
 5    1  0.3272646E-002  0.1249980E+03  0.7818608E-02  0.1235072E+00
          4   -1    0    0  501    0  0.00000000000E+00  0.00000000000E+00  0.20353169808E+03  0.20353566032E+03  0.12700000000E+01 0. -1.
         -4   -1    0    0    0  501 -0.00000000000E+00 -0.00000000000E+00 -0.19166551517E+02  0.19208581339E+02  0.12700000000E+01 0. -1.
         25    2    1    2    0    0  0.00000000000E+00  0.00000000000E+00  0.18436514656E+03  0.22274424166E+03  0.12499795969E+03 0.  0.
    9000005    1    3    3    0    0  0.31410771543E+02  0.46256949013E+02  0.42453413878E+02  0.70211354145E+02  0.10000000000E+01 0.  0.
    9000005    1    3    3    0    0 -0.31410771543E+02 -0.46256949013E+02  0.14191173268E+03  0.15253288752E+03  0.10000000000E+01 0.  0.
<mgrwt>
<rscale>  0 0.12499796E+03</rscale>
<asrwt>0</asrwt>
<pdfrwt beam="1">  1        4 0.31316105E-01 0.12499796E+03</pdfrwt>
<pdfrwt beam="2">  1       -4 0.29522383E-02 0.12499796E+03</pdfrwt>
<totfact> 0.86439903E+03</totfact>
</mgrwt>
</event>
<event>
 5    1  0.3272646E-002  0.1250186E+03  0.7818608E-02  0.1235040E+00
         -4   -1    0    0    0  501 -0.00000000000E+00  0.00000000000E+00  0.16559772668E+02  0.16608400609E+02  0.12700000000E+01 0. -1.
          4   -1    0    0  501    0  0.00000000000E+00 -0.00000000000E+00 -0.23556198922E+03  0.23556541271E+03  0.12700000000E+01 0. -1.
         25    2    1    2    0    0  0.00000000000E+00  0.00000000000E+00 -0.21900221655E+03  0.25217381332E+03  0.12501864369E+03 0.  0.
    9000005    1    3    3    0    0 -0.36039218339E+02  0.43732143299E+02 -0.56321439290E+02  0.79902629116E+02  0.10000000000E+01 0.  0.
    9000005    1    3    3    0    0  0.36039218339E+02 -0.43732143299E+02 -0.16268077727E+03  0.17227118421E+03  0.10000000000E+01 0.  0.
<mgrwt>
<rscale>  0 0.12501864E+03</rscale>
<asrwt>0</asrwt>
<pdfrwt beam="2">  1        4 0.36244308E-01 0.12501864E+03</pdfrwt>
<pdfrwt beam="1">  1       -4 0.25516615E-02 0.12501864E+03</pdfrwt>
<totfact> 0.81983009E+03</totfact>
</mgrwt>
</event>
<event>
 5    1  0.3272646E-002  0.1250021E+03  0.7818608E-02  0.1235066E+00
         -4   -1    0    0    0  501 -0.00000000000E+00  0.00000000000E+00  0.34628911569E+02  0.34652192087E+02  0.12700000000E+01 0. -1.
          4   -1    0    0  501    0  0.00000000000E+00 -0.00000000000E+00 -0.11274213971E+03  0.11274929254E+03  0.12700000000E+01 0. -1.
         25    2    1    2    0    0  0.00000000000E+00  0.00000000000E+00 -0.78113228145E+02  0.14740148462E+03  0.12500208501E+03 0.  0.
    9000005    1    3    3    0    0  0.41510714960E+02  0.42142237216E+02 -0.15288571257E+02  0.61105220932E+02  0.10000000000E+01 0.  0.
    9000005    1    3    3    0    0 -0.41510714960E+02 -0.42142237216E+02 -0.62824656887E+02  0.86296263691E+02  0.10000000000E+01 0.  0.
<mgrwt>
<rscale>  0 0.12500209E+03</rscale>
<asrwt>0</asrwt>
<pdfrwt beam="2">  1        4 0.17347285E-01 0.12500209E+03</pdfrwt>
<pdfrwt beam="1">  1       -4 0.53298659E-02 0.12500209E+03</pdfrwt>
<totfact> 0.99819532E+03</totfact>
</mgrwt>
</event>
<event>
 5    1  0.3272646E-002  0.1249979E+03  0.7818608E-02  0.1235073E+00
         -4   -1    0    0    0  501 -0.00000000000E+00  0.00000000000E+00  0.11757054219E+04  0.11757061078E+04  0.12700000000E+01 0.  1.
          4   -1    0    0  501    0  0.00000000000E+00 -0.00000000000E+00 -0.32002812108E+01  0.34430654696E+01  0.12700000000E+01 0.  1.
         25    2    1    2    0    0  0.00000000000E+00  0.00000000000E+00  0.11725051406E+04  0.11791491733E+04  0.12499787177E+03 0.  0.
    9000005    1    3    3    0    0  0.26232453282E+02  0.57400067617E+01  0.53954917640E+02  0.60276217701E+02  0.10000000000E+01 0.  0.
    9000005    1    3    3    0    0 -0.26232453282E+02 -0.57400067617E+01  0.11185502230E+04  0.11188729556E+04  0.10000000000E+01 0.  0.
<mgrwt>
<rscale>  0 0.12499787E+03</rscale>
<asrwt>0</asrwt>
<pdfrwt beam="2">  1        4 0.51107916E-03 0.12499787E+03</pdfrwt>
<pdfrwt beam="1">  1       -4 0.18089658E+00 0.12499787E+03</pdfrwt>
<totfact> 0.25266290E+03</totfact>
</mgrwt>
</event>
<event>
 5    1  0.3272646E-002  0.1249999E+03  0.7818608E-02  0.1235069E+00
          4   -1    0    0  501    0  0.00000000000E+00  0.00000000000E+00  0.55834227072E+02  0.55848668854E+02  0.12700000000E+01 0. -1.
         -4   -1    0    0    0  501 -0.00000000000E+00 -0.00000000000E+00 -0.69932217146E+02  0.69943748076E+02  0.12700000000E+01 0. -1.
         25    2    1    2    0    0  0.00000000000E+00  0.00000000000E+00 -0.14097990074E+02  0.12579241693E+03  0.12499991533E+03 0.  0.
    9000005    1    3    3    0    0 -0.44876412814E+02 -0.45273506201E+01 -0.50576607976E+02  0.67774498191E+02  0.10000000000E+01 0.  0.
    9000005    1    3    3    0    0  0.44876412814E+02  0.45273506201E+01  0.36478617902E+02  0.58017918739E+02  0.10000000000E+01 0.  0.
<mgrwt>
<rscale>  0 0.12499992E+03</rscale>
<asrwt>0</asrwt>
<pdfrwt beam="1">  1        4 0.85918790E-02 0.12499992E+03</pdfrwt>
<pdfrwt beam="2">  1       -4 0.10760801E-01 0.12499992E+03</pdfrwt>
<totfact> 0.10435532E+04</totfact>
</mgrwt>
</event>
<event>
 5    1  0.3272646E-002  0.1250076E+03  0.7818608E-02  0.1235057E+00
          4   -1    0    0  501    0  0.00000000000E+00  0.00000000000E+00  0.33434692732E+03  0.33434933932E+03  0.12700000000E+01 0. -1.
         -4   -1    0    0    0  501 -0.00000000000E+00 -0.00000000000E+00 -0.11647670591E+02  0.11716703043E+02  0.12700000000E+01 0. -1.
         25    2    1    2    0    0  0.00000000000E+00  0.00000000000E+00  0.32269925673E+03  0.34606604237E+03  0.12500758132E+03 0.  0.
    9000005    1    3    3    0    0  0.50395775085E+02  0.15521051278E+02  0.25420683675E+03  0.25962040179E+03  0.10000000000E+01 0.  0.
    9000005    1    3    3    0    0 -0.50395775085E+02 -0.15521051278E+02  0.68492419978E+02  0.86445640571E+02  0.10000000000E+01 0.  0.
<mgrwt>
<rscale>  0 0.12500758E+03</rscale>
<asrwt>0</asrwt>
<pdfrwt beam="1">  1        4 0.51443487E-01 0.12500758E+03</pdfrwt>
<pdfrwt beam="2">  1       -4 0.17974450E-02 0.12500758E+03</pdfrwt>
<totfact> 0.70147743E+03</totfact>
</mgrwt>
</event>
<event>
 5    1  0.3272646E-002  0.1250005E+03  0.7818608E-02  0.1235068E+00
         -4   -1    0    0    0  501 -0.00000000000E+00  0.00000000000E+00  0.20543737544E+02  0.20582955383E+02  0.12700000000E+01 0. -1.
          4   -1    0    0  501    0  0.00000000000E+00 -0.00000000000E+00 -0.18992204888E+03  0.18992629505E+03  0.12700000000E+01 0. -1.
         25    2    1    2    0    0  0.00000000000E+00  0.00000000000E+00 -0.16937831134E+03  0.21050925043E+03  0.12500052866E+03 0.  0.
    9000005    1    3    3    0    0 -0.24033210212E+02 -0.33168264463E+02 -0.52062997558E+01  0.41301749572E+02  0.10000000000E+01 0.  0.
    9000005    1    3    3    0    0  0.24033210212E+02  0.33168264463E+02 -0.16417201158E+03  0.16920750086E+03  0.10000000000E+01 0.  0.
<mgrwt>
<rscale>  0 0.12500053E+03</rscale>
<asrwt>0</asrwt>
<pdfrwt beam="2">  1        4 0.29222119E-01 0.12500053E+03</pdfrwt>
<pdfrwt beam="1">  1       -4 0.31639185E-02 0.12500053E+03</pdfrwt>
<totfact> 0.88391737E+03</totfact>
</mgrwt>
</event>
<event>
 5    1  0.3272646E-002  0.1250007E+03  0.7818608E-02  0.1235068E+00
         -4   -1    0    0    0  501 -0.00000000000E+00  0.00000000000E+00  0.24474173056E+02  0.24507101966E+02  0.12700000000E+01 0.  1.
          4   -1    0    0  501    0  0.00000000000E+00 -0.00000000000E+00 -0.15946609479E+03  0.15947115190E+03  0.12700000000E+01 0.  1.
         25    2    1    2    0    0  0.00000000000E+00  0.00000000000E+00 -0.13499192174E+03  0.18397825387E+03  0.12500071585E+03 0.  0.
    9000005    1    3    3    0    0 -0.16430090718E+02  0.28599459924E+02  0.10627165697E+02  0.34667183902E+02  0.10000000000E+01 0.  0.
    9000005    1    3    3    0    0  0.16430090718E+02 -0.28599459924E+02 -0.14561908743E+03  0.14931106996E+03  0.10000000000E+01 0.  0.
<mgrwt>
<rscale>  0 0.12500072E+03</rscale>
<asrwt>0</asrwt>
<pdfrwt beam="2">  1        4 0.24536167E-01 0.12500072E+03</pdfrwt>
<pdfrwt beam="1">  1       -4 0.37681795E-02 0.12500072E+03</pdfrwt>
<totfact> 0.92904276E+03</totfact>
</mgrwt>
</event>
<event>
 5    1  0.3272646E-002  0.1249912E+03  0.7818608E-02  0.1235083E+00
         -4   -1    0    0    0  501 -0.00000000000E+00  0.00000000000E+00  0.48099606484E+03  0.48099774146E+03  0.12700000000E+01 0. -1.
          4   -1    0    0  501    0  0.00000000000E+00 -0.00000000000E+00 -0.80686666094E+01  0.81680034803E+01  0.12700000000E+01 0. -1.
         25    2    1    2    0    0  0.00000000000E+00  0.00000000000E+00  0.47292739823E+03  0.48916574494E+03  0.12499120780E+03 0.  0.
    9000005    1    3    3    0    0 -0.17777083116E+02 -0.72808292733E+01  0.46917214631E+03  0.46956632975E+03  0.10000000000E+01 0.  0.
    9000005    1    3    3    0    0  0.17777083116E+02  0.72808292733E+01  0.37552519209E+01  0.19599415196E+02  0.10000000000E+01 0.  0.
<mgrwt>
<rscale>  0 0.12499121E+03</rscale>
<asrwt>0</asrwt>
<pdfrwt beam="2">  1        4 0.12491036E-02 0.12499121E+03</pdfrwt>
<pdfrwt beam="1">  1       -4 0.74007164E-01 0.12499121E+03</pdfrwt>
<totfact> 0.56725848E+03</totfact>
</mgrwt>
</event>
<event>
 5    1  0.3272646E-002  0.1250029E+03  0.7818608E-02  0.1235065E+00
          4   -1    0    0  501    0  0.00000000000E+00  0.00000000000E+00  0.37847896487E+03  0.37848109563E+03  0.12700000000E+01 0. -1.
         -4   -1    0    0    0  501 -0.00000000000E+00 -0.00000000000E+00 -0.10280163264E+02  0.10358313412E+02  0.12700000000E+01 0. -1.
         25    2    1    2    0    0  0.00000000000E+00  0.00000000000E+00  0.36819880160E+03  0.38883940904E+03  0.12500291404E+03 0.  0.
    9000005    1    3    3    0    0  0.90756043341E+01  0.18372882734E+02  0.45281876107E+00  0.20521560828E+02  0.10000000000E+01 0.  0.
    9000005    1    3    3    0    0 -0.90756043341E+01 -0.18372882734E+02  0.36774598284E+03  0.36831784821E+03  0.10000000000E+01 0.  0.
<mgrwt>
<rscale>  0 0.12500291E+03</rscale>
<asrwt>0</asrwt>
<pdfrwt beam="1">  1        4 0.58233703E-01 0.12500291E+03</pdfrwt>
<pdfrwt beam="2">  1       -4 0.15877392E-02 0.12500291E+03</pdfrwt>
<totfact> 0.65648700E+03</totfact>
</mgrwt>
</event>
<event>
 5    1  0.3272646E-002  0.1249977E+03  0.7818608E-02  0.1235073E+00
          4   -1    0    0  501    0  0.00000000000E+00  0.00000000000E+00  0.75973971527E+02  0.75984585605E+02  0.12700000000E+01 0. -1.
         -4   -1    0    0    0  501 -0.00000000000E+00 -0.00000000000E+00 -0.51391667911E+02  0.51407357748E+02  0.12700000000E+01 0. -1.
         25    2    1    2    0    0  0.00000000000E+00  0.00000000000E+00  0.24582303616E+02  0.12739194335E+03  0.12499767030E+03 0.  0.
    9000005    1    3    3    0    0 -0.17308169780E+02  0.33912376631E+02 -0.38210833800E+02  0.53950809536E+02  0.10000000000E+01 0.  0.
    9000005    1    3    3    0    0  0.17308169780E+02 -0.33912376631E+02  0.62793137416E+02  0.73441133818E+02  0.10000000000E+01 0.  0.
<mgrwt>
<rscale>  0 0.12499767E+03</rscale>
<asrwt>0</asrwt>
<pdfrwt beam="1">  1        4 0.11690327E-01 0.12499767E+03</pdfrwt>
<pdfrwt beam="2">  1       -4 0.79084339E-02 0.12499767E+03</pdfrwt>
<totfact> 0.10401188E+04</totfact>
</mgrwt>
</event>
<event>
 5    1  0.3272646E-002  0.1249974E+03  0.7818608E-02  0.1235073E+00
          4   -1    0    0  501    0  0.00000000000E+00  0.00000000000E+00  0.57694870521E+02  0.57708846674E+02  0.12700000000E+01 0.  1.
         -4   -1    0    0    0  501 -0.00000000000E+00 -0.00000000000E+00 -0.67674422374E+02  0.67686337940E+02  0.12700000000E+01 0.  1.
         25    2    1    2    0    0  0.00000000000E+00  0.00000000000E+00 -0.99795518533E+01  0.12539518461E+03  0.12499744345E+03 0.  0.
    9000005    1    3    3    0    0  0.53894864457E+02 -0.23041115485E+02 -0.26727616348E+02  0.64427594191E+02  0.10000000000E+01 0.  0.
    9000005    1    3    3    0    0 -0.53894864457E+02  0.23041115485E+02  0.16748064495E+02  0.60967590423E+02  0.10000000000E+01 0.  0.
<mgrwt>
<rscale>  0 0.12499744E+03</rscale>
<asrwt>0</asrwt>
<pdfrwt beam="1">  1        4 0.88781257E-02 0.12499744E+03</pdfrwt>
<pdfrwt beam="2">  1       -4 0.10413441E-01 0.12499744E+03</pdfrwt>
<totfact> 0.10444876E+04</totfact>
</mgrwt>
</event>
<event>
 5    1  0.3272646E-002  0.1249994E+03  0.7818608E-02  0.1235070E+00
         -4   -1    0    0    0  501 -0.00000000000E+00  0.00000000000E+00  0.13324394652E+03  0.13324999881E+03  0.12700000000E+01 0. -1.
          4   -1    0    0  501    0  0.00000000000E+00 -0.00000000000E+00 -0.29295780511E+02  0.29323295445E+02  0.12700000000E+01 0. -1.
         25    2    1    2    0    0  0.00000000000E+00  0.00000000000E+00  0.10394816601E+03  0.16257329426E+03  0.12499941916E+03 0.  0.
    9000005    1    3    3    0    0 -0.58801910941E+02 -0.13859527065E+02  0.72761703049E+02  0.94578098159E+02  0.10000000000E+01 0.  0.
    9000005    1    3    3    0    0  0.58801910941E+02  0.13859527065E+02  0.31186462959E+02  0.67995196100E+02  0.10000000000E+01 0.  0.
<mgrwt>
<rscale>  0 0.12499942E+03</rscale>
<asrwt>0</asrwt>
<pdfrwt beam="2">  1        4 0.45096253E-02 0.12499942E+03</pdfrwt>
<pdfrwt beam="1">  1       -4 0.20501651E-01 0.12499942E+03</pdfrwt>
<totfact> 0.96850220E+03</totfact>
</mgrwt>
</event>
<event>
 5    1  0.3272646E-002  0.1250043E+03  0.7818608E-02  0.1235063E+00
          4   -1    0    0  501    0  0.00000000000E+00  0.00000000000E+00  0.30517570268E+02  0.30543984597E+02  0.12700000000E+01 0. -1.
         -4   -1    0    0    0  501 -0.00000000000E+00 -0.00000000000E+00 -0.12792389348E+03  0.12793019746E+03  0.12700000000E+01 0. -1.
         25    2    1    2    0    0  0.00000000000E+00  0.00000000000E+00 -0.97406323210E+02  0.15847418206E+03  0.12500429824E+03 0.  0.
    9000005    1    3    3    0    0 -0.50824740662E+02 -0.34202407021E+02 -0.33044539781E+02  0.69612502603E+02  0.10000000000E+01 0.  0.
    9000005    1    3    3    0    0  0.50824740662E+02  0.34202407021E+02 -0.64361783429E+02  0.88861679455E+02  0.10000000000E+01 0.  0.
<mgrwt>
<rscale>  0 0.12500430E+03</rscale>
<asrwt>0</asrwt>
<pdfrwt beam="1">  1        4 0.46975277E-02 0.12500430E+03</pdfrwt>
<pdfrwt beam="2">  1       -4 0.19683116E-01 0.12500430E+03</pdfrwt>
<totfact> 0.97628325E+03</totfact>
</mgrwt>
</event>
<event>
 5    1  0.3272646E-002  0.1250018E+03  0.7818608E-02  0.1235067E+00
         -4   -1    0    0    0  501 -0.00000000000E+00  0.00000000000E+00  0.31033612029E+03  0.31033871892E+03  0.12700000000E+01 0. -1.
          4   -1    0    0  501    0  0.00000000000E+00 -0.00000000000E+00 -0.12552819512E+02  0.12616900479E+02  0.12700000000E+01 0. -1.
         25    2    1    2    0    0  0.00000000000E+00  0.00000000000E+00  0.29778330078E+03  0.32295561940E+03  0.12500175149E+03 0.  0.
    9000005    1    3    3    0    0  0.29503018792E+02  0.38078133972E+02  0.46033287343E+02  0.66636596164E+02  0.10000000000E+01 0.  0.
    9000005    1    3    3    0    0 -0.29503018792E+02 -0.38078133972E+02  0.25175001344E+03  0.25631902323E+03  0.10000000000E+01 0.  0.
<mgrwt>
<rscale>  0 0.12500175E+03</rscale>
<asrwt>0</asrwt>
<pdfrwt beam="2">  1        4 0.19363323E-02 0.12500175E+03</pdfrwt>
<pdfrwt beam="1">  1       -4 0.47749145E-01 0.12500175E+03</pdfrwt>
<totfact> 0.72803141E+03</totfact>
</mgrwt>
</event>
<event>
 5    1  0.3272646E-002  0.1250105E+03  0.7818608E-02  0.1235053E+00
         -4   -1    0    0    0  501 -0.00000000000E+00  0.00000000000E+00  0.74538083103E+02  0.74548901619E+02  0.12700000000E+01 0.  1.
          4   -1    0    0  501    0  0.00000000000E+00 -0.00000000000E+00 -0.52392545700E+02  0.52407935897E+02  0.12700000000E+01 0.  1.
         25    2    1    2    0    0  0.00000000000E+00  0.00000000000E+00  0.22145537402E+02  0.12695683752E+03  0.12501045462E+03 0.  0.
    9000005    1    3    3    0    0 -0.25585886783E+02 -0.53416580443E+02  0.31331661501E+02  0.67012250232E+02  0.10000000000E+01 0.  0.
    9000005    1    3    3    0    0  0.25585886783E+02  0.53416580443E+02 -0.91861240986E+01  0.59944587284E+02  0.10000000000E+01 0.  0.
<mgrwt>
<rscale>  0 0.12501045E+03</rscale>
<asrwt>0</asrwt>
<pdfrwt beam="2">  1        4 0.80624077E-02 0.12501045E+03</pdfrwt>
<pdfrwt beam="1">  1       -4 0.11469413E-01 0.12501045E+03</pdfrwt>
<totfact> 0.10407627E+04</totfact>
</mgrwt>
</event>
<event>
 5    1  0.3272646E-002  0.1249986E+03  0.7818608E-02  0.1235071E+00
          4   -1    0    0  501    0  0.00000000000E+00  0.00000000000E+00  0.93423728205E+03  0.93423814527E+03  0.12700000000E+01 0. -1.
         -4   -1    0    0    0  501 -0.00000000000E+00 -0.00000000000E+00 -0.40838033627E+01  0.42767218644E+01  0.12700000000E+01 0. -1.
         25    2    1    2    0    0  0.00000000000E+00  0.00000000000E+00  0.93015347869E+03  0.93851486713E+03  0.12499864764E+03 0.  0.
    9000005    1    3    3    0    0 -0.36198043391E+02 -0.50817671544E+02  0.43860419292E+03  0.44302073556E+03  0.10000000000E+01 0.  0.
    9000005    1    3    3    0    0  0.36198043391E+02  0.50817671544E+02  0.49154928577E+03  0.49549413157E+03  0.10000000000E+01 0.  0.
<mgrwt>
<rscale>  0 0.12499865E+03</rscale>
<asrwt>0</asrwt>
<pdfrwt beam="1">  1        4 0.14374363E+00 0.12499865E+03</pdfrwt>
<pdfrwt beam="2">  1       -4 0.64318412E-03 0.12499865E+03</pdfrwt>
<totfact> 0.32728268E+03</totfact>
</mgrwt>
</event>
<event>
 5    1  0.3272646E-002  0.1249928E+03  0.7818608E-02  0.1235081E+00
          4   -1    0    0  501    0  0.00000000000E+00  0.00000000000E+00  0.11729551578E+02  0.11798104942E+02  0.12700000000E+01 0.  1.
         -4   -1    0    0    0  501 -0.00000000000E+00 -0.00000000000E+00 -0.33194782977E+03  0.33195025921E+03  0.12700000000E+01 0.  1.
         25    2    1    2    0    0  0.00000000000E+00  0.00000000000E+00 -0.32021827819E+03  0.34374836415E+03  0.12499276847E+03 0.  0.
    9000005    1    3    3    0    0  0.49852476165E+02  0.28775459055E+02 -0.22699490761E+03  0.23418152041E+03  0.10000000000E+01 0.  0.
    9000005    1    3    3    0    0 -0.49852476165E+02 -0.28775459055E+02 -0.93223370587E+02  0.10956684374E+03  0.10000000000E+01 0.  0.
<mgrwt>
<rscale>  0 0.12499277E+03</rscale>
<asrwt>0</asrwt>
<pdfrwt beam="1">  1        4 0.18100069E-02 0.12499277E+03</pdfrwt>
<pdfrwt beam="2">  1       -4 0.51074350E-01 0.12499277E+03</pdfrwt>
<totfact> 0.70429110E+03</totfact>
</mgrwt>
</event>
<event>
 5    1  0.3272646E-002  0.1250009E+03  0.7818608E-02  0.1235068E+00
          4   -1    0    0  501    0  0.00000000000E+00  0.00000000000E+00  0.98776137616E+02  0.98784301700E+02  0.12700000000E+01 0. -1.
         -4   -1    0    0    0  501 -0.00000000000E+00 -0.00000000000E+00 -0.39527094285E+02  0.39547491484E+02  0.12700000000E+01 0. -1.
         25    2    1    2    0    0  0.00000000000E+00  0.00000000000E+00  0.59249043331E+02  0.13833179318E+03  0.12500094348E+03 0.  0.
    9000005    1    3    3    0    0  0.30610113396E+02  0.26460525502E+02  0.82328884345E+02  0.91739760461E+02  0.10000000000E+01 0.  0.
    9000005    1    3    3    0    0 -0.30610113396E+02 -0.26460525502E+02 -0.23079841015E+02  0.46592032722E+02  0.10000000000E+01 0.  0.
<mgrwt>
<rscale>  0 0.12500094E+03</rscale>
<asrwt>0</asrwt>
<pdfrwt beam="1">  1        4 0.15198526E-01 0.12500094E+03</pdfrwt>
<pdfrwt beam="2">  1       -4 0.60832885E-02 0.12500094E+03</pdfrwt>
<totfact> 0.10168062E+04</totfact>
</mgrwt>
</event>
<event>
 5    1  0.3272646E-002  0.1249990E+03  0.7818608E-02  0.1235071E+00
          4   -1    0    0  501    0  0.00000000000E+00  0.00000000000E+00  0.12337777979E+02  0.12402970026E+02  0.12700000000E+01 0.  1.
         -4   -1    0    0    0  501 -0.00000000000E+00 -0.00000000000E+00 -0.31570305275E+03  0.31570560720E+03  0.12700000000E+01 0.  1.
         25    2    1    2    0    0  0.00000000000E+00  0.00000000000E+00 -0.30336527477E+03  0.32810857723E+03  0.12499899404E+03 0.  0.
    9000005    1    3    3    0    0 -0.47778049840E+02  0.39667958647E+02 -0.17003775731E+03  0.18102521344E+03  0.10000000000E+01 0.  0.
    9000005    1    3    3    0    0  0.47778049840E+02 -0.39667958647E+02 -0.13332751746E+03  0.14708336379E+03  0.10000000000E+01 0.  0.
<mgrwt>
<rscale>  0 0.12499899E+03</rscale>
<asrwt>0</asrwt>
<pdfrwt beam="1">  1        4 0.19033312E-02 0.12499899E+03</pdfrwt>
<pdfrwt beam="2">  1       -4 0.48574906E-01 0.12499899E+03</pdfrwt>
<totfact> 0.72203596E+03</totfact>
</mgrwt>
</event>
<event>
 5    1  0.3272646E-002  0.1250014E+03  0.7818608E-02  0.1235067E+00
          4   -1    0    0  501    0  0.00000000000E+00  0.00000000000E+00  0.27677733891E+02  0.27706855710E+02  0.12700000000E+01 0.  1.
         -4   -1    0    0    0  501 -0.00000000000E+00 -0.00000000000E+00 -0.14103032528E+03  0.14103604344E+03  0.12700000000E+01 0.  1.
         25    2    1    2    0    0  0.00000000000E+00  0.00000000000E+00 -0.11335259139E+03  0.16874289915E+03  0.12500142415E+03 0.  0.
    9000005    1    3    3    0    0  0.26212011851E+02 -0.22758010670E+02  0.13472458536E+02  0.37249211454E+02  0.10000000000E+01 0.  0.
    9000005    1    3    3    0    0 -0.26212011851E+02  0.22758010670E+02 -0.12682504993E+03  0.13149368770E+03  0.10000000000E+01 0.  0.
<mgrwt>
<rscale>  0 0.12500142E+03</rscale>
<asrwt>0</asrwt>
<pdfrwt beam="1">  1        4 0.42607930E-02 0.12500142E+03</pdfrwt>
<pdfrwt beam="2">  1       -4 0.21699653E-01 0.12500142E+03</pdfrwt>
<totfact> 0.95680145E+03</totfact>
</mgrwt>
</event>
<event>
 5    1  0.3272646E-002  0.1250015E+03  0.7818608E-02  0.1235067E+00
          4   -1    0    0  501    0  0.00000000000E+00  0.00000000000E+00  0.82923319565E+02  0.82933044245E+02  0.12700000000E+01 0.  1.
         -4   -1    0    0    0  501 -0.00000000000E+00 -0.00000000000E+00 -0.47086873623E+02  0.47103997363E+02  0.12700000000E+01 0.  1.
         25    2    1    2    0    0  0.00000000000E+00  0.00000000000E+00  0.35836445942E+02  0.13003704161E+03  0.12500152532E+03 0.  0.
    9000005    1    3    3    0    0  0.87849558104E+01  0.61558605843E+02  0.11446025667E+02  0.63234870961E+02  0.10000000000E+01 0.  0.
    9000005    1    3    3    0    0 -0.87849558104E+01 -0.61558605843E+02  0.24390420275E+02  0.66802170647E+02  0.10000000000E+01 0.  0.
<mgrwt>
<rscale>  0 0.12500153E+03</rscale>
<asrwt>0</asrwt>
<pdfrwt beam="1">  1        4 0.12759499E-01 0.12500153E+03</pdfrwt>
<pdfrwt beam="2">  1       -4 0.72461997E-02 0.12500153E+03</pdfrwt>
<totfact> 0.10343359E+04</totfact>
</mgrwt>
</event>
<event>
 5    1  0.3272646E-002  0.1249988E+03  0.7818608E-02  0.1235071E+00
         -4   -1    0    0    0  501 -0.00000000000E+00  0.00000000000E+00  0.18803070065E+01  0.22690205902E+01  0.12700000000E+01 0.  1.
          4   -1    0    0  501    0  0.00000000000E+00 -0.00000000000E+00 -0.18824098907E+04  0.18824103191E+04  0.12700000000E+01 0.  1.
         25    2    1    2    0    0  0.00000000000E+00  0.00000000000E+00 -0.18805295837E+04  0.18846793397E+04  0.12499879343E+03 0.  0.
    9000005    1    3    3    0    0 -0.33724694448E+02 -0.30943735763E+02 -0.29874878197E+03  0.30223617343E+03  0.10000000000E+01 0.  0.
    9000005    1    3    3    0    0  0.33724694448E+02  0.30943735763E+02 -0.15817808017E+04  0.15824431663E+04  0.10000000000E+01 0.  0.
<mgrwt>
<rscale>  0 0.12499879E+03</rscale>
<asrwt>0</asrwt>
<pdfrwt beam="2">  1        4 0.28963009E+00 0.12499879E+03</pdfrwt>
<pdfrwt beam="1">  1       -4 0.31921351E-03 0.12499879E+03</pdfrwt>
<totfact> 0.11442927E+03</totfact>
</mgrwt>
</event>
<event>
 5    1  0.3272646E-002  0.1250031E+03  0.7818608E-02  0.1235064E+00
          4   -1    0    0  501    0  0.00000000000E+00  0.00000000000E+00  0.15074223025E+02  0.15127627038E+02  0.12700000000E+01 0.  1.
         -4   -1    0    0    0  501 -0.00000000000E+00 -0.00000000000E+00 -0.25863401773E+03  0.25863713582E+03  0.12700000000E+01 0.  1.
         25    2    1    2    0    0  0.00000000000E+00  0.00000000000E+00 -0.24355979471E+03  0.27376476286E+03  0.12500308712E+03 0.  0.
    9000005    1    3    3    0    0 -0.25586764701E+02 -0.15067413950E+02 -0.13515956397E+01  0.29741155018E+02  0.10000000000E+01 0.  0.
    9000005    1    3    3    0    0  0.25586764701E+02  0.15067413950E+02 -0.24220819907E+03  0.24402360784E+03  0.10000000000E+01 0.  0.
<mgrwt>
<rscale>  0 0.12500309E+03</rscale>
<asrwt>0</asrwt>
<pdfrwt beam="1">  1        4 0.23234593E-02 0.12500309E+03</pdfrwt>
<pdfrwt beam="2">  1       -4 0.39794194E-01 0.12500309E+03</pdfrwt>
<totfact> 0.79006760E+03</totfact>
</mgrwt>
</event>
<event>
 5    1  0.3272646E-002  0.1250003E+03  0.7818608E-02  0.1235069E+00
         -4   -1    0    0    0  501 -0.00000000000E+00  0.00000000000E+00  0.21434504362E+02  0.21472095316E+02  0.12700000000E+01 0.  1.
          4   -1    0    0  501    0  0.00000000000E+00 -0.00000000000E+00 -0.18204248943E+03  0.18204691939E+03  0.12700000000E+01 0.  1.
         25    2    1    2    0    0  0.00000000000E+00  0.00000000000E+00 -0.16060798507E+03  0.20351901470E+03  0.12500025791E+03 0.  0.
    9000005    1    3    3    0    0  0.17396816668E+02 -0.43969457357E+02 -0.14682545086E+03  0.15425522821E+03  0.10000000000E+01 0.  0.
    9000005    1    3    3    0    0 -0.17396816668E+02  0.43969457357E+02 -0.13782534212E+02  0.49263786494E+02  0.10000000000E+01 0.  0.
<mgrwt>
<rscale>  0 0.12500026E+03</rscale>
<asrwt>0</asrwt>
<pdfrwt beam="2">  1        4 0.28009768E-01 0.12500026E+03</pdfrwt>
<pdfrwt beam="1">  1       -4 0.33008486E-02 0.12500026E+03</pdfrwt>
<totfact> 0.89544855E+03</totfact>
</mgrwt>
</event>
<event>
 5    1  0.3272646E-002  0.1250027E+03  0.7818608E-02  0.1235065E+00
          4   -1    0    0  501    0  0.00000000000E+00  0.00000000000E+00  0.49597417827E+02  0.49613675082E+02  0.12700000000E+01 0.  1.
         -4   -1    0    0    0  501 -0.00000000000E+00 -0.00000000000E+00 -0.78728206395E+02  0.78738449199E+02  0.12700000000E+01 0.  1.
         25    2    1    2    0    0  0.00000000000E+00  0.00000000000E+00 -0.29130788568E+02  0.12835212428E+03  0.12500265983E+03 0.  0.
    9000005    1    3    3    0    0 -0.50635774681E+02  0.16945227958E+02 -0.47905320601E+02  0.71742889334E+02  0.10000000000E+01 0.  0.
    9000005    1    3    3    0    0  0.50635774681E+02 -0.16945227958E+02  0.18774532033E+02  0.56609234946E+02  0.10000000000E+01 0.  0.
<mgrwt>
<rscale>  0 0.12500266E+03</rscale>
<asrwt>0</asrwt>
<pdfrwt beam="1">  1        4 0.76324105E-02 0.12500266E+03</pdfrwt>
<pdfrwt beam="2">  1       -4 0.12114070E-01 0.12500266E+03</pdfrwt>
<totfact> 0.10379267E+04</totfact>
</mgrwt>
</event>
<event>
 5    1  0.3272646E-002  0.1250006E+03  0.7818608E-02  0.1235068E+00
         -4   -1    0    0    0  501 -0.00000000000E+00  0.00000000000E+00  0.24574868984E+02  0.24607663148E+02  0.12700000000E+01 0. -1.
          4   -1    0    0  501    0  0.00000000000E+00 -0.00000000000E+00 -0.15881328987E+03  0.15881836776E+03  0.12700000000E+01 0. -1.
         25    2    1    2    0    0  0.00000000000E+00  0.00000000000E+00 -0.13423842088E+03  0.18342603091E+03  0.12500062069E+03 0.  0.
    9000005    1    3    3    0    0 -0.58348798366E+01  0.24650108476E+02 -0.15094897908E+03  0.15306295422E+03  0.10000000000E+01 0.  0.
    9000005    1    3    3    0    0  0.58348798366E+01 -0.24650108476E+02  0.16710558197E+02  0.30363076686E+02  0.10000000000E+01 0.  0.
<mgrwt>
<rscale>  0 0.12500062E+03</rscale>
<asrwt>0</asrwt>
<pdfrwt beam="2">  1        4 0.24435726E-01 0.12500062E+03</pdfrwt>
<pdfrwt beam="1">  1       -4 0.37836624E-02 0.12500062E+03</pdfrwt>
<totfact> 0.93002623E+03</totfact>
</mgrwt>
</event>
<event>
 5    1  0.3272646E-002  0.1249993E+03  0.7818608E-02  0.1235070E+00
          4   -1    0    0  501    0  0.00000000000E+00  0.00000000000E+00  0.92835679878E+01  0.93700338625E+01  0.12700000000E+01 0.  1.
         -4   -1    0    0    0  501 -0.00000000000E+00 -0.00000000000E+00 -0.41872750029E+03  0.41872942624E+03  0.12700000000E+01 0.  1.
         25    2    1    2    0    0  0.00000000000E+00  0.00000000000E+00 -0.40944393230E+03  0.42809946010E+03  0.12499925616E+03 0.  0.
    9000005    1    3    3    0    0  0.27750658717E+02 -0.46775731077E+02 -0.99321315068E+02  0.11324218165E+03  0.10000000000E+01 0.  0.
    9000005    1    3    3    0    0 -0.27750658717E+02  0.46775731077E+02 -0.31012261723E+03  0.31485727846E+03  0.10000000000E+01 0.  0.
<mgrwt>
<rscale>  0 0.12499926E+03</rscale>
<asrwt>0</asrwt>
<pdfrwt beam="1">  1        4 0.14350409E-02 0.12499926E+03</pdfrwt>
<pdfrwt beam="2">  1       -4 0.64426401E-01 0.12499926E+03</pdfrwt>
<totfact> 0.61909664E+03</totfact>
</mgrwt>
</event>
<event>
 5    1  0.3272646E-002  0.1250014E+03  0.7818608E-02  0.1235067E+00
          4   -1    0    0  501    0  0.00000000000E+00  0.00000000000E+00  0.54868360143E+02  0.54883056080E+02  0.12700000000E+01 0.  1.
         -4   -1    0    0    0  501 -0.00000000000E+00 -0.00000000000E+00 -0.71164796085E+02  0.71176127330E+02  0.12700000000E+01 0.  1.
         25    2    1    2    0    0  0.00000000000E+00  0.00000000000E+00 -0.16296435942E+02  0.12605918341E+03  0.12500137558E+03 0.  0.
    9000005    1    3    3    0    0  0.43137854374E+02 -0.34543651938E+02 -0.37570401069E+02  0.66833175936E+02  0.10000000000E+01 0.  0.
    9000005    1    3    3    0    0 -0.43137854374E+02  0.34543651938E+02  0.21273965127E+02  0.59226007475E+02  0.10000000000E+01 0.  0.
<mgrwt>
<rscale>  0 0.12500138E+03</rscale>
<asrwt>0</asrwt>
<pdfrwt beam="1">  1        4 0.84432882E-02 0.12500138E+03</pdfrwt>
<pdfrwt beam="2">  1       -4 0.10950432E-01 0.12500138E+03</pdfrwt>
<totfact> 0.10429337E+04</totfact>
</mgrwt>
</event>
<event>
 5    1  0.3272646E-002  0.1250052E+03  0.7818608E-02  0.1235061E+00
         -4   -1    0    0    0  501 -0.00000000000E+00  0.00000000000E+00  0.17993532687E+03  0.17993980870E+03  0.12700000000E+01 0.  1.
          4   -1    0    0  501    0  0.00000000000E+00 -0.00000000000E+00 -0.21687656486E+02  0.21724809409E+02  0.12700000000E+01 0.  1.
         25    2    1    2    0    0  0.00000000000E+00  0.00000000000E+00  0.15824767038E+03  0.20166461811E+03  0.12500517195E+03 0.  0.
    9000005    1    3    3    0    0 -0.25217986628E+02  0.35980247220E+02  0.74285531714E+01  0.44572507690E+02  0.10000000000E+01 0.  0.
    9000005    1    3    3    0    0  0.25217986628E+02 -0.35980247220E+02  0.15081911721E+03  0.15709211042E+03  0.10000000000E+01 0.  0.
<mgrwt>
<rscale>  0 0.12500517E+03</rscale>
<asrwt>0</asrwt>
<pdfrwt beam="2">  1        4 0.33397651E-02 0.12500517E+03</pdfrwt>
<pdfrwt beam="1">  1       -4 0.27685562E-01 0.12500517E+03</pdfrwt>
<totfact> 0.89845114E+03</totfact>
</mgrwt>
</event>
<event>
 5    1  0.3272646E-002  0.1249766E+03  0.7818608E-02  0.1235106E+00
         -4   -1    0    0    0  501 -0.00000000000E+00  0.00000000000E+00  0.35121317586E+02  0.35144271923E+02  0.12700000000E+01 0.  1.
          4   -1    0    0  501    0  0.00000000000E+00 -0.00000000000E+00 -0.11111714742E+03  0.11112440484E+03  0.12700000000E+01 0.  1.
         25    2    1    2    0    0  0.00000000000E+00  0.00000000000E+00 -0.75995829837E+02  0.14626867677E+03  0.12497663642E+03 0.  0.
    9000005    1    3    3    0    0 -0.51855146777E+02  0.31411674199E+02 -0.20320303240E+02  0.63949700914E+02  0.10000000000E+01 0.  0.
    9000005    1    3    3    0    0  0.51855146777E+02 -0.31411674199E+02 -0.55675526597E+02  0.82318975851E+02  0.10000000000E+01 0.  0.
<mgrwt>
<rscale>  0 0.12497664E+03</rscale>
<asrwt>0</asrwt>
<pdfrwt beam="2">  1        4 0.17097270E-01 0.12497664E+03</pdfrwt>
<pdfrwt beam="1">  1       -4 0.54056037E-02 0.12497664E+03</pdfrwt>
<totfact> 0.10010540E+04</totfact>
</mgrwt>
</event>
<event>
 5    1  0.3272646E-002  0.1249970E+03  0.7818608E-02  0.1235074E+00
          4   -1    0    0  501    0  0.00000000000E+00  0.00000000000E+00  0.83565625086E+02  0.83575275028E+02  0.12700000000E+01 0.  1.
         -4   -1    0    0    0  501 -0.00000000000E+00 -0.00000000000E+00 -0.46721458310E+02  0.46738715929E+02  0.12700000000E+01 0.  1.
         25    2    1    2    0    0  0.00000000000E+00  0.00000000000E+00  0.36844166775E+02  0.13031399096E+03  0.12499697442E+03 0.  0.
    9000005    1    3    3    0    0  0.25620766549E+02 -0.54469564101E+02  0.35920063000E+02  0.70104265333E+02  0.10000000000E+01 0.  0.
    9000005    1    3    3    0    0 -0.25620766549E+02  0.54469564101E+02  0.92410377493E+00  0.60209725624E+02  0.10000000000E+01 0.  0.
<mgrwt>
<rscale>  0 0.12499697E+03</rscale>
<asrwt>0</asrwt>
<pdfrwt beam="1">  1        4 0.12858320E-01 0.12499697E+03</pdfrwt>
<pdfrwt beam="2">  1       -4 0.71899865E-02 0.12499697E+03</pdfrwt>
<totfact> 0.10338501E+04</totfact>
</mgrwt>
</event>
<event>
 5    1  0.3272646E-002  0.1249989E+03  0.7818608E-02  0.1235071E+00
          4   -1    0    0  501    0  0.00000000000E+00  0.00000000000E+00  0.12716771994E+02  0.12780030905E+02  0.12700000000E+01 0.  1.
         -4   -1    0    0    0  501 -0.00000000000E+00 -0.00000000000E+00 -0.30634099859E+03  0.30634363110E+03  0.12700000000E+01 0.  1.
         25    2    1    2    0    0  0.00000000000E+00  0.00000000000E+00 -0.29362422659E+03  0.31912366200E+03  0.12499890083E+03 0.  0.
    9000005    1    3    3    0    0 -0.10443626930E+02  0.47363004185E+02 -0.24741690260E+03  0.25212783901E+03  0.10000000000E+01 0.  0.
    9000005    1    3    3    0    0  0.10443626930E+02 -0.47363004185E+02 -0.46207323992E+02  0.66995822999E+02  0.10000000000E+01 0.  0.
<mgrwt>
<rscale>  0 0.12499890E+03</rscale>
<asrwt>0</asrwt>
<pdfrwt beam="1">  1        4 0.19614953E-02 0.12499890E+03</pdfrwt>
<pdfrwt beam="2">  1       -4 0.47134448E-01 0.12499890E+03</pdfrwt>
<totfact> 0.73262262E+03</totfact>
</mgrwt>
</event>
<event>
 5    1  0.3272646E-002  0.1249999E+03  0.7818608E-02  0.1235069E+00
         -4   -1    0    0    0  501 -0.00000000000E+00  0.00000000000E+00  0.85996923632E+02  0.86006300781E+02  0.12700000000E+01 0. -1.
          4   -1    0    0  501    0  0.00000000000E+00 -0.00000000000E+00 -0.45402366477E+02  0.45420125294E+02  0.12700000000E+01 0. -1.
         25    2    1    2    0    0  0.00000000000E+00  0.00000000000E+00  0.40594557155E+02  0.13142642608E+03  0.12499994960E+03 0.  0.
    9000005    1    3    3    0    0  0.23987973705E+02 -0.52768940285E+02 -0.42540974666E+01  0.58129865702E+02  0.10000000000E+01 0.  0.
    9000005    1    3    3    0    0 -0.23987973705E+02  0.52768940285E+02  0.44848654621E+02  0.73296560374E+02  0.10000000000E+01 0.  0.
<mgrwt>
<rscale>  0 0.12499995E+03</rscale>
<asrwt>0</asrwt>
<pdfrwt beam="2">  1        4 0.69870668E-02 0.12499995E+03</pdfrwt>
<pdfrwt beam="1">  1       -4 0.13232383E-01 0.12499995E+03</pdfrwt>
<totfact> 0.10313968E+04</totfact>
</mgrwt>
</event>
<event>
 5    1  0.3272646E-002  0.1250034E+03  0.7818608E-02  0.1235064E+00
         -4   -1    0    0    0  501 -0.00000000000E+00  0.00000000000E+00  0.45143835824E+02  0.45161696302E+02  0.12700000000E+01 0.  1.
          4   -1    0    0  501    0  0.00000000000E+00 -0.00000000000E+00 -0.86494003211E+02  0.86503326476E+02  0.12700000000E+01 0.  1.
         25    2    1    2    0    0  0.00000000000E+00  0.00000000000E+00 -0.41350167386E+02  0.13166502278E+03  0.12500336748E+03 0.  0.
    9000005    1    3    3    0    0  0.28256453836E+02  0.43337861186E+02  0.16248211570E+02  0.54236535424E+02  0.10000000000E+01 0.  0.
    9000005    1    3    3    0    0 -0.28256453836E+02 -0.43337861186E+02 -0.57598378956E+02  0.77428487354E+02  0.10000000000E+01 0.  0.
<mgrwt>
<rscale>  0 0.12500337E+03</rscale>
<asrwt>0</asrwt>
<pdfrwt beam="2">  1        4 0.13308861E-01 0.12500337E+03</pdfrwt>
<pdfrwt beam="1">  1       -4 0.69472966E-02 0.12500337E+03</pdfrwt>
<totfact> 0.10308070E+04</totfact>
</mgrwt>
</event>
<event>
 5    1  0.3272646E-002  0.1249991E+03  0.7818608E-02  0.1235071E+00
          4   -1    0    0  501    0  0.00000000000E+00  0.00000000000E+00  0.20758489653E+03  0.20758878141E+03  0.12700000000E+01 0.  1.
         -4   -1    0    0    0  501 -0.00000000000E+00 -0.00000000000E+00 -0.18791823145E+02  0.18834689196E+02  0.12700000000E+01 0.  1.
         25    2    1    2    0    0  0.00000000000E+00  0.00000000000E+00  0.18879307339E+03  0.22642347061E+03  0.12499905393E+03 0.  0.
    9000005    1    3    3    0    0  0.44308073727E+02  0.42104060521E+02  0.11796102229E+03  0.13285992657E+03  0.10000000000E+01 0.  0.
    9000005    1    3    3    0    0 -0.44308073727E+02 -0.42104060521E+02  0.70832051102E+02  0.93563544039E+02  0.10000000000E+01 0.  0.
<mgrwt>
<rscale>  0 0.12499905E+03</rscale>
<asrwt>0</asrwt>
<pdfrwt beam="1">  1        4 0.31939736E-01 0.12499905E+03</pdfrwt>
<pdfrwt beam="2">  1       -4 0.28946458E-02 0.12499905E+03</pdfrwt>
<totfact> 0.85863630E+03</totfact>
</mgrwt>
</event>
<event>
 5    1  0.3272646E-002  0.1250003E+03  0.7818608E-02  0.1235069E+00
         -4   -1    0    0    0  501 -0.00000000000E+00  0.00000000000E+00  0.22891762537E+03  0.22892114823E+03  0.12700000000E+01 0. -1.
          4   -1    0    0  501    0  0.00000000000E+00 -0.00000000000E+00 -0.17036788878E+02  0.17084059099E+02  0.12700000000E+01 0. -1.
         25    2    1    2    0    0  0.00000000000E+00  0.00000000000E+00  0.21188083650E+03  0.24600520733E+03  0.12500029263E+03 0.  0.
    9000005    1    3    3    0    0  0.58236809171E+01 -0.42965744350E+02  0.17372238229E+02  0.46720071790E+02  0.10000000000E+01 0.  0.
    9000005    1    3    3    0    0 -0.58236809171E+01  0.42965744350E+02  0.19450859827E+03  0.19928513554E+03  0.10000000000E+01 0.  0.
<mgrwt>
<rscale>  0 0.12500029E+03</rscale>
<asrwt>0</asrwt>
<pdfrwt beam="2">  1        4 0.26249517E-02 0.12500029E+03</pdfrwt>
<pdfrwt beam="1">  1       -4 0.35222002E-01 0.12500029E+03</pdfrwt>
<totfact> 0.82910509E+03</totfact>
</mgrwt>
</event>
<event>
 5    1  0.3272646E-002  0.1250009E+03  0.7818608E-02  0.1235068E+00
         -4   -1    0    0    0  501 -0.00000000000E+00  0.00000000000E+00  0.19696203777E+03  0.19696613217E+03  0.12700000000E+01 0.  1.
          4   -1    0    0  501    0  0.00000000000E+00 -0.00000000000E+00 -0.19808157853E+02  0.19848829122E+02  0.12700000000E+01 0.  1.
         25    2    1    2    0    0  0.00000000000E+00  0.00000000000E+00  0.17715387992E+03  0.21681496129E+03  0.12500092108E+03 0.  0.
    9000005    1    3    3    0    0  0.49361276354E+02  0.34839899290E+02  0.60881617707E+02  0.85778351351E+02  0.10000000000E+01 0.  0.
    9000005    1    3    3    0    0 -0.49361276354E+02 -0.34839899290E+02  0.11627226221E+03  0.13103660994E+03  0.10000000000E+01 0.  0.
<mgrwt>
<rscale>  0 0.12500092E+03</rscale>
<asrwt>0</asrwt>
<pdfrwt beam="2">  1        4 0.30508524E-02 0.12500092E+03</pdfrwt>
<pdfrwt beam="1">  1       -4 0.30305296E-01 0.12500092E+03</pdfrwt>
<totfact> 0.87373064E+03</totfact>
</mgrwt>
</event>
<event>
 5    1  0.3272646E-002  0.1249953E+03  0.7818608E-02  0.1235077E+00
          4   -1    0    0  501    0  0.00000000000E+00  0.00000000000E+00  0.25604150888E+03  0.25604465854E+03  0.12700000000E+01 0. -1.
         -4   -1    0    0    0  501 -0.00000000000E+00 -0.00000000000E+00 -0.15225496522E+02  0.15278371783E+02  0.12700000000E+01 0. -1.
         25    2    1    2    0    0  0.00000000000E+00  0.00000000000E+00  0.24081601236E+03  0.27132303033E+03  0.12499533983E+03 0.  0.
    9000005    1    3    3    0    0 -0.38394681401E+02  0.49259765852E+02  0.12490010472E+03  0.13964853114E+03  0.10000000000E+01 0.  0.
    9000005    1    3    3    0    0  0.38394681401E+02 -0.49259765852E+02  0.11591590764E+03  0.13167449918E+03  0.10000000000E+01 0.  0.
<mgrwt>
<rscale>  0 0.12499534E+03</rscale>
<asrwt>0</asrwt>
<pdfrwt beam="1">  1        4 0.39395308E-01 0.12499534E+03</pdfrwt>
<pdfrwt beam="2">  1       -4 0.23466939E-02 0.12499534E+03</pdfrwt>
<totfact> 0.79351060E+03</totfact>
</mgrwt>
</event>
<event>
 5    1  0.3272646E-002  0.1250013E+03  0.7818608E-02  0.1235067E+00
          4   -1    0    0  501    0  0.00000000000E+00  0.00000000000E+00  0.99622333101E+02  0.99630427845E+02  0.12700000000E+01 0.  1.
         -4   -1    0    0    0  501 -0.00000000000E+00 -0.00000000000E+00 -0.39191409151E+02  0.39211980965E+02  0.12700000000E+01 0.  1.
         25    2    1    2    0    0  0.00000000000E+00  0.00000000000E+00  0.60430923951E+02  0.13884240881E+03  0.12500127165E+03 0.  0.
    9000005    1    3    3    0    0  0.20558889588E+02 -0.47892483126E+02  0.68514992347E+02  0.86091010317E+02  0.10000000000E+01 0.  0.
    9000005    1    3    3    0    0 -0.20558889588E+02  0.47892483126E+02 -0.80840683965E+01  0.52751398493E+02  0.10000000000E+01 0.  0.
<mgrwt>
<rscale>  0 0.12500127E+03</rscale>
<asrwt>0</asrwt>
<pdfrwt beam="1">  1        4 0.15328718E-01 0.12500127E+03</pdfrwt>
<pdfrwt beam="2">  1       -4 0.60316527E-02 0.12500127E+03</pdfrwt>
<totfact> 0.10157343E+04</totfact>
</mgrwt>
</event>
<event>
 5    1  0.3272646E-002  0.1250030E+03  0.7818608E-02  0.1235065E+00
         -4   -1    0    0    0  501 -0.00000000000E+00  0.00000000000E+00  0.76058481059E+01  0.77111494221E+01  0.12700000000E+01 0.  1.
          4   -1    0    0  501    0  0.00000000000E+00 -0.00000000000E+00 -0.50997268497E+03  0.50997426633E+03  0.12700000000E+01 0.  1.
         25    2    1    2    0    0  0.00000000000E+00  0.00000000000E+00 -0.50236683687E+03  0.51768541575E+03  0.12500300356E+03 0.  0.
    9000005    1    3    3    0    0  0.59741992455E+01  0.61841980714E+02 -0.22330477135E+03  0.23178900436E+03  0.10000000000E+01 0.  0.
    9000005    1    3    3    0    0 -0.59741992455E+01 -0.61841980714E+02 -0.27906206552E+03  0.28589641139E+03  0.10000000000E+01 0.  0.
<mgrwt>
<rscale>  0 0.12500300E+03</rscale>
<asrwt>0</asrwt>
<pdfrwt beam="2">  1        4 0.78465531E-01 0.12500300E+03</pdfrwt>
<pdfrwt beam="1">  1       -4 0.11783526E-02 0.12500300E+03</pdfrwt>
<totfact> 0.54514252E+03</totfact>
</mgrwt>
</event>
<event>
 5    1  0.3272646E-002  0.1250059E+03  0.7818608E-02  0.1235060E+00
         -4   -1    0    0    0  501 -0.00000000000E+00  0.00000000000E+00  0.17188646199E+03  0.17189115369E+03  0.12700000000E+01 0.  1.
          4   -1    0    0  501    0  0.00000000000E+00 -0.00000000000E+00 -0.22705172592E+02  0.22740663193E+02  0.12700000000E+01 0.  1.
         25    2    1    2    0    0  0.00000000000E+00  0.00000000000E+00  0.14918128940E+03  0.19463181688E+03  0.12500594800E+03 0.  0.
    9000005    1    3    3    0    0 -0.18404322377E+02  0.55619581334E+02  0.40715499821E+02  0.71351305774E+02  0.10000000000E+01 0.  0.
    9000005    1    3    3    0    0  0.18404322377E+02 -0.55619581334E+02  0.10846578958E+03  0.12328051111E+03  0.10000000000E+01 0.  0.
<mgrwt>
<rscale>  0 0.12500595E+03</rscale>
<asrwt>0</asrwt>
<pdfrwt beam="2">  1        4 0.34961945E-02 0.12500595E+03</pdfrwt>
<pdfrwt beam="1">  1       -4 0.26447162E-01 0.12500595E+03</pdfrwt>
<totfact> 0.91035457E+03</totfact>
</mgrwt>
</event>
<event>
 5    1  0.3272646E-002  0.1250005E+03  0.7818608E-02  0.1235068E+00
          4   -1    0    0  501    0  0.00000000000E+00  0.00000000000E+00  0.24405128336E+02  0.24438150280E+02  0.12700000000E+01 0.  1.
         -4   -1    0    0    0  501 -0.00000000000E+00 -0.00000000000E+00 -0.15991612082E+03  0.15992116369E+03  0.12700000000E+01 0.  1.
         25    2    1    2    0    0  0.00000000000E+00  0.00000000000E+00 -0.13551099248E+03  0.18435931397E+03  0.12500051026E+03 0.  0.
    9000005    1    3    3    0    0 -0.19025362859E+02  0.58616170691E+02 -0.83044554756E+02  0.10341768695E+03  0.10000000000E+01 0.  0.
    9000005    1    3    3    0    0  0.19025362859E+02 -0.58616170691E+02 -0.52466437723E+02  0.80941627027E+02  0.10000000000E+01 0.  0.
<mgrwt>
<rscale>  0 0.12500051E+03</rscale>
<asrwt>0</asrwt>
<pdfrwt beam="1">  1        4 0.37575633E-02 0.12500051E+03</pdfrwt>
<pdfrwt beam="2">  1       -4 0.24605408E-01 0.12500051E+03</pdfrwt>
<totfact> 0.92837084E+03</totfact>
</mgrwt>
</event>
<event>
 5    1  0.3272646E-002  0.1250017E+03  0.7818608E-02  0.1235067E+00
          4   -1    0    0  501    0  0.00000000000E+00  0.00000000000E+00  0.99895411959E+02  0.99903484576E+02  0.12700000000E+01 0.  1.
         -4   -1    0    0    0  501 -0.00000000000E+00 -0.00000000000E+00 -0.39084524071E+02  0.39105152114E+02  0.12700000000E+01 0.  1.
         25    2    1    2    0    0  0.00000000000E+00  0.00000000000E+00  0.60810887888E+02  0.13900863669E+03  0.12500174794E+03 0.  0.
    9000005    1    3    3    0    0 -0.62134629471E+02 -0.64759566033E+01  0.32235795468E+02  0.70305026157E+02  0.10000000000E+01 0.  0.
    9000005    1    3    3    0    0  0.62134629471E+02  0.64759566033E+01  0.28575092421E+02  0.68703610533E+02  0.10000000000E+01 0.  0.
<mgrwt>
<rscale>  0 0.12500175E+03</rscale>
<asrwt>0</asrwt>
<pdfrwt beam="1">  1        4 0.15370733E-01 0.12500175E+03</pdfrwt>
<pdfrwt beam="2">  1       -4 0.60152114E-02 0.12500175E+03</pdfrwt>
<totfact> 0.10153774E+04</totfact>
</mgrwt>
</event>
<event>
 5    1  0.3272646E-002  0.1250124E+03  0.7818608E-02  0.1235050E+00
         -4   -1    0    0    0  501 -0.00000000000E+00  0.00000000000E+00  0.16198811295E+04  0.16198816273E+04  0.12700000000E+01 0.  1.
          4   -1    0    0  501    0  0.00000000000E+00 -0.00000000000E+00 -0.22442097240E+01  0.25786386497E+01  0.12700000000E+01 0.  1.
         25    2    1    2    0    0  0.00000000000E+00  0.00000000000E+00  0.16176369198E+04  0.16224602660E+04  0.12501244142E+03 0.  0.
    9000005    1    3    3    0    0  0.10524583332E+02 -0.26326228576E+01  0.10006168850E+02  0.14792598570E+02  0.10000000000E+01 0.  0.
    9000005    1    3    3    0    0 -0.10524583332E+02  0.26326228576E+01  0.16076307509E+04  0.16076676674E+04  0.10000000000E+01 0.  0.
<mgrwt>
<rscale>  0 0.12501244E+03</rscale>
<asrwt>0</asrwt>
<pdfrwt beam="2">  1        4 0.37102628E-03 0.12501244E+03</pdfrwt>
<pdfrwt beam="1">  1       -4 0.24923848E+00 0.12501244E+03</pdfrwt>
<totfact> 0.15639226E+03</totfact>
</mgrwt>
</event>
<event>
 5    1  0.3272646E-002  0.1250002E+03  0.7818608E-02  0.1235069E+00
          4   -1    0    0  501    0  0.00000000000E+00  0.00000000000E+00  0.82558862687E+02  0.82568630292E+02  0.12700000000E+01 0.  1.
         -4   -1    0    0    0  501 -0.00000000000E+00 -0.00000000000E+00 -0.47293762853E+02  0.47310811711E+02  0.12700000000E+01 0.  1.
         25    2    1    2    0    0  0.00000000000E+00  0.00000000000E+00  0.35265099835E+02  0.12987944200E+03  0.12500016875E+03 0.  0.
    9000005    1    3    3    0    0  0.19339028004E+02 -0.58973533540E+02  0.25224248733E+02  0.67001032726E+02  0.10000000000E+01 0.  0.
    9000005    1    3    3    0    0 -0.19339028004E+02  0.58973533540E+02  0.10040851102E+02  0.62878409276E+02  0.10000000000E+01 0.  0.
<mgrwt>
<rscale>  0 0.12500017E+03</rscale>
<asrwt>0</asrwt>
<pdfrwt beam="1">  1        4 0.12703426E-01 0.12500017E+03</pdfrwt>
<pdfrwt beam="2">  1       -4 0.72780264E-02 0.12500017E+03</pdfrwt>
<totfact> 0.10347048E+04</totfact>
</mgrwt>
</event>
<event>
 5    1  0.3272646E-002  0.1249982E+03  0.7818608E-02  0.1235072E+00
          4   -1    0    0  501    0  0.00000000000E+00  0.00000000000E+00  0.35698000143E+01  0.37889803566E+01  0.12700000000E+01 0. -1.
         -4   -1    0    0    0  501 -0.00000000000E+00 -0.00000000000E+00 -0.10614060247E+04  0.10614067845E+04  0.12700000000E+01 0. -1.
         25    2    1    2    0    0  0.00000000000E+00  0.00000000000E+00 -0.10578362247E+04  0.10651957648E+04  0.12499815678E+03 0.  0.
    9000005    1    3    3    0    0 -0.46610079196E+02  0.13879723104E+02 -0.19450401613E+03  0.20049428542E+03  0.10000000000E+01 0.  0.
    9000005    1    3    3    0    0  0.46610079196E+02 -0.13879723104E+02 -0.86333220852E+03  0.86470147940E+03  0.10000000000E+01 0.  0.
<mgrwt>
<rscale>  0 0.12499816E+03</rscale>
<asrwt>0</asrwt>
<pdfrwt beam="1">  1        4 0.56611932E-03 0.12499816E+03</pdfrwt>
<pdfrwt beam="2">  1       -4 0.16330991E+00 0.12499816E+03</pdfrwt>
<totfact> 0.28526199E+03</totfact>
</mgrwt>
</event>
<event>
 5    1  0.3272646E-002  0.1250015E+03  0.7818608E-02  0.1235067E+00
         -4   -1    0    0    0  501 -0.00000000000E+00  0.00000000000E+00  0.24252830800E+03  0.24253163316E+03  0.12700000000E+01 0. -1.
          4   -1    0    0  501    0  0.00000000000E+00 -0.00000000000E+00 -0.16078281571E+02  0.16128361302E+02  0.12700000000E+01 0. -1.
         25    2    1    2    0    0  0.00000000000E+00  0.00000000000E+00  0.22645002643E+03  0.25865999446E+03  0.12500151304E+03 0.  0.
    9000005    1    3    3    0    0 -0.90845272319E+01 -0.10206409932E+02 -0.12959588645E+02  0.18858694986E+02  0.10000000000E+01 0.  0.
    9000005    1    3    3    0    0  0.90845272319E+01  0.10206409932E+02  0.23940961507E+03  0.23980129947E+03  0.10000000000E+01 0.  0.
<mgrwt>
<rscale>  0 0.12500151E+03</rscale>
<asrwt>0</asrwt>
<pdfrwt beam="2">  1        4 0.24776898E-02 0.12500151E+03</pdfrwt>
<pdfrwt beam="1">  1       -4 0.37316156E-01 0.12500151E+03</pdfrwt>
<totfact> 0.81091747E+03</totfact>
</mgrwt>
</event>
<event>
 5    1  0.3272646E-002  0.1250025E+03  0.7818608E-02  0.1235065E+00
         -4   -1    0    0    0  501 -0.00000000000E+00  0.00000000000E+00  0.87437229047E+02  0.87446451748E+02  0.12700000000E+01 0. -1.
          4   -1    0    0  501    0  0.00000000000E+00 -0.00000000000E+00 -0.44656101750E+02  0.44674157222E+02  0.12700000000E+01 0. -1.
         25    2    1    2    0    0  0.00000000000E+00  0.00000000000E+00  0.42781127297E+02  0.13212060897E+03  0.12500252182E+03 0.  0.
    9000005    1    3    3    0    0  0.48777933820E+01 -0.55653387684E+02 -0.82098039352E+01  0.56475599241E+02  0.10000000000E+01 0.  0.
    9000005    1    3    3    0    0 -0.48777933820E+01  0.55653387684E+02  0.50990931232E+02  0.75645009729E+02  0.10000000000E+01 0.  0.
<mgrwt>
<rscale>  0 0.12500252E+03</rscale>
<asrwt>0</asrwt>
<pdfrwt beam="2">  1        4 0.68722679E-02 0.12500252E+03</pdfrwt>
<pdfrwt beam="1">  1       -4 0.13453980E-01 0.12500252E+03</pdfrwt>
<totfact> 0.10298539E+04</totfact>
</mgrwt>
</event>
<event>
 5    1  0.3272646E-002  0.1250082E+03  0.7818608E-02  0.1235056E+00
          4   -1    0    0  501    0  0.00000000000E+00  0.00000000000E+00  0.27230962257E+02  0.27260561355E+02  0.12700000000E+01 0.  1.
         -4   -1    0    0    0  501 -0.00000000000E+00 -0.00000000000E+00 -0.14335729186E+03  0.14336291721E+03  0.12700000000E+01 0.  1.
         25    2    1    2    0    0  0.00000000000E+00  0.00000000000E+00 -0.11612632960E+03  0.17062347856E+03  0.12500818777E+03 0.  0.
    9000005    1    3    3    0    0  0.46335925224E+02  0.31833724149E+02 -0.20799743154E+02  0.59950256670E+02  0.10000000000E+01 0.  0.
    9000005    1    3    3    0    0 -0.46335925224E+02 -0.31833724149E+02 -0.95326586451E+02  0.11067322189E+03  0.10000000000E+01 0.  0.
<mgrwt>
<rscale>  0 0.12500819E+03</rscale>
<asrwt>0</asrwt>
<pdfrwt beam="1">  1        4 0.41920885E-02 0.12500819E+03</pdfrwt>
<pdfrwt beam="2">  1       -4 0.22057677E-01 0.12500819E+03</pdfrwt>
<totfact> 0.95315040E+03</totfact>
</mgrwt>
</event>
<event>
 5    1  0.3272646E-002  0.1250128E+03  0.7818608E-02  0.1235049E+00
         -4   -1    0    0    0  501 -0.00000000000E+00  0.00000000000E+00  0.11158692614E+02  0.11230731091E+02  0.12700000000E+01 0. -1.
          4   -1    0    0  501    0  0.00000000000E+00 -0.00000000000E+00 -0.34893516269E+03  0.34893747386E+03  0.12700000000E+01 0. -1.
         25    2    1    2    0    0  0.00000000000E+00  0.00000000000E+00 -0.33777647008E+03  0.36016820495E+03  0.12501276782E+03 0.  0.
    9000005    1    3    3    0    0 -0.21071397629E+02 -0.86087521498E+01 -0.11938787252E+01  0.22815340410E+02  0.10000000000E+01 0.  0.
    9000005    1    3    3    0    0  0.21071397629E+02  0.86087521498E+01 -0.33658259135E+03  0.33735286454E+03  0.10000000000E+01 0.  0.
<mgrwt>
<rscale>  0 0.12501277E+03</rscale>
<asrwt>0</asrwt>
<pdfrwt beam="2">  1        4 0.53688044E-01 0.12501277E+03</pdfrwt>
<pdfrwt beam="1">  1       -4 0.17224414E-02 0.12501277E+03</pdfrwt>
<totfact> 0.68600855E+03</totfact>
</mgrwt>
</event>
<event>
 5    1  0.3272646E-002  0.1250427E+03  0.7818608E-02  0.1235003E+00
         -4   -1    0    0    0  501 -0.00000000000E+00  0.00000000000E+00  0.38921673413E+03  0.38921880611E+03  0.12700000000E+01 0.  1.
          4   -1    0    0  501    0  0.00000000000E+00 -0.00000000000E+00 -0.10000776174E+02  0.10081092405E+02  0.12700000000E+01 0.  1.
         25    2    1    2    0    0  0.00000000000E+00  0.00000000000E+00  0.37921595796E+03  0.39929989851E+03  0.12504265745E+03 0.  0.
    9000005    1    3    3    0    0  0.61864531491E+02 -0.15879243525E+01  0.21784210532E+03  0.22646395875E+03  0.10000000000E+01 0.  0.
    9000005    1    3    3    0    0 -0.61864531491E+02  0.15879243525E+01  0.16137385263E+03  0.17283593977E+03  0.10000000000E+01 0.  0.
<mgrwt>
<rscale>  0 0.12504266E+03</rscale>
<asrwt>0</asrwt>
<pdfrwt beam="2">  1        4 0.15449187E-02 0.12504266E+03</pdfrwt>
<pdfrwt beam="1">  1       -4 0.59885828E-01 0.12504266E+03</pdfrwt>
<totfact> 0.64560119E+03</totfact>
</mgrwt>
</event>
<event>
 5    1  0.3272646E-002  0.1250015E+03  0.7818608E-02  0.1235067E+00
         -4   -1    0    0    0  501 -0.00000000000E+00  0.00000000000E+00  0.24605233746E+02  0.24637987493E+02  0.12700000000E+01 0. -1.
          4   -1    0    0  501    0  0.00000000000E+00 -0.00000000000E+00 -0.15861984131E+03  0.15862492540E+03  0.12700000000E+01 0. -1.
         25    2    1    2    0    0  0.00000000000E+00  0.00000000000E+00 -0.13401460756E+03  0.18326291289E+03  0.12500152079E+03 0.  0.
    9000005    1    3    3    0    0 -0.16317475259E+01  0.19286725531E+02 -0.15412171072E+03  0.15533557898E+03  0.10000000000E+01 0.  0.
    9000005    1    3    3    0    0  0.16317475259E+01 -0.19286725531E+02  0.20107103160E+02  0.27927333907E+02  0.10000000000E+01 0.  0.
<mgrwt>
<rscale>  0 0.12500152E+03</rscale>
<asrwt>0</asrwt>
<pdfrwt beam="2">  1        4 0.24405963E-01 0.12500152E+03</pdfrwt>
<pdfrwt beam="1">  1       -4 0.37883313E-02 0.12500152E+03</pdfrwt>
<totfact> 0.93029773E+03</totfact>
</mgrwt>
</event>
<event>
 5    1  0.3272646E-002  0.1249993E+03  0.7818608E-02  0.1235070E+00
         -4   -1    0    0    0  501 -0.00000000000E+00  0.00000000000E+00  0.96363486224E+02  0.96371854694E+02  0.12700000000E+01 0.  1.
          4   -1    0    0  501    0  0.00000000000E+00 -0.00000000000E+00 -0.40516083973E+02  0.40535983527E+02  0.12700000000E+01 0.  1.
         25    2    1    2    0    0  0.00000000000E+00  0.00000000000E+00  0.55847402250E+02  0.13690783822E+03  0.12499929531E+03 0.  0.
    9000005    1    3    3    0    0  0.12992596519E+02  0.39764892256E+02 -0.22922636242E+02  0.47712697185E+02  0.10000000000E+01 0.  0.
    9000005    1    3    3    0    0 -0.12992596519E+02 -0.39764892256E+02  0.78770038492E+02  0.89195141036E+02  0.10000000000E+01 0.  0.
<mgrwt>
<rscale>  0 0.12499930E+03</rscale>
<asrwt>0</asrwt>
<pdfrwt beam="2">  1        4 0.62354182E-02 0.12499930E+03</pdfrwt>
<pdfrwt beam="1">  1       -4 0.14827326E-01 0.12499930E+03</pdfrwt>
<totfact> 0.10198175E+04</totfact>
</mgrwt>
</event>
<event>
 5    1  0.3272646E-002  0.1249902E+03  0.7818608E-02  0.1235085E+00
         -4   -1    0    0    0  501 -0.00000000000E+00  0.00000000000E+00  0.20571182973E+02  0.20610348588E+02  0.12700000000E+01 0.  1.
          4   -1    0    0  501    0  0.00000000000E+00 -0.00000000000E+00 -0.18963782041E+03  0.18964207294E+03  0.12700000000E+01 0.  1.
         25    2    1    2    0    0  0.00000000000E+00  0.00000000000E+00 -0.16906663743E+03  0.21025242153E+03  0.12499021108E+03 0.  0.
    9000005    1    3    3    0    0 -0.10265867968E+02 -0.46179242907E+02 -0.15320810727E+03  0.16034847880E+03  0.10000000000E+01 0.  0.
    9000005    1    3    3    0    0  0.10265867968E+02  0.46179242907E+02 -0.15858530163E+02  0.49903942725E+02  0.10000000000E+01 0.  0.
<mgrwt>
<rscale>  0 0.12499021E+03</rscale>
<asrwt>0</asrwt>
<pdfrwt beam="2">  1        4 0.29178388E-01 0.12499021E+03</pdfrwt>
<pdfrwt beam="1">  1       -4 0.31681374E-02 0.12499021E+03</pdfrwt>
<totfact> 0.88454030E+03</totfact>
</mgrwt>
</event>
<event>
 5    1  0.3272646E-002  0.1250022E+03  0.7818608E-02  0.1235066E+00
         -4   -1    0    0    0  501 -0.00000000000E+00  0.00000000000E+00  0.13467405581E+03  0.13468004384E+03  0.12700000000E+01 0. -1.
          4   -1    0    0  501    0  0.00000000000E+00 -0.00000000000E+00 -0.28985712070E+02  0.29013521059E+02  0.12700000000E+01 0. -1.
         25    2    1    2    0    0  0.00000000000E+00  0.00000000000E+00  0.10568834374E+03  0.16369356490E+03  0.12500222873E+03 0.  0.
    9000005    1    3    3    0    0  0.22319678929E+02  0.54000236263E+02  0.23821249901E+02  0.63108204941E+02  0.10000000000E+01 0.  0.
    9000005    1    3    3    0    0 -0.22319678929E+02 -0.54000236263E+02  0.81867093839E+02  0.10058535996E+03  0.10000000000E+01 0.  0.
<mgrwt>
<rscale>  0 0.12500223E+03</rscale>
<asrwt>0</asrwt>
<pdfrwt beam="2">  1        4 0.44619401E-02 0.12500223E+03</pdfrwt>
<pdfrwt beam="1">  1       -4 0.20721685E-01 0.12500223E+03</pdfrwt>
<totfact> 0.96630545E+03</totfact>
</mgrwt>
</event>
<event>
 5    1  0.3272646E-002  0.1250004E+03  0.7818608E-02  0.1235069E+00
          4   -1    0    0  501    0  0.00000000000E+00  0.00000000000E+00  0.85707847126E+01  0.86643667160E+01  0.12700000000E+01 0. -1.
         -4   -1    0    0    0  501 -0.00000000000E+00 -0.00000000000E+00 -0.45319708947E+03  0.45319886894E+03  0.12700000000E+01 0. -1.
         25    2    1    2    0    0  0.00000000000E+00  0.00000000000E+00 -0.44462630476E+03  0.46186323565E+03  0.12500039026E+03 0.  0.
    9000005    1    3    3    0    0  0.44439725268E+02 -0.43788600690E+02 -0.20901992134E+03  0.21813449578E+03  0.10000000000E+01 0.  0.
    9000005    1    3    3    0    0 -0.44439725268E+02  0.43788600690E+02 -0.23560638342E+03  0.24372873987E+03  0.10000000000E+01 0.  0.
<mgrwt>
<rscale>  0 0.12500039E+03</rscale>
<asrwt>0</asrwt>
<pdfrwt beam="1">  1        4 0.13259181E-02 0.12500039E+03</pdfrwt>
<pdfrwt beam="2">  1       -4 0.69729946E-01 0.12500039E+03</pdfrwt>
<totfact> 0.58949188E+03</totfact>
</mgrwt>
</event>
<event>
 5    1  0.3272646E-002  0.1250042E+03  0.7818608E-02  0.1235063E+00
         -4   -1    0    0    0  501 -0.00000000000E+00  0.00000000000E+00  0.87215623154E+01  0.88135435111E+01  0.12700000000E+01 0. -1.
          4   -1    0    0  501    0  0.00000000000E+00 -0.00000000000E+00 -0.44547192622E+03  0.44547373655E+03  0.12700000000E+01 0. -1.
         25    2    1    2    0    0  0.00000000000E+00  0.00000000000E+00 -0.43675036391E+03  0.45428728006E+03  0.12500420972E+03 0.  0.
    9000005    1    3    3    0    0 -0.14947470183E+02 -0.40385504829E+02 -0.38296352150E+03  0.38537835261E+03  0.10000000000E+01 0.  0.
    9000005    1    3    3    0    0  0.14947470183E+02  0.40385504829E+02 -0.53786842414E+02  0.68908927448E+02  0.10000000000E+01 0.  0.
<mgrwt>
<rscale>  0 0.12500421E+03</rscale>
<asrwt>0</asrwt>
<pdfrwt beam="2">  1        4 0.68541340E-01 0.12500421E+03</pdfrwt>
<pdfrwt beam="1">  1       -4 0.13489939E-02 0.12500421E+03</pdfrwt>
<totfact> 0.59588662E+03</totfact>
</mgrwt>
</event>
<event>
 5    1  0.3272646E-002  0.1249903E+03  0.7818608E-02  0.1235084E+00
         -4   -1    0    0    0  501 -0.00000000000E+00  0.00000000000E+00  0.40235490207E+02  0.40255528467E+02  0.12700000000E+01 0.  1.
          4   -1    0    0  501    0  0.00000000000E+00 -0.00000000000E+00 -0.97021336126E+02  0.97029647859E+02  0.12700000000E+01 0.  1.
         25    2    1    2    0    0  0.00000000000E+00  0.00000000000E+00 -0.56785845919E+02  0.13728517633E+03  0.12499034900E+03 0.  0.
    9000005    1    3    3    0    0  0.34687973774E+02  0.47058131604E+02 -0.52629850244E+02  0.78667810515E+02  0.10000000000E+01 0.  0.
    9000005    1    3    3    0    0 -0.34687973774E+02 -0.47058131604E+02 -0.41559956755E+01  0.58617365811E+02  0.10000000000E+01 0.  0.
<mgrwt>
<rscale>  0 0.12499035E+03</rscale>
<asrwt>0</asrwt>
<pdfrwt beam="2">  1        4 0.14928540E-01 0.12499035E+03</pdfrwt>
<pdfrwt beam="1">  1       -4 0.61922562E-02 0.12499035E+03</pdfrwt>
<totfact> 0.10192344E+04</totfact>
</mgrwt>
</event>
<event>
 5    1  0.3272646E-002  0.1249953E+03  0.7818608E-02  0.1235077E+00
          4   -1    0    0  501    0  0.00000000000E+00  0.00000000000E+00  0.15526911506E+03  0.15527430886E+03  0.12700000000E+01 0.  1.
         -4   -1    0    0    0  501 -0.00000000000E+00 -0.00000000000E+00 -0.25134411519E+02  0.25166476560E+02  0.12700000000E+01 0.  1.
         25    2    1    2    0    0  0.00000000000E+00  0.00000000000E+00  0.13013470355E+03  0.18044078542E+03  0.12499534382E+03 0.  0.
    9000005    1    3    3    0    0  0.45706667205E+02 -0.41149220167E+02  0.49083247023E+02  0.78692584693E+02  0.10000000000E+01 0.  0.
    9000005    1    3    3    0    0 -0.45706667205E+02  0.41149220167E+02  0.81051456522E+02  0.10174820073E+03  0.10000000000E+01 0.  0.
<mgrwt>
<rscale>  0 0.12499534E+03</rscale>
<asrwt>0</asrwt>
<pdfrwt beam="1">  1        4 0.23890423E-01 0.12499534E+03</pdfrwt>
<pdfrwt beam="2">  1       -4 0.38696985E-02 0.12499534E+03</pdfrwt>
<totfact> 0.93547485E+03</totfact>
</mgrwt>
</event>
<event>
 5    1  0.3272646E-002  0.1250023E+03  0.7818608E-02  0.1235066E+00
         -4   -1    0    0    0  501 -0.00000000000E+00  0.00000000000E+00  0.17154200196E+02  0.17201147763E+02  0.12700000000E+01 0. -1.
          4   -1    0    0  501    0  0.00000000000E+00 -0.00000000000E+00 -0.22736236889E+03  0.22736591584E+03  0.12700000000E+01 0. -1.
         25    2    1    2    0    0  0.00000000000E+00  0.00000000000E+00 -0.21020816869E+03  0.24456706360E+03  0.12500229764E+03 0.  0.
    9000005    1    3    3    0    0  0.32701914529E+01 -0.22957392978E+02  0.84346203731E+01  0.24695725649E+02  0.10000000000E+01 0.  0.
    9000005    1    3    3    0    0 -0.32701914529E+01  0.22957392978E+02 -0.21864278906E+03  0.21987133796E+03  0.10000000000E+01 0.  0.
<mgrwt>
<rscale>  0 0.12500230E+03</rscale>
<asrwt>0</asrwt>
<pdfrwt beam="2">  1        4 0.34982708E-01 0.12500230E+03</pdfrwt>
<pdfrwt beam="1">  1       -4 0.26429921E-02 0.12500230E+03</pdfrwt>
<totfact> 0.83117597E+03</totfact>
</mgrwt>
</event>
<event>
 5    1  0.3272646E-002  0.1250000E+03  0.7818608E-02  0.1235069E+00
         -4   -1    0    0    0  501 -0.00000000000E+00  0.00000000000E+00  0.11034789958E+03  0.11035520759E+03  0.12700000000E+01 0.  1.
          4   -1    0    0  501    0  0.00000000000E+00 -0.00000000000E+00 -0.35379552120E+02  0.35402339022E+02  0.12700000000E+01 0.  1.
         25    2    1    2    0    0  0.00000000000E+00  0.00000000000E+00  0.74968347465E+02  0.14575754661E+03  0.12500003709E+03 0.  0.
    9000005    1    3    3    0    0  0.11267297432E+02  0.18249229723E+02  0.10592768528E+03  0.10808173243E+03  0.10000000000E+01 0.  0.
    9000005    1    3    3    0    0 -0.11267297432E+02 -0.18249229723E+02 -0.30959337811E+02  0.37675814186E+02  0.10000000000E+01 0.  0.
<mgrwt>
<rscale>  0 0.12500004E+03</rscale>
<asrwt>0</asrwt>
<pdfrwt beam="2">  1        4 0.54453231E-02 0.12500004E+03</pdfrwt>
<pdfrwt beam="1">  1       -4 0.16978915E-01 0.12500004E+03</pdfrwt>
<totfact> 0.10015611E+04</totfact>
</mgrwt>
</event>
<event>
 5    1  0.3272646E-002  0.1250007E+03  0.7818608E-02  0.1235068E+00
          4   -1    0    0  501    0  0.00000000000E+00  0.00000000000E+00  0.15962560760E+03  0.15963065965E+03  0.12700000000E+01 0.  1.
         -4   -1    0    0    0  501 -0.00000000000E+00 -0.00000000000E+00 -0.24449665790E+02  0.24482627662E+02  0.12700000000E+01 0.  1.
         25    2    1    2    0    0  0.00000000000E+00  0.00000000000E+00  0.13517594181E+03  0.18411328731E+03  0.12500066929E+03 0.  0.
    9000005    1    3    3    0    0  0.11683832185E+02 -0.59666594551E+02  0.46310966042E+02  0.76435070587E+02  0.10000000000E+01 0.  0.
    9000005    1    3    3    0    0 -0.11683832185E+02  0.59666594551E+02  0.88864975766E+02  0.10767821673E+03  0.10000000000E+01 0.  0.
<mgrwt>
<rscale>  0 0.12500067E+03</rscale>
<asrwt>0</asrwt>
<pdfrwt beam="1">  1        4 0.24560709E-01 0.12500067E+03</pdfrwt>
<pdfrwt beam="2">  1       -4 0.37644113E-02 0.12500067E+03</pdfrwt>
<totfact> 0.92880401E+03</totfact>
</mgrwt>
</event>
<event>
 5    1  0.3272646E-002  0.1249727E+03  0.7818608E-02  0.1235112E+00
          4   -1    0    0  501    0  0.00000000000E+00  0.00000000000E+00  0.34432165356E+02  0.34455578809E+02  0.12700000000E+01 0.  1.
         -4   -1    0    0    0  501 -0.00000000000E+00 -0.00000000000E+00 -0.11333261132E+03  0.11333972688E+03  0.12700000000E+01 0.  1.
         25    2    1    2    0    0  0.00000000000E+00  0.00000000000E+00 -0.78900445964E+02  0.14779530569E+03  0.12497268505E+03 0.  0.
    9000005    1    3    3    0    0 -0.41330626552E+02  0.33011855490E+02 -0.12848433617E+00  0.52905763413E+02  0.10000000000E+01 0.  0.
    9000005    1    3    3    0    0  0.41330626552E+02 -0.33011855490E+02 -0.78771961628E+02  0.94889542273E+02  0.10000000000E+01 0.  0.
<mgrwt>
<rscale>  0 0.12497269E+03</rscale>
<asrwt>0</asrwt>
<pdfrwt beam="1">  1        4 0.52996047E-02 0.12497269E+03</pdfrwt>
<pdfrwt beam="2">  1       -4 0.17438135E-01 0.12497269E+03</pdfrwt>
<totfact> 0.99806356E+03</totfact>
</mgrwt>
</event>
<event>
 5    1  0.3272646E-002  0.1249927E+03  0.7818608E-02  0.1235081E+00
         -4   -1    0    0    0  501 -0.00000000000E+00  0.00000000000E+00  0.29111542379E+03  0.29111819399E+03  0.12700000000E+01 0. -1.
          4   -1    0    0  501    0  0.00000000000E+00 -0.00000000000E+00 -0.13383761709E+02  0.13443882530E+02  0.12700000000E+01 0. -1.
         25    2    1    2    0    0  0.00000000000E+00  0.00000000000E+00  0.27773166208E+03  0.30456207652E+03  0.12499272910E+03 0.  0.
    9000005    1    3    3    0    0  0.20930632046E+02 -0.21356443022E+02  0.51699349348E+01  0.30363090153E+02  0.10000000000E+01 0.  0.
    9000005    1    3    3    0    0 -0.20930632046E+02  0.21356443022E+02  0.27256172715E+03  0.27419898636E+03  0.10000000000E+01 0.  0.
<mgrwt>
<rscale>  0 0.12499273E+03</rscale>
<asrwt>0</asrwt>
<pdfrwt beam="2">  1        4 0.20638782E-02 0.12499273E+03</pdfrwt>
<pdfrwt beam="1">  1       -4 0.44791822E-01 0.12499273E+03</pdfrwt>
<totfact> 0.75042230E+03</totfact>
</mgrwt>
</event>
<event>
 5    1  0.3272646E-002  0.1250089E+03  0.7818608E-02  0.1235055E+00
          4   -1    0    0  501    0  0.00000000000E+00  0.00000000000E+00  0.35960096247E+01  0.38136839435E+01  0.12700000000E+01 0.  1.
         -4   -1    0    0    0  501 -0.00000000000E+00 -0.00000000000E+00 -0.10542933972E+04  0.10542941621E+04  0.12700000000E+01 0.  1.
         25    2    1    2    0    0  0.00000000000E+00  0.00000000000E+00 -0.10506973875E+04  0.10581078460E+04  0.12500885426E+03 0.  0.
    9000005    1    3    3    0    0  0.15828389965E+02 -0.35553068102E+02 -0.11144320836E+03  0.11804722474E+03  0.10000000000E+01 0.  0.
    9000005    1    3    3    0    0 -0.15828389965E+02  0.35553068102E+02 -0.93925417918E+03  0.94006062129E+03  0.10000000000E+01 0.  0.
<mgrwt>
<rscale>  0 0.12500885E+03</rscale>
<asrwt>0</asrwt>
<pdfrwt beam="1">  1        4 0.57003611E-03 0.12500885E+03</pdfrwt>
<pdfrwt beam="2">  1       -4 0.16221555E+00 0.12500885E+03</pdfrwt>
<totfact> 0.28737452E+03</totfact>
</mgrwt>
</event>
<event>
 5    1  0.3272646E-002  0.1250091E+03  0.7818608E-02  0.1235055E+00
         -4   -1    0    0    0  501 -0.00000000000E+00  0.00000000000E+00  0.12515407646E+03  0.12516051995E+03  0.12700000000E+01 0. -1.
          4   -1    0    0  501    0  0.00000000000E+00 -0.00000000000E+00 -0.31195904541E+02  0.31221744989E+02  0.12700000000E+01 0. -1.
         25    2    1    2    0    0  0.00000000000E+00  0.00000000000E+00  0.93958171917E+02  0.15638226494E+03  0.12500909854E+03 0.  0.
    9000005    1    3    3    0    0  0.51346755114E+01  0.60243975085E+02  0.27194922101E+02  0.66304337828E+02  0.10000000000E+01 0.  0.
    9000005    1    3    3    0    0 -0.51346755114E+01 -0.60243975085E+02  0.66763249816E+02  0.90077927111E+02  0.10000000000E+01 0.  0.
<mgrwt>
<rscale>  0 0.12500910E+03</rscale>
<asrwt>0</asrwt>
<pdfrwt beam="2">  1        4 0.48018533E-02 0.12500910E+03</pdfrwt>
<pdfrwt beam="1">  1       -4 0.19256957E-01 0.12500910E+03</pdfrwt>
<totfact> 0.98024768E+03</totfact>
</mgrwt>
</event>
<event>
 5    1  0.3272646E-002  0.1249932E+03  0.7818608E-02  0.1235080E+00
         -4   -1    0    0    0  501 -0.00000000000E+00  0.00000000000E+00  0.70872989075E+02  0.70884366968E+02  0.12700000000E+01 0.  1.
          4   -1    0    0  501    0  0.00000000000E+00 -0.00000000000E+00 -0.55087055715E+02  0.55101693325E+02  0.12700000000E+01 0.  1.
         25    2    1    2    0    0  0.00000000000E+00  0.00000000000E+00  0.15785933361E+02  0.12598606029E+03  0.12499316660E+03 0.  0.
    9000005    1    3    3    0    0  0.15204392666E+02  0.49550022556E+02  0.43076473484E+02  0.67401490039E+02  0.10000000000E+01 0.  0.
    9000005    1    3    3    0    0 -0.15204392666E+02 -0.49550022556E+02 -0.27290540123E+02  0.58584570254E+02  0.10000000000E+01 0.  0.
<mgrwt>
<rscale>  0 0.12499317E+03</rscale>
<asrwt>0</asrwt>
<pdfrwt beam="2">  1        4 0.84769329E-02 0.12499317E+03</pdfrwt>
<pdfrwt beam="1">  1       -4 0.10905538E-01 0.12499317E+03</pdfrwt>
<totfact> 0.10432871E+04</totfact>
</mgrwt>
</event>
<event>
 5    1  0.3272646E-002  0.1250001E+03  0.7818608E-02  0.1235069E+00
         -4   -1    0    0    0  501 -0.00000000000E+00  0.00000000000E+00  0.67285366054E+01  0.68473429044E+01  0.12700000000E+01 0. -1.
          4   -1    0    0  501    0  0.00000000000E+00 -0.00000000000E+00 -0.57535079343E+03  0.57535219509E+03  0.12700000000E+01 0. -1.
         25    2    1    2    0    0  0.00000000000E+00  0.00000000000E+00 -0.56862225682E+03  0.58219953800E+03  0.12500012436E+03 0.  0.
    9000005    1    3    3    0    0 -0.23986554147E+02  0.12892855045E+02 -0.54628471102E+03  0.54696395309E+03  0.10000000000E+01 0.  0.
    9000005    1    3    3    0    0  0.23986554147E+02 -0.12892855045E+02 -0.22337545806E+02  0.35235584906E+02  0.10000000000E+01 0.  0.
<mgrwt>
<rscale>  0 0.12500012E+03</rscale>
<asrwt>0</asrwt>
<pdfrwt beam="2">  1        4 0.88524715E-01 0.12500012E+03</pdfrwt>
<pdfrwt beam="1">  1       -4 0.10444067E-02 0.12500012E+03</pdfrwt>
<totfact> 0.50010735E+03</totfact>
</mgrwt>
</event>
<event>
 5    1  0.3272646E-002  0.1250016E+03  0.7818608E-02  0.1235067E+00
          4   -1    0    0  501    0  0.00000000000E+00  0.00000000000E+00  0.55210308161E+01  0.56652167895E+01  0.12700000000E+01 0.  1.
         -4   -1    0    0    0  501 -0.00000000000E+00 -0.00000000000E+00 -0.69827562336E+03  0.69827677828E+03  0.12700000000E+01 0.  1.
         25    2    1    2    0    0  0.00000000000E+00  0.00000000000E+00 -0.69275459254E+03  0.70394199506E+03  0.12500162769E+03 0.  0.
    9000005    1    3    3    0    0  0.45871812818E+02 -0.27401544419E+02 -0.52888220807E+03  0.53157544889E+03  0.10000000000E+01 0.  0.
    9000005    1    3    3    0    0 -0.45871812818E+02  0.27401544419E+02 -0.16387238448E+03  0.17236654618E+03  0.10000000000E+01 0.  0.
<mgrwt>
<rscale>  0 0.12500163E+03</rscale>
<asrwt>0</asrwt>
<pdfrwt beam="1">  1        4 0.86056998E-03 0.12500163E+03</pdfrwt>
<pdfrwt beam="2">  1       -4 0.10743813E+00 0.12500163E+03</pdfrwt>
<totfact> 0.42877912E+03</totfact>
</mgrwt>
</event>
<event>
 5    1  0.3272646E-002  0.1249997E+03  0.7818608E-02  0.1235070E+00
          4   -1    0    0  501    0  0.00000000000E+00  0.00000000000E+00  0.40724098131E+02  0.40743896090E+02  0.12700000000E+01 0. -1.
         -4   -1    0    0    0  501 -0.00000000000E+00 -0.00000000000E+00 -0.95872039069E+02  0.95880450433E+02  0.12700000000E+01 0. -1.
         25    2    1    2    0    0  0.00000000000E+00  0.00000000000E+00 -0.55147940938E+02  0.13662434652E+03  0.12499966669E+03 0.  0.
    9000005    1    3    3    0    0 -0.19334147373E+02 -0.32720504029E+02 -0.81793580500E+02  0.90197729737E+02  0.10000000000E+01 0.  0.
    9000005    1    3    3    0    0  0.19334147373E+02  0.32720504029E+02  0.26645639562E+02  0.46426616787E+02  0.10000000000E+01 0.  0.
<mgrwt>
<rscale>  0 0.12499967E+03</rscale>
<asrwt>0</asrwt>
<pdfrwt beam="1">  1        4 0.62674158E-02 0.12499967E+03</pdfrwt>
<pdfrwt beam="2">  1       -4 0.14751714E-01 0.12499967E+03</pdfrwt>
<totfact> 0.10204023E+04</totfact>
</mgrwt>
</event>
<event>
 5    1  0.3272646E-002  0.1250091E+03  0.7818608E-02  0.1235055E+00
          4   -1    0    0  501    0  0.00000000000E+00  0.00000000000E+00  0.11947961525E+02  0.12015268811E+02  0.12700000000E+01 0. -1.
         -4   -1    0    0    0  501 -0.00000000000E+00 -0.00000000000E+00 -0.32599942615E+03  0.32600189992E+03  0.12700000000E+01 0. -1.
         25    2    1    2    0    0  0.00000000000E+00  0.00000000000E+00 -0.31405146463E+03  0.33801716873E+03  0.12500913536E+03 0.  0.
    9000005    1    3    3    0    0  0.30185198573E+02 -0.33773765187E+00 -0.90591751776E+01  0.31532981694E+02  0.10000000000E+01 0.  0.
    9000005    1    3    3    0    0 -0.30185198573E+02  0.33773765187E+00 -0.30499228945E+03  0.30648418704E+03  0.10000000000E+01 0.  0.
<mgrwt>
<rscale>  0 0.12500914E+03</rscale>
<asrwt>0</asrwt>
<pdfrwt beam="1">  1        4 0.18435160E-02 0.12500914E+03</pdfrwt>
<pdfrwt beam="2">  1       -4 0.50159119E-01 0.12500914E+03</pdfrwt>
<totfact> 0.71048877E+03</totfact>
</mgrwt>
</event>
<event>
 5    1  0.3272646E-002  0.1250002E+03  0.7818608E-02  0.1235069E+00
         -4   -1    0    0    0  501 -0.00000000000E+00  0.00000000000E+00  0.42733425585E+01  0.44580664667E+01  0.12700000000E+01 0.  1.
          4   -1    0    0  501    0  0.00000000000E+00 -0.00000000000E+00 -0.89457521664E+03  0.89457611813E+03  0.12700000000E+01 0.  1.
         25    2    1    2    0    0  0.00000000000E+00  0.00000000000E+00 -0.89030187409E+03  0.89903418460E+03  0.12500015231E+03 0.  0.
    9000005    1    3    3    0    0  0.49541378587E+02  0.37242657351E+02 -0.50264219636E+03  0.50644993956E+03  0.10000000000E+01 0.  0.
    9000005    1    3    3    0    0 -0.49541378587E+02 -0.37242657351E+02 -0.38765967772E+03  0.39258424504E+03  0.10000000000E+01 0.  0.
<mgrwt>
<rscale>  0 0.12500015E+03</rscale>
<asrwt>0</asrwt>
<pdfrwt beam="2">  1        4 0.13764109E+00 0.12500015E+03</pdfrwt>
<pdfrwt beam="1">  1       -4 0.67171690E-03 0.12500015E+03</pdfrwt>
<totfact> 0.34196846E+03</totfact>
</mgrwt>
</event>
<event>
 5    1  0.3272646E-002  0.1249904E+03  0.7818608E-02  0.1235084E+00
          4   -1    0    0  501    0  0.00000000000E+00  0.00000000000E+00  0.18074170376E+01  0.22089944201E+01  0.12700000000E+01 0.  1.
         -4   -1    0    0    0  501 -0.00000000000E+00 -0.00000000000E+00 -0.19444449903E+04  0.19444454051E+04  0.12700000000E+01 0.  1.
         25    2    1    2    0    0  0.00000000000E+00  0.00000000000E+00 -0.19426375733E+04  0.19466543995E+04  0.12499043927E+03 0.  0.
    9000005    1    3    3    0    0  0.27184190313E+02 -0.53401076183E+02 -0.12472971555E+04  0.12487361007E+04  0.10000000000E+01 0.  0.
    9000005    1    3    3    0    0 -0.27184190313E+02  0.53401076183E+02 -0.69534041782E+03  0.69791829879E+03  0.10000000000E+01 0.  0.
<mgrwt>
<rscale>  0 0.12499044E+03</rscale>
<asrwt>0</asrwt>
<pdfrwt beam="1">  1        4 0.30898819E-03 0.12499044E+03</pdfrwt>
<pdfrwt beam="2">  1       -4 0.29917480E+00 0.12499044E+03</pdfrwt>
<totfact> 0.10576012E+03</totfact>
</mgrwt>
</event>
<event>
 5    1  0.3272646E-002  0.1250134E+03  0.7818608E-02  0.1235048E+00
          4   -1    0    0  501    0  0.00000000000E+00  0.00000000000E+00  0.93166695092E+02  0.93175350680E+02  0.12700000000E+01 0. -1.
         -4   -1    0    0    0  501 -0.00000000000E+00 -0.00000000000E+00 -0.41916295684E+02  0.41935530805E+02  0.12700000000E+01 0. -1.
         25    2    1    2    0    0  0.00000000000E+00  0.00000000000E+00  0.51250399408E+02  0.13511088149E+03  0.12501338671E+03 0.  0.
    9000005    1    3    3    0    0  0.27930518850E+02  0.50748532417E+02  0.50984417502E+02  0.77174725485E+02  0.10000000000E+01 0.  0.
    9000005    1    3    3    0    0 -0.27930518850E+02 -0.50748532417E+02  0.26598190623E+00  0.57936156000E+02  0.10000000000E+01 0.  0.
<mgrwt>
<rscale>  0 0.12501339E+03</rscale>
<asrwt>0</asrwt>
<pdfrwt beam="1">  1        4 0.14335483E-01 0.12501339E+03</pdfrwt>
<pdfrwt beam="2">  1       -4 0.64508064E-02 0.12501339E+03</pdfrwt>
<totfact> 0.10232645E+04</totfact>
</mgrwt>
</event>
<event>
 5    1  0.3272646E-002  0.1249941E+03  0.7818608E-02  0.1235078E+00
         -4   -1    0    0    0  501 -0.00000000000E+00  0.00000000000E+00  0.40903468369E+03  0.40903665528E+03  0.12700000000E+01 0. -1.
          4   -1    0    0  501    0  0.00000000000E+00 -0.00000000000E+00 -0.95047960473E+01  0.95892673287E+01  0.12700000000E+01 0. -1.
         25    2    1    2    0    0  0.00000000000E+00  0.00000000000E+00  0.39952988764E+03  0.41862592260E+03  0.12499412770E+03 0.  0.
    9000005    1    3    3    0    0 -0.28529922154E+02  0.37262831448E+02  0.61577582629E+02  0.77429153089E+02  0.10000000000E+01 0.  0.
    9000005    1    3    3    0    0  0.28529922154E+02 -0.37262831448E+02  0.33795230501E+03  0.34119676952E+03  0.10000000000E+01 0.  0.
<mgrwt>
<rscale>  0 0.12499413E+03</rscale>
<asrwt>0</asrwt>
<pdfrwt beam="2">  1        4 0.14689254E-02 0.12499413E+03</pdfrwt>
<pdfrwt beam="1">  1       -4 0.62935079E-01 0.12499413E+03</pdfrwt>
<totfact> 0.62788811E+03</totfact>
</mgrwt>
</event>
<event>
 5    1  0.3272646E-002  0.1250033E+03  0.7818608E-02  0.1235064E+00
          4   -1    0    0  501    0  0.00000000000E+00  0.00000000000E+00  0.93528872580E+02  0.93537494653E+02  0.12700000000E+01 0. -1.
         -4   -1    0    0    0  501 -0.00000000000E+00 -0.00000000000E+00 -0.41747203867E+02  0.41766516862E+02  0.12700000000E+01 0. -1.
         25    2    1    2    0    0  0.00000000000E+00  0.00000000000E+00  0.51781668712E+02  0.13530401151E+03  0.12500333723E+03 0.  0.
    9000005    1    3    3    0    0 -0.47178810513E+01  0.39561567382E+02 -0.26223058462E+02  0.47707701793E+02  0.10000000000E+01 0.  0.
    9000005    1    3    3    0    0  0.47178810513E+01 -0.39561567382E+02  0.78004727174E+02  0.87596309722E+02  0.10000000000E+01 0.  0.
<mgrwt>
<rscale>  0 0.12500334E+03</rscale>
<asrwt>0</asrwt>
<pdfrwt beam="1">  1        4 0.14391206E-01 0.12500334E+03</pdfrwt>
<pdfrwt beam="2">  1       -4 0.64247957E-02 0.12500334E+03</pdfrwt>
<totfact> 0.10230897E+04</totfact>
</mgrwt>
</event>
<event>
 5    1  0.3272646E-002  0.1250023E+03  0.7818608E-02  0.1235066E+00
         -4   -1    0    0    0  501 -0.00000000000E+00  0.00000000000E+00  0.33491306264E+01  0.35818397442E+01  0.12700000000E+01 0.  1.
          4   -1    0    0  501    0  0.00000000000E+00 -0.00000000000E+00 -0.11269962837E+04  0.11269969993E+04  0.12700000000E+01 0.  1.
         25    2    1    2    0    0  0.00000000000E+00  0.00000000000E+00 -0.11236471531E+04  0.11305788391E+04  0.12500234649E+03 0.  0.
    9000005    1    3    3    0    0 -0.23000202099E+02 -0.49057192114E+02 -0.84347965842E+03  0.84521864128E+03  0.10000000000E+01 0.  0.
    9000005    1    3    3    0    0  0.23000202099E+02  0.49057192114E+02 -0.28016749469E+03  0.28536019778E+03  0.10000000000E+01 0.  0.
<mgrwt>
<rscale>  0 0.12500235E+03</rscale>
<asrwt>0</asrwt>
<pdfrwt beam="2">  1        4 0.17340171E+00 0.12500235E+03</pdfrwt>
<pdfrwt beam="1">  1       -4 0.53320751E-03 0.12500235E+03</pdfrwt>
<totfact> 0.26603903E+03</totfact>
</mgrwt>
</event>
<event>
 5    1  0.3272646E-002  0.1250217E+03  0.7818608E-02  0.1235035E+00
          4   -1    0    0  501    0  0.00000000000E+00  0.00000000000E+00  0.26923916157E+03  0.26924215684E+03  0.12700000000E+01 0. -1.
         -4   -1    0    0    0  501 -0.00000000000E+00 -0.00000000000E+00 -0.14482659773E+02  0.14538236967E+02  0.12700000000E+01 0. -1.
         25    2    1    2    0    0  0.00000000000E+00  0.00000000000E+00  0.25475650179E+03  0.28378039381E+03  0.12502174493E+03 0.  0.
    9000005    1    3    3    0    0 -0.10411368261E+02 -0.60080883552E+02  0.15854220311E+03  0.16986682820E+03  0.10000000000E+01 0.  0.
    9000005    1    3    3    0    0  0.10411368261E+02  0.60080883552E+02  0.96214298687E+02  0.11391356561E+03  0.10000000000E+01 0.  0.
<mgrwt>
<rscale>  0 0.12502174E+03</rscale>
<asrwt>0</asrwt>
<pdfrwt beam="1">  1        4 0.41425914E-01 0.12502174E+03</pdfrwt>
<pdfrwt beam="2">  1       -4 0.22326071E-02 0.12502174E+03</pdfrwt>
<totfact> 0.77641982E+03</totfact>
</mgrwt>
</event>
<event>
 5    1  0.3272646E-002  0.1249974E+03  0.7818608E-02  0.1235073E+00
          4   -1    0    0  501    0  0.00000000000E+00  0.00000000000E+00  0.76310331259E+02  0.76320898559E+02  0.12700000000E+01 0. -1.
         -4   -1    0    0    0  501 -0.00000000000E+00 -0.00000000000E+00 -0.51164896682E+02  0.51180656038E+02  0.12700000000E+01 0. -1.
         25    2    1    2    0    0  0.00000000000E+00  0.00000000000E+00  0.25145434576E+02  0.12750155460E+03  0.12499741415E+03 0.  0.
    9000005    1    3    3    0    0 -0.37429765529E+02 -0.34430666111E+02 -0.24467708621E+02  0.56445787102E+02  0.10000000000E+01 0.  0.
    9000005    1    3    3    0    0  0.37429765529E+02  0.34430666111E+02  0.49613143197E+02  0.71055767495E+02  0.10000000000E+01 0.  0.
<mgrwt>
<rscale>  0 0.12499741E+03</rscale>
<asrwt>0</asrwt>
<pdfrwt beam="1">  1        4 0.11742076E-01 0.12499741E+03</pdfrwt>
<pdfrwt beam="2">  1       -4 0.78735476E-02 0.12499741E+03</pdfrwt>
<totfact> 0.10398874E+04</totfact>
</mgrwt>
</event>
<event>
 5    1  0.3272646E-002  0.1250024E+03  0.7818608E-02  0.1235066E+00
          4   -1    0    0  501    0  0.00000000000E+00  0.00000000000E+00  0.97782881272E+02  0.97791128278E+02  0.12700000000E+01 0.  1.
         -4   -1    0    0    0  501 -0.00000000000E+00 -0.00000000000E+00 -0.39929678636E+02  0.39949870288E+02  0.12700000000E+01 0.  1.
         25    2    1    2    0    0  0.00000000000E+00  0.00000000000E+00  0.57853202636E+02  0.13774099857E+03  0.12500235850E+03 0.  0.
    9000005    1    3    3    0    0  0.12408182917E+02 -0.17550680453E+02 -0.35733929157E+02  0.41712145481E+02  0.10000000000E+01 0.  0.
    9000005    1    3    3    0    0 -0.12408182917E+02  0.17550680453E+02  0.93587131793E+02  0.96028853085E+02  0.10000000000E+01 0.  0.
<mgrwt>
<rscale>  0 0.12500236E+03</rscale>
<asrwt>0</asrwt>
<pdfrwt beam="1">  1        4 0.15045708E-01 0.12500236E+03</pdfrwt>
<pdfrwt beam="2">  1       -4 0.61452151E-02 0.12500236E+03</pdfrwt>
<totfact> 0.10180074E+04</totfact>
</mgrwt>
</event>
<event>
 5    1  0.3272646E-002  0.1249992E+03  0.7818608E-02  0.1235071E+00
          4   -1    0    0  501    0  0.00000000000E+00  0.00000000000E+00  0.47487261231E+02  0.47504240644E+02  0.12700000000E+01 0. -1.
         -4   -1    0    0    0  501 -0.00000000000E+00 -0.00000000000E+00 -0.82221205595E+02  0.82231013307E+02  0.12700000000E+01 0. -1.
         25    2    1    2    0    0  0.00000000000E+00  0.00000000000E+00 -0.34733944365E+02  0.12973525395E+03  0.12499915690E+03 0.  0.
    9000005    1    3    3    0    0 -0.21960039215E+02  0.74335990250E+01 -0.77597592581E+02  0.80993136074E+02  0.10000000000E+01 0.  0.
    9000005    1    3    3    0    0  0.21960039215E+02 -0.74335990250E+01  0.42863648216E+02  0.48742117878E+02  0.10000000000E+01 0.  0.
<mgrwt>
<rscale>  0 0.12499916E+03</rscale>
<asrwt>0</asrwt>
<pdfrwt beam="1">  1        4 0.73077930E-02 0.12499916E+03</pdfrwt>
<pdfrwt beam="2">  1       -4 0.12651477E-01 0.12499916E+03</pdfrwt>
<totfact> 0.10350371E+04</totfact>
</mgrwt>
</event>
<event>
 5    1  0.3272646E-002  0.1250170E+03  0.7818608E-02  0.1235043E+00
         -4   -1    0    0    0  501 -0.00000000000E+00  0.00000000000E+00  0.36579969559E+03  0.36580190020E+03  0.12700000000E+01 0. -1.
          4   -1    0    0  501    0  0.00000000000E+00 -0.00000000000E+00 -0.10641566591E+02  0.10717081670E+02  0.12700000000E+01 0. -1.
         25    2    1    2    0    0  0.00000000000E+00  0.00000000000E+00  0.35515812899E+03  0.37651898187E+03  0.12501698732E+03 0.  0.
    9000005    1    3    3    0    0  0.23921711139E+02  0.57224740167E+02  0.20078954440E+03  0.21015318292E+03  0.10000000000E+01 0.  0.
    9000005    1    3    3    0    0 -0.23921711139E+02 -0.57224740167E+02  0.15436858460E+03  0.16636579895E+03  0.10000000000E+01 0.  0.
<mgrwt>
<rscale>  0 0.12501699E+03</rscale>
<asrwt>0</asrwt>
<pdfrwt beam="2">  1        4 0.16431422E-02 0.12501699E+03</pdfrwt>
<pdfrwt beam="1">  1       -4 0.56282865E-01 0.12501699E+03</pdfrwt>
<totfact> 0.66877280E+03</totfact>
</mgrwt>
</event>
<event>
 5    1  0.3272646E-002  0.1250003E+03  0.7818608E-02  0.1235069E+00
         -4   -1    0    0    0  501 -0.00000000000E+00  0.00000000000E+00  0.18225060615E+02  0.18269256537E+02  0.12700000000E+01 0.  1.
          4   -1    0    0  501    0  0.00000000000E+00 -0.00000000000E+00 -0.21402925334E+03  0.21403302125E+03  0.12700000000E+01 0.  1.
         25    2    1    2    0    0  0.00000000000E+00  0.00000000000E+00 -0.19580419273E+03  0.23230227779E+03  0.12500026551E+03 0.  0.
    9000005    1    3    3    0    0 -0.28050007158E+02 -0.28616255576E+02 -0.87839405648E+01  0.41034748648E+02  0.10000000000E+01 0.  0.
    9000005    1    3    3    0    0  0.28050007158E+02  0.28616255576E+02 -0.18702025216E+03  0.19126752914E+03  0.10000000000E+01 0.  0.
<mgrwt>
<rscale>  0 0.12500027E+03</rscale>
<asrwt>0</asrwt>
<pdfrwt beam="2">  1        4 0.32931265E-01 0.12500027E+03</pdfrwt>
<pdfrwt beam="1">  1       -4 0.28075452E-02 0.12500027E+03</pdfrwt>
<totfact> 0.84956827E+03</totfact>
</mgrwt>
</event>
<event>
 5    1  0.3272646E-002  0.1249979E+03  0.7818608E-02  0.1235073E+00
         -4   -1    0    0    0  501 -0.00000000000E+00  0.00000000000E+00  0.59724318821E+03  0.59724453850E+03  0.12700000000E+01 0.  1.
          4   -1    0    0  501    0  0.00000000000E+00 -0.00000000000E+00 -0.64772228561E+01  0.66005542137E+01  0.12700000000E+01 0.  1.
         25    2    1    2    0    0  0.00000000000E+00  0.00000000000E+00  0.59076596536E+03  0.60384509271E+03  0.12499788066E+03 0.  0.
    9000005    1    3    3    0    0 -0.14827977085E+02 -0.19554249273E+02  0.17751132367E+02  0.30304129577E+02  0.10000000000E+01 0.  0.
    9000005    1    3    3    0    0  0.14827977085E+02  0.19554249273E+02  0.57301483299E+03  0.57354096314E+03  0.10000000000E+01 0.  0.
<mgrwt>
<rscale>  0 0.12499788E+03</rscale>
<asrwt>0</asrwt>
<pdfrwt beam="2">  1        4 0.10060867E-02 0.12499788E+03</pdfrwt>
<pdfrwt beam="1">  1       -4 0.91893158E-01 0.12499788E+03</pdfrwt>
<totfact> 0.48628053E+03</totfact>
</mgrwt>
</event>
<event>
 5    1  0.3272646E-002  0.1249972E+03  0.7818608E-02  0.1235074E+00
         -4   -1    0    0    0  501 -0.00000000000E+00  0.00000000000E+00  0.13245530267E+03  0.13246139100E+03  0.12700000000E+01 0. -1.
          4   -1    0    0  501    0  0.00000000000E+00 -0.00000000000E+00 -0.29469293411E+02  0.29496646490E+02  0.12700000000E+01 0. -1.
         25    2    1    2    0    0  0.00000000000E+00  0.00000000000E+00  0.10298600926E+03  0.16195803749E+03  0.12499715118E+03 0.  0.
    9000005    1    3    3    0    0 -0.13584734777E+02 -0.50578884407E+02  0.95666538251E+02  0.10906812141E+03  0.10000000000E+01 0.  0.
    9000005    1    3    3    0    0  0.13584734777E+02  0.50578884407E+02  0.73194710056E+01  0.52889916077E+02  0.10000000000E+01 0.  0.
<mgrwt>
<rscale>  0 0.12499715E+03</rscale>
<asrwt>0</asrwt>
<pdfrwt beam="2">  1        4 0.45363098E-02 0.12499715E+03</pdfrwt>
<pdfrwt beam="1">  1       -4 0.20380311E-01 0.12499715E+03</pdfrwt>
<totfact> 0.96972821E+03</totfact>
</mgrwt>
</event>
<event>
 5    1  0.3272646E-002  0.1249692E+03  0.7818608E-02  0.1235117E+00
          4   -1    0    0  501    0  0.00000000000E+00  0.00000000000E+00  0.46525920576E+01  0.48228117167E+01  0.12700000000E+01 0.  1.
         -4   -1    0    0    0  501 -0.00000000000E+00 -0.00000000000E+00 -0.82392645849E+03  0.82392743728E+03  0.12700000000E+01 0.  1.
         25    2    1    2    0    0  0.00000000000E+00  0.00000000000E+00 -0.81927386644E+03  0.82875024900E+03  0.12496922417E+03 0.  0.
    9000005    1    3    3    0    0 -0.32769941808E+02  0.30782776726E+02 -0.69732136974E+03  0.69877002020E+03  0.10000000000E+01 0.  0.
    9000005    1    3    3    0    0  0.32769941808E+02 -0.30782776726E+02 -0.12195249670E+03  0.12998022880E+03  0.10000000000E+01 0.  0.
<mgrwt>
<rscale>  0 0.12496922E+03</rscale>
<asrwt>0</asrwt>
<pdfrwt beam="1">  1        4 0.72895316E-03 0.12496922E+03</pdfrwt>
<pdfrwt beam="2">  1       -4 0.12677097E+00 0.12496922E+03</pdfrwt>
<totfact> 0.37037920E+03</totfact>
</mgrwt>
</event>
<event>
 5    1  0.3272646E-002  0.1250013E+03  0.7818608E-02  0.1235067E+00
          4   -1    0    0  501    0  0.00000000000E+00  0.00000000000E+00  0.21147829625E+03  0.21148210961E+03  0.12700000000E+01 0. -1.
         -4   -1    0    0    0  501 -0.00000000000E+00 -0.00000000000E+00 -0.18445723463E+02  0.18489391934E+02  0.12700000000E+01 0. -1.
         25    2    1    2    0    0  0.00000000000E+00  0.00000000000E+00  0.19303257279E+03  0.22997150154E+03  0.12500126945E+03 0.  0.
    9000005    1    3    3    0    0  0.14877167286E+02 -0.55592985656E+02  0.51699533528E+02  0.77367641347E+02  0.10000000000E+01 0.  0.
    9000005    1    3    3    0    0 -0.14877167286E+02  0.55592985656E+02  0.14133303926E+03  0.15260386020E+03  0.10000000000E+01 0.  0.
<mgrwt>
<rscale>  0 0.12500127E+03</rscale>
<asrwt>0</asrwt>
<pdfrwt beam="1">  1        4 0.32538773E-01 0.12500127E+03</pdfrwt>
<pdfrwt beam="2">  1       -4 0.28414562E-02 0.12500127E+03</pdfrwt>
<totfact> 0.85311558E+03</totfact>
</mgrwt>
</event>
<event>
 5    1  0.3272646E-002  0.1249846E+03  0.7818608E-02  0.1235093E+00
          4   -1    0    0  501    0  0.00000000000E+00  0.00000000000E+00  0.12999476392E+04  0.12999482595E+04  0.12700000000E+01 0. -1.
         -4   -1    0    0    0  501 -0.00000000000E+00 -0.00000000000E+00 -0.28693172175E+01  0.31378147323E+01  0.12700000000E+01 0. -1.
         25    2    1    2    0    0  0.00000000000E+00  0.00000000000E+00  0.12970783220E+04  0.13030860743E+04  0.12498457379E+03 0.  0.
    9000005    1    3    3    0    0 -0.55237812734E+02  0.16345008261E+02  0.39617226049E+03  0.40033964984E+03  0.10000000000E+01 0.  0.
    9000005    1    3    3    0    0  0.55237812734E+02 -0.16345008261E+02  0.90090606146E+03  0.90274642444E+03  0.10000000000E+01 0.  0.
<mgrwt>
<rscale>  0 0.12498457E+03</rscale>
<asrwt>0</asrwt>
<pdfrwt beam="1">  1        4 0.20001292E+00 0.12498457E+03</pdfrwt>
<pdfrwt beam="2">  1       -4 0.46213415E-03 0.12498457E+03</pdfrwt>
<totfact> 0.22163213E+03</totfact>
</mgrwt>
</event>
<event>
 5    1  0.3272646E-002  0.1249824E+03  0.7818608E-02  0.1235097E+00
          4   -1    0    0  501    0  0.00000000000E+00  0.00000000000E+00  0.75331900942E+02  0.75342605473E+02  0.12700000000E+01 0.  1.
         -4   -1    0    0    0  501 -0.00000000000E+00 -0.00000000000E+00 -0.51817087331E+02  0.51832648394E+02  0.12700000000E+01 0.  1.
         25    2    1    2    0    0  0.00000000000E+00  0.00000000000E+00  0.23514813610E+02  0.12717525387E+03  0.12498239371E+03 0.  0.
    9000005    1    3    3    0    0 -0.26642958091E+02  0.11823878689E+02 -0.44479797582E+02  0.53189319567E+02  0.10000000000E+01 0.  0.
    9000005    1    3    3    0    0  0.26642958091E+02 -0.11823878689E+02  0.67994611192E+02  0.73985934300E+02  0.10000000000E+01 0.  0.
<mgrwt>
<rscale>  0 0.12498239E+03</rscale>
<asrwt>0</asrwt>
<pdfrwt beam="1">  1        4 0.11591544E-01 0.12498239E+03</pdfrwt>
<pdfrwt beam="2">  1       -4 0.79738800E-02 0.12498239E+03</pdfrwt>
<totfact> 0.10409477E+04</totfact>
</mgrwt>
</event>
<event>
 5    1  0.3272646E-002  0.1250000E+03  0.7818608E-02  0.1235069E+00
          4   -1    0    0  501    0  0.00000000000E+00  0.00000000000E+00  0.28159031530E+03  0.28159317920E+03  0.12700000000E+01 0.  1.
         -4   -1    0    0    0  501 -0.00000000000E+00 -0.00000000000E+00 -0.13840101800E+02  0.13898248733E+02  0.12700000000E+01 0.  1.
         25    2    1    2    0    0  0.00000000000E+00  0.00000000000E+00  0.26775021350E+03  0.29549142793E+03  0.12500002861E+03 0.  0.
    9000005    1    3    3    0    0  0.39632462714E+02  0.47893422615E+02  0.14896353469E+03  0.16141761582E+03  0.10000000000E+01 0.  0.
    9000005    1    3    3    0    0 -0.39632462714E+02 -0.47893422615E+02  0.11878667882E+03  0.13407381211E+03  0.10000000000E+01 0.  0.
<mgrwt>
<rscale>  0 0.12500003E+03</rscale>
<asrwt>0</asrwt>
<pdfrwt beam="1">  1        4 0.43326278E-01 0.12500003E+03</pdfrwt>
<pdfrwt beam="2">  1       -4 0.21339397E-02 0.12500003E+03</pdfrwt>
<totfact> 0.76167840E+03</totfact>
</mgrwt>
</event>
<event>
 5    1  0.3272646E-002  0.1250009E+03  0.7818608E-02  0.1235068E+00
         -4   -1    0    0    0  501 -0.00000000000E+00  0.00000000000E+00  0.18726016436E+02  0.18769032782E+02  0.12700000000E+01 0. -1.
          4   -1    0    0  501    0  0.00000000000E+00 -0.00000000000E+00 -0.20831884383E+03  0.20832271503E+03  0.12700000000E+01 0. -1.
         25    2    1    2    0    0  0.00000000000E+00  0.00000000000E+00 -0.18959282740E+03  0.22709174781E+03  0.12500088689E+03 0.  0.
    9000005    1    3    3    0    0 -0.61927292306E+02  0.56564338967E+01 -0.83550241891E+02  0.10415674581E+03  0.10000000000E+01 0.  0.
    9000005    1    3    3    0    0  0.61927292306E+02 -0.56564338967E+01 -0.10604258551E+03  0.12293500200E+03  0.10000000000E+01 0.  0.
<mgrwt>
<rscale>  0 0.12500089E+03</rscale>
<asrwt>0</asrwt>
<pdfrwt beam="2">  1        4 0.32052658E-01 0.12500089E+03</pdfrwt>
<pdfrwt beam="1">  1       -4 0.28845325E-02 0.12500089E+03</pdfrwt>
<totfact> 0.85756475E+03</totfact>
</mgrwt>
</event>
<event>
 5    1  0.3272646E-002  0.1249968E+03  0.7818608E-02  0.1235074E+00
          4   -1    0    0  501    0  0.00000000000E+00  0.00000000000E+00  0.20725869265E+04  0.20725873156E+04  0.12700000000E+01 0. -1.
         -4   -1    0    0    0  501 -0.00000000000E+00 -0.00000000000E+00 -0.16702371735E+01  0.20982355005E+01  0.12700000000E+01 0. -1.
         25    2    1    2    0    0  0.00000000000E+00  0.00000000000E+00  0.20709166893E+04  0.20746855511E+04  0.12499680727E+03 0.  0.
    9000005    1    3    3    0    0 -0.67676665991E+01  0.33614791791E+02  0.16833955820E+03  0.17179919206E+03  0.10000000000E+01 0.  0.
    9000005    1    3    3    0    0  0.67676665991E+01 -0.33614791791E+02  0.19025771311E+04  0.19028863590E+04  0.10000000000E+01 0.  0.
<mgrwt>
<rscale>  0 0.12499681E+03</rscale>
<asrwt>0</asrwt>
<pdfrwt beam="1">  1        4 0.31889337E+00 0.12499681E+03</pdfrwt>
<pdfrwt beam="2">  1       -4 0.28991163E-03 0.12499681E+03</pdfrwt>
<totfact> 0.89182905E+02</totfact>
</mgrwt>
</event>
<event>
 5    1  0.3272646E-002  0.1250001E+03  0.7818608E-02  0.1235069E+00
         -4   -1    0    0    0  501 -0.00000000000E+00  0.00000000000E+00  0.10325000914E+03  0.10325781949E+03  0.12700000000E+01 0.  1.
          4   -1    0    0  501    0  0.00000000000E+00 -0.00000000000E+00 -0.37813076125E+02  0.37834397392E+02  0.12700000000E+01 0.  1.
         25    2    1    2    0    0  0.00000000000E+00  0.00000000000E+00  0.65436933011E+02  0.14109221689E+03  0.12500008585E+03 0.  0.
    9000005    1    3    3    0    0  0.27089684531E+01 -0.52440198850E+02 -0.55246075636E+01  0.52809414447E+02  0.10000000000E+01 0.  0.
    9000005    1    3    3    0    0 -0.27089684531E+01  0.52440198850E+02  0.70961540574E+02  0.88282802438E+02  0.10000000000E+01 0.  0.
<mgrwt>
<rscale>  0 0.12500009E+03</rscale>
<asrwt>0</asrwt>
<pdfrwt beam="2">  1        4 0.58196372E-02 0.12500009E+03</pdfrwt>
<pdfrwt beam="1">  1       -4 0.15886858E-01 0.12500009E+03</pdfrwt>
<totfact> 0.10110979E+04</totfact>
</mgrwt>
</event>
<event>
 5    1  0.3272646E-002  0.1250259E+03  0.7818608E-02  0.1235029E+00
         -4   -1    0    0    0  501 -0.00000000000E+00  0.00000000000E+00  0.94810256953E+02  0.94818762508E+02  0.12700000000E+01 0. -1.
          4   -1    0    0  501    0  0.00000000000E+00 -0.00000000000E+00 -0.41197677102E+02  0.41217247587E+02  0.12700000000E+01 0. -1.
         25    2    1    2    0    0  0.00000000000E+00  0.00000000000E+00  0.53612579851E+02  0.13603601009E+03  0.12502594660E+03 0.  0.
    9000005    1    3    3    0    0 -0.47929674793E+02 -0.29745661610E+02  0.56099498052E+02  0.79562628112E+02  0.10000000000E+01 0.  0.
    9000005    1    3    3    0    0  0.47929674793E+02  0.29745661610E+02 -0.24869182007E+01  0.56473381983E+02  0.10000000000E+01 0.  0.
<mgrwt>
<rscale>  0 0.12502595E+03</rscale>
<asrwt>0</asrwt>
<pdfrwt beam="2">  1        4 0.63402638E-02 0.12502595E+03</pdfrwt>
<pdfrwt beam="1">  1       -4 0.14588353E-01 0.12502595E+03</pdfrwt>
<totfact> 0.10210305E+04</totfact>
</mgrwt>
</event>
<event>
 5    1  0.3272646E-002  0.1249994E+03  0.7818608E-02  0.1235070E+00
         -4   -1    0    0    0  501 -0.00000000000E+00  0.00000000000E+00  0.14776925593E+03  0.14777471332E+03  0.12700000000E+01 0.  1.
          4   -1    0    0  501    0  0.00000000000E+00 -0.00000000000E+00 -0.26413348282E+02  0.26443862567E+02  0.12700000000E+01 0.  1.
         25    2    1    2    0    0  0.00000000000E+00  0.00000000000E+00  0.12135590764E+03  0.17421857589E+03  0.12499942345E+03 0.  0.
    9000005    1    3    3    0    0 -0.77042525089E+01 -0.60425147690E+02  0.80123708091E+02  0.10065466993E+03  0.10000000000E+01 0.  0.
    9000005    1    3    3    0    0  0.77042525089E+01  0.60425147690E+02  0.41232199554E+02  0.73563905960E+02  0.10000000000E+01 0.  0.
<mgrwt>
<rscale>  0 0.12499942E+03</rscale>
<asrwt>0</asrwt>
<pdfrwt beam="2">  1        4 0.40663592E-02 0.12499942E+03</pdfrwt>
<pdfrwt beam="1">  1       -4 0.22736498E-01 0.12499942E+03</pdfrwt>
<totfact> 0.94669376E+03</totfact>
</mgrwt>
</event>
<event>
 5    1  0.3272646E-002  0.1250000E+03  0.7818608E-02  0.1235069E+00
          4   -1    0    0  501    0  0.00000000000E+00  0.00000000000E+00  0.24755195486E+03  0.24755521254E+03  0.12700000000E+01 0.  1.
         -4   -1    0    0    0  501 -0.00000000000E+00 -0.00000000000E+00 -0.15750598474E+02  0.15801716751E+02  0.12700000000E+01 0.  1.
         25    2    1    2    0    0  0.00000000000E+00  0.00000000000E+00  0.23180135639E+03  0.26335692929E+03  0.12500001353E+03 0.  0.
    9000005    1    3    3    0    0  0.29210783432E+02 -0.44988782169E+02  0.48350075061E+02  0.72221812136E+02  0.10000000000E+01 0.  0.
    9000005    1    3    3    0    0 -0.29210783432E+02  0.44988782169E+02  0.18345128133E+03  0.19113511716E+03  0.10000000000E+01 0.  0.
<mgrwt>
<rscale>  0 0.12500001E+03</rscale>
<asrwt>0</asrwt>
<pdfrwt beam="1">  1        4 0.38089097E-01 0.12500001E+03</pdfrwt>
<pdfrwt beam="2">  1       -4 0.24273519E-02 0.12500001E+03</pdfrwt>
<totfact> 0.80437236E+03</totfact>
</mgrwt>
</event>
<event>
 5    1  0.3272646E-002  0.1249421E+03  0.7818608E-02  0.1235160E+00
         -4   -1    0    0    0  501 -0.00000000000E+00  0.00000000000E+00  0.47812055949E+02  0.47828920060E+02  0.12700000000E+01 0.  1.
          4   -1    0    0  501    0  0.00000000000E+00 -0.00000000000E+00 -0.81588295955E+02  0.81598179739E+02  0.12700000000E+01 0.  1.
         25    2    1    2    0    0  0.00000000000E+00  0.00000000000E+00 -0.33776240005E+02  0.12942709980E+03  0.12494214571E+03 0.  0.
    9000005    1    3    3    0    0 -0.45237953736E+02  0.22265188682E+02 -0.55081993325E+02  0.74680901668E+02  0.10000000000E+01 0.  0.
    9000005    1    3    3    0    0  0.45237953736E+02 -0.22265188682E+02  0.21305753320E+02  0.54746198131E+02  0.10000000000E+01 0.  0.
<mgrwt>
<rscale>  0 0.12494215E+03</rscale>
<asrwt>0</asrwt>
<pdfrwt beam="2">  1        4 0.12554103E-01 0.12494215E+03</pdfrwt>
<pdfrwt beam="1">  1       -4 0.73577585E-02 0.12494215E+03</pdfrwt>
<totfact> 0.10370316E+04</totfact>
</mgrwt>
</event>
<event>
 5    1  0.3272646E-002  0.1249994E+03  0.7818608E-02  0.1235070E+00
         -4   -1    0    0    0  501 -0.00000000000E+00  0.00000000000E+00  0.78893404780E+02  0.78903626138E+02  0.12700000000E+01 0. -1.
          4   -1    0    0  501    0  0.00000000000E+00 -0.00000000000E+00 -0.49490929090E+02  0.49507221313E+02  0.12700000000E+01 0. -1.
         25    2    1    2    0    0  0.00000000000E+00  0.00000000000E+00  0.29402475690E+02  0.12841084745E+03  0.12499936066E+03 0.  0.
    9000005    1    3    3    0    0  0.96959295411E+01 -0.13360536937E+02  0.76618021908E+02  0.78382627399E+02  0.10000000000E+01 0.  0.
    9000005    1    3    3    0    0 -0.96959295411E+01  0.13360536937E+02 -0.47215546218E+02  0.50028220052E+02  0.10000000000E+01 0.  0.
<mgrwt>
<rscale>  0 0.12499936E+03</rscale>
<asrwt>0</asrwt>
<pdfrwt beam="2">  1        4 0.76160286E-02 0.12499936E+03</pdfrwt>
<pdfrwt beam="1">  1       -4 0.12139486E-01 0.12499936E+03</pdfrwt>
<totfact> 0.10378774E+04</totfact>
</mgrwt>
</event>
<event>
 5    1  0.3272646E-002  0.1249982E+03  0.7818608E-02  0.1235072E+00
         -4   -1    0    0    0  501 -0.00000000000E+00  0.00000000000E+00  0.21734534194E+02  0.21771607121E+02  0.12700000000E+01 0.  1.
          4   -1    0    0  501    0  0.00000000000E+00 -0.00000000000E+00 -0.17952781105E+03  0.17953230305E+03  0.12700000000E+01 0.  1.
         25    2    1    2    0    0  0.00000000000E+00  0.00000000000E+00 -0.15779327685E+03  0.20130391017E+03  0.12499818411E+03 0.  0.
    9000005    1    3    3    0    0 -0.14146979329E+02  0.94537058441E+01  0.17940135589E+02  0.24745869216E+02  0.10000000000E+01 0.  0.
    9000005    1    3    3    0    0  0.14146979329E+02 -0.94537058441E+01 -0.17573341244E+03  0.17655804096E+03  0.10000000000E+01 0.  0.
<mgrwt>
<rscale>  0 0.12499818E+03</rscale>
<asrwt>0</asrwt>
<pdfrwt beam="2">  1        4 0.27622860E-01 0.12499818E+03</pdfrwt>
<pdfrwt beam="1">  1       -4 0.33469719E-02 0.12499818E+03</pdfrwt>
<totfact> 0.89919710E+03</totfact>
</mgrwt>
</event>
<event>
 5    1  0.3272646E-002  0.1249982E+03  0.7818608E-02  0.1235072E+00
          4   -1    0    0  501    0  0.00000000000E+00  0.00000000000E+00  0.56655644809E+03  0.56655787152E+03  0.12700000000E+01 0. -1.
         -4   -1    0    0    0  501 -0.00000000000E+00 -0.00000000000E+00 -0.68346003423E+01  0.69515941941E+01  0.12700000000E+01 0. -1.
         25    2    1    2    0    0  0.00000000000E+00  0.00000000000E+00  0.55972184775E+03  0.57350946571E+03  0.12499824162E+03 0.  0.
    9000005    1    3    3    0    0 -0.14494649135E+02 -0.20524404699E+02  0.54238090524E+03  0.54296352770E+03  0.10000000000E+01 0.  0.
    9000005    1    3    3    0    0  0.14494649135E+02  0.20524404699E+02  0.17340942511E+02  0.30545938011E+02  0.10000000000E+01 0.  0.
<mgrwt>
<rscale>  0 0.12499824E+03</rscale>
<asrwt>0</asrwt>
<pdfrwt beam="1">  1        4 0.87171647E-01 0.12499824E+03</pdfrwt>
<pdfrwt beam="2">  1       -4 0.10605859E-02 0.12499824E+03</pdfrwt>
<totfact> 0.50585582E+03</totfact>
</mgrwt>
</event>
<event>
 5    1  0.3272646E-002  0.1249641E+03  0.7818608E-02  0.1235125E+00
         -4   -1    0    0    0  501 -0.00000000000E+00  0.00000000000E+00  0.97064792240E+03  0.97064875324E+03  0.12700000000E+01 0.  1.
          4   -1    0    0  501    0  0.00000000000E+00 -0.00000000000E+00 -0.39209541788E+01  0.41215023562E+01  0.12700000000E+01 0.  1.
         25    2    1    2    0    0  0.00000000000E+00  0.00000000000E+00  0.96672696822E+03  0.97477025560E+03  0.12496407525E+03 0.  0.
    9000005    1    3    3    0    0  0.43702022892E+02 -0.17335797506E+00  0.13512038163E+03  0.14201554277E+03  0.10000000000E+01 0.  0.
    9000005    1    3    3    0    0 -0.43702022892E+02  0.17335797506E+00  0.83160658660E+03  0.83275471283E+03  0.10000000000E+01 0.  0.
<mgrwt>
<rscale>  0 0.12496408E+03</rscale>
<asrwt>0</asrwt>
<pdfrwt beam="2">  1        4 0.61871454E-03 0.12496408E+03</pdfrwt>
<pdfrwt beam="1">  1       -4 0.14934591E+00 0.12496408E+03</pdfrwt>
<totfact> 0.31477201E+03</totfact>
</mgrwt>
</event>
<event>
 5    1  0.3272646E-002  0.1249961E+03  0.7818608E-02  0.1235075E+00
          4   -1    0    0  501    0  0.00000000000E+00  0.00000000000E+00  0.11876138789E+02  0.11943850825E+02  0.12700000000E+01 0.  1.
         -4   -1    0    0    0  501 -0.00000000000E+00 -0.00000000000E+00 -0.32789133082E+03  0.32789379031E+03  0.12700000000E+01 0.  1.
         25    2    1    2    0    0  0.00000000000E+00  0.00000000000E+00 -0.31601519203E+03  0.33983764113E+03  0.12499608290E+03 0.  0.
    9000005    1    3    3    0    0  0.42709961097E+02 -0.35860381522E+02 -0.23466085566E+03  0.24119872496E+03  0.10000000000E+01 0.  0.
    9000005    1    3    3    0    0 -0.42709961097E+02  0.35860381522E+02 -0.81354336363E+02  0.98638916178E+02  0.10000000000E+01 0.  0.
<mgrwt>
<rscale>  0 0.12499608E+03</rscale>
<asrwt>0</asrwt>
<pdfrwt beam="1">  1        4 0.18324963E-02 0.12499608E+03</pdfrwt>
<pdfrwt beam="2">  1       -4 0.50450211E-01 0.12499608E+03</pdfrwt>
<totfact> 0.70863350E+03</totfact>
</mgrwt>
</event>
<event>
 5    1  0.3272646E-002  0.1249998E+03  0.7818608E-02  0.1235070E+00
          4   -1    0    0  501    0  0.00000000000E+00  0.00000000000E+00  0.11019514694E+02  0.11092457081E+02  0.12700000000E+01 0.  1.
         -4   -1    0    0    0  501 -0.00000000000E+00 -0.00000000000E+00 -0.35323999925E+03  0.35324228225E+03  0.12700000000E+01 0.  1.
         25    2    1    2    0    0  0.00000000000E+00  0.00000000000E+00 -0.34222048455E+03  0.36433473933E+03  0.12499976894E+03 0.  0.
    9000005    1    3    3    0    0  0.21649766300E+02 -0.40895033506E+02 -0.29353108435E+03  0.29715755690E+03  0.10000000000E+01 0.  0.
    9000005    1    3    3    0    0 -0.21649766300E+02  0.40895033506E+02 -0.48689400202E+02  0.67177182424E+02  0.10000000000E+01 0.  0.
<mgrwt>
<rscale>  0 0.12499977E+03</rscale>
<asrwt>0</asrwt>
<pdfrwt beam="1">  1        4 0.17010968E-02 0.12499977E+03</pdfrwt>
<pdfrwt beam="2">  1       -4 0.54350393E-01 0.12499977E+03</pdfrwt>
<totfact> 0.68176176E+03</totfact>
</mgrwt>
</event>
<event>
 5    1  0.3272646E-002  0.1249941E+03  0.7818608E-02  0.1235078E+00
         -4   -1    0    0    0  501 -0.00000000000E+00  0.00000000000E+00  0.16755778318E+03  0.16756259607E+03  0.12700000000E+01 0. -1.
          4   -1    0    0  501    0  0.00000000000E+00 -0.00000000000E+00 -0.23288210672E+02  0.23322814073E+02  0.12700000000E+01 0. -1.
         25    2    1    2    0    0  0.00000000000E+00  0.00000000000E+00  0.14426957251E+03  0.19088541015E+03  0.12499412089E+03 0.  0.
    9000005    1    3    3    0    0 -0.18499988681E+02  0.12289024352E+02 -0.17064837121E+02  0.28026386972E+02  0.10000000000E+01 0.  0.
    9000005    1    3    3    0    0  0.18499988681E+02 -0.12289024352E+02  0.16133440963E+03  0.16285902318E+03  0.10000000000E+01 0.  0.
<mgrwt>
<rscale>  0 0.12499412E+03</rscale>
<asrwt>0</asrwt>
<pdfrwt beam="2">  1        4 0.35858338E-02 0.12499412E+03</pdfrwt>
<pdfrwt beam="1">  1       -4 0.25781152E-01 0.12499412E+03</pdfrwt>
<totfact> 0.91705560E+03</totfact>
</mgrwt>
</event>
<event>
 5    1  0.3272646E-002  0.1249996E+03  0.7818608E-02  0.1235070E+00
         -4   -1    0    0    0  501 -0.00000000000E+00  0.00000000000E+00  0.11433572295E+04  0.11433579348E+04  0.12700000000E+01 0. -1.
          4   -1    0    0  501    0  0.00000000000E+00 -0.00000000000E+00 -0.32976977133E+01  0.35337954395E+01  0.12700000000E+01 0. -1.
         25    2    1    2    0    0  0.00000000000E+00  0.00000000000E+00  0.11400595317E+04  0.11468917302E+04  0.12499961981E+03 0.  0.
    9000005    1    3    3    0    0  0.12988808631E+02  0.54252369031E+02  0.82843684633E+03  0.83031357755E+03  0.10000000000E+01 0.  0.
    9000005    1    3    3    0    0 -0.12988808631E+02 -0.54252369031E+02  0.31162268541E+03  0.31657815269E+03  0.10000000000E+01 0.  0.
<mgrwt>
<rscale>  0 0.12499962E+03</rscale>
<asrwt>0</asrwt>
<pdfrwt beam="2">  1        4 0.52555458E-03 0.12499962E+03</pdfrwt>
<pdfrwt beam="1">  1       -4 0.17591904E+00 0.12499962E+03</pdfrwt>
<totfact> 0.26146900E+03</totfact>
</mgrwt>
</event>
<event>
 4    1  0.3272646E-002  0.1248036E+03  0.7818608E-02  0.1235376E+00
         -4   -1    0    0    0  501 -0.00000000000E+00  0.00000000000E+00  0.32555828070E+02  0.32580589948E+02  0.12700000000E+01 0. -1.
          4   -1    0    0  501    0  0.00000000000E+00 -0.00000000000E+00 -0.11953593573E+03  0.11954268205E+03  0.12700000000E+01 0. -1.
    9000005    1    1    2    0    0 -0.17980901819E+02 -0.44149733140E+02 -0.92557072002E+02  0.10411687348E+03  0.10000000000E+01 0.  0.
    9000005    1    1    2    0    0  0.17980901819E+02  0.44149733140E+02  0.55769643428E+01  0.48006398509E+02  0.10000000000E+01 0.  0.
<mgrwt>
<rscale>  0 0.12480365E+03</rscale>
<asrwt>0</asrwt>
<pdfrwt beam="2">  1        4 0.18392567E-01 0.12480365E+03</pdfrwt>
<pdfrwt beam="1">  1       -4 0.50110127E-02 0.12480365E+03</pdfrwt>
<totfact> 0.99320256E+03</totfact>
</mgrwt>
</event>
<event>
 5    1  0.3272646E-002  0.1250086E+03  0.7818608E-02  0.1235056E+00
         -4   -1    0    0    0  501 -0.00000000000E+00  0.00000000000E+00  0.28119858938E+02  0.28148523349E+02  0.12700000000E+01 0. -1.
          4   -1    0    0  501    0  0.00000000000E+00 -0.00000000000E+00 -0.13883115348E+03  0.13883696221E+03  0.12700000000E+01 0. -1.
         25    2    1    2    0    0  0.00000000000E+00  0.00000000000E+00 -0.11071129454E+03  0.16698548556E+03  0.12500864630E+03 0.  0.
    9000005    1    3    3    0    0 -0.12008953186E+02  0.42175140999E+02 -0.11483712286E+03  0.12292893175E+03  0.10000000000E+01 0.  0.
    9000005    1    3    3    0    0  0.12008953186E+02 -0.42175140999E+02  0.41258283117E+01  0.44056553816E+02  0.10000000000E+01 0.  0.
<mgrwt>
<rscale>  0 0.12500865E+03</rscale>
<asrwt>0</asrwt>
<pdfrwt beam="2">  1        4 0.21361290E-01 0.12500865E+03</pdfrwt>
<pdfrwt beam="1">  1       -4 0.43287840E-02 0.12500865E+03</pdfrwt>
<totfact> 0.95994046E+03</totfact>
</mgrwt>
</event>
<event>
 5    1  0.3272646E-002  0.1250052E+03  0.7818608E-02  0.1235061E+00
         -4   -1    0    0    0  501 -0.00000000000E+00  0.00000000000E+00  0.12099348040E+04  0.12099354705E+04  0.12700000000E+01 0. -1.
          4   -1    0    0  501    0  0.00000000000E+00 -0.00000000000E+00 -0.31031676275E+01  0.33529911012E+01  0.12700000000E+01 0. -1.
         25    2    1    2    0    0  0.00000000000E+00  0.00000000000E+00  0.12068316364E+04  0.12132884616E+04  0.12500517014E+03 0.  0.
    9000005    1    3    3    0    0  0.59941244324E+02  0.17315558646E+02  0.63812959679E+03  0.64117327115E+03  0.10000000000E+01 0.  0.
    9000005    1    3    3    0    0 -0.59941244324E+02 -0.17315558646E+02  0.56870203959E+03  0.57211519048E+03  0.10000000000E+01 0.  0.
<mgrwt>
<rscale>  0 0.12500517E+03</rscale>
<asrwt>0</asrwt>
<pdfrwt beam="2">  1        4 0.49667838E-03 0.12500517E+03</pdfrwt>
<pdfrwt beam="1">  1       -4 0.18616327E+00 0.12500517E+03</pdfrwt>
<totfact> 0.24364774E+03</totfact>
</mgrwt>
</event>
<event>
 5    1  0.3272646E-002  0.1250001E+03  0.7818608E-02  0.1235069E+00
          4   -1    0    0  501    0  0.00000000000E+00  0.00000000000E+00  0.26467537203E+03  0.26467841895E+03  0.12700000000E+01 0.  1.
         -4   -1    0    0    0  501 -0.00000000000E+00 -0.00000000000E+00 -0.14728210916E+02  0.14782864972E+02  0.12700000000E+01 0.  1.
         25    2    1    2    0    0  0.00000000000E+00  0.00000000000E+00  0.24994716111E+03  0.27946128392E+03  0.12500010345E+03 0.  0.
    9000005    1    3    3    0    0  0.33914493830E+02  0.40211473994E+02  0.20039620970E+03  0.20718782878E+03  0.10000000000E+01 0.  0.
    9000005    1    3    3    0    0 -0.33914493830E+02 -0.40211473994E+02  0.49550951416E+02  0.72273455146E+02  0.10000000000E+01 0.  0.
<mgrwt>
<rscale>  0 0.12500010E+03</rscale>
<asrwt>0</asrwt>
<pdfrwt beam="1">  1        4 0.40723727E-01 0.12500010E+03</pdfrwt>
<pdfrwt beam="2">  1       -4 0.22703171E-02 0.12500010E+03</pdfrwt>
<totfact> 0.78249408E+03</totfact>
</mgrwt>
</event>
<event>
 5    1  0.3272646E-002  0.1250019E+03  0.7818608E-02  0.1235066E+00
          4   -1    0    0  501    0  0.00000000000E+00  0.00000000000E+00  0.10852281817E+02  0.10926340679E+02  0.12700000000E+01 0.  1.
         -4   -1    0    0    0  501 -0.00000000000E+00 -0.00000000000E+00 -0.35865887103E+03  0.35866111954E+03  0.12700000000E+01 0.  1.
         25    2    1    2    0    0  0.00000000000E+00  0.00000000000E+00 -0.34780658921E+03  0.36958746021E+03  0.12500186898E+03 0.  0.
    9000005    1    3    3    0    0  0.56901023249E+02  0.10584792467E+02 -0.24359527889E+03  0.25037856173E+03  0.10000000000E+01 0.  0.
    9000005    1    3    3    0    0 -0.56901023249E+02 -0.10584792467E+02 -0.10421131033E+03  0.11920889849E+03  0.10000000000E+01 0.  0.
<mgrwt>
<rscale>  0 0.12500187E+03</rscale>
<asrwt>0</asrwt>
<pdfrwt beam="1">  1        4 0.16754519E-02 0.12500187E+03</pdfrwt>
<pdfrwt beam="2">  1       -4 0.55184149E-01 0.12500187E+03</pdfrwt>
<totfact> 0.67619328E+03</totfact>
</mgrwt>
</event>
<event>
 5    1  0.3272646E-002  0.1250039E+03  0.7818608E-02  0.1235063E+00
         -4   -1    0    0    0  501 -0.00000000000E+00  0.00000000000E+00  0.18748652790E+01  0.22645131518E+01  0.12700000000E+01 0.  1.
          4   -1    0    0  501    0  0.00000000000E+00 -0.00000000000E+00 -0.18870886700E+04  0.18870890973E+04  0.12700000000E+01 0.  1.
         25    2    1    2    0    0  0.00000000000E+00  0.00000000000E+00 -0.18852138047E+04  0.18893536105E+04  0.12500390398E+03 0.  0.
    9000005    1    3    3    0    0 -0.12149111531E+02  0.54373514695E+02 -0.51473070117E+03  0.51773813336E+03  0.10000000000E+01 0.  0.
    9000005    1    3    3    0    0  0.12149111531E+02 -0.54373514695E+02 -0.13704831035E+04  0.13716154771E+04  0.10000000000E+01 0.  0.
<mgrwt>
<rscale>  0 0.12500390E+03</rscale>
<asrwt>0</asrwt>
<pdfrwt beam="2">  1        4 0.29034996E+00 0.12500390E+03</pdfrwt>
<pdfrwt beam="1">  1       -4 0.31844811E-03 0.12500390E+03</pdfrwt>
<totfact> 0.11374528E+03</totfact>
</mgrwt>
</event>
<event>
 5    1  0.3272646E-002  0.1250016E+03  0.7818608E-02  0.1235067E+00
          4   -1    0    0  501    0  0.00000000000E+00  0.00000000000E+00  0.10856347284E+03  0.10857090096E+03  0.12700000000E+01 0.  1.
         -4   -1    0    0    0  501 -0.00000000000E+00 -0.00000000000E+00 -0.35962284325E+02  0.35984702220E+02  0.12700000000E+01 0.  1.
         25    2    1    2    0    0  0.00000000000E+00  0.00000000000E+00  0.72601188517E+02  0.14455560318E+03  0.12500155934E+03 0.  0.
    9000005    1    3    3    0    0 -0.42897421058E+01  0.53707842942E+02 -0.31304373953E+00  0.53889073820E+02  0.10000000000E+01 0.  0.
    9000005    1    3    3    0    0  0.42897421058E+01 -0.53707842942E+02  0.72914232256E+02  0.90666529361E+02  0.10000000000E+01 0.  0.
<mgrwt>
<rscale>  0 0.12500156E+03</rscale>
<asrwt>0</asrwt>
<pdfrwt beam="1">  1        4 0.16704368E-01 0.12500156E+03</pdfrwt>
<pdfrwt beam="2">  1       -4 0.55349550E-02 0.12500156E+03</pdfrwt>
<totfact> 0.10039673E+04</totfact>
</mgrwt>
</event>
<event>
 5    1  0.3272646E-002  0.1249983E+03  0.7818608E-02  0.1235072E+00
          4   -1    0    0  501    0  0.00000000000E+00  0.00000000000E+00  0.19433748366E+02  0.19475201554E+02  0.12700000000E+01 0. -1.
         -4   -1    0    0    0  501 -0.00000000000E+00 -0.00000000000E+00 -0.20074050443E+03  0.20074452177E+03  0.12700000000E+01 0. -1.
         25    2    1    2    0    0  0.00000000000E+00  0.00000000000E+00 -0.18130675607E+03  0.22021972332E+03  0.12499834697E+03 0.  0.
    9000005    1    3    3    0    0 -0.17647012859E+02 -0.35712655260E+01 -0.19608056751E+03  0.19690799870E+03  0.10000000000E+01 0.  0.
    9000005    1    3    3    0    0  0.17647012859E+02  0.35712655260E+01  0.14773811438E+02  0.23311724619E+02  0.10000000000E+01 0.  0.
<mgrwt>
<rscale>  0 0.12499835E+03</rscale>
<asrwt>0</asrwt>
<pdfrwt beam="1">  1        4 0.29933053E-02 0.12499835E+03</pdfrwt>
<pdfrwt beam="2">  1       -4 0.30886651E-01 0.12499835E+03</pdfrwt>
<totfact> 0.86836800E+03</totfact>
</mgrwt>
</event>
<event>
 5    1  0.3272646E-002  0.1249997E+03  0.7818608E-02  0.1235070E+00
          4   -1    0    0  501    0  0.00000000000E+00  0.00000000000E+00  0.59465412110E+01  0.60806457201E+01  0.12700000000E+01 0.  1.
         -4   -1    0    0    0  501 -0.00000000000E+00 -0.00000000000E+00 -0.64943227904E+03  0.64943352082E+03  0.12700000000E+01 0.  1.
         25    2    1    2    0    0  0.00000000000E+00  0.00000000000E+00 -0.64348573783E+03  0.65551416654E+03  0.12499971096E+03 0.  0.
    9000005    1    3    3    0    0 -0.99577356015E+01  0.61317393282E+02 -0.28607791219E+03  0.29274656455E+03  0.10000000000E+01 0.  0.
    9000005    1    3    3    0    0  0.99577356015E+01 -0.61317393282E+02 -0.35740782565E+03  0.36276760199E+03  0.10000000000E+01 0.  0.
<mgrwt>
<rscale>  0 0.12499971E+03</rscale>
<asrwt>0</asrwt>
<pdfrwt beam="1">  1        4 0.92526426E-03 0.12499971E+03</pdfrwt>
<pdfrwt beam="2">  1       -4 0.99923014E-01 0.12499971E+03</pdfrwt>
<totfact> 0.45541038E+03</totfact>
</mgrwt>
</event>
<event>
 5    1  0.3272646E-002  0.1250588E+03  0.7818608E-02  0.1234977E+00
         -4   -1    0    0    0  501 -0.00000000000E+00  0.00000000000E+00  0.52648893694E+03  0.52649046869E+03  0.12700000000E+01 0.  1.
          4   -1    0    0  501    0  0.00000000000E+00 -0.00000000000E+00 -0.73705649481E+01  0.74791796111E+01  0.12700000000E+01 0.  1.
         25    2    1    2    0    0  0.00000000000E+00  0.00000000000E+00  0.51911837200E+03  0.53396964830E+03  0.12505879084E+03 0.  0.
    9000005    1    3    3    0    0 -0.10698849478E+02  0.55570030317E+02  0.37304391326E+03  0.37731320526E+03  0.10000000000E+01 0.  0.
    9000005    1    3    3    0    0  0.10698849478E+02 -0.55570030317E+02  0.14607445874E+03  0.15665644304E+03  0.10000000000E+01 0.  0.
<mgrwt>
<rscale>  0 0.12505879E+03</rscale>
<asrwt>0</asrwt>
<pdfrwt beam="2">  1        4 0.11424063E-02 0.12505879E+03</pdfrwt>
<pdfrwt beam="1">  1       -4 0.81006743E-01 0.12505879E+03</pdfrwt>
<totfact> 0.53253030E+03</totfact>
</mgrwt>
</event>
<event>
 5    1  0.3272646E-002  0.1250043E+03  0.7818608E-02  0.1235063E+00
         -4   -1    0    0    0  501 -0.00000000000E+00  0.00000000000E+00  0.21828366448E+03  0.21828735895E+03  0.12700000000E+01 0. -1.
          4   -1    0    0  501    0  0.00000000000E+00 -0.00000000000E+00 -0.17870140038E+02  0.17915211553E+02  0.12700000000E+01 0. -1.
         25    2    1    2    0    0  0.00000000000E+00  0.00000000000E+00  0.20041352444E+03  0.23620257051E+03  0.12500429406E+03 0.  0.
    9000005    1    3    3    0    0  0.59768110532E+02  0.10349236654E+02  0.12862461432E+03  0.14221330861E+03  0.10000000000E+01 0.  0.
    9000005    1    3    3    0    0 -0.59768110532E+02 -0.10349236654E+02  0.71788910119E+02  0.93989261897E+02  0.10000000000E+01 0.  0.
<mgrwt>
<rscale>  0 0.12500429E+03</rscale>
<asrwt>0</asrwt>
<pdfrwt beam="2">  1        4 0.27530036E-02 0.12500429E+03</pdfrwt>
<pdfrwt beam="1">  1       -4 0.33585853E-01 0.12500429E+03</pdfrwt>
<totfact> 0.84358118E+03</totfact>
</mgrwt>
</event>
<event>
 5    1  0.3272646E-002  0.1249541E+03  0.7818608E-02  0.1235141E+00
         -4   -1    0    0    0  501 -0.00000000000E+00  0.00000000000E+00  0.28428197225E+03  0.28428480904E+03  0.12700000000E+01 0. -1.
          4   -1    0    0  501    0  0.00000000000E+00 -0.00000000000E+00 -0.13698383928E+02  0.13757129869E+02  0.12700000000E+01 0. -1.
         25    2    1    2    0    0  0.00000000000E+00  0.00000000000E+00  0.27058358833E+03  0.29804193891E+03  0.12495406786E+03 0.  0.
    9000005    1    3    3    0    0 -0.39242149868E+01 -0.57835648809E+02  0.79761004589E+02  0.98606184337E+02  0.10000000000E+01 0.  0.
    9000005    1    3    3    0    0  0.39242149868E+01  0.57835648809E+02  0.19082258374E+03  0.19943575457E+03  0.10000000000E+01 0.  0.
<mgrwt>
<rscale>  0 0.12495407E+03</rscale>
<asrwt>0</asrwt>
<pdfrwt beam="2">  1        4 0.21121810E-02 0.12495407E+03</pdfrwt>
<pdfrwt beam="1">  1       -4 0.43740421E-01 0.12495407E+03</pdfrwt>
<totfact> 0.75922512E+03</totfact>
</mgrwt>
</event>
<event>
 5    1  0.3272646E-002  0.1249983E+03  0.7818608E-02  0.1235072E+00
          4   -1    0    0  501    0  0.00000000000E+00  0.00000000000E+00  0.40455456080E+02  0.40475385442E+02  0.12700000000E+01 0. -1.
         -4   -1    0    0    0  501 -0.00000000000E+00 -0.00000000000E+00 -0.96506345568E+02  0.96514701651E+02  0.12700000000E+01 0. -1.
         25    2    1    2    0    0  0.00000000000E+00  0.00000000000E+00 -0.56050889487E+02  0.13699008709E+03  0.12499832699E+03 0.  0.
    9000005    1    3    3    0    0 -0.30224945911E+02 -0.52767217367E+02 -0.12249347500E+02  0.62040092667E+02  0.10000000000E+01 0.  0.
    9000005    1    3    3    0    0  0.30224945911E+02  0.52767217367E+02 -0.43801541988E+02  0.74949994426E+02  0.10000000000E+01 0.  0.
<mgrwt>
<rscale>  0 0.12499833E+03</rscale>
<asrwt>0</asrwt>
<pdfrwt beam="1">  1        4 0.62260922E-02 0.12499833E+03</pdfrwt>
<pdfrwt beam="2">  1       -4 0.14849306E-01 0.12499833E+03</pdfrwt>
<totfact> 0.10196678E+04</totfact>
</mgrwt>
</event>
<event>
 5    1  0.3272646E-002  0.1250002E+03  0.7818608E-02  0.1235069E+00
          4   -1    0    0  501    0  0.00000000000E+00  0.00000000000E+00  0.93989555167E+02  0.93998134984E+02  0.12700000000E+01 0. -1.
         -4   -1    0    0    0  501 -0.00000000000E+00 -0.00000000000E+00 -0.41540422401E+02  0.41559831487E+02  0.12700000000E+01 0. -1.
         25    2    1    2    0    0  0.00000000000E+00  0.00000000000E+00  0.52449132767E+02  0.13555796647E+03  0.12500020298E+03 0.  0.
    9000005    1    3    3    0    0 -0.53990399909E+02  0.27568324706E+02  0.42681500184E+02  0.74146384048E+02  0.10000000000E+01 0.  0.
    9000005    1    3    3    0    0  0.53990399909E+02 -0.27568324706E+02  0.97676325821E+01  0.61411582423E+02  0.10000000000E+01 0.  0.
<mgrwt>
<rscale>  0 0.12500020E+03</rscale>
<asrwt>0</asrwt>
<pdfrwt beam="1">  1        4 0.14462084E-01 0.12500020E+03</pdfrwt>
<pdfrwt beam="2">  1       -4 0.63929873E-02 0.12500020E+03</pdfrwt>
<totfact> 0.10226277E+04</totfact>
</mgrwt>
</event>
<event>
 5    1  0.3272646E-002  0.1250022E+03  0.7818608E-02  0.1235066E+00
          4   -1    0    0  501    0  0.00000000000E+00  0.00000000000E+00  0.15939598064E+03  0.15940103997E+03  0.12700000000E+01 0.  1.
         -4   -1    0    0    0  501 -0.00000000000E+00 -0.00000000000E+00 -0.24485518416E+02  0.24518432089E+02  0.12700000000E+01 0.  1.
         25    2    1    2    0    0  0.00000000000E+00  0.00000000000E+00  0.13491046222E+03  0.18391947206E+03  0.12500215752E+03 0.  0.
    9000005    1    3    3    0    0  0.31988893801E+02 -0.18657625342E+02  0.14152014557E+03  0.14628857752E+03  0.10000000000E+01 0.  0.
    9000005    1    3    3    0    0 -0.31988893801E+02  0.18657625342E+02 -0.66096833479E+01  0.37630894542E+02  0.10000000000E+01 0.  0.
<mgrwt>
<rscale>  0 0.12500216E+03</rscale>
<asrwt>0</asrwt>
<pdfrwt beam="1">  1        4 0.24525379E-01 0.12500216E+03</pdfrwt>
<pdfrwt beam="2">  1       -4 0.37699239E-02 0.12500216E+03</pdfrwt>
<totfact> 0.92911712E+03</totfact>
</mgrwt>
</event>
<event>
 5    1  0.3272646E-002  0.1250002E+03  0.7818608E-02  0.1235069E+00
          4   -1    0    0  501    0  0.00000000000E+00  0.00000000000E+00  0.58580697038E+03  0.58580834702E+03  0.12700000000E+01 0. -1.
         -4   -1    0    0    0  501 -0.00000000000E+00 -0.00000000000E+00 -0.66063053838E+01  0.67272706816E+01  0.12700000000E+01 0. -1.
         25    2    1    2    0    0  0.00000000000E+00  0.00000000000E+00  0.57920066499E+03  0.59253561770E+03  0.12500019168E+03 0.  0.
    9000005    1    3    3    0    0 -0.58728370191E+02 -0.12021953657E+02  0.20590883463E+03  0.21445977948E+03  0.10000000000E+01 0.  0.
    9000005    1    3    3    0    0  0.58728370191E+02  0.12021953657E+02  0.37329183036E+03  0.37807583822E+03  0.10000000000E+01 0.  0.
<mgrwt>
<rscale>  0 0.12500019E+03</rscale>
<asrwt>0</asrwt>
<pdfrwt beam="1">  1        4 0.90133560E-01 0.12500019E+03</pdfrwt>
<pdfrwt beam="2">  1       -4 0.10257656E-02 0.12500019E+03</pdfrwt>
<totfact> 0.49341991E+03</totfact>
</mgrwt>
</event>
<event>
 5    1  0.3272646E-002  0.1250014E+03  0.7818608E-02  0.1235067E+00
         -4   -1    0    0    0  501 -0.00000000000E+00  0.00000000000E+00  0.12423466674E+03  0.12424115792E+03  0.12700000000E+01 0.  1.
          4   -1    0    0  501    0  0.00000000000E+00 -0.00000000000E+00 -0.31423054404E+02  0.31448708210E+02  0.12700000000E+01 0.  1.
         25    2    1    2    0    0  0.00000000000E+00  0.00000000000E+00  0.92811612338E+02  0.15568986613E+03  0.12500135611E+03 0.  0.
    9000005    1    3    3    0    0 -0.18630397241E+02 -0.43221054619E+02 -0.47992148378E+01  0.47320014019E+02  0.10000000000E+01 0.  0.
    9000005    1    3    3    0    0  0.18630397241E+02  0.43221054619E+02  0.97610827176E+02  0.10836985211E+03  0.10000000000E+01 0.  0.
<mgrwt>
<rscale>  0 0.12500136E+03</rscale>
<asrwt>0</asrwt>
<pdfrwt beam="2">  1        4 0.48367889E-02 0.12500136E+03</pdfrwt>
<pdfrwt beam="1">  1       -4 0.19115498E-01 0.12500136E+03</pdfrwt>
<totfact> 0.98177246E+03</totfact>
</mgrwt>
</event>
<event>
 5    1  0.3272646E-002  0.1249884E+03  0.7818608E-02  0.1235087E+00
          4   -1    0    0  501    0  0.00000000000E+00  0.00000000000E+00  0.11230613782E+03  0.11231331841E+03  0.12700000000E+01 0.  1.
         -4   -1    0    0    0  501 -0.00000000000E+00 -0.00000000000E+00 -0.34755827749E+02  0.34779023312E+02  0.12700000000E+01 0.  1.
         25    2    1    2    0    0  0.00000000000E+00  0.00000000000E+00  0.77550310072E+02  0.14709234172E+03  0.12498842507E+03 0.  0.
    9000005    1    3    3    0    0 -0.79387706076E+01  0.15594098842E+02  0.10936960457E+03  0.11076511365E+03  0.10000000000E+01 0.  0.
    9000005    1    3    3    0    0  0.79387706076E+01 -0.15594098842E+02 -0.31819294497E+02  0.36327228077E+02  0.10000000000E+01 0.  0.
<mgrwt>
<rscale>  0 0.12498843E+03</rscale>
<asrwt>0</asrwt>
<pdfrwt beam="1">  1        4 0.17280204E-01 0.12498843E+03</pdfrwt>
<pdfrwt beam="2">  1       -4 0.53493870E-02 0.12498843E+03</pdfrwt>
<totfact> 0.99912519E+03</totfact>
</mgrwt>
</event>
<event>
 5    1  0.3272646E-002  0.1249994E+03  0.7818608E-02  0.1235070E+00
          4   -1    0    0  501    0  0.00000000000E+00  0.00000000000E+00  0.45823934687E+02  0.45841530190E+02  0.12700000000E+01 0.  1.
         -4   -1    0    0    0  501 -0.00000000000E+00 -0.00000000000E+00 -0.85205247041E+02  0.85214711309E+02  0.12700000000E+01 0.  1.
         25    2    1    2    0    0  0.00000000000E+00  0.00000000000E+00 -0.39381312355E+02  0.13105624150E+03  0.12499940269E+03 0.  0.
    9000005    1    3    3    0    0  0.50732288397E+00  0.25428094165E+02 -0.79538676845E+02  0.83511954017E+02  0.10000000000E+01 0.  0.
    9000005    1    3    3    0    0 -0.50732288397E+00 -0.25428094165E+02  0.40157364490E+02  0.47544287482E+02  0.10000000000E+01 0.  0.
<mgrwt>
<rscale>  0 0.12499940E+03</rscale>
<asrwt>0</asrwt>
<pdfrwt beam="1">  1        4 0.70519176E-02 0.12499940E+03</pdfrwt>
<pdfrwt beam="2">  1       -4 0.13110581E-01 0.12499940E+03</pdfrwt>
<totfact> 0.10322023E+04</totfact>
</mgrwt>
</event>
<event>
 5    1  0.3272646E-002  0.1250000E+03  0.7818608E-02  0.1235069E+00
          4   -1    0    0  501    0  0.00000000000E+00  0.00000000000E+00  0.40186806293E+03  0.40187006968E+03  0.12700000000E+01 0. -1.
         -4   -1    0    0    0  501 -0.00000000000E+00 -0.00000000000E+00 -0.96767058415E+01  0.97596893364E+01  0.12700000000E+01 0. -1.
         25    2    1    2    0    0  0.00000000000E+00  0.00000000000E+00  0.39219135709E+03  0.41162975902E+03  0.12499999173E+03 0.  0.
    9000005    1    3    3    0    0  0.24243033059E+02  0.47361862707E+02  0.30403395871E+03  0.30865598770E+03  0.10000000000E+01 0.  0.
    9000005    1    3    3    0    0 -0.24243033059E+02 -0.47361862707E+02  0.88157398378E+02  0.10297377132E+03  0.10000000000E+01 0.  0.
<mgrwt>
<rscale>  0 0.12499999E+03</rscale>
<asrwt>0</asrwt>
<pdfrwt beam="1">  1        4 0.61832395E-01 0.12499999E+03</pdfrwt>
<pdfrwt beam="2">  1       -4 0.14952617E-02 0.12499999E+03</pdfrwt>
<totfact> 0.63437203E+03</totfact>
</mgrwt>
</event>
<event>
 5    1  0.3272646E-002  0.1249994E+03  0.7818608E-02  0.1235070E+00
         -4   -1    0    0    0  501 -0.00000000000E+00  0.00000000000E+00  0.43205389431E+03  0.43205576085E+03  0.12700000000E+01 0.  1.
          4   -1    0    0  501    0  0.00000000000E+00 -0.00000000000E+00 -0.89945306754E+01  0.90837482391E+01  0.12700000000E+01 0.  1.
         25    2    1    2    0    0  0.00000000000E+00  0.00000000000E+00  0.42305936363E+03  0.44113950909E+03  0.12499936530E+03 0.  0.
    9000005    1    3    3    0    0  0.48422520225E+02  0.32819315246E+02  0.13393989014E+03  0.14615998799E+03  0.10000000000E+01 0.  0.
    9000005    1    3    3    0    0 -0.48422520225E+02 -0.32819315246E+02  0.28911947349E+03  0.29497952110E+03  0.10000000000E+01 0.  0.
<mgrwt>
<rscale>  0 0.12499937E+03</rscale>
<asrwt>0</asrwt>
<pdfrwt beam="2">  1        4 0.13907799E-02 0.12499937E+03</pdfrwt>
<pdfrwt beam="1">  1       -4 0.66476861E-01 0.12499937E+03</pdfrwt>
<totfact> 0.60739914E+03</totfact>
</mgrwt>
</event>
<event>
 5    1  0.3272646E-002  0.1250001E+03  0.7818608E-02  0.1235069E+00
         -4   -1    0    0    0  501 -0.00000000000E+00  0.00000000000E+00  0.95022740068E+02  0.95031226605E+02  0.12700000000E+01 0. -1.
          4   -1    0    0  501    0  0.00000000000E+00 -0.00000000000E+00 -0.41088487308E+02  0.41108109775E+02  0.12700000000E+01 0. -1.
         25    2    1    2    0    0  0.00000000000E+00  0.00000000000E+00  0.53934252759E+02  0.13613933638E+03  0.12500006116E+03 0.  0.
    9000005    1    3    3    0    0  0.53411069111E+00  0.40495788437E+02 -0.24866694928E+02  0.47534689144E+02  0.10000000000E+01 0.  0.
    9000005    1    3    3    0    0 -0.53411069111E+00 -0.40495788437E+02  0.78800947687E+02  0.88604647236E+02  0.10000000000E+01 0.  0.
<mgrwt>
<rscale>  0 0.12500006E+03</rscale>
<asrwt>0</asrwt>
<pdfrwt beam="2">  1        4 0.63234681E-02 0.12500006E+03</pdfrwt>
<pdfrwt beam="1">  1       -4 0.14621045E-01 0.12500006E+03</pdfrwt>
<totfact> 0.10214098E+04</totfact>
</mgrwt>
</event>
<event>
 5    1  0.3272646E-002  0.1249986E+03  0.7818608E-02  0.1235071E+00
         -4   -1    0    0    0  501 -0.00000000000E+00  0.00000000000E+00  0.24589049647E+02  0.24621824923E+02  0.12700000000E+01 0. -1.
          4   -1    0    0  501    0  0.00000000000E+00 -0.00000000000E+00 -0.15871674266E+03  0.15872182364E+03  0.12700000000E+01 0. -1.
         25    2    1    2    0    0  0.00000000000E+00  0.00000000000E+00 -0.13412769301E+03  0.18334364856E+03  0.12499862174E+03 0.  0.
    9000005    1    3    3    0    0  0.17835856659E+02  0.51705532139E+02 -0.22730053109E+02  0.59238797682E+02  0.10000000000E+01 0.  0.
    9000005    1    3    3    0    0 -0.17835856659E+02 -0.51705532139E+02 -0.11139763990E+03  0.12410485088E+03  0.10000000000E+01 0.  0.
<mgrwt>
<rscale>  0 0.12499862E+03</rscale>
<asrwt>0</asrwt>
<pdfrwt beam="2">  1        4 0.24420872E-01 0.12499862E+03</pdfrwt>
<pdfrwt beam="1">  1       -4 0.37858428E-02 0.12499862E+03</pdfrwt>
<totfact> 0.93021449E+03</totfact>
</mgrwt>
</event>
<event>
 4    1  0.3272646E-002  0.1249276E+03  0.7818608E-02  0.1235183E+00
          4   -1    0    0  501    0  0.00000000000E+00  0.00000000000E+00  0.28978480054E+02  0.29006295976E+02  0.12700000000E+01 0.  1.
         -4   -1    0    0    0  501 -0.00000000000E+00 -0.00000000000E+00 -0.13454673286E+03  0.13455272655E+03  0.12700000000E+01 0.  1.
    9000005    1    1    2    0    0  0.74940529928E+01 -0.21309965093E+02  0.23449191466E+02  0.32575144251E+02  0.10000000000E+01 0.  0.
    9000005    1    1    2    0    0 -0.74940529928E+01  0.21309965093E+02 -0.12901744427E+03  0.13098387828E+03  0.10000000000E+01 0.  0.
<mgrwt>
<rscale>  0 0.12492757E+03</rscale>
<asrwt>0</asrwt>
<pdfrwt beam="1">  1        4 0.44608285E-02 0.12492757E+03</pdfrwt>
<pdfrwt beam="2">  1       -4 0.20702098E-01 0.12492757E+03</pdfrwt>
<totfact> 0.96818461E+03</totfact>
</mgrwt>
</event>
<event>
 5    1  0.3272646E-002  0.1249986E+03  0.7818608E-02  0.1235071E+00
         -4   -1    0    0    0  501 -0.00000000000E+00  0.00000000000E+00  0.82710752427E+02  0.82720502096E+02  0.12700000000E+01 0. -1.
          4   -1    0    0  501    0  0.00000000000E+00 -0.00000000000E+00 -0.47205696279E+02  0.47222776932E+02  0.12700000000E+01 0. -1.
         25    2    1    2    0    0  0.00000000000E+00  0.00000000000E+00  0.35505056149E+02  0.12994327903E+03  0.12499858700E+03 0.  0.
    9000005    1    3    3    0    0  0.61926057316E+02 -0.68842534431E+01  0.12774340286E+02  0.63611424209E+02  0.10000000000E+01 0.  0.
    9000005    1    3    3    0    0 -0.61926057316E+02  0.68842534431E+01  0.22730715863E+02  0.66331854819E+02  0.10000000000E+01 0.  0.
<mgrwt>
<rscale>  0 0.12499859E+03</rscale>
<asrwt>0</asrwt>
<pdfrwt beam="2">  1        4 0.72644787E-02 0.12499859E+03</pdfrwt>
<pdfrwt beam="1">  1       -4 0.12726795E-01 0.12499859E+03</pdfrwt>
<totfact> 0.10346051E+04</totfact>
</mgrwt>
</event>
<event>
 5    1  0.3272646E-002  0.1249867E+03  0.7818608E-02  0.1235090E+00
          4   -1    0    0  501    0  0.00000000000E+00  0.00000000000E+00  0.30032285460E+02  0.30059126234E+02  0.12700000000E+01 0. -1.
         -4   -1    0    0    0  501 -0.00000000000E+00 -0.00000000000E+00 -0.12995265881E+03  0.12995886438E+03  0.12700000000E+01 0. -1.
         25    2    1    2    0    0  0.00000000000E+00  0.00000000000E+00 -0.99920373351E+02  0.16001799062E+03  0.12498670454E+03 0.  0.
    9000005    1    3    3    0    0  0.32453072179E+02 -0.79591451796E+01  0.17638956537E+02  0.37797918905E+02  0.10000000000E+01 0.  0.
    9000005    1    3    3    0    0 -0.32453072179E+02  0.79591451796E+01 -0.11755932989E+03  0.12222007171E+03  0.10000000000E+01 0.  0.
<mgrwt>
<rscale>  0 0.12498670E+03</rscale>
<asrwt>0</asrwt>
<pdfrwt beam="1">  1        4 0.46228937E-02 0.12498670E+03</pdfrwt>
<pdfrwt beam="2">  1       -4 0.19995259E-01 0.12498670E+03</pdfrwt>
<totfact> 0.97368412E+03</totfact>
</mgrwt>
</event>
<event>
 5    1  0.3272646E-002  0.1249998E+03  0.7818608E-02  0.1235070E+00
          4   -1    0    0  501    0  0.00000000000E+00  0.00000000000E+00  0.32413854963E+02  0.32438725214E+02  0.12700000000E+01 0.  1.
         -4   -1    0    0    0  501 -0.00000000000E+00 -0.00000000000E+00 -0.12043694466E+03  0.12044364051E+03  0.12700000000E+01 0.  1.
         25    2    1    2    0    0  0.00000000000E+00  0.00000000000E+00 -0.88023089700E+02  0.15288236573E+03  0.12499981372E+03 0.  0.
    9000005    1    3    3    0    0 -0.20767951146E+02  0.54345691118E+02 -0.71914394424E+02  0.92506443361E+02  0.10000000000E+01 0.  0.
    9000005    1    3    3    0    0  0.20767951146E+02 -0.54345691118E+02 -0.16108695276E+02  0.60375922365E+02  0.10000000000E+01 0.  0.
<mgrwt>
<rscale>  0 0.12499981E+03</rscale>
<asrwt>0</asrwt>
<pdfrwt beam="1">  1        4 0.49891751E-02 0.12499981E+03</pdfrwt>
<pdfrwt beam="2">  1       -4 0.18531189E-01 0.12499981E+03</pdfrwt>
<totfact> 0.98732628E+03</totfact>
</mgrwt>
</event>
<event>
 5    1  0.3272646E-002  0.1250473E+03  0.7818608E-02  0.1234995E+00
          4   -1    0    0  501    0  0.00000000000E+00  0.00000000000E+00  0.36714252287E+03  0.36714471942E+03  0.12700000000E+01 0. -1.
         -4   -1    0    0    0  501 -0.00000000000E+00 -0.00000000000E+00 -0.10607554141E+02  0.10683309640E+02  0.12700000000E+01 0. -1.
         25    2    1    2    0    0  0.00000000000E+00  0.00000000000E+00  0.35653496873E+03  0.37782802906E+03  0.12504733351E+03 0.  0.
    9000005    1    3    3    0    0  0.40203550979E+02 -0.25098147155E+02  0.30144483462E+03  0.30514952207E+03  0.10000000000E+01 0.  0.
    9000005    1    3    3    0    0 -0.40203550979E+02  0.25098147155E+02  0.55090134107E+02  0.72678506987E+02  0.10000000000E+01 0.  0.
<mgrwt>
<rscale>  0 0.12504733E+03</rscale>
<asrwt>0</asrwt>
<pdfrwt beam="1">  1        4 0.56489454E-01 0.12504733E+03</pdfrwt>
<pdfrwt beam="2">  1       -4 0.16379279E-02 0.12504733E+03</pdfrwt>
<totfact> 0.66698062E+03</totfact>
</mgrwt>
</event>
<event>
 5    1  0.3272646E-002  0.1250017E+03  0.7818608E-02  0.1235067E+00
          4   -1    0    0  501    0  0.00000000000E+00  0.00000000000E+00  0.12629231766E+03  0.12629870308E+03  0.12700000000E+01 0.  1.
         -4   -1    0    0    0  501 -0.00000000000E+00 -0.00000000000E+00 -0.30910882553E+02  0.30936961069E+02  0.12700000000E+01 0.  1.
         25    2    1    2    0    0  0.00000000000E+00  0.00000000000E+00  0.95381435108E+02  0.15723566415E+03  0.12500174366E+03 0.  0.
    9000005    1    3    3    0    0 -0.57593103370E+02 -0.23107920512E+02  0.56969778237E+02  0.84246644910E+02  0.10000000000E+01 0.  0.
    9000005    1    3    3    0    0  0.57593103370E+02  0.23107920512E+02  0.38411656871E+02  0.72989019241E+02  0.10000000000E+01 0.  0.
<mgrwt>
<rscale>  0 0.12500174E+03</rscale>
<asrwt>0</asrwt>
<pdfrwt beam="1">  1        4 0.19432084E-01 0.12500174E+03</pdfrwt>
<pdfrwt beam="2">  1       -4 0.47580177E-02 0.12500174E+03</pdfrwt>
<totfact> 0.97874552E+03</totfact>
</mgrwt>
</event>
<event>
 5    1  0.3272646E-002  0.1250003E+03  0.7818608E-02  0.1235069E+00
         -4   -1    0    0    0  501 -0.00000000000E+00  0.00000000000E+00  0.33345927142E+03  0.33346168985E+03  0.12700000000E+01 0.  1.
          4   -1    0    0  501    0  0.00000000000E+00 -0.00000000000E+00 -0.11677489088E+02  0.11746346300E+02  0.12700000000E+01 0.  1.
         25    2    1    2    0    0  0.00000000000E+00  0.00000000000E+00  0.32178178233E+03  0.34520803615E+03  0.12500029112E+03 0.  0.
    9000005    1    3    3    0    0 -0.32483173053E+02  0.52301171656E+02  0.19046760303E+03  0.20017361687E+03  0.10000000000E+01 0.  0.
    9000005    1    3    3    0    0  0.32483173053E+02 -0.52301171656E+02  0.13131417930E+03  0.14503441928E+03  0.10000000000E+01 0.  0.
<mgrwt>
<rscale>  0 0.12500029E+03</rscale>
<asrwt>0</asrwt>
<pdfrwt beam="2">  1        4 0.18020198E-02 0.12500029E+03</pdfrwt>
<pdfrwt beam="1">  1       -4 0.51306901E-01 0.12500029E+03</pdfrwt>
<totfact> 0.70254518E+03</totfact>
</mgrwt>
</event>
<event>
 5    1  0.3272646E-002  0.1249993E+03  0.7818608E-02  0.1235070E+00
         -4   -1    0    0    0  501 -0.00000000000E+00  0.00000000000E+00  0.50733902002E+02  0.50749795195E+02  0.12700000000E+01 0.  1.
          4   -1    0    0  501    0  0.00000000000E+00 -0.00000000000E+00 -0.76960779359E+02  0.76971257360E+02  0.12700000000E+01 0.  1.
         25    2    1    2    0    0  0.00000000000E+00  0.00000000000E+00 -0.26226877357E+02  0.12772105255E+03  0.12499927268E+03 0.  0.
    9000005    1    3    3    0    0 -0.55206207784E+02 -0.15466603301E+01 -0.42992032642E+02  0.69995945645E+02  0.10000000000E+01 0.  0.
    9000005    1    3    3    0    0  0.55206207784E+02  0.15466603301E+01  0.16765155285E+02  0.57725106910E+02  0.10000000000E+01 0.  0.
<mgrwt>
<rscale>  0 0.12499927E+03</rscale>
<asrwt>0</asrwt>
<pdfrwt beam="2">  1        4 0.11842148E-01 0.12499927E+03</pdfrwt>
<pdfrwt beam="1">  1       -4 0.78072443E-02 0.12499927E+03</pdfrwt>
<totfact> 0.10393687E+04</totfact>
</mgrwt>
</event>
<event>
 5    1  0.3272646E-002  0.1249965E+03  0.7818608E-02  0.1235075E+00
         -4   -1    0    0    0  501 -0.00000000000E+00  0.00000000000E+00  0.10594885461E+03  0.10595646603E+03  0.12700000000E+01 0.  1.
          4   -1    0    0  501    0  0.00000000000E+00 -0.00000000000E+00 -0.36847264183E+02  0.36869143979E+02  0.12700000000E+01 0.  1.
         25    2    1    2    0    0  0.00000000000E+00  0.00000000000E+00  0.69101590427E+02  0.14282561001E+03  0.12499650025E+03 0.  0.
    9000005    1    3    3    0    0  0.34489861338E+01  0.23277588647E+02 -0.31596823669E+02  0.39409401220E+02  0.10000000000E+01 0.  0.
    9000005    1    3    3    0    0 -0.34489861338E+01 -0.23277588647E+02  0.10069841410E+03  0.10341620879E+03  0.10000000000E+01 0.  0.
<mgrwt>
<rscale>  0 0.12499650E+03</rscale>
<asrwt>0</asrwt>
<pdfrwt beam="2">  1        4 0.56710785E-02 0.12499650E+03</pdfrwt>
<pdfrwt beam="1">  1       -4 0.16302092E-01 0.12499650E+03</pdfrwt>
<totfact> 0.10076150E+04</totfact>
</mgrwt>
</event>
<event>
 5    1  0.3272646E-002  0.1250065E+03  0.7818608E-02  0.1235059E+00
          4   -1    0    0  501    0  0.00000000000E+00  0.00000000000E+00  0.34253291633E+02  0.34276827270E+02  0.12700000000E+01 0.  1.
         -4   -1    0    0    0  501 -0.00000000000E+00 -0.00000000000E+00 -0.11398568437E+03  0.11399275916E+03  0.12700000000E+01 0.  1.
         25    2    1    2    0    0  0.00000000000E+00  0.00000000000E+00 -0.79732392740E+02  0.14826958643E+03  0.12500646307E+03 0.  0.
    9000005    1    3    3    0    0 -0.46935520157E+02 -0.35840095545E+02 -0.64121729170E+02  0.87178275120E+02  0.10000000000E+01 0.  0.
    9000005    1    3    3    0    0  0.46935520157E+02  0.35840095545E+02 -0.15610663569E+02  0.61091311314E+02  0.10000000000E+01 0.  0.
<mgrwt>
<rscale>  0 0.12500646E+03</rscale>
<asrwt>0</asrwt>
<pdfrwt beam="1">  1        4 0.52720919E-02 0.12500646E+03</pdfrwt>
<pdfrwt beam="2">  1       -4 0.17538614E-01 0.12500646E+03</pdfrwt>
<totfact> 0.99635258E+03</totfact>
</mgrwt>
</event>
<event>
 5    1  0.3272646E-002  0.1250000E+03  0.7818608E-02  0.1235069E+00
          4   -1    0    0  501    0  0.00000000000E+00  0.00000000000E+00  0.76687041618E+02  0.76697557016E+02  0.12700000000E+01 0.  1.
         -4   -1    0    0    0  501 -0.00000000000E+00 -0.00000000000E+00 -0.50915633393E+02  0.50931469877E+02  0.12700000000E+01 0.  1.
         25    2    1    2    0    0  0.00000000000E+00  0.00000000000E+00  0.25771408225E+02  0.12762902689E+03  0.12500001209E+03 0.  0.
    9000005    1    3    3    0    0  0.30211297541E+02 -0.16082820668E+02 -0.40500423819E+02  0.53034554295E+02  0.10000000000E+01 0.  0.
    9000005    1    3    3    0    0 -0.30211297541E+02  0.16082820668E+02  0.66271832044E+02  0.74594472598E+02  0.10000000000E+01 0.  0.
<mgrwt>
<rscale>  0 0.12500001E+03</rscale>
<asrwt>0</asrwt>
<pdfrwt beam="1">  1        4 0.11800033E-01 0.12500001E+03</pdfrwt>
<pdfrwt beam="2">  1       -4 0.78352015E-02 0.12500001E+03</pdfrwt>
<totfact> 0.10395504E+04</totfact>
</mgrwt>
</event>
<event>
 5    1  0.3272646E-002  0.1250007E+03  0.7818608E-02  0.1235068E+00
          4   -1    0    0  501    0  0.00000000000E+00  0.00000000000E+00  0.78942961401E+03  0.78943063557E+03  0.12700000000E+01 0. -1.
         -4   -1    0    0    0  501 -0.00000000000E+00 -0.00000000000E+00 -0.48657185382E+01  0.50287291528E+01  0.12700000000E+01 0. -1.
         25    2    1    2    0    0  0.00000000000E+00  0.00000000000E+00  0.78456389547E+03  0.79445936472E+03  0.12500070447E+03 0.  0.
    9000005    1    3    3    0    0  0.13508816798E+02 -0.22054967737E+02  0.30714544059E+02  0.40165818178E+02  0.10000000000E+01 0.  0.
    9000005    1    3    3    0    0 -0.13508816798E+02  0.22054967737E+02  0.75384935141E+03  0.75429354654E+03  0.10000000000E+01 0.  0.
<mgrwt>
<rscale>  0 0.12500070E+03</rscale>
<asrwt>0</asrwt>
<pdfrwt beam="1">  1        4 0.12146323E+00 0.12500070E+03</pdfrwt>
<pdfrwt beam="2">  1       -4 0.76119056E-03 0.12500070E+03</pdfrwt>
<totfact> 0.38512709E+03</totfact>
</mgrwt>
</event>
<event>
 5    1  0.3272646E-002  0.1249440E+03  0.7818608E-02  0.1235157E+00
         -4   -1    0    0    0  501 -0.00000000000E+00  0.00000000000E+00  0.22722257008E+03  0.22722611922E+03  0.12700000000E+01 0.  1.
          4   -1    0    0  501    0  0.00000000000E+00 -0.00000000000E+00 -0.17148727785E+02  0.17195690292E+02  0.12700000000E+01 0.  1.
         25    2    1    2    0    0  0.00000000000E+00  0.00000000000E+00  0.21007384230E+03  0.24442180951E+03  0.12494399444E+03 0.  0.
    9000005    1    3    3    0    0  0.17769192247E+02 -0.41642131930E+02  0.20851300434E+02  0.49855672441E+02  0.10000000000E+01 0.  0.
    9000005    1    3    3    0    0 -0.17769192247E+02  0.41642131930E+02  0.18922254186E+03  0.19456613707E+03  0.10000000000E+01 0.  0.
<mgrwt>
<rscale>  0 0.12494399E+03</rscale>
<asrwt>0</asrwt>
<pdfrwt beam="2">  1        4 0.26421513E-02 0.12494399E+03</pdfrwt>
<pdfrwt beam="1">  1       -4 0.34961205E-01 0.12494399E+03</pdfrwt>
<totfact> 0.83247051E+03</totfact>
</mgrwt>
</event>
<event>
 5    1  0.3272646E-002  0.1249597E+03  0.7818608E-02  0.1235132E+00
          4   -1    0    0  501    0  0.00000000000E+00  0.00000000000E+00  0.46188367841E+02  0.46205824566E+02  0.12700000000E+01 0. -1.
         -4   -1    0    0    0  501 -0.00000000000E+00 -0.00000000000E+00 -0.84479468080E+02  0.84489013647E+02  0.12700000000E+01 0. -1.
         25    2    1    2    0    0  0.00000000000E+00  0.00000000000E+00 -0.38291100238E+02  0.13069483821E+03  0.12495972302E+03 0.  0.
    9000005    1    3    3    0    0 -0.38221693878E+02  0.36801302641E+02  0.15345219220E+02  0.55242280112E+02  0.10000000000E+01 0.  0.
    9000005    1    3    3    0    0  0.38221693878E+02 -0.36801302641E+02 -0.53636319459E+02  0.75452558102E+02  0.10000000000E+01 0.  0.
<mgrwt>
<rscale>  0 0.12495972E+03</rscale>
<asrwt>0</asrwt>
<pdfrwt beam="1">  1        4 0.71079798E-02 0.12495972E+03</pdfrwt>
<pdfrwt beam="2">  1       -4 0.12998918E-01 0.12495972E+03</pdfrwt>
<totfact> 0.10339028E+04</totfact>
</mgrwt>
</event>
<event>
 5    1  0.3272646E-002  0.1249995E+03  0.7818608E-02  0.1235070E+00
          4   -1    0    0  501    0  0.00000000000E+00  0.00000000000E+00  0.18495685447E+03  0.18496121463E+03  0.12700000000E+01 0. -1.
         -4   -1    0    0    0  501 -0.00000000000E+00 -0.00000000000E+00 -0.21095917397E+02  0.21134110599E+02  0.12700000000E+01 0. -1.
         25    2    1    2    0    0  0.00000000000E+00  0.00000000000E+00  0.16386093707E+03  0.20609532523E+03  0.12499950552E+03 0.  0.
    9000005    1    3    3    0    0  0.48393783705E+02 -0.34985629922E+02  0.11229945729E+03  0.12719324160E+03  0.10000000000E+01 0.  0.
    9000005    1    3    3    0    0 -0.48393783705E+02  0.34985629922E+02  0.51561479789E+02  0.78902083625E+02  0.10000000000E+01 0.  0.
<mgrwt>
<rscale>  0 0.12499951E+03</rscale>
<asrwt>0</asrwt>
<pdfrwt beam="1">  1        4 0.28458173E-01 0.12499951E+03</pdfrwt>
<pdfrwt beam="2">  1       -4 0.32487992E-02 0.12499951E+03</pdfrwt>
<totfact> 0.89118548E+03</totfact>
</mgrwt>
</event>
<event>
 5    1  0.3272646E-002  0.1249993E+03  0.7818608E-02  0.1235070E+00
         -4   -1    0    0    0  501 -0.00000000000E+00  0.00000000000E+00  0.37105984719E+02  0.37127712049E+02  0.12700000000E+01 0. -1.
          4   -1    0    0  501    0  0.00000000000E+00 -0.00000000000E+00 -0.10521522938E+03  0.10522289387E+03  0.12700000000E+01 0. -1.
         25    2    1    2    0    0  0.00000000000E+00  0.00000000000E+00 -0.68109244662E+02  0.14235060592E+03  0.12499930318E+03 0.  0.
    9000005    1    3    3    0    0 -0.19482361133E+02  0.10290690265E+02 -0.10065069785E+03  0.10303894254E+03  0.10000000000E+01 0.  0.
    9000005    1    3    3    0    0  0.19482361133E+02 -0.10290690265E+02  0.32541453192E+02  0.39311663375E+02  0.10000000000E+01 0.  0.
<mgrwt>
<rscale>  0 0.12499930E+03</rscale>
<asrwt>0</asrwt>
<pdfrwt beam="2">  1        4 0.16189219E-01 0.12499930E+03</pdfrwt>
<pdfrwt beam="1">  1       -4 0.57108740E-02 0.12499930E+03</pdfrwt>
<totfact> 0.10085257E+04</totfact>
</mgrwt>
</event>
<event>
 5    1  0.3272646E-002  0.1250038E+03  0.7818608E-02  0.1235063E+00
          4   -1    0    0  501    0  0.00000000000E+00  0.00000000000E+00  0.24251895308E+02  0.24285125613E+02  0.12700000000E+01 0. -1.
         -4   -1    0    0    0  501 -0.00000000000E+00 -0.00000000000E+00 -0.16093357835E+03  0.16093858935E+03  0.12700000000E+01 0. -1.
         25    2    1    2    0    0  0.00000000000E+00  0.00000000000E+00 -0.13668168305E+03  0.18522371496E+03  0.12500376836E+03 0.  0.
    9000005    1    3    3    0    0  0.13025148525E+02 -0.42368493839E+02 -0.13361741672E+03  0.14078124100E+03  0.10000000000E+01 0.  0.
    9000005    1    3    3    0    0 -0.13025148525E+02  0.42368493839E+02 -0.30642663226E+01  0.44442473968E+02  0.10000000000E+01 0.  0.
<mgrwt>
<rscale>  0 0.12500377E+03</rscale>
<asrwt>0</asrwt>
<pdfrwt beam="1">  1        4 0.37340026E-02 0.12500377E+03</pdfrwt>
<pdfrwt beam="2">  1       -4 0.24761953E-01 0.12500377E+03</pdfrwt>
<totfact> 0.92677252E+03</totfact>
</mgrwt>
</event>
<event>
 5    1  0.3272646E-002  0.1249999E+03  0.7818608E-02  0.1235070E+00
         -4   -1    0    0    0  501 -0.00000000000E+00  0.00000000000E+00  0.21021191044E+03  0.21021574677E+03  0.12700000000E+01 0. -1.
          4   -1    0    0  501    0  0.00000000000E+00 -0.00000000000E+00 -0.18556685013E+02  0.18600092975E+02  0.12700000000E+01 0. -1.
         25    2    1    2    0    0  0.00000000000E+00  0.00000000000E+00  0.19165522542E+03  0.22881583974E+03  0.12499985234E+03 0.  0.
    9000005    1    3    3    0    0 -0.48751697065E+01  0.22312078770E+02  0.20230783709E+03  0.20359532678E+03  0.10000000000E+01 0.  0.
    9000005    1    3    3    0    0  0.48751697065E+01 -0.22312078770E+02 -0.10652611668E+02  0.25220512961E+02  0.10000000000E+01 0.  0.
<mgrwt>
<rscale>  0 0.12499985E+03</rscale>
<asrwt>0</asrwt>
<pdfrwt beam="2">  1        4 0.28585090E-02 0.12499985E+03</pdfrwt>
<pdfrwt beam="1">  1       -4 0.32343926E-01 0.12499985E+03</pdfrwt>
<totfact> 0.85492041E+03</totfact>
</mgrwt>
</event>
<event>
 5    1  0.3272646E-002  0.1249925E+03  0.7818608E-02  0.1235081E+00
          4   -1    0    0  501    0  0.00000000000E+00  0.00000000000E+00  0.64310270223E+02  0.64322808989E+02  0.12700000000E+01 0. -1.
         -4   -1    0    0    0  501 -0.00000000000E+00 -0.00000000000E+00 -0.60708307752E+02  0.60721590313E+02  0.12700000000E+01 0. -1.
         25    2    1    2    0    0  0.00000000000E+00  0.00000000000E+00  0.36019624708E+01  0.12504439930E+03  0.12499251043E+03 0.  0.
    9000005    1    3    3    0    0  0.12989922504E+02  0.25218907836E+02  0.57502192490E+02  0.64126699122E+02  0.10000000000E+01 0.  0.
    9000005    1    3    3    0    0 -0.12989922504E+02 -0.25218907836E+02 -0.53900230019E+02  0.60917700180E+02  0.10000000000E+01 0.  0.
<mgrwt>
<rscale>  0 0.12499251E+03</rscale>
<asrwt>0</asrwt>
<pdfrwt beam="1">  1        4 0.98958740E-02 0.12499251E+03</pdfrwt>
<pdfrwt beam="2">  1       -4 0.93417259E-02 0.12499251E+03</pdfrwt>
<totfact> 0.10453668E+04</totfact>
</mgrwt>
</event>
<event>
 5    1  0.3272646E-002  0.1250003E+03  0.7818608E-02  0.1235069E+00
         -4   -1    0    0    0  501 -0.00000000000E+00  0.00000000000E+00  0.97215323898E+03  0.97215406853E+03  0.12700000000E+01 0. -1.
          4   -1    0    0  501    0  0.00000000000E+00 -0.00000000000E+00 -0.39169561896E+01  0.41176990895E+01  0.12700000000E+01 0. -1.
         25    2    1    2    0    0  0.00000000000E+00  0.00000000000E+00  0.96823628280E+03  0.97627176762E+03  0.12500025976E+03 0.  0.
    9000005    1    3    3    0    0 -0.13035981445E+02  0.57923133799E+02  0.33182206606E+03  0.33709332500E+03  0.10000000000E+01 0.  0.
    9000005    1    3    3    0    0  0.13035981445E+02 -0.57923133799E+02  0.63641421674E+03  0.63917844262E+03  0.10000000000E+01 0.  0.
<mgrwt>
<rscale>  0 0.12500026E+03</rscale>
<asrwt>0</asrwt>
<pdfrwt beam="2">  1        4 0.61811406E-03 0.12500026E+03</pdfrwt>
<pdfrwt beam="1">  1       -4 0.14957758E+00 0.12500026E+03</pdfrwt>
<totfact> 0.31401011E+03</totfact>
</mgrwt>
</event>
<event>
 5    1  0.3272646E-002  0.1249984E+03  0.7818608E-02  0.1235072E+00
         -4   -1    0    0    0  501 -0.00000000000E+00  0.00000000000E+00  0.20073085716E+02  0.20113221278E+02  0.12700000000E+01 0. -1.
          4   -1    0    0  501    0  0.00000000000E+00 -0.00000000000E+00 -0.19435984251E+03  0.19436399173E+03  0.12700000000E+01 0. -1.
         25    2    1    2    0    0  0.00000000000E+00  0.00000000000E+00 -0.17428675679E+03  0.21447721301E+03  0.12499840521E+03 0.  0.
    9000005    1    3    3    0    0 -0.54187518728E+02  0.25657318072E+02 -0.11738137816E+03  0.13181036793E+03  0.10000000000E+01 0.  0.
    9000005    1    3    3    0    0  0.54187518728E+02 -0.25657318072E+02 -0.56905378637E+02  0.82666845073E+02  0.10000000000E+01 0.  0.
<mgrwt>
<rscale>  0 0.12499841E+03</rscale>
<asrwt>0</asrwt>
<pdfrwt beam="2">  1        4 0.29904920E-01 0.12499841E+03</pdfrwt>
<pdfrwt beam="1">  1       -4 0.30915737E-02 0.12499841E+03</pdfrwt>
<totfact> 0.87753002E+03</totfact>
</mgrwt>
</event>
<event>
 5    1  0.3272646E-002  0.1250006E+03  0.7818608E-02  0.1235068E+00
         -4   -1    0    0    0  501 -0.00000000000E+00  0.00000000000E+00  0.12926468140E+02  0.12988705808E+02  0.12700000000E+01 0. -1.
          4   -1    0    0  501    0  0.00000000000E+00 -0.00000000000E+00 -0.30140357975E+03  0.30140625539E+03  0.12700000000E+01 0. -1.
         25    2    1    2    0    0  0.00000000000E+00  0.00000000000E+00 -0.28847711161E+03  0.31439496120E+03  0.12500059081E+03 0.  0.
    9000005    1    3    3    0    0 -0.56830139019E+02 -0.11426863699E+02 -0.85519199092E+02  0.10331878497E+03  0.10000000000E+01 0.  0.
    9000005    1    3    3    0    0  0.56830139019E+02  0.11426863699E+02 -0.20295791252E+03  0.21107617622E+03  0.10000000000E+01 0.  0.
<mgrwt>
<rscale>  0 0.12500059E+03</rscale>
<asrwt>0</asrwt>
<pdfrwt beam="2">  1        4 0.46374769E-01 0.12500059E+03</pdfrwt>
<pdfrwt beam="1">  1       -4 0.19936810E-02 0.12500059E+03</pdfrwt>
<totfact> 0.73826802E+03</totfact>
</mgrwt>
</event>
<event>
 5    1  0.3272646E-002  0.1249985E+03  0.7818608E-02  0.1235072E+00
         -4   -1    0    0    0  501 -0.00000000000E+00  0.00000000000E+00  0.29627193180E+02  0.29654400613E+02  0.12700000000E+01 0.  1.
          4   -1    0    0  501    0  0.00000000000E+00 -0.00000000000E+00 -0.13175285987E+03  0.13175898066E+03  0.12700000000E+01 0.  1.
         25    2    1    2    0    0  0.00000000000E+00  0.00000000000E+00 -0.10212566669E+03  0.16141338127E+03  0.12499851142E+03 0.  0.
    9000005    1    3    3    0    0 -0.24937901161E+02 -0.56669957143E+02 -0.40122808931E+02  0.73784976475E+02  0.10000000000E+01 0.  0.
    9000005    1    3    3    0    0  0.24937901161E+02  0.56669957143E+02 -0.62002857762E+02  0.87628404799E+02  0.10000000000E+01 0.  0.
<mgrwt>
<rscale>  0 0.12499851E+03</rscale>
<asrwt>0</asrwt>
<pdfrwt beam="2">  1        4 0.20272234E-01 0.12499851E+03</pdfrwt>
<pdfrwt beam="1">  1       -4 0.45605935E-02 0.12499851E+03</pdfrwt>
<totfact> 0.97074234E+03</totfact>
</mgrwt>
</event>
<event>
 5    1  0.3272646E-002  0.1250042E+03  0.7818608E-02  0.1235063E+00
         -4   -1    0    0    0  501 -0.00000000000E+00  0.00000000000E+00  0.44177946270E+02  0.44196197083E+02  0.12700000000E+01 0. -1.
          4   -1    0    0  501    0  0.00000000000E+00 -0.00000000000E+00 -0.88385695627E+02  0.88394819370E+02  0.12700000000E+01 0. -1.
         25    2    1    2    0    0  0.00000000000E+00  0.00000000000E+00 -0.44207749357E+02  0.13259101645E+03  0.12500421009E+03 0.  0.
    9000005    1    3    3    0    0 -0.72547947028E+01 -0.47472880534E+02  0.20313302233E+02  0.52153012185E+02  0.10000000000E+01 0.  0.
    9000005    1    3    3    0    0  0.72547947028E+01  0.47472880534E+02 -0.64521051590E+02  0.80438004268E+02  0.10000000000E+01 0.  0.
<mgrwt>
<rscale>  0 0.12500421E+03</rscale>
<asrwt>0</asrwt>
<pdfrwt beam="2">  1        4 0.13599905E-01 0.12500421E+03</pdfrwt>
<pdfrwt beam="1">  1       -4 0.67987129E-02 0.12500421E+03</pdfrwt>
<totfact> 0.10288123E+04</totfact>
</mgrwt>
</event>
<event>
 5    1  0.3272646E-002  0.1249853E+03  0.7818608E-02  0.1235092E+00
         -4   -1    0    0    0  501 -0.00000000000E+00  0.00000000000E+00  0.50729754596E+01  0.52295296169E+01  0.12700000000E+01 0.  1.
          4   -1    0    0  501    0  0.00000000000E+00 -0.00000000000E+00 -0.75797578954E+03  0.75797685349E+03  0.12700000000E+01 0.  1.
         25    2    1    2    0    0  0.00000000000E+00  0.00000000000E+00 -0.75290281408E+03  0.76320638311E+03  0.12498534221E+03 0.  0.
    9000005    1    3    3    0    0  0.17061043998E+01  0.19311218123E+02 -0.73917680967E+03  0.73943166682E+03  0.10000000000E+01 0.  0.
    9000005    1    3    3    0    0 -0.17061043998E+01 -0.19311218123E+02 -0.13726004408E+02  0.23774716289E+02  0.10000000000E+01 0.  0.
<mgrwt>
<rscale>  0 0.12498534E+03</rscale>
<asrwt>0</asrwt>
<pdfrwt beam="2">  1        4 0.11662370E+00 0.12498534E+03</pdfrwt>
<pdfrwt beam="1">  1       -4 0.79258283E-03 0.12498534E+03</pdfrwt>
<totfact> 0.39963132E+03</totfact>
</mgrwt>
</event>
<event>
 5    1  0.3272646E-002  0.1249968E+03  0.7818608E-02  0.1235074E+00
         -4   -1    0    0    0  501 -0.00000000000E+00  0.00000000000E+00  0.29185095273E+02  0.29212714459E+02  0.12700000000E+01 0.  1.
          4   -1    0    0  501    0  0.00000000000E+00 -0.00000000000E+00 -0.13374311567E+03  0.13374914538E+03  0.12700000000E+01 0.  1.
         25    2    1    2    0    0  0.00000000000E+00  0.00000000000E+00 -0.10455802040E+03  0.16296185984E+03  0.12499675249E+03 0.  0.
    9000005    1    3    3    0    0 -0.51990658381E+02 -0.33157498599E+02 -0.65484615129E+02  0.89953783082E+02  0.10000000000E+01 0.  0.
    9000005    1    3    3    0    0  0.51990658381E+02  0.33157498599E+02 -0.39073405271E+02  0.73008076757E+02  0.10000000000E+01 0.  0.
<mgrwt>
<rscale>  0 0.12499675E+03</rscale>
<asrwt>0</asrwt>
<pdfrwt beam="2">  1        4 0.20578452E-01 0.12499675E+03</pdfrwt>
<pdfrwt beam="1">  1       -4 0.44926031E-02 0.12499675E+03</pdfrwt>
<totfact> 0.96781844E+03</totfact>
</mgrwt>
</event>
<event>
 5    1  0.3272646E-002  0.1249995E+03  0.7818608E-02  0.1235070E+00
         -4   -1    0    0    0  501 -0.00000000000E+00  0.00000000000E+00  0.16223194375E+03  0.16223691465E+03  0.12700000000E+01 0.  1.
          4   -1    0    0  501    0  0.00000000000E+00 -0.00000000000E+00 -0.24055882042E+02  0.24089382740E+02  0.12700000000E+01 0.  1.
         25    2    1    2    0    0  0.00000000000E+00  0.00000000000E+00  0.13817606171E+03  0.18632629739E+03  0.12499946027E+03 0.  0.
    9000005    1    3    3    0    0 -0.15160618170E+02 -0.21931510543E+02  0.15333598384E+03  0.15563983886E+03  0.10000000000E+01 0.  0.
    9000005    1    3    3    0    0  0.15160618170E+02  0.21931510543E+02 -0.15159922133E+02  0.30686458529E+02  0.10000000000E+01 0.  0.
<mgrwt>
<rscale>  0 0.12499946E+03</rscale>
<asrwt>0</asrwt>
<pdfrwt beam="2">  1        4 0.37038642E-02 0.12499946E+03</pdfrwt>
<pdfrwt beam="1">  1       -4 0.24961721E-01 0.12499946E+03</pdfrwt>
<totfact> 0.92491603E+03</totfact>
</mgrwt>
</event>
<event>
 5    1  0.3272646E-002  0.1250001E+03  0.7818608E-02  0.1235069E+00
          4   -1    0    0  501    0  0.00000000000E+00  0.00000000000E+00  0.19809049415E+02  0.19849718858E+02  0.12700000000E+01 0.  1.
         -4   -1    0    0    0  501 -0.00000000000E+00 -0.00000000000E+00 -0.19695061558E+03  0.19695471022E+03  0.12700000000E+01 0.  1.
         25    2    1    2    0    0  0.00000000000E+00  0.00000000000E+00 -0.17714156616E+03  0.21680442907E+03  0.12500010401E+03 0.  0.
    9000005    1    3    3    0    0  0.82350241905E+01  0.19773406577E+02  0.13251767799E+02  0.25207391394E+02  0.10000000000E+01 0.  0.
    9000005    1    3    3    0    0 -0.82350241905E+01 -0.19773406577E+02 -0.19039333396E+03  0.19159703768E+03  0.10000000000E+01 0.  0.
<mgrwt>
<rscale>  0 0.12500010E+03</rscale>
<asrwt>0</asrwt>
<pdfrwt beam="1">  1        4 0.30509896E-02 0.12500010E+03</pdfrwt>
<pdfrwt beam="2">  1       -4 0.30303537E-01 0.12500010E+03</pdfrwt>
<totfact> 0.87376344E+03</totfact>
</mgrwt>
</event>
<event>
 5    1  0.3272646E-002  0.1249797E+03  0.7818608E-02  0.1235101E+00
          4   -1    0    0  501    0  0.00000000000E+00  0.00000000000E+00  0.34890102720E+02  0.34913209074E+02  0.12700000000E+01 0.  1.
         -4   -1    0    0    0  501 -0.00000000000E+00 -0.00000000000E+00 -0.11185856399E+03  0.11186577330E+03  0.12700000000E+01 0.  1.
         25    2    1    2    0    0  0.00000000000E+00  0.00000000000E+00 -0.76968461265E+02  0.14677898238E+03  0.12497970090E+03 0.  0.
    9000005    1    3    3    0    0 -0.22928665240E+02  0.57683854091E+02 -0.30111108531E+02  0.68998764985E+02  0.10000000000E+01 0.  0.
    9000005    1    3    3    0    0  0.22928665240E+02 -0.57683854091E+02 -0.46857352734E+02  0.77780217393E+02  0.10000000000E+01 0.  0.
<mgrwt>
<rscale>  0 0.12497970E+03</rscale>
<asrwt>0</asrwt>
<pdfrwt beam="1">  1        4 0.53700401E-02 0.12497970E+03</pdfrwt>
<pdfrwt beam="2">  1       -4 0.17211342E-01 0.12497970E+03</pdfrwt>
<totfact> 0.99995370E+03</totfact>
</mgrwt>
</event>
<event>
 5    1  0.3272646E-002  0.1249998E+03  0.7818608E-02  0.1235070E+00
          4   -1    0    0  501    0  0.00000000000E+00  0.00000000000E+00  0.10103873751E+04  0.10103881732E+04  0.12700000000E+01 0.  1.
         -4   -1    0    0    0  501 -0.00000000000E+00 -0.00000000000E+00 -0.37609569168E+01  0.39695965702E+01  0.12700000000E+01 0.  1.
         25    2    1    2    0    0  0.00000000000E+00  0.00000000000E+00  0.10066264182E+04  0.10143577698E+04  0.12499975771E+03 0.  0.
    9000005    1    3    3    0    0 -0.56748432698E+02 -0.73154858920E+01  0.29941587518E+03  0.30483563975E+03  0.10000000000E+01 0.  0.
    9000005    1    3    3    0    0  0.56748432698E+02  0.73154858920E+01  0.70721054299E+03  0.70952213007E+03  0.10000000000E+01 0.  0.
<mgrwt>
<rscale>  0 0.12499976E+03</rscale>
<asrwt>0</asrwt>
<pdfrwt beam="1">  1        4 0.15546028E+00 0.12499976E+03</pdfrwt>
<pdfrwt beam="2">  1       -4 0.59471950E-03 0.12499976E+03</pdfrwt>
<totfact> 0.30134403E+03</totfact>
</mgrwt>
</event>
<event>
 5    1  0.3272646E-002  0.1249982E+03  0.7818608E-02  0.1235072E+00
         -4   -1    0    0    0  501 -0.00000000000E+00  0.00000000000E+00  0.93731645651E+01  0.94588114456E+01  0.12700000000E+01 0.  1.
          4   -1    0    0  501    0  0.00000000000E+00 -0.00000000000E+00 -0.41475409519E+03  0.41475603959E+03  0.12700000000E+01 0.  1.
         25    2    1    2    0    0  0.00000000000E+00  0.00000000000E+00 -0.40538093062E+03  0.42421485103E+03  0.12499816369E+03 0.  0.
    9000005    1    3    3    0    0  0.35550803888E+02 -0.32674023887E+02 -0.33732019189E+03  0.34075997909E+03  0.10000000000E+01 0.  0.
    9000005    1    3    3    0    0 -0.35550803888E+02  0.32674023887E+02 -0.68060738732E+02  0.83454871941E+02  0.10000000000E+01 0.  0.
<mgrwt>
<rscale>  0 0.12499816E+03</rscale>
<asrwt>0</asrwt>
<pdfrwt beam="2">  1        4 0.63815046E-01 0.12499816E+03</pdfrwt>
<pdfrwt beam="1">  1       -4 0.14487634E-02 0.12499816E+03</pdfrwt>
<totfact> 0.62266431E+03</totfact>
</mgrwt>
</event>
<event>
 5    1  0.3272646E-002  0.1250014E+03  0.7818608E-02  0.1235067E+00
          4   -1    0    0  501    0  0.00000000000E+00  0.00000000000E+00  0.20129703620E+02  0.20169726518E+02  0.12700000000E+01 0.  1.
         -4   -1    0    0    0  501 -0.00000000000E+00 -0.00000000000E+00 -0.19382358581E+03  0.19382774651E+03  0.12700000000E+01 0.  1.
         25    2    1    2    0    0  0.00000000000E+00  0.00000000000E+00 -0.17369388219E+03  0.21399747303E+03  0.12500141500E+03 0.  0.
    9000005    1    3    3    0    0 -0.53985918589E+02  0.21679919978E+02 -0.12591716709E+03  0.13871060271E+03  0.10000000000E+01 0.  0.
    9000005    1    3    3    0    0  0.53985918589E+02 -0.21679919978E+02 -0.47776715097E+02  0.75286870313E+02  0.10000000000E+01 0.  0.
<mgrwt>
<rscale>  0 0.12500141E+03</rscale>
<asrwt>0</asrwt>
<pdfrwt beam="1">  1        4 0.31002764E-02 0.12500141E+03</pdfrwt>
<pdfrwt beam="2">  1       -4 0.29822411E-01 0.12500141E+03</pdfrwt>
<totfact> 0.87824398E+03</totfact>
</mgrwt>
</event>
<event>
 5    1  0.3272646E-002  0.1250009E+03  0.7818608E-02  0.1235068E+00
          4   -1    0    0  501    0  0.00000000000E+00  0.00000000000E+00  0.13191575641E+02  0.13252568351E+02  0.12700000000E+01 0. -1.
         -4   -1    0    0    0  501 -0.00000000000E+00 -0.00000000000E+00 -0.29537594750E+03  0.29537867773E+03  0.12700000000E+01 0. -1.
         25    2    1    2    0    0  0.00000000000E+00  0.00000000000E+00 -0.28218437186E+03  0.30863124609E+03  0.12500090536E+03 0.  0.
    9000005    1    3    3    0    0 -0.32307043418E+02  0.28132103922E+01 -0.91976247886E+01  0.33723219135E+02  0.10000000000E+01 0.  0.
    9000005    1    3    3    0    0  0.32307043418E+02 -0.28132103922E+01 -0.27298674707E+03  0.27490802695E+03  0.10000000000E+01 0.  0.
<mgrwt>
<rscale>  0 0.12500091E+03</rscale>
<asrwt>0</asrwt>
<pdfrwt beam="1">  1        4 0.20343752E-02 0.12500091E+03</pdfrwt>
<pdfrwt beam="2">  1       -4 0.45447350E-01 0.12500091E+03</pdfrwt>
<totfact> 0.74527256E+03</totfact>
</mgrwt>
</event>
<event>
 5    1  0.3272646E-002  0.1249987E+03  0.7818608E-02  0.1235071E+00
          4   -1    0    0  501    0  0.00000000000E+00  0.00000000000E+00  0.12097300736E+02  0.12163781694E+02  0.12700000000E+01 0.  1.
         -4   -1    0    0    0  501 -0.00000000000E+00 -0.00000000000E+00 -0.32194312144E+03  0.32194562637E+03  0.12700000000E+01 0.  1.
         25    2    1    2    0    0  0.00000000000E+00  0.00000000000E+00 -0.30984582070E+03  0.33410940807E+03  0.12499865580E+03 0.  0.
    9000005    1    3    3    0    0 -0.19189989207E+02 -0.23369710571E+02 -0.87473904620E+01  0.31494696345E+02  0.10000000000E+01 0.  0.
    9000005    1    3    3    0    0  0.19189989207E+02  0.23369710571E+02 -0.30109843024E+03  0.30261471172E+03  0.10000000000E+01 0.  0.
<mgrwt>
<rscale>  0 0.12499866E+03</rscale>
<asrwt>0</asrwt>
<pdfrwt beam="1">  1        4 0.18664300E-02 0.12499866E+03</pdfrwt>
<pdfrwt beam="2">  1       -4 0.49535011E-01 0.12499866E+03</pdfrwt>
<totfact> 0.71510968E+03</totfact>
</mgrwt>
</event>
<event>
 5    1  0.3272646E-002  0.1249989E+03  0.7818608E-02  0.1235071E+00
          4   -1    0    0  501    0  0.00000000000E+00  0.00000000000E+00  0.28089506012E+01  0.30827104113E+01  0.12700000000E+01 0. -1.
         -4   -1    0    0    0  501 -0.00000000000E+00 -0.00000000000E+00 -0.13257302846E+04  0.13257308929E+04  0.12700000000E+01 0. -1.
         25    2    1    2    0    0  0.00000000000E+00  0.00000000000E+00 -0.13229213340E+04  0.13288136033E+04  0.12499894565E+03 0.  0.
    9000005    1    3    3    0    0 -0.54038266476E+02  0.17288803724E+02 -0.38299840948E+03  0.38717931071E+03  0.10000000000E+01 0.  0.
    9000005    1    3    3    0    0  0.54038266476E+02 -0.17288803724E+02 -0.93992292454E+03  0.94163429263E+03  0.10000000000E+01 0.  0.
<mgrwt>
<rscale>  0 0.12499895E+03</rscale>
<asrwt>0</asrwt>
<pdfrwt beam="1">  1        4 0.45325254E-03 0.12499895E+03</pdfrwt>
<pdfrwt beam="2">  1       -4 0.20397913E+00 0.12499895E+03</pdfrwt>
<totfact> 0.21559085E+03</totfact>
</mgrwt>
</event>
<event>
 5    1  0.3272646E-002  0.1249977E+03  0.7818608E-02  0.1235073E+00
         -4   -1    0    0    0  501 -0.00000000000E+00  0.00000000000E+00  0.44899984863E+02  0.44917942303E+02  0.12700000000E+01 0. -1.
          4   -1    0    0  501    0  0.00000000000E+00 -0.00000000000E+00 -0.86955711625E+02  0.86964985392E+02  0.12700000000E+01 0. -1.
         25    2    1    2    0    0  0.00000000000E+00  0.00000000000E+00 -0.42055726762E+02  0.13188292769E+03  0.12499768983E+03 0.  0.
    9000005    1    3    3    0    0 -0.48053004424E+02  0.30575276263E+02 -0.48157384798E+02  0.74592710524E+02  0.10000000000E+01 0.  0.
    9000005    1    3    3    0    0  0.48053004424E+02 -0.30575276263E+02  0.61016580359E+01  0.57290217171E+02  0.10000000000E+01 0.  0.
<mgrwt>
<rscale>  0 0.12499769E+03</rscale>
<asrwt>0</asrwt>
<pdfrwt beam="2">  1        4 0.13379896E-01 0.12499769E+03</pdfrwt>
<pdfrwt beam="1">  1       -4 0.69097847E-02 0.12499769E+03</pdfrwt>
<totfact> 0.10304735E+04</totfact>
</mgrwt>
</event>
<event>
 5    1  0.3272646E-002  0.1250009E+03  0.7818608E-02  0.1235068E+00
          4   -1    0    0  501    0  0.00000000000E+00  0.00000000000E+00  0.57780489853E+02  0.57794445301E+02  0.12700000000E+01 0.  1.
         -4   -1    0    0    0  501 -0.00000000000E+00 -0.00000000000E+00 -0.67577871744E+02  0.67589804331E+02  0.12700000000E+01 0.  1.
         25    2    1    2    0    0  0.00000000000E+00  0.00000000000E+00 -0.97973818915E+01  0.12538424963E+03  0.12500088545E+03 0.  0.
    9000005    1    3    3    0    0 -0.83021236140E+00 -0.53011059788E+02  0.28285145523E+02  0.60099177779E+02  0.10000000000E+01 0.  0.
    9000005    1    3    3    0    0  0.83021236140E+00  0.53011059788E+02 -0.38082527415E+02  0.65285071852E+02  0.10000000000E+01 0.  0.
<mgrwt>
<rscale>  0 0.12500089E+03</rscale>
<asrwt>0</asrwt>
<pdfrwt beam="1">  1        4 0.88912975E-02 0.12500089E+03</pdfrwt>
<pdfrwt beam="2">  1       -4 0.10398587E-01 0.12500089E+03</pdfrwt>
<totfact> 0.10444307E+04</totfact>
</mgrwt>
</event>
<event>
 5    1  0.3272646E-002  0.1250016E+03  0.7818608E-02  0.1235067E+00
          4   -1    0    0  501    0  0.00000000000E+00  0.00000000000E+00  0.18937476718E+03  0.18937902562E+03  0.12700000000E+01 0.  1.
         -4   -1    0    0    0  501 -0.00000000000E+00 -0.00000000000E+00 -0.20603579430E+02  0.20642683578E+02  0.12700000000E+01 0.  1.
         25    2    1    2    0    0  0.00000000000E+00  0.00000000000E+00  0.16877118775E+03  0.21002170920E+03  0.12500161807E+03 0.  0.
    9000005    1    3    3    0    0 -0.38232722265E+02  0.18874218561E+02  0.16114801845E+03  0.16669631378E+03  0.10000000000E+01 0.  0.
    9000005    1    3    3    0    0  0.38232722265E+02 -0.18874218561E+02  0.76231693045E+01  0.43325395420E+02  0.10000000000E+01 0.  0.
<mgrwt>
<rscale>  0 0.12500162E+03</rscale>
<asrwt>0</asrwt>
<pdfrwt beam="1">  1        4 0.29137916E-01 0.12500162E+03</pdfrwt>
<pdfrwt beam="2">  1       -4 0.31731170E-02 0.12500162E+03</pdfrwt>
<totfact> 0.88469134E+03</totfact>
</mgrwt>
</event>
<event>
 5    1  0.3272646E-002  0.1249975E+03  0.7818608E-02  0.1235073E+00
          4   -1    0    0  501    0  0.00000000000E+00  0.00000000000E+00  0.38347693522E+03  0.38347903821E+03  0.12700000000E+01 0. -1.
         -4   -1    0    0    0  501 -0.00000000000E+00 -0.00000000000E+00 -0.10144275043E+02  0.10223463999E+02  0.12700000000E+01 0. -1.
         25    2    1    2    0    0  0.00000000000E+00  0.00000000000E+00  0.37333266017E+03  0.39370250221E+03  0.12499754034E+03 0.  0.
    9000005    1    3    3    0    0 -0.51152618995E+02  0.10518147468E+02  0.78568692627E+02  0.94346496052E+02  0.10000000000E+01 0.  0.
    9000005    1    3    3    0    0  0.51152618995E+02 -0.10518147468E+02  0.29476396755E+03  0.29935600615E+03  0.10000000000E+01 0.  0.
<mgrwt>
<rscale>  0 0.12499754E+03</rscale>
<asrwt>0</asrwt>
<pdfrwt beam="1">  1        4 0.59002693E-01 0.12499754E+03</pdfrwt>
<pdfrwt beam="2">  1       -4 0.15669112E-02 0.12499754E+03</pdfrwt>
<totfact> 0.65173465E+03</totfact>
</mgrwt>
</event>
<event>
 5    1  0.3272646E-002  0.1250001E+03  0.7818608E-02  0.1235069E+00
         -4   -1    0    0    0  501 -0.00000000000E+00  0.00000000000E+00  0.39957628042E+03  0.39957829868E+03  0.12700000000E+01 0.  1.
          4   -1    0    0  501    0  0.00000000000E+00 -0.00000000000E+00 -0.97327060257E+01  0.98152160741E+01  0.12700000000E+01 0.  1.
         25    2    1    2    0    0  0.00000000000E+00  0.00000000000E+00  0.38984357440E+03  0.40939351475E+03  0.12500014970E+03 0.  0.
    9000005    1    3    3    0    0 -0.21169620271E+02  0.55346863308E+02  0.25991762042E+03  0.26658881730E+03  0.10000000000E+01 0.  0.
    9000005    1    3    3    0    0  0.21169620271E+02 -0.55346863308E+02  0.12992595397E+03  0.14280469746E+03  0.10000000000E+01 0.  0.
<mgrwt>
<rscale>  0 0.12500015E+03</rscale>
<asrwt>0</asrwt>
<pdfrwt beam="2">  1        4 0.15038420E-02 0.12500015E+03</pdfrwt>
<pdfrwt beam="1">  1       -4 0.61479758E-01 0.12500015E+03</pdfrwt>
<totfact> 0.63649126E+03</totfact>
</mgrwt>
</event>
<event>
 4    1  0.3272646E-002  0.1250785E+03  0.7818608E-02  0.1234947E+00
          4   -1    0    0  501    0  0.00000000000E+00  0.00000000000E+00  0.25699075727E+03  0.25699389530E+03  0.12700000000E+01 0. -1.
         -4   -1    0    0    0  501 -0.00000000000E+00 -0.00000000000E+00 -0.15189327082E+02  0.15242327814E+02  0.12700000000E+01 0. -1.
    9000005    1    1    2    0    0 -0.53412522538E+02 -0.72516743771E+01  0.51912383361E+02  0.74842366955E+02  0.10000000000E+01 0.  0.
    9000005    1    1    2    0    0  0.53412522538E+02  0.72516743771E+01  0.18988904683E+03  0.19739385616E+03  0.10000000000E+01 0.  0.
<mgrwt>
<rscale>  0 0.12507849E+03</rscale>
<asrwt>0</asrwt>
<pdfrwt beam="1">  1        4 0.39541353E-01 0.12507849E+03</pdfrwt>
<pdfrwt beam="2">  1       -4 0.23411382E-02 0.12507849E+03</pdfrwt>
<totfact> 0.79080785E+03</totfact>
</mgrwt>
</event>
<event>
 5    1  0.3272646E-002  0.1249929E+03  0.7818608E-02  0.1235080E+00
         -4   -1    0    0    0  501 -0.00000000000E+00  0.00000000000E+00  0.12055776476E+03  0.12056445390E+03  0.12700000000E+01 0. -1.
          4   -1    0    0  501    0  0.00000000000E+00 -0.00000000000E+00 -0.32377761655E+02  0.32402659610E+02  0.12700000000E+01 0. -1.
         25    2    1    2    0    0  0.00000000000E+00  0.00000000000E+00  0.88180003109E+02  0.15296711351E+03  0.12499289927E+03 0.  0.
    9000005    1    3    3    0    0  0.34026957157E+02 -0.43139733484E+02  0.76638026065E+01  0.55485171792E+02  0.10000000000E+01 0.  0.
    9000005    1    3    3    0    0 -0.34026957157E+02  0.43139733484E+02  0.80516200503E+02  0.97481941721E+02  0.10000000000E+01 0.  0.
<mgrwt>
<rscale>  0 0.12499290E+03</rscale>
<asrwt>0</asrwt>
<pdfrwt beam="2">  1        4 0.49836237E-02 0.12499290E+03</pdfrwt>
<pdfrwt beam="1">  1       -4 0.18549779E-01 0.12499290E+03</pdfrwt>
<totfact> 0.98731274E+03</totfact>
</mgrwt>
</event>
<event>
 5    1  0.3272646E-002  0.1250079E+03  0.7818608E-02  0.1235057E+00
         -4   -1    0    0    0  501 -0.00000000000E+00  0.00000000000E+00  0.19386465498E+03  0.19386881480E+03  0.12700000000E+01 0. -1.
          4   -1    0    0  501    0  0.00000000000E+00 -0.00000000000E+00 -0.20127517979E+02  0.20167545215E+02  0.12700000000E+01 0. -1.
         25    2    1    2    0    0  0.00000000000E+00  0.00000000000E+00  0.17373713700E+03  0.21403636001E+03  0.12500788229E+03 0.  0.
    9000005    1    3    3    0    0 -0.28044197856E+02  0.35808772583E+02  0.13484052700E+02  0.47450657577E+02  0.10000000000E+01 0.  0.
    9000005    1    3    3    0    0  0.28044197856E+02 -0.35808772583E+02  0.16025308430E+03  0.16658570244E+03  0.10000000000E+01 0.  0.
<mgrwt>
<rscale>  0 0.12500788E+03</rscale>
<asrwt>0</asrwt>
<pdfrwt beam="2">  1        4 0.30999402E-02 0.12500788E+03</pdfrwt>
<pdfrwt beam="1">  1       -4 0.29828731E-01 0.12500788E+03</pdfrwt>
<totfact> 0.87805435E+03</totfact>
</mgrwt>
</event>
<event>
 5    1  0.3272646E-002  0.1249990E+03  0.7818608E-02  0.1235071E+00
          4   -1    0    0  501    0  0.00000000000E+00  0.00000000000E+00  0.13638640989E+02  0.13697643156E+02  0.12700000000E+01 0. -1.
         -4   -1    0    0    0  501 -0.00000000000E+00 -0.00000000000E+00 -0.28572735522E+03  0.28573017765E+03  0.12700000000E+01 0. -1.
         25    2    1    2    0    0  0.00000000000E+00  0.00000000000E+00 -0.27208871423E+03  0.29942782081E+03  0.12499900584E+03 0.  0.
    9000005    1    3    3    0    0  0.69431237440E+01  0.62098245797E+02 -0.13391690400E+03  0.14778070333E+03  0.10000000000E+01 0.  0.
    9000005    1    3    3    0    0 -0.69431237440E+01 -0.62098245797E+02 -0.13817181023E+03  0.15164711748E+03  0.10000000000E+01 0.  0.
<mgrwt>
<rscale>  0 0.12499901E+03</rscale>
<asrwt>0</asrwt>
<pdfrwt beam="1">  1        4 0.21030084E-02 0.12499901E+03</pdfrwt>
<pdfrwt beam="2">  1       -4 0.43962806E-01 0.12499901E+03</pdfrwt>
<totfact> 0.75672340E+03</totfact>
</mgrwt>
</event>
<event>
 5    1  0.3272646E-002  0.1249991E+03  0.7818608E-02  0.1235071E+00
          4   -1    0    0  501    0  0.00000000000E+00  0.00000000000E+00  0.25871237270E+03  0.25871548985E+03  0.12700000000E+01 0.  1.
         -4   -1    0    0    0  501 -0.00000000000E+00 -0.00000000000E+00 -0.15068682674E+02  0.15122106253E+02  0.12700000000E+01 0.  1.
         25    2    1    2    0    0  0.00000000000E+00  0.00000000000E+00  0.24364369002E+03  0.27383759610E+03  0.12499912539E+03 0.  0.
    9000005    1    3    3    0    0 -0.95792720267E+01  0.67941675005E+01 -0.12640164736E+02  0.17282850724E+02  0.10000000000E+01 0.  0.
    9000005    1    3    3    0    0  0.95792720267E+01 -0.67941675005E+01  0.25628385476E+03  0.25655474538E+03  0.10000000000E+01 0.  0.
<mgrwt>
<rscale>  0 0.12499913E+03</rscale>
<asrwt>0</asrwt>
<pdfrwt beam="1">  1        4 0.39806249E-01 0.12499913E+03</pdfrwt>
<pdfrwt beam="2">  1       -4 0.23226084E-02 0.12499913E+03</pdfrwt>
<totfact> 0.79003893E+03</totfact>
</mgrwt>
</event>
<event>
 5    1  0.3272646E-002  0.1250022E+03  0.7818608E-02  0.1235066E+00
          4   -1    0    0  501    0  0.00000000000E+00  0.00000000000E+00  0.13254844701E+03  0.13255453106E+03  0.12700000000E+01 0. -1.
         -4   -1    0    0    0  501 -0.00000000000E+00 -0.00000000000E+00 -0.29450928870E+02  0.29478298989E+02  0.12700000000E+01 0. -1.
         25    2    1    2    0    0  0.00000000000E+00  0.00000000000E+00  0.10309751814E+03  0.16203283005E+03  0.12500215905E+03 0.  0.
    9000005    1    3    3    0    0  0.42060373345E+02  0.42414609972E+02  0.75355537197E+02  0.96164084414E+02  0.10000000000E+01 0.  0.
    9000005    1    3    3    0    0 -0.42060373345E+02 -0.42414609972E+02  0.27741980943E+02  0.65868745636E+02  0.10000000000E+01 0.  0.
<mgrwt>
<rscale>  0 0.12500216E+03</rscale>
<asrwt>0</asrwt>
<pdfrwt beam="1">  1        4 0.20394643E-01 0.12500216E+03</pdfrwt>
<pdfrwt beam="2">  1       -4 0.45334854E-02 0.12500216E+03</pdfrwt>
<totfact> 0.96947593E+03</totfact>
</mgrwt>
</event>
<event>
 5    1  0.3272646E-002  0.1249985E+03  0.7818608E-02  0.1235072E+00
         -4   -1    0    0    0  501 -0.00000000000E+00  0.00000000000E+00  0.14338854167E+02  0.14394986586E+02  0.12700000000E+01 0.  1.
          4   -1    0    0  501    0  0.00000000000E+00 -0.00000000000E+00 -0.27182790080E+03  0.27183086755E+03  0.12700000000E+01 0.  1.
         25    2    1    2    0    0  0.00000000000E+00  0.00000000000E+00 -0.25748904663E+03  0.28622585414E+03  0.12499852175E+03 0.  0.
    9000005    1    3    3    0    0 -0.55809738948E+02  0.16259282137E+02 -0.18126446827E+03  0.19035991877E+03  0.10000000000E+01 0.  0.
    9000005    1    3    3    0    0  0.55809738948E+02 -0.16259282137E+02 -0.76224578360E+02  0.95865935364E+02  0.10000000000E+01 0.  0.
<mgrwt>
<rscale>  0 0.12499852E+03</rscale>
<asrwt>0</asrwt>
<pdfrwt beam="2">  1        4 0.41824219E-01 0.12499852E+03</pdfrwt>
<pdfrwt beam="1">  1       -4 0.22105239E-02 0.12499852E+03</pdfrwt>
<totfact> 0.77362321E+03</totfact>
</mgrwt>
</event>
<event>
 5    1  0.3272646E-002  0.1250000E+03  0.7818608E-02  0.1235069E+00
         -4   -1    0    0    0  501 -0.00000000000E+00  0.00000000000E+00  0.88382065524E+01  0.89289862281E+01  0.12700000000E+01 0. -1.
          4   -1    0    0  501    0  0.00000000000E+00 -0.00000000000E+00 -0.43962353268E+03  0.43962536709E+03  0.12700000000E+01 0. -1.
         25    2    1    2    0    0  0.00000000000E+00  0.00000000000E+00 -0.43078532613E+03  0.44855435332E+03  0.12500004268E+03 0.  0.
    9000005    1    3    3    0    0 -0.32525110788E+02 -0.17703199815E+02 -0.39602909812E+03  0.39775788197E+03  0.10000000000E+01 0.  0.
    9000005    1    3    3    0    0  0.32525110788E+02  0.17703199815E+02 -0.34756228013E+02  0.50796471345E+02  0.10000000000E+01 0.  0.
<mgrwt>
<rscale>  0 0.12500004E+03</rscale>
<asrwt>0</asrwt>
<pdfrwt beam="2">  1        4 0.67641497E-01 0.12500004E+03</pdfrwt>
<pdfrwt beam="1">  1       -4 0.13668486E-02 0.12500004E+03</pdfrwt>
<totfact> 0.60089187E+03</totfact>
</mgrwt>
</event>
<event>
 5    1  0.3272646E-002  0.1249979E+03  0.7818608E-02  0.1235073E+00
          4   -1    0    0  501    0  0.00000000000E+00  0.00000000000E+00  0.12725114695E+04  0.12725121033E+04  0.12700000000E+01 0.  1.
         -4   -1    0    0    0  501 -0.00000000000E+00 -0.00000000000E+00 -0.29375937091E+01  0.32003682287E+01  0.12700000000E+01 0.  1.
         25    2    1    2    0    0  0.00000000000E+00  0.00000000000E+00  0.12695738758E+04  0.12757124715E+04  0.12499793513E+03 0.  0.
    9000005    1    3    3    0    0 -0.21201521970E+02 -0.16401637036E+00  0.34842493592E+02  0.40798661680E+02  0.10000000000E+01 0.  0.
    9000005    1    3    3    0    0  0.21201521970E+02  0.16401637036E+00  0.12347313822E+04  0.12349138098E+04  0.10000000000E+01 0.  0.
<mgrwt>
<rscale>  0 0.12499794E+03</rscale>
<asrwt>0</asrwt>
<pdfrwt beam="1">  1        4 0.19579104E+00 0.12499794E+03</pdfrwt>
<pdfrwt beam="2">  1       -4 0.47220020E-03 0.12499794E+03</pdfrwt>
<totfact> 0.22810164E+03</totfact>
</mgrwt>
</event>
<event>
 5    1  0.3272646E-002  0.1250009E+03  0.7818608E-02  0.1235068E+00
         -4   -1    0    0    0  501 -0.00000000000E+00  0.00000000000E+00  0.49532642108E+02  0.49548920616E+02  0.12700000000E+01 0. -1.
          4   -1    0    0  501    0  0.00000000000E+00 -0.00000000000E+00 -0.78828930507E+02  0.78839160224E+02  0.12700000000E+01 0. -1.
         25    2    1    2    0    0  0.00000000000E+00  0.00000000000E+00 -0.29296288399E+02  0.12838808084E+03  0.12500090715E+03 0.  0.
    9000005    1    3    3    0    0 -0.33258884296E+02  0.17617208690E+02  0.36591420391E+02  0.52501918754E+02  0.10000000000E+01 0.  0.
    9000005    1    3    3    0    0  0.33258884296E+02 -0.17617208690E+02 -0.65887708789E+02  0.75886162086E+02  0.10000000000E+01 0.  0.
<mgrwt>
<rscale>  0 0.12500091E+03</rscale>
<asrwt>0</asrwt>
<pdfrwt beam="2">  1        4 0.12129567E-01 0.12500091E+03</pdfrwt>
<pdfrwt beam="1">  1       -4 0.76224456E-02 0.12500091E+03</pdfrwt>
<totfact> 0.10378903E+04</totfact>
</mgrwt>
</event>
<event>
 5    1  0.3272646E-002  0.1250013E+03  0.7818608E-02  0.1235067E+00
          4   -1    0    0  501    0  0.00000000000E+00  0.00000000000E+00  0.15838868731E+03  0.15839377882E+03  0.12700000000E+01 0. -1.
         -4   -1    0    0    0  501 -0.00000000000E+00 -0.00000000000E+00 -0.24641104693E+02  0.24673810822E+02  0.12700000000E+01 0. -1.
         25    2    1    2    0    0  0.00000000000E+00  0.00000000000E+00  0.13374758262E+03  0.18306758964E+03  0.12500130607E+03 0.  0.
    9000005    1    3    3    0    0  0.51436781017E+02 -0.24928268306E+02  0.10387068985E+03  0.11856340587E+03  0.10000000000E+01 0.  0.
    9000005    1    3    3    0    0 -0.51436781017E+02  0.24928268306E+02  0.29876892773E+02  0.64504183771E+02  0.10000000000E+01 0.  0.
<mgrwt>
<rscale>  0 0.12500131E+03</rscale>
<asrwt>0</asrwt>
<pdfrwt beam="1">  1        4 0.24370398E-01 0.12500131E+03</pdfrwt>
<pdfrwt beam="2">  1       -4 0.37938467E-02 0.12500131E+03</pdfrwt>
<totfact> 0.93064999E+03</totfact>
</mgrwt>
</event>
<event>
 5    1  0.3272646E-002  0.1250027E+03  0.7818608E-02  0.1235065E+00
         -4   -1    0    0    0  501 -0.00000000000E+00  0.00000000000E+00  0.44058276815E+03  0.44058459856E+03  0.12700000000E+01 0. -1.
          4   -1    0    0  501    0  0.00000000000E+00 -0.00000000000E+00 -0.88191509076E+01  0.89101247315E+01  0.12700000000E+01 0. -1.
         25    2    1    2    0    0  0.00000000000E+00  0.00000000000E+00  0.43176361724E+03  0.44949472329E+03  0.12500274035E+03 0.  0.
    9000005    1    3    3    0    0  0.29907278773E+02  0.54077619777E+02  0.18242138894E+03  0.19260684678E+03  0.10000000000E+01 0.  0.
    9000005    1    3    3    0    0 -0.29907278773E+02 -0.54077619777E+02  0.24934222829E+03  0.25688787651E+03  0.10000000000E+01 0.  0.
<mgrwt>
<rscale>  0 0.12500274E+03</rscale>
<asrwt>0</asrwt>
<pdfrwt beam="2">  1        4 0.13639314E-02 0.12500274E+03</pdfrwt>
<pdfrwt beam="1">  1       -4 0.67789097E-01 0.12500274E+03</pdfrwt>
<totfact> 0.60003971E+03</totfact>
</mgrwt>
</event>
<event>
 5    1  0.3272646E-002  0.1250009E+03  0.7818608E-02  0.1235068E+00
         -4   -1    0    0    0  501 -0.00000000000E+00  0.00000000000E+00  0.72266062373E+02  0.72277220968E+02  0.12700000000E+01 0. -1.
          4   -1    0    0  501    0  0.00000000000E+00 -0.00000000000E+00 -0.54031711180E+02  0.54046634613E+02  0.12700000000E+01 0. -1.
         25    2    1    2    0    0  0.00000000000E+00  0.00000000000E+00  0.18234351193E+02  0.12632385558E+03  0.12500089970E+03 0.  0.
    9000005    1    3    3    0    0  0.40703378301E+02 -0.33010918482E+02  0.43518908205E+02  0.68127682447E+02  0.10000000000E+01 0.  0.
    9000005    1    3    3    0    0 -0.40703378301E+02  0.33010918482E+02 -0.25284557012E+02  0.58196173134E+02  0.10000000000E+01 0.  0.
<mgrwt>
<rscale>  0 0.12500090E+03</rscale>
<asrwt>0</asrwt>
<pdfrwt beam="2">  1        4 0.83145774E-02 0.12500090E+03</pdfrwt>
<pdfrwt beam="1">  1       -4 0.11119862E-01 0.12500090E+03</pdfrwt>
<totfact> 0.10423661E+04</totfact>
</mgrwt>
</event>
<event>
 5    1  0.3272646E-002  0.1250028E+03  0.7818608E-02  0.1235065E+00
          4   -1    0    0  501    0  0.00000000000E+00  0.00000000000E+00  0.90623367276E+01  0.91508932331E+01  0.12700000000E+01 0. -1.
         -4   -1    0    0    0  501 -0.00000000000E+00 -0.00000000000E+00 -0.42887597628E+03  0.42887785666E+03  0.12700000000E+01 0. -1.
         25    2    1    2    0    0  0.00000000000E+00  0.00000000000E+00 -0.41981363955E+03  0.43802874989E+03  0.12500277507E+03 0.  0.
    9000005    1    3    3    0    0  0.37492225067E+02  0.38896593303E+02 -0.99828936455E+02  0.11351400118E+03  0.10000000000E+01 0.  0.
    9000005    1    3    3    0    0 -0.37492225067E+02 -0.38896593303E+02 -0.31998470310E+03  0.32451474871E+03  0.10000000000E+01 0.  0.
<mgrwt>
<rscale>  0 0.12500278E+03</rscale>
<asrwt>0</asrwt>
<pdfrwt beam="1">  1        4 0.14011627E-02 0.12500278E+03</pdfrwt>
<pdfrwt beam="2">  1       -4 0.65987860E-01 0.12500278E+03</pdfrwt>
<totfact> 0.61011191E+03</totfact>
</mgrwt>
</event>
<event>
 5    1  0.3272646E-002  0.1250009E+03  0.7818608E-02  0.1235068E+00
          4   -1    0    0  501    0  0.00000000000E+00  0.00000000000E+00  0.16148071337E+03  0.16148570738E+03  0.12700000000E+01 0. -1.
         -4   -1    0    0    0  501 -0.00000000000E+00 -0.00000000000E+00 -0.24168520940E+02  0.24201865722E+02  0.12700000000E+01 0. -1.
         25    2    1    2    0    0  0.00000000000E+00  0.00000000000E+00  0.13731219243E+03  0.18568757311E+03  0.12500094646E+03 0.  0.
    9000005    1    3    3    0    0  0.25555294460E+02  0.46506168020E+02  0.11768652587E+03  0.12910079438E+03  0.10000000000E+01 0.  0.
    9000005    1    3    3    0    0 -0.25555294460E+02 -0.46506168020E+02  0.19625666560E+02  0.56586778727E+02  0.10000000000E+01 0.  0.
<mgrwt>
<rscale>  0 0.12500095E+03</rscale>
<asrwt>0</asrwt>
<pdfrwt beam="1">  1        4 0.24846135E-01 0.12500095E+03</pdfrwt>
<pdfrwt beam="2">  1       -4 0.37211832E-02 0.12500095E+03</pdfrwt>
<totfact> 0.92601160E+03</totfact>
</mgrwt>
</event>
<event>
 5    1  0.3272646E-002  0.1250065E+03  0.7818608E-02  0.1235059E+00
         -4   -1    0    0    0  501 -0.00000000000E+00  0.00000000000E+00  0.10013222859E+03  0.10014028212E+03  0.12700000000E+01 0.  1.
          4   -1    0    0  501    0  0.00000000000E+00 -0.00000000000E+00 -0.38995025867E+02  0.39015701229E+02  0.12700000000E+01 0.  1.
         25    2    1    2    0    0  0.00000000000E+00  0.00000000000E+00  0.61137202726E+02  0.13915598335E+03  0.12500652041E+03 0.  0.
    9000005    1    3    3    0    0 -0.27629082958E+02 -0.18630801220E+02 -0.28285192269E+02  0.43720991308E+02  0.10000000000E+01 0.  0.
    9000005    1    3    3    0    0  0.27629082958E+02  0.18630801220E+02  0.89422394995E+02  0.95434992041E+02  0.10000000000E+01 0.  0.
<mgrwt>
<rscale>  0 0.12500652E+03</rscale>
<asrwt>0</asrwt>
<pdfrwt beam="2">  1        4 0.60014447E-02 0.12500652E+03</pdfrwt>
<pdfrwt beam="1">  1       -4 0.15407168E-01 0.12500652E+03</pdfrwt>
<totfact> 0.10149617E+04</totfact>
</mgrwt>
</event>
<event>
 5    1  0.3272646E-002  0.1250009E+03  0.7818608E-02  0.1235068E+00
          4   -1    0    0  501    0  0.00000000000E+00  0.00000000000E+00  0.33160079146E+01  0.35508884085E+01  0.12700000000E+01 0.  1.
         -4   -1    0    0    0  501 -0.00000000000E+00 -0.00000000000E+00 -0.11374853101E+04  0.11374860191E+04  0.12700000000E+01 0.  1.
         25    2    1    2    0    0  0.00000000000E+00  0.00000000000E+00 -0.11341693022E+04  0.11410369075E+04  0.12500087289E+03 0.  0.
    9000005    1    3    3    0    0  0.15958803511E+02 -0.40792971361E+02 -0.97393707071E+03  0.97492213414E+03  0.10000000000E+01 0.  0.
    9000005    1    3    3    0    0 -0.15958803511E+02  0.40792971361E+02 -0.16023223151E+03  0.16611477339E+03  0.10000000000E+01 0.  0.
<mgrwt>
<rscale>  0 0.12500087E+03</rscale>
<asrwt>0</asrwt>
<pdfrwt beam="1">  1        4 0.52827824E-03 0.12500087E+03</pdfrwt>
<pdfrwt beam="2">  1       -4 0.17501556E+00 0.12500087E+03</pdfrwt>
<totfact> 0.26309793E+03</totfact>
</mgrwt>
</event>
<event>
 5    1  0.3272646E-002  0.1250332E+03  0.7818608E-02  0.1235017E+00
          4   -1    0    0  501    0  0.00000000000E+00  0.00000000000E+00  0.12911929468E+02  0.12974236879E+02  0.12700000000E+01 0.  1.
         -4   -1    0    0    0  501 -0.00000000000E+00 -0.00000000000E+00 -0.30189885373E+03  0.30190152498E+03  0.12700000000E+01 0.  1.
         25    2    1    2    0    0  0.00000000000E+00  0.00000000000E+00 -0.28898692426E+03  0.31487576186E+03  0.12503320763E+03 0.  0.
    9000005    1    3    3    0    0 -0.17536859243E+02  0.95908016431E+01  0.46593076404E+01  0.20548334628E+02  0.10000000000E+01 0.  0.
    9000005    1    3    3    0    0  0.17536859243E+02 -0.95908016431E+01 -0.29364623190E+03  0.29432742723E+03  0.10000000000E+01 0.  0.
<mgrwt>
<rscale>  0 0.12503321E+03</rscale>
<asrwt>0</asrwt>
<pdfrwt beam="1">  1        4 0.19914493E-02 0.12503321E+03</pdfrwt>
<pdfrwt beam="2">  1       -4 0.46450971E-01 0.12503321E+03</pdfrwt>
<totfact> 0.73715467E+03</totfact>
</mgrwt>
</event>
<event>
 5    1  0.3272646E-002  0.1249984E+03  0.7818608E-02  0.1235072E+00
         -4   -1    0    0    0  501 -0.00000000000E+00  0.00000000000E+00  0.39010441590E+02  0.39031108786E+02  0.12700000000E+01 0. -1.
          4   -1    0    0  501    0  0.00000000000E+00 -0.00000000000E+00 -0.10007968189E+03  0.10008773964E+03  0.12700000000E+01 0. -1.
         25    2    1    2    0    0  0.00000000000E+00  0.00000000000E+00 -0.61069240298E+02  0.13911884843E+03  0.12499840750E+03 0.  0.
    9000005    1    3    3    0    0  0.38735882840E+02  0.21825552761E+02  0.18338700305E+02  0.48105418630E+02  0.10000000000E+01 0.  0.
    9000005    1    3    3    0    0 -0.38735882840E+02 -0.21825552761E+02 -0.79407940604E+02  0.91013429798E+02  0.10000000000E+01 0.  0.
<mgrwt>
<rscale>  0 0.12499841E+03</rscale>
<asrwt>0</asrwt>
<pdfrwt beam="2">  1        4 0.15399084E-01 0.12499841E+03</pdfrwt>
<pdfrwt beam="1">  1       -4 0.60038161E-02 0.12499841E+03</pdfrwt>
<totfact> 0.10152245E+04</totfact>
</mgrwt>
</event>
<event>
 5    1  0.3272646E-002  0.1250106E+03  0.7818608E-02  0.1235053E+00
         -4   -1    0    0    0  501 -0.00000000000E+00  0.00000000000E+00  0.24784914443E+01  0.27849272593E+01  0.12700000000E+01 0.  1.
          4   -1    0    0  501    0  0.00000000000E+00 -0.00000000000E+00 -0.14842466467E+04  0.14842471901E+04  0.12700000000E+01 0.  1.
         25    2    1    2    0    0  0.00000000000E+00  0.00000000000E+00 -0.14817681553E+04  0.14870321173E+04  0.12501060734E+03 0.  0.
    9000005    1    3    3    0    0  0.40128269281E+02 -0.43937742826E+02 -0.96817662556E+03  0.97000401108E+03  0.10000000000E+01 0.  0.
    9000005    1    3    3    0    0 -0.40128269281E+02  0.43937742826E+02 -0.51359152973E+03  0.51702810625E+03  0.10000000000E+01 0.  0.
<mgrwt>
<rscale>  0 0.12501061E+03</rscale>
<asrwt>0</asrwt>
<pdfrwt beam="2">  1        4 0.22836858E+00 0.12501061E+03</pdfrwt>
<pdfrwt beam="1">  1       -4 0.40492134E-03 0.12501061E+03</pdfrwt>
<totfact> 0.18182625E+03</totfact>
</mgrwt>
</event>
<event>
 5    1  0.3272646E-002  0.1249996E+03  0.7818608E-02  0.1235070E+00
         -4   -1    0    0    0  501 -0.00000000000E+00  0.00000000000E+00  0.24155453932E+02  0.24188816727E+02  0.12700000000E+01 0.  1.
          4   -1    0    0  501    0  0.00000000000E+00 -0.00000000000E+00 -0.16156438448E+03  0.16156937591E+03  0.12700000000E+01 0.  1.
         25    2    1    2    0    0  0.00000000000E+00  0.00000000000E+00 -0.13740893054E+03  0.18575819263E+03  0.12499956775E+03 0.  0.
    9000005    1    3    3    0    0 -0.31715128368E+02  0.40945663901E+02 -0.12067077024E+03  0.13131957794E+03  0.10000000000E+01 0.  0.
    9000005    1    3    3    0    0  0.31715128368E+02 -0.40945663901E+02 -0.16738160305E+02  0.54438614697E+02  0.10000000000E+01 0.  0.
<mgrwt>
<rscale>  0 0.12499957E+03</rscale>
<asrwt>0</asrwt>
<pdfrwt beam="2">  1        4 0.24859009E-01 0.12499957E+03</pdfrwt>
<pdfrwt beam="1">  1       -4 0.37191741E-02 0.12499957E+03</pdfrwt>
<totfact> 0.92591556E+03</totfact>
</mgrwt>
</event>
<event>
 5    1  0.3272646E-002  0.1250123E+03  0.7818608E-02  0.1235050E+00
         -4   -1    0    0    0  501 -0.00000000000E+00  0.00000000000E+00  0.47598942781E+03  0.47599112207E+03  0.12700000000E+01 0.  1.
          4   -1    0    0  501    0  0.00000000000E+00 -0.00000000000E+00 -0.81573648967E+01  0.82556345643E+01  0.12700000000E+01 0.  1.
         25    2    1    2    0    0  0.00000000000E+00  0.00000000000E+00  0.46783206292E+03  0.48424675664E+03  0.12501232827E+03 0.  0.
    9000005    1    3    3    0    0 -0.49969405581E+02 -0.28138699087E+02  0.33015687888E+03  0.33510191368E+03  0.10000000000E+01 0.  0.
    9000005    1    3    3    0    0  0.49969405581E+02  0.28138699087E+02  0.13767518404E+03  0.14914484296E+03  0.10000000000E+01 0.  0.
<mgrwt>
<rscale>  0 0.12501233E+03</rscale>
<asrwt>0</asrwt>
<pdfrwt beam="2">  1        4 0.12626687E-02 0.12501233E+03</pdfrwt>
<pdfrwt beam="1">  1       -4 0.73236835E-01 0.12501233E+03</pdfrwt>
<totfact> 0.57092191E+03</totfact>
</mgrwt>
</event>
<event>
 5    1  0.3272646E-002  0.1250007E+03  0.7818608E-02  0.1235068E+00
          4   -1    0    0  501    0  0.00000000000E+00  0.00000000000E+00  0.56441404899E+02  0.56455691361E+02  0.12700000000E+01 0. -1.
         -4   -1    0    0    0  501 -0.00000000000E+00 -0.00000000000E+00 -0.69180886914E+02  0.69192543053E+02  0.12700000000E+01 0. -1.
         25    2    1    2    0    0  0.00000000000E+00  0.00000000000E+00 -0.12739482015E+02  0.12564823441E+03  0.12500073764E+03 0.  0.
    9000005    1    3    3    0    0  0.92773170920E+00 -0.40605058685E+02  0.41370112159E+02  0.57983770635E+02  0.10000000000E+01 0.  0.
    9000005    1    3    3    0    0 -0.92773170920E+00  0.40605058685E+02 -0.54109594174E+02  0.67664463780E+02  0.10000000000E+01 0.  0.
<mgrwt>
<rscale>  0 0.12500074E+03</rscale>
<asrwt>0</asrwt>
<pdfrwt beam="1">  1        4 0.86852886E-02 0.12500074E+03</pdfrwt>
<pdfrwt beam="2">  1       -4 0.10645209E-01 0.12500074E+03</pdfrwt>
<totfact> 0.10438510E+04</totfact>
</mgrwt>
</event>
<event>
 5    1  0.3272646E-002  0.1249995E+03  0.7818608E-02  0.1235070E+00
          4   -1    0    0  501    0  0.00000000000E+00  0.00000000000E+00  0.80237834999E+02  0.80247885114E+02  0.12700000000E+01 0. -1.
         -4   -1    0    0    0  501 -0.00000000000E+00 -0.00000000000E+00 -0.48661596819E+02  0.48678166615E+02  0.12700000000E+01 0. -1.
         25    2    1    2    0    0  0.00000000000E+00  0.00000000000E+00  0.31576238180E+02  0.12892605173E+03  0.12499947199E+03 0.  0.
    9000005    1    3    3    0    0  0.51988577658E+02 -0.82747472960E+01 -0.18943599100E+02  0.55956622455E+02  0.10000000000E+01 0.  0.
    9000005    1    3    3    0    0 -0.51988577658E+02  0.82747472960E+01  0.50519837280E+02  0.72969429274E+02  0.10000000000E+01 0.  0.
<mgrwt>
<rscale>  0 0.12499947E+03</rscale>
<asrwt>0</asrwt>
<pdfrwt beam="1">  1        4 0.12346330E-01 0.12499947E+03</pdfrwt>
<pdfrwt beam="2">  1       -4 0.74884473E-02 0.12499947E+03</pdfrwt>
<totfact> 0.10367660E+04</totfact>
</mgrwt>
</event>
<event>
 5    1  0.3272646E-002  0.1250046E+03  0.7818608E-02  0.1235062E+00
          4   -1    0    0  501    0  0.00000000000E+00  0.00000000000E+00  0.92268321103E+02  0.92277060959E+02  0.12700000000E+01 0. -1.
         -4   -1    0    0    0  501 -0.00000000000E+00 -0.00000000000E+00 -0.42318587142E+02  0.42337639491E+02  0.12700000000E+01 0. -1.
         25    2    1    2    0    0  0.00000000000E+00  0.00000000000E+00  0.49949733961E+02  0.13461470045E+03  0.12500456653E+03 0.  0.
    9000005    1    3    3    0    0 -0.48558217581E+01  0.46289219454E+02 -0.19935792857E+02  0.50642933164E+02  0.10000000000E+01 0.  0.
    9000005    1    3    3    0    0  0.48558217581E+01 -0.46289219454E+02  0.69885526818E+02  0.83971767286E+02  0.10000000000E+01 0.  0.
<mgrwt>
<rscale>  0 0.12500457E+03</rscale>
<asrwt>0</asrwt>
<pdfrwt beam="1">  1        4 0.14197264E-01 0.12500457E+03</pdfrwt>
<pdfrwt beam="2">  1       -4 0.65126899E-02 0.12500457E+03</pdfrwt>
<totfact> 0.10245143E+04</totfact>
</mgrwt>
</event>
<event>
 5    1  0.3272646E-002  0.1250043E+03  0.7818608E-02  0.1235063E+00
         -4   -1    0    0    0  501 -0.00000000000E+00  0.00000000000E+00  0.38495608094E+02  0.38516551540E+02  0.12700000000E+01 0. -1.
          4   -1    0    0  501    0  0.00000000000E+00 -0.00000000000E+00 -0.10142711746E+03  0.10143506818E+03  0.12700000000E+01 0. -1.
         25    2    1    2    0    0  0.00000000000E+00  0.00000000000E+00 -0.62931509364E+02  0.13995161972E+03  0.12500432389E+03 0.  0.
    9000005    1    3    3    0    0  0.44850316760E+02  0.38575785027E+02 -0.89103446586E+01  0.59833404933E+02  0.10000000000E+01 0.  0.
    9000005    1    3    3    0    0 -0.44850316760E+02 -0.38575785027E+02 -0.54021164705E+02  0.80118214783E+02  0.10000000000E+01 0.  0.
<mgrwt>
<rscale>  0 0.12500432E+03</rscale>
<asrwt>0</asrwt>
<pdfrwt beam="2">  1        4 0.15606394E-01 0.12500432E+03</pdfrwt>
<pdfrwt beam="1">  1       -4 0.59246239E-02 0.12500432E+03</pdfrwt>
<totfact> 0.10133601E+04</totfact>
</mgrwt>
</event>
<event>
 5    1  0.3272646E-002  0.1250012E+03  0.7818608E-02  0.1235067E+00
          4   -1    0    0  501    0  0.00000000000E+00  0.00000000000E+00  0.10903601350E+03  0.10904340943E+03  0.12700000000E+01 0. -1.
         -4   -1    0    0    0  501 -0.00000000000E+00 -0.00000000000E+00 -0.35806145911E+02  0.35828661501E+02  0.12700000000E+01 0. -1.
         25    2    1    2    0    0  0.00000000000E+00  0.00000000000E+00  0.73229867589E+02  0.14487207093E+03  0.12500121371E+03 0.  0.
    9000005    1    3    3    0    0  0.44835744639E+02  0.26318962278E+02  0.76802698789E+02  0.92750128377E+02  0.10000000000E+01 0.  0.
    9000005    1    3    3    0    0 -0.44835744639E+02 -0.26318962278E+02 -0.35728311994E+01  0.52121942553E+02  0.10000000000E+01 0.  0.
<mgrwt>
<rscale>  0 0.12500121E+03</rscale>
<asrwt>0</asrwt>
<pdfrwt beam="1">  1        4 0.16777072E-01 0.12500121E+03</pdfrwt>
<pdfrwt beam="2">  1       -4 0.55109389E-02 0.12500121E+03</pdfrwt>
<totfact> 0.10033314E+04</totfact>
</mgrwt>
</event>
<event>
 5    1  0.3272646E-002  0.1250008E+03  0.7818608E-02  0.1235068E+00
         -4   -1    0    0    0  501 -0.00000000000E+00  0.00000000000E+00  0.54527917794E+03  0.54528065690E+03  0.12700000000E+01 0.  1.
          4   -1    0    0  501    0  0.00000000000E+00 -0.00000000000E+00 -0.71060652873E+01  0.72186608084E+01  0.12700000000E+01 0.  1.
         25    2    1    2    0    0  0.00000000000E+00  0.00000000000E+00  0.53817311265E+03  0.55249931771E+03  0.12500078756E+03 0.  0.
    9000005    1    3    3    0    0  0.31267576855E+02  0.29707827798E+02  0.69204205843E+02  0.81550220731E+02  0.10000000000E+01 0.  0.
    9000005    1    3    3    0    0 -0.31267576855E+02 -0.29707827798E+02  0.46896890681E+03  0.47094909698E+03  0.10000000000E+01 0.  0.
<mgrwt>
<rscale>  0 0.12500079E+03</rscale>
<asrwt>0</asrwt>
<pdfrwt beam="2">  1        4 0.11020154E-02 0.12500079E+03</pdfrwt>
<pdfrwt beam="1">  1       -4 0.83897909E-01 0.12500079E+03</pdfrwt>
<totfact> 0.52009256E+03</totfact>
</mgrwt>
</event>
<event>
 5    1  0.3272646E-002  0.1249587E+03  0.7818608E-02  0.1235134E+00
          4   -1    0    0  501    0  0.00000000000E+00  0.00000000000E+00  0.72443991415E+03  0.72444102736E+03  0.12700000000E+01 0.  1.
         -4   -1    0    0    0  501 -0.00000000000E+00 -0.00000000000E+00 -0.53125725684E+01  0.54622639349E+01  0.12700000000E+01 0.  1.
         25    2    1    2    0    0  0.00000000000E+00  0.00000000000E+00  0.71912734158E+03  0.72990329129E+03  0.12495871808E+03 0.  0.
    9000005    1    3    3    0    0  0.63890609804E+01  0.31782648303E+02  0.47637578574E+02  0.57630683891E+02  0.10000000000E+01 0.  0.
    9000005    1    3    3    0    0 -0.63890609804E+01 -0.31782648303E+02  0.67148976301E+03  0.67227260740E+03  0.10000000000E+01 0.  0.
<mgrwt>
<rscale>  0 0.12495872E+03</rscale>
<asrwt>0</asrwt>
<pdfrwt beam="1">  1        4 0.11146385E+00 0.12495872E+03</pdfrwt>
<pdfrwt beam="2">  1       -4 0.82891950E-03 0.12495872E+03</pdfrwt>
<totfact> 0.41591847E+03</totfact>
</mgrwt>
</event>
<event>
 5    1  0.3272646E-002  0.1249998E+03  0.7818608E-02  0.1235070E+00
          4   -1    0    0  501    0  0.00000000000E+00  0.00000000000E+00  0.72702851258E+01  0.73803757228E+01  0.12700000000E+01 0.  1.
         -4   -1    0    0    0  501 -0.00000000000E+00 -0.00000000000E+00 -0.53314025375E+03  0.53314176639E+03  0.12700000000E+01 0.  1.
         25    2    1    2    0    0  0.00000000000E+00  0.00000000000E+00 -0.52586996862E+03  0.54052214211E+03  0.12499984885E+03 0.  0.
    9000005    1    3    3    0    0  0.10064438771E+02 -0.92383836479E+01 -0.52662502522E+03  0.52680314905E+03  0.10000000000E+01 0.  0.
    9000005    1    3    3    0    0 -0.10064438771E+02  0.92383836479E+01  0.75505659522E+00  0.13718993063E+02  0.10000000000E+01 0.  0.
<mgrwt>
<rscale>  0 0.12499985E+03</rscale>
<asrwt>0</asrwt>
<pdfrwt beam="1">  1        4 0.11270907E-02 0.12499985E+03</pdfrwt>
<pdfrwt beam="2">  1       -4 0.82030132E-01 0.12499985E+03</pdfrwt>
<totfact> 0.52852129E+03</totfact>
</mgrwt>
</event>
<event>
 5    1  0.3272646E-002  0.1249999E+03  0.7818608E-02  0.1235069E+00
         -4   -1    0    0    0  501 -0.00000000000E+00  0.00000000000E+00  0.22096313807E+02  0.22132780753E+02  0.12700000000E+01 0. -1.
          4   -1    0    0  501    0  0.00000000000E+00 -0.00000000000E+00 -0.17659820588E+03  0.17660277240E+03  0.12700000000E+01 0. -1.
         25    2    1    2    0    0  0.00000000000E+00  0.00000000000E+00 -0.15450189207E+03  0.19873555316E+03  0.12499994174E+03 0.  0.
    9000005    1    3    3    0    0 -0.50487708314E+02  0.14173083217E+02 -0.13129210827E+03  0.14138070120E+03  0.10000000000E+01 0.  0.
    9000005    1    3    3    0    0  0.50487708314E+02 -0.14173083217E+02 -0.23209783809E+02  0.57354851958E+02  0.10000000000E+01 0.  0.
<mgrwt>
<rscale>  0 0.12499994E+03</rscale>
<asrwt>0</asrwt>
<pdfrwt beam="2">  1        4 0.27172110E-01 0.12499994E+03</pdfrwt>
<pdfrwt beam="1">  1       -4 0.34025894E-02 0.12499994E+03</pdfrwt>
<totfact> 0.90349299E+03</totfact>
</mgrwt>
</event>
<event>
 5    1  0.3272646E-002  0.1249977E+03  0.7818608E-02  0.1235073E+00
         -4   -1    0    0    0  501 -0.00000000000E+00  0.00000000000E+00  0.19171156116E+02  0.19213175865E+02  0.12700000000E+01 0. -1.
          4   -1    0    0  501    0  0.00000000000E+00 -0.00000000000E+00 -0.20348216456E+03  0.20348612777E+03  0.12700000000E+01 0. -1.
         25    2    1    2    0    0  0.00000000000E+00  0.00000000000E+00 -0.18431100845E+03  0.22269930364E+03  0.12499772800E+03 0.  0.
    9000005    1    3    3    0    0 -0.13718834530E+02 -0.49999029803E+02 -0.30002549590E+02  0.59910453045E+02  0.10000000000E+01 0.  0.
    9000005    1    3    3    0    0  0.13718834530E+02  0.49999029803E+02 -0.15430845886E+03  0.16278885059E+03  0.10000000000E+01 0.  0.
<mgrwt>
<rscale>  0 0.12499773E+03</rscale>
<asrwt>0</asrwt>
<pdfrwt beam="2">  1        4 0.31308484E-01 0.12499773E+03</pdfrwt>
<pdfrwt beam="1">  1       -4 0.29529459E-02 0.12499773E+03</pdfrwt>
<totfact> 0.86447401E+03</totfact>
</mgrwt>
</event>
<event>
 5    1  0.3272646E-002  0.1249999E+03  0.7818608E-02  0.1235069E+00
          4   -1    0    0  501    0  0.00000000000E+00  0.00000000000E+00  0.36613988219E+02  0.36636007333E+02  0.12700000000E+01 0.  1.
         -4   -1    0    0    0  501 -0.00000000000E+00 -0.00000000000E+00 -0.10662938207E+03  0.10663694491E+03  0.12700000000E+01 0.  1.
         25    2    1    2    0    0  0.00000000000E+00  0.00000000000E+00 -0.70015393846E+02  0.14327295224E+03  0.12499993388E+03 0.  0.
    9000005    1    3    3    0    0 -0.62047400759E+02  0.73875437985E+01 -0.33988866845E+02  0.71138588781E+02  0.10000000000E+01 0.  0.
    9000005    1    3    3    0    0  0.62047400759E+02 -0.73875437985E+01 -0.36026527001E+02  0.72134363462E+02  0.10000000000E+01 0.  0.
<mgrwt>
<rscale>  0 0.12499993E+03</rscale>
<asrwt>0</asrwt>
<pdfrwt beam="1">  1        4 0.56351969E-02 0.12499993E+03</pdfrwt>
<pdfrwt beam="2">  1       -4 0.16406796E-01 0.12499993E+03</pdfrwt>
<totfact> 0.10066212E+04</totfact>
</mgrwt>
</event>
<event>
 5    1  0.3272646E-002  0.1250176E+03  0.7818608E-02  0.1235042E+00
         -4   -1    0    0    0  501 -0.00000000000E+00  0.00000000000E+00  0.13437802463E+03  0.13438402585E+03  0.12700000000E+01 0.  1.
          4   -1    0    0  501    0  0.00000000000E+00 -0.00000000000E+00 -0.29056775389E+02  0.29084516431E+02  0.12700000000E+01 0.  1.
         25    2    1    2    0    0  0.00000000000E+00  0.00000000000E+00  0.10532124924E+03  0.16346854228E+03  0.12501759386E+03 0.  0.
    9000005    1    3    3    0    0  0.18952900031E+02  0.51587118076E+02  0.91579206177E+02  0.10680914837E+03  0.10000000000E+01 0.  0.
    9000005    1    3    3    0    0 -0.18952900031E+02 -0.51587118076E+02  0.13742043062E+02  0.56659393912E+02  0.10000000000E+01 0.  0.
<mgrwt>
<rscale>  0 0.12501759E+03</rscale>
<asrwt>0</asrwt>
<pdfrwt beam="2">  1        4 0.44728688E-02 0.12501759E+03</pdfrwt>
<pdfrwt beam="1">  1       -4 0.20676137E-01 0.12501759E+03</pdfrwt>
<totfact> 0.96640007E+03</totfact>
</mgrwt>
</event>
<event>
 4    1  0.3272646E-002  0.1250780E+03  0.7818608E-02  0.1234947E+00
          4   -1    0    0  501    0  0.00000000000E+00  0.00000000000E+00  0.89082385452E+02  0.89091437848E+02  0.12700000000E+01 0. -1.
         -4   -1    0    0    0  501 -0.00000000000E+00 -0.00000000000E+00 -0.43884152206E+02  0.43902525153E+02  0.12700000000E+01 0. -1.
    9000005    1    1    2    0    0 -0.24725342485E+02  0.31694226984E+02  0.73528965364E+02  0.83805580558E+02  0.10000000000E+01 0.  0.
    9000005    1    1    2    0    0  0.24725342485E+02 -0.31694226984E+02 -0.28330732117E+02  0.49188382444E+02  0.10000000000E+01 0.  0.
<mgrwt>
<rscale>  0 0.12507803E+03</rscale>
<asrwt>0</asrwt>
<pdfrwt beam="1">  1        4 0.13707092E-01 0.12507803E+03</pdfrwt>
<pdfrwt beam="2">  1       -4 0.67535177E-02 0.12507803E+03</pdfrwt>
<totfact> 0.10262454E+04</totfact>
</mgrwt>
</event>
<event>
 5    1  0.3272646E-002  0.1249990E+03  0.7818608E-02  0.1235071E+00
         -4   -1    0    0    0  501 -0.00000000000E+00  0.00000000000E+00  0.61681421374E+03  0.61681552119E+03  0.12700000000E+01 0.  1.
          4   -1    0    0  501    0  0.00000000000E+00 -0.00000000000E+00 -0.62678443947E+01  0.63952148796E+01  0.12700000000E+01 0.  1.
         25    2    1    2    0    0  0.00000000000E+00  0.00000000000E+00  0.61054636935E+03  0.62321073606E+03  0.12499900969E+03 0.  0.
    9000005    1    3    3    0    0  0.32326504306E+01 -0.70664491118E+01 -0.38740893144E+01  0.87403260735E+01  0.10000000000E+01 0.  0.
    9000005    1    3    3    0    0 -0.32326504306E+01  0.70664491118E+01  0.61442045866E+03  0.61447040999E+03  0.10000000000E+01 0.  0.
<mgrwt>
<rscale>  0 0.12499901E+03</rscale>
<asrwt>0</asrwt>
<pdfrwt beam="2">  1        4 0.97418161E-03 0.12499901E+03</pdfrwt>
<pdfrwt beam="1">  1       -4 0.94904436E-01 0.12499901E+03</pdfrwt>
<totfact> 0.47435523E+03</totfact>
</mgrwt>
</event>
<event>
 5    1  0.3272646E-002  0.1249983E+03  0.7818608E-02  0.1235072E+00
          4   -1    0    0  501    0  0.00000000000E+00  0.00000000000E+00  0.88595732154E+03  0.88595823180E+03  0.12700000000E+01 0. -1.
         -4   -1    0    0    0  501 -0.00000000000E+00 -0.00000000000E+00 -0.43165643663E+01  0.44995141881E+01  0.12700000000E+01 0. -1.
         25    2    1    2    0    0  0.00000000000E+00  0.00000000000E+00  0.88164075717E+03  0.89045774598E+03  0.12499829069E+03 0.  0.
    9000005    1    3    3    0    0 -0.22513619091E+02 -0.51425612176E+02  0.24524930461E+03  0.25159427268E+03  0.10000000000E+01 0.  0.
    9000005    1    3    3    0    0  0.22513619091E+02  0.51425612176E+02  0.63639145256E+03  0.63886347330E+03  0.10000000000E+01 0.  0.
<mgrwt>
<rscale>  0 0.12499829E+03</rscale>
<asrwt>0</asrwt>
<pdfrwt beam="1">  1        4 0.13631523E+00 0.12499829E+03</pdfrwt>
<pdfrwt beam="2">  1       -4 0.67823011E-03 0.12499829E+03</pdfrwt>
<totfact> 0.34527720E+03</totfact>
</mgrwt>
</event>
<event>
 5    1  0.3272646E-002  0.1250004E+03  0.7818608E-02  0.1235069E+00
         -4   -1    0    0    0  501 -0.00000000000E+00  0.00000000000E+00  0.77392224096E+02  0.77402643692E+02  0.12700000000E+01 0. -1.
          4   -1    0    0  501    0  0.00000000000E+00 -0.00000000000E+00 -0.50451925377E+02  0.50467907370E+02  0.12700000000E+01 0. -1.
         25    2    1    2    0    0  0.00000000000E+00  0.00000000000E+00  0.26940298718E+02  0.12787055106E+03  0.12500039253E+03 0.  0.
    9000005    1    3    3    0    0 -0.18193832418E+02 -0.74502639882E+01 -0.47210961719E+02  0.51150727052E+02  0.10000000000E+01 0.  0.
    9000005    1    3    3    0    0  0.18193832418E+02  0.74502639882E+01  0.74151260437E+02  0.76719824009E+02  0.10000000000E+01 0.  0.
<mgrwt>
<rscale>  0 0.12500039E+03</rscale>
<asrwt>0</asrwt>
<pdfrwt beam="2">  1        4 0.77638656E-02 0.12500039E+03</pdfrwt>
<pdfrwt beam="1">  1       -4 0.11908527E-01 0.12500039E+03</pdfrwt>
<totfact> 0.10390192E+04</totfact>
</mgrwt>
</event>
<event>
 5    1  0.3272646E-002  0.1249919E+03  0.7818608E-02  0.1235082E+00
          4   -1    0    0  501    0  0.00000000000E+00  0.00000000000E+00  0.28740240227E+01  0.31421193617E+01  0.12700000000E+01 0.  1.
         -4   -1    0    0    0  501 -0.00000000000E+00 -0.00000000000E+00 -0.12981523007E+04  0.12981529219E+04  0.12700000000E+01 0.  1.
         25    2    1    2    0    0  0.00000000000E+00  0.00000000000E+00 -0.12952782766E+04  0.13012950413E+04  0.12499188156E+03 0.  0.
    9000005    1    3    3    0    0 -0.29509421569E+02 -0.48441204088E+02 -0.92059626411E+03  0.92234258154E+03  0.10000000000E+01 0.  0.
    9000005    1    3    3    0    0  0.29509421569E+02  0.48441204088E+02 -0.37468201253E+03  0.37895245972E+03  0.10000000000E+01 0.  0.
<mgrwt>
<rscale>  0 0.12499188E+03</rscale>
<asrwt>0</asrwt>
<pdfrwt beam="1">  1        4 0.46282908E-03 0.12499188E+03</pdfrwt>
<pdfrwt beam="2">  1       -4 0.19973596E+00 0.12499188E+03</pdfrwt>
<totfact> 0.22201971E+03</totfact>
</mgrwt>
</event>
<event>
 5    1  0.3272646E-002  0.1249982E+03  0.7818608E-02  0.1235072E+00
          4   -1    0    0  501    0  0.00000000000E+00  0.00000000000E+00  0.40880402566E+02  0.40900124865E+02  0.12700000000E+01 0. -1.
         -4   -1    0    0    0  501 -0.00000000000E+00 -0.00000000000E+00 -0.95503363458E+02  0.95511807290E+02  0.12700000000E+01 0. -1.
         25    2    1    2    0    0  0.00000000000E+00  0.00000000000E+00 -0.54622960892E+02  0.13641193216E+03  0.12499818950E+03 0.  0.
    9000005    1    3    3    0    0  0.15707555237E+02 -0.22938313640E+02  0.33765334833E+02  0.43749186970E+02  0.10000000000E+01 0.  0.
    9000005    1    3    3    0    0 -0.15707555237E+02  0.22938313640E+02 -0.88388295725E+02  0.92662745185E+02  0.10000000000E+01 0.  0.
<mgrwt>
<rscale>  0 0.12499819E+03</rscale>
<asrwt>0</asrwt>
<pdfrwt beam="1">  1        4 0.62914594E-02 0.12499819E+03</pdfrwt>
<pdfrwt beam="2">  1       -4 0.14694992E-01 0.12499819E+03</pdfrwt>
<totfact> 0.10208813E+04</totfact>
</mgrwt>
</event>
<event>
 5    1  0.3272646E-002  0.1250609E+03  0.7818608E-02  0.1234974E+00
          4   -1    0    0  501    0  0.00000000000E+00  0.00000000000E+00  0.33568155904E+01  0.35890264568E+01  0.12700000000E+01 0. -1.
         -4   -1    0    0    0  501 -0.00000000000E+00 -0.00000000000E+00 -0.11256371724E+04  0.11256378888E+04  0.12700000000E+01 0. -1.
         25    2    1    2    0    0  0.00000000000E+00  0.00000000000E+00 -0.11222803568E+04  0.11292269153E+04  0.12506089295E+03 0.  0.
    9000005    1    3    3    0    0 -0.22500391093E+02  0.47428003743E+02 -0.86779139968E+03  0.86937828159E+03  0.10000000000E+01 0.  0.
    9000005    1    3    3    0    0  0.22500391093E+02 -0.47428003743E+02 -0.25448895710E+03  0.25984863368E+03  0.10000000000E+01 0.  0.
<mgrwt>
<rscale>  0 0.12506089E+03</rscale>
<asrwt>0</asrwt>
<pdfrwt beam="1">  1        4 0.53435155E-03 0.12506089E+03</pdfrwt>
<pdfrwt beam="2">  1       -4 0.17319258E+00 0.12506089E+03</pdfrwt>
<totfact> 0.26608047E+03</totfact>
</mgrwt>
</event>
<event>
 5    1  0.3272646E-002  0.1249999E+03  0.7818608E-02  0.1235069E+00
          4   -1    0    0  501    0  0.00000000000E+00  0.00000000000E+00  0.23627747708E+01  0.26824624168E+01  0.12700000000E+01 0.  1.
         -4   -1    0    0    0  501 -0.00000000000E+00 -0.00000000000E+00 -0.15481675628E+04  0.15481680837E+04  0.12700000000E+01 0.  1.
         25    2    1    2    0    0  0.00000000000E+00  0.00000000000E+00 -0.15458047880E+04  0.15508505461E+04  0.12499989486E+03 0.  0.
    9000005    1    3    3    0    0 -0.60778000312E+02  0.24535230884E+01 -0.59515194906E+03  0.59825314673E+03  0.10000000000E+01 0.  0.
    9000005    1    3    3    0    0  0.60778000312E+02 -0.24535230884E+01 -0.95065283897E+03  0.95259739939E+03  0.10000000000E+01 0.  0.
<mgrwt>
<rscale>  0 0.12499989E+03</rscale>
<asrwt>0</asrwt>
<pdfrwt beam="1">  1        4 0.38813648E-03 0.12499989E+03</pdfrwt>
<pdfrwt beam="2">  1       -4 0.23820350E+00 0.12499989E+03</pdfrwt>
<totfact> 0.16952350E+03</totfact>
</mgrwt>
</event>
<event>
 5    1  0.3272646E-002  0.1249998E+03  0.7818608E-02  0.1235070E+00
         -4   -1    0    0    0  501 -0.00000000000E+00  0.00000000000E+00  0.80931003351E+02  0.80940967398E+02  0.12700000000E+01 0. -1.
          4   -1    0    0  501    0  0.00000000000E+00 -0.00000000000E+00 -0.48244986581E+02  0.48261699413E+02  0.12700000000E+01 0. -1.
         25    2    1    2    0    0  0.00000000000E+00  0.00000000000E+00  0.32686016770E+02  0.12920266681E+03  0.12499981368E+03 0.  0.
    9000005    1    3    3    0    0  0.61095959656E+02  0.12668097567E+02  0.12756266640E+02  0.63693950426E+02  0.10000000000E+01 0.  0.
    9000005    1    3    3    0    0 -0.61095959656E+02 -0.12668097567E+02  0.19929750130E+02  0.65508716386E+02  0.10000000000E+01 0.  0.
<mgrwt>
<rscale>  0 0.12499981E+03</rscale>
<asrwt>0</asrwt>
<pdfrwt beam="2">  1        4 0.74243578E-02 0.12499981E+03</pdfrwt>
<pdfrwt beam="1">  1       -4 0.12452976E-01 0.12499981E+03</pdfrwt>
<totfact> 0.10361637E+04</totfact>
</mgrwt>
</event>
<event>
 5    1  0.3272646E-002  0.1249990E+03  0.7818608E-02  0.1235071E+00
          4   -1    0    0  501    0  0.00000000000E+00  0.00000000000E+00  0.26047819616E+02  0.26078761603E+02  0.12700000000E+01 0.  1.
         -4   -1    0    0    0  501 -0.00000000000E+00 -0.00000000000E+00 -0.14983952889E+03  0.14984491088E+03  0.12700000000E+01 0.  1.
         25    2    1    2    0    0  0.00000000000E+00  0.00000000000E+00 -0.12379170927E+03  0.17592367249E+03  0.12499900502E+03 0.  0.
    9000005    1    3    3    0    0 -0.16541428741E+02 -0.54148506567E+02 -0.99119090740E+02  0.11415460471E+03  0.10000000000E+01 0.  0.
    9000005    1    3    3    0    0  0.16541428741E+02  0.54148506567E+02 -0.24672618533E+02  0.61769067772E+02  0.10000000000E+01 0.  0.
<mgrwt>
<rscale>  0 0.12499901E+03</rscale>
<asrwt>0</asrwt>
<pdfrwt beam="1">  1        4 0.40101511E-02 0.12499901E+03</pdfrwt>
<pdfrwt beam="2">  1       -4 0.23055029E-01 0.12499901E+03</pdfrwt>
<totfact> 0.94358050E+03</totfact>
</mgrwt>
</event>
<event>
 5    1  0.3272646E-002  0.1249786E+03  0.7818608E-02  0.1235103E+00
         -4   -1    0    0    0  501 -0.00000000000E+00  0.00000000000E+00  0.82398315608E+02  0.82408102241E+02  0.12700000000E+01 0. -1.
          4   -1    0    0  501    0  0.00000000000E+00 -0.00000000000E+00 -0.47369587059E+02  0.47386608637E+02  0.12700000000E+01 0. -1.
         25    2    1    2    0    0  0.00000000000E+00  0.00000000000E+00  0.35028728549E+02  0.12979471088E+03  0.12497861876E+03 0.  0.
    9000005    1    3    3    0    0  0.62334115310E+02  0.40218216369E+00  0.13082591346E+02  0.63701317713E+02  0.10000000000E+01 0.  0.
    9000005    1    3    3    0    0 -0.62334115310E+02 -0.40218216369E+00  0.21946137203E+02  0.66093393166E+02  0.10000000000E+01 0.  0.
<mgrwt>
<rscale>  0 0.12497862E+03</rscale>
<asrwt>0</asrwt>
<pdfrwt beam="2">  1        4 0.72896911E-02 0.12497862E+03</pdfrwt>
<pdfrwt beam="1">  1       -4 0.12678726E-01 0.12497862E+03</pdfrwt>
<totfact> 0.10353897E+04</totfact>
</mgrwt>
</event>
<event>
 5    1  0.3272646E-002  0.1250029E+03  0.7818608E-02  0.1235065E+00
         -4   -1    0    0    0  501 -0.00000000000E+00  0.00000000000E+00  0.50288069034E+02  0.50304103084E+02  0.12700000000E+01 0.  1.
          4   -1    0    0  501    0  0.00000000000E+00 -0.00000000000E+00 -0.77647495772E+02  0.77657881118E+02  0.12700000000E+01 0.  1.
         25    2    1    2    0    0  0.00000000000E+00  0.00000000000E+00 -0.27359426739E+02  0.12796198420E+03  0.12500292464E+03 0.  0.
    9000005    1    3    3    0    0  0.41174500278E+02  0.33967986044E+02  0.19589927174E+02  0.56867642783E+02  0.10000000000E+01 0.  0.
    9000005    1    3    3    0    0 -0.41174500278E+02 -0.33967986044E+02 -0.46949353913E+02  0.71094341419E+02  0.10000000000E+01 0.  0.
<mgrwt>
<rscale>  0 0.12500292E+03</rscale>
<asrwt>0</asrwt>
<pdfrwt beam="2">  1        4 0.11947801E-01 0.12500292E+03</pdfrwt>
<pdfrwt beam="1">  1       -4 0.77386583E-02 0.12500292E+03</pdfrwt>
<totfact> 0.10387623E+04</totfact>
</mgrwt>
</event>
<event>
 5    1  0.3272646E-002  0.1250023E+03  0.7818608E-02  0.1235066E+00
          4   -1    0    0  501    0  0.00000000000E+00  0.00000000000E+00  0.33071954231E+02  0.33096329958E+02  0.12700000000E+01 0.  1.
         -4   -1    0    0    0  501 -0.00000000000E+00 -0.00000000000E+00 -0.11804669821E+03  0.11805352963E+03  0.12700000000E+01 0.  1.
         25    2    1    2    0    0  0.00000000000E+00  0.00000000000E+00 -0.84974743980E+02  0.15114985959E+03  0.12500229174E+03 0.  0.
    9000005    1    3    3    0    0 -0.81189858685E+01  0.31216366407E+02 -0.10720955092E+03  0.11196100782E+03  0.10000000000E+01 0.  0.
    9000005    1    3    3    0    0  0.81189858685E+01 -0.31216366407E+02  0.22234806943E+02  0.39188851769E+02  0.10000000000E+01 0.  0.
<mgrwt>
<rscale>  0 0.12500229E+03</rscale>
<asrwt>0</asrwt>
<pdfrwt beam="1">  1        4 0.50903936E-02 0.12500229E+03</pdfrwt>
<pdfrwt beam="2">  1       -4 0.18163431E-01 0.12500229E+03</pdfrwt>
<totfact> 0.99069874E+03</totfact>
</mgrwt>
</event>
<event>
 5    1  0.3272646E-002  0.1249997E+03  0.7818608E-02  0.1235070E+00
         -4   -1    0    0    0  501 -0.00000000000E+00  0.00000000000E+00  0.62370011075E+01  0.63649888307E+01  0.12700000000E+01 0. -1.
          4   -1    0    0  501    0  0.00000000000E+00 -0.00000000000E+00 -0.61980978489E+03  0.61981108601E+03  0.12700000000E+01 0. -1.
         25    2    1    2    0    0  0.00000000000E+00  0.00000000000E+00 -0.61357278378E+03  0.62617607484E+03  0.12499966283E+03 0.  0.
    9000005    1    3    3    0    0  0.59224787530E+02 -0.11854805165E+02 -0.22646095836E+03  0.23437934535E+03  0.10000000000E+01 0.  0.
    9000005    1    3    3    0    0 -0.59224787530E+02  0.11854805165E+02 -0.38711182542E+03  0.39179672949E+03  0.10000000000E+01 0.  0.
<mgrwt>
<rscale>  0 0.12499966E+03</rscale>
<asrwt>0</asrwt>
<pdfrwt beam="2">  1        4 0.95365249E-01 0.12499966E+03</pdfrwt>
<pdfrwt beam="1">  1       -4 0.96948441E-03 0.12499966E+03</pdfrwt>
<totfact> 0.47256285E+03</totfact>
</mgrwt>
</event>
<event>
 5    1  0.3272646E-002  0.1249982E+03  0.7818608E-02  0.1235072E+00
          4   -1    0    0  501    0  0.00000000000E+00  0.00000000000E+00  0.48692840248E+02  0.48709399415E+02  0.12700000000E+01 0.  1.
         -4   -1    0    0    0  501 -0.00000000000E+00 -0.00000000000E+00 -0.80184699992E+02  0.80194756767E+02  0.12700000000E+01 0.  1.
         25    2    1    2    0    0  0.00000000000E+00  0.00000000000E+00 -0.31491859744E+02  0.12890415618E+03  0.12499817699E+03 0.  0.
    9000005    1    3    3    0    0 -0.17677828775E+02 -0.34564265318E+02  0.34753046846E+02  0.52114953058E+02  0.10000000000E+01 0.  0.
    9000005    1    3    3    0    0  0.17677828775E+02  0.34564265318E+02 -0.66244906591E+02  0.76789203124E+02  0.10000000000E+01 0.  0.
<mgrwt>
<rscale>  0 0.12499818E+03</rscale>
<asrwt>0</asrwt>
<pdfrwt beam="1">  1        4 0.74932536E-02 0.12499818E+03</pdfrwt>
<pdfrwt beam="2">  1       -4 0.12338155E-01 0.12499818E+03</pdfrwt>
<totfact> 0.10368433E+04</totfact>
</mgrwt>
</event>
<event>
 5    1  0.3272646E-002  0.1249967E+03  0.7818608E-02  0.1235074E+00
         -4   -1    0    0    0  501 -0.00000000000E+00  0.00000000000E+00  0.12190842469E+02  0.12256816067E+02  0.12700000000E+01 0.  1.
          4   -1    0    0  501    0  0.00000000000E+00 -0.00000000000E+00 -0.31947616639E+03  0.31947869067E+03  0.12700000000E+01 0.  1.
         25    2    1    2    0    0  0.00000000000E+00  0.00000000000E+00 -0.30728532392E+03  0.33173550673E+03  0.12499670449E+03 0.  0.
    9000005    1    3    3    0    0  0.26707325602E+02  0.29651152528E+02 -0.26016114373E+02  0.47647773234E+02  0.10000000000E+01 0.  0.
    9000005    1    3    3    0    0 -0.26707325602E+02 -0.29651152528E+02 -0.28126920955E+03  0.28408773350E+03  0.10000000000E+01 0.  0.
<mgrwt>
<rscale>  0 0.12499670E+03</rscale>
<asrwt>0</asrwt>
<pdfrwt beam="2">  1        4 0.49155442E-01 0.12499670E+03</pdfrwt>
<pdfrwt beam="1">  1       -4 0.18807835E-02 0.12499670E+03</pdfrwt>
<totfact> 0.71786987E+03</totfact>
</mgrwt>
</event>
<event>
 5    1  0.3272646E-002  0.1250013E+03  0.7818608E-02  0.1235067E+00
         -4   -1    0    0    0  501 -0.00000000000E+00  0.00000000000E+00  0.25897991731E+03  0.25898303124E+03  0.12700000000E+01 0.  1.
          4   -1    0    0  501    0  0.00000000000E+00 -0.00000000000E+00 -0.15053576784E+02  0.15107053783E+02  0.12700000000E+01 0.  1.
         25    2    1    2    0    0  0.00000000000E+00  0.00000000000E+00  0.24392634053E+03  0.27409008502E+03  0.12500126042E+03 0.  0.
    9000005    1    3    3    0    0 -0.52244189132E+02 -0.21917699514E+02  0.64137093157E+02  0.85582752753E+02  0.10000000000E+01 0.  0.
    9000005    1    3    3    0    0  0.52244189132E+02  0.21917699514E+02  0.17978924737E+03  0.18850733227E+03  0.10000000000E+01 0.  0.
<mgrwt>
<rscale>  0 0.12500126E+03</rscale>
<asrwt>0</asrwt>
<pdfrwt beam="2">  1        4 0.23202879E-02 0.12500126E+03</pdfrwt>
<pdfrwt beam="1">  1       -4 0.39847420E-01 0.12500126E+03</pdfrwt>
<totfact> 0.78966082E+03</totfact>
</mgrwt>
</event>
<event>
 5    1  0.3272646E-002  0.1250019E+03  0.7818608E-02  0.1235066E+00
         -4   -1    0    0    0  501 -0.00000000000E+00  0.00000000000E+00  0.39961435579E+02  0.39981611192E+02  0.12700000000E+01 0. -1.
          4   -1    0    0  501    0  0.00000000000E+00 -0.00000000000E+00 -0.97704559356E+02  0.97712812973E+02  0.12700000000E+01 0. -1.
         25    2    1    2    0    0  0.00000000000E+00  0.00000000000E+00 -0.57743123777E+02  0.13769442416E+03  0.12500194439E+03 0.  0.
    9000005    1    3    3    0    0  0.18770431827E+02 -0.37415966478E+02  0.22241331079E+02  0.47412661459E+02  0.10000000000E+01 0.  0.
    9000005    1    3    3    0    0 -0.18770431827E+02  0.37415966478E+02 -0.79984454857E+02  0.90281762705E+02  0.10000000000E+01 0.  0.
<mgrwt>
<rscale>  0 0.12500194E+03</rscale>
<asrwt>0</asrwt>
<pdfrwt beam="2">  1        4 0.15033657E-01 0.12500194E+03</pdfrwt>
<pdfrwt beam="1">  1       -4 0.61501000E-02 0.12500194E+03</pdfrwt>
<totfact> 0.10181140E+04</totfact>
</mgrwt>
</event>
<event>
 5    1  0.3272646E-002  0.1249906E+03  0.7818608E-02  0.1235084E+00
         -4   -1    0    0    0  501 -0.00000000000E+00  0.00000000000E+00  0.12224819850E+03  0.12225479515E+03  0.12700000000E+01 0. -1.
          4   -1    0    0  501    0  0.00000000000E+00 -0.00000000000E+00 -0.31928535633E+02  0.31953783621E+02  0.12700000000E+01 0. -1.
         25    2    1    2    0    0  0.00000000000E+00  0.00000000000E+00  0.90319662868E+02  0.15420857877E+03  0.12499057671E+03 0.  0.
    9000005    1    3    3    0    0  0.25750087012E+02  0.32376738150E+02  0.10294073546E+03  0.11094645182E+03  0.10000000000E+01 0.  0.
    9000005    1    3    3    0    0 -0.25750087012E+02 -0.32376738150E+02 -0.12621072596E+02  0.43262126945E+02  0.10000000000E+01 0.  0.
<mgrwt>
<rscale>  0 0.12499058E+03</rscale>
<asrwt>0</asrwt>
<pdfrwt beam="2">  1        4 0.49145320E-02 0.12499058E+03</pdfrwt>
<pdfrwt beam="1">  1       -4 0.18809865E-01 0.12499058E+03</pdfrwt>
<totfact> 0.98491962E+03</totfact>
</mgrwt>
</event>
<event>
 5    1  0.3272646E-002  0.1250169E+03  0.7818608E-02  0.1235043E+00
         -4   -1    0    0    0  501 -0.00000000000E+00  0.00000000000E+00  0.14652068407E+03  0.14652618796E+03  0.12700000000E+01 0. -1.
          4   -1    0    0  501    0  0.00000000000E+00 -0.00000000000E+00 -0.26646129982E+02  0.26676377997E+02  0.12700000000E+01 0. -1.
         25    2    1    2    0    0  0.00000000000E+00  0.00000000000E+00  0.11987455408E+03  0.17320256596E+03  0.12501687941E+03 0.  0.
    9000005    1    3    3    0    0 -0.44052882682E+02 -0.43923259500E+02  0.68295453250E+02  0.92386027798E+02  0.10000000000E+01 0.  0.
    9000005    1    3    3    0    0  0.44052882682E+02  0.43923259500E+02  0.51579100833E+02  0.80816538162E+02  0.10000000000E+01 0.  0.
<mgrwt>
<rscale>  0 0.12501688E+03</rscale>
<asrwt>0</asrwt>
<pdfrwt beam="2">  1        4 0.41021548E-02 0.12501688E+03</pdfrwt>
<pdfrwt beam="1">  1       -4 0.22544394E-01 0.12501688E+03</pdfrwt>
<totfact> 0.94819155E+03</totfact>
</mgrwt>
</event>
<event>
 5    1  0.3272646E-002  0.1249883E+03  0.7818608E-02  0.1235088E+00
          4   -1    0    0  501    0  0.00000000000E+00  0.00000000000E+00  0.56772398744E+03  0.56772540793E+03  0.12700000000E+01 0. -1.
         -4   -1    0    0    0  501 -0.00000000000E+00 -0.00000000000E+00 -0.68191970541E+01  0.69364507108E+01  0.12700000000E+01 0. -1.
         25    2    1    2    0    0  0.00000000000E+00  0.00000000000E+00  0.56090479038E+03  0.57466185864E+03  0.12498827107E+03 0.  0.
    9000005    1    3    3    0    0 -0.16257325933E+02 -0.38329860628E+02  0.66224097665E+02  0.78231131743E+02  0.10000000000E+01 0.  0.
    9000005    1    3    3    0    0  0.16257325933E+02  0.38329860628E+02  0.49468069272E+03  0.49643072690E+03  0.10000000000E+01 0.  0.
<mgrwt>
<rscale>  0 0.12498827E+03</rscale>
<asrwt>0</asrwt>
<pdfrwt beam="1">  1        4 0.87351293E-01 0.12498827E+03</pdfrwt>
<pdfrwt beam="2">  1       -4 0.10582359E-02 0.12498827E+03</pdfrwt>
<totfact> 0.50520105E+03</totfact>
</mgrwt>
</event>
<event>
 5    1  0.3272646E-002  0.1250074E+03  0.7818608E-02  0.1235058E+00
         -4   -1    0    0    0  501 -0.00000000000E+00  0.00000000000E+00  0.13496325661E+03  0.13496923180E+03  0.12700000000E+01 0.  1.
          4   -1    0    0  501    0  0.00000000000E+00 -0.00000000000E+00 -0.28925933144E+02  0.28953799548E+02  0.12700000000E+01 0.  1.
         25    2    1    2    0    0  0.00000000000E+00  0.00000000000E+00  0.10603732346E+03  0.16392303135E+03  0.12500738474E+03 0.  0.
    9000005    1    3    3    0    0  0.11806882420E+02 -0.52419790549E+02  0.94867115708E+02  0.10903213543E+03  0.10000000000E+01 0.  0.
    9000005    1    3    3    0    0 -0.11806882420E+02  0.52419790549E+02  0.11170207753E+02  0.54890895921E+02  0.10000000000E+01 0.  0.
<mgrwt>
<rscale>  0 0.12500738E+03</rscale>
<asrwt>0</asrwt>
<pdfrwt beam="2">  1        4 0.44527468E-02 0.12500738E+03</pdfrwt>
<pdfrwt beam="1">  1       -4 0.20766181E-01 0.12500738E+03</pdfrwt>
<totfact> 0.96575718E+03</totfact>
</mgrwt>
</event>
<event>
 5    1  0.3272646E-002  0.1250016E+03  0.7818608E-02  0.1235067E+00
         -4   -1    0    0    0  501 -0.00000000000E+00  0.00000000000E+00  0.15976734068E+04  0.15976739116E+04  0.12700000000E+01 0.  1.
          4   -1    0    0  501    0  0.00000000000E+00 -0.00000000000E+00 -0.22795688797E+01  0.26094701143E+01  0.12700000000E+01 0.  1.
         25    2    1    2    0    0  0.00000000000E+00  0.00000000000E+00  0.15953938380E+04  0.16002833817E+04  0.12500161441E+03 0.  0.
    9000005    1    3    3    0    0 -0.40574116222E+02  0.42214995455E+02  0.51809885555E+03  0.52139791797E+03  0.10000000000E+01 0.  0.
    9000005    1    3    3    0    0  0.40574116222E+02 -0.42214995455E+02  0.10772949824E+04  0.10788854637E+04  0.10000000000E+01 0.  0.
<mgrwt>
<rscale>  0 0.12500161E+03</rscale>
<asrwt>0</asrwt>
<pdfrwt beam="2">  1        4 0.37612006E-03 0.12500161E+03</pdfrwt>
<pdfrwt beam="1">  1       -4 0.24582047E+00 0.12500161E+03</pdfrwt>
<totfact> 0.16040541E+03</totfact>
</mgrwt>
</event>
<event>
 5    1  0.3272646E-002  0.1250005E+03  0.7818608E-02  0.1235068E+00
         -4   -1    0    0    0  501 -0.00000000000E+00  0.00000000000E+00  0.47475875134E+02  0.47492858618E+02  0.12700000000E+01 0.  1.
          4   -1    0    0  501    0  0.00000000000E+00 -0.00000000000E+00 -0.82242726379E+02  0.82252531525E+02  0.12700000000E+01 0.  1.
         25    2    1    2    0    0  0.00000000000E+00  0.00000000000E+00 -0.34766851245E+02  0.12974539014E+03  0.12500052927E+03 0.  0.
    9000005    1    3    3    0    0  0.25243545317E+02 -0.54659064270E+02 -0.34765227380E+02  0.69530359713E+02  0.10000000000E+01 0.  0.
    9000005    1    3    3    0    0 -0.25243545317E+02  0.54659064270E+02 -0.16238651145E-02  0.60215030430E+02  0.10000000000E+01 0.  0.
<mgrwt>
<rscale>  0 0.12500053E+03</rscale>
<asrwt>0</asrwt>
<pdfrwt beam="2">  1        4 0.12654788E-01 0.12500053E+03</pdfrwt>
<pdfrwt beam="1">  1       -4 0.73060415E-02 0.12500053E+03</pdfrwt>
<totfact> 0.10349833E+04</totfact>
</mgrwt>
</event>
<event>
 5    1  0.3272646E-002  0.1250001E+03  0.7818608E-02  0.1235069E+00
         -4   -1    0    0    0  501 -0.00000000000E+00  0.00000000000E+00  0.82824556625E+02  0.82834292899E+02  0.12700000000E+01 0. -1.
          4   -1    0    0  501    0  0.00000000000E+00 -0.00000000000E+00 -0.47141940555E+02  0.47159044300E+02  0.12700000000E+01 0. -1.
         25    2    1    2    0    0  0.00000000000E+00  0.00000000000E+00  0.35682616069E+02  0.12999333720E+03  0.12500007451E+03 0.  0.
    9000005    1    3    3    0    0  0.59193421312E+02 -0.11641678293E+01  0.38641223840E+02  0.70706156685E+02  0.10000000000E+01 0.  0.
    9000005    1    3    3    0    0 -0.59193421312E+02  0.11641678293E+01 -0.29586077706E+01  0.59287180514E+02  0.10000000000E+01 0.  0.
<mgrwt>
<rscale>  0 0.12500007E+03</rscale>
<asrwt>0</asrwt>
<pdfrwt beam="2">  1        4 0.72546709E-02 0.12500007E+03</pdfrwt>
<pdfrwt beam="1">  1       -4 0.12744304E-01 0.12500007E+03</pdfrwt>
<totfact> 0.10344633E+04</totfact>
</mgrwt>
</event>
<event>
 5    1  0.3272646E-002  0.1249990E+03  0.7818608E-02  0.1235071E+00
          4   -1    0    0  501    0  0.00000000000E+00  0.00000000000E+00  0.86400032529E+02  0.86409365933E+02  0.12700000000E+01 0.  1.
         -4   -1    0    0    0  501 -0.00000000000E+00 -0.00000000000E+00 -0.45189808872E+02  0.45207651187E+02  0.12700000000E+01 0.  1.
         25    2    1    2    0    0  0.00000000000E+00  0.00000000000E+00  0.41210223657E+02  0.13161701712E+03  0.12499902664E+03 0.  0.
    9000005    1    3    3    0    0  0.24912030767E+02  0.24393186038E+01  0.80895987466E+02  0.84686010299E+02  0.10000000000E+01 0.  0.
    9000005    1    3    3    0    0 -0.24912030767E+02 -0.24393186038E+01 -0.39685763809E+02  0.46931006822E+02  0.10000000000E+01 0.  0.
<mgrwt>
<rscale>  0 0.12499903E+03</rscale>
<asrwt>0</asrwt>
<pdfrwt beam="1">  1        4 0.13294403E-01 0.12499903E+03</pdfrwt>
<pdfrwt beam="2">  1       -4 0.69543688E-02 0.12499903E+03</pdfrwt>
<totfact> 0.10310106E+04</totfact>
</mgrwt>
</event>
<event>
 5    1  0.3272646E-002  0.1250019E+03  0.7818608E-02  0.1235066E+00
          4   -1    0    0  501    0  0.00000000000E+00  0.00000000000E+00  0.26130468960E+02  0.26161313195E+02  0.12700000000E+01 0. -1.
         -4   -1    0    0    0  501 -0.00000000000E+00 -0.00000000000E+00 -0.14937315309E+03  0.14937855189E+03  0.12700000000E+01 0. -1.
         25    2    1    2    0    0  0.00000000000E+00  0.00000000000E+00 -0.12324268413E+03  0.17553986508E+03  0.12500194015E+03 0.  0.
    9000005    1    3    3    0    0  0.52617514501E+01 -0.40391622188E+02 -0.12817676076E+03  0.13449703034E+03  0.10000000000E+01 0.  0.
    9000005    1    3    3    0    0 -0.52617514501E+01  0.40391622188E+02  0.49340766329E+01  0.41042834740E+02  0.10000000000E+01 0.  0.
<mgrwt>
<rscale>  0 0.12500194E+03</rscale>
<asrwt>0</asrwt>
<pdfrwt beam="1">  1        4 0.40228601E-02 0.12500194E+03</pdfrwt>
<pdfrwt beam="2">  1       -4 0.22983273E-01 0.12500194E+03</pdfrwt>
<totfact> 0.94421949E+03</totfact>
</mgrwt>
</event>
<event>
 5    1  0.3272646E-002  0.1249997E+03  0.7818608E-02  0.1235070E+00
         -4   -1    0    0    0  501 -0.00000000000E+00  0.00000000000E+00  0.49054904562E+02  0.49071341551E+02  0.12700000000E+01 0.  1.
          4   -1    0    0  501    0  0.00000000000E+00 -0.00000000000E+00 -0.79594938725E+02  0.79605070006E+02  0.12700000000E+01 0.  1.
         25    2    1    2    0    0  0.00000000000E+00  0.00000000000E+00 -0.30540034163E+02  0.12867641156E+03  0.12499970082E+03 0.  0.
    9000005    1    3    3    0    0  0.52255988592E+02 -0.20464715511E+02  0.13029283736E+02  0.57621655299E+02  0.10000000000E+01 0.  0.
    9000005    1    3    3    0    0 -0.52255988592E+02  0.20464715511E+02 -0.43569317899E+02  0.71054756258E+02  0.10000000000E+01 0.  0.
<mgrwt>
<rscale>  0 0.12499970E+03</rscale>
<asrwt>0</asrwt>
<pdfrwt beam="2">  1        4 0.12247419E-01 0.12499970E+03</pdfrwt>
<pdfrwt beam="1">  1       -4 0.75489521E-02 0.12499970E+03</pdfrwt>
<totfact> 0.10372975E+04</totfact>
</mgrwt>
</event>
<event>
 5    1  0.3272646E-002  0.1250037E+03  0.7818608E-02  0.1235064E+00
         -4   -1    0    0    0  501 -0.00000000000E+00  0.00000000000E+00  0.49547433359E+03  0.49547596122E+03  0.12700000000E+01 0. -1.
          4   -1    0    0  501    0  0.00000000000E+00 -0.00000000000E+00 -0.78315261091E+01  0.79338326928E+01  0.12700000000E+01 0. -1.
         25    2    1    2    0    0  0.00000000000E+00  0.00000000000E+00  0.48764280748E+03  0.50340979391E+03  0.12500365162E+03 0.  0.
    9000005    1    3    3    0    0 -0.33138807665E+02  0.45451070989E+02  0.35348283120E+03  0.35793168675E+03  0.10000000000E+01 0.  0.
    9000005    1    3    3    0    0  0.33138807665E+02 -0.45451070989E+02  0.13415997628E+03  0.14547810716E+03  0.10000000000E+01 0.  0.
<mgrwt>
<rscale>  0 0.12500365E+03</rscale>
<asrwt>0</asrwt>
<pdfrwt beam="2">  1        4 0.12128448E-02 0.12500365E+03</pdfrwt>
<pdfrwt beam="1">  1       -4 0.76234836E-01 0.12500365E+03</pdfrwt>
<totfact> 0.55596300E+03</totfact>
</mgrwt>
</event>
<event>
 5    1  0.3272646E-002  0.1250006E+03  0.7818608E-02  0.1235068E+00
          4   -1    0    0  501    0  0.00000000000E+00  0.00000000000E+00  0.13222525324E+02  0.13283375925E+02  0.12700000000E+01 0.  1.
         -4   -1    0    0    0  501 -0.00000000000E+00 -0.00000000000E+00 -0.29468647540E+03  0.29468921203E+03  0.12700000000E+01 0.  1.
         25    2    1    2    0    0  0.00000000000E+00  0.00000000000E+00 -0.28146395008E+03  0.30797258795E+03  0.12500063894E+03 0.  0.
    9000005    1    3    3    0    0  0.47728498454E+02 -0.23483567773E+02 -0.59921792678E+02  0.80131821131E+02  0.10000000000E+01 0.  0.
    9000005    1    3    3    0    0 -0.47728498454E+02  0.23483567773E+02 -0.22154215740E+03  0.22784076682E+03  0.10000000000E+01 0.  0.
<mgrwt>
<rscale>  0 0.12500064E+03</rscale>
<asrwt>0</asrwt>
<pdfrwt beam="1">  1        4 0.20391262E-02 0.12500064E+03</pdfrwt>
<pdfrwt beam="2">  1       -4 0.45341267E-01 0.12500064E+03</pdfrwt>
<totfact> 0.74608477E+03</totfact>
</mgrwt>
</event>
<event>
 5    1  0.3272646E-002  0.1250007E+03  0.7818608E-02  0.1235068E+00
         -4   -1    0    0    0  501 -0.00000000000E+00  0.00000000000E+00  0.31969353422E+02  0.31994569198E+02  0.12700000000E+01 0. -1.
          4   -1    0    0  501    0  0.00000000000E+00 -0.00000000000E+00 -0.12211201927E+03  0.12211862328E+03  0.12700000000E+01 0. -1.
         25    2    1    2    0    0  0.00000000000E+00  0.00000000000E+00 -0.90142665853E+02  0.15411319248E+03  0.12500070355E+03 0.  0.
    9000005    1    3    3    0    0  0.89802514222E+01  0.61840131893E+02 -0.45895757643E+02  0.77538812203E+02  0.10000000000E+01 0.  0.
    9000005    1    3    3    0    0 -0.89802514222E+01 -0.61840131893E+02 -0.44246908210E+02  0.76574380274E+02  0.10000000000E+01 0.  0.
<mgrwt>
<rscale>  0 0.12500070E+03</rscale>
<asrwt>0</asrwt>
<pdfrwt beam="2">  1        4 0.18788912E-01 0.12500070E+03</pdfrwt>
<pdfrwt beam="1">  1       -4 0.49208098E-02 0.12500070E+03</pdfrwt>
<totfact> 0.98488313E+03</totfact>
</mgrwt>
</event>
<event>
 5    1  0.3272646E-002  0.1250060E+03  0.7818608E-02  0.1235060E+00
          4   -1    0    0  501    0  0.00000000000E+00  0.00000000000E+00  0.53525856460E+01  0.55011883350E+01  0.12700000000E+01 0. -1.
         -4   -1    0    0    0  501 -0.00000000000E+00 -0.00000000000E+00 -0.71971539971E+03  0.71971652022E+03  0.12700000000E+01 0. -1.
         25    2    1    2    0    0  0.00000000000E+00  0.00000000000E+00 -0.71436281407E+03  0.72521770856E+03  0.12500597860E+03 0.  0.
    9000005    1    3    3    0    0 -0.28342717364E+02 -0.33670447301E+02 -0.61458702033E+03  0.61616167863E+03  0.10000000000E+01 0.  0.
    9000005    1    3    3    0    0  0.28342717364E+02  0.33670447301E+02 -0.99775793734E+02  0.10905602993E+03  0.10000000000E+01 0.  0.
<mgrwt>
<rscale>  0 0.12500598E+03</rscale>
<asrwt>0</asrwt>
<pdfrwt beam="1">  1        4 0.83499245E-03 0.12500598E+03</pdfrwt>
<pdfrwt beam="2">  1       -4 0.11073689E+00 0.12500598E+03</pdfrwt>
<totfact> 0.41782990E+03</totfact>
</mgrwt>
</event>
<event>
 5    1  0.3272646E-002  0.1250044E+03  0.7818608E-02  0.1235062E+00
         -4   -1    0    0    0  501 -0.00000000000E+00  0.00000000000E+00  0.14718436629E+03  0.14718984537E+03  0.12700000000E+01 0.  1.
          4   -1    0    0  501    0  0.00000000000E+00 -0.00000000000E+00 -0.26520540867E+02  0.26550931959E+02  0.12700000000E+01 0.  1.
         25    2    1    2    0    0  0.00000000000E+00  0.00000000000E+00  0.12066382542E+03  0.17374077733E+03  0.12500439569E+03 0.  0.
    9000005    1    3    3    0    0 -0.36000916549E+02  0.45212495318E+02  0.27286456915E+02  0.63920156885E+02  0.10000000000E+01 0.  0.
    9000005    1    3    3    0    0  0.36000916549E+02 -0.45212495318E+02  0.93377368507E+02  0.10982062044E+03  0.10000000000E+01 0.  0.
<mgrwt>
<rscale>  0 0.12500440E+03</rscale>
<asrwt>0</asrwt>
<pdfrwt beam="2">  1        4 0.40828425E-02 0.12500440E+03</pdfrwt>
<pdfrwt beam="1">  1       -4 0.22646508E-01 0.12500440E+03</pdfrwt>
<totfact> 0.94746627E+03</totfact>
</mgrwt>
</event>
<event>
 5    1  0.3272646E-002  0.1249967E+03  0.7818608E-02  0.1235074E+00
         -4   -1    0    0    0  501 -0.00000000000E+00  0.00000000000E+00  0.10867616565E+03  0.10868358607E+03  0.12700000000E+01 0.  1.
          4   -1    0    0  501    0  0.00000000000E+00 -0.00000000000E+00 -0.35922172841E+02  0.35944615752E+02  0.12700000000E+01 0.  1.
         25    2    1    2    0    0  0.00000000000E+00  0.00000000000E+00  0.72753992807E+02  0.14462820182E+03  0.12499669312E+03 0.  0.
    9000005    1    3    3    0    0 -0.58962907400E+02 -0.20179807521E+02  0.41703759839E+02  0.74993684170E+02  0.10000000000E+01 0.  0.
    9000005    1    3    3    0    0  0.58962907400E+02  0.20179807521E+02  0.31050232968E+02  0.69634517648E+02  0.10000000000E+01 0.  0.
<mgrwt>
<rscale>  0 0.12499669E+03</rscale>
<asrwt>0</asrwt>
<pdfrwt beam="2">  1        4 0.55287853E-02 0.12499669E+03</pdfrwt>
<pdfrwt beam="1">  1       -4 0.16721707E-01 0.12499669E+03</pdfrwt>
<totfact> 0.10039296E+04</totfact>
</mgrwt>
</event>
<event>
 5    1  0.3272646E-002  0.1250019E+03  0.7818608E-02  0.1235066E+00
         -4   -1    0    0    0  501 -0.00000000000E+00  0.00000000000E+00  0.16310493043E+03  0.16310987472E+03  0.12700000000E+01 0.  1.
          4   -1    0    0  501    0  0.00000000000E+00 -0.00000000000E+00 -0.23927896246E+02  0.23961575882E+02  0.12700000000E+01 0.  1.
         25    2    1    2    0    0  0.00000000000E+00  0.00000000000E+00  0.13917703418E+03  0.18707145060E+03  0.12500192313E+03 0.  0.
    9000005    1    3    3    0    0  0.59411179719E+02 -0.64526776720E+01  0.96940777572E+02  0.11388520396E+03  0.10000000000E+01 0.  0.
    9000005    1    3    3    0    0 -0.59411179719E+02  0.64526776720E+01  0.42236256611E+02  0.73186246640E+02  0.10000000000E+01 0.  0.
<mgrwt>
<rscale>  0 0.12500192E+03</rscale>
<asrwt>0</asrwt>
<pdfrwt beam="2">  1        4 0.36841858E-02 0.12500192E+03</pdfrwt>
<pdfrwt beam="1">  1       -4 0.25096038E-01 0.12500192E+03</pdfrwt>
<totfact> 0.92355403E+03</totfact>
</mgrwt>
</event>
<event>
 5    1  0.3272646E-002  0.1250054E+03  0.7818608E-02  0.1235061E+00
         -4   -1    0    0    0  501 -0.00000000000E+00  0.00000000000E+00  0.15686341439E+03  0.15686855540E+03  0.12700000000E+01 0. -1.
          4   -1    0    0  501    0  0.00000000000E+00 -0.00000000000E+00 -0.24882640641E+02  0.24915029706E+02  0.12700000000E+01 0. -1.
         25    2    1    2    0    0  0.00000000000E+00  0.00000000000E+00  0.13198077375E+03  0.18178358511E+03  0.12500538859E+03 0.  0.
    9000005    1    3    3    0    0  0.69637165066E+01 -0.59823701277E+02  0.90246360257E+02  0.10850241528E+03  0.10000000000E+01 0.  0.
    9000005    1    3    3    0    0 -0.69637165066E+01  0.59823701277E+02  0.41734413494E+02  0.73281169831E+02  0.10000000000E+01 0.  0.
<mgrwt>
<rscale>  0 0.12500539E+03</rscale>
<asrwt>0</asrwt>
<pdfrwt beam="2">  1        4 0.38309855E-02 0.12500539E+03</pdfrwt>
<pdfrwt beam="1">  1       -4 0.24135720E-01 0.12500539E+03</pdfrwt>
<totfact> 0.93285664E+03</totfact>
</mgrwt>
</event>
<event>
 5    1  0.3272646E-002  0.1250001E+03  0.7818608E-02  0.1235069E+00
          4   -1    0    0  501    0  0.00000000000E+00  0.00000000000E+00  0.26124622741E+03  0.26124931433E+03  0.12700000000E+01 0. -1.
         -4   -1    0    0    0  501 -0.00000000000E+00 -0.00000000000E+00 -0.14922248382E+02  0.14976194336E+02  0.12700000000E+01 0. -1.
         25    2    1    2    0    0  0.00000000000E+00  0.00000000000E+00  0.24632397903E+03  0.27622550867E+03  0.12500011597E+03 0.  0.
    9000005    1    3    3    0    0 -0.59358770477E+02 -0.84891216983E+01  0.16205252298E+03  0.17279337089E+03  0.10000000000E+01 0.  0.
    9000005    1    3    3    0    0  0.59358770477E+02  0.84891216983E+01  0.84271456054E+02  0.10343213778E+03  0.10000000000E+01 0.  0.
<mgrwt>
<rscale>  0 0.12500012E+03</rscale>
<asrwt>0</asrwt>
<pdfrwt beam="1">  1        4 0.40196112E-01 0.12500012E+03</pdfrwt>
<pdfrwt beam="2">  1       -4 0.23001178E-02 0.12500012E+03</pdfrwt>
<totfact> 0.78681049E+03</totfact>
</mgrwt>
</event>
<event>
 5    1  0.3272646E-002  0.1250142E+03  0.7818608E-02  0.1235047E+00
         -4   -1    0    0    0  501 -0.00000000000E+00  0.00000000000E+00  0.39412204028E+03  0.39412408646E+03  0.12700000000E+01 0.  1.
          4   -1    0    0  501    0  0.00000000000E+00 -0.00000000000E+00 -0.98707668608E+01  0.99521323554E+01  0.12700000000E+01 0.  1.
         25    2    1    2    0    0  0.00000000000E+00  0.00000000000E+00  0.38425127341E+03  0.40407621882E+03  0.12501419717E+03 0.  0.
    9000005    1    3    3    0    0  0.23584834811E+02 -0.29079467562E+02  0.35387596906E+03  0.35585258373E+03  0.10000000000E+01 0.  0.
    9000005    1    3    3    0    0 -0.23584834811E+02  0.29079467562E+02  0.30375304351E+02  0.48223635089E+02  0.10000000000E+01 0.  0.
<mgrwt>
<rscale>  0 0.12501420E+03</rscale>
<asrwt>0</asrwt>
<pdfrwt beam="2">  1        4 0.15249959E-02 0.12501420E+03</pdfrwt>
<pdfrwt beam="1">  1       -4 0.60640574E-01 0.12501420E+03</pdfrwt>
<totfact> 0.64138161E+03</totfact>
</mgrwt>
</event>
<event>
 5    1  0.3272646E-002  0.1250010E+03  0.7818608E-02  0.1235068E+00
         -4   -1    0    0    0  501 -0.00000000000E+00  0.00000000000E+00  0.32249694498E+03  0.32249944562E+03  0.12700000000E+01 0. -1.
          4   -1    0    0  501    0  0.00000000000E+00 -0.00000000000E+00 -0.12076860432E+02  0.12143453294E+02  0.12700000000E+01 0. -1.
         25    2    1    2    0    0  0.00000000000E+00  0.00000000000E+00  0.31042008455E+03  0.33464289891E+03  0.12500096359E+03 0.  0.
    9000005    1    3    3    0    0 -0.61216395259E+02  0.81758349562E+01  0.12966926901E+03  0.14362942126E+03  0.10000000000E+01 0.  0.
    9000005    1    3    3    0    0  0.61216395259E+02 -0.81758349562E+01  0.18075081555E+03  0.19101347766E+03  0.10000000000E+01 0.  0.
<mgrwt>
<rscale>  0 0.12500096E+03</rscale>
<asrwt>0</asrwt>
<pdfrwt beam="2">  1        4 0.18632935E-02 0.12500096E+03</pdfrwt>
<pdfrwt beam="1">  1       -4 0.49620226E-01 0.12500096E+03</pdfrwt>
<totfact> 0.71446213E+03</totfact>
</mgrwt>
</event>
<event>
 5    1  0.3272646E-002  0.1250013E+03  0.7818608E-02  0.1235067E+00
          4   -1    0    0  501    0  0.00000000000E+00  0.00000000000E+00  0.16147081488E+02  0.16196948496E+02  0.12700000000E+01 0.  1.
         -4   -1    0    0    0  501 -0.00000000000E+00 -0.00000000000E+00 -0.24149744306E+03  0.24150078241E+03  0.12700000000E+01 0.  1.
         25    2    1    2    0    0  0.00000000000E+00  0.00000000000E+00 -0.22535036157E+03  0.25769773090E+03  0.12500134021E+03 0.  0.
    9000005    1    3    3    0    0 -0.50328197459E+02  0.33761325332E+02 -0.14411509671E+03  0.15634230280E+03  0.10000000000E+01 0.  0.
    9000005    1    3    3    0    0  0.50328197459E+02 -0.33761325332E+02 -0.81235264861E+02  0.10135542810E+03  0.10000000000E+01 0.  0.
<mgrwt>
<rscale>  0 0.12500134E+03</rscale>
<asrwt>0</asrwt>
<pdfrwt beam="1">  1        4 0.24882594E-02 0.12500134E+03</pdfrwt>
<pdfrwt beam="2">  1       -4 0.37157543E-01 0.12500134E+03</pdfrwt>
<totfact> 0.81227819E+03</totfact>
</mgrwt>
</event>
<event>
 5    1  0.3272646E-002  0.1249988E+03  0.7818608E-02  0.1235071E+00
         -4   -1    0    0    0  501 -0.00000000000E+00  0.00000000000E+00  0.30565623058E+01  0.33099053052E+01  0.12700000000E+01 0.  1.
          4   -1    0    0  501    0  0.00000000000E+00 -0.00000000000E+00 -0.12268554164E+04  0.12268560738E+04  0.12700000000E+01 0.  1.
         25    2    1    2    0    0  0.00000000000E+00  0.00000000000E+00 -0.12237988541E+04  0.12301659791E+04  0.12499880278E+03 0.  0.
    9000005    1    3    3    0    0 -0.62098530083E+02  0.57641491306E+01 -0.57287682928E+03  0.57626236593E+03  0.10000000000E+01 0.  0.
    9000005    1    3    3    0    0  0.62098530083E+02 -0.57641491306E+01 -0.65092202484E+03  0.65390361314E+03  0.10000000000E+01 0.  0.
<mgrwt>
<rscale>  0 0.12499880E+03</rscale>
<asrwt>0</asrwt>
<pdfrwt beam="2">  1        4 0.18876615E+00 0.12499880E+03</pdfrwt>
<pdfrwt beam="1">  1       -4 0.48977982E-03 0.12499880E+03</pdfrwt>
<totfact> 0.23937224E+03</totfact>
</mgrwt>
</event>
<event>
 5    1  0.3272646E-002  0.1250026E+03  0.7818608E-02  0.1235065E+00
         -4   -1    0    0    0  501 -0.00000000000E+00  0.00000000000E+00  0.49879734586E+02  0.49895899855E+02  0.12700000000E+01 0.  1.
          4   -1    0    0  501    0  0.00000000000E+00 -0.00000000000E+00 -0.78282651869E+02  0.78292952963E+02  0.12700000000E+01 0.  1.
         25    2    1    2    0    0  0.00000000000E+00  0.00000000000E+00 -0.28402917283E+02  0.12818885282E+03  0.12500262508E+03 0.  0.
    9000005    1    3    3    0    0 -0.52638803368E+02  0.70895186886E+01  0.19566724434E+02  0.56612380274E+02  0.10000000000E+01 0.  0.
    9000005    1    3    3    0    0  0.52638803368E+02 -0.70895186886E+01 -0.47969641717E+02  0.71576472543E+02  0.10000000000E+01 0.  0.
<mgrwt>
<rscale>  0 0.12500263E+03</rscale>
<asrwt>0</asrwt>
<pdfrwt beam="2">  1        4 0.12045521E-01 0.12500263E+03</pdfrwt>
<pdfrwt beam="1">  1       -4 0.76758412E-02 0.12500263E+03</pdfrwt>
<totfact> 0.10382796E+04</totfact>
</mgrwt>
</event>
<event>
 5    1  0.3272646E-002  0.1249978E+03  0.7818608E-02  0.1235073E+00
          4   -1    0    0  501    0  0.00000000000E+00  0.00000000000E+00  0.39316623158E+03  0.39316828274E+03  0.12700000000E+01 0. -1.
         -4   -1    0    0    0  501 -0.00000000000E+00 -0.00000000000E+00 -0.98923498406E+01  0.99735392599E+01  0.12700000000E+01 0. -1.
         25    2    1    2    0    0  0.00000000000E+00  0.00000000000E+00  0.38327388174E+03  0.40314182200E+03  0.12499784088E+03 0.  0.
    9000005    1    3    3    0    0 -0.58114633484E+02 -0.31232021849E+01  0.11822931164E+03  0.13178101210E+03  0.10000000000E+01 0.  0.
    9000005    1    3    3    0    0  0.58114633484E+02  0.31232021849E+01  0.26504457009E+03  0.27136080991E+03  0.10000000000E+01 0.  0.
<mgrwt>
<rscale>  0 0.12499784E+03</rscale>
<asrwt>0</asrwt>
<pdfrwt beam="1">  1        4 0.60493508E-01 0.12499784E+03</pdfrwt>
<pdfrwt beam="2">  1       -4 0.15283033E-02 0.12499784E+03</pdfrwt>
<totfact> 0.64251427E+03</totfact>
</mgrwt>
</event>
<event>
 5    1  0.3272646E-002  0.1249997E+03  0.7818608E-02  0.1235070E+00
         -4   -1    0    0    0  501 -0.00000000000E+00  0.00000000000E+00  0.21811415706E+04  0.21811419403E+04  0.12700000000E+01 0.  1.
          4   -1    0    0  501    0  0.00000000000E+00 -0.00000000000E+00 -0.15653446030E+01  0.20157390025E+01  0.12700000000E+01 0.  1.
         25    2    1    2    0    0  0.00000000000E+00  0.00000000000E+00  0.21795762260E+04  0.21831576793E+04  0.12499971172E+03 0.  0.
    9000005    1    3    3    0    0 -0.35963055759E+02 -0.36299933877E+02  0.46147272388E+03  0.46429419711E+03  0.10000000000E+01 0.  0.
    9000005    1    3    3    0    0  0.35963055759E+02  0.36299933877E+02  0.17181035021E+04  0.17188634822E+04  0.10000000000E+01 0.  0.
<mgrwt>
<rscale>  0 0.12499971E+03</rscale>
<asrwt>0</asrwt>
<pdfrwt beam="2">  1        4 0.27549718E-03 0.12499971E+03</pdfrwt>
<pdfrwt beam="1">  1       -4 0.33559398E+00 0.12499971E+03</pdfrwt>
<totfact> 0.76561822E+02</totfact>
</mgrwt>
</event>
