<event>
 5    1  0.1433395E-002  0.1250000E+03  0.7818608E-02  0.1235069E+00
         -4   -1    0    0    0  501 -0.00000000000E+00  0.00000000000E+00  0.40727590611E+02  0.40747386873E+02  0.12700000000E+01 0. -1.
          4   -1    0    0  501    0  0.00000000000E+00 -0.00000000000E+00 -0.95864371265E+02  0.95872783302E+02  0.12700000000E+01 0. -1.
         25    2    1    2    0    0  0.00000000000E+00  0.00000000000E+00 -0.55136780654E+02  0.13662017018E+03  0.12500002527E+03 0.  0.
    9000005    1    3    3    0    0  0.50999688912E+02  0.24143535015E+02 -0.56923565141E+02  0.80157163251E+02  0.10000000000E+01 0.  0.
    9000005    1    3    3    0    0 -0.50999688912E+02 -0.24143535015E+02  0.17867844871E+01  0.56463006924E+02  0.10000000000E+01 0.  0.
<mgrwt>
<rscale>  0 0.12500003E+03</rscale>
<asrwt>0</asrwt>
<pdfrwt beam="2">  1        4 0.23969618E-01 0.12500003E+03</pdfrwt>
<pdfrwt beam="1">  1       -4 0.10185424E-01 0.12500003E+03</pdfrwt>
<totfact> 0.19214596E+03</totfact>
</mgrwt>
</event>
<event>
 5    1  0.1433395E-002  0.1250007E+03  0.7818608E-02  0.1235068E+00
         -4   -1    0    0    0  501 -0.00000000000E+00  0.00000000000E+00  0.11380644278E+03  0.11381352872E+03  0.12700000000E+01 0.  1.
          4   -1    0    0  501    0  0.00000000000E+00 -0.00000000000E+00 -0.34304103478E+02  0.34327604277E+02  0.12700000000E+01 0.  1.
         25    2    1    2    0    0  0.00000000000E+00  0.00000000000E+00  0.79502339305E+02  0.14814113299E+03  0.12500069332E+03 0.  0.
    9000005    1    3    3    0    0 -0.35554910232E+02 -0.99006884257E+01  0.99516111463E+02  0.10614439087E+03  0.10000000000E+01 0.  0.
    9000005    1    3    3    0    0  0.35554910232E+02  0.99006884257E+01 -0.20013772157E+02  0.41996742122E+02  0.10000000000E+01 0.  0.
<mgrwt>
<rscale>  0 0.12500069E+03</rscale>
<asrwt>0</asrwt>
<pdfrwt beam="2">  1        4 0.85798493E-02 0.12500069E+03</pdfrwt>
<pdfrwt beam="1">  1       -4 0.28455434E-01 0.12500069E+03</pdfrwt>
<totfact> 0.18630260E+03</totfact>
</mgrwt>
</event>
<event>
 5    1  0.1433395E-002  0.1250003E+03  0.7818608E-02  0.1235069E+00
         -4   -1    0    0    0  501 -0.00000000000E+00  0.00000000000E+00  0.17326294389E+02  0.17372776901E+02  0.12700000000E+01 0. -1.
          4   -1    0    0  501    0  0.00000000000E+00 -0.00000000000E+00 -0.22510304761E+03  0.22510663016E+03  0.12700000000E+01 0. -1.
         25    2    1    2    0    0  0.00000000000E+00  0.00000000000E+00 -0.20777675322E+03  0.24247940706E+03  0.12500033468E+03 0.  0.
    9000005    1    3    3    0    0  0.15108833665E+02 -0.32616127310E+02 -0.20305112147E+03  0.20621068485E+03  0.10000000000E+01 0.  0.
    9000005    1    3    3    0    0 -0.15108833665E+02  0.32616127310E+02 -0.47256317460E+01  0.36268722211E+02  0.10000000000E+01 0.  0.
<mgrwt>
<rscale>  0 0.12500033E+03</rscale>
<asrwt>0</asrwt>
<pdfrwt beam="2">  1        4 0.56282011E-01 0.12500033E+03</pdfrwt>
<pdfrwt beam="1">  1       -4 0.43378324E-02 0.12500033E+03</pdfrwt>
<totfact> 0.14751300E+03</totfact>
</mgrwt>
</event>
<event>
 5    1  0.1433395E-002  0.1249940E+03  0.7818608E-02  0.1235079E+00
         -4   -1    0    0    0  501 -0.00000000000E+00  0.00000000000E+00  0.40118416070E+01  0.42080604891E+01  0.12700000000E+01 0. -1.
          4   -1    0    0  501    0  0.00000000000E+00 -0.00000000000E+00 -0.95014932208E+03  0.95015017084E+03  0.12700000000E+01 0. -1.
         25    2    1    2    0    0  0.00000000000E+00  0.00000000000E+00 -0.94613748048E+03  0.95435823133E+03  0.12499400686E+03 0.  0.
    9000005    1    3    3    0    0  0.44917555103E+02  0.34670760653E+02 -0.67293499702E+03  0.67532374355E+03  0.10000000000E+01 0.  0.
    9000005    1    3    3    0    0 -0.44917555103E+02 -0.34670760653E+02 -0.27320248346E+03  0.27903448778E+03  0.10000000000E+01 0.  0.
<mgrwt>
<rscale>  0 0.12499401E+03</rscale>
<asrwt>0</asrwt>
<pdfrwt beam="2">  1        4 0.23756121E+00 0.12499401E+03</pdfrwt>
<pdfrwt beam="1">  1       -4 0.10275971E-02 0.12499401E+03</pdfrwt>
<totfact> 0.40271561E+02</totfact>
</mgrwt>
</event>
<event>
 5    1  0.1433395E-002  0.1249991E+03  0.7818608E-02  0.1235071E+00
         -4   -1    0    0    0  501 -0.00000000000E+00  0.00000000000E+00  0.10914763096E+04  0.10914770485E+04  0.12700000000E+01 0. -1.
          4   -1    0    0  501    0  0.00000000000E+00 -0.00000000000E+00 -0.34653806591E+01  0.36907672796E+01  0.12700000000E+01 0. -1.
         25    2    1    2    0    0  0.00000000000E+00  0.00000000000E+00  0.10880109289E+04  0.10951678157E+04  0.12499905256E+03 0.  0.
    9000005    1    3    3    0    0  0.24620310798E+02  0.47299772264E+02  0.25851758940E+03  0.26396168698E+03  0.10000000000E+01 0.  0.
    9000005    1    3    3    0    0 -0.24620310798E+02 -0.47299772264E+02  0.82949333954E+03  0.83120612877E+03  0.10000000000E+01 0.  0.
<mgrwt>
<rscale>  0 0.12499905E+03</rscale>
<asrwt>0</asrwt>
<pdfrwt beam="2">  1        4 0.89461077E-03 0.12499905E+03</pdfrwt>
<pdfrwt beam="1">  1       -4 0.27289737E+00 0.12499905E+03</pdfrwt>
<totfact> 0.31071616E+02</totfact>
</mgrwt>
</event>
<event>
 5    1  0.1433395E-002  0.1249755E+03  0.7818608E-02  0.1235108E+00
         -4   -1    0    0    0  501 -0.00000000000E+00  0.00000000000E+00  0.19883021776E+03  0.19883427369E+03  0.12700000000E+01 0. -1.
          4   -1    0    0  501    0  0.00000000000E+00 -0.00000000000E+00 -0.19613669813E+02  0.19654743538E+02  0.12700000000E+01 0. -1.
         25    2    1    2    0    0  0.00000000000E+00  0.00000000000E+00  0.17921654795E+03  0.21848901723E+03  0.12497551597E+03 0.  0.
    9000005    1    3    3    0    0 -0.45544405401E+02 -0.14518622089E+02  0.19272000133E+02  0.51550880107E+02  0.10000000000E+01 0.  0.
    9000005    1    3    3    0    0  0.45544405401E+02  0.14518622089E+02  0.15994454781E+03  0.16693813712E+03  0.10000000000E+01 0.  0.
<mgrwt>
<rscale>  0 0.12497552E+03</rscale>
<asrwt>0</asrwt>
<pdfrwt beam="2">  1        4 0.49090587E-02 0.12497552E+03</pdfrwt>
<pdfrwt beam="1">  1       -4 0.49713195E-01 0.12497552E+03</pdfrwt>
<totfact> 0.15616359E+03</totfact>
</mgrwt>
</event>
<event>
 4    1  0.1433395E-002  0.1250737E+03  0.7818608E-02  0.1234954E+00
         -4   -1    0    0    0  501 -0.00000000000E+00  0.00000000000E+00  0.47017033864E+02  0.47034183031E+02  0.12700000000E+01 0.  1.
          4   -1    0    0  501    0  0.00000000000E+00 -0.00000000000E+00 -0.83142485226E+02  0.83152184274E+02  0.12700000000E+01 0.  1.
    9000005    1    1    2    0    0  0.62145670430E+02  0.28161409005E+01 -0.11492368635E+02  0.63269973443E+02  0.10000000000E+01 0.  0.
    9000005    1    1    2    0    0 -0.62145670430E+02 -0.28161409005E+01 -0.24633082727E+02  0.66916393861E+02  0.10000000000E+01 0.  0.
<mgrwt>
<rscale>  0 0.12507375E+03</rscale>
<asrwt>0</asrwt>
<pdfrwt beam="2">  1        4 0.20788977E-01 0.12507375E+03</pdfrwt>
<pdfrwt beam="1">  1       -4 0.11757615E-01 0.12507375E+03</pdfrwt>
<totfact> 0.19520747E+03</totfact>
</mgrwt>
</event>
<event>
 5    1  0.1433395E-002  0.1250140E+03  0.7818608E-02  0.1235047E+00
          4   -1    0    0  501    0  0.00000000000E+00  0.00000000000E+00  0.96539686604E+01  0.97371459317E+01  0.12700000000E+01 0. -1.
         -4   -1    0    0    0  501 -0.00000000000E+00 -0.00000000000E+00 -0.40289698706E+03  0.40289898868E+03  0.12700000000E+01 0. -1.
         25    2    1    2    0    0  0.00000000000E+00  0.00000000000E+00 -0.39324301840E+03  0.41263613461E+03  0.12501403149E+03 0.  0.
    9000005    1    3    3    0    0  0.34272185728E+02 -0.44668512733E+02 -0.10705894086E+03  0.12096476992E+03  0.10000000000E+01 0.  0.
    9000005    1    3    3    0    0 -0.34272185728E+02  0.44668512733E+02 -0.28618407754E+03  0.29167136469E+03  0.10000000000E+01 0.  0.
<mgrwt>
<rscale>  0 0.12501403E+03</rscale>
<asrwt>0</asrwt>
<pdfrwt beam="1">  1        4 0.24241409E-02 0.12501403E+03</pdfrwt>
<pdfrwt beam="2">  1       -4 0.10073484E+00 0.12501403E+03</pdfrwt>
<totfact> 0.10309458E+03</totfact>
</mgrwt>
</event>
<event>
 5    1  0.1433395E-002  0.1249962E+03  0.7818608E-02  0.1235075E+00
          4   -1    0    0  501    0  0.00000000000E+00  0.00000000000E+00  0.79139527552E+03  0.79139629454E+03  0.12700000000E+01 0. -1.
         -4   -1    0    0    0  501 -0.00000000000E+00 -0.00000000000E+00 -0.48528645889E+01  0.50162929259E+01  0.12700000000E+01 0. -1.
         25    2    1    2    0    0  0.00000000000E+00  0.00000000000E+00  0.78654241093E+03  0.79641258747E+03  0.12499618108E+03 0.  0.
    9000005    1    3    3    0    0  0.14932916331E+02  0.60534851935E+02  0.41996391759E+03  0.42456819519E+03  0.10000000000E+01 0.  0.
    9000005    1    3    3    0    0 -0.14932916331E+02 -0.60534851935E+02  0.36657849334E+03  0.37184439228E+03  0.10000000000E+01 0.  0.
<mgrwt>
<rscale>  0 0.12499618E+03</rscale>
<asrwt>0</asrwt>
<pdfrwt beam="1">  1        4 0.19786932E+00 0.12499618E+03</pdfrwt>
<pdfrwt beam="2">  1       -4 0.12337724E-02 0.12499618E+03</pdfrwt>
<totfact> 0.52800650E+02</totfact>
</mgrwt>
</event>
<event>
 5    1  0.1433395E-002  0.1250025E+03  0.7818608E-02  0.1235065E+00
         -4   -1    0    0    0  501 -0.00000000000E+00  0.00000000000E+00  0.66605201965E+03  0.66605323044E+03  0.12700000000E+01 0. -1.
          4   -1    0    0  501    0  0.00000000000E+00 -0.00000000000E+00 -0.57950315067E+01  0.59325618550E+01  0.12700000000E+01 0. -1.
         25    2    1    2    0    0  0.00000000000E+00  0.00000000000E+00  0.66025698814E+03  0.67198579229E+03  0.12500245859E+03 0.  0.
    9000005    1    3    3    0    0  0.42988872813E+02 -0.16871703275E+02  0.10378922642E+03  0.11360414200E+03  0.10000000000E+01 0.  0.
    9000005    1    3    3    0    0 -0.42988872813E+02  0.16871703275E+02  0.55646776172E+03  0.55838165030E+03  0.10000000000E+01 0.  0.
<mgrwt>
<rscale>  0 0.12500246E+03</rscale>
<asrwt>0</asrwt>
<pdfrwt beam="2">  1        4 0.14661006E-02 0.12500246E+03</pdfrwt>
<pdfrwt beam="1">  1       -4 0.16653034E+00 0.12500246E+03</pdfrwt>
<totfact> 0.65046838E+02</totfact>
</mgrwt>
</event>
<event>
 5    1  0.1433395E-002  0.1249966E+03  0.7818608E-02  0.1235075E+00
         -4   -1    0    0    0  501 -0.00000000000E+00  0.00000000000E+00  0.29998384185E+02  0.30025255265E+02  0.12700000000E+01 0.  1.
          4   -1    0    0  501    0  0.00000000000E+00 -0.00000000000E+00 -0.13012001346E+03  0.13012621105E+03  0.12700000000E+01 0.  1.
         25    2    1    2    0    0  0.00000000000E+00  0.00000000000E+00 -0.10012162927E+03  0.16015146632E+03  0.12499660601E+03 0.  0.
    9000005    1    3    3    0    0 -0.34140559275E+02  0.51366840647E+02 -0.62931302494E+02  0.88121954922E+02  0.10000000000E+01 0.  0.
    9000005    1    3    3    0    0  0.34140559275E+02 -0.51366840647E+02 -0.37190326780E+02  0.72029511394E+02  0.10000000000E+01 0.  0.
<mgrwt>
<rscale>  0 0.12499661E+03</rscale>
<asrwt>0</asrwt>
<pdfrwt beam="2">  1        4 0.32534136E-01 0.12499661E+03</pdfrwt>
<pdfrwt beam="1">  1       -4 0.75037300E-02 0.12499661E+03</pdfrwt>
<totfact> 0.18052052E+03</totfact>
</mgrwt>
</event>
<event>
 5    1  0.1433395E-002  0.1250552E+03  0.7818608E-02  0.1234983E+00
          4   -1    0    0  501    0  0.00000000000E+00  0.00000000000E+00  0.25540322538E+03  0.25540638291E+03  0.12700000000E+01 0. -1.
         -4   -1    0    0    0  501 -0.00000000000E+00 -0.00000000000E+00 -0.15278342690E+02  0.15331035691E+02  0.12700000000E+01 0. -1.
         25    2    1    2    0    0  0.00000000000E+00  0.00000000000E+00  0.24012488269E+03  0.27073741860E+03  0.12505515002E+03 0.  0.
    9000005    1    3    3    0    0 -0.46634770518E+02 -0.39940767250E+02  0.94572034578E+02  0.11276052693E+03  0.10000000000E+01 0.  0.
    9000005    1    3    3    0    0  0.46634770518E+02  0.39940767250E+02  0.14555284811E+03  0.15797689167E+03  0.10000000000E+01 0.  0.
<mgrwt>
<rscale>  0 0.12505515E+03</rscale>
<asrwt>0</asrwt>
<pdfrwt beam="1">  1        4 0.63857787E-01 0.12505515E+03</pdfrwt>
<pdfrwt beam="2">  1       -4 0.38265671E-02 0.12505515E+03</pdfrwt>
<totfact> 0.13815232E+03</totfact>
</mgrwt>
</event>
<event>
 5    1  0.1433395E-002  0.1250024E+03  0.7818608E-02  0.1235066E+00
          4   -1    0    0  501    0  0.00000000000E+00  0.00000000000E+00  0.95221859465E+02  0.95230328257E+02  0.12700000000E+01 0. -1.
         -4   -1    0    0    0  501 -0.00000000000E+00 -0.00000000000E+00 -0.41004046931E+02  0.41023709788E+02  0.12700000000E+01 0. -1.
         25    2    1    2    0    0  0.00000000000E+00  0.00000000000E+00  0.54217812534E+02  0.13625403804E+03  0.12500236673E+03 0.  0.
    9000005    1    3    3    0    0 -0.22807021085E+01  0.52218664548E+02 -0.10229481031E+02  0.53269435997E+02  0.10000000000E+01 0.  0.
    9000005    1    3    3    0    0  0.22807021085E+01 -0.52218664548E+02  0.64447293565E+02  0.82984602048E+02  0.10000000000E+01 0.  0.
<mgrwt>
<rscale>  0 0.12500237E+03</rscale>
<asrwt>0</asrwt>
<pdfrwt beam="1">  1        4 0.23808981E-01 0.12500237E+03</pdfrwt>
<pdfrwt beam="2">  1       -4 0.10254528E-01 0.12500237E+03</pdfrwt>
<totfact> 0.19232590E+03</totfact>
</mgrwt>
</event>
<event>
 5    1  0.1433395E-002  0.1249994E+03  0.7818608E-02  0.1235070E+00
         -4   -1    0    0    0  501 -0.00000000000E+00  0.00000000000E+00  0.27195604809E+02  0.27225242348E+02  0.12700000000E+01 0. -1.
          4   -1    0    0  501    0  0.00000000000E+00 -0.00000000000E+00 -0.14352337255E+03  0.14352899138E+03  0.12700000000E+01 0. -1.
         25    2    1    2    0    0  0.00000000000E+00  0.00000000000E+00 -0.11632776774E+03  0.17075423373E+03  0.12499943516E+03 0.  0.
    9000005    1    3    3    0    0 -0.38101593183E+02 -0.41918774212E+02 -0.22117515012E+02  0.60820222828E+02  0.10000000000E+01 0.  0.
    9000005    1    3    3    0    0  0.38101593183E+02  0.41918774212E+02 -0.94210252727E+02  0.10993401090E+03  0.10000000000E+01 0.  0.
<mgrwt>
<rscale>  0 0.12499944E+03</rscale>
<asrwt>0</asrwt>
<pdfrwt beam="2">  1        4 0.35885248E-01 0.12499944E+03</pdfrwt>
<pdfrwt beam="1">  1       -4 0.68033086E-02 0.12499944E+03</pdfrwt>
<totfact> 0.17563312E+03</totfact>
</mgrwt>
</event>
<event>
 5    1  0.1433395E-002  0.1249989E+03  0.7818608E-02  0.1235071E+00
          4   -1    0    0  501    0  0.00000000000E+00  0.00000000000E+00  0.74385746712E+02  0.74396587381E+02  0.12700000000E+01 0. -1.
         -4   -1    0    0    0  501 -0.00000000000E+00 -0.00000000000E+00 -0.52490160016E+02  0.52505521600E+02  0.12700000000E+01 0. -1.
         25    2    1    2    0    0  0.00000000000E+00  0.00000000000E+00  0.21895586696E+02  0.12690210898E+03  0.12499891418E+03 0.  0.
    9000005    1    3    3    0    0 -0.75678461942E+01 -0.46383597383E+02  0.52763160393E+02  0.70665843920E+02  0.10000000000E+01 0.  0.
    9000005    1    3    3    0    0  0.75678461942E+01  0.46383597383E+02 -0.30867573697E+02  0.56236265062E+02  0.10000000000E+01 0.  0.
<mgrwt>
<rscale>  0 0.12499891E+03</rscale>
<asrwt>0</asrwt>
<pdfrwt beam="1">  1        4 0.18599712E-01 0.12499891E+03</pdfrwt>
<pdfrwt beam="2">  1       -4 0.13125815E-01 0.12499891E+03</pdfrwt>
<totfact> 0.19732751E+03</totfact>
</mgrwt>
</event>
<event>
 5    1  0.1433395E-002  0.1250070E+03  0.7818608E-02  0.1235058E+00
          4   -1    0    0  501    0  0.00000000000E+00  0.00000000000E+00  0.81874561497E+02  0.81884410728E+02  0.12700000000E+01 0.  1.
         -4   -1    0    0    0  501 -0.00000000000E+00 -0.00000000000E+00 -0.47694388589E+02  0.47711294290E+02  0.12700000000E+01 0.  1.
         25    2    1    2    0    0  0.00000000000E+00  0.00000000000E+00  0.34180172908E+02  0.12959570502E+03  0.12500704996E+03 0.  0.
    9000005    1    3    3    0    0  0.28860435988E+02  0.54742074517E+02  0.80480535236E+01  0.62413064765E+02  0.10000000000E+01 0.  0.
    9000005    1    3    3    0    0 -0.28860435988E+02 -0.54742074517E+02  0.26132119385E+02  0.67182640253E+02  0.10000000000E+01 0.  0.
<mgrwt>
<rscale>  0 0.12500705E+03</rscale>
<asrwt>0</asrwt>
<pdfrwt beam="1">  1        4 0.20471985E-01 0.12500705E+03</pdfrwt>
<pdfrwt beam="2">  1       -4 0.11926942E-01 0.12500705E+03</pdfrwt>
<totfact> 0.19582919E+03</totfact>
</mgrwt>
</event>
<event>
 5    1  0.1433395E-002  0.1250002E+03  0.7818608E-02  0.1235069E+00
         -4   -1    0    0    0  501 -0.00000000000E+00  0.00000000000E+00  0.68472215953E+02  0.68483992710E+02  0.12700000000E+01 0. -1.
          4   -1    0    0  501    0  0.00000000000E+00 -0.00000000000E+00 -0.57025149350E+02  0.57039289602E+02  0.12700000000E+01 0. -1.
         25    2    1    2    0    0  0.00000000000E+00  0.00000000000E+00  0.11447066604E+02  0.12552328231E+03  0.12500023627E+03 0.  0.
    9000005    1    3    3    0    0  0.52621658076E+02 -0.30970559216E+02 -0.76381699994E+01  0.61543123724E+02  0.10000000000E+01 0.  0.
    9000005    1    3    3    0    0 -0.52621658076E+02  0.30970559216E+02  0.19085236603E+02  0.63980158589E+02  0.10000000000E+01 0.  0.
<mgrwt>
<rscale>  0 0.12500024E+03</rscale>
<asrwt>0</asrwt>
<pdfrwt beam="2">  1        4 0.14259527E-01 0.12500024E+03</pdfrwt>
<pdfrwt beam="1">  1       -4 0.17121294E-01 0.12500024E+03</pdfrwt>
<totfact> 0.19806594E+03</totfact>
</mgrwt>
</event>
<event>
 5    1  0.1433395E-002  0.1250021E+03  0.7818608E-02  0.1235066E+00
          4   -1    0    0  501    0  0.00000000000E+00  0.00000000000E+00  0.54768603017E+02  0.54783325716E+02  0.12700000000E+01 0.  1.
         -4   -1    0    0    0  501 -0.00000000000E+00 -0.00000000000E+00 -0.71295272038E+02  0.71306582550E+02  0.12700000000E+01 0.  1.
         25    2    1    2    0    0  0.00000000000E+00  0.00000000000E+00 -0.16526669020E+02  0.12608990827E+03  0.12500213669E+03 0.  0.
    9000005    1    3    3    0    0 -0.47707029824E+02  0.16880447941E+02  0.28722803643E+02  0.58197162014E+02  0.10000000000E+01 0.  0.
    9000005    1    3    3    0    0  0.47707029824E+02 -0.16880447941E+02 -0.45249472663E+02  0.67892746252E+02  0.10000000000E+01 0.  0.
<mgrwt>
<rscale>  0 0.12500214E+03</rscale>
<asrwt>0</asrwt>
<pdfrwt beam="1">  1        4 0.13695405E-01 0.12500214E+03</pdfrwt>
<pdfrwt beam="2">  1       -4 0.17827072E-01 0.12500214E+03</pdfrwt>
<totfact> 0.19775074E+03</totfact>
</mgrwt>
</event>
<event>
 5    1  0.1433395E-002  0.1249970E+03  0.7818608E-02  0.1235074E+00
          4   -1    0    0  501    0  0.00000000000E+00  0.00000000000E+00  0.20576309913E+02  0.20615465788E+02  0.12700000000E+01 0.  1.
         -4   -1    0    0    0  501 -0.00000000000E+00 -0.00000000000E+00 -0.18961134212E+03  0.18961559525E+03  0.12700000000E+01 0.  1.
         25    2    1    2    0    0  0.00000000000E+00  0.00000000000E+00 -0.16903503221E+03  0.21023106104E+03  0.12499702761E+03 0.  0.
    9000005    1    3    3    0    0 -0.58584702507E+02  0.21307020937E+02 -0.91830872880E+02  0.11099579147E+03  0.10000000000E+01 0.  0.
    9000005    1    3    3    0    0  0.58584702507E+02 -0.21307020937E+02 -0.77204159328E+02  0.99235269570E+02  0.10000000000E+01 0.  0.
<mgrwt>
<rscale>  0 0.12499703E+03</rscale>
<asrwt>0</asrwt>
<pdfrwt beam="1">  1        4 0.51495042E-02 0.12499703E+03</pdfrwt>
<pdfrwt beam="2">  1       -4 0.47408256E-01 0.12499703E+03</pdfrwt>
<totfact> 0.15921503E+03</totfact>
</mgrwt>
</event>
<event>
 5    1  0.1433395E-002  0.1250007E+03  0.7818608E-02  0.1235068E+00
         -4   -1    0    0    0  501 -0.00000000000E+00  0.00000000000E+00  0.11636666548E+03  0.11637359552E+03  0.12700000000E+01 0. -1.
          4   -1    0    0  501    0  0.00000000000E+00 -0.00000000000E+00 -0.33548901799E+02  0.33572931238E+02  0.12700000000E+01 0. -1.
         25    2    1    2    0    0  0.00000000000E+00  0.00000000000E+00  0.82817763682E+02  0.14994652676E+03  0.12500071562E+03 0.  0.
    9000005    1    3    3    0    0  0.37065894232E+02 -0.45416795625E+02  0.67379648525E+02  0.89317315653E+02  0.10000000000E+01 0.  0.
    9000005    1    3    3    0    0 -0.37065894232E+02  0.45416795625E+02  0.15438115157E+02  0.60629211108E+02  0.10000000000E+01 0.  0.
<mgrwt>
<rscale>  0 0.12500072E+03</rscale>
<asrwt>0</asrwt>
<pdfrwt beam="2">  1        4 0.83910954E-02 0.12500072E+03</pdfrwt>
<pdfrwt beam="1">  1       -4 0.29095536E-01 0.12500072E+03</pdfrwt>
<totfact> 0.18541102E+03</totfact>
</mgrwt>
</event>
<event>
 5    1  0.1433395E-002  0.1250024E+03  0.7818608E-02  0.1235066E+00
         -4   -1    0    0    0  501 -0.00000000000E+00  0.00000000000E+00  0.50392231668E+02  0.50408232587E+02  0.12700000000E+01 0. -1.
          4   -1    0    0  501    0  0.00000000000E+00 -0.00000000000E+00 -0.77486332076E+02  0.77496739019E+02  0.12700000000E+01 0. -1.
         25    2    1    2    0    0  0.00000000000E+00  0.00000000000E+00 -0.27094100407E+02  0.12790497161E+03  0.12500236592E+03 0.  0.
    9000005    1    3    3    0    0 -0.20012426007E+01 -0.51334205898E+02  0.22862809901E+02  0.56239787906E+02  0.10000000000E+01 0.  0.
    9000005    1    3    3    0    0  0.20012426007E+01  0.51334205898E+02 -0.49956910308E+02  0.71665183699E+02  0.10000000000E+01 0.  0.
<mgrwt>
<rscale>  0 0.12500237E+03</rscale>
<asrwt>0</asrwt>
<pdfrwt beam="2">  1        4 0.19374884E-01 0.12500237E+03</pdfrwt>
<pdfrwt beam="1">  1       -4 0.12601359E-01 0.12500237E+03</pdfrwt>
<totfact> 0.19676620E+03</totfact>
</mgrwt>
</event>
<event>
 5    1  0.1433395E-002  0.1249905E+03  0.7818608E-02  0.1235084E+00
          4   -1    0    0  501    0  0.00000000000E+00  0.00000000000E+00  0.21392785532E+03  0.21393162501E+03  0.12700000000E+01 0.  1.
         -4   -1    0    0    0  501 -0.00000000000E+00 -0.00000000000E+00 -0.18230866215E+02  0.18275048097E+02  0.12700000000E+01 0.  1.
         25    2    1    2    0    0  0.00000000000E+00  0.00000000000E+00  0.19569698910E+03  0.23220667311E+03  0.12499050961E+03 0.  0.
    9000005    1    3    3    0    0 -0.41458030513E+02 -0.26504170538E+02  0.16940174380E+03  0.17640632118E+03  0.10000000000E+01 0.  0.
    9000005    1    3    3    0    0  0.41458030513E+02  0.26504170538E+02  0.26295245302E+02  0.55800351929E+02  0.10000000000E+01 0.  0.
<mgrwt>
<rscale>  0 0.12499051E+03</rscale>
<asrwt>0</asrwt>
<pdfrwt beam="1">  1        4 0.53487957E-01 0.12499051E+03</pdfrwt>
<pdfrwt beam="2">  1       -4 0.45637106E-02 0.12499051E+03</pdfrwt>
<totfact> 0.15112087E+03</totfact>
</mgrwt>
</event>
<event>
 5    1  0.1433395E-002  0.1249988E+03  0.7818608E-02  0.1235071E+00
          4   -1    0    0  501    0  0.00000000000E+00  0.00000000000E+00  0.53223293288E+02  0.53238443332E+02  0.12700000000E+01 0. -1.
         -4   -1    0    0    0  501 -0.00000000000E+00 -0.00000000000E+00 -0.73361140948E+02  0.73372133002E+02  0.12700000000E+01 0. -1.
         25    2    1    2    0    0  0.00000000000E+00  0.00000000000E+00 -0.20137847660E+02  0.12661057633E+03  0.12499882052E+03 0.  0.
    9000005    1    3    3    0    0 -0.10088461753E+02  0.37887799761E+02 -0.59357584785E+02  0.71144819227E+02  0.10000000000E+01 0.  0.
    9000005    1    3    3    0    0  0.10088461753E+02 -0.37887799761E+02  0.39219737125E+02  0.55465757107E+02  0.10000000000E+01 0.  0.
<mgrwt>
<rscale>  0 0.12499882E+03</rscale>
<asrwt>0</asrwt>
<pdfrwt beam="1">  1        4 0.13309091E-01 0.12499882E+03</pdfrwt>
<pdfrwt beam="2">  1       -4 0.18343553E-01 0.12499882E+03</pdfrwt>
<totfact> 0.19748506E+03</totfact>
</mgrwt>
</event>
<event>
 5    1  0.1433395E-002  0.1249992E+03  0.7818608E-02  0.1235070E+00
         -4   -1    0    0    0  501 -0.00000000000E+00  0.00000000000E+00  0.69564239043E+01  0.70714025155E+01  0.12700000000E+01 0.  1.
          4   -1    0    0  501    0  0.00000000000E+00 -0.00000000000E+00 -0.55680623331E+03  0.55680768166E+03  0.12700000000E+01 0.  1.
         25    2    1    2    0    0  0.00000000000E+00  0.00000000000E+00 -0.54984980940E+03  0.56387908417E+03  0.12499923466E+03 0.  0.
    9000005    1    3    3    0    0 -0.21787583749E+02 -0.50931165299E+02 -0.40539672884E+03  0.40916523577E+03  0.10000000000E+01 0.  0.
    9000005    1    3    3    0    0  0.21787583749E+02  0.50931165299E+02 -0.14445308056E+03  0.15471384841E+03  0.10000000000E+01 0.  0.
<mgrwt>
<rscale>  0 0.12499923E+03</rscale>
<asrwt>0</asrwt>
<pdfrwt beam="2">  1        4 0.13921596E+00 0.12499923E+03</pdfrwt>
<pdfrwt beam="1">  1       -4 0.17536612E-02 0.12499923E+03</pdfrwt>
<totfact> 0.78245496E+02</totfact>
</mgrwt>
</event>
<event>
 5    1  0.1433395E-002  0.1249945E+03  0.7818608E-02  0.1235078E+00
          4   -1    0    0  501    0  0.00000000000E+00  0.00000000000E+00  0.14545132891E+02  0.14600472280E+02  0.12700000000E+01 0.  1.
         -4   -1    0    0    0  501 -0.00000000000E+00 -0.00000000000E+00 -0.26797034430E+03  0.26797335376E+03  0.12700000000E+01 0.  1.
         25    2    1    2    0    0  0.00000000000E+00  0.00000000000E+00 -0.25342521141E+03  0.28257382604E+03  0.12499451742E+03 0.  0.
    9000005    1    3    3    0    0  0.30915413961E+02  0.40049060320E+02 -0.43796826068E+02  0.66924226006E+02  0.10000000000E+01 0.  0.
    9000005    1    3    3    0    0 -0.30915413961E+02 -0.40049060320E+02 -0.20962838534E+03  0.21564960003E+03  0.10000000000E+01 0.  0.
<mgrwt>
<rscale>  0 0.12499452E+03</rscale>
<asrwt>0</asrwt>
<pdfrwt beam="1">  1        4 0.36435777E-02 0.12499452E+03</pdfrwt>
<pdfrwt beam="2">  1       -4 0.66999864E-01 0.12499452E+03</pdfrwt>
<totfact> 0.13475602E+03</totfact>
</mgrwt>
</event>
<event>
 5    1  0.1433395E-002  0.1250013E+03  0.7818608E-02  0.1235067E+00
         -4   -1    0    0    0  501 -0.00000000000E+00  0.00000000000E+00  0.21059613390E+02  0.21097872313E+02  0.12700000000E+01 0. -1.
          4   -1    0    0  501    0  0.00000000000E+00 -0.00000000000E+00 -0.18528052110E+03  0.18528487364E+03  0.12700000000E+01 0. -1.
         25    2    1    2    0    0  0.00000000000E+00  0.00000000000E+00 -0.16422090771E+03  0.20638274595E+03  0.12500132518E+03 0.  0.
    9000005    1    3    3    0    0 -0.94137610209E+01 -0.92186089745E+01 -0.18296928824E+03  0.18344580150E+03  0.10000000000E+01 0.  0.
    9000005    1    3    3    0    0  0.94137610209E+01  0.92186089745E+01  0.18748380534E+02  0.22936944449E+02  0.10000000000E+01 0.  0.
<mgrwt>
<rscale>  0 0.12500133E+03</rscale>
<asrwt>0</asrwt>
<pdfrwt beam="2">  1        4 0.46325452E-01 0.12500133E+03</pdfrwt>
<pdfrwt beam="1">  1       -4 0.52702303E-02 0.12500133E+03</pdfrwt>
<totfact> 0.16069126E+03</totfact>
</mgrwt>
</event>
<event>
 5    1  0.1433395E-002  0.1249938E+03  0.7818608E-02  0.1235079E+00
         -4   -1    0    0    0  501 -0.00000000000E+00  0.00000000000E+00  0.13645477559E+03  0.13646068548E+03  0.12700000000E+01 0. -1.
          4   -1    0    0  501    0  0.00000000000E+00 -0.00000000000E+00 -0.28603252498E+02  0.28631432962E+02  0.12700000000E+01 0. -1.
         25    2    1    2    0    0  0.00000000000E+00  0.00000000000E+00  0.10785152310E+03  0.16509211844E+03  0.12499382600E+03 0.  0.
    9000005    1    3    3    0    0 -0.55944361316E+02  0.14022265553E+02  0.85692870216E+02  0.10329890367E+03  0.10000000000E+01 0.  0.
    9000005    1    3    3    0    0  0.55944361316E+02 -0.14022265553E+02  0.22158652880E+02  0.61793214771E+02  0.10000000000E+01 0.  0.
<mgrwt>
<rscale>  0 0.12499383E+03</rscale>
<asrwt>0</asrwt>
<pdfrwt beam="2">  1        4 0.71550746E-02 0.12499383E+03</pdfrwt>
<pdfrwt beam="1">  1       -4 0.34117954E-01 0.12499383E+03</pdfrwt>
<totfact> 0.17823268E+03</totfact>
</mgrwt>
</event>
<event>
 5    1  0.1433395E-002  0.1250013E+03  0.7818608E-02  0.1235067E+00
          4   -1    0    0  501    0  0.00000000000E+00  0.00000000000E+00  0.10714287628E+03  0.10715040289E+03  0.12700000000E+01 0.  1.
         -4   -1    0    0    0  501 -0.00000000000E+00 -0.00000000000E+00 -0.36439200851E+02  0.36461325520E+02  0.12700000000E+01 0.  1.
         25    2    1    2    0    0  0.00000000000E+00  0.00000000000E+00  0.70703675433E+02  0.14361172840E+03  0.12500127526E+03 0.  0.
    9000005    1    3    3    0    0  0.20422344949E+02  0.56210905171E+02  0.14525939544E+02  0.61552749353E+02  0.10000000000E+01 0.  0.
    9000005    1    3    3    0    0 -0.20422344949E+02 -0.56210905171E+02  0.56177735890E+02  0.82058979052E+02  0.10000000000E+01 0.  0.
<mgrwt>
<rscale>  0 0.12500128E+03</rscale>
<asrwt>0</asrwt>
<pdfrwt beam="1">  1        4 0.26789425E-01 0.12500128E+03</pdfrwt>
<pdfrwt beam="2">  1       -4 0.91135067E-02 0.12500128E+03</pdfrwt>
<totfact> 0.18856510E+03</totfact>
</mgrwt>
</event>
<event>
 5    1  0.1433395E-002  0.1250008E+03  0.7818608E-02  0.1235068E+00
          4   -1    0    0  501    0  0.00000000000E+00  0.00000000000E+00  0.18205469578E+03  0.18205912544E+03  0.12700000000E+01 0.  1.
         -4   -1    0    0    0  501 -0.00000000000E+00 -0.00000000000E+00 -0.21433260971E+02  0.21470854101E+02  0.12700000000E+01 0.  1.
         25    2    1    2    0    0  0.00000000000E+00  0.00000000000E+00  0.16062143481E+03  0.20352997954E+03  0.12500082900E+03 0.  0.
    9000005    1    3    3    0    0 -0.72753614501E+01 -0.36081165274E+02  0.16254064350E+03  0.16665905965E+03  0.10000000000E+01 0.  0.
    9000005    1    3    3    0    0  0.72753614501E+01  0.36081165274E+02 -0.19192086939E+01  0.36870919894E+02  0.10000000000E+01 0.  0.
<mgrwt>
<rscale>  0 0.12500083E+03</rscale>
<asrwt>0</asrwt>
<pdfrwt beam="1">  1        4 0.45518926E-01 0.12500083E+03</pdfrwt>
<pdfrwt beam="2">  1       -4 0.53635682E-02 0.12500083E+03</pdfrwt>
<totfact> 0.16181355E+03</totfact>
</mgrwt>
</event>
<event>
 5    1  0.1433395E-002  0.1249996E+03  0.7818608E-02  0.1235070E+00
          4   -1    0    0  501    0  0.00000000000E+00  0.00000000000E+00  0.99804519286E+01  0.10060930409E+02  0.12700000000E+01 0.  1.
         -4   -1    0    0    0  501 -0.00000000000E+00 -0.00000000000E+00 -0.38973435844E+03  0.38973642767E+03  0.12700000000E+01 0.  1.
         25    2    1    2    0    0  0.00000000000E+00  0.00000000000E+00 -0.37975390651E+03  0.39979735807E+03  0.12499959205E+03 0.  0.
    9000005    1    3    3    0    0  0.62434347176E+02  0.13745145651E+01 -0.19723151393E+03  0.20688452597E+03  0.10000000000E+01 0.  0.
    9000005    1    3    3    0    0 -0.62434347176E+02 -0.13745145651E+01 -0.18252239258E+03  0.19291283210E+03  0.10000000000E+01 0.  0.
<mgrwt>
<rscale>  0 0.12499959E+03</rscale>
<asrwt>0</asrwt>
<pdfrwt beam="1">  1        4 0.25054327E-02 0.12499959E+03</pdfrwt>
<pdfrwt beam="2">  1       -4 0.97443857E-01 0.12499959E+03</pdfrwt>
<totfact> 0.10573477E+03</totfact>
</mgrwt>
</event>
<event>
 5    1  0.1433395E-002  0.1250005E+03  0.7818608E-02  0.1235068E+00
         -4   -1    0    0    0  501 -0.00000000000E+00  0.00000000000E+00  0.87469273518E+02  0.87478492841E+02  0.12700000000E+01 0.  1.
          4   -1    0    0  501    0  0.00000000000E+00 -0.00000000000E+00 -0.44638317104E+02  0.44656379767E+02  0.12700000000E+01 0.  1.
         25    2    1    2    0    0  0.00000000000E+00  0.00000000000E+00  0.42830956414E+02  0.13213487261E+03  0.12500053493E+03 0.  0.
    9000005    1    3    3    0    0  0.10548488554E+02  0.14521069671E+02  0.84691352664E+02  0.86578041623E+02  0.10000000000E+01 0.  0.
    9000005    1    3    3    0    0 -0.10548488554E+02 -0.14521069671E+02 -0.41860396250E+02  0.45556830985E+02  0.10000000000E+01 0.  0.
<mgrwt>
<rscale>  0 0.12500053E+03</rscale>
<asrwt>0</asrwt>
<pdfrwt beam="2">  1        4 0.11162990E-01 0.12500053E+03</pdfrwt>
<pdfrwt beam="1">  1       -4 0.21870728E-01 0.12500053E+03</pdfrwt>
<totfact> 0.19450042E+03</totfact>
</mgrwt>
</event>
<event>
 5    1  0.1433395E-002  0.1250074E+03  0.7818608E-02  0.1235058E+00
         -4   -1    0    0    0  501 -0.00000000000E+00  0.00000000000E+00  0.52182990491E+03  0.52183145033E+03  0.12700000000E+01 0. -1.
          4   -1    0    0  501    0  0.00000000000E+00 -0.00000000000E+00 -0.74311321666E+01  0.75388742712E+01  0.12700000000E+01 0. -1.
         25    2    1    2    0    0  0.00000000000E+00  0.00000000000E+00  0.51439877274E+03  0.52937032460E+03  0.12500737248E+03 0.  0.
    9000005    1    3    3    0    0 -0.32497796395E+02 -0.35710496680E+02  0.42522543033E+03  0.42795912532E+03  0.10000000000E+01 0.  0.
    9000005    1    3    3    0    0  0.32497796395E+02  0.35710496680E+02  0.89173342406E+02  0.10141119928E+03  0.10000000000E+01 0.  0.
<mgrwt>
<rscale>  0 0.12500737E+03</rscale>
<asrwt>0</asrwt>
<pdfrwt beam="2">  1        4 0.18714440E-02 0.12500737E+03</pdfrwt>
<pdfrwt beam="1">  1       -4 0.13047114E+00 0.12500737E+03</pdfrwt>
<totfact> 0.83103431E+02</totfact>
</mgrwt>
</event>
<event>
 5    1  0.1433395E-002  0.1249996E+03  0.7818608E-02  0.1235070E+00
         -4   -1    0    0    0  501 -0.00000000000E+00  0.00000000000E+00  0.20344206798E+03  0.20344603197E+03  0.12700000000E+01 0.  1.
          4   -1    0    0  501    0  0.00000000000E+00 -0.00000000000E+00 -0.19175521847E+02  0.19217532050E+02  0.12700000000E+01 0.  1.
         25    2    1    2    0    0  0.00000000000E+00  0.00000000000E+00  0.18426654613E+03  0.22266356402E+03  0.12499961087E+03 0.  0.
    9000005    1    3    3    0    0  0.52362648117E+02  0.34048111558E+02  0.88524249435E+02  0.10834511321E+03  0.10000000000E+01 0.  0.
    9000005    1    3    3    0    0 -0.52362648117E+02 -0.34048111558E+02  0.95742296699E+02  0.11431845081E+03  0.10000000000E+01 0.  0.
<mgrwt>
<rscale>  0 0.12499961E+03</rscale>
<asrwt>0</asrwt>
<pdfrwt beam="2">  1        4 0.47996272E-02 0.12499961E+03</pdfrwt>
<pdfrwt beam="1">  1       -4 0.50866264E-01 0.12499961E+03</pdfrwt>
<totfact> 0.15453189E+03</totfact>
</mgrwt>
</event>
<event>
 5    1  0.1433395E-002  0.1250133E+03  0.7818608E-02  0.1235049E+00
          4   -1    0    0  501    0  0.00000000000E+00  0.00000000000E+00  0.18172034249E+03  0.18172478030E+03  0.12700000000E+01 0. -1.
         -4   -1    0    0    0  501 -0.00000000000E+00 -0.00000000000E+00 -0.21477056784E+02  0.21514573388E+02  0.12700000000E+01 0. -1.
         25    2    1    2    0    0  0.00000000000E+00  0.00000000000E+00  0.16024328570E+03  0.20323935369E+03  0.12501329639E+03 0.  0.
    9000005    1    3    3    0    0  0.41015350165E+02  0.42971674465E+02  0.48544674509E+02  0.76722937761E+02  0.10000000000E+01 0.  0.
    9000005    1    3    3    0    0 -0.41015350165E+02 -0.42971674465E+02  0.11169861120E+03  0.12651641593E+03  0.10000000000E+01 0.  0.
<mgrwt>
<rscale>  0 0.12501330E+03</rscale>
<asrwt>0</asrwt>
<pdfrwt beam="1">  1        4 0.45435329E-01 0.12501330E+03</pdfrwt>
<pdfrwt beam="2">  1       -4 0.53745086E-02 0.12501330E+03</pdfrwt>
<totfact> 0.16188173E+03</totfact>
</mgrwt>
</event>
<event>
 5    1  0.1433395E-002  0.1249991E+03  0.7818608E-02  0.1235071E+00
         -4   -1    0    0    0  501 -0.00000000000E+00  0.00000000000E+00  0.10055920502E+03  0.10056722436E+03  0.12700000000E+01 0. -1.
          4   -1    0    0  501    0  0.00000000000E+00 -0.00000000000E+00 -0.38824778710E+02  0.38845544685E+02  0.12700000000E+01 0. -1.
         25    2    1    2    0    0  0.00000000000E+00  0.00000000000E+00  0.61734426314E+02  0.13941276904E+03  0.12499912312E+03 0.  0.
    9000005    1    3    3    0    0 -0.10352619487E+02  0.57611400678E+02  0.55275561809E+02  0.80514830632E+02  0.10000000000E+01 0.  0.
    9000005    1    3    3    0    0  0.10352619487E+02 -0.57611400678E+02  0.64588645042E+01  0.58897938411E+02  0.10000000000E+01 0.  0.
<mgrwt>
<rscale>  0 0.12499912E+03</rscale>
<asrwt>0</asrwt>
<pdfrwt beam="2">  1        4 0.97097929E-02 0.12499912E+03</pdfrwt>
<pdfrwt beam="1">  1       -4 0.25143399E-01 0.12499912E+03</pdfrwt>
<totfact> 0.19070814E+03</totfact>
</mgrwt>
</event>
<event>
 5    1  0.1433395E-002  0.1250018E+03  0.7818608E-02  0.1235066E+00
         -4   -1    0    0    0  501 -0.00000000000E+00  0.00000000000E+00  0.30220817527E+02  0.30247491003E+02  0.12700000000E+01 0.  1.
          4   -1    0    0  501    0  0.00000000000E+00 -0.00000000000E+00 -0.12917381079E+03  0.12918005377E+03  0.12700000000E+01 0.  1.
         25    2    1    2    0    0  0.00000000000E+00  0.00000000000E+00 -0.98952993259E+02  0.15942754478E+03  0.12500178862E+03 0.  0.
    9000005    1    3    3    0    0  0.41295218226E+02  0.40292170581E+02 -0.80102290924E+02  0.98722495257E+02  0.10000000000E+01 0.  0.
    9000005    1    3    3    0    0 -0.41295218226E+02 -0.40292170581E+02 -0.18850702335E+02  0.60705049518E+02  0.10000000000E+01 0.  0.
<mgrwt>
<rscale>  0 0.12500179E+03</rscale>
<asrwt>0</asrwt>
<pdfrwt beam="2">  1        4 0.32297566E-01 0.12500179E+03</pdfrwt>
<pdfrwt beam="1">  1       -4 0.75593193E-02 0.12500179E+03</pdfrwt>
<totfact> 0.18083976E+03</totfact>
</mgrwt>
</event>
<event>
 5    1  0.1433395E-002  0.1250079E+03  0.7818608E-02  0.1235057E+00
          4   -1    0    0  501    0  0.00000000000E+00  0.00000000000E+00  0.26631905764E+02  0.26662169916E+02  0.12700000000E+01 0.  1.
         -4   -1    0    0    0  501 -0.00000000000E+00 -0.00000000000E+00 -0.14657769387E+03  0.14658319562E+03  0.12700000000E+01 0.  1.
         25    2    1    2    0    0  0.00000000000E+00  0.00000000000E+00 -0.11994578810E+03  0.17324536554E+03  0.12500785814E+03 0.  0.
    9000005    1    3    3    0    0  0.16100673178E+02 -0.39070339102E+02 -0.12378367994E+03  0.13080184439E+03  0.10000000000E+01 0.  0.
    9000005    1    3    3    0    0 -0.16100673178E+02  0.39070339102E+02  0.38378918399E+01  0.42443521155E+02  0.10000000000E+01 0.  0.
<mgrwt>
<rscale>  0 0.12500786E+03</rscale>
<asrwt>0</asrwt>
<pdfrwt beam="1">  1        4 0.66624476E-02 0.12500786E+03</pdfrwt>
<pdfrwt beam="2">  1       -4 0.36648892E-01 0.12500786E+03</pdfrwt>
<totfact> 0.17448472E+03</totfact>
</mgrwt>
</event>
<event>
 5    1  0.1433395E-002  0.1250027E+03  0.7818608E-02  0.1235065E+00
          4   -1    0    0  501    0  0.00000000000E+00  0.00000000000E+00  0.34332683308E+01  0.36606326545E+01  0.12700000000E+01 0. -1.
         -4   -1    0    0    0  501 -0.00000000000E+00 -0.00000000000E+00 -0.11011177976E+04  0.11011185300E+04  0.12700000000E+01 0. -1.
         25    2    1    2    0    0  0.00000000000E+00  0.00000000000E+00 -0.10976845293E+04  0.11047791627E+04  0.12500268965E+03 0.  0.
    9000005    1    3    3    0    0  0.38008366198E+02  0.51658196816E+00 -0.11044366747E+03  0.11680627741E+03  0.10000000000E+01 0.  0.
    9000005    1    3    3    0    0 -0.38008366198E+02 -0.51658196816E+00 -0.98724086181E+03  0.98797288525E+03  0.10000000000E+01 0.  0.
<mgrwt>
<rscale>  0 0.12500269E+03</rscale>
<asrwt>0</asrwt>
<pdfrwt beam="1">  1        4 0.88683294E-03 0.12500269E+03</pdfrwt>
<pdfrwt beam="2">  1       -4 0.27530679E+00 0.12500269E+03</pdfrwt>
<totfact> 0.30498271E+02</totfact>
</mgrwt>
</event>
<event>
 4    1  0.1433395E-002  0.1249346E+03  0.7818608E-02  0.1235172E+00
          4   -1    0    0  501    0  0.00000000000E+00  0.00000000000E+00  0.91988172925E+02  0.91996939395E+02  0.12700000000E+01 0. -1.
         -4   -1    0    0    0  501 -0.00000000000E+00 -0.00000000000E+00 -0.42399949011E+02  0.42418964817E+02  0.12700000000E+01 0. -1.
    9000005    1    1    2    0    0  0.69988753166E+01 -0.87183194619E+01  0.90908153077E+02  0.91598502422E+02  0.10000000000E+01 0.  0.
    9000005    1    1    2    0    0 -0.69988753166E+01  0.87183194619E+01 -0.41319929164E+02  0.42817401790E+02  0.10000000000E+01 0.  0.
<mgrwt>
<rscale>  0 0.12493456E+03</rscale>
<asrwt>0</asrwt>
<pdfrwt beam="1">  1        4 0.23000516E-01 0.12493456E+03</pdfrwt>
<pdfrwt beam="2">  1       -4 0.10603460E-01 0.12493456E+03</pdfrwt>
<totfact> 0.19359322E+03</totfact>
</mgrwt>
</event>
<event>
 5    1  0.1433395E-002  0.1249999E+03  0.7818608E-02  0.1235069E+00
          4   -1    0    0  501    0  0.00000000000E+00  0.00000000000E+00  0.21163931291E+03  0.21164312337E+03  0.12700000000E+01 0.  1.
         -4   -1    0    0    0  501 -0.00000000000E+00 -0.00000000000E+00 -0.18431256989E+02  0.18474959653E+02  0.12700000000E+01 0.  1.
         25    2    1    2    0    0  0.00000000000E+00  0.00000000000E+00  0.19320805592E+03  0.23011808302E+03  0.12499991704E+03 0.  0.
    9000005    1    3    3    0    0 -0.57642380379E+02  0.48838566541E+01  0.14012006148E+03  0.15159527598E+03  0.10000000000E+01 0.  0.
    9000005    1    3    3    0    0  0.57642380379E+02 -0.48838566541E+01  0.53087994448E+02  0.78522807044E+02  0.10000000000E+01 0.  0.
<mgrwt>
<rscale>  0 0.12499992E+03</rscale>
<asrwt>0</asrwt>
<pdfrwt beam="1">  1        4 0.52915767E-01 0.12499992E+03</pdfrwt>
<pdfrwt beam="2">  1       -4 0.46137534E-02 0.12499992E+03</pdfrwt>
<totfact> 0.15183122E+03</totfact>
</mgrwt>
</event>
<event>
 5    1  0.1433395E-002  0.1250010E+03  0.7818608E-02  0.1235068E+00
          4   -1    0    0  501    0  0.00000000000E+00  0.00000000000E+00  0.83341463562E+02  0.83351139457E+02  0.12700000000E+01 0.  1.
         -4   -1    0    0    0  501 -0.00000000000E+00 -0.00000000000E+00 -0.46850198536E+02  0.46867408749E+02  0.12700000000E+01 0.  1.
         25    2    1    2    0    0  0.00000000000E+00  0.00000000000E+00  0.36491265027E+02  0.13021854821E+03  0.12500103149E+03 0.  0.
    9000005    1    3    3    0    0  0.51858141180E+02 -0.31554313449E+02  0.33710222473E+02  0.69442930548E+02  0.10000000000E+01 0.  0.
    9000005    1    3    3    0    0 -0.51858141180E+02  0.31554313449E+02  0.27810425531E+01  0.60775617657E+02  0.10000000000E+01 0.  0.
<mgrwt>
<rscale>  0 0.12500103E+03</rscale>
<asrwt>0</asrwt>
<pdfrwt beam="1">  1        4 0.20838727E-01 0.12500103E+03</pdfrwt>
<pdfrwt beam="2">  1       -4 0.11715910E-01 0.12500103E+03</pdfrwt>
<totfact> 0.19552170E+03</totfact>
</mgrwt>
</event>
<event>
 5    1  0.1433395E-002  0.1249964E+03  0.7818608E-02  0.1235075E+00
         -4   -1    0    0    0  501 -0.00000000000E+00  0.00000000000E+00  0.10351295030E+02  0.10428912158E+02  0.12700000000E+01 0.  1.
          4   -1    0    0  501    0  0.00000000000E+00 -0.00000000000E+00 -0.37585833733E+03  0.37586048295E+03  0.12700000000E+01 0.  1.
         25    2    1    2    0    0  0.00000000000E+00  0.00000000000E+00 -0.36550704230E+03  0.38628939510E+03  0.12499639515E+03 0.  0.
    9000005    1    3    3    0    0  0.17135810016E+02  0.23791349733E+02 -0.35329681428E+03  0.35451276886E+03  0.10000000000E+01 0.  0.
    9000005    1    3    3    0    0 -0.17135810016E+02 -0.23791349733E+02 -0.12210228022E+02  0.31776626243E+02  0.10000000000E+01 0.  0.
<mgrwt>
<rscale>  0 0.12499640E+03</rscale>
<asrwt>0</asrwt>
<pdfrwt beam="2">  1        4 0.93974509E-01 0.12499640E+03</pdfrwt>
<pdfrwt beam="1">  1       -4 0.25977954E-02 0.12499640E+03</pdfrwt>
<totfact> 0.10858069E+03</totfact>
</mgrwt>
</event>
<event>
 5    1  0.1433395E-002  0.1249984E+03  0.7818608E-02  0.1235072E+00
          4   -1    0    0  501    0  0.00000000000E+00  0.00000000000E+00  0.44571711226E+02  0.44589800870E+02  0.12700000000E+01 0.  1.
         -4   -1    0    0    0  501 -0.00000000000E+00 -0.00000000000E+00 -0.87596926179E+02  0.87606132068E+02  0.12700000000E+01 0.  1.
         25    2    1    2    0    0  0.00000000000E+00  0.00000000000E+00 -0.43025214953E+02  0.13219593294E+03  0.12499838224E+03 0.  0.
    9000005    1    3    3    0    0 -0.49661752268E+02 -0.32140959907E+02 -0.42817499013E+02  0.73031973571E+02  0.10000000000E+01 0.  0.
    9000005    1    3    3    0    0  0.49661752268E+02  0.32140959907E+02 -0.20771593988E+00  0.59163959367E+02  0.10000000000E+01 0.  0.
<mgrwt>
<rscale>  0 0.12499838E+03</rscale>
<asrwt>0</asrwt>
<pdfrwt beam="1">  1        4 0.11146340E-01 0.12499838E+03</pdfrwt>
<pdfrwt beam="2">  1       -4 0.21902643E-01 0.12499838E+03</pdfrwt>
<totfact> 0.19447775E+03</totfact>
</mgrwt>
</event>
<event>
 5    1  0.1433395E-002  0.1249990E+03  0.7818608E-02  0.1235071E+00
         -4   -1    0    0    0  501 -0.00000000000E+00  0.00000000000E+00  0.45597605866E+02  0.45615288673E+02  0.12700000000E+01 0.  1.
          4   -1    0    0  501    0  0.00000000000E+00 -0.00000000000E+00 -0.85627489173E+02  0.85636906775E+02  0.12700000000E+01 0.  1.
         25    2    1    2    0    0  0.00000000000E+00  0.00000000000E+00 -0.40029883306E+02  0.13125219545E+03  0.12499898901E+03 0.  0.
    9000005    1    3    3    0    0 -0.28136734258E+02 -0.33833625474E+02 -0.66605779658E+02  0.79835580485E+02  0.10000000000E+01 0.  0.
    9000005    1    3    3    0    0  0.28136734258E+02  0.33833625474E+02  0.26575896352E+02  0.51416614964E+02  0.10000000000E+01 0.  0.
<mgrwt>
<rscale>  0 0.12499899E+03</rscale>
<asrwt>0</asrwt>
<pdfrwt beam="2">  1        4 0.21410260E-01 0.12499899E+03</pdfrwt>
<pdfrwt beam="1">  1       -4 0.11402789E-01 0.12499899E+03</pdfrwt>
<totfact> 0.19497760E+03</totfact>
</mgrwt>
</event>
<event>
 5    1  0.1433395E-002  0.1249980E+03  0.7818608E-02  0.1235072E+00
         -4   -1    0    0    0  501 -0.00000000000E+00  0.00000000000E+00  0.61366112030E+02  0.61379252241E+02  0.12700000000E+01 0.  1.
          4   -1    0    0  501    0  0.00000000000E+00 -0.00000000000E+00 -0.63626517991E+02  0.63639191475E+02  0.12700000000E+01 0.  1.
         25    2    1    2    0    0  0.00000000000E+00  0.00000000000E+00 -0.22604059610E+01  0.12501844372E+03  0.12499800732E+03 0.  0.
    9000005    1    3    3    0    0  0.12776857960E+02  0.51123049569E+02 -0.34726038077E+02  0.63116654039E+02  0.10000000000E+01 0.  0.
    9000005    1    3    3    0    0 -0.12776857960E+02 -0.51123049569E+02  0.32465632116E+02  0.61901789677E+02  0.10000000000E+01 0.  0.
<mgrwt>
<rscale>  0 0.12499801E+03</rscale>
<asrwt>0</asrwt>
<pdfrwt beam="2">  1        4 0.15909856E-01 0.12499801E+03</pdfrwt>
<pdfrwt beam="1">  1       -4 0.15344755E-01 0.12499801E+03</pdfrwt>
<totfact> 0.19834980E+03</totfact>
</mgrwt>
</event>
<event>
 5    1  0.1433395E-002  0.1249983E+03  0.7818608E-02  0.1235072E+00
          4   -1    0    0  501    0  0.00000000000E+00  0.00000000000E+00  0.59893663212E+03  0.59893797859E+03  0.12700000000E+01 0.  1.
         -4   -1    0    0    0  501 -0.00000000000E+00 -0.00000000000E+00 -0.64586057584E+01  0.65822859511E+01  0.12700000000E+01 0.  1.
         25    2    1    2    0    0  0.00000000000E+00  0.00000000000E+00  0.59247802636E+03  0.60552026454E+03  0.12499831617E+03 0.  0.
    9000005    1    3    3    0    0  0.21230659204E+02  0.86715025875E+01  0.57783861753E+03  0.57829439195E+03  0.10000000000E+01 0.  0.
    9000005    1    3    3    0    0 -0.21230659204E+02 -0.86715025875E+01  0.14639408825E+02  0.27225872587E+02  0.10000000000E+01 0.  0.
<mgrwt>
<rscale>  0 0.12499832E+03</rscale>
<asrwt>0</asrwt>
<pdfrwt beam="1">  1        4 0.14974980E+00 0.12499832E+03</pdfrwt>
<pdfrwt beam="2">  1       -4 0.16302796E-02 0.12499832E+03</pdfrwt>
<totfact> 0.72815433E+02</totfact>
</mgrwt>
</event>
<event>
 5    1  0.1433395E-002  0.1250002E+03  0.7818608E-02  0.1235069E+00
         -4   -1    0    0    0  501 -0.00000000000E+00  0.00000000000E+00  0.57892788134E+03  0.57892927434E+03  0.12700000000E+01 0.  1.
          4   -1    0    0  501    0  0.00000000000E+00 -0.00000000000E+00 -0.66862384919E+01  0.68057832151E+01  0.12700000000E+01 0.  1.
         25    2    1    2    0    0  0.00000000000E+00  0.00000000000E+00  0.57224164285E+03  0.58573505756E+03  0.12500023938E+03 0.  0.
    9000005    1    3    3    0    0  0.52011603024E+02 -0.34639608071E+02  0.28796960268E+03  0.29467372018E+03  0.10000000000E+01 0.  0.
    9000005    1    3    3    0    0 -0.52011603024E+02  0.34639608071E+02  0.28427204016E+03  0.29106133737E+03  0.10000000000E+01 0.  0.
<mgrwt>
<rscale>  0 0.12500024E+03</rscale>
<asrwt>0</asrwt>
<pdfrwt beam="2">  1        4 0.16866771E-02 0.12500024E+03</pdfrwt>
<pdfrwt beam="1">  1       -4 0.14474706E+00 0.12500024E+03</pdfrwt>
<totfact> 0.75327160E+02</totfact>
</mgrwt>
</event>
<event>
 5    1  0.1433395E-002  0.1249993E+03  0.7818608E-02  0.1235070E+00
         -4   -1    0    0    0  501 -0.00000000000E+00  0.00000000000E+00  0.31718613172E+02  0.31744028125E+02  0.12700000000E+01 0.  1.
          4   -1    0    0  501    0  0.00000000000E+00 -0.00000000000E+00 -0.12307382570E+03  0.12308037810E+03  0.12700000000E+01 0.  1.
         25    2    1    2    0    0  0.00000000000E+00  0.00000000000E+00 -0.91355212530E+02  0.15482440622E+03  0.12499928762E+03 0.  0.
    9000005    1    3    3    0    0 -0.53097176436E+02  0.15285660843E+02 -0.95188206134E+01  0.56076461360E+02  0.10000000000E+01 0.  0.
    9000005    1    3    3    0    0  0.53097176436E+02 -0.15285660843E+02 -0.81836391917E+02  0.98747944864E+02  0.10000000000E+01 0.  0.
<mgrwt>
<rscale>  0 0.12499929E+03</rscale>
<asrwt>0</asrwt>
<pdfrwt beam="2">  1        4 0.30772451E-01 0.12499929E+03</pdfrwt>
<pdfrwt beam="1">  1       -4 0.79336495E-02 0.12499929E+03</pdfrwt>
<totfact> 0.18304384E+03</totfact>
</mgrwt>
</event>
<event>
 5    1  0.1433395E-002  0.1249951E+03  0.7818608E-02  0.1235077E+00
          4   -1    0    0  501    0  0.00000000000E+00  0.00000000000E+00  0.98793483822E+03  0.98793565452E+03  0.12700000000E+01 0.  1.
         -4   -1    0    0    0  501 -0.00000000000E+00 -0.00000000000E+00 -0.38508164916E+01  0.40548350955E+01  0.12700000000E+01 0.  1.
         25    2    1    2    0    0  0.00000000000E+00  0.00000000000E+00  0.98408402173E+03  0.99199048962E+03  0.12499507856E+03 0.  0.
    9000005    1    3    3    0    0 -0.27955584903E+02  0.39543232703E+02  0.80547416301E+03  0.80692924675E+03  0.10000000000E+01 0.  0.
    9000005    1    3    3    0    0  0.27955584903E+02 -0.39543232703E+02  0.17860985872E+03  0.18506124287E+03  0.10000000000E+01 0.  0.
<mgrwt>
<rscale>  0 0.12499508E+03</rscale>
<asrwt>0</asrwt>
<pdfrwt beam="1">  1        4 0.24700936E+00 0.12499508E+03</pdfrwt>
<pdfrwt beam="2">  1       -4 0.98830828E-03 0.12499508E+03</pdfrwt>
<totfact> 0.37655384E+02</totfact>
</mgrwt>
</event>
<event>
 5    1  0.1433395E-002  0.1250018E+03  0.7818608E-02  0.1235066E+00
          4   -1    0    0  501    0  0.00000000000E+00  0.00000000000E+00  0.12450154091E+03  0.12450801817E+03  0.12700000000E+01 0.  1.
         -4   -1    0    0    0  501 -0.00000000000E+00 -0.00000000000E+00 -0.31355876749E+02  0.31381585471E+02  0.12700000000E+01 0.  1.
         25    2    1    2    0    0  0.00000000000E+00  0.00000000000E+00  0.93145664159E+02  0.15588960364E+03  0.12500181507E+03 0.  0.
    9000005    1    3    3    0    0 -0.10957638273E+02 -0.96660277370E+01  0.12234741150E+03  0.12322090338E+03  0.10000000000E+01 0.  0.
    9000005    1    3    3    0    0  0.10957638273E+02  0.96660277370E+01 -0.29201747343E+02  0.32668700259E+02  0.10000000000E+01 0.  0.
<mgrwt>
<rscale>  0 0.12500182E+03</rscale>
<asrwt>0</asrwt>
<pdfrwt beam="1">  1        4 0.31129408E-01 0.12500182E+03</pdfrwt>
<pdfrwt beam="2">  1       -4 0.78429925E-02 0.12500182E+03</pdfrwt>
<totfact> 0.18252158E+03</totfact>
</mgrwt>
</event>
<event>
 5    1  0.1433395E-002  0.1249928E+03  0.7818608E-02  0.1235081E+00
          4   -1    0    0  501    0  0.00000000000E+00  0.00000000000E+00  0.87849923840E+03  0.87850015638E+03  0.12700000000E+01 0. -1.
         -4   -1    0    0    0  501 -0.00000000000E+00 -0.00000000000E+00 -0.43543561129E+01  0.45357818685E+01  0.12700000000E+01 0. -1.
         25    2    1    2    0    0  0.00000000000E+00  0.00000000000E+00  0.87414488229E+03  0.88303593825E+03  0.12499277187E+03 0.  0.
    9000005    1    3    3    0    0  0.19881170216E+02  0.59232222936E+02  0.42972688376E+03  0.43424637223E+03  0.10000000000E+01 0.  0.
    9000005    1    3    3    0    0 -0.19881170216E+02 -0.59232222936E+02  0.44441799852E+03  0.44878956602E+03  0.10000000000E+01 0.  0.
<mgrwt>
<rscale>  0 0.12499277E+03</rscale>
<asrwt>0</asrwt>
<pdfrwt beam="1">  1        4 0.21964762E+00 0.12499277E+03</pdfrwt>
<pdfrwt beam="2">  1       -4 0.11113819E-02 0.12499277E+03</pdfrwt>
<totfact> 0.45592489E+02</totfact>
</mgrwt>
</event>
<event>
 5    1  0.1433395E-002  0.1249986E+03  0.7818608E-02  0.1235071E+00
         -4   -1    0    0    0  501 -0.00000000000E+00  0.00000000000E+00  0.27146285872E+02  0.27175977197E+02  0.12700000000E+01 0.  1.
          4   -1    0    0  501    0  0.00000000000E+00 -0.00000000000E+00 -0.14378201078E+03  0.14378761951E+03  0.12700000000E+01 0.  1.
         25    2    1    2    0    0  0.00000000000E+00  0.00000000000E+00 -0.11663572491E+03  0.17096359671E+03  0.12499863629E+03 0.  0.
    9000005    1    3    3    0    0 -0.16409152302E+02 -0.54805569521E+02 -0.23926912116E+02  0.62019415131E+02  0.10000000000E+01 0.  0.
    9000005    1    3    3    0    0  0.16409152302E+02  0.54805569521E+02 -0.92708812793E+02  0.10894418158E+03  0.10000000000E+01 0.  0.
<mgrwt>
<rscale>  0 0.12499864E+03</rscale>
<asrwt>0</asrwt>
<pdfrwt beam="2">  1        4 0.35949913E-01 0.12499864E+03</pdfrwt>
<pdfrwt beam="1">  1       -4 0.67909844E-02 0.12499864E+03</pdfrwt>
<totfact> 0.17554228E+03</totfact>
</mgrwt>
</event>
<event>
 5    1  0.1433395E-002  0.1250018E+03  0.7818608E-02  0.1235067E+00
          4   -1    0    0  501    0  0.00000000000E+00  0.00000000000E+00  0.32065994521E+02  0.32091134362E+02  0.12700000000E+01 0. -1.
         -4   -1    0    0    0  501 -0.00000000000E+00 -0.00000000000E+00 -0.12174635632E+03  0.12175298016E+03  0.12700000000E+01 0. -1.
         25    2    1    2    0    0  0.00000000000E+00  0.00000000000E+00 -0.89680361797E+02  0.15384411452E+03  0.12500177710E+03 0.  0.
    9000005    1    3    3    0    0  0.33556005829E+02  0.15576541753E+02  0.17146952877E+02  0.40787892482E+02  0.10000000000E+01 0.  0.
    9000005    1    3    3    0    0 -0.33556005829E+02 -0.15576541753E+02 -0.10682731467E+03  0.11305622203E+03  0.10000000000E+01 0.  0.
<mgrwt>
<rscale>  0 0.12500178E+03</rscale>
<asrwt>0</asrwt>
<pdfrwt beam="1">  1        4 0.80204694E-02 0.12500178E+03</pdfrwt>
<pdfrwt beam="2">  1       -4 0.30440558E-01 0.12500178E+03</pdfrwt>
<totfact> 0.18350608E+03</totfact>
</mgrwt>
</event>
<event>
 5    1  0.1433395E-002  0.1249918E+03  0.7818608E-02  0.1235082E+00
          4   -1    0    0  501    0  0.00000000000E+00  0.00000000000E+00  0.58512376736E+01  0.59874771242E+01  0.12700000000E+01 0.  1.
         -4   -1    0    0    0  501 -0.00000000000E+00 -0.00000000000E+00 -0.65968765190E+03  0.65968887437E+03  0.12700000000E+01 0.  1.
         25    2    1    2    0    0  0.00000000000E+00  0.00000000000E+00 -0.65383641423E+03  0.66567635150E+03  0.12499179322E+03 0.  0.
    9000005    1    3    3    0    0 -0.12072696277E+01  0.53747382779E+02 -0.49655002689E+03  0.49945286851E+03  0.10000000000E+01 0.  0.
    9000005    1    3    3    0    0  0.12072696277E+01 -0.53747382779E+02 -0.15728638734E+03  0.16622348299E+03  0.10000000000E+01 0.  0.
<mgrwt>
<rscale>  0 0.12499179E+03</rscale>
<asrwt>0</asrwt>
<pdfrwt beam="1">  1        4 0.14799944E-02 0.12499179E+03</pdfrwt>
<pdfrwt beam="2">  1       -4 0.16493885E+00 0.12499179E+03</pdfrwt>
<totfact> 0.65757735E+02</totfact>
</mgrwt>
</event>
<event>
 5    1  0.1433395E-002  0.1250070E+03  0.7818608E-02  0.1235058E+00
          4   -1    0    0  501    0  0.00000000000E+00  0.00000000000E+00  0.27711709812E+03  0.27712000824E+03  0.12700000000E+01 0. -1.
         -4   -1    0    0    0  501 -0.00000000000E+00 -0.00000000000E+00 -0.14066003159E+02  0.14123220060E+02  0.12700000000E+01 0. -1.
         25    2    1    2    0    0  0.00000000000E+00  0.00000000000E+00  0.26305109496E+03  0.29124322830E+03  0.12500695770E+03 0.  0.
    9000005    1    3    3    0    0 -0.30339711568E+02 -0.36620956610E+02  0.22599355362E+03  0.23094518579E+03  0.10000000000E+01 0.  0.
    9000005    1    3    3    0    0  0.30339711568E+02  0.36620956610E+02  0.37057541337E+02  0.60298042514E+02  0.10000000000E+01 0.  0.
<mgrwt>
<rscale>  0 0.12500696E+03</rscale>
<asrwt>0</asrwt>
<pdfrwt beam="1">  1        4 0.69286791E-01 0.12500696E+03</pdfrwt>
<pdfrwt beam="2">  1       -4 0.35240166E-02 0.12500696E+03</pdfrwt>
<totfact> 0.13217970E+03</totfact>
</mgrwt>
</event>
<event>
 5    1  0.1433395E-002  0.1250031E+03  0.7818608E-02  0.1235064E+00
         -4   -1    0    0    0  501 -0.00000000000E+00  0.00000000000E+00  0.40463954740E+02  0.40483879918E+02  0.12700000000E+01 0.  1.
          4   -1    0    0  501    0  0.00000000000E+00 -0.00000000000E+00 -0.96493435342E+02  0.96501792544E+02  0.12700000000E+01 0.  1.
         25    2    1    2    0    0  0.00000000000E+00  0.00000000000E+00 -0.56029480603E+02  0.13698567246E+03  0.12500308701E+03 0.  0.
    9000005    1    3    3    0    0  0.18831308500E+02  0.11699012327E+02 -0.92044738049E+02  0.94682199339E+02  0.10000000000E+01 0.  0.
    9000005    1    3    3    0    0 -0.18831308500E+02 -0.11699012327E+02  0.36015257446E+02  0.42303473122E+02  0.10000000000E+01 0.  0.
<mgrwt>
<rscale>  0 0.12500309E+03</rscale>
<asrwt>0</asrwt>
<pdfrwt beam="2">  1        4 0.24126894E-01 0.12500309E+03</pdfrwt>
<pdfrwt beam="1">  1       -4 0.10119524E-01 0.12500309E+03</pdfrwt>
<totfact> 0.19194246E+03</totfact>
</mgrwt>
</event>
<event>
 5    1  0.1433395E-002  0.1250098E+03  0.7818608E-02  0.1235054E+00
          4   -1    0    0  501    0  0.00000000000E+00  0.00000000000E+00  0.13373461931E+02  0.13433628848E+02  0.12700000000E+01 0. -1.
         -4   -1    0    0    0  501 -0.00000000000E+00 -0.00000000000E+00 -0.29141813554E+03  0.29142090286E+03  0.12700000000E+01 0. -1.
         25    2    1    2    0    0  0.00000000000E+00  0.00000000000E+00 -0.27804467361E+03  0.30485453171E+03  0.12500977953E+03 0.  0.
    9000005    1    3    3    0    0 -0.46832827791E+02 -0.39143364611E+02 -0.10627318110E+03  0.12255817302E+03  0.10000000000E+01 0.  0.
    9000005    1    3    3    0    0  0.46832827791E+02  0.39143364611E+02 -0.17177149251E+03  0.18229635869E+03  0.10000000000E+01 0.  0.
<mgrwt>
<rscale>  0 0.12500978E+03</rscale>
<asrwt>0</asrwt>
<pdfrwt beam="1">  1        4 0.33512332E-02 0.12500978E+03</pdfrwt>
<pdfrwt beam="2">  1       -4 0.72862380E-01 0.12500978E+03</pdfrwt>
<totfact> 0.12833209E+03</totfact>
</mgrwt>
</event>
<event>
 5    1  0.1433395E-002  0.1250022E+03  0.7818608E-02  0.1235066E+00
          4   -1    0    0  501    0  0.00000000000E+00  0.00000000000E+00  0.11717670946E+03  0.11718359160E+03  0.12700000000E+01 0. -1.
         -4   -1    0    0    0  501 -0.00000000000E+00 -0.00000000000E+00 -0.33317615557E+02  0.33341811684E+02  0.12700000000E+01 0. -1.
         25    2    1    2    0    0  0.00000000000E+00  0.00000000000E+00  0.83859093908E+02  0.15052540329E+03  0.12500219760E+03 0.  0.
    9000005    1    3    3    0    0  0.68228671740E+01  0.29388255613E+02  0.10783215763E+03  0.11197765538E+03  0.10000000000E+01 0.  0.
    9000005    1    3    3    0    0 -0.68228671740E+01 -0.29388255613E+02 -0.23973063725E+02  0.38547747909E+02  0.10000000000E+01 0.  0.
<mgrwt>
<rscale>  0 0.12500220E+03</rscale>
<asrwt>0</asrwt>
<pdfrwt beam="1">  1        4 0.29298062E-01 0.12500220E+03</pdfrwt>
<pdfrwt beam="2">  1       -4 0.83332888E-02 0.12500220E+03</pdfrwt>
<totfact> 0.18512030E+03</totfact>
</mgrwt>
</event>
<event>
 5    1  0.1433395E-002  0.1249986E+03  0.7818608E-02  0.1235072E+00
         -4   -1    0    0    0  501 -0.00000000000E+00  0.00000000000E+00  0.15838230722E+03  0.15838739894E+03  0.12700000000E+01 0. -1.
          4   -1    0    0  501    0  0.00000000000E+00 -0.00000000000E+00 -0.24641016253E+02  0.24673722500E+02  0.12700000000E+01 0. -1.
         25    2    1    2    0    0  0.00000000000E+00  0.00000000000E+00  0.13374129097E+03  0.18306112144E+03  0.12499856508E+03 0.  0.
    9000005    1    3    3    0    0  0.65187415503E+00 -0.55210044264E+02  0.10973306434E+03  0.12284510302E+03  0.10000000000E+01 0.  0.
    9000005    1    3    3    0    0 -0.65187415503E+00  0.55210044264E+02  0.24008226633E+02  0.60216018413E+02  0.10000000000E+01 0.  0.
<mgrwt>
<rscale>  0 0.12499857E+03</rscale>
<asrwt>0</asrwt>
<pdfrwt beam="2">  1        4 0.61649789E-02 0.12499857E+03</pdfrwt>
<pdfrwt beam="1">  1       -4 0.39600301E-01 0.12499857E+03</pdfrwt>
<totfact> 0.17024083E+03</totfact>
</mgrwt>
</event>
<event>
 5    1  0.1433395E-002  0.1250009E+03  0.7818608E-02  0.1235068E+00
          4   -1    0    0  501    0  0.00000000000E+00  0.00000000000E+00  0.62572782979E+03  0.62572911861E+03  0.12700000000E+01 0. -1.
         -4   -1    0    0    0  501 -0.00000000000E+00 -0.00000000000E+00 -0.61769252372E+01  0.63061323635E+01  0.12700000000E+01 0. -1.
         25    2    1    2    0    0  0.00000000000E+00  0.00000000000E+00  0.61955090456E+03  0.63203525097E+03  0.12500094055E+03 0.  0.
    9000005    1    3    3    0    0 -0.58425198499E+02 -0.11386033287E+02  0.40599873883E+03  0.41034025090E+03  0.10000000000E+01 0.  0.
    9000005    1    3    3    0    0  0.58425198499E+02  0.11386033287E+02  0.21355216572E+03  0.22169500007E+03  0.10000000000E+01 0.  0.
<mgrwt>
<rscale>  0 0.12500094E+03</rscale>
<asrwt>0</asrwt>
<pdfrwt beam="1">  1        4 0.15644825E+00 0.12500094E+03</pdfrwt>
<pdfrwt beam="2">  1       -4 0.15605435E-02 0.12500094E+03</pdfrwt>
<totfact> 0.69603179E+02</totfact>
</mgrwt>
</event>
<event>
 5    1  0.1433395E-002  0.1249969E+03  0.7818608E-02  0.1235074E+00
          4   -1    0    0  501    0  0.00000000000E+00  0.00000000000E+00  0.98546200639E+01  0.99361177833E+01  0.12700000000E+01 0. -1.
         -4   -1    0    0    0  501 -0.00000000000E+00 -0.00000000000E+00 -0.39465346088E+03  0.39465550432E+03  0.12700000000E+01 0. -1.
         25    2    1    2    0    0  0.00000000000E+00  0.00000000000E+00 -0.38479884082E+03  0.40459162210E+03  0.12499693107E+03 0.  0.
    9000005    1    3    3    0    0  0.38704918643E+02 -0.14863999210E+02 -0.41061597910E+02  0.58361494349E+02  0.10000000000E+01 0.  0.
    9000005    1    3    3    0    0 -0.38704918643E+02  0.14863999210E+02 -0.34373724291E+03  0.34623012775E+03  0.10000000000E+01 0.  0.
<mgrwt>
<rscale>  0 0.12499693E+03</rscale>
<asrwt>0</asrwt>
<pdfrwt beam="1">  1        4 0.24740990E-02 0.12499693E+03</pdfrwt>
<pdfrwt beam="2">  1       -4 0.98673755E-01 0.12499693E+03</pdfrwt>
<totfact> 0.10475963E+03</totfact>
</mgrwt>
</event>
<event>
 5    1  0.1433395E-002  0.1249997E+03  0.7818608E-02  0.1235070E+00
         -4   -1    0    0    0  501 -0.00000000000E+00  0.00000000000E+00  0.64492742238E+02  0.64505245534E+02  0.12700000000E+01 0.  1.
          4   -1    0    0  501    0  0.00000000000E+00 -0.00000000000E+00 -0.60543484063E+02  0.60556802776E+02  0.12700000000E+01 0.  1.
         25    2    1    2    0    0  0.00000000000E+00  0.00000000000E+00  0.39492581749E+01  0.12506204831E+03  0.12499967715E+03 0.  0.
    9000005    1    3    3    0    0  0.33218946120E+02 -0.49488513299E+02  0.20762137497E+02  0.63124303428E+02  0.10000000000E+01 0.  0.
    9000005    1    3    3    0    0 -0.33218946120E+02  0.49488513299E+02 -0.16812879322E+02  0.61937744881E+02  0.10000000000E+01 0.  0.
<mgrwt>
<rscale>  0 0.12499968E+03</rscale>
<asrwt>0</asrwt>
<pdfrwt beam="2">  1        4 0.15139099E-01 0.12499968E+03</pdfrwt>
<pdfrwt beam="1">  1       -4 0.16126413E-01 0.12499968E+03</pdfrwt>
<totfact> 0.19831841E+03</totfact>
</mgrwt>
</event>
<event>
 5    1  0.1433395E-002  0.1249999E+03  0.7818608E-02  0.1235069E+00
          4   -1    0    0  501    0  0.00000000000E+00  0.00000000000E+00  0.19494461959E+02  0.19535786318E+02  0.12700000000E+01 0.  1.
         -4   -1    0    0    0  501 -0.00000000000E+00 -0.00000000000E+00 -0.20012150168E+03  0.20012553145E+03  0.12700000000E+01 0.  1.
         25    2    1    2    0    0  0.00000000000E+00  0.00000000000E+00 -0.18062703973E+03  0.21966131776E+03  0.12499986817E+03 0.  0.
    9000005    1    3    3    0    0  0.39294030886E+02  0.28355223307E+02 -0.20968299094E+02  0.52808229652E+02  0.10000000000E+01 0.  0.
    9000005    1    3    3    0    0 -0.39294030886E+02 -0.28355223307E+02 -0.15965874063E+03  0.16685308811E+03  0.10000000000E+01 0.  0.
<mgrwt>
<rscale>  0 0.12499987E+03</rscale>
<asrwt>0</asrwt>
<pdfrwt beam="1">  1        4 0.48792854E-02 0.12499987E+03</pdfrwt>
<pdfrwt beam="2">  1       -4 0.50036038E-01 0.12499987E+03</pdfrwt>
<totfact> 0.15563957E+03</totfact>
</mgrwt>
</event>
<event>
 5    1  0.1433395E-002  0.1250006E+03  0.7818608E-02  0.1235068E+00
          4   -1    0    0  501    0  0.00000000000E+00  0.00000000000E+00  0.48389477275E+02  0.48406140220E+02  0.12700000000E+01 0. -1.
         -4   -1    0    0    0  501 -0.00000000000E+00 -0.00000000000E+00 -0.80690374972E+02  0.80700368730E+02  0.12700000000E+01 0. -1.
         25    2    1    2    0    0  0.00000000000E+00  0.00000000000E+00 -0.32300897697E+02  0.12910650895E+03  0.12500057064E+03 0.  0.
    9000005    1    3    3    0    0 -0.31791905378E+02 -0.36434625391E+02  0.24736200067E+02  0.54323906052E+02  0.10000000000E+01 0.  0.
    9000005    1    3    3    0    0  0.31791905378E+02  0.36434625391E+02 -0.57037097764E+02  0.74782602899E+02  0.10000000000E+01 0.  0.
<mgrwt>
<rscale>  0 0.12500057E+03</rscale>
<asrwt>0</asrwt>
<pdfrwt beam="1">  1        4 0.12100702E-01 0.12500057E+03</pdfrwt>
<pdfrwt beam="2">  1       -4 0.20175926E-01 0.12500057E+03</pdfrwt>
<totfact> 0.19612277E+03</totfact>
</mgrwt>
</event>
<event>
 5    1  0.1433395E-002  0.1250045E+03  0.7818608E-02  0.1235062E+00
         -4   -1    0    0    0  501 -0.00000000000E+00  0.00000000000E+00  0.28587729454E+03  0.28588011550E+03  0.12700000000E+01 0. -1.
          4   -1    0    0  501    0  0.00000000000E+00 -0.00000000000E+00 -0.13632662359E+02  0.13691690290E+02  0.12700000000E+01 0. -1.
         25    2    1    2    0    0  0.00000000000E+00  0.00000000000E+00  0.27224463219E+03  0.29957180579E+03  0.12500450819E+03 0.  0.
    9000005    1    3    3    0    0 -0.44034982647E+02 -0.23753249678E+00  0.24239232422E+03  0.24636187805E+03  0.10000000000E+01 0.  0.
    9000005    1    3    3    0    0  0.44034982647E+02  0.23753249678E+00  0.29852307969E+02  0.53209927734E+02  0.10000000000E+01 0.  0.
<mgrwt>
<rscale>  0 0.12500451E+03</rscale>
<asrwt>0</asrwt>
<pdfrwt beam="2">  1        4 0.34158967E-02 0.12500451E+03</pdfrwt>
<pdfrwt beam="1">  1       -4 0.71477056E-01 0.12500451E+03</pdfrwt>
<totfact> 0.12981724E+03</totfact>
</mgrwt>
</event>
<event>
 5    1  0.1433395E-002  0.1249903E+03  0.7818608E-02  0.1235084E+00
         -4   -1    0    0    0  501 -0.00000000000E+00  0.00000000000E+00  0.25658977186E+02  0.25690387507E+02  0.12700000000E+01 0. -1.
          4   -1    0    0  501    0  0.00000000000E+00 -0.00000000000E+00 -0.15208634686E+03  0.15209164935E+03  0.12700000000E+01 0. -1.
         25    2    1    2    0    0  0.00000000000E+00  0.00000000000E+00 -0.12642736968E+03  0.17778203686E+03  0.12499029093E+03 0.  0.
    9000005    1    3    3    0    0  0.21277278741E+01  0.11894077156E+02 -0.15041586912E+03  0.15090371096E+03  0.10000000000E+01 0.  0.
    9000005    1    3    3    0    0 -0.21277278741E+01 -0.11894077156E+02  0.23988499447E+02  0.26878325897E+02  0.10000000000E+01 0.  0.
<mgrwt>
<rscale>  0 0.12499029E+03</rscale>
<asrwt>0</asrwt>
<pdfrwt beam="2">  1        4 0.38026173E-01 0.12499029E+03</pdfrwt>
<pdfrwt beam="1">  1       -4 0.64193338E-02 0.12499029E+03</pdfrwt>
<totfact> 0.17255536E+03</totfact>
</mgrwt>
</event>
<event>
 5    1  0.1433395E-002  0.1249990E+03  0.7818608E-02  0.1235071E+00
         -4   -1    0    0    0  501 -0.00000000000E+00  0.00000000000E+00  0.30089849828E+02  0.30116639299E+02  0.12700000000E+01 0.  1.
          4   -1    0    0  501    0  0.00000000000E+00 -0.00000000000E+00 -0.12972969082E+03  0.12973590706E+03  0.12700000000E+01 0.  1.
         25    2    1    2    0    0  0.00000000000E+00  0.00000000000E+00 -0.99639840991E+02  0.15985254636E+03  0.12499895465E+03 0.  0.
    9000005    1    3    3    0    0  0.41859451005E+02  0.10191022213E+02 -0.10770894721E+03  0.11600986114E+03  0.10000000000E+01 0.  0.
    9000005    1    3    3    0    0 -0.41859451005E+02 -0.10191022213E+02  0.80691062159E+01  0.43842685220E+02  0.10000000000E+01 0.  0.
<mgrwt>
<rscale>  0 0.12499895E+03</rscale>
<asrwt>0</asrwt>
<pdfrwt beam="2">  1        4 0.32436547E-01 0.12499895E+03</pdfrwt>
<pdfrwt beam="1">  1       -4 0.75265885E-02 0.12499895E+03</pdfrwt>
<totfact> 0.18065135E+03</totfact>
</mgrwt>
</event>
<event>
 5    1  0.1433395E-002  0.1249940E+03  0.7818608E-02  0.1235079E+00
          4   -1    0    0  501    0  0.00000000000E+00  0.00000000000E+00  0.62683809434E+02  0.62696673478E+02  0.12700000000E+01 0. -1.
         -4   -1    0    0    0  501 -0.00000000000E+00 -0.00000000000E+00 -0.62284984173E+02  0.62297930571E+02  0.12700000000E+01 0. -1.
         25    2    1    2    0    0  0.00000000000E+00  0.00000000000E+00  0.39882526123E+00  0.12499460405E+03  0.12499396777E+03 0.  0.
    9000005    1    3    3    0    0  0.58959760009E+02  0.12357739249E+02 -0.16411089597E+02  0.62444302233E+02  0.10000000000E+01 0.  0.
    9000005    1    3    3    0    0 -0.58959760009E+02 -0.12357739249E+02  0.16809914858E+02  0.62550301815E+02  0.10000000000E+01 0.  0.
<mgrwt>
<rscale>  0 0.12499397E+03</rscale>
<asrwt>0</asrwt>
<pdfrwt beam="1">  1        4 0.15674179E-01 0.12499397E+03</pdfrwt>
<pdfrwt beam="2">  1       -4 0.15574472E-01 0.12499397E+03</pdfrwt>
<totfact> 0.19838148E+03</totfact>
</mgrwt>
</event>
<event>
 5    1  0.1433395E-002  0.1250004E+03  0.7818608E-02  0.1235069E+00
         -4   -1    0    0    0  501 -0.00000000000E+00  0.00000000000E+00  0.55242716307E+01  0.56683751684E+01  0.12700000000E+01 0. -1.
          4   -1    0    0  501    0  0.00000000000E+00 -0.00000000000E+00 -0.69786227649E+03  0.69786343209E+03  0.12700000000E+01 0. -1.
         25    2    1    2    0    0  0.00000000000E+00  0.00000000000E+00 -0.69233800486E+03  0.70353180726E+03  0.12500036340E+03 0.  0.
    9000005    1    3    3    0    0  0.44893226917E+02 -0.39439818548E+02 -0.24325199373E+03  0.25048639397E+03  0.10000000000E+01 0.  0.
    9000005    1    3    3    0    0 -0.44893226917E+02  0.39439818548E+02 -0.44908601113E+03  0.45304541329E+03  0.10000000000E+01 0.  0.
<mgrwt>
<rscale>  0 0.12500036E+03</rscale>
<asrwt>0</asrwt>
<pdfrwt beam="2">  1        4 0.17448343E+00 0.12500036E+03</pdfrwt>
<pdfrwt beam="1">  1       -4 0.13992277E-02 0.12500036E+03</pdfrwt>
<totfact> 0.61697616E+02</totfact>
</mgrwt>
</event>
<event>
 5    1  0.1433395E-002  0.1250023E+03  0.7818608E-02  0.1235066E+00
         -4   -1    0    0    0  501 -0.00000000000E+00  0.00000000000E+00  0.20759564632E+02  0.20798375507E+02  0.12700000000E+01 0. -1.
          4   -1    0    0  501    0  0.00000000000E+00 -0.00000000000E+00 -0.18795636156E+03  0.18796065214E+03  0.12700000000E+01 0. -1.
         25    2    1    2    0    0  0.00000000000E+00  0.00000000000E+00 -0.16719679693E+03  0.20875902764E+03  0.12500225086E+03 0.  0.
    9000005    1    3    3    0    0  0.57217085342E+02 -0.77415792150E+01 -0.12352825676E+03  0.13635966090E+03  0.10000000000E+01 0.  0.
    9000005    1    3    3    0    0 -0.57217085342E+02  0.77415792150E+01 -0.43668540171E+02  0.72399366740E+02  0.10000000000E+01 0.  0.
<mgrwt>
<rscale>  0 0.12500225E+03</rscale>
<asrwt>0</asrwt>
<pdfrwt beam="2">  1        4 0.46994473E-01 0.12500225E+03</pdfrwt>
<pdfrwt beam="1">  1       -4 0.51952794E-02 0.12500225E+03</pdfrwt>
<totfact> 0.15976393E+03</totfact>
</mgrwt>
</event>
<event>
 5    1  0.1433395E-002  0.1250004E+03  0.7818608E-02  0.1235069E+00
         -4   -1    0    0    0  501 -0.00000000000E+00  0.00000000000E+00  0.54784802019E+01  0.56237572247E+01  0.12700000000E+01 0.  1.
          4   -1    0    0  501    0  0.00000000000E+00 -0.00000000000E+00 -0.70354541952E+03  0.70354656579E+03  0.12700000000E+01 0.  1.
         25    2    1    2    0    0  0.00000000000E+00  0.00000000000E+00 -0.69806693932E+03  0.70917032301E+03  0.12500038107E+03 0.  0.
    9000005    1    3    3    0    0 -0.30135844737E+02 -0.54306126586E+02 -0.30974814684E+03  0.31591492367E+03  0.10000000000E+01 0.  0.
    9000005    1    3    3    0    0  0.30135844737E+02  0.54306126586E+02 -0.38831879248E+03  0.39325539935E+03  0.10000000000E+01 0.  0.
<mgrwt>
<rscale>  0 0.12500038E+03</rscale>
<asrwt>0</asrwt>
<pdfrwt beam="2">  1        4 0.17590435E+00 0.12500038E+03</pdfrwt>
<pdfrwt beam="1">  1       -4 0.13879254E-02 0.12500038E+03</pdfrwt>
<totfact> 0.61115197E+02</totfact>
</mgrwt>
</event>
<event>
 5    1  0.1433395E-002  0.1249991E+03  0.7818608E-02  0.1235071E+00
         -4   -1    0    0    0  501 -0.00000000000E+00  0.00000000000E+00  0.39242527854E+01  0.41246405812E+01  0.12700000000E+01 0.  1.
          4   -1    0    0  501    0  0.00000000000E+00 -0.00000000000E+00 -0.97041550992E+03  0.97041634096E+03  0.12700000000E+01 0.  1.
         25    2    1    2    0    0  0.00000000000E+00  0.00000000000E+00 -0.96649125714E+03  0.97454098154E+03  0.12499909830E+03 0.  0.
    9000005    1    3    3    0    0  0.53123557799E+02 -0.32651361718E+02 -0.51536240575E+03  0.51912198285E+03  0.10000000000E+01 0.  0.
    9000005    1    3    3    0    0 -0.53123557799E+02  0.32651361718E+02 -0.45112885139E+03  0.45541899869E+03  0.10000000000E+01 0.  0.
<mgrwt>
<rscale>  0 0.12499910E+03</rscale>
<asrwt>0</asrwt>
<pdfrwt beam="2">  1        4 0.24262823E+00 0.12499910E+03</pdfrwt>
<pdfrwt beam="1">  1       -4 0.10062189E-02 0.12499910E+03</pdfrwt>
<totfact> 0.38848798E+02</totfact>
</mgrwt>
</event>
<event>
 5    1  0.1433395E-002  0.1250000E+03  0.7818608E-02  0.1235069E+00
         -4   -1    0    0    0  501 -0.00000000000E+00  0.00000000000E+00  0.10694653340E+02  0.10769796194E+02  0.12700000000E+01 0.  1.
          4   -1    0    0  501    0  0.00000000000E+00 -0.00000000000E+00 -0.36389775474E+03  0.36389997088E+03  0.12700000000E+01 0.  1.
         25    2    1    2    0    0  0.00000000000E+00  0.00000000000E+00 -0.35320310140E+03  0.37466976708E+03  0.12500001408E+03 0.  0.
    9000005    1    3    3    0    0  0.32240041748E+02  0.46967956181E+02 -0.25359583050E+03  0.25991778402E+03  0.10000000000E+01 0.  0.
    9000005    1    3    3    0    0 -0.32240041748E+02 -0.46967956181E+02 -0.99607270902E+02  0.11475198306E+03  0.10000000000E+01 0.  0.
<mgrwt>
<rscale>  0 0.12500001E+03</rscale>
<asrwt>0</asrwt>
<pdfrwt beam="2">  1        4 0.90984068E-01 0.12500001E+03</pdfrwt>
<pdfrwt beam="1">  1       -4 0.26833344E-02 0.12500001E+03</pdfrwt>
<totfact> 0.11110270E+03</totfact>
</mgrwt>
</event>
<event>
 5    1  0.1433395E-002  0.1250012E+03  0.7818608E-02  0.1235067E+00
          4   -1    0    0  501    0  0.00000000000E+00  0.00000000000E+00  0.14411011766E+02  0.14466864211E+02  0.12700000000E+01 0. -1.
         -4   -1    0    0    0  501 -0.00000000000E+00 -0.00000000000E+00 -0.27048355457E+03  0.27048653606E+03  0.12700000000E+01 0. -1.
         25    2    1    2    0    0  0.00000000000E+00  0.00000000000E+00 -0.25607254280E+03  0.28495340028E+03  0.12500117260E+03 0.  0.
    9000005    1    3    3    0    0 -0.39123602099E+02 -0.64359337801E+01 -0.23814962846E+03  0.24142974759E+03  0.10000000000E+01 0.  0.
    9000005    1    3    3    0    0  0.39123602099E+02  0.64359337801E+01 -0.17922914344E+02  0.43523652689E+02  0.10000000000E+01 0.  0.
<mgrwt>
<rscale>  0 0.12500117E+03</rscale>
<asrwt>0</asrwt>
<pdfrwt beam="1">  1        4 0.36101081E-02 0.12500117E+03</pdfrwt>
<pdfrwt beam="2">  1       -4 0.67628227E-01 0.12500117E+03</pdfrwt>
<totfact> 0.13403137E+03</totfact>
</mgrwt>
</event>
<event>
 5    1  0.1433395E-002  0.1250001E+03  0.7818608E-02  0.1235069E+00
         -4   -1    0    0    0  501 -0.00000000000E+00  0.00000000000E+00  0.29272614031E+03  0.29272889526E+03  0.12700000000E+01 0. -1.
          4   -1    0    0  501    0  0.00000000000E+00 -0.00000000000E+00 -0.13311371107E+02  0.13371817406E+02  0.12700000000E+01 0. -1.
         25    2    1    2    0    0  0.00000000000E+00  0.00000000000E+00  0.27941476920E+03  0.30610071266E+03  0.12500013219E+03 0.  0.
    9000005    1    3    3    0    0  0.15523747262E+02 -0.60528302816E+02  0.14159802981E+03  0.15477617457E+03  0.10000000000E+01 0.  0.
    9000005    1    3    3    0    0 -0.15523747262E+02  0.60528302816E+02  0.13781673939E+03  0.15132453809E+03  0.10000000000E+01 0.  0.
<mgrwt>
<rscale>  0 0.12500013E+03</rscale>
<asrwt>0</asrwt>
<pdfrwt beam="2">  1        4 0.33357429E-02 0.12500013E+03</pdfrwt>
<pdfrwt beam="1">  1       -4 0.73189436E-01 0.12500013E+03</pdfrwt>
<totfact> 0.12801740E+03</totfact>
</mgrwt>
</event>
<event>
 5    1  0.1433395E-002  0.1249709E+03  0.7818608E-02  0.1235115E+00
         -4   -1    0    0    0  501 -0.00000000000E+00  0.00000000000E+00  0.35754361449E+01  0.37942909254E+01  0.12700000000E+01 0.  1.
          4   -1    0    0  501    0  0.00000000000E+00 -0.00000000000E+00 -0.10593677731E+04  0.10593685343E+04  0.12700000000E+01 0.  1.
         25    2    1    2    0    0  0.00000000000E+00  0.00000000000E+00 -0.10557923369E+04  0.10631628253E+04  0.12497093377E+03 0.  0.
    9000005    1    3    3    0    0 -0.33350182019E+02  0.49088563322E+02 -0.69406317716E+03  0.69659645103E+03  0.10000000000E+01 0.  0.
    9000005    1    3    3    0    0  0.33350182019E+02 -0.49088563322E+02 -0.36172915976E+03  0.36656637423E+03  0.10000000000E+01 0.  0.
<mgrwt>
<rscale>  0 0.12497093E+03</rscale>
<asrwt>0</asrwt>
<pdfrwt beam="2">  1        4 0.26486835E+00 0.12497093E+03</pdfrwt>
<pdfrwt beam="1">  1       -4 0.92131467E-03 0.12497093E+03</pdfrwt>
<totfact> 0.33045444E+02</totfact>
</mgrwt>
</event>
<event>
 5    1  0.1433395E-002  0.1249982E+03  0.7818608E-02  0.1235072E+00
         -4   -1    0    0    0  501 -0.00000000000E+00  0.00000000000E+00  0.14051586106E+02  0.14108861474E+02  0.12700000000E+01 0. -1.
          4   -1    0    0  501    0  0.00000000000E+00 -0.00000000000E+00 -0.27736156653E+03  0.27736447409E+03  0.12700000000E+01 0. -1.
         25    2    1    2    0    0  0.00000000000E+00  0.00000000000E+00 -0.26330998042E+03  0.29147333556E+03  0.12499823821E+03 0.  0.
    9000005    1    3    3    0    0 -0.34548458521E+01  0.43172555160E+02 -0.23669911061E+03  0.24063099228E+03  0.10000000000E+01 0.  0.
    9000005    1    3    3    0    0  0.34548458521E+01 -0.43172555160E+02 -0.26610869807E+02  0.50842343286E+02  0.10000000000E+01 0.  0.
<mgrwt>
<rscale>  0 0.12499824E+03</rscale>
<asrwt>0</asrwt>
<pdfrwt beam="2">  1        4 0.69347897E-01 0.12499824E+03</pdfrwt>
<pdfrwt beam="1">  1       -4 0.35204203E-02 0.12499824E+03</pdfrwt>
<totfact> 0.13213977E+03</totfact>
</mgrwt>
</event>
<event>
 5    1  0.1433395E-002  0.1250183E+03  0.7818608E-02  0.1235041E+00
          4   -1    0    0  501    0  0.00000000000E+00  0.00000000000E+00  0.17759934874E+03  0.17760388952E+03  0.12700000000E+01 0.  1.
         -4   -1    0    0    0  501 -0.00000000000E+00 -0.00000000000E+00 -0.21978018694E+02  0.22014681594E+02  0.12700000000E+01 0.  1.
         25    2    1    2    0    0  0.00000000000E+00  0.00000000000E+00  0.15562133005E+03  0.19961857111E+03  0.12501830093E+03 0.  0.
    9000005    1    3    3    0    0  0.16429052362E+02  0.43207648525E+02  0.10642674207E+02  0.47445560033E+02  0.10000000000E+01 0.  0.
    9000005    1    3    3    0    0 -0.16429052362E+02 -0.43207648525E+02  0.14497865584E+03  0.15217301108E+03  0.10000000000E+01 0.  0.
<mgrwt>
<rscale>  0 0.12501830E+03</rscale>
<asrwt>0</asrwt>
<pdfrwt beam="1">  1        4 0.44404988E-01 0.12501830E+03</pdfrwt>
<pdfrwt beam="2">  1       -4 0.54996551E-02 0.12501830E+03</pdfrwt>
<totfact> 0.16330413E+03</totfact>
</mgrwt>
</event>
<event>
 5    1  0.1433395E-002  0.1249973E+03  0.7818608E-02  0.1235073E+00
         -4   -1    0    0    0  501 -0.00000000000E+00  0.00000000000E+00  0.84322984377E+02  0.84332547656E+02  0.12700000000E+01 0.  1.
          4   -1    0    0  501    0  0.00000000000E+00 -0.00000000000E+00 -0.46301981248E+02  0.46319395155E+02  0.12700000000E+01 0.  1.
         25    2    1    2    0    0  0.00000000000E+00  0.00000000000E+00  0.38021003129E+02  0.13065194281E+03  0.12499733390E+03 0.  0.
    9000005    1    3    3    0    0 -0.50186937265E+02  0.36281811780E+02  0.10266361908E+02  0.62781340579E+02  0.10000000000E+01 0.  0.
    9000005    1    3    3    0    0  0.50186937265E+02 -0.36281811780E+02  0.27754641221E+02  0.67870602232E+02  0.10000000000E+01 0.  0.
<mgrwt>
<rscale>  0 0.12499733E+03</rscale>
<asrwt>0</asrwt>
<pdfrwt beam="2">  1        4 0.11578868E-01 0.12499733E+03</pdfrwt>
<pdfrwt beam="1">  1       -4 0.21084118E-01 0.12499733E+03</pdfrwt>
<totfact> 0.19530614E+03</totfact>
</mgrwt>
</event>
<event>
 5    1  0.1433395E-002  0.1249978E+03  0.7818608E-02  0.1235073E+00
          4   -1    0    0  501    0  0.00000000000E+00  0.00000000000E+00  0.21662863721E+02  0.21700059092E+02  0.12700000000E+01 0. -1.
         -4   -1    0    0    0  501 -0.00000000000E+00 -0.00000000000E+00 -0.18011970295E+03  0.18012418019E+03  0.12700000000E+01 0. -1.
         25    2    1    2    0    0  0.00000000000E+00  0.00000000000E+00 -0.15845683923E+03  0.20182423928E+03  0.12499781464E+03 0.  0.
    9000005    1    3    3    0    0  0.41615182595E+02  0.44506419957E+02 -0.56828275055E+02  0.83325252388E+02  0.10000000000E+01 0.  0.
    9000005    1    3    3    0    0 -0.41615182595E+02 -0.44506419957E+02 -0.10162856417E+03  0.11849898690E+03  0.10000000000E+01 0.  0.
<mgrwt>
<rscale>  0 0.12499781E+03</rscale>
<asrwt>0</asrwt>
<pdfrwt beam="1">  1        4 0.54209256E-02 0.12499781E+03</pdfrwt>
<pdfrwt beam="2">  1       -4 0.45035130E-01 0.12499781E+03</pdfrwt>
<totfact> 0.16250077E+03</totfact>
</mgrwt>
</event>
<event>
 5    1  0.1433395E-002  0.1250011E+03  0.7818608E-02  0.1235068E+00
          4   -1    0    0  501    0  0.00000000000E+00  0.00000000000E+00  0.13856283327E+03  0.13856865325E+03  0.12700000000E+01 0.  1.
         -4   -1    0    0    0  501 -0.00000000000E+00 -0.00000000000E+00 -0.28170974800E+02  0.28199587252E+02  0.12700000000E+01 0.  1.
         25    2    1    2    0    0  0.00000000000E+00  0.00000000000E+00  0.11039185847E+03  0.16676824051E+03  0.12500113449E+03 0.  0.
    9000005    1    3    3    0    0 -0.12131672913E+02 -0.15575426228E+02 -0.23907625796E+02  0.31021701454E+02  0.10000000000E+01 0.  0.
    9000005    1    3    3    0    0  0.12131672913E+02  0.15575426228E+02  0.13429948427E+03  0.13574653905E+03  0.10000000000E+01 0.  0.
<mgrwt>
<rscale>  0 0.12500113E+03</rscale>
<asrwt>0</asrwt>
<pdfrwt beam="1">  1        4 0.34645012E-01 0.12500113E+03</pdfrwt>
<pdfrwt beam="2">  1       -4 0.70470479E-02 0.12500113E+03</pdfrwt>
<totfact> 0.17743338E+03</totfact>
</mgrwt>
</event>
<event>
 5    1  0.1433395E-002  0.1249978E+03  0.7818608E-02  0.1235073E+00
         -4   -1    0    0    0  501 -0.00000000000E+00  0.00000000000E+00  0.69373043643E+02  0.69384667502E+02  0.12700000000E+01 0. -1.
          4   -1    0    0  501    0  0.00000000000E+00 -0.00000000000E+00 -0.56282432455E+02  0.56296759259E+02  0.12700000000E+01 0. -1.
         25    2    1    2    0    0  0.00000000000E+00  0.00000000000E+00  0.13090611189E+02  0.12568142676E+03  0.12499782771E+03 0.  0.
    9000005    1    3    3    0    0 -0.50669338954E+01 -0.59605116126E+02  0.24718180011E+02  0.64733547026E+02  0.10000000000E+01 0.  0.
    9000005    1    3    3    0    0  0.50669338954E+01  0.59605116126E+02 -0.11627568822E+02  0.60947879735E+02  0.10000000000E+01 0.  0.
<mgrwt>
<rscale>  0 0.12499783E+03</rscale>
<asrwt>0</asrwt>
<pdfrwt beam="2">  1        4 0.14073852E-01 0.12499783E+03</pdfrwt>
<pdfrwt beam="1">  1       -4 0.17346505E-01 0.12499783E+03</pdfrwt>
<totfact> 0.19799151E+03</totfact>
</mgrwt>
</event>
<event>
 4    1  0.1433395E-002  0.1249215E+03  0.7818608E-02  0.1235192E+00
          4   -1    0    0  501    0  0.00000000000E+00  0.00000000000E+00  0.73828219048E+03  0.73828328281E+03  0.12700000000E+01 0. -1.
         -4   -1    0    0    0  501 -0.00000000000E+00 -0.00000000000E+00 -0.52069360815E+01  0.53595786548E+01  0.12700000000E+01 0. -1.
    9000005    1    1    2    0    0 -0.39910302518E+02  0.42147431562E+02  0.50372617957E+03  0.50706045223E+03  0.10000000000E+01 0.  0.
    9000005    1    1    2    0    0  0.39910302518E+02 -0.42147431562E+02  0.22934907483E+03  0.23658240923E+03  0.10000000000E+01 0.  0.
<mgrwt>
<rscale>  0 0.12492148E+03</rscale>
<asrwt>0</asrwt>
<pdfrwt beam="1">  1        4 0.18458975E+00 0.12492148E+03</pdfrwt>
<pdfrwt beam="2">  1       -4 0.13209510E-02 0.12492148E+03</pdfrwt>
<totfact> 0.57783288E+02</totfact>
</mgrwt>
</event>
<event>
 5    1  0.1433395E-002  0.1250039E+03  0.7818608E-02  0.1235063E+00
          4   -1    0    0  501    0  0.00000000000E+00  0.00000000000E+00  0.36400914260E+02  0.36423062186E+02  0.12700000000E+01 0.  1.
         -4   -1    0    0    0  501 -0.00000000000E+00 -0.00000000000E+00 -0.10726004406E+03  0.10726756244E+03  0.12700000000E+01 0.  1.
         25    2    1    2    0    0  0.00000000000E+00  0.00000000000E+00 -0.70859129802E+02  0.14369062463E+03  0.12500391726E+03 0.  0.
    9000005    1    3    3    0    0 -0.83361216318E+01 -0.61322308474E+02 -0.45422743140E+02  0.76773315904E+02  0.10000000000E+01 0.  0.
    9000005    1    3    3    0    0  0.83361216318E+01  0.61322308474E+02 -0.25436386663E+02  0.66917308725E+02  0.10000000000E+01 0.  0.
<mgrwt>
<rscale>  0 0.12500392E+03</rscale>
<asrwt>0</asrwt>
<pdfrwt beam="1">  1        4 0.91039371E-02 0.12500392E+03</pdfrwt>
<pdfrwt beam="2">  1       -4 0.26818719E-01 0.12500392E+03</pdfrwt>
<totfact> 0.18851379E+03</totfact>
</mgrwt>
</event>
<event>
 5    1  0.1433395E-002  0.1249982E+03  0.7818608E-02  0.1235072E+00
         -4   -1    0    0    0  501 -0.00000000000E+00  0.00000000000E+00  0.12974656275E+03  0.12975277818E+03  0.12700000000E+01 0.  1.
          4   -1    0    0  501    0  0.00000000000E+00 -0.00000000000E+00 -0.30085574930E+02  0.30112368204E+02  0.12700000000E+01 0.  1.
         25    2    1    2    0    0  0.00000000000E+00  0.00000000000E+00  0.99660987825E+02  0.15986514639E+03  0.12499821013E+03 0.  0.
    9000005    1    3    3    0    0  0.32190038073E+02  0.22825995652E+02 -0.12140868259E+02  0.41299216829E+02  0.10000000000E+01 0.  0.
    9000005    1    3    3    0    0 -0.32190038073E+02 -0.22825995652E+02  0.11180185608E+03  0.11856592956E+03  0.10000000000E+01 0.  0.
<mgrwt>
<rscale>  0 0.12499821E+03</rscale>
<asrwt>0</asrwt>
<pdfrwt beam="2">  1        4 0.75255200E-02 0.12499821E+03</pdfrwt>
<pdfrwt beam="1">  1       -4 0.32440766E-01 0.12499821E+03</pdfrwt>
<totfact> 0.18064854E+03</totfact>
</mgrwt>
</event>
<event>
 4    1  0.1433395E-002  0.1249198E+03  0.7818608E-02  0.1235195E+00
         -4   -1    0    0    0  501 -0.00000000000E+00  0.00000000000E+00  0.62221374966E+02  0.62234334597E+02  0.12700000000E+01 0. -1.
          4   -1    0    0  501    0  0.00000000000E+00 -0.00000000000E+00 -0.62673393939E+02  0.62686260120E+02  0.12700000000E+01 0. -1.
    9000005    1    1    2    0    0  0.48309339045E+02 -0.31675021128E+02 -0.23956703466E+02  0.62546165697E+02  0.10000000000E+01 0.  0.
    9000005    1    1    2    0    0 -0.48309339045E+02  0.31675021128E+02  0.23504684493E+02  0.62374429020E+02  0.10000000000E+01 0.  0.
<mgrwt>
<rscale>  0 0.12491978E+03</rscale>
<asrwt>0</asrwt>
<pdfrwt beam="2">  1        4 0.15671577E-01 0.12491978E+03</pdfrwt>
<pdfrwt beam="1">  1       -4 0.15558572E-01 0.12491978E+03</pdfrwt>
<totfact> 0.19876649E+03</totfact>
</mgrwt>
</event>
<event>
 5    1  0.1433395E-002  0.1249880E+03  0.7818608E-02  0.1235088E+00
         -4   -1    0    0    0  501 -0.00000000000E+00  0.00000000000E+00  0.48332765489E+02  0.48349447978E+02  0.12700000000E+01 0. -1.
          4   -1    0    0  501    0  0.00000000000E+00 -0.00000000000E+00 -0.80768833721E+02  0.80778817772E+02  0.12700000000E+01 0. -1.
         25    2    1    2    0    0  0.00000000000E+00  0.00000000000E+00 -0.32436068233E+02  0.12912826575E+03  0.12498804140E+03 0.  0.
    9000005    1    3    3    0    0  0.44205596474E+01 -0.53151138363E+02  0.17416773012E+02  0.56115317330E+02  0.10000000000E+01 0.  0.
    9000005    1    3    3    0    0 -0.44205596474E+01  0.53151138363E+02 -0.49852841244E+02  0.73012948420E+02  0.10000000000E+01 0.  0.
<mgrwt>
<rscale>  0 0.12498804E+03</rscale>
<asrwt>0</asrwt>
<pdfrwt beam="2">  1        4 0.20195542E-01 0.12498804E+03</pdfrwt>
<pdfrwt beam="1">  1       -4 0.12086525E-01 0.12498804E+03</pdfrwt>
<totfact> 0.19616838E+03</totfact>
</mgrwt>
</event>
<event>
 5    1  0.1433395E-002  0.1249976E+03  0.7818608E-02  0.1235073E+00
          4   -1    0    0  501    0  0.00000000000E+00  0.00000000000E+00  0.12442913064E+03  0.12443561167E+03  0.12700000000E+01 0.  1.
         -4   -1    0    0    0  501 -0.00000000000E+00 -0.00000000000E+00 -0.31372043778E+02  0.31397739262E+02  0.12700000000E+01 0.  1.
         25    2    1    2    0    0  0.00000000000E+00  0.00000000000E+00  0.93057086865E+02  0.15583335094E+03  0.12499764737E+03 0.  0.
    9000005    1    3    3    0    0 -0.24339907357E+02  0.55438045026E+02  0.27243287137E+02  0.66400335997E+02  0.10000000000E+01 0.  0.
    9000005    1    3    3    0    0  0.24339907357E+02 -0.55438045026E+02  0.65813799728E+02  0.89433014939E+02  0.10000000000E+01 0.  0.
<mgrwt>
<rscale>  0 0.12499765E+03</rscale>
<asrwt>0</asrwt>
<pdfrwt beam="1">  1        4 0.31111304E-01 0.12499765E+03</pdfrwt>
<pdfrwt beam="2">  1       -4 0.78470331E-02 0.12499765E+03</pdfrwt>
<totfact> 0.18256623E+03</totfact>
</mgrwt>
</event>
<event>
 5    1  0.1433395E-002  0.1250050E+03  0.7818608E-02  0.1235061E+00
         -4   -1    0    0    0  501 -0.00000000000E+00  0.00000000000E+00  0.27468078805E+02  0.27497422665E+02  0.12700000000E+01 0.  1.
          4   -1    0    0  501    0  0.00000000000E+00 -0.00000000000E+00 -0.14211383292E+03  0.14211950749E+03  0.12700000000E+01 0.  1.
         25    2    1    2    0    0  0.00000000000E+00  0.00000000000E+00 -0.11464575412E+03  0.16961693015E+03  0.12500501613E+03 0.  0.
    9000005    1    3    3    0    0  0.35281032378E+02  0.16008960886E+02 -0.12385883998E+03  0.12978077791E+03  0.10000000000E+01 0.  0.
    9000005    1    3    3    0    0 -0.35281032378E+02 -0.16008960886E+02  0.92130858593E+01  0.39836152241E+02  0.10000000000E+01 0.  0.
<mgrwt>
<rscale>  0 0.12500502E+03</rscale>
<asrwt>0</asrwt>
<pdfrwt beam="2">  1        4 0.35532834E-01 0.12500502E+03</pdfrwt>
<pdfrwt beam="1">  1       -4 0.68713974E-02 0.12500502E+03</pdfrwt>
<totfact> 0.17612288E+03</totfact>
</mgrwt>
</event>
<event>
 5    1  0.1433395E-002  0.1250026E+03  0.7818608E-02  0.1235065E+00
         -4   -1    0    0    0  501 -0.00000000000E+00  0.00000000000E+00  0.78783183508E+02  0.78793419164E+02  0.12700000000E+01 0.  1.
          4   -1    0    0  501    0  0.00000000000E+00 -0.00000000000E+00 -0.49562714765E+02  0.49578983399E+02  0.12700000000E+01 0.  1.
         25    2    1    2    0    0  0.00000000000E+00  0.00000000000E+00  0.29220468743E+02  0.12837240256E+03  0.12500255176E+03 0.  0.
    9000005    1    3    3    0    0 -0.99670395969E+00  0.12456836764E+02 -0.48271513064E+02  0.49872890175E+02  0.10000000000E+01 0.  0.
    9000005    1    3    3    0    0  0.99670395969E+00 -0.12456836764E+02  0.77491981806E+02  0.78499512388E+02  0.10000000000E+01 0.  0.
<mgrwt>
<rscale>  0 0.12500255E+03</rscale>
<asrwt>0</asrwt>
<pdfrwt beam="2">  1        4 0.12393992E-01 0.12500255E+03</pdfrwt>
<pdfrwt beam="1">  1       -4 0.19699109E-01 0.12500255E+03</pdfrwt>
<totfact> 0.19651125E+03</totfact>
</mgrwt>
</event>
<event>
 5    1  0.1433395E-002  0.1249977E+03  0.7818608E-02  0.1235073E+00
         -4   -1    0    0    0  501 -0.00000000000E+00  0.00000000000E+00  0.23692814125E+03  0.23693154500E+03  0.12700000000E+01 0.  1.
          4   -1    0    0  501    0  0.00000000000E+00 -0.00000000000E+00 -0.16458469541E+02  0.16507395907E+02  0.12700000000E+01 0.  1.
         25    2    1    2    0    0  0.00000000000E+00  0.00000000000E+00  0.22046967171E+03  0.25343894091E+03  0.12499768248E+03 0.  0.
    9000005    1    3    3    0    0 -0.16265732061E+02  0.19278771743E+02  0.22615781923E+03  0.22756230856E+03  0.10000000000E+01 0.  0.
    9000005    1    3    3    0    0  0.16265732061E+02 -0.19278771743E+02 -0.56881475191E+01  0.25876632347E+02  0.10000000000E+01 0.  0.
<mgrwt>
<rscale>  0 0.12499768E+03</rscale>
<asrwt>0</asrwt>
<pdfrwt beam="2">  1        4 0.41211588E-02 0.12499768E+03</pdfrwt>
<pdfrwt beam="1">  1       -4 0.59238575E-01 0.12499768E+03</pdfrwt>
<totfact> 0.14385051E+03</totfact>
</mgrwt>
</event>
<event>
 5    1  0.1433395E-002  0.1249998E+03  0.7818608E-02  0.1235070E+00
         -4   -1    0    0    0  501 -0.00000000000E+00  0.00000000000E+00  0.14525741613E+03  0.14526296789E+03  0.12700000000E+01 0.  1.
          4   -1    0    0  501    0  0.00000000000E+00 -0.00000000000E+00 -0.26870774368E+02  0.26900769787E+02  0.12700000000E+01 0.  1.
         25    2    1    2    0    0  0.00000000000E+00  0.00000000000E+00  0.11838664176E+03  0.17216373768E+03  0.12499982250E+03 0.  0.
    9000005    1    3    3    0    0 -0.56122316821E+02  0.20319664132E+02  0.33698697640E+02  0.68550750678E+02  0.10000000000E+01 0.  0.
    9000005    1    3    3    0    0  0.56122316821E+02 -0.20319664132E+02  0.84687944125E+02  0.10361298700E+03  0.10000000000E+01 0.  0.
<mgrwt>
<rscale>  0 0.12499982E+03</rscale>
<asrwt>0</asrwt>
<pdfrwt beam="2">  1        4 0.67221371E-02 0.12499982E+03</pdfrwt>
<pdfrwt beam="1">  1       -4 0.36318797E-01 0.12499982E+03</pdfrwt>
<totfact> 0.17499965E+03</totfact>
</mgrwt>
</event>
<event>
 5    1  0.1433395E-002  0.1250057E+03  0.7818608E-02  0.1235060E+00
         -4   -1    0    0    0  501 -0.00000000000E+00  0.00000000000E+00  0.13058710503E+03  0.13059328045E+03  0.12700000000E+01 0. -1.
          4   -1    0    0  501    0  0.00000000000E+00 -0.00000000000E+00 -0.29895334141E+02  0.29922297762E+02  0.12700000000E+01 0. -1.
         25    2    1    2    0    0  0.00000000000E+00  0.00000000000E+00  0.10069177089E+03  0.16051557821E+03  0.12500567237E+03 0.  0.
    9000005    1    3    3    0    0  0.11876407343E+02 -0.61214136695E+02  0.55699833733E+02  0.83616332499E+02  0.10000000000E+01 0.  0.
    9000005    1    3    3    0    0 -0.11876407343E+02  0.61214136695E+02  0.44991937152E+02  0.76899245714E+02  0.10000000000E+01 0.  0.
<mgrwt>
<rscale>  0 0.12500567E+03</rscale>
<asrwt>0</asrwt>
<pdfrwt beam="2">  1        4 0.74779761E-02 0.12500567E+03</pdfrwt>
<pdfrwt beam="1">  1       -4 0.32650918E-01 0.12500567E+03</pdfrwt>
<totfact> 0.18031140E+03</totfact>
</mgrwt>
</event>
<event>
 5    1  0.1433395E-002  0.1250011E+03  0.7818608E-02  0.1235068E+00
          4   -1    0    0  501    0  0.00000000000E+00  0.00000000000E+00  0.25248721643E+03  0.25249041043E+03  0.12700000000E+01 0. -1.
         -4   -1    0    0    0  501 -0.00000000000E+00 -0.00000000000E+00 -0.15441983946E+02  0.15494120439E+02  0.12700000000E+01 0. -1.
         25    2    1    2    0    0  0.00000000000E+00  0.00000000000E+00  0.23704523248E+03  0.26798453087E+03  0.12500106617E+03 0.  0.
    9000005    1    3    3    0    0 -0.26551362937E+02  0.61347044767E+01 -0.20435633126E+01  0.27345669197E+02  0.10000000000E+01 0.  0.
    9000005    1    3    3    0    0  0.26551362937E+02 -0.61347044767E+01  0.23908879580E+03  0.24063886168E+03  0.10000000000E+01 0.  0.
<mgrwt>
<rscale>  0 0.12500107E+03</rscale>
<asrwt>0</asrwt>
<pdfrwt beam="1">  1        4 0.63128720E-01 0.12500107E+03</pdfrwt>
<pdfrwt beam="2">  1       -4 0.38674123E-02 0.12500107E+03</pdfrwt>
<totfact> 0.13917958E+03</totfact>
</mgrwt>
</event>
<event>
 5    1  0.1433395E-002  0.1249935E+03  0.7818608E-02  0.1235079E+00
         -4   -1    0    0    0  501 -0.00000000000E+00  0.00000000000E+00  0.17358127068E+03  0.17358591657E+03  0.12700000000E+01 0. -1.
          4   -1    0    0  501    0  0.00000000000E+00 -0.00000000000E+00 -0.22478655633E+02  0.22514503305E+02  0.12700000000E+01 0. -1.
         25    2    1    2    0    0  0.00000000000E+00  0.00000000000E+00  0.15110261505E+03  0.19610041987E+03  0.12499349743E+03 0.  0.
    9000005    1    3    3    0    0 -0.13827255432E+02  0.60532037995E+02  0.86591953999E+02  0.10655743575E+03  0.10000000000E+01 0.  0.
    9000005    1    3    3    0    0  0.13827255432E+02 -0.60532037995E+02  0.64510661050E+02  0.89542984123E+02  0.10000000000E+01 0.  0.
<mgrwt>
<rscale>  0 0.12499350E+03</rscale>
<asrwt>0</asrwt>
<pdfrwt beam="2">  1        4 0.56247257E-02 0.12499350E+03</pdfrwt>
<pdfrwt beam="1">  1       -4 0.43400379E-01 0.12499350E+03</pdfrwt>
<totfact> 0.16481865E+03</totfact>
</mgrwt>
</event>
<event>
 5    1  0.1433395E-002  0.1250013E+03  0.7818608E-02  0.1235067E+00
          4   -1    0    0  501    0  0.00000000000E+00  0.00000000000E+00  0.54041428274E+02  0.54056349025E+02  0.12700000000E+01 0.  1.
         -4   -1    0    0    0  501 -0.00000000000E+00 -0.00000000000E+00 -0.72253551248E+02  0.72264711776E+02  0.12700000000E+01 0.  1.
         25    2    1    2    0    0  0.00000000000E+00  0.00000000000E+00 -0.18212122974E+02  0.12632106080E+03  0.12500131591E+03 0.  0.
    9000005    1    3    3    0    0 -0.29371206044E+02  0.49384564705E+02 -0.33938436567E+02  0.66740695622E+02  0.10000000000E+01 0.  0.
    9000005    1    3    3    0    0  0.29371206044E+02 -0.49384564705E+02  0.15726313593E+02  0.59580365178E+02  0.10000000000E+01 0.  0.
<mgrwt>
<rscale>  0 0.12500132E+03</rscale>
<asrwt>0</asrwt>
<pdfrwt beam="1">  1        4 0.13513617E-01 0.12500132E+03</pdfrwt>
<pdfrwt beam="2">  1       -4 0.18066648E-01 0.12500132E+03</pdfrwt>
<totfact> 0.19762972E+03</totfact>
</mgrwt>
</event>
<event>
 5    1  0.1433395E-002  0.1250008E+03  0.7818608E-02  0.1235068E+00
          4   -1    0    0  501    0  0.00000000000E+00  0.00000000000E+00  0.59575779312E+02  0.59589314316E+02  0.12700000000E+01 0. -1.
         -4   -1    0    0    0  501 -0.00000000000E+00 -0.00000000000E+00 -0.65541494857E+02  0.65553798121E+02  0.12700000000E+01 0. -1.
         25    2    1    2    0    0  0.00000000000E+00  0.00000000000E+00 -0.59657155443E+01  0.12514311244E+03  0.12500083531E+03 0.  0.
    9000005    1    3    3    0    0 -0.17462488132E+02  0.33666914393E+02  0.46741597881E+02  0.60201134449E+02  0.10000000000E+01 0.  0.
    9000005    1    3    3    0    0  0.17462488132E+02 -0.33666914393E+02 -0.52707313425E+02  0.64941977988E+02  0.10000000000E+01 0.  0.
<mgrwt>
<rscale>  0 0.12500084E+03</rscale>
<asrwt>0</asrwt>
<pdfrwt beam="1">  1        4 0.14897175E-01 0.12500084E+03</pdfrwt>
<pdfrwt beam="2">  1       -4 0.16388603E-01 0.12500084E+03</pdfrwt>
<totfact> 0.19826909E+03</totfact>
</mgrwt>
</event>
<event>
 5    1  0.1433395E-002  0.1250007E+03  0.7818608E-02  0.1235068E+00
          4   -1    0    0  501    0  0.00000000000E+00  0.00000000000E+00  0.31637843364E+03  0.31638098263E+03  0.12700000000E+01 0. -1.
         -4   -1    0    0    0  501 -0.00000000000E+00 -0.00000000000E+00 -0.12311646948E+02  0.12376976633E+02  0.12700000000E+01 0. -1.
         25    2    1    2    0    0  0.00000000000E+00  0.00000000000E+00  0.30406678669E+03  0.32875795927E+03  0.12500074005E+03 0.  0.
    9000005    1    3    3    0    0 -0.53895862045E+02  0.25160256905E+02  0.10161503646E+03  0.11774726369E+03  0.10000000000E+01 0.  0.
    9000005    1    3    3    0    0  0.53895862045E+02 -0.25160256905E+02  0.20245175023E+03  0.21101069557E+03  0.10000000000E+01 0.  0.
<mgrwt>
<rscale>  0 0.12500074E+03</rscale>
<asrwt>0</asrwt>
<pdfrwt beam="1">  1        4 0.79103094E-01 0.12500074E+03</pdfrwt>
<pdfrwt beam="2">  1       -4 0.30863965E-02 0.12500074E+03</pdfrwt>
<totfact> 0.12201482E+03</totfact>
</mgrwt>
</event>
<event>
 5    1  0.1433395E-002  0.1250004E+03  0.7818608E-02  0.1235069E+00
         -4   -1    0    0    0  501 -0.00000000000E+00  0.00000000000E+00  0.43633553412E+02  0.43652031835E+02  0.12700000000E+01 0. -1.
          4   -1    0    0  501    0  0.00000000000E+00 -0.00000000000E+00 -0.89482565446E+02  0.89491577362E+02  0.12700000000E+01 0. -1.
         25    2    1    2    0    0  0.00000000000E+00  0.00000000000E+00 -0.45849012034E+02  0.13314360920E+03  0.12500035506E+03 0.  0.
    9000005    1    3    3    0    0  0.61076352632E+01 -0.39573510989E+02 -0.74028270288E+02  0.84169773567E+02  0.10000000000E+01 0.  0.
    9000005    1    3    3    0    0 -0.61076352632E+01  0.39573510989E+02  0.28179258254E+02  0.48973835630E+02  0.10000000000E+01 0.  0.
<mgrwt>
<rscale>  0 0.12500036E+03</rscale>
<asrwt>0</asrwt>
<pdfrwt beam="2">  1        4 0.22374077E-01 0.12500036E+03</pdfrwt>
<pdfrwt beam="1">  1       -4 0.10911825E-01 0.12500036E+03</pdfrwt>
<totfact> 0.19396659E+03</totfact>
</mgrwt>
</event>
<event>
 5    1  0.1433395E-002  0.1250012E+03  0.7818608E-02  0.1235067E+00
         -4   -1    0    0    0  501 -0.00000000000E+00  0.00000000000E+00  0.18097747808E+03  0.18098193411E+03  0.12700000000E+01 0. -1.
          4   -1    0    0  501    0  0.00000000000E+00 -0.00000000000E+00 -0.21561187845E+02  0.21598558315E+02  0.12700000000E+01 0. -1.
         25    2    1    2    0    0  0.00000000000E+00  0.00000000000E+00  0.15941629024E+03  0.20258049242E+03  0.12500120926E+03 0.  0.
    9000005    1    3    3    0    0  0.51994348963E+02 -0.34190548934E+02  0.89006600408E+02  0.10860746234E+03  0.10000000000E+01 0.  0.
    9000005    1    3    3    0    0 -0.51994348963E+02  0.34190548934E+02  0.70409689830E+02  0.93973030080E+02  0.10000000000E+01 0.  0.
<mgrwt>
<rscale>  0 0.12500121E+03</rscale>
<asrwt>0</asrwt>
<pdfrwt beam="2">  1        4 0.53955253E-02 0.12500121E+03</pdfrwt>
<pdfrwt beam="1">  1       -4 0.45249598E-01 0.12500121E+03</pdfrwt>
<totfact> 0.16218780E+03</totfact>
</mgrwt>
</event>
<event>
 5    1  0.1433395E-002  0.1249948E+03  0.7818608E-02  0.1235077E+00
          4   -1    0    0  501    0  0.00000000000E+00  0.00000000000E+00  0.26200692645E+03  0.26201000440E+03  0.12700000000E+01 0. -1.
         -4   -1    0    0    0  501 -0.00000000000E+00 -0.00000000000E+00 -0.14877492900E+02  0.14931600550E+02  0.12700000000E+01 0. -1.
         25    2    1    2    0    0  0.00000000000E+00  0.00000000000E+00  0.24712943355E+03  0.27694160495E+03  0.12499478240E+03 0.  0.
    9000005    1    3    3    0    0 -0.27738198483E+02  0.35558228346E+02  0.27724421286E+02  0.52947509798E+02  0.10000000000E+01 0.  0.
    9000005    1    3    3    0    0  0.27738198483E+02 -0.35558228346E+02  0.21940501226E+03  0.22399409515E+03  0.10000000000E+01 0.  0.
<mgrwt>
<rscale>  0 0.12499478E+03</rscale>
<asrwt>0</asrwt>
<pdfrwt beam="1">  1        4 0.65508878E-01 0.12499478E+03</pdfrwt>
<pdfrwt beam="2">  1       -4 0.37265215E-02 0.12499478E+03</pdfrwt>
<totfact> 0.13644475E+03</totfact>
</mgrwt>
</event>
<event>
 5    1  0.1433395E-002  0.1250032E+03  0.7818608E-02  0.1235064E+00
          4   -1    0    0  501    0  0.00000000000E+00  0.00000000000E+00  0.18783150739E+03  0.18783580082E+03  0.12700000000E+01 0.  1.
         -4   -1    0    0    0  501 -0.00000000000E+00 -0.00000000000E+00 -0.20773689128E+02  0.20812473663E+02  0.12700000000E+01 0.  1.
         25    2    1    2    0    0  0.00000000000E+00  0.00000000000E+00  0.16705781827E+03  0.20864827448E+03  0.12500315116E+03 0.  0.
    9000005    1    3    3    0    0 -0.36542854204E+01 -0.20077989481E+01  0.18760726454E+03  0.18765625694E+03  0.10000000000E+01 0.  0.
    9000005    1    3    3    0    0  0.36542854204E+01  0.20077989481E+01 -0.20549446275E+02  0.20992017548E+02  0.10000000000E+01 0.  0.
<mgrwt>
<rscale>  0 0.12500315E+03</rscale>
<asrwt>0</asrwt>
<pdfrwt beam="1">  1        4 0.46963261E-01 0.12500315E+03</pdfrwt>
<pdfrwt beam="2">  1       -4 0.51988071E-02 0.12500315E+03</pdfrwt>
<totfact> 0.15980347E+03</totfact>
</mgrwt>
</event>
<event>
 5    1  0.1433395E-002  0.1250010E+03  0.7818608E-02  0.1235068E+00
         -4   -1    0    0    0  501 -0.00000000000E+00  0.00000000000E+00  0.41956388571E+02  0.41975605319E+02  0.12700000000E+01 0.  1.
          4   -1    0    0  501    0  0.00000000000E+00 -0.00000000000E+00 -0.93059218873E+02  0.93067884456E+02  0.12700000000E+01 0.  1.
         25    2    1    2    0    0  0.00000000000E+00  0.00000000000E+00 -0.51102830301E+02  0.13504348978E+03  0.12500097946E+03 0.  0.
    9000005    1    3    3    0    0  0.40576875631E+02  0.37180707564E+02  0.64314384495E+01  0.55418870897E+02  0.10000000000E+01 0.  0.
    9000005    1    3    3    0    0 -0.40576875631E+02 -0.37180707564E+02 -0.57534268751E+02  0.79624618879E+02  0.10000000000E+01 0.  0.
<mgrwt>
<rscale>  0 0.12500098E+03</rscale>
<asrwt>0</asrwt>
<pdfrwt beam="2">  1        4 0.23268290E-01 0.12500098E+03</pdfrwt>
<pdfrwt beam="1">  1       -4 0.10492583E-01 0.12500098E+03</pdfrwt>
<totfact> 0.19296418E+03</totfact>
</mgrwt>
</event>
<event>
 5    1  0.1433395E-002  0.1250007E+03  0.7818608E-02  0.1235068E+00
         -4   -1    0    0    0  501 -0.00000000000E+00  0.00000000000E+00  0.13574715715E+02  0.13633994526E+02  0.12700000000E+01 0.  1.
          4   -1    0    0  501    0  0.00000000000E+00 -0.00000000000E+00 -0.28707481863E+03  0.28707762782E+03  0.12700000000E+01 0.  1.
         25    2    1    2    0    0  0.00000000000E+00  0.00000000000E+00 -0.27350010292E+03  0.30071162234E+03  0.12500069406E+03 0.  0.
    9000005    1    3    3    0    0  0.52951949220E+02  0.11961890707E+02 -0.21122119022E+03  0.21808802570E+03  0.10000000000E+01 0.  0.
    9000005    1    3    3    0    0 -0.52951949220E+02 -0.11961890707E+02 -0.62278912699E+02  0.82623596644E+02  0.10000000000E+01 0.  0.
<mgrwt>
<rscale>  0 0.12500069E+03</rscale>
<asrwt>0</asrwt>
<pdfrwt beam="2">  1        4 0.71776446E-01 0.12500069E+03</pdfrwt>
<pdfrwt beam="1">  1       -4 0.34014409E-02 0.12500069E+03</pdfrwt>
<totfact> 0.12950931E+03</totfact>
</mgrwt>
</event>
<event>
 5    1  0.1433395E-002  0.1249991E+03  0.7818608E-02  0.1235071E+00
         -4   -1    0    0    0  501 -0.00000000000E+00  0.00000000000E+00  0.18229722888E+03  0.18230165265E+03  0.12700000000E+01 0. -1.
          4   -1    0    0  501    0  0.00000000000E+00 -0.00000000000E+00 -0.21404100241E+02  0.21441744498E+02  0.12700000000E+01 0. -1.
         25    2    1    2    0    0  0.00000000000E+00  0.00000000000E+00  0.16089312864E+03  0.20374339714E+03  0.12499909214E+03 0.  0.
    9000005    1    3    3    0    0 -0.26776152606E+02  0.17177097398E+02 -0.72261150140E+01  0.32637888436E+02  0.10000000000E+01 0.  0.
    9000005    1    3    3    0    0  0.26776152606E+02 -0.17177097398E+02  0.16811924365E+03  0.17110550871E+03  0.10000000000E+01 0.  0.
<mgrwt>
<rscale>  0 0.12499909E+03</rscale>
<asrwt>0</asrwt>
<pdfrwt beam="2">  1        4 0.53562836E-02 0.12499909E+03</pdfrwt>
<pdfrwt beam="1">  1       -4 0.45579565E-01 0.12499909E+03</pdfrwt>
<totfact> 0.16173579E+03</totfact>
</mgrwt>
</event>
<event>
 5    1  0.1433395E-002  0.1250033E+03  0.7818608E-02  0.1235064E+00
         -4   -1    0    0    0  501 -0.00000000000E+00  0.00000000000E+00  0.30147135082E+02  0.30173873694E+02  0.12700000000E+01 0.  1.
          4   -1    0    0  501    0  0.00000000000E+00 -0.00000000000E+00 -0.12949236420E+03  0.12949859183E+03  0.12700000000E+01 0.  1.
         25    2    1    2    0    0  0.00000000000E+00  0.00000000000E+00 -0.99345229113E+02  0.15967246552E+03  0.12500328675E+03 0.  0.
    9000005    1    3    3    0    0 -0.12174312030E+01 -0.42784229173E+02 -0.10783722727E+03  0.11602516964E+03  0.10000000000E+01 0.  0.
    9000005    1    3    3    0    0  0.12174312030E+01  0.42784229173E+02  0.84919981601E+01  0.43647295877E+02  0.10000000000E+01 0.  0.
<mgrwt>
<rscale>  0 0.12500329E+03</rscale>
<asrwt>0</asrwt>
<pdfrwt beam="2">  1        4 0.32377210E-01 0.12500329E+03</pdfrwt>
<pdfrwt beam="1">  1       -4 0.75409049E-02 0.12500329E+03</pdfrwt>
<totfact> 0.18071799E+03</totfact>
</mgrwt>
</event>
<event>
 5    1  0.1433395E-002  0.1249958E+03  0.7818608E-02  0.1235076E+00
          4   -1    0    0  501    0  0.00000000000E+00  0.00000000000E+00  0.27844605516E+03  0.27844895139E+03  0.12700000000E+01 0.  1.
         -4   -1    0    0    0  501 -0.00000000000E+00 -0.00000000000E+00 -0.13996083462E+02  0.14053585033E+02  0.12700000000E+01 0.  1.
         25    2    1    2    0    0  0.00000000000E+00  0.00000000000E+00  0.26444997169E+03  0.29250253643E+03  0.12499578508E+03 0.  0.
    9000005    1    3    3    0    0 -0.48679701583E+02  0.35202324184E+02  0.91959664039E+02  0.10984760709E+03  0.10000000000E+01 0.  0.
    9000005    1    3    3    0    0  0.48679701583E+02 -0.35202324184E+02  0.17249030765E+03  0.18265492933E+03  0.10000000000E+01 0.  0.
<mgrwt>
<rscale>  0 0.12499579E+03</rscale>
<asrwt>0</asrwt>
<pdfrwt beam="1">  1        4 0.69619064E-01 0.12499579E+03</pdfrwt>
<pdfrwt beam="2">  1       -4 0.35065706E-02 0.12499579E+03</pdfrwt>
<totfact> 0.13185092E+03</totfact>
</mgrwt>
</event>
<event>
 5    1  0.1433395E-002  0.1249972E+03  0.7818608E-02  0.1235074E+00
          4   -1    0    0  501    0  0.00000000000E+00  0.00000000000E+00  0.18887898984E+03  0.18888325945E+03  0.12700000000E+01 0.  1.
         -4   -1    0    0    0  501 -0.00000000000E+00 -0.00000000000E+00 -0.20656288540E+02  0.20695293094E+02  0.12700000000E+01 0.  1.
         25    2    1    2    0    0  0.00000000000E+00  0.00000000000E+00  0.16822270130E+03  0.20957855255E+03  0.12499716979E+03 0.  0.
    9000005    1    3    3    0    0  0.78407888559E+01 -0.46587445035E+02  0.15269510384E+03  0.15983949056E+03  0.10000000000E+01 0.  0.
    9000005    1    3    3    0    0 -0.78407888559E+01  0.46587445035E+02  0.15527597454E+02  0.49739061988E+02  0.10000000000E+01 0.  0.
<mgrwt>
<rscale>  0 0.12499717E+03</rscale>
<asrwt>0</asrwt>
<pdfrwt beam="1">  1        4 0.47225158E-01 0.12499717E+03</pdfrwt>
<pdfrwt beam="2">  1       -4 0.51694813E-02 0.12499717E+03</pdfrwt>
<totfact> 0.15946596E+03</totfact>
</mgrwt>
</event>
<event>
 5    1  0.1433395E-002  0.1249995E+03  0.7818608E-02  0.1235070E+00
         -4   -1    0    0    0  501 -0.00000000000E+00  0.00000000000E+00  0.51276408664E+02  0.51292133759E+02  0.12700000000E+01 0. -1.
          4   -1    0    0  501    0  0.00000000000E+00 -0.00000000000E+00 -0.76146972061E+02  0.76157562028E+02  0.12700000000E+01 0. -1.
         25    2    1    2    0    0  0.00000000000E+00  0.00000000000E+00 -0.24870563396E+02  0.12744969579E+03  0.12499952013E+03 0.  0.
    9000005    1    3    3    0    0  0.23461910292E+01  0.60995829087E+02 -0.26085161235E+02  0.66388488573E+02  0.10000000000E+01 0.  0.
    9000005    1    3    3    0    0 -0.23461910292E+01 -0.60995829087E+02  0.12145978391E+01  0.61061207213E+02  0.10000000000E+01 0.  0.
<mgrwt>
<rscale>  0 0.12499952E+03</rscale>
<asrwt>0</asrwt>
<pdfrwt beam="2">  1        4 0.19040032E-01 0.12499952E+03</pdfrwt>
<pdfrwt beam="1">  1       -4 0.12822392E-01 0.12499952E+03</pdfrwt>
<totfact> 0.19702752E+03</totfact>
</mgrwt>
</event>
<event>
 5    1  0.1433395E-002  0.1249981E+03  0.7818608E-02  0.1235072E+00
          4   -1    0    0  501    0  0.00000000000E+00  0.00000000000E+00  0.20465431456E+03  0.20465825507E+03  0.12700000000E+01 0.  1.
         -4   -1    0    0    0  501 -0.00000000000E+00 -0.00000000000E+00 -0.19061239626E+02  0.19103501147E+02  0.12700000000E+01 0.  1.
         25    2    1    2    0    0  0.00000000000E+00  0.00000000000E+00  0.18559307494E+03  0.22376175622E+03  0.12499813631E+03 0.  0.
    9000005    1    3    3    0    0  0.26060182655E+01  0.12339186881E+02  0.20236138378E+03  0.20275644628E+03  0.10000000000E+01 0.  0.
    9000005    1    3    3    0    0 -0.26060182655E+01 -0.12339186881E+02 -0.16768308843E+02  0.21005309936E+02  0.10000000000E+01 0.  0.
<mgrwt>
<rscale>  0 0.12499814E+03</rscale>
<asrwt>0</asrwt>
<pdfrwt beam="1">  1        4 0.51169354E-01 0.12499814E+03</pdfrwt>
<pdfrwt beam="2">  1       -4 0.47710852E-02 0.12499814E+03</pdfrwt>
<totfact> 0.15413472E+03</totfact>
</mgrwt>
</event>
<event>
 5    1  0.1433395E-002  0.1249999E+03  0.7818608E-02  0.1235069E+00
          4   -1    0    0  501    0  0.00000000000E+00  0.00000000000E+00  0.45647798898E+01  0.47381552784E+01  0.12700000000E+01 0. -1.
         -4   -1    0    0    0  501 -0.00000000000E+00 -0.00000000000E+00 -0.83961357028E+03  0.83961453078E+03  0.12700000000E+01 0. -1.
         25    2    1    2    0    0  0.00000000000E+00  0.00000000000E+00 -0.83504879039E+03  0.84435268606E+03  0.12499990449E+03 0.  0.
    9000005    1    3    3    0    0 -0.32309665206E+02 -0.52126300350E+02 -0.49863250385E+03  0.50239072399E+03  0.10000000000E+01 0.  0.
    9000005    1    3    3    0    0  0.32309665206E+02  0.52126300350E+02 -0.33641628654E+03  0.34196196207E+03  0.10000000000E+01 0.  0.
<mgrwt>
<rscale>  0 0.12499990E+03</rscale>
<asrwt>0</asrwt>
<pdfrwt beam="1">  1        4 0.11629898E-02 0.12499990E+03</pdfrwt>
<pdfrwt beam="2">  1       -4 0.20992467E+00 0.12499990E+03</pdfrwt>
<totfact> 0.48695958E+02</totfact>
</mgrwt>
</event>
<event>
 5    1  0.1433395E-002  0.1249960E+03  0.7818608E-02  0.1235076E+00
         -4   -1    0    0    0  501 -0.00000000000E+00  0.00000000000E+00  0.60849837425E+03  0.60849969956E+03  0.12700000000E+01 0. -1.
          4   -1    0    0  501    0  0.00000000000E+00 -0.00000000000E+00 -0.63549160035E+01  0.64805753920E+01  0.12700000000E+01 0. -1.
         25    2    1    2    0    0  0.00000000000E+00  0.00000000000E+00  0.60214345825E+03  0.61498027495E+03  0.12499597702E+03 0.  0.
    9000005    1    3    3    0    0  0.62201487711E+02  0.57343288767E+01  0.29242180475E+03  0.29902076766E+03  0.10000000000E+01 0.  0.
    9000005    1    3    3    0    0 -0.62201487711E+02 -0.57343288767E+01  0.30972165350E+03  0.31595950729E+03  0.10000000000E+01 0.  0.
<mgrwt>
<rscale>  0 0.12499598E+03</rscale>
<asrwt>0</asrwt>
<pdfrwt beam="2">  1        4 0.16046021E-02 0.12499598E+03</pdfrwt>
<pdfrwt beam="1">  1       -4 0.15214047E+00 0.12499598E+03</pdfrwt>
<totfact> 0.71656059E+02</totfact>
</mgrwt>
</event>
<event>
 4    1  0.1433395E-002  0.1250632E+03  0.7818608E-02  0.1234971E+00
         -4   -1    0    0    0  501 -0.00000000000E+00  0.00000000000E+00  0.40009483575E+03  0.40009685139E+03  0.12700000000E+01 0. -1.
          4   -1    0    0  501    0  0.00000000000E+00 -0.00000000000E+00 -0.97298788730E+01  0.98124126943E+01  0.12700000000E+01 0. -1.
    9000005    1    1    2    0    0  0.33916905404E+02 -0.16728601705E+02  0.31991430630E+02  0.49544467107E+02  0.10000000000E+01 0.  0.
    9000005    1    1    2    0    0 -0.33916905404E+02  0.16728601705E+02  0.35837352624E+03  0.36036479698E+03  0.10000000000E+01 0.  0.
<mgrwt>
<rscale>  0 0.12506320E+03</rscale>
<asrwt>0</asrwt>
<pdfrwt beam="2">  1        4 0.24430385E-02 0.12506320E+03</pdfrwt>
<pdfrwt beam="1">  1       -4 0.10003428E+00 0.12506320E+03</pdfrwt>
<totfact> 0.10352955E+03</totfact>
</mgrwt>
</event>
<event>
 5    1  0.1433395E-002  0.1250029E+03  0.7818608E-02  0.1235065E+00
          4   -1    0    0  501    0  0.00000000000E+00  0.00000000000E+00  0.37631579856E+02  0.37653003897E+02  0.12700000000E+01 0.  1.
         -4   -1    0    0    0  501 -0.00000000000E+00 -0.00000000000E+00 -0.10375238216E+03  0.10376015470E+03  0.12700000000E+01 0.  1.
         25    2    1    2    0    0  0.00000000000E+00  0.00000000000E+00 -0.66120802300E+02  0.14141315860E+03  0.12500288368E+03 0.  0.
    9000005    1    3    3    0    0 -0.36638397269E+02 -0.49429818966E+02 -0.45440083466E+02  0.76494969396E+02  0.10000000000E+01 0.  0.
    9000005    1    3    3    0    0  0.36638397269E+02  0.49429818966E+02 -0.20680718834E+02  0.64918189200E+02  0.10000000000E+01 0.  0.
<mgrwt>
<rscale>  0 0.12500288E+03</rscale>
<asrwt>0</asrwt>
<pdfrwt beam="1">  1        4 0.94115447E-02 0.12500288E+03</pdfrwt>
<pdfrwt beam="2">  1       -4 0.25941745E-01 0.12500288E+03</pdfrwt>
<totfact> 0.18967004E+03</totfact>
</mgrwt>
</event>
<event>
 5    1  0.1433395E-002  0.1250012E+03  0.7818608E-02  0.1235067E+00
         -4   -1    0    0    0  501 -0.00000000000E+00  0.00000000000E+00  0.11045371056E+03  0.11046101157E+03  0.12700000000E+01 0.  1.
          4   -1    0    0  501    0  0.00000000000E+00 -0.00000000000E+00 -0.35346273662E+02  0.35369082004E+02  0.12700000000E+01 0.  1.
         25    2    1    2    0    0  0.00000000000E+00  0.00000000000E+00  0.75107436903E+02  0.14583009358E+03  0.12500115645E+03 0.  0.
    9000005    1    3    3    0    0 -0.12160240422E+02  0.60272995377E+02  0.50577032851E+02  0.79622494754E+02  0.10000000000E+01 0.  0.
    9000005    1    3    3    0    0  0.12160240422E+02 -0.60272995377E+02  0.24530404052E+02  0.66207598822E+02  0.10000000000E+01 0.  0.
<mgrwt>
<rscale>  0 0.12500116E+03</rscale>
<asrwt>0</asrwt>
<pdfrwt beam="2">  1        4 0.88403322E-02 0.12500116E+03</pdfrwt>
<pdfrwt beam="1">  1       -4 0.27617191E-01 0.12500116E+03</pdfrwt>
<totfact> 0.18745229E+03</totfact>
</mgrwt>
</event>
<event>
 5    1  0.1433395E-002  0.1249999E+03  0.7818608E-02  0.1235069E+00
         -4   -1    0    0    0  501 -0.00000000000E+00  0.00000000000E+00  0.44689721665E+02  0.44707763560E+02  0.12700000000E+01 0.  1.
          4   -1    0    0  501    0  0.00000000000E+00 -0.00000000000E+00 -0.87367768388E+02  0.87376998422E+02  0.12700000000E+01 0.  1.
         25    2    1    2    0    0  0.00000000000E+00  0.00000000000E+00 -0.42678046723E+02  0.13208476198E+03  0.12499987470E+03 0.  0.
    9000005    1    3    3    0    0  0.45589025530E+02 -0.39968778670E+02 -0.53353166160E+01  0.60871406428E+02  0.10000000000E+01 0.  0.
    9000005    1    3    3    0    0 -0.45589025530E+02  0.39968778670E+02 -0.37342730107E+02  0.71213355553E+02  0.10000000000E+01 0.  0.
<mgrwt>
<rscale>  0 0.12499987E+03</rscale>
<asrwt>0</asrwt>
<pdfrwt beam="2">  1        4 0.21845351E-01 0.12499987E+03</pdfrwt>
<pdfrwt beam="1">  1       -4 0.11175840E-01 0.12499987E+03</pdfrwt>
<totfact> 0.19453005E+03</totfact>
</mgrwt>
</event>
<event>
 5    1  0.1433395E-002  0.1249984E+03  0.7818608E-02  0.1235072E+00
         -4   -1    0    0    0  501 -0.00000000000E+00  0.00000000000E+00  0.37153021521E+02  0.37174721359E+02  0.12700000000E+01 0. -1.
          4   -1    0    0  501    0  0.00000000000E+00 -0.00000000000E+00 -0.10508049043E+03  0.10508816474E+03  0.12700000000E+01 0. -1.
         25    2    1    2    0    0  0.00000000000E+00  0.00000000000E+00 -0.67927468907E+02  0.14226288610E+03  0.12499835091E+03 0.  0.
    9000005    1    3    3    0    0  0.54744171931E+02 -0.22471424017E+02 -0.56818599032E+02  0.82044149417E+02  0.10000000000E+01 0.  0.
    9000005    1    3    3    0    0 -0.54744171931E+02  0.22471424017E+02 -0.11108869876E+02  0.60218736682E+02  0.10000000000E+01 0.  0.
<mgrwt>
<rscale>  0 0.12499835E+03</rscale>
<asrwt>0</asrwt>
<pdfrwt beam="2">  1        4 0.26273794E-01 0.12499835E+03</pdfrwt>
<pdfrwt beam="1">  1       -4 0.92919274E-02 0.12499835E+03</pdfrwt>
<totfact> 0.18925896E+03</totfact>
</mgrwt>
</event>
<event>
 5    1  0.1433395E-002  0.1250015E+03  0.7818608E-02  0.1235067E+00
         -4   -1    0    0    0  501 -0.00000000000E+00  0.00000000000E+00  0.82245074042E+02  0.82254878908E+02  0.12700000000E+01 0.  1.
          4   -1    0    0  501    0  0.00000000000E+00 -0.00000000000E+00 -0.47475285572E+02  0.47492269267E+02  0.12700000000E+01 0.  1.
         25    2    1    2    0    0  0.00000000000E+00  0.00000000000E+00  0.34769788470E+02  0.12974714818E+03  0.12500153707E+03 0.  0.
    9000005    1    3    3    0    0 -0.59162208673E+02 -0.18923261897E+02  0.10262212396E+02  0.62964829700E+02  0.10000000000E+01 0.  0.
    9000005    1    3    3    0    0  0.59162208673E+02  0.18923261897E+02  0.24507576074E+02  0.66782318475E+02  0.10000000000E+01 0.  0.
<mgrwt>
<rscale>  0 0.12500154E+03</rscale>
<asrwt>0</asrwt>
<pdfrwt beam="2">  1        4 0.11872170E-01 0.12500154E+03</pdfrwt>
<pdfrwt beam="1">  1       -4 0.20564617E-01 0.12500154E+03</pdfrwt>
<totfact> 0.19577283E+03</totfact>
</mgrwt>
</event>
<event>
 5    1  0.1433395E-002  0.1250011E+03  0.7818608E-02  0.1235068E+00
          4   -1    0    0  501    0  0.00000000000E+00  0.00000000000E+00  0.64488265784E+01  0.65726907913E+01  0.12700000000E+01 0.  1.
         -4   -1    0    0    0  501 -0.00000000000E+00 -0.00000000000E+00 -0.59985445380E+03  0.59985579820E+03  0.12700000000E+01 0.  1.
         25    2    1    2    0    0  0.00000000000E+00  0.00000000000E+00 -0.59340562722E+03  0.60642848900E+03  0.12500109540E+03 0.  0.
    9000005    1    3    3    0    0 -0.33924581276E+02 -0.32180013327E+01 -0.55083789094E+03  0.55189185068E+03  0.10000000000E+01 0.  0.
    9000005    1    3    3    0    0  0.33924581276E+02  0.32180013327E+01 -0.42567736277E+02  0.54536638319E+02  0.10000000000E+01 0.  0.
<mgrwt>
<rscale>  0 0.12500110E+03</rscale>
<asrwt>0</asrwt>
<pdfrwt beam="1">  1        4 0.16278598E-02 0.12500110E+03</pdfrwt>
<pdfrwt beam="2">  1       -4 0.14997908E+00 0.12500110E+03</pdfrwt>
<totfact> 0.72698222E+02</totfact>
</mgrwt>
</event>
<event>
 5    1  0.1433395E-002  0.1249969E+03  0.7818608E-02  0.1235074E+00
         -4   -1    0    0    0  501 -0.00000000000E+00  0.00000000000E+00  0.35655170647E+02  0.35677781516E+02  0.12700000000E+01 0.  1.
          4   -1    0    0  501    0  0.00000000000E+00 -0.00000000000E+00 -0.10948986028E+03  0.10949722555E+03  0.12700000000E+01 0.  1.
         25    2    1    2    0    0  0.00000000000E+00  0.00000000000E+00 -0.73834689632E+02  0.14517500707E+03  0.12499688510E+03 0.  0.
    9000005    1    3    3    0    0  0.20693231641E+02 -0.49068052557E+02  0.10592825678E+01  0.53272935878E+02  0.10000000000E+01 0.  0.
    9000005    1    3    3    0    0 -0.20693231641E+02  0.49068052557E+02 -0.74893972200E+02  0.91902071192E+02  0.10000000000E+01 0.  0.
<mgrwt>
<rscale>  0 0.12499689E+03</rscale>
<asrwt>0</asrwt>
<pdfrwt beam="2">  1        4 0.27376211E-01 0.12499689E+03</pdfrwt>
<pdfrwt beam="1">  1       -4 0.89175399E-02 0.12499689E+03</pdfrwt>
<totfact> 0.18779946E+03</totfact>
</mgrwt>
</event>
<event>
 5    1  0.1433395E-002  0.1250053E+03  0.7818608E-02  0.1235061E+00
         -4   -1    0    0    0  501 -0.00000000000E+00  0.00000000000E+00  0.10738989869E+02  0.10813824643E+02  0.12700000000E+01 0.  1.
          4   -1    0    0  501    0  0.00000000000E+00 -0.00000000000E+00 -0.36243631624E+03  0.36243854132E+03  0.12700000000E+01 0.  1.
         25    2    1    2    0    0  0.00000000000E+00  0.00000000000E+00 -0.35169732637E+03  0.37325236596E+03  0.12500527715E+03 0.  0.
    9000005    1    3    3    0    0 -0.10183910338E+02 -0.56616078408E+02 -0.24877340206E+03  0.25533957378E+03  0.10000000000E+01 0.  0.
    9000005    1    3    3    0    0  0.10183910338E+02  0.56616078408E+02 -0.10292392431E+03  0.11791279218E+03  0.10000000000E+01 0.  0.
<mgrwt>
<rscale>  0 0.12500528E+03</rscale>
<asrwt>0</asrwt>
<pdfrwt beam="2">  1        4 0.90618671E-01 0.12500528E+03</pdfrwt>
<pdfrwt beam="1">  1       -4 0.26943812E-02 0.12500528E+03</pdfrwt>
<totfact> 0.11140398E+03</totfact>
</mgrwt>
</event>
<event>
 5    1  0.1433395E-002  0.1250006E+03  0.7818608E-02  0.1235068E+00
         -4   -1    0    0    0  501 -0.00000000000E+00  0.00000000000E+00  0.25485056207E+02  0.25516680620E+02  0.12700000000E+01 0.  1.
          4   -1    0    0  501    0  0.00000000000E+00 -0.00000000000E+00 -0.15314827263E+03  0.15315353836E+03  0.12700000000E+01 0.  1.
         25    2    1    2    0    0  0.00000000000E+00  0.00000000000E+00 -0.12766321643E+03  0.17867021898E+03  0.12500060128E+03 0.  0.
    9000005    1    3    3    0    0 -0.36363429918E+02 -0.25155515334E+02 -0.12695326268E+03  0.13443671333E+03  0.10000000000E+01 0.  0.
    9000005    1    3    3    0    0  0.36363429918E+02  0.25155515334E+02 -0.70995374871E+00  0.44233505643E+02  0.10000000000E+01 0.  0.
<mgrwt>
<rscale>  0 0.12500060E+03</rscale>
<asrwt>0</asrwt>
<pdfrwt beam="2">  1        4 0.38291677E-01 0.12500060E+03</pdfrwt>
<pdfrwt beam="1">  1       -4 0.63758758E-02 0.12500060E+03</pdfrwt>
<totfact> 0.17212688E+03</totfact>
</mgrwt>
</event>
<event>
 5    1  0.1433395E-002  0.1249713E+03  0.7818608E-02  0.1235114E+00
         -4   -1    0    0    0  501 -0.00000000000E+00  0.00000000000E+00  0.98116053832E+02  0.98124272836E+02  0.12700000000E+01 0. -1.
          4   -1    0    0  501    0  0.00000000000E+00 -0.00000000000E+00 -0.39774246924E+02  0.39794517441E+02  0.12700000000E+01 0. -1.
         25    2    1    2    0    0  0.00000000000E+00  0.00000000000E+00  0.58341806909E+02  0.13791879028E+03  0.12497130182E+03 0.  0.
    9000005    1    3    3    0    0 -0.29654651590E+02 -0.23112323635E+02  0.84239275862E+02  0.92254178564E+02  0.10000000000E+01 0.  0.
    9000005    1    3    3    0    0  0.29654651590E+02  0.23112323635E+02 -0.25897468953E+02  0.45664611713E+02  0.10000000000E+01 0.  0.
<mgrwt>
<rscale>  0 0.12497130E+03</rscale>
<asrwt>0</asrwt>
<pdfrwt beam="2">  1        4 0.99471229E-02 0.12497130E+03</pdfrwt>
<pdfrwt beam="1">  1       -4 0.24532575E-01 0.12497130E+03</pdfrwt>
<totfact> 0.19160147E+03</totfact>
</mgrwt>
</event>
<event>
 5    1  0.1433395E-002  0.1249993E+03  0.7818608E-02  0.1235070E+00
         -4   -1    0    0    0  501 -0.00000000000E+00  0.00000000000E+00  0.25081768398E+01  0.28113788538E+01  0.12700000000E+01 0.  1.
          4   -1    0    0  501    0  0.00000000000E+00 -0.00000000000E+00 -0.14683179775E+04  0.14683185268E+04  0.12700000000E+01 0.  1.
         25    2    1    2    0    0  0.00000000000E+00  0.00000000000E+00 -0.14658098007E+04  0.14711299056E+04  0.12499930961E+03 0.  0.
    9000005    1    3    3    0    0  0.37832830692E+02  0.13240165021E+02 -0.16865253046E+03  0.17335311096E+03  0.10000000000E+01 0.  0.
    9000005    1    3    3    0    0 -0.37832830692E+02 -0.13240165021E+02 -0.12971572702E+04  0.12977767947E+04  0.10000000000E+01 0.  0.
<mgrwt>
<rscale>  0 0.12499931E+03</rscale>
<asrwt>0</asrwt>
<pdfrwt beam="2">  1        4 0.36711468E+00 0.12499931E+03</pdfrwt>
<pdfrwt beam="1">  1       -4 0.66501815E-03 0.12499931E+03</pdfrwt>
<totfact> 0.13467997E+02</totfact>
</mgrwt>
</event>
<event>
 5    1  0.1433395E-002  0.1249956E+03  0.7818608E-02  0.1235076E+00
         -4   -1    0    0    0  501 -0.00000000000E+00  0.00000000000E+00  0.30701409759E+03  0.30701672433E+03  0.12700000000E+01 0.  1.
          4   -1    0    0  501    0  0.00000000000E+00 -0.00000000000E+00 -0.12688082221E+02  0.12751483460E+02  0.12700000000E+01 0.  1.
         25    2    1    2    0    0  0.00000000000E+00  0.00000000000E+00  0.29432601537E+03  0.31976820779E+03  0.12499561349E+03 0.  0.
    9000005    1    3    3    0    0  0.51121125120E+02 -0.35817208034E+02  0.15472345817E+03  0.16684301104E+03  0.10000000000E+01 0.  0.
    9000005    1    3    3    0    0 -0.51121125120E+02  0.35817208034E+02  0.13960255719E+03  0.15292519675E+03  0.10000000000E+01 0.  0.
<mgrwt>
<rscale>  0 0.12499561E+03</rscale>
<asrwt>0</asrwt>
<pdfrwt beam="2">  1        4 0.31802739E-02 0.12499561E+03</pdfrwt>
<pdfrwt beam="1">  1       -4 0.76761782E-01 0.12499561E+03</pdfrwt>
<totfact> 0.12435806E+03</totfact>
</mgrwt>
</event>
<event>
 5    1  0.1433395E-002  0.1249993E+03  0.7818608E-02  0.1235070E+00
          4   -1    0    0  501    0  0.00000000000E+00  0.00000000000E+00  0.76045094647E+02  0.76055698800E+02  0.12700000000E+01 0. -1.
         -4   -1    0    0    0  501 -0.00000000000E+00 -0.00000000000E+00 -0.51344911283E+02  0.51360615403E+02  0.12700000000E+01 0. -1.
         25    2    1    2    0    0  0.00000000000E+00  0.00000000000E+00  0.24700183365E+02  0.12741631420E+03  0.12499927227E+03 0.  0.
    9000005    1    3    3    0    0  0.22716014047E+02 -0.58087328514E+02  0.83957114649E+01  0.62941584021E+02  0.10000000000E+01 0.  0.
    9000005    1    3    3    0    0 -0.22716014047E+02  0.58087328514E+02  0.16304471900E+02  0.64474730182E+02  0.10000000000E+01 0.  0.
<mgrwt>
<rscale>  0 0.12499927E+03</rscale>
<asrwt>0</asrwt>
<pdfrwt beam="1">  1        4 0.19014562E-01 0.12499927E+03</pdfrwt>
<pdfrwt beam="2">  1       -4 0.12839516E-01 0.12499927E+03</pdfrwt>
<totfact> 0.19704689E+03</totfact>
</mgrwt>
</event>
<event>
 5    1  0.1433395E-002  0.1250046E+03  0.7818608E-02  0.1235062E+00
         -4   -1    0    0    0  501 -0.00000000000E+00  0.00000000000E+00  0.75701473568E+03  0.75701580098E+03  0.12700000000E+01 0.  1.
          4   -1    0    0  501    0  0.00000000000E+00 -0.00000000000E+00 -0.50812292360E+01  0.52375366871E+01  0.12700000000E+01 0.  1.
         25    2    1    2    0    0  0.00000000000E+00  0.00000000000E+00  0.75193350644E+03  0.76225333767E+03  0.12500461061E+03 0.  0.
    9000005    1    3    3    0    0 -0.39882636022E+02 -0.42812893318E+02  0.50983672180E+03  0.51318422753E+03  0.10000000000E+01 0.  0.
    9000005    1    3    3    0    0  0.39882636022E+02  0.42812893318E+02  0.24209678464E+03  0.24906911013E+03  0.10000000000E+01 0.  0.
<mgrwt>
<rscale>  0 0.12500461E+03</rscale>
<asrwt>0</asrwt>
<pdfrwt beam="2">  1        4 0.12899787E-02 0.12500461E+03</pdfrwt>
<pdfrwt beam="1">  1       -4 0.18927339E+00 0.12500461E+03</pdfrwt>
<totfact> 0.55906518E+02</totfact>
</mgrwt>
</event>
<event>
 5    1  0.1433395E-002  0.1250370E+03  0.7818608E-02  0.1235011E+00
         -4   -1    0    0    0  501 -0.00000000000E+00  0.00000000000E+00  0.16552423245E+02  0.16601072715E+02  0.12700000000E+01 0.  1.
          4   -1    0    0  501    0  0.00000000000E+00 -0.00000000000E+00 -0.23573551867E+03  0.23573893964E+03  0.12700000000E+01 0.  1.
         25    2    1    2    0    0  0.00000000000E+00  0.00000000000E+00 -0.21918309543E+03  0.25234001236E+03  0.12503700459E+03 0.  0.
    9000005    1    3    3    0    0 -0.33612794760E+02 -0.46908932788E+02 -0.15808091591E+03  0.16828797914E+03  0.10000000000E+01 0.  0.
    9000005    1    3    3    0    0  0.33612794760E+02  0.46908932788E+02 -0.61102179516E+02  0.84052033220E+02  0.10000000000E+01 0.  0.
<mgrwt>
<rscale>  0 0.12503700E+03</rscale>
<asrwt>0</asrwt>
<pdfrwt beam="2">  1        4 0.58940378E-01 0.12503700E+03</pdfrwt>
<pdfrwt beam="1">  1       -4 0.41446154E-02 0.12503700E+03</pdfrwt>
<totfact> 0.14408204E+03</totfact>
</mgrwt>
</event>
<event>
 5    1  0.1433395E-002  0.1249993E+03  0.7818608E-02  0.1235070E+00
         -4   -1    0    0    0  501 -0.00000000000E+00  0.00000000000E+00  0.80668253703E+02  0.80678250201E+02  0.12700000000E+01 0. -1.
          4   -1    0    0  501    0  0.00000000000E+00 -0.00000000000E+00 -0.48401735299E+02  0.48418394025E+02  0.12700000000E+01 0. -1.
         25    2    1    2    0    0  0.00000000000E+00  0.00000000000E+00  0.32266518404E+02  0.12909664423E+03  0.12499926136E+03 0.  0.
    9000005    1    3    3    0    0  0.58264206038E+02 -0.16048005729E+02  0.32558919022E+02  0.68653764653E+02  0.10000000000E+01 0.  0.
    9000005    1    3    3    0    0 -0.58264206038E+02  0.16048005729E+02 -0.29240061837E+00  0.60442879574E+02  0.10000000000E+01 0.  0.
<mgrwt>
<rscale>  0 0.12499926E+03</rscale>
<asrwt>0</asrwt>
<pdfrwt beam="2">  1        4 0.12103766E-01 0.12499926E+03</pdfrwt>
<pdfrwt beam="1">  1       -4 0.20170395E-01 0.12499926E+03</pdfrwt>
<totfact> 0.19613410E+03</totfact>
</mgrwt>
</event>
<event>
 5    1  0.1433395E-002  0.1249988E+03  0.7818608E-02  0.1235071E+00
          4   -1    0    0  501    0  0.00000000000E+00  0.00000000000E+00  0.13167593913E+02  0.13228697194E+02  0.12700000000E+01 0. -1.
         -4   -1    0    0    0  501 -0.00000000000E+00 -0.00000000000E+00 -0.29590136580E+03  0.29590409119E+03  0.12700000000E+01 0. -1.
         25    2    1    2    0    0  0.00000000000E+00  0.00000000000E+00 -0.28273377189E+03  0.30913278839E+03  0.12499878035E+03 0.  0.
    9000005    1    3    3    0    0 -0.56225983170E+02 -0.25020695214E+02 -0.16820612981E+03  0.17911364682E+03  0.10000000000E+01 0.  0.
    9000005    1    3    3    0    0  0.56225983170E+02  0.25020695214E+02 -0.11452764208E+03  0.13001914156E+03  0.10000000000E+01 0.  0.
<mgrwt>
<rscale>  0 0.12499878E+03</rscale>
<asrwt>0</asrwt>
<pdfrwt beam="1">  1        4 0.32998780E-02 0.12499878E+03</pdfrwt>
<pdfrwt beam="2">  1       -4 0.73983298E-01 0.12499878E+03</pdfrwt>
<totfact> 0.12719256E+03</totfact>
</mgrwt>
</event>
<event>
 5    1  0.1433395E-002  0.1249993E+03  0.7818608E-02  0.1235070E+00
          4   -1    0    0  501    0  0.00000000000E+00  0.00000000000E+00  0.30486927510E+03  0.30487192032E+03  0.12700000000E+01 0.  1.
         -4   -1    0    0    0  501 -0.00000000000E+00 -0.00000000000E+00 -0.12778538853E+02  0.12841493496E+02  0.12700000000E+01 0.  1.
         25    2    1    2    0    0  0.00000000000E+00  0.00000000000E+00  0.29209073625E+03  0.31771341382E+03  0.12499926047E+03 0.  0.
    9000005    1    3    3    0    0 -0.29342744122E+02  0.54945103506E+02  0.13327520577E+03  0.14711642160E+03  0.10000000000E+01 0.  0.
    9000005    1    3    3    0    0  0.29342744122E+02 -0.54945103506E+02  0.15881553049E+03  0.17059699222E+03  0.10000000000E+01 0.  0.
<mgrwt>
<rscale>  0 0.12499926E+03</rscale>
<asrwt>0</asrwt>
<pdfrwt beam="1">  1        4 0.76225515E-01 0.12499926E+03</pdfrwt>
<pdfrwt beam="2">  1       -4 0.32028349E-02 0.12499926E+03</pdfrwt>
<totfact> 0.12488946E+03</totfact>
</mgrwt>
</event>
<event>
 5    1  0.1433395E-002  0.1250027E+03  0.7818608E-02  0.1235065E+00
          4   -1    0    0  501    0  0.00000000000E+00  0.00000000000E+00  0.17804861344E+03  0.17805314276E+03  0.12700000000E+01 0.  1.
         -4   -1    0    0    0  501 -0.00000000000E+00 -0.00000000000E+00 -0.21916984420E+02  0.21953749248E+02  0.12700000000E+01 0.  1.
         25    2    1    2    0    0  0.00000000000E+00  0.00000000000E+00  0.15613162902E+03  0.20000689201E+03  0.12500268506E+03 0.  0.
    9000005    1    3    3    0    0  0.18809655349E+02 -0.59048483135E+02  0.65176823110E+02  0.89941896609E+02  0.10000000000E+01 0.  0.
    9000005    1    3    3    0    0 -0.18809655349E+02  0.59048483135E+02  0.90954805911E+02  0.11006499540E+03  0.10000000000E+01 0.  0.
<mgrwt>
<rscale>  0 0.12500269E+03</rscale>
<asrwt>0</asrwt>
<pdfrwt beam="1">  1        4 0.44517315E-01 0.12500269E+03</pdfrwt>
<pdfrwt beam="2">  1       -4 0.54844079E-02 0.12500269E+03</pdfrwt>
<totfact> 0.16320752E+03</totfact>
</mgrwt>
</event>
<event>
 5    1  0.1433395E-002  0.1249893E+03  0.7818608E-02  0.1235086E+00
         -4   -1    0    0    0  501 -0.00000000000E+00  0.00000000000E+00  0.70512193393E+02  0.70523629495E+02  0.12700000000E+01 0. -1.
          4   -1    0    0  501    0  0.00000000000E+00 -0.00000000000E+00 -0.55365499402E+02  0.55380063417E+02  0.12700000000E+01 0. -1.
         25    2    1    2    0    0  0.00000000000E+00  0.00000000000E+00  0.15146693991E+02  0.12590369291E+03  0.12498926974E+03 0.  0.
    9000005    1    3    3    0    0  0.83339206713E+01 -0.12772910941E+02  0.68613521618E+02  0.70295212046E+02  0.10000000000E+01 0.  0.
    9000005    1    3    3    0    0 -0.83339206713E+01  0.12772910941E+02 -0.53466827628E+02  0.55608480866E+02  0.10000000000E+01 0.  0.
<mgrwt>
<rscale>  0 0.12498927E+03</rscale>
<asrwt>0</asrwt>
<pdfrwt beam="2">  1        4 0.13844625E-01 0.12498927E+03</pdfrwt>
<pdfrwt beam="1">  1       -4 0.17631298E-01 0.12498927E+03</pdfrwt>
<totfact> 0.19791093E+03</totfact>
</mgrwt>
</event>
<event>
 5    1  0.1433395E-002  0.1249988E+03  0.7818608E-02  0.1235071E+00
         -4   -1    0    0    0  501 -0.00000000000E+00  0.00000000000E+00  0.82323742944E+03  0.82323840905E+03  0.12700000000E+01 0. -1.
          4   -1    0    0  501    0  0.00000000000E+00 -0.00000000000E+00 -0.46589106644E+01  0.48289075968E+01  0.12700000000E+01 0. -1.
         25    2    1    2    0    0  0.00000000000E+00  0.00000000000E+00  0.81857851877E+03  0.82806731664E+03  0.12499875797E+03 0.  0.
    9000005    1    3    3    0    0 -0.13103565301E+01  0.16673416827E+02  0.80816815273E+03  0.80834181072E+03  0.10000000000E+01 0.  0.
    9000005    1    3    3    0    0  0.13103565301E+01 -0.16673416827E+02  0.10410366043E+02  0.19725505927E+02  0.10000000000E+01 0.  0.
<mgrwt>
<rscale>  0 0.12499876E+03</rscale>
<asrwt>0</asrwt>
<pdfrwt beam="2">  1        4 0.11860993E-02 0.12499876E+03</pdfrwt>
<pdfrwt beam="1">  1       -4 0.20583081E+00 0.12499876E+03</pdfrwt>
<totfact> 0.50055593E+02</totfact>
</mgrwt>
</event>
<event>
 5    1  0.1433395E-002  0.1249978E+03  0.7818608E-02  0.1235073E+00
         -4   -1    0    0    0  501 -0.00000000000E+00  0.00000000000E+00  0.71288294892E+01  0.72410710456E+01  0.12700000000E+01 0.  1.
          4   -1    0    0  501    0  0.00000000000E+00 -0.00000000000E+00 -0.54353895548E+03  0.54354043918E+03  0.12700000000E+01 0.  1.
         25    2    1    2    0    0  0.00000000000E+00  0.00000000000E+00 -0.53641012599E+03  0.55078151023E+03  0.12499779495E+03 0.  0.
    9000005    1    3    3    0    0  0.55751852882E+02  0.11195895323E+02 -0.38238726042E+03  0.38659362916E+03  0.10000000000E+01 0.  0.
    9000005    1    3    3    0    0 -0.55751852882E+02 -0.11195895323E+02 -0.15402286557E+03  0.16418788107E+03  0.10000000000E+01 0.  0.
<mgrwt>
<rscale>  0 0.12499779E+03</rscale>
<asrwt>0</asrwt>
<pdfrwt beam="2">  1        4 0.13589882E+00 0.12499779E+03</pdfrwt>
<pdfrwt beam="1">  1       -4 0.17964249E-02 0.12499779E+03</pdfrwt>
<totfact> 0.80062045E+02</totfact>
</mgrwt>
</event>
<event>
 5    1  0.1433395E-002  0.1250012E+03  0.7818608E-02  0.1235067E+00
         -4   -1    0    0    0  501 -0.00000000000E+00  0.00000000000E+00  0.14823760844E+03  0.14824304859E+03  0.12700000000E+01 0.  1.
          4   -1    0    0  501    0  0.00000000000E+00 -0.00000000000E+00 -0.26330543237E+02  0.26361153373E+02  0.12700000000E+01 0.  1.
         25    2    1    2    0    0  0.00000000000E+00  0.00000000000E+00  0.12190706520E+03  0.17460420196E+03  0.12500117918E+03 0.  0.
    9000005    1    3    3    0    0  0.61301772139E+02 -0.10428186661E+02  0.52267448198E+02  0.81237555881E+02  0.10000000000E+01 0.  0.
    9000005    1    3    3    0    0 -0.61301772139E+02  0.10428186661E+02  0.69639617002E+02  0.93366646082E+02  0.10000000000E+01 0.  0.
<mgrwt>
<rscale>  0 0.12500118E+03</rscale>
<asrwt>0</asrwt>
<pdfrwt beam="2">  1        4 0.65871421E-02 0.12500118E+03</pdfrwt>
<pdfrwt beam="1">  1       -4 0.37063908E-01 0.12500118E+03</pdfrwt>
<totfact> 0.17390880E+03</totfact>
</mgrwt>
</event>
<event>
 5    1  0.1433395E-002  0.1250000E+03  0.7818608E-02  0.1235069E+00
         -4   -1    0    0    0  501 -0.00000000000E+00  0.00000000000E+00  0.49346570516E+03  0.49346733941E+03  0.12700000000E+01 0.  1.
          4   -1    0    0  501    0  0.00000000000E+00 -0.00000000000E+00 -0.78633479572E+01  0.79652458277E+01  0.12700000000E+01 0.  1.
         25    2    1    2    0    0  0.00000000000E+00  0.00000000000E+00  0.48560235720E+03  0.50143258524E+03  0.12499995289E+03 0.  0.
    9000005    1    3    3    0    0  0.24445729433E+02  0.56895890934E+02  0.20911660719E+03  0.21809514322E+03  0.10000000000E+01 0.  0.
    9000005    1    3    3    0    0 -0.24445729433E+02 -0.56895890934E+02  0.27648575001E+03  0.28333744202E+03  0.10000000000E+01 0.  0.
<mgrwt>
<rscale>  0 0.12499995E+03</rscale>
<asrwt>0</asrwt>
<pdfrwt beam="2">  1        4 0.19787786E-02 0.12499995E+03</pdfrwt>
<pdfrwt beam="1">  1       -4 0.12337936E+00 0.12499995E+03</pdfrwt>
<totfact> 0.87379663E+02</totfact>
</mgrwt>
</event>
<event>
 5    1  0.1433395E-002  0.1249991E+03  0.7818608E-02  0.1235071E+00
         -4   -1    0    0    0  501 -0.00000000000E+00  0.00000000000E+00  0.22240014223E+02  0.22276245928E+02  0.12700000000E+01 0.  1.
          4   -1    0    0  501    0  0.00000000000E+00 -0.00000000000E+00 -0.17545670449E+03  0.17546130072E+03  0.12700000000E+01 0.  1.
         25    2    1    2    0    0  0.00000000000E+00  0.00000000000E+00 -0.15321669027E+03  0.19773754665E+03  0.12499913271E+03 0.  0.
    9000005    1    3    3    0    0  0.15281732260E+02 -0.33474813723E+02 -0.15650820062E+03  0.16077907624E+03  0.10000000000E+01 0.  0.
    9000005    1    3    3    0    0 -0.15281732260E+02  0.33474813723E+02  0.32915103524E+01  0.36958470410E+02  0.10000000000E+01 0.  0.
<mgrwt>
<rscale>  0 0.12499913E+03</rscale>
<asrwt>0</asrwt>
<pdfrwt beam="2">  1        4 0.43869276E-01 0.12499913E+03</pdfrwt>
<pdfrwt beam="1">  1       -4 0.55651076E-02 0.12499913E+03</pdfrwt>
<totfact> 0.16413365E+03</totfact>
</mgrwt>
</event>
<event>
 5    1  0.1433395E-002  0.1249965E+03  0.7818608E-02  0.1235075E+00
         -4   -1    0    0    0  501 -0.00000000000E+00  0.00000000000E+00  0.76880196506E+01  0.77922106073E+01  0.12700000000E+01 0. -1.
          4   -1    0    0  501    0  0.00000000000E+00 -0.00000000000E+00 -0.50454275028E+03  0.50454434865E+03  0.12700000000E+01 0. -1.
         25    2    1    2    0    0  0.00000000000E+00  0.00000000000E+00 -0.49685473063E+03  0.51233655926E+03  0.12499650638E+03 0.  0.
    9000005    1    3    3    0    0 -0.41104271694E+02  0.47068209204E+02 -0.24938145455E+03  0.25709353812E+03  0.10000000000E+01 0.  0.
    9000005    1    3    3    0    0  0.41104271694E+02 -0.47068209204E+02 -0.24747327608E+03  0.25524302114E+03  0.10000000000E+01 0.  0.
<mgrwt>
<rscale>  0 0.12499651E+03</rscale>
<asrwt>0</asrwt>
<pdfrwt beam="2">  1        4 0.12614880E+00 0.12499651E+03</pdfrwt>
<pdfrwt beam="1">  1       -4 0.19352303E-02 0.12499651E+03</pdfrwt>
<totfact> 0.85684351E+02</totfact>
</mgrwt>
</event>
<event>
 5    1  0.1433395E-002  0.1249975E+03  0.7818608E-02  0.1235073E+00
         -4   -1    0    0    0  501 -0.00000000000E+00  0.00000000000E+00  0.20313474759E+02  0.20353136288E+02  0.12700000000E+01 0. -1.
          4   -1    0    0  501    0  0.00000000000E+00 -0.00000000000E+00 -0.19206161512E+03  0.19206581399E+03  0.12700000000E+01 0. -1.
         25    2    1    2    0    0  0.00000000000E+00  0.00000000000E+00 -0.17174814036E+03  0.21241895027E+03  0.12499754685E+03 0.  0.
    9000005    1    3    3    0    0  0.12651727430E+02 -0.38334616804E+02 -0.16693825274E+03  0.17175269803E+03  0.10000000000E+01 0.  0.
    9000005    1    3    3    0    0 -0.12651727430E+02  0.38334616804E+02 -0.48098876169E+01  0.40666252242E+02  0.10000000000E+01 0.  0.
<mgrwt>
<rscale>  0 0.12499755E+03</rscale>
<asrwt>0</asrwt>
<pdfrwt beam="2">  1        4 0.48020881E-01 0.12499755E+03</pdfrwt>
<pdfrwt beam="1">  1       -4 0.50838518E-02 0.12499755E+03</pdfrwt>
<totfact> 0.15837454E+03</totfact>
</mgrwt>
</event>
<event>
 5    1  0.1433395E-002  0.1250013E+03  0.7818608E-02  0.1235067E+00
         -4   -1    0    0    0  501 -0.00000000000E+00  0.00000000000E+00  0.60138624565E+02  0.60152032921E+02  0.12700000000E+01 0. -1.
          4   -1    0    0  501    0  0.00000000000E+00 -0.00000000000E+00 -0.64928543100E+02  0.64940962490E+02  0.12700000000E+01 0. -1.
         25    2    1    2    0    0  0.00000000000E+00  0.00000000000E+00 -0.47899185349E+01  0.12509299541E+03  0.12500125672E+03 0.  0.
    9000005    1    3    3    0    0  0.18187364247E+02  0.20584548306E+02 -0.58568362131E+02  0.64697425682E+02  0.10000000000E+01 0.  0.
    9000005    1    3    3    0    0 -0.18187364247E+02 -0.20584548306E+02  0.53778443596E+02  0.60395569729E+02  0.10000000000E+01 0.  0.
<mgrwt>
<rscale>  0 0.12500126E+03</rscale>
<asrwt>0</asrwt>
<pdfrwt beam="2">  1        4 0.16235364E-01 0.12500126E+03</pdfrwt>
<pdfrwt beam="1">  1       -4 0.15037885E-01 0.12500126E+03</pdfrwt>
<totfact> 0.19829430E+03</totfact>
</mgrwt>
</event>
<event>
 5    1  0.1433395E-002  0.1249973E+03  0.7818608E-02  0.1235074E+00
          4   -1    0    0  501    0  0.00000000000E+00  0.00000000000E+00  0.11954451539E+03  0.11955126122E+03  0.12700000000E+01 0. -1.
         -4   -1    0    0    0  501 -0.00000000000E+00 -0.00000000000E+00 -0.32654675020E+02  0.32679361999E+02  0.12700000000E+01 0. -1.
         25    2    1    2    0    0  0.00000000000E+00  0.00000000000E+00  0.86889840367E+02  0.15223062322E+03  0.12499727312E+03 0.  0.
    9000005    1    3    3    0    0  0.43336452795E+02 -0.43527875943E+02  0.29433814930E+02  0.68118085604E+02  0.10000000000E+01 0.  0.
    9000005    1    3    3    0    0 -0.43336452795E+02  0.43527875943E+02  0.57456025436E+02  0.84112537614E+02  0.10000000000E+01 0.  0.
<mgrwt>
<rscale>  0 0.12499727E+03</rscale>
<asrwt>0</asrwt>
<pdfrwt beam="1">  1        4 0.29890058E-01 0.12499727E+03</pdfrwt>
<pdfrwt beam="2">  1       -4 0.81675979E-02 0.12499727E+03</pdfrwt>
<totfact> 0.18430811E+03</totfact>
</mgrwt>
</event>
<event>
 5    1  0.1433395E-002  0.1250006E+03  0.7818608E-02  0.1235068E+00
          4   -1    0    0  501    0  0.00000000000E+00  0.00000000000E+00  0.34776934545E+03  0.34777166437E+03  0.12700000000E+01 0. -1.
         -4   -1    0    0    0  501 -0.00000000000E+00 -0.00000000000E+00 -0.11194154865E+02  0.11265966587E+02  0.12700000000E+01 0. -1.
         25    2    1    2    0    0  0.00000000000E+00  0.00000000000E+00  0.33657519059E+03  0.35903763096E+03  0.12500064608E+03 0.  0.
    9000005    1    3    3    0    0 -0.33859646754E+02 -0.41476387946E+02  0.75724904912E+02  0.92747116717E+02  0.10000000000E+01 0.  0.
    9000005    1    3    3    0    0  0.33859646754E+02  0.41476387946E+02  0.26085028568E+03  0.26629051424E+03  0.10000000000E+01 0.  0.
<mgrwt>
<rscale>  0 0.12500065E+03</rscale>
<asrwt>0</asrwt>
<pdfrwt beam="1">  1        4 0.86951593E-01 0.12500065E+03</pdfrwt>
<pdfrwt beam="2">  1       -4 0.28078054E-02 0.12500065E+03</pdfrwt>
<totfact> 0.11464529E+03</totfact>
</mgrwt>
</event>
<event>
 5    1  0.1433395E-002  0.1250125E+03  0.7818608E-02  0.1235050E+00
         -4   -1    0    0    0  501 -0.00000000000E+00  0.00000000000E+00  0.22451398458E+02  0.22487289581E+02  0.12700000000E+01 0. -1.
          4   -1    0    0  501    0  0.00000000000E+00 -0.00000000000E+00 -0.17384446246E+03  0.17384910132E+03  0.12700000000E+01 0. -1.
         25    2    1    2    0    0  0.00000000000E+00  0.00000000000E+00 -0.15139306401E+03  0.19633639090E+03  0.12501247363E+03 0.  0.
    9000005    1    3    3    0    0 -0.41254208946E+01  0.48744306488E+01 -0.17333844410E+03  0.17345891553E+03  0.10000000000E+01 0.  0.
    9000005    1    3    3    0    0  0.41254208946E+01 -0.48744306488E+01  0.21945380099E+02  0.22877475372E+02  0.10000000000E+01 0.  0.
<mgrwt>
<rscale>  0 0.12501247E+03</rscale>
<asrwt>0</asrwt>
<pdfrwt beam="2">  1        4 0.43466178E-01 0.12501247E+03</pdfrwt>
<pdfrwt beam="1">  1       -4 0.56179164E-02 0.12501247E+03</pdfrwt>
<totfact> 0.16465045E+03</totfact>
</mgrwt>
</event>
<event>
 5    1  0.1433395E-002  0.1249993E+03  0.7818608E-02  0.1235070E+00
          4   -1    0    0  501    0  0.00000000000E+00  0.00000000000E+00  0.41634118469E+02  0.41653483896E+02  0.12700000000E+01 0. -1.
         -4   -1    0    0    0  501 -0.00000000000E+00 -0.00000000000E+00 -0.93776808501E+02  0.93785407781E+02  0.12700000000E+01 0. -1.
         25    2    1    2    0    0  0.00000000000E+00  0.00000000000E+00 -0.52142690031E+02  0.13543889168E+03  0.12499933302E+03 0.  0.
    9000005    1    3    3    0    0 -0.47536100670E+02  0.37601370690E+02 -0.95796491601E+01  0.61370299191E+02  0.10000000000E+01 0.  0.
    9000005    1    3    3    0    0  0.47536100670E+02 -0.37601370690E+02 -0.42563040871E+02  0.74068592486E+02  0.10000000000E+01 0.  0.
<mgrwt>
<rscale>  0 0.12499933E+03</rscale>
<asrwt>0</asrwt>
<pdfrwt beam="1">  1        4 0.10412025E-01 0.12499933E+03</pdfrwt>
<pdfrwt beam="2">  1       -4 0.23447697E-01 0.12499933E+03</pdfrwt>
<totfact> 0.19276473E+03</totfact>
</mgrwt>
</event>
<event>
 5    1  0.1433395E-002  0.1249804E+03  0.7818608E-02  0.1235100E+00
          4   -1    0    0  501    0  0.00000000000E+00  0.00000000000E+00  0.51038011941E+02  0.51053810463E+02  0.12700000000E+01 0.  1.
         -4   -1    0    0    0  501 -0.00000000000E+00 -0.00000000000E+00 -0.76479239757E+02  0.76489783721E+02  0.12700000000E+01 0.  1.
         25    2    1    2    0    0  0.00000000000E+00  0.00000000000E+00 -0.25441227816E+02  0.12754359418E+03  0.12498044785E+03 0.  0.
    9000005    1    3    3    0    0  0.40321872189E+02  0.33615082869E+02  0.21859428268E+02  0.56874087047E+02  0.10000000000E+01 0.  0.
    9000005    1    3    3    0    0 -0.40321872189E+02 -0.33615082869E+02 -0.47300656085E+02  0.70669507138E+02  0.10000000000E+01 0.  0.
<mgrwt>
<rscale>  0 0.12498045E+03</rscale>
<asrwt>0</asrwt>
<pdfrwt beam="1">  1        4 0.12762796E-01 0.12498045E+03</pdfrwt>
<pdfrwt beam="2">  1       -4 0.19123103E-01 0.12498045E+03</pdfrwt>
<totfact> 0.19706396E+03</totfact>
</mgrwt>
</event>
<event>
 5    1  0.1433395E-002  0.1249991E+03  0.7818608E-02  0.1235071E+00
          4   -1    0    0  501    0  0.00000000000E+00  0.00000000000E+00  0.19019902778E+02  0.19062255944E+02  0.12700000000E+01 0.  1.
         -4   -1    0    0    0  501 -0.00000000000E+00 -0.00000000000E+00 -0.20510138461E+03  0.20510531653E+03  0.12700000000E+01 0.  1.
         25    2    1    2    0    0  0.00000000000E+00  0.00000000000E+00 -0.18608148183E+03  0.22416757247E+03  0.12499913067E+03 0.  0.
    9000005    1    3    3    0    0 -0.17451092997E+02 -0.59962279348E+02 -0.88959108963E+02  0.10869562392E+03  0.10000000000E+01 0.  0.
    9000005    1    3    3    0    0  0.17451092997E+02  0.59962279348E+02 -0.97122372867E+02  0.11547194855E+03  0.10000000000E+01 0.  0.
<mgrwt>
<rscale>  0 0.12499913E+03</rscale>
<asrwt>0</asrwt>
<pdfrwt beam="1">  1        4 0.47607620E-02 0.12499913E+03</pdfrwt>
<pdfrwt beam="2">  1       -4 0.51281125E-01 0.12499913E+03</pdfrwt>
<totfact> 0.15398290E+03</totfact>
</mgrwt>
</event>
<event>
 5    1  0.1433395E-002  0.1250035E+03  0.7818608E-02  0.1235064E+00
         -4   -1    0    0    0  501 -0.00000000000E+00  0.00000000000E+00  0.48148075074E+01  0.49794850470E+01  0.12700000000E+01 0.  1.
          4   -1    0    0  501    0  0.00000000000E+00 -0.00000000000E+00 -0.79753750502E+03  0.79753851620E+03  0.12700000000E+01 0.  1.
         25    2    1    2    0    0  0.00000000000E+00  0.00000000000E+00 -0.79272269751E+03  0.80251800124E+03  0.12500346861E+03 0.  0.
    9000005    1    3    3    0    0 -0.14700595923E+02  0.44107666287E+02 -0.12826546177E+03  0.13643541486E+03  0.10000000000E+01 0.  0.
    9000005    1    3    3    0    0  0.14700595923E+02 -0.44107666287E+02 -0.66445723575E+03  0.66608258638E+03  0.10000000000E+01 0.  0.
<mgrwt>
<rscale>  0 0.12500347E+03</rscale>
<asrwt>0</asrwt>
<pdfrwt beam="2">  1        4 0.19940464E+00 0.12500347E+03</pdfrwt>
<pdfrwt beam="1">  1       -4 0.12244157E-02 0.12500347E+03</pdfrwt>
<totfact> 0.52252415E+02</totfact>
</mgrwt>
</event>
<event>
 5    1  0.1433395E-002  0.1249999E+03  0.7818608E-02  0.1235070E+00
         -4   -1    0    0    0  501 -0.00000000000E+00  0.00000000000E+00  0.32390599315E+03  0.32390848290E+03  0.12700000000E+01 0. -1.
          4   -1    0    0  501    0  0.00000000000E+00 -0.00000000000E+00 -0.12023820388E+02  0.12090705386E+02  0.12700000000E+01 0. -1.
         25    2    1    2    0    0  0.00000000000E+00  0.00000000000E+00  0.31188217276E+03  0.33599918829E+03  0.12499985938E+03 0.  0.
    9000005    1    3    3    0    0 -0.51821765641E+02 -0.14342871365E+02  0.70345051508E+02  0.88547386324E+02  0.10000000000E+01 0.  0.
    9000005    1    3    3    0    0  0.51821765641E+02  0.14342871365E+02  0.24153712125E+03  0.24745180196E+03  0.10000000000E+01 0.  0.
<mgrwt>
<rscale>  0 0.12499986E+03</rscale>
<asrwt>0</asrwt>
<pdfrwt beam="2">  1        4 0.30146270E-02 0.12499986E+03</pdfrwt>
<pdfrwt beam="1">  1       -4 0.80985168E-01 0.12499986E+03</pdfrwt>
<totfact> 0.12018934E+03</totfact>
</mgrwt>
</event>
<event>
 5    1  0.1433395E-002  0.1250031E+03  0.7818608E-02  0.1235064E+00
          4   -1    0    0  501    0  0.00000000000E+00  0.00000000000E+00  0.15951658558E+03  0.15952164109E+03  0.12700000000E+01 0.  1.
         -4   -1    0    0    0  501 -0.00000000000E+00 -0.00000000000E+00 -0.24467361689E+02  0.24500299754E+02  0.12700000000E+01 0.  1.
         25    2    1    2    0    0  0.00000000000E+00  0.00000000000E+00  0.13504922389E+03  0.18402194084E+03  0.12500312731E+03 0.  0.
    9000005    1    3    3    0    0 -0.32340899474E+02  0.26259878487E+02  0.13610053103E+03  0.14233716852E+03  0.10000000000E+01 0.  0.
    9000005    1    3    3    0    0  0.32340899474E+02 -0.26259878487E+02 -0.10513071324E+01  0.41684772323E+02  0.10000000000E+01 0.  0.
<mgrwt>
<rscale>  0 0.12500313E+03</rscale>
<asrwt>0</asrwt>
<pdfrwt beam="1">  1        4 0.39883895E-01 0.12500313E+03</pdfrwt>
<pdfrwt beam="2">  1       -4 0.61215897E-02 0.12500313E+03</pdfrwt>
<totfact> 0.16981243E+03</totfact>
</mgrwt>
</event>
<event>
 5    1  0.1433395E-002  0.1250009E+03  0.7818608E-02  0.1235068E+00
         -4   -1    0    0    0  501 -0.00000000000E+00  0.00000000000E+00  0.24306566609E+02  0.24339722272E+02  0.12700000000E+01 0.  1.
          4   -1    0    0  501    0  0.00000000000E+00 -0.00000000000E+00 -0.16056462572E+03  0.16056964823E+03  0.12700000000E+01 0.  1.
         25    2    1    2    0    0  0.00000000000E+00  0.00000000000E+00 -0.13625805911E+03  0.18490937050E+03  0.12500086650E+03 0.  0.
    9000005    1    3    3    0    0  0.25747930968E+02  0.39130987369E+02 -0.12931972278E+03  0.13754555908E+03  0.10000000000E+01 0.  0.
    9000005    1    3    3    0    0 -0.25747930968E+02 -0.39130987369E+02 -0.69383363293E+01  0.47363811424E+02  0.10000000000E+01 0.  0.
<mgrwt>
<rscale>  0 0.12500087E+03</rscale>
<asrwt>0</asrwt>
<pdfrwt beam="2">  1        4 0.40145926E-01 0.12500087E+03</pdfrwt>
<pdfrwt beam="1">  1       -4 0.60814144E-02 0.12500087E+03</pdfrwt>
<totfact> 0.16944337E+03</totfact>
</mgrwt>
</event>
<event>
 5    1  0.1433395E-002  0.1249998E+03  0.7818608E-02  0.1235070E+00
         -4   -1    0    0    0  501 -0.00000000000E+00  0.00000000000E+00  0.15382734848E+03  0.15383259096E+03  0.12700000000E+01 0. -1.
          4   -1    0    0  501    0  0.00000000000E+00 -0.00000000000E+00 -0.25372104108E+02  0.25403869132E+02  0.12700000000E+01 0. -1.
         25    2    1    2    0    0  0.00000000000E+00  0.00000000000E+00  0.12845524437E+03  0.17923646009E+03  0.12499983527E+03 0.  0.
    9000005    1    3    3    0    0  0.37547139290E+02  0.49751060321E+02  0.57769681257E+02  0.84989950844E+02  0.10000000000E+01 0.  0.
    9000005    1    3    3    0    0 -0.37547139290E+02 -0.49751060321E+02  0.70685563113E+02  0.94246509243E+02  0.10000000000E+01 0.  0.
<mgrwt>
<rscale>  0 0.12499984E+03</rscale>
<asrwt>0</asrwt>
<pdfrwt beam="2">  1        4 0.63476521E-02 0.12499984E+03</pdfrwt>
<pdfrwt beam="1">  1       -4 0.38461462E-01 0.12499984E+03</pdfrwt>
<totfact> 0.17188380E+03</totfact>
</mgrwt>
</event>
<event>
 5    1  0.1433395E-002  0.1250020E+03  0.7818608E-02  0.1235066E+00
          4   -1    0    0  501    0  0.00000000000E+00  0.00000000000E+00  0.64903139850E+02  0.64915564099E+02  0.12700000000E+01 0. -1.
         -4   -1    0    0    0  501 -0.00000000000E+00 -0.00000000000E+00 -0.60162881776E+02  0.60176284728E+02  0.12700000000E+01 0. -1.
         25    2    1    2    0    0  0.00000000000E+00  0.00000000000E+00  0.47402580733E+01  0.12509184883E+03  0.12500200237E+03 0.  0.
    9000005    1    3    3    0    0  0.31734682784E+02 -0.17190912278E+02 -0.48683768505E+02  0.60611276774E+02  0.10000000000E+01 0.  0.
    9000005    1    3    3    0    0 -0.31734682784E+02  0.17190912278E+02  0.53424026578E+02  0.64480572052E+02  0.10000000000E+01 0.  0.
<mgrwt>
<rscale>  0 0.12500200E+03</rscale>
<asrwt>0</asrwt>
<pdfrwt beam="1">  1        4 0.16229013E-01 0.12500200E+03</pdfrwt>
<pdfrwt beam="2">  1       -4 0.15043949E-01 0.12500200E+03</pdfrwt>
<totfact> 0.19829146E+03</totfact>
</mgrwt>
</event>
<event>
 5    1  0.1433395E-002  0.1249952E+03  0.7818608E-02  0.1235077E+00
          4   -1    0    0  501    0  0.00000000000E+00  0.00000000000E+00  0.75992705283E+02  0.76003316745E+02  0.12700000000E+01 0.  1.
         -4   -1    0    0    0  501 -0.00000000000E+00 -0.00000000000E+00 -0.51376988233E+02  0.51392682552E+02  0.12700000000E+01 0.  1.
         25    2    1    2    0    0  0.00000000000E+00  0.00000000000E+00  0.24615717050E+02  0.12739599930E+03  0.12499522835E+03 0.  0.
    9000005    1    3    3    0    0 -0.49162500327E+02  0.38459573407E+02  0.92738467087E+01  0.63111761644E+02  0.10000000000E+01 0.  0.
    9000005    1    3    3    0    0  0.49162500327E+02 -0.38459573407E+02  0.15341870341E+02  0.64284237653E+02  0.10000000000E+01 0.  0.
<mgrwt>
<rscale>  0 0.12499523E+03</rscale>
<asrwt>0</asrwt>
<pdfrwt beam="1">  1        4 0.19001464E-01 0.12499523E+03</pdfrwt>
<pdfrwt beam="2">  1       -4 0.12847535E-01 0.12499523E+03</pdfrwt>
<totfact> 0.19707659E+03</totfact>
</mgrwt>
</event>
<event>
 5    1  0.1433395E-002  0.1249994E+03  0.7818608E-02  0.1235070E+00
         -4   -1    0    0    0  501 -0.00000000000E+00  0.00000000000E+00  0.43573630366E+01  0.45386685970E+01  0.12700000000E+01 0. -1.
          4   -1    0    0  501    0  0.00000000000E+00 -0.00000000000E+00 -0.87801003396E+03  0.87801095246E+03  0.12700000000E+01 0. -1.
         25    2    1    2    0    0  0.00000000000E+00  0.00000000000E+00 -0.87365267093E+03  0.88254962106E+03  0.12499937684E+03 0.  0.
    9000005    1    3    3    0    0 -0.41775435473E+02 -0.24083427172E+02 -0.15617859034E+03  0.16345626496E+03  0.10000000000E+01 0.  0.
    9000005    1    3    3    0    0  0.41775435473E+02  0.24083427172E+02 -0.71747408058E+03  0.71909335610E+03  0.10000000000E+01 0.  0.
<mgrwt>
<rscale>  0 0.12499938E+03</rscale>
<asrwt>0</asrwt>
<pdfrwt beam="2">  1        4 0.21952469E+00 0.12499938E+03</pdfrwt>
<pdfrwt beam="1">  1       -4 0.11121218E-02 0.12499938E+03</pdfrwt>
<totfact> 0.45623907E+02</totfact>
</mgrwt>
</event>
<event>
 5    1  0.1433395E-002  0.1250009E+03  0.7818608E-02  0.1235068E+00
          4   -1    0    0  501    0  0.00000000000E+00  0.00000000000E+00  0.19037749935E+03  0.19038173536E+03  0.12700000000E+01 0.  1.
         -4   -1    0    0    0  501 -0.00000000000E+00 -0.00000000000E+00 -0.20494618665E+02  0.20533930316E+02  0.12700000000E+01 0.  1.
         25    2    1    2    0    0  0.00000000000E+00  0.00000000000E+00  0.16988288069E+03  0.21091566568E+03  0.12500089951E+03 0.  0.
    9000005    1    3    3    0    0  0.19368278701E+02 -0.15379445401E+02  0.18177688137E+03  0.18345433263E+03  0.10000000000E+01 0.  0.
    9000005    1    3    3    0    0 -0.19368278701E+02  0.15379445401E+02 -0.11894000680E+02  0.27461333049E+02  0.10000000000E+01 0.  0.
<mgrwt>
<rscale>  0 0.12500090E+03</rscale>
<asrwt>0</asrwt>
<pdfrwt beam="1">  1        4 0.47599819E-01 0.12500090E+03</pdfrwt>
<pdfrwt beam="2">  1       -4 0.51290981E-02 0.12500090E+03</pdfrwt>
<totfact> 0.15893765E+03</totfact>
</mgrwt>
</event>
<event>
 5    1  0.1433395E-002  0.1250003E+03  0.7818608E-02  0.1235069E+00
          4   -1    0    0  501    0  0.00000000000E+00  0.00000000000E+00  0.13884913803E+03  0.13885494601E+03  0.12700000000E+01 0. -1.
         -4   -1    0    0    0  501 -0.00000000000E+00 -0.00000000000E+00 -0.28112473344E+02  0.28141145277E+02  0.12700000000E+01 0. -1.
         25    2    1    2    0    0  0.00000000000E+00  0.00000000000E+00  0.11073666469E+03  0.16699609129E+03  0.12500034240E+03 0.  0.
    9000005    1    3    3    0    0  0.51228635493E+01  0.16765993930E+02  0.13550317804E+03  0.13663620876E+03  0.10000000000E+01 0.  0.
    9000005    1    3    3    0    0 -0.51228635493E+01 -0.16765993930E+02 -0.24766513358E+02  0.30359882531E+02  0.10000000000E+01 0.  0.
<mgrwt>
<rscale>  0 0.12500034E+03</rscale>
<asrwt>0</asrwt>
<pdfrwt beam="1">  1        4 0.34716595E-01 0.12500034E+03</pdfrwt>
<pdfrwt beam="2">  1       -4 0.70324283E-02 0.12500034E+03</pdfrwt>
<totfact> 0.17733252E+03</totfact>
</mgrwt>
</event>
<event>
 5    1  0.1433395E-002  0.1250021E+03  0.7818608E-02  0.1235066E+00
         -4   -1    0    0    0  501 -0.00000000000E+00  0.00000000000E+00  0.94967878955E+02  0.94976370394E+02  0.12700000000E+01 0.  1.
          4   -1    0    0  501    0  0.00000000000E+00 -0.00000000000E+00 -0.41113595754E+02  0.41133206243E+02  0.12700000000E+01 0.  1.
         25    2    1    2    0    0  0.00000000000E+00  0.00000000000E+00  0.53854283201E+02  0.13610957664E+03  0.12500213211E+03 0.  0.
    9000005    1    3    3    0    0  0.34029785950E+02  0.49288954831E+02  0.46342914250E+02  0.75736999553E+02  0.10000000000E+01 0.  0.
    9000005    1    3    3    0    0 -0.34029785950E+02 -0.49288954831E+02  0.75113689507E+01  0.60372577083E+02  0.10000000000E+01 0.  0.
<mgrwt>
<rscale>  0 0.12500213E+03</rscale>
<asrwt>0</asrwt>
<pdfrwt beam="2">  1        4 0.10281912E-01 0.12500213E+03</pdfrwt>
<pdfrwt beam="1">  1       -4 0.23745482E-01 0.12500213E+03</pdfrwt>
<totfact> 0.19240219E+03</totfact>
</mgrwt>
</event>
<event>
 5    1  0.1433395E-002  0.1249994E+03  0.7818608E-02  0.1235070E+00
          4   -1    0    0  501    0  0.00000000000E+00  0.00000000000E+00  0.10699390588E+02  0.10774500404E+02  0.12700000000E+01 0. -1.
         -4   -1    0    0    0  501 -0.00000000000E+00 -0.00000000000E+00 -0.36373434107E+03  0.36373655820E+03  0.12700000000E+01 0. -1.
         25    2    1    2    0    0  0.00000000000E+00  0.00000000000E+00 -0.35303495048E+03  0.37451105860E+03  0.12499942703E+03 0.  0.
    9000005    1    3    3    0    0  0.51191139518E+02  0.18044472256E+02 -0.83731211093E+02  0.99790036854E+02  0.10000000000E+01 0.  0.
    9000005    1    3    3    0    0 -0.51191139518E+02 -0.18044472256E+02 -0.26930373939E+03  0.27472102175E+03  0.10000000000E+01 0.  0.
<mgrwt>
<rscale>  0 0.12499943E+03</rscale>
<asrwt>0</asrwt>
<pdfrwt beam="1">  1        4 0.26845147E-02 0.12499943E+03</pdfrwt>
<pdfrwt beam="2">  1       -4 0.90943210E-01 0.12499943E+03</pdfrwt>
<totfact> 0.11113936E+03</totfact>
</mgrwt>
</event>
<event>
 5    1  0.1433395E-002  0.1249972E+03  0.7818608E-02  0.1235074E+00
         -4   -1    0    0    0  501 -0.00000000000E+00  0.00000000000E+00  0.68417602001E+01  0.69586336759E+01  0.12700000000E+01 0. -1.
          4   -1    0    0  501    0  0.00000000000E+00 -0.00000000000E+00 -0.56596390815E+03  0.56596533307E+03  0.12700000000E+01 0. -1.
         25    2    1    2    0    0  0.00000000000E+00  0.00000000000E+00 -0.55912214795E+03  0.57292396674E+03  0.12499718131E+03 0.  0.
    9000005    1    3    3    0    0 -0.42962186319E+02  0.33870805307E+02 -0.41798664213E+03  0.42155286016E+03  0.10000000000E+01 0.  0.
    9000005    1    3    3    0    0  0.42962186319E+02 -0.33870805307E+02 -0.14113550582E+03  0.15137110658E+03  0.10000000000E+01 0.  0.
<mgrwt>
<rscale>  0 0.12499718E+03</rscale>
<asrwt>0</asrwt>
<pdfrwt beam="2">  1        4 0.14150561E+00 0.12499718E+03</pdfrwt>
<pdfrwt beam="1">  1       -4 0.17252293E-02 0.12499718E+03</pdfrwt>
<totfact> 0.77023868E+02</totfact>
</mgrwt>
</event>
<event>
 5    1  0.1433395E-002  0.1250004E+03  0.7818608E-02  0.1235069E+00
          4   -1    0    0  501    0  0.00000000000E+00  0.00000000000E+00  0.46587471379E+02  0.46604778612E+02  0.12700000000E+01 0. -1.
         -4   -1    0    0    0  501 -0.00000000000E+00 -0.00000000000E+00 -0.83810510200E+02  0.83820131949E+02  0.12700000000E+01 0. -1.
         25    2    1    2    0    0  0.00000000000E+00  0.00000000000E+00 -0.37223038821E+02  0.13042491056E+03  0.12500041070E+03 0.  0.
    9000005    1    3    3    0    0  0.51502530218E+02 -0.18869684686E+02 -0.49855956495E+02  0.74129562369E+02  0.10000000000E+01 0.  0.
    9000005    1    3    3    0    0 -0.51502530218E+02  0.18869684686E+02  0.12632917674E+02  0.56295348191E+02  0.10000000000E+01 0.  0.
<mgrwt>
<rscale>  0 0.12500041E+03</rscale>
<asrwt>0</asrwt>
<pdfrwt beam="1">  1        4 0.11650234E-01 0.12500041E+03</pdfrwt>
<pdfrwt beam="2">  1       -4 0.20955993E-01 0.12500041E+03</pdfrwt>
<totfact> 0.19541380E+03</totfact>
</mgrwt>
</event>
<event>
 5    1  0.1433395E-002  0.1250014E+03  0.7818608E-02  0.1235067E+00
         -4   -1    0    0    0  501 -0.00000000000E+00  0.00000000000E+00  0.13830735963E+02  0.13888922107E+02  0.12700000000E+01 0. -1.
          4   -1    0    0  501    0  0.00000000000E+00 -0.00000000000E+00 -0.28178642011E+03  0.28178928202E+03  0.12700000000E+01 0. -1.
         25    2    1    2    0    0  0.00000000000E+00  0.00000000000E+00 -0.26795568415E+03  0.29567820412E+03  0.12500140690E+03 0.  0.
    9000005    1    3    3    0    0 -0.53236927963E+02  0.25794057226E+02 -0.86326114663E+02  0.10465515735E+03  0.10000000000E+01 0.  0.
    9000005    1    3    3    0    0  0.53236927963E+02 -0.25794057226E+02 -0.18162956949E+03  0.19102304677E+03  0.10000000000E+01 0.  0.
<mgrwt>
<rscale>  0 0.12500141E+03</rscale>
<asrwt>0</asrwt>
<pdfrwt beam="2">  1        4 0.70454217E-01 0.12500141E+03</pdfrwt>
<pdfrwt beam="1">  1       -4 0.34653159E-02 0.12500141E+03</pdfrwt>
<totfact> 0.13092632E+03</totfact>
</mgrwt>
</event>
<event>
 5    1  0.1433395E-002  0.1250287E+03  0.7818608E-02  0.1235024E+00
          4   -1    0    0  501    0  0.00000000000E+00  0.00000000000E+00  0.69336809172E+02  0.69348439104E+02  0.12700000000E+01 0. -1.
         -4   -1    0    0    0  501 -0.00000000000E+00 -0.00000000000E+00 -0.56339647449E+02  0.56353959707E+02  0.12700000000E+01 0. -1.
         25    2    1    2    0    0  0.00000000000E+00  0.00000000000E+00  0.12997161723E+02  0.12570239881E+03  0.12502866413E+03 0.  0.
    9000005    1    3    3    0    0 -0.10757364062E+02  0.11429030141E+02  0.67328316852E+02  0.69140768449E+02  0.10000000000E+01 0.  0.
    9000005    1    3    3    0    0  0.10757364062E+02 -0.11429030141E+02 -0.54331155129E+02  0.56561630362E+02  0.10000000000E+01 0.  0.
<mgrwt>
<rscale>  0 0.12502866E+03</rscale>
<asrwt>0</asrwt>
<pdfrwt beam="1">  1        4 0.17337445E-01 0.12502866E+03</pdfrwt>
<pdfrwt beam="2">  1       -4 0.14088155E-01 0.12502866E+03</pdfrwt>
<totfact> 0.19783741E+03</totfact>
</mgrwt>
</event>
<event>
 5    1  0.1433395E-002  0.1249996E+03  0.7818608E-02  0.1235070E+00
         -4   -1    0    0    0  501 -0.00000000000E+00  0.00000000000E+00  0.84159238005E+02  0.84168819889E+02  0.12700000000E+01 0.  1.
          4   -1    0    0  501    0  0.00000000000E+00 -0.00000000000E+00 -0.46393748508E+02  0.46411127983E+02  0.12700000000E+01 0.  1.
         25    2    1    2    0    0  0.00000000000E+00  0.00000000000E+00  0.37765489496E+02  0.13057994787E+03  0.12499956236E+03 0.  0.
    9000005    1    3    3    0    0  0.29773619057E+02 -0.50759207756E+02  0.40851497304E+02  0.71643634719E+02  0.10000000000E+01 0.  0.
    9000005    1    3    3    0    0 -0.29773619057E+02  0.50759207756E+02 -0.30860078079E+01  0.58936313152E+02  0.10000000000E+01 0.  0.
<mgrwt>
<rscale>  0 0.12499956E+03</rscale>
<asrwt>0</asrwt>
<pdfrwt beam="2">  1        4 0.11601807E-01 0.12499956E+03</pdfrwt>
<pdfrwt beam="1">  1       -4 0.21043180E-01 0.12499956E+03</pdfrwt>
<totfact> 0.19533455E+03</totfact>
</mgrwt>
</event>
<event>
 5    1  0.1433395E-002  0.1249579E+03  0.7818608E-02  0.1235135E+00
         -4   -1    0    0    0  501 -0.00000000000E+00  0.00000000000E+00  0.16761483478E+04  0.16761488290E+04  0.12700000000E+01 0. -1.
          4   -1    0    0  501    0  0.00000000000E+00 -0.00000000000E+00 -0.21552674320E+01  0.25016150190E+01  0.12700000000E+01 0. -1.
         25    2    1    2    0    0  0.00000000000E+00  0.00000000000E+00  0.16739930804E+04  0.16786504440E+04  0.12495791235E+03 0.  0.
    9000005    1    3    3    0    0  0.51090578194E+02  0.29152508162E+02  0.11195854637E+04  0.11211301113E+04  0.10000000000E+01 0.  0.
    9000005    1    3    3    0    0 -0.51090578194E+02 -0.29152508162E+02  0.55440761673E+03  0.55752033272E+03  0.10000000000E+01 0.  0.
<mgrwt>
<rscale>  0 0.12495791E+03</rscale>
<asrwt>0</asrwt>
<pdfrwt beam="2">  1        4 0.58217088E-03 0.12495791E+03</pdfrwt>
<pdfrwt beam="1">  1       -4 0.41908013E+00 0.12495791E+03</pdfrwt>
<totfact> 0.75534417E+01</totfact>
</mgrwt>
</event>
<event>
 5    1  0.1433395E-002  0.1249858E+03  0.7818608E-02  0.1235091E+00
          4   -1    0    0  501    0  0.00000000000E+00  0.00000000000E+00  0.84428926888E+02  0.84438478169E+02  0.12700000000E+01 0.  1.
         -4   -1    0    0    0  501 -0.00000000000E+00 -0.00000000000E+00 -0.46235351423E+02  0.46252790415E+02  0.12700000000E+01 0.  1.
         25    2    1    2    0    0  0.00000000000E+00  0.00000000000E+00  0.38193575465E+02  0.13069126858E+03  0.12498583311E+03 0.  0.
    9000005    1    3    3    0    0  0.86447369767E+01  0.56101982367E+02 -0.82144806339E+01  0.57364114174E+02  0.10000000000E+01 0.  0.
    9000005    1    3    3    0    0 -0.86447369767E+01 -0.56101982367E+02  0.46408056099E+02  0.73327154410E+02  0.10000000000E+01 0.  0.
<mgrwt>
<rscale>  0 0.12498583E+03</rscale>
<asrwt>0</asrwt>
<pdfrwt beam="1">  1        4 0.21110605E-01 0.12498583E+03</pdfrwt>
<pdfrwt beam="2">  1       -4 0.11562212E-01 0.12498583E+03</pdfrwt>
<totfact> 0.19533751E+03</totfact>
</mgrwt>
</event>
<event>
 5    1  0.1433395E-002  0.1249970E+03  0.7818608E-02  0.1235074E+00
         -4   -1    0    0    0  501 -0.00000000000E+00  0.00000000000E+00  0.37298095520E+01  0.39400988940E+01  0.12700000000E+01 0.  1.
          4   -1    0    0  501    0  0.00000000000E+00 -0.00000000000E+00 -0.10183310849E+04  0.10183318769E+04  0.12700000000E+01 0.  1.
         25    2    1    2    0    0  0.00000000000E+00  0.00000000000E+00 -0.10146012754E+04  0.10222719758E+04  0.12499697764E+03 0.  0.
    9000005    1    3    3    0    0  0.50513562035E+02 -0.35427839390E+02 -0.42621118693E+03  0.43065499836E+03  0.10000000000E+01 0.  0.
    9000005    1    3    3    0    0 -0.50513562035E+02  0.35427839390E+02 -0.58839008846E+03  0.59161697740E+03  0.10000000000E+01 0.  0.
<mgrwt>
<rscale>  0 0.12499698E+03</rscale>
<asrwt>0</asrwt>
<pdfrwt beam="2">  1        4 0.25460823E+00 0.12499698E+03</pdfrwt>
<pdfrwt beam="1">  1       -4 0.95884103E-03 0.12499698E+03</pdfrwt>
<totfact> 0.35633891E+02</totfact>
</mgrwt>
</event>
<event>
 5    1  0.1433395E-002  0.1249956E+03  0.7818608E-02  0.1235076E+00
          4   -1    0    0  501    0  0.00000000000E+00  0.00000000000E+00  0.44339973168E+02  0.44358157317E+02  0.12700000000E+01 0.  1.
         -4   -1    0    0    0  501 -0.00000000000E+00 -0.00000000000E+00 -0.88050673636E+02  0.88059832091E+02  0.12700000000E+01 0.  1.
         25    2    1    2    0    0  0.00000000000E+00  0.00000000000E+00 -0.43710700469E+02  0.13241798941E+03  0.12499559426E+03 0.  0.
    9000005    1    3    3    0    0 -0.18021863720E+02  0.50542556160E+02  0.12071937564E+02  0.55009719429E+02  0.10000000000E+01 0.  0.
    9000005    1    3    3    0    0  0.18021863720E+02 -0.50542556160E+02 -0.55782638032E+02  0.77408269978E+02  0.10000000000E+01 0.  0.
<mgrwt>
<rscale>  0 0.12499559E+03</rscale>
<asrwt>0</asrwt>
<pdfrwt beam="1">  1        4 0.11088411E-01 0.12499559E+03</pdfrwt>
<pdfrwt beam="2">  1       -4 0.22016086E-01 0.12499559E+03</pdfrwt>
<totfact> 0.19437250E+03</totfact>
</mgrwt>
</event>
<event>
 5    1  0.1433395E-002  0.1250019E+03  0.7818608E-02  0.1235066E+00
          4   -1    0    0  501    0  0.00000000000E+00  0.00000000000E+00  0.35379886171E+02  0.35402672858E+02  0.12700000000E+01 0. -1.
         -4   -1    0    0    0  501 -0.00000000000E+00 -0.00000000000E+00 -0.11035019833E+03  0.11035750618E+03  0.12700000000E+01 0. -1.
         25    2    1    2    0    0  0.00000000000E+00  0.00000000000E+00 -0.74970312156E+02  0.14576017904E+03  0.12500192834E+03 0.  0.
    9000005    1    3    3    0    0 -0.18422193186E+02  0.43070945361E+02  0.10746574158E+02  0.48072574221E+02  0.10000000000E+01 0.  0.
    9000005    1    3    3    0    0  0.18422193186E+02 -0.43070945361E+02 -0.85716886314E+02  0.97687604820E+02  0.10000000000E+01 0.  0.
<mgrwt>
<rscale>  0 0.12500193E+03</rscale>
<asrwt>0</asrwt>
<pdfrwt beam="1">  1        4 0.88487336E-02 0.12500193E+03</pdfrwt>
<pdfrwt beam="2">  1       -4 0.27591311E-01 0.12500193E+03</pdfrwt>
<totfact> 0.18748395E+03</totfact>
</mgrwt>
</event>
<event>
 5    1  0.1433395E-002  0.1250030E+03  0.7818608E-02  0.1235065E+00
          4   -1    0    0  501    0  0.00000000000E+00  0.00000000000E+00  0.96759319994E+02  0.96767654233E+02  0.12700000000E+01 0. -1.
         -4   -1    0    0    0  501 -0.00000000000E+00 -0.00000000000E+00 -0.40352631204E+02  0.40372611323E+02  0.12700000000E+01 0. -1.
         25    2    1    2    0    0  0.00000000000E+00  0.00000000000E+00  0.56406688790E+02  0.13714026556E+03  0.12500295155E+03 0.  0.
    9000005    1    3    3    0    0 -0.61082674108E+02  0.13118130175E+02  0.29851202897E+02  0.69247907765E+02  0.10000000000E+01 0.  0.
    9000005    1    3    3    0    0  0.61082674108E+02 -0.13118130175E+02  0.26555485893E+02  0.67892357791E+02  0.10000000000E+01 0.  0.
<mgrwt>
<rscale>  0 0.12500295E+03</rscale>
<asrwt>0</asrwt>
<pdfrwt beam="1">  1        4 0.24193369E-01 0.12500295E+03</pdfrwt>
<pdfrwt beam="2">  1       -4 0.10091697E-01 0.12500295E+03</pdfrwt>
<totfact> 0.19186290E+03</totfact>
</mgrwt>
</event>
<event>
 5    1  0.1433395E-002  0.1250028E+03  0.7818608E-02  0.1235065E+00
          4   -1    0    0  501    0  0.00000000000E+00  0.00000000000E+00  0.56791467459E+03  0.56791609460E+03  0.12700000000E+01 0. -1.
         -4   -1    0    0    0  501 -0.00000000000E+00 -0.00000000000E+00 -0.68184795588E+01  0.69357453452E+01  0.12700000000E+01 0. -1.
         25    2    1    2    0    0  0.00000000000E+00  0.00000000000E+00  0.56109619503E+03  0.57485183995E+03  0.12500279124E+03 0.  0.
    9000005    1    3    3    0    0 -0.43442169873E+02  0.15664311508E+02  0.47417690313E+03  0.47642137677E+03  0.10000000000E+01 0.  0.
    9000005    1    3    3    0    0  0.43442169873E+02 -0.15664311508E+02  0.86919291894E+02  0.98430463179E+02  0.10000000000E+01 0.  0.
<mgrwt>
<rscale>  0 0.12500279E+03</rscale>
<asrwt>0</asrwt>
<pdfrwt beam="1">  1        4 0.14199346E+00 0.12500279E+03</pdfrwt>
<pdfrwt beam="2">  1       -4 0.17194561E-02 0.12500279E+03</pdfrwt>
<totfact> 0.76756256E+02</totfact>
</mgrwt>
</event>
<event>
 5    1  0.1433395E-002  0.1249991E+03  0.7818608E-02  0.1235071E+00
         -4   -1    0    0    0  501 -0.00000000000E+00  0.00000000000E+00  0.20125491448E+03  0.20125892155E+03  0.12700000000E+01 0. -1.
          4   -1    0    0  501    0  0.00000000000E+00 -0.00000000000E+00 -0.19384195802E+02  0.19425754732E+02  0.12700000000E+01 0. -1.
         25    2    1    2    0    0  0.00000000000E+00  0.00000000000E+00  0.18187071868E+03  0.22068467628E+03  0.12499907212E+03 0.  0.
    9000005    1    3    3    0    0 -0.51792593377E+02 -0.34958969373E+02  0.89579559573E+02  0.10922499605E+03  0.10000000000E+01 0.  0.
    9000005    1    3    3    0    0  0.51792593377E+02  0.34958969373E+02  0.92291159106E+02  0.11145968023E+03  0.10000000000E+01 0.  0.
<mgrwt>
<rscale>  0 0.12499907E+03</rscale>
<asrwt>0</asrwt>
<pdfrwt beam="2">  1        4 0.48517448E-02 0.12499907E+03</pdfrwt>
<pdfrwt beam="1">  1       -4 0.50319424E-01 0.12499907E+03</pdfrwt>
<totfact> 0.15526313E+03</totfact>
</mgrwt>
</event>
<event>
 5    1  0.1433395E-002  0.1249857E+03  0.7818608E-02  0.1235092E+00
         -4   -1    0    0    0  501 -0.00000000000E+00  0.00000000000E+00  0.15550321390E+02  0.15602095863E+02  0.12700000000E+01 0.  1.
          4   -1    0    0  501    0  0.00000000000E+00 -0.00000000000E+00 -0.25067254617E+03  0.25067576330E+03  0.12700000000E+01 0.  1.
         25    2    1    2    0    0  0.00000000000E+00  0.00000000000E+00 -0.23512222479E+03  0.26627785916E+03  0.12498574996E+03 0.  0.
    9000005    1    3    3    0    0 -0.34070520546E+02 -0.29614116696E+02 -0.25517024295E+02  0.51864388619E+02  0.10000000000E+01 0.  0.
    9000005    1    3    3    0    0  0.34070520546E+02  0.29614116696E+02 -0.20960520049E+03  0.21441347054E+03  0.10000000000E+01 0.  0.
<mgrwt>
<rscale>  0 0.12498575E+03</rscale>
<asrwt>0</asrwt>
<pdfrwt beam="2">  1        4 0.62674997E-01 0.12498575E+03</pdfrwt>
<pdfrwt beam="1">  1       -4 0.38944551E-02 0.12498575E+03</pdfrwt>
<totfact> 0.13976333E+03</totfact>
</mgrwt>
</event>
<event>
 5    1  0.1433395E-002  0.1249848E+03  0.7818608E-02  0.1235093E+00
          4   -1    0    0  501    0  0.00000000000E+00  0.00000000000E+00  0.42518359905E+02  0.42537322777E+02  0.12700000000E+01 0. -1.
         -4   -1    0    0    0  501 -0.00000000000E+00 -0.00000000000E+00 -0.91805861750E+02  0.91814645628E+02  0.12700000000E+01 0. -1.
         25    2    1    2    0    0  0.00000000000E+00  0.00000000000E+00 -0.49287501845E+02  0.13435196840E+03  0.12498477338E+03 0.  0.
    9000005    1    3    3    0    0 -0.61792668974E+02  0.55357720534E+01 -0.32638903705E+02  0.70109034698E+02  0.10000000000E+01 0.  0.
    9000005    1    3    3    0    0  0.61792668974E+02 -0.55357720534E+01 -0.16648598140E+02  0.64242933707E+02  0.10000000000E+01 0.  0.
<mgrwt>
<rscale>  0 0.12498477E+03</rscale>
<asrwt>0</asrwt>
<pdfrwt beam="1">  1        4 0.10633058E-01 0.12498477E+03</pdfrwt>
<pdfrwt beam="2">  1       -4 0.22954933E-01 0.12498477E+03</pdfrwt>
<totfact> 0.19340005E+03</totfact>
</mgrwt>
</event>
<event>
 5    1  0.1433395E-002  0.1249996E+03  0.7818608E-02  0.1235070E+00
         -4   -1    0    0    0  501 -0.00000000000E+00  0.00000000000E+00  0.86526912728E+01  0.87453968613E+01  0.12700000000E+01 0.  1.
          4   -1    0    0  501    0  0.00000000000E+00 -0.00000000000E+00 -0.44894714481E+03  0.44894894112E+03  0.12700000000E+01 0.  1.
         25    2    1    2    0    0  0.00000000000E+00  0.00000000000E+00 -0.44029445354E+03  0.45769433798E+03  0.12499960482E+03 0.  0.
    9000005    1    3    3    0    0  0.24390214607E+02  0.31059471068E+02 -0.42810499498E+02  0.58252143127E+02  0.10000000000E+01 0.  0.
    9000005    1    3    3    0    0 -0.24390214607E+02 -0.31059471068E+02 -0.39748395404E+03  0.39944219486E+03  0.10000000000E+01 0.  0.
<mgrwt>
<rscale>  0 0.12499960E+03</rscale>
<asrwt>0</asrwt>
<pdfrwt beam="2">  1        4 0.11224852E+00 0.12499960E+03</pdfrwt>
<pdfrwt beam="1">  1       -4 0.21749871E-02 0.12499960E+03</pdfrwt>
<totfact> 0.94652696E+02</totfact>
</mgrwt>
</event>
<event>
 5    1  0.1433395E-002  0.1249898E+03  0.7818608E-02  0.1235085E+00
         -4   -1    0    0    0  501 -0.00000000000E+00  0.00000000000E+00  0.74583245762E+03  0.74583353889E+03  0.12700000000E+01 0.  1.
          4   -1    0    0  501    0  0.00000000000E+00 -0.00000000000E+00 -0.51584747017E+01  0.53125098821E+01  0.12700000000E+01 0.  1.
         25    2    1    2    0    0  0.00000000000E+00  0.00000000000E+00  0.74067398292E+03  0.75114604877E+03  0.12498975006E+03 0.  0.
    9000005    1    3    3    0    0  0.41249624331E+02  0.46314632998E+02  0.32455588809E+03  0.33043017603E+03  0.10000000000E+01 0.  0.
    9000005    1    3    3    0    0 -0.41249624331E+02 -0.46314632998E+02  0.41611809483E+03  0.42071587274E+03  0.10000000000E+01 0.  0.
<mgrwt>
<rscale>  0 0.12498975E+03</rscale>
<asrwt>0</asrwt>
<pdfrwt beam="2">  1        4 0.13090084E-02 0.12498975E+03</pdfrwt>
<pdfrwt beam="1">  1       -4 0.18647748E+00 0.12498975E+03</pdfrwt>
<totfact> 0.56974126E+02</totfact>
</mgrwt>
</event>
<event>
 5    1  0.1433395E-002  0.1250019E+03  0.7818608E-02  0.1235066E+00
          4   -1    0    0  501    0  0.00000000000E+00  0.00000000000E+00  0.46524952780E+02  0.46542283262E+02  0.12700000000E+01 0.  1.
         -4   -1    0    0    0  501 -0.00000000000E+00 -0.00000000000E+00 -0.83925092766E+02  0.83934701380E+02  0.12700000000E+01 0.  1.
         25    2    1    2    0    0  0.00000000000E+00  0.00000000000E+00 -0.37400139986E+02  0.13047698464E+03  0.12500189219E+03 0.  0.
    9000005    1    3    3    0    0 -0.26671033869E+01 -0.56065603048E+02 -0.47378996657E+02  0.73459067580E+02  0.10000000000E+01 0.  0.
    9000005    1    3    3    0    0  0.26671033869E+01  0.56065603048E+02  0.99788566707E+01  0.57017917062E+02  0.10000000000E+01 0.  0.
<mgrwt>
<rscale>  0 0.12500189E+03</rscale>
<asrwt>0</asrwt>
<pdfrwt beam="1">  1        4 0.11634606E-01 0.12500189E+03</pdfrwt>
<pdfrwt beam="2">  1       -4 0.20984640E-01 0.12500189E+03</pdfrwt>
<totfact> 0.19537912E+03</totfact>
</mgrwt>
</event>
<event>
 5    1  0.1433395E-002  0.1250140E+03  0.7818608E-02  0.1235047E+00
         -4   -1    0    0    0  501 -0.00000000000E+00  0.00000000000E+00  0.41539967750E+02  0.41559377049E+02  0.12700000000E+01 0.  1.
          4   -1    0    0  501    0  0.00000000000E+00 -0.00000000000E+00 -0.94011414405E+02  0.94019992228E+02  0.12700000000E+01 0.  1.
         25    2    1    2    0    0  0.00000000000E+00  0.00000000000E+00 -0.52471446655E+02  0.13557936928E+03  0.12501404985E+03 0.  0.
    9000005    1    3    3    0    0 -0.27039199831E+01 -0.54643055088E+02  0.65329694480E+01  0.55107661377E+02  0.10000000000E+01 0.  0.
    9000005    1    3    3    0    0  0.27039199831E+01  0.54643055088E+02 -0.59004416103E+02  0.80471707900E+02  0.10000000000E+01 0.  0.
<mgrwt>
<rscale>  0 0.12501405E+03</rscale>
<asrwt>0</asrwt>
<pdfrwt beam="2">  1        4 0.23506352E-01 0.12501405E+03</pdfrwt>
<pdfrwt beam="1">  1       -4 0.10388491E-01 0.12501405E+03</pdfrwt>
<totfact> 0.19262519E+03</totfact>
</mgrwt>
</event>
<event>
 5    1  0.1433395E-002  0.1250045E+03  0.7818608E-02  0.1235062E+00
         -4   -1    0    0    0  501 -0.00000000000E+00  0.00000000000E+00  0.85780094690E+02  0.85789495540E+02  0.12700000000E+01 0.  1.
          4   -1    0    0  501    0  0.00000000000E+00 -0.00000000000E+00 -0.45520495325E+02  0.45538208075E+02  0.12700000000E+01 0.  1.
         25    2    1    2    0    0  0.00000000000E+00  0.00000000000E+00  0.40259599364E+02  0.13132770361E+03  0.12500452150E+03 0.  0.
    9000005    1    3    3    0    0  0.35591438701E+02  0.50409662682E+02  0.30511352099E+02  0.68846403010E+02  0.10000000000E+01 0.  0.
    9000005    1    3    3    0    0 -0.35591438701E+02 -0.50409662682E+02  0.97482472655E+01  0.62481300605E+02  0.10000000000E+01 0.  0.
<mgrwt>
<rscale>  0 0.12500452E+03</rscale>
<asrwt>0</asrwt>
<pdfrwt beam="2">  1        4 0.11383513E-01 0.12500452E+03</pdfrwt>
<pdfrwt beam="1">  1       -4 0.21448413E-01 0.12500452E+03</pdfrwt>
<totfact> 0.19491212E+03</totfact>
</mgrwt>
</event>
<event>
 5    1  0.1433395E-002  0.1249980E+03  0.7818608E-02  0.1235072E+00
          4   -1    0    0  501    0  0.00000000000E+00  0.00000000000E+00  0.18664976507E+02  0.18708133204E+02  0.12700000000E+01 0. -1.
         -4   -1    0    0    0  501 -0.00000000000E+00 -0.00000000000E+00 -0.20898902239E+03  0.20899288117E+03  0.12700000000E+01 0. -1.
         25    2    1    2    0    0  0.00000000000E+00  0.00000000000E+00 -0.19032404588E+03  0.22770101437E+03  0.12499803801E+03 0.  0.
    9000005    1    3    3    0    0  0.16762262328E+02  0.59404755319E+02 -0.77385519415E+02  0.98992004768E+02  0.10000000000E+01 0.  0.
    9000005    1    3    3    0    0 -0.16762262328E+02 -0.59404755319E+02 -0.11293852647E+03  0.12870900960E+03  0.10000000000E+01 0.  0.
<mgrwt>
<rscale>  0 0.12499804E+03</rscale>
<asrwt>0</asrwt>
<pdfrwt beam="1">  1        4 0.46721217E-02 0.12499804E+03</pdfrwt>
<pdfrwt beam="2">  1       -4 0.52253125E-01 0.12499804E+03</pdfrwt>
<totfact> 0.15270500E+03</totfact>
</mgrwt>
</event>
<event>
 5    1  0.1433395E-002  0.1250022E+03  0.7818608E-02  0.1235066E+00
          4   -1    0    0  501    0  0.00000000000E+00  0.00000000000E+00  0.62883424187E+03  0.62883552432E+03  0.12700000000E+01 0.  1.
         -4   -1    0    0    0  501 -0.00000000000E+00 -0.00000000000E+00 -0.61458997514E+01  0.62757456731E+01  0.12700000000E+01 0.  1.
         25    2    1    2    0    0  0.00000000000E+00  0.00000000000E+00  0.62268834212E+03  0.63511126999E+03  0.12500221543E+03 0.  0.
    9000005    1    3    3    0    0 -0.52405506277E+02 -0.32760288118E+02  0.26427750248E+03  0.27140960167E+03  0.10000000000E+01 0.  0.
    9000005    1    3    3    0    0  0.52405506277E+02  0.32760288118E+02  0.35841083964E+03  0.36370166832E+03  0.10000000000E+01 0.  0.
<mgrwt>
<rscale>  0 0.12500222E+03</rscale>
<asrwt>0</asrwt>
<pdfrwt beam="1">  1        4 0.15722497E+00 0.12500222E+03</pdfrwt>
<pdfrwt beam="2">  1       -4 0.15528658E-02 0.12500222E+03</pdfrwt>
<totfact> 0.69237200E+02</totfact>
</mgrwt>
</event>
<event>
 5    1  0.1433395E-002  0.1249974E+03  0.7818608E-02  0.1235073E+00
         -4   -1    0    0    0  501 -0.00000000000E+00  0.00000000000E+00  0.11635665986E+03  0.11636359049E+03  0.12700000000E+01 0. -1.
          4   -1    0    0  501    0  0.00000000000E+00 -0.00000000000E+00 -0.33550007069E+02  0.33574035717E+02  0.12700000000E+01 0. -1.
         25    2    1    2    0    0  0.00000000000E+00  0.00000000000E+00  0.82806652786E+02  0.14993762621E+03  0.12499740001E+03 0.  0.
    9000005    1    3    3    0    0 -0.35588415121E+02 -0.13888702539E+02 -0.17917521505E+02  0.42207451071E+02  0.10000000000E+01 0.  0.
    9000005    1    3    3    0    0  0.35588415121E+02  0.13888702539E+02  0.10072417429E+03  0.10773017514E+03  0.10000000000E+01 0.  0.
<mgrwt>
<rscale>  0 0.12499740E+03</rscale>
<asrwt>0</asrwt>
<pdfrwt beam="2">  1        4 0.83913717E-02 0.12499740E+03</pdfrwt>
<pdfrwt beam="1">  1       -4 0.29093035E-01 0.12499740E+03</pdfrwt>
<totfact> 0.18542970E+03</totfact>
</mgrwt>
</event>
<event>
 5    1  0.1433395E-002  0.1250018E+03  0.7818608E-02  0.1235066E+00
         -4   -1    0    0    0  501 -0.00000000000E+00  0.00000000000E+00  0.35784806494E+02  0.35807335503E+02  0.12700000000E+01 0.  1.
          4   -1    0    0  501    0  0.00000000000E+00 -0.00000000000E+00 -0.10910203472E+03  0.10910942617E+03  0.12700000000E+01 0.  1.
         25    2    1    2    0    0  0.00000000000E+00  0.00000000000E+00 -0.73317228226E+02  0.14491676168E+03  0.12500180743E+03 0.  0.
    9000005    1    3    3    0    0 -0.33585754809E+02  0.17164153017E+01 -0.97722995016E+02  0.10335246858E+03  0.10000000000E+01 0.  0.
    9000005    1    3    3    0    0  0.33585754809E+02 -0.17164153017E+01  0.24405766791E+02  0.41564293092E+02  0.10000000000E+01 0.  0.
<mgrwt>
<rscale>  0 0.12500181E+03</rscale>
<asrwt>0</asrwt>
<pdfrwt beam="2">  1        4 0.27279248E-01 0.12500181E+03</pdfrwt>
<pdfrwt beam="1">  1       -4 0.89499419E-02 0.12500181E+03</pdfrwt>
<totfact> 0.18790744E+03</totfact>
</mgrwt>
</event>
<event>
 5    1  0.1433395E-002  0.1250000E+03  0.7818608E-02  0.1235069E+00
         -4   -1    0    0    0  501 -0.00000000000E+00  0.00000000000E+00  0.24244072519E+02  0.24277313532E+02  0.12700000000E+01 0.  1.
          4   -1    0    0  501    0  0.00000000000E+00 -0.00000000000E+00 -0.16097576417E+03  0.16098077385E+03  0.12700000000E+01 0.  1.
         25    2    1    2    0    0  0.00000000000E+00  0.00000000000E+00 -0.13673169165E+03  0.18525808738E+03  0.12500001376E+03 0.  0.
    9000005    1    3    3    0    0  0.21248546902E+02  0.29942070760E+02  0.65806574061E+01  0.37313983956E+02  0.10000000000E+01 0.  0.
    9000005    1    3    3    0    0 -0.21248546902E+02 -0.29942070760E+02 -0.14331234905E+03  0.14794410342E+03  0.10000000000E+01 0.  0.
<mgrwt>
<rscale>  0 0.12500001E+03</rscale>
<asrwt>0</asrwt>
<pdfrwt beam="2">  1        4 0.40248719E-01 0.12500001E+03</pdfrwt>
<pdfrwt beam="1">  1       -4 0.60657999E-02 0.12500001E+03</pdfrwt>
<totfact> 0.16929856E+03</totfact>
</mgrwt>
</event>
<event>
 5    1  0.1433395E-002  0.1249989E+03  0.7818608E-02  0.1235071E+00
          4   -1    0    0  501    0  0.00000000000E+00  0.00000000000E+00  0.25328551455E+03  0.25328869849E+03  0.12700000000E+01 0. -1.
         -4   -1    0    0    0  501 -0.00000000000E+00 -0.00000000000E+00 -0.15392611758E+02  0.15444914915E+02  0.12700000000E+01 0. -1.
         25    2    1    2    0    0  0.00000000000E+00  0.00000000000E+00  0.23789290279E+03  0.26873361340E+03  0.12499888709E+03 0.  0.
    9000005    1    3    3    0    0  0.14450714620E+02  0.55914992161E+02  0.67624388843E+02  0.88934624685E+02  0.10000000000E+01 0.  0.
    9000005    1    3    3    0    0 -0.14450714620E+02 -0.55914992161E+02  0.17026851395E+03  0.17979898872E+03  0.10000000000E+01 0.  0.
<mgrwt>
<rscale>  0 0.12499889E+03</rscale>
<asrwt>0</asrwt>
<pdfrwt beam="1">  1        4 0.63328314E-01 0.12499889E+03</pdfrwt>
<pdfrwt beam="2">  1       -4 0.38550889E-02 0.12499889E+03</pdfrwt>
<totfact> 0.13895291E+03</totfact>
</mgrwt>
</event>
<event>
 5    1  0.1433395E-002  0.1250074E+03  0.7818608E-02  0.1235058E+00
         -4   -1    0    0    0  501 -0.00000000000E+00  0.00000000000E+00  0.18106112009E+02  0.18150597568E+02  0.12700000000E+01 0.  1.
          4   -1    0    0  501    0  0.00000000000E+00 -0.00000000000E+00 -0.21545666337E+03  0.21546040631E+03  0.12700000000E+01 0.  1.
         25    2    1    2    0    0  0.00000000000E+00  0.00000000000E+00 -0.19735055136E+03  0.23361100388E+03  0.12500744383E+03 0.  0.
    9000005    1    3    3    0    0  0.43741280674E+02 -0.27272878858E+02 -0.32640899870E+02  0.61020798918E+02  0.10000000000E+01 0.  0.
    9000005    1    3    3    0    0 -0.43741280674E+02  0.27272878858E+02 -0.16470965149E+03  0.17259020496E+03  0.10000000000E+01 0.  0.
<mgrwt>
<rscale>  0 0.12500744E+03</rscale>
<asrwt>0</asrwt>
<pdfrwt beam="2">  1        4 0.53870186E-01 0.12500744E+03</pdfrwt>
<pdfrwt beam="1">  1       -4 0.45325572E-02 0.12500744E+03</pdfrwt>
<totfact> 0.15056553E+03</totfact>
</mgrwt>
</event>
<event>
 5    1  0.1433395E-002  0.1249970E+03  0.7818608E-02  0.1235074E+00
         -4   -1    0    0    0  501 -0.00000000000E+00  0.00000000000E+00  0.28178574081E+03  0.28178860273E+03  0.12700000000E+01 0. -1.
          4   -1    0    0  501    0  0.00000000000E+00 -0.00000000000E+00 -0.13829789301E+02  0.13887979410E+02  0.12700000000E+01 0. -1.
         25    2    1    2    0    0  0.00000000000E+00  0.00000000000E+00  0.26795595151E+03  0.29567658214E+03  0.12499699705E+03 0.  0.
    9000005    1    3    3    0    0 -0.77230711787E+01  0.56384683909E+01  0.28005647389E+03  0.28022146014E+03  0.10000000000E+01 0.  0.
    9000005    1    3    3    0    0  0.77230711787E+01 -0.56384683909E+01 -0.12100522376E+02  0.15455121999E+02  0.10000000000E+01 0.  0.
<mgrwt>
<rscale>  0 0.12499700E+03</rscale>
<asrwt>0</asrwt>
<pdfrwt beam="2">  1        4 0.34650789E-02 0.12499700E+03</pdfrwt>
<pdfrwt beam="1">  1       -4 0.70454065E-01 0.12499700E+03</pdfrwt>
<totfact> 0.13094000E+03</totfact>
</mgrwt>
</event>
<event>
 5    1  0.1433395E-002  0.1249990E+03  0.7818608E-02  0.1235071E+00
         -4   -1    0    0    0  501 -0.00000000000E+00  0.00000000000E+00  0.29500807140E+02  0.29528131027E+02  0.12700000000E+01 0.  1.
          4   -1    0    0  501    0  0.00000000000E+00 -0.00000000000E+00 -0.13231783642E+03  0.13232393107E+03  0.12700000000E+01 0.  1.
         25    2    1    2    0    0  0.00000000000E+00  0.00000000000E+00 -0.10281702927E+03  0.16185206210E+03  0.12499899398E+03 0.  0.
    9000005    1    3    3    0    0 -0.35740690776E+02  0.13120670142E+02 -0.11557288046E+03  0.12168664536E+03  0.10000000000E+01 0.  0.
    9000005    1    3    3    0    0  0.35740690776E+02 -0.13120670142E+02  0.12755851181E+02  0.40165416735E+02  0.10000000000E+01 0.  0.
<mgrwt>
<rscale>  0 0.12499899E+03</rscale>
<asrwt>0</asrwt>
<pdfrwt beam="2">  1        4 0.33083635E-01 0.12499899E+03</pdfrwt>
<pdfrwt beam="1">  1       -4 0.73793794E-02 0.12499899E+03</pdfrwt>
<totfact> 0.17971361E+03</totfact>
</mgrwt>
</event>
<event>
 5    1  0.1433395E-002  0.1250004E+03  0.7818608E-02  0.1235069E+00
          4   -1    0    0  501    0  0.00000000000E+00  0.00000000000E+00  0.51178742560E+02  0.51194497654E+02  0.12700000000E+01 0.  1.
         -4   -1    0    0    0  501 -0.00000000000E+00 -0.00000000000E+00 -0.76293363008E+02  0.76303932658E+02  0.12700000000E+01 0.  1.
         25    2    1    2    0    0  0.00000000000E+00  0.00000000000E+00 -0.25114620448E+02  0.12749843031E+03  0.12500042229E+03 0.  0.
    9000005    1    3    3    0    0 -0.46467698998E+01 -0.61587283595E+02 -0.22270772747E+02  0.65662571453E+02  0.10000000000E+01 0.  0.
    9000005    1    3    3    0    0  0.46467698998E+01  0.61587283595E+02 -0.28438477011E+01  0.61835858859E+02  0.10000000000E+01 0.  0.
<mgrwt>
<rscale>  0 0.12500042E+03</rscale>
<asrwt>0</asrwt>
<pdfrwt beam="1">  1        4 0.12797976E-01 0.12500042E+03</pdfrwt>
<pdfrwt beam="2">  1       -4 0.19076631E-01 0.12500042E+03</pdfrwt>
<totfact> 0.19699676E+03</totfact>
</mgrwt>
</event>
<event>
 5    1  0.1433395E-002  0.1250001E+03  0.7818608E-02  0.1235069E+00
         -4   -1    0    0    0  501 -0.00000000000E+00  0.00000000000E+00  0.65046758322E+02  0.65059155145E+02  0.12700000000E+01 0. -1.
          4   -1    0    0  501    0  0.00000000000E+00 -0.00000000000E+00 -0.60028179964E+02  0.60041612984E+02  0.12700000000E+01 0. -1.
         25    2    1    2    0    0  0.00000000000E+00  0.00000000000E+00  0.50185783583E+01  0.12510076813E+03  0.12500006423E+03 0.  0.
    9000005    1    3    3    0    0 -0.13144253906E+02 -0.32690864083E+02  0.54162786646E+02  0.64622530610E+02  0.10000000000E+01 0.  0.
    9000005    1    3    3    0    0  0.13144253906E+02  0.32690864083E+02 -0.49144208288E+02  0.60478237519E+02  0.10000000000E+01 0.  0.
<mgrwt>
<rscale>  0 0.12500006E+03</rscale>
<asrwt>0</asrwt>
<pdfrwt beam="2">  1        4 0.15010274E-01 0.12500006E+03</pdfrwt>
<pdfrwt beam="1">  1       -4 0.16264918E-01 0.12500006E+03</pdfrwt>
<totfact> 0.19829562E+03</totfact>
</mgrwt>
</event>
<event>
 5    1  0.1433395E-002  0.1249997E+03  0.7818608E-02  0.1235070E+00
          4   -1    0    0  501    0  0.00000000000E+00  0.00000000000E+00  0.13350715036E+03  0.13351319072E+03  0.12700000000E+01 0. -1.
         -4   -1    0    0    0  501 -0.00000000000E+00 -0.00000000000E+00 -0.29238114926E+02  0.29265684076E+02  0.12700000000E+01 0. -1.
         25    2    1    2    0    0  0.00000000000E+00  0.00000000000E+00  0.10426903543E+03  0.16277887480E+03  0.12499972132E+03 0.  0.
    9000005    1    3    3    0    0  0.50864412180E+02  0.20449419348E+02  0.13070422023E+02  0.56366684397E+02  0.10000000000E+01 0.  0.
    9000005    1    3    3    0    0 -0.50864412180E+02 -0.20449419348E+02  0.91198613409E+02  0.10641219040E+03  0.10000000000E+01 0.  0.
<mgrwt>
<rscale>  0 0.12499972E+03</rscale>
<asrwt>0</asrwt>
<pdfrwt beam="1">  1        4 0.33380988E-01 0.12499972E+03</pdfrwt>
<pdfrwt beam="2">  1       -4 0.73137301E-02 0.12499972E+03</pdfrwt>
<totfact> 0.17927871E+03</totfact>
</mgrwt>
</event>
<event>
 5    1  0.1433395E-002  0.1250192E+03  0.7818608E-02  0.1235039E+00
          4   -1    0    0  501    0  0.00000000000E+00  0.00000000000E+00  0.16487161215E+02  0.16536002689E+02  0.12700000000E+01 0.  1.
         -4   -1    0    0    0  501 -0.00000000000E+00 -0.00000000000E+00 -0.23659866413E+03  0.23660207262E+03  0.12700000000E+01 0.  1.
         25    2    1    2    0    0  0.00000000000E+00  0.00000000000E+00 -0.22011150292E+03  0.25313807531E+03  0.12501924434E+03 0.  0.
    9000005    1    3    3    0    0 -0.23349430259E+02 -0.14919914630E+02 -0.22349210679E+03  0.22520550958E+03  0.10000000000E+01 0.  0.
    9000005    1    3    3    0    0  0.23349430259E+02  0.14919914630E+02  0.33806038732E+01  0.27932565735E+02  0.10000000000E+01 0.  0.
<mgrwt>
<rscale>  0 0.12501924E+03</rscale>
<asrwt>0</asrwt>
<pdfrwt beam="1">  1        4 0.41283223E-02 0.12501924E+03</pdfrwt>
<pdfrwt beam="2">  1       -4 0.59156186E-01 0.12501924E+03</pdfrwt>
<totfact> 0.14387810E+03</totfact>
</mgrwt>
</event>
<event>
 5    1  0.1433395E-002  0.1249999E+03  0.7818608E-02  0.1235069E+00
         -4   -1    0    0    0  501 -0.00000000000E+00  0.00000000000E+00  0.33696863706E+02  0.33720787707E+02  0.12700000000E+01 0. -1.
          4   -1    0    0  501    0  0.00000000000E+00 -0.00000000000E+00 -0.11585453613E+03  0.11586149680E+03  0.12700000000E+01 0. -1.
         25    2    1    2    0    0  0.00000000000E+00  0.00000000000E+00 -0.82157672423E+02  0.14958228451E+03  0.12499990681E+03 0.  0.
    9000005    1    3    3    0    0  0.59468357793E+02  0.61159761262E+01 -0.62861761886E+02  0.86755356319E+02  0.10000000000E+01 0.  0.
    9000005    1    3    3    0    0 -0.59468357793E+02 -0.61159761262E+01 -0.19295910537E+02  0.62826928192E+02  0.10000000000E+01 0.  0.
<mgrwt>
<rscale>  0 0.12499991E+03</rscale>
<asrwt>0</asrwt>
<pdfrwt beam="2">  1        4 0.28967494E-01 0.12499991E+03</pdfrwt>
<pdfrwt beam="1">  1       -4 0.84280768E-02 0.12499991E+03</pdfrwt>
<totfact> 0.18559379E+03</totfact>
</mgrwt>
</event>
<event>
 5    1  0.1433395E-002  0.1250042E+03  0.7818608E-02  0.1235063E+00
         -4   -1    0    0    0  501 -0.00000000000E+00  0.00000000000E+00  0.19953774839E+02  0.19994149902E+02  0.12700000000E+01 0. -1.
          4   -1    0    0  501    0  0.00000000000E+00 -0.00000000000E+00 -0.19553773473E+03  0.19554185895E+03  0.12700000000E+01 0. -1.
         25    2    1    2    0    0  0.00000000000E+00  0.00000000000E+00 -0.17558395989E+03  0.21553600885E+03  0.12500417650E+03 0.  0.
    9000005    1    3    3    0    0  0.31930107197E+02  0.42234588508E+02 -0.14503588135E+03  0.15440109809E+03  0.10000000000E+01 0.  0.
    9000005    1    3    3    0    0 -0.31930107197E+02 -0.42234588508E+02 -0.30548078542E+02  0.61134910768E+02  0.10000000000E+01 0.  0.
<mgrwt>
<rscale>  0 0.12500418E+03</rscale>
<asrwt>0</asrwt>
<pdfrwt beam="2">  1        4 0.48889990E-01 0.12500418E+03</pdfrwt>
<pdfrwt beam="1">  1       -4 0.49940067E-02 0.12500418E+03</pdfrwt>
<totfact> 0.15716779E+03</totfact>
</mgrwt>
</event>
<event>
 5    1  0.1433395E-002  0.1249982E+03  0.7818608E-02  0.1235072E+00
          4   -1    0    0  501    0  0.00000000000E+00  0.00000000000E+00  0.46439626007E+02  0.46456988319E+02  0.12700000000E+01 0. -1.
         -4   -1    0    0    0  501 -0.00000000000E+00 -0.00000000000E+00 -0.84074339831E+02  0.84083931390E+02  0.12700000000E+01 0. -1.
         25    2    1    2    0    0  0.00000000000E+00  0.00000000000E+00 -0.37634713824E+02  0.13054091971E+03  0.12499824012E+03 0.  0.
    9000005    1    3    3    0    0 -0.28788539647E+02  0.41762472481E+02 -0.56935926339E+02  0.76259975287E+02  0.10000000000E+01 0.  0.
    9000005    1    3    3    0    0  0.28788539647E+02 -0.41762472481E+02  0.19301212515E+02  0.54280944421E+02  0.10000000000E+01 0.  0.
<mgrwt>
<rscale>  0 0.12499824E+03</rscale>
<asrwt>0</asrwt>
<pdfrwt beam="1">  1        4 0.11613276E-01 0.12499824E+03</pdfrwt>
<pdfrwt beam="2">  1       -4 0.21021954E-01 0.12499824E+03</pdfrwt>
<totfact> 0.19536150E+03</totfact>
</mgrwt>
</event>
<event>
 5    1  0.1433395E-002  0.1250004E+03  0.7818608E-02  0.1235069E+00
         -4   -1    0    0    0  501 -0.00000000000E+00  0.00000000000E+00  0.31032584790E+03  0.31032844661E+03  0.12700000000E+01 0.  1.
          4   -1    0    0  501    0  0.00000000000E+00 -0.00000000000E+00 -0.12552974358E+02  0.12617054539E+02  0.12700000000E+01 0.  1.
         25    2    1    2    0    0  0.00000000000E+00  0.00000000000E+00  0.29777287354E+03  0.32294550115E+03  0.12500044998E+03 0.  0.
    9000005    1    3    3    0    0 -0.62382192230E+02  0.83564348087E-01  0.13931220228E+03  0.15264479878E+03  0.10000000000E+01 0.  0.
    9000005    1    3    3    0    0  0.62382192230E+02 -0.83564348087E-01  0.15846067126E+03  0.17030070237E+03  0.10000000000E+01 0.  0.
<mgrwt>
<rscale>  0 0.12500045E+03</rscale>
<asrwt>0</asrwt>
<pdfrwt beam="2">  1        4 0.31465786E-02 0.12500045E+03</pdfrwt>
<pdfrwt beam="1">  1       -4 0.77589794E-01 0.12500045E+03</pdfrwt>
<totfact> 0.12351361E+03</totfact>
</mgrwt>
</event>
<event>
 4    1  0.1433395E-002  0.1254027E+03  0.7818608E-02  0.1234441E+00
          4   -1    0    0  501    0  0.00000000000E+00  0.00000000000E+00  0.79077644441E+02  0.79087841988E+02  0.12700000000E+01 0. -1.
         -4   -1    0    0    0  501 -0.00000000000E+00 -0.00000000000E+00 -0.49694894557E+02  0.49711119933E+02  0.12700000000E+01 0. -1.
    9000005    1    1    2    0    0 -0.43383769446E+02  0.21356740084E+02  0.55674373343E+02  0.73748882334E+02  0.10000000000E+01 0.  0.
    9000005    1    1    2    0    0  0.43383769446E+02 -0.21356740084E+02 -0.26291623460E+02  0.55050079587E+02  0.10000000000E+01 0.  0.
<mgrwt>
<rscale>  0 0.12540266E+03</rscale>
<asrwt>0</asrwt>
<pdfrwt beam="1">  1        4 0.19772714E-01 0.12540266E+03</pdfrwt>
<pdfrwt beam="2">  1       -4 0.12427027E-01 0.12540266E+03</pdfrwt>
<totfact> 0.19445816E+03</totfact>
</mgrwt>
</event>
<event>
 5    1  0.1433395E-002  0.1249982E+03  0.7818608E-02  0.1235072E+00
          4   -1    0    0  501    0  0.00000000000E+00  0.00000000000E+00  0.14562614408E+02  0.14617887618E+02  0.12700000000E+01 0. -1.
         -4   -1    0    0    0  501 -0.00000000000E+00 -0.00000000000E+00 -0.26766559832E+03  0.26766861121E+03  0.12700000000E+01 0. -1.
         25    2    1    2    0    0  0.00000000000E+00  0.00000000000E+00 -0.25310298392E+03  0.28228649883E+03  0.12499818780E+03 0.  0.
    9000005    1    3    3    0    0 -0.21191212170E+02  0.37128581885E+02 -0.23617019208E+02  0.48850411076E+02  0.10000000000E+01 0.  0.
    9000005    1    3    3    0    0  0.21191212170E+02 -0.37128581885E+02 -0.22948596471E+03  0.23343608775E+03  0.10000000000E+01 0.  0.
<mgrwt>
<rscale>  0 0.12499819E+03</rscale>
<asrwt>0</asrwt>
<pdfrwt beam="1">  1        4 0.36479402E-02 0.12499819E+03</pdfrwt>
<pdfrwt beam="2">  1       -4 0.66923670E-01 0.12499819E+03</pdfrwt>
<totfact> 0.13483008E+03</totfact>
</mgrwt>
</event>
<event>
 5    1  0.1433395E-002  0.1249991E+03  0.7818608E-02  0.1235071E+00
         -4   -1    0    0    0  501 -0.00000000000E+00  0.00000000000E+00  0.41229350826E+02  0.41248906283E+02  0.12700000000E+01 0.  1.
          4   -1    0    0  501    0  0.00000000000E+00 -0.00000000000E+00 -0.94696805043E+02  0.94705320787E+02  0.12700000000E+01 0.  1.
         25    2    1    2    0    0  0.00000000000E+00  0.00000000000E+00 -0.53467454217E+02  0.13595422707E+03  0.12499913279E+03 0.  0.
    9000005    1    3    3    0    0  0.36758289727E+02  0.41827460524E+02  0.41155762011E+01  0.55844841167E+02  0.10000000000E+01 0.  0.
    9000005    1    3    3    0    0 -0.36758289727E+02 -0.41827460524E+02 -0.57583030418E+02  0.80109385903E+02  0.10000000000E+01 0.  0.
<mgrwt>
<rscale>  0 0.12499913E+03</rscale>
<asrwt>0</asrwt>
<pdfrwt beam="2">  1        4 0.23677710E-01 0.12499913E+03</pdfrwt>
<pdfrwt beam="1">  1       -4 0.10310847E-01 0.12499913E+03</pdfrwt>
<totfact> 0.19249661E+03</totfact>
</mgrwt>
</event>
<event>
 5    1  0.1433395E-002  0.1250028E+03  0.7818608E-02  0.1235065E+00
          4   -1    0    0  501    0  0.00000000000E+00  0.00000000000E+00  0.33072579999E+02  0.33096955265E+02  0.12700000000E+01 0. -1.
         -4   -1    0    0    0  501 -0.00000000000E+00 -0.00000000000E+00 -0.11804549261E+03  0.11805232410E+03  0.12700000000E+01 0. -1.
         25    2    1    2    0    0  0.00000000000E+00  0.00000000000E+00 -0.84972912613E+02  0.15114927937E+03  0.12500283507E+03 0.  0.
    9000005    1    3    3    0    0  0.55562919845E+02  0.27978169052E+02 -0.35291030979E+02  0.71529524483E+02  0.10000000000E+01 0.  0.
    9000005    1    3    3    0    0 -0.55562919845E+02 -0.27978169052E+02 -0.49681881634E+02  0.79619754885E+02  0.10000000000E+01 0.  0.
<mgrwt>
<rscale>  0 0.12500284E+03</rscale>
<asrwt>0</asrwt>
<pdfrwt beam="1">  1        4 0.82720461E-02 0.12500284E+03</pdfrwt>
<pdfrwt beam="2">  1       -4 0.29515273E-01 0.12500284E+03</pdfrwt>
<totfact> 0.18481196E+03</totfact>
</mgrwt>
</event>
<event>
 5    1  0.1433395E-002  0.1249940E+03  0.7818608E-02  0.1235079E+00
         -4   -1    0    0    0  501 -0.00000000000E+00  0.00000000000E+00  0.41623304156E+02  0.41642674612E+02  0.12700000000E+01 0. -1.
          4   -1    0    0  501    0  0.00000000000E+00 -0.00000000000E+00 -0.93793217079E+02  0.93801814855E+02  0.12700000000E+01 0. -1.
         25    2    1    2    0    0  0.00000000000E+00  0.00000000000E+00 -0.52169912923E+02  0.13544448947E+03  0.12499403951E+03 0.  0.
    9000005    1    3    3    0    0  0.47834189469E+02 -0.34311401217E+02 -0.48801867341E+02  0.76472244583E+02  0.10000000000E+01 0.  0.
    9000005    1    3    3    0    0 -0.47834189469E+02  0.34311401217E+02 -0.33680455827E+01  0.58972244884E+02  0.10000000000E+01 0.  0.
<mgrwt>
<rscale>  0 0.12499404E+03</rscale>
<asrwt>0</asrwt>
<pdfrwt beam="2">  1        4 0.23451800E-01 0.12499404E+03</pdfrwt>
<pdfrwt beam="1">  1       -4 0.10409322E-01 0.12499404E+03</pdfrwt>
<totfact> 0.19278561E+03</totfact>
</mgrwt>
</event>
<event>
 5    1  0.1433395E-002  0.1249998E+03  0.7818608E-02  0.1235070E+00
         -4   -1    0    0    0  501 -0.00000000000E+00  0.00000000000E+00  0.30116998343E+03  0.30117266114E+03  0.12700000000E+01 0.  1.
          4   -1    0    0  501    0  0.00000000000E+00 -0.00000000000E+00 -0.12936381887E+02  0.12998572088E+02  0.12700000000E+01 0.  1.
         25    2    1    2    0    0  0.00000000000E+00  0.00000000000E+00  0.28823360154E+03  0.31417123323E+03  0.12499981892E+03 0.  0.
    9000005    1    3    3    0    0 -0.29222659906E-01 -0.43018753233E+02  0.25804291510E+03  0.26160611617E+03  0.10000000000E+01 0.  0.
    9000005    1    3    3    0    0  0.29222659906E-01  0.43018753233E+02  0.30190686442E+02  0.52565117060E+02  0.10000000000E+01 0.  0.
<mgrwt>
<rscale>  0 0.12499982E+03</rscale>
<asrwt>0</asrwt>
<pdfrwt beam="2">  1        4 0.32422041E-02 0.12499982E+03</pdfrwt>
<pdfrwt beam="1">  1       -4 0.75300602E-01 0.12499982E+03</pdfrwt>
<totfact> 0.12583026E+03</totfact>
</mgrwt>
</event>
<event>
 5    1  0.1433395E-002  0.1250001E+03  0.7818608E-02  0.1235069E+00
          4   -1    0    0  501    0  0.00000000000E+00  0.00000000000E+00  0.70052727613E+03  0.70052842734E+03  0.12700000000E+01 0.  1.
         -4   -1    0    0    0  501 -0.00000000000E+00 -0.00000000000E+00 -0.55026841313E+01  0.56473385456E+01  0.12700000000E+01 0.  1.
         25    2    1    2    0    0  0.00000000000E+00  0.00000000000E+00  0.69502459200E+03  0.70617576588E+03  0.12500011533E+03 0.  0.
    9000005    1    3    3    0    0  0.39710913122E+02  0.47334577113E+02  0.29459504898E+03  0.30100624860E+03  0.10000000000E+01 0.  0.
    9000005    1    3    3    0    0 -0.39710913122E+02 -0.47334577113E+02  0.40042954302E+03  0.40516951728E+03  0.10000000000E+01 0.  0.
<mgrwt>
<rscale>  0 0.12500012E+03</rscale>
<asrwt>0</asrwt>
<pdfrwt beam="1">  1        4 0.17515007E+00 0.12500012E+03</pdfrwt>
<pdfrwt beam="2">  1       -4 0.13938965E-02 0.12500012E+03</pdfrwt>
<totfact> 0.61423993E+02</totfact>
</mgrwt>
</event>
<event>
 5    1  0.1433395E-002  0.1250008E+03  0.7818608E-02  0.1235068E+00
         -4   -1    0    0    0  501 -0.00000000000E+00  0.00000000000E+00  0.23011291510E+02  0.23046310702E+02  0.12700000000E+01 0.  1.
          4   -1    0    0  501    0  0.00000000000E+00 -0.00000000000E+00 -0.16958919751E+03  0.16959395276E+03  0.12700000000E+01 0.  1.
         25    2    1    2    0    0  0.00000000000E+00  0.00000000000E+00 -0.14657790600E+03  0.19264026346E+03  0.12500075431E+03 0.  0.
    9000005    1    3    3    0    0 -0.13748506299E+02 -0.45949635370E+02 -0.11549990266E+02  0.49343618546E+02  0.10000000000E+01 0.  0.
    9000005    1    3    3    0    0  0.13748506299E+02  0.45949635370E+02 -0.13502791574E+03  0.14329664492E+03  0.10000000000E+01 0.  0.
<mgrwt>
<rscale>  0 0.12500075E+03</rscale>
<asrwt>0</asrwt>
<pdfrwt beam="2">  1        4 0.42402268E-01 0.12500075E+03</pdfrwt>
<pdfrwt beam="1">  1       -4 0.57577952E-02 0.12500075E+03</pdfrwt>
<totfact> 0.16620751E+03</totfact>
</mgrwt>
</event>
<event>
 5    1  0.1433395E-002  0.1249980E+03  0.7818608E-02  0.1235072E+00
          4   -1    0    0  501    0  0.00000000000E+00  0.00000000000E+00  0.57519142957E+02  0.57533161799E+02  0.12700000000E+01 0. -1.
         -4   -1    0    0    0  501 -0.00000000000E+00 -0.00000000000E+00 -0.67881770174E+02  0.67893649349E+02  0.12700000000E+01 0. -1.
         25    2    1    2    0    0  0.00000000000E+00  0.00000000000E+00 -0.10362627216E+02  0.12542681115E+03  0.12499800363E+03 0.  0.
    9000005    1    3    3    0    0  0.40890653972E+02 -0.37200740173E+02 -0.34422053177E+02  0.65129243790E+02  0.10000000000E+01 0.  0.
    9000005    1    3    3    0    0 -0.40890653972E+02  0.37200740173E+02  0.24059425961E+02  0.60297567358E+02  0.10000000000E+01 0.  0.
<mgrwt>
<rscale>  0 0.12499800E+03</rscale>
<asrwt>0</asrwt>
<pdfrwt beam="1">  1        4 0.14383023E-01 0.12499800E+03</pdfrwt>
<pdfrwt beam="2">  1       -4 0.16973680E-01 0.12499800E+03</pdfrwt>
<totfact> 0.19812851E+03</totfact>
</mgrwt>
</event>
<event>
 5    1  0.1433395E-002  0.1249965E+03  0.7818608E-02  0.1235075E+00
         -4   -1    0    0    0  501 -0.00000000000E+00  0.00000000000E+00  0.13644375352E+03  0.13644966389E+03  0.12700000000E+01 0.  1.
          4   -1    0    0  501    0  0.00000000000E+00 -0.00000000000E+00 -0.28606800859E+02  0.28634977831E+02  0.12700000000E+01 0.  1.
         25    2    1    2    0    0  0.00000000000E+00  0.00000000000E+00  0.10783695266E+03  0.16508464172E+03  0.12499652224E+03 0.  0.
    9000005    1    3    3    0    0 -0.34579062484E+02 -0.24687219141E+02  0.11443920511E+03  0.12207580439E+03  0.10000000000E+01 0.  0.
    9000005    1    3    3    0    0  0.34579062484E+02  0.24687219141E+02 -0.66022524456E+01  0.43008837331E+02  0.10000000000E+01 0.  0.
<mgrwt>
<rscale>  0 0.12499652E+03</rscale>
<asrwt>0</asrwt>
<pdfrwt beam="2">  1        4 0.71559613E-02 0.12499652E+03</pdfrwt>
<pdfrwt beam="1">  1       -4 0.34115199E-01 0.12499652E+03</pdfrwt>
<totfact> 0.17822496E+03</totfact>
</mgrwt>
</event>
<event>
 5    1  0.1433395E-002  0.1249961E+03  0.7818608E-02  0.1235075E+00
          4   -1    0    0  501    0  0.00000000000E+00  0.00000000000E+00  0.27627986264E+02  0.27657160465E+02  0.12700000000E+01 0.  1.
         -4   -1    0    0    0  501 -0.00000000000E+00 -0.00000000000E+00 -0.14127204415E+03  0.14127775253E+03  0.12700000000E+01 0.  1.
         25    2    1    2    0    0  0.00000000000E+00  0.00000000000E+00 -0.11364405789E+03  0.16893491299E+03  0.12499613168E+03 0.  0.
    9000005    1    3    3    0    0 -0.39256678478E+02 -0.47661403257E+02 -0.43836726190E+02  0.75732124812E+02  0.10000000000E+01 0.  0.
    9000005    1    3    3    0    0  0.39256678478E+02  0.47661403257E+02 -0.69807331698E+02  0.93202788179E+02  0.10000000000E+01 0.  0.
<mgrwt>
<rscale>  0 0.12499613E+03</rscale>
<asrwt>0</asrwt>
<pdfrwt beam="1">  1        4 0.69113573E-02 0.12499613E+03</pdfrwt>
<pdfrwt beam="2">  1       -4 0.35322369E-01 0.12499613E+03</pdfrwt>
<totfact> 0.17646779E+03</totfact>
</mgrwt>
</event>
<event>
 5    1  0.1433395E-002  0.1250052E+03  0.7818608E-02  0.1235061E+00
         -4   -1    0    0    0  501 -0.00000000000E+00  0.00000000000E+00  0.57216090576E+02  0.57230183651E+02  0.12700000000E+01 0. -1.
          4   -1    0    0  501    0  0.00000000000E+00 -0.00000000000E+00 -0.68249132082E+02  0.68260947327E+02  0.12700000000E+01 0. -1.
         25    2    1    2    0    0  0.00000000000E+00  0.00000000000E+00 -0.11033041506E+02  0.12549113098E+03  0.12500518369E+03 0.  0.
    9000005    1    3    3    0    0 -0.58494140586E+02  0.14744950732E+02  0.10874717769E+02  0.61304465918E+02  0.10000000000E+01 0.  0.
    9000005    1    3    3    0    0  0.58494140586E+02 -0.14744950732E+02 -0.21907759276E+02  0.64186665060E+02  0.10000000000E+01 0.  0.
<mgrwt>
<rscale>  0 0.12500518E+03</rscale>
<asrwt>0</asrwt>
<pdfrwt beam="2">  1        4 0.17065522E-01 0.12500518E+03</pdfrwt>
<pdfrwt beam="1">  1       -4 0.14307261E-01 0.12500518E+03</pdfrwt>
<totfact> 0.19806042E+03</totfact>
</mgrwt>
</event>
<event>
 5    1  0.1433395E-002  0.1249918E+03  0.7818608E-02  0.1235082E+00
         -4   -1    0    0    0  501 -0.00000000000E+00  0.00000000000E+00  0.56033320213E+03  0.56033464136E+03  0.12700000000E+01 0.  1.
          4   -1    0    0  501    0  0.00000000000E+00 -0.00000000000E+00 -0.69110799054E+01  0.70268005137E+01  0.12700000000E+01 0.  1.
         25    2    1    2    0    0  0.00000000000E+00  0.00000000000E+00  0.55342212222E+03  0.56736144187E+03  0.12499184117E+03 0.  0.
    9000005    1    3    3    0    0 -0.17685906379E+02 -0.70942529013E+01  0.54684500320E+03  0.54717782963E+03  0.10000000000E+01 0.  0.
    9000005    1    3    3    0    0  0.17685906379E+02  0.70942529013E+01  0.65771190208E+01  0.20183612246E+02  0.10000000000E+01 0.  0.
<mgrwt>
<rscale>  0 0.12499184E+03</rscale>
<asrwt>0</asrwt>
<pdfrwt beam="2">  1        4 0.17424154E-02 0.12499184E+03</pdfrwt>
<pdfrwt beam="1">  1       -4 0.14009791E+00 0.12499184E+03</pdfrwt>
<totfact> 0.77783648E+02</totfact>
</mgrwt>
</event>
<event>
 5    1  0.1433395E-002  0.1249741E+03  0.7818608E-02  0.1235110E+00
         -4   -1    0    0    0  501 -0.00000000000E+00  0.00000000000E+00  0.61678267212E+02  0.61691340935E+02  0.12700000000E+01 0. -1.
          4   -1    0    0  501    0  0.00000000000E+00 -0.00000000000E+00 -0.63280328001E+02  0.63293070805E+02  0.12700000000E+01 0. -1.
         25    2    1    2    0    0  0.00000000000E+00  0.00000000000E+00 -0.16020607885E+01  0.12498441174E+03  0.12497414364E+03 0.  0.
    9000005    1    3    3    0    0  0.28208665285E+02 -0.44414873976E+02 -0.34496888731E+02  0.62924122239E+02  0.10000000000E+01 0.  0.
    9000005    1    3    3    0    0 -0.28208665285E+02  0.44414873976E+02  0.32894827942E+02  0.62060289500E+02  0.10000000000E+01 0.  0.
<mgrwt>
<rscale>  0 0.12497414E+03</rscale>
<asrwt>0</asrwt>
<pdfrwt beam="2">  1        4 0.15823309E-01 0.12497414E+03</pdfrwt>
<pdfrwt beam="1">  1       -4 0.15422794E-01 0.12497414E+03</pdfrwt>
<totfact> 0.19847906E+03</totfact>
</mgrwt>
</event>
<event>
 5    1  0.1433395E-002  0.1249999E+03  0.7818608E-02  0.1235069E+00
          4   -1    0    0  501    0  0.00000000000E+00  0.00000000000E+00  0.76266577469E+03  0.76266683210E+03  0.12700000000E+01 0. -1.
         -4   -1    0    0    0  501 -0.00000000000E+00 -0.00000000000E+00 -0.50420233430E+01  0.51995095337E+01  0.12700000000E+01 0. -1.
         25    2    1    2    0    0  0.00000000000E+00  0.00000000000E+00  0.75762375135E+03  0.76786634163E+03  0.12499988003E+03 0.  0.
    9000005    1    3    3    0    0  0.58255231369E+02 -0.22580722607E+02  0.38677755336E+03  0.39179259411E+03  0.10000000000E+01 0.  0.
    9000005    1    3    3    0    0 -0.58255231369E+02  0.22580722607E+02  0.37084619799E+03  0.37607374753E+03  0.10000000000E+01 0.  0.
<mgrwt>
<rscale>  0 0.12499988E+03</rscale>
<asrwt>0</asrwt>
<pdfrwt beam="1">  1        4 0.19068635E+00 0.12499988E+03</pdfrwt>
<pdfrwt beam="2">  1       -4 0.12803232E-02 0.12499988E+03</pdfrwt>
<totfact> 0.55390120E+02</totfact>
</mgrwt>
</event>
<event>
 5    1  0.1433395E-002  0.1249990E+03  0.7818608E-02  0.1235071E+00
         -4   -1    0    0    0  501 -0.00000000000E+00  0.00000000000E+00  0.37020257092E+02  0.37042034706E+02  0.12700000000E+01 0.  1.
          4   -1    0    0  501    0  0.00000000000E+00 -0.00000000000E+00 -0.10545823159E+03  0.10546587842E+03  0.12700000000E+01 0.  1.
         25    2    1    2    0    0  0.00000000000E+00  0.00000000000E+00 -0.68437974499E+02  0.14250791312E+03  0.12499899579E+03 0.  0.
    9000005    1    3    3    0    0  0.17682285838E+02 -0.53752312827E+02 -0.64451612567E+02  0.85772867092E+02  0.10000000000E+01 0.  0.
    9000005    1    3    3    0    0 -0.17682285838E+02  0.53752312827E+02 -0.39863619322E+01  0.56735046032E+02  0.10000000000E+01 0.  0.
<mgrwt>
<rscale>  0 0.12499900E+03</rscale>
<asrwt>0</asrwt>
<pdfrwt beam="2">  1        4 0.26368235E-01 0.12499900E+03</pdfrwt>
<pdfrwt beam="1">  1       -4 0.92587426E-02 0.12499900E+03</pdfrwt>
<totfact> 0.18913211E+03</totfact>
</mgrwt>
</event>
<event>
 5    1  0.1433395E-002  0.1250012E+03  0.7818608E-02  0.1235067E+00
         -4   -1    0    0    0  501 -0.00000000000E+00  0.00000000000E+00  0.15139729293E+02  0.15192903049E+02  0.12700000000E+01 0. -1.
          4   -1    0    0  501    0  0.00000000000E+00 -0.00000000000E+00 -0.25751107774E+03  0.25751420943E+03  0.12700000000E+01 0. -1.
         25    2    1    2    0    0  0.00000000000E+00  0.00000000000E+00 -0.24237134844E+03  0.27270711248E+03  0.12500119459E+03 0.  0.
    9000005    1    3    3    0    0  0.14367154527E+02  0.59794119319E+02 -0.96933884495E+02  0.11479952002E+03  0.10000000000E+01 0.  0.
    9000005    1    3    3    0    0 -0.14367154527E+02 -0.59794119319E+02 -0.14543746395E+03  0.15790759245E+03  0.10000000000E+01 0.  0.
<mgrwt>
<rscale>  0 0.12500119E+03</rscale>
<asrwt>0</asrwt>
<pdfrwt beam="2">  1        4 0.64384793E-01 0.12500119E+03</pdfrwt>
<pdfrwt beam="1">  1       -4 0.37919713E-02 0.12500119E+03</pdfrwt>
<totfact> 0.13771632E+03</totfact>
</mgrwt>
</event>
<event>
 5    1  0.1433395E-002  0.1249970E+03  0.7818608E-02  0.1235074E+00
         -4   -1    0    0    0  501 -0.00000000000E+00  0.00000000000E+00  0.78331490572E+02  0.78341785244E+02  0.12700000000E+01 0. -1.
          4   -1    0    0  501    0  0.00000000000E+00 -0.00000000000E+00 -0.49844124245E+02  0.49860301059E+02  0.12700000000E+01 0. -1.
         25    2    1    2    0    0  0.00000000000E+00  0.00000000000E+00  0.28487366327E+02  0.12820208630E+03  0.12499697953E+03 0.  0.
    9000005    1    3    3    0    0  0.46245165656E+02 -0.21079607054E+02 -0.23049295847E+02  0.55814292248E+02  0.10000000000E+01 0.  0.
    9000005    1    3    3    0    0 -0.46245165656E+02  0.21079607054E+02  0.51536662174E+02  0.72387794055E+02  0.10000000000E+01 0.  0.
<mgrwt>
<rscale>  0 0.12499698E+03</rscale>
<asrwt>0</asrwt>
<pdfrwt beam="2">  1        4 0.12464340E-01 0.12499698E+03</pdfrwt>
<pdfrwt beam="1">  1       -4 0.19586181E-01 0.12499698E+03</pdfrwt>
<totfact> 0.19662932E+03</totfact>
</mgrwt>
</event>
<event>
 5    1  0.1433395E-002  0.1250009E+03  0.7818608E-02  0.1235068E+00
          4   -1    0    0  501    0  0.00000000000E+00  0.00000000000E+00  0.74428951311E+01  0.75504693849E+01  0.12700000000E+01 0. -1.
         -4   -1    0    0    0  501 -0.00000000000E+00 -0.00000000000E+00 -0.52096329397E+03  0.52096484197E+03  0.12700000000E+01 0. -1.
         25    2    1    2    0    0  0.00000000000E+00  0.00000000000E+00 -0.51352039884E+03  0.52851531135E+03  0.12500093723E+03 0.  0.
    9000005    1    3    3    0    0 -0.43898458931E+01  0.28630518286E+02 -0.49088846022E+03  0.49174328435E+03  0.10000000000E+01 0.  0.
    9000005    1    3    3    0    0  0.43898458931E+01 -0.28630518286E+02 -0.22631938623E+02  0.36772027006E+02  0.10000000000E+01 0.  0.
<mgrwt>
<rscale>  0 0.12500094E+03</rscale>
<asrwt>0</asrwt>
<pdfrwt beam="1">  1        4 0.18743658E-02 0.12500094E+03</pdfrwt>
<pdfrwt beam="2">  1       -4 0.13025434E+00 0.12500094E+03</pdfrwt>
<totfact> 0.83241357E+02</totfact>
</mgrwt>
</event>
<event>
 5    1  0.1433395E-002  0.1249977E+03  0.7818608E-02  0.1235073E+00
          4   -1    0    0  501    0  0.00000000000E+00  0.00000000000E+00  0.10572341974E+03  0.10573104739E+03  0.12700000000E+01 0. -1.
         -4   -1    0    0    0  501 -0.00000000000E+00 -0.00000000000E+00 -0.36926598442E+02  0.36948431259E+02  0.12700000000E+01 0. -1.
         25    2    1    2    0    0  0.00000000000E+00  0.00000000000E+00  0.68796821302E+02  0.14267947865E+03  0.12499772400E+03 0.  0.
    9000005    1    3    3    0    0  0.53451828330E+02  0.30238061876E+02  0.47595417134E+02  0.77703037714E+02  0.10000000000E+01 0.  0.
    9000005    1    3    3    0    0 -0.53451828330E+02 -0.30238061876E+02  0.21201404168E+02  0.64976440935E+02  0.10000000000E+01 0.  0.
<mgrwt>
<rscale>  0 0.12499772E+03</rscale>
<asrwt>0</asrwt>
<pdfrwt beam="1">  1        4 0.26434537E-01 0.12499772E+03</pdfrwt>
<pdfrwt beam="2">  1       -4 0.92353322E-02 0.12499772E+03</pdfrwt>
<totfact> 0.18905096E+03</totfact>
</mgrwt>
</event>
<event>
 5    1  0.1433395E-002  0.1250039E+03  0.7818608E-02  0.1235063E+00
         -4   -1    0    0    0  501 -0.00000000000E+00  0.00000000000E+00  0.12516504009E+03  0.12517148302E+03  0.12700000000E+01 0. -1.
          4   -1    0    0  501    0  0.00000000000E+00 -0.00000000000E+00 -0.31190568700E+02  0.31216413564E+02  0.12700000000E+01 0. -1.
         25    2    1    2    0    0  0.00000000000E+00  0.00000000000E+00  0.93974471392E+02  0.15638789658E+03  0.12500389164E+03 0.  0.
    9000005    1    3    3    0    0  0.50582077963E+02  0.31921381122E+02  0.24330464435E+02  0.64579351835E+02  0.10000000000E+01 0.  0.
    9000005    1    3    3    0    0 -0.50582077963E+02 -0.31921381122E+02  0.69644006957E+02  0.91808544748E+02  0.10000000000E+01 0.  0.
<mgrwt>
<rscale>  0 0.12500389E+03</rscale>
<asrwt>0</asrwt>
<pdfrwt beam="2">  1        4 0.78016783E-02 0.12500389E+03</pdfrwt>
<pdfrwt beam="1">  1       -4 0.31295295E-01 0.12500389E+03</pdfrwt>
<totfact> 0.18227432E+03</totfact>
</mgrwt>
</event>
<event>
 5    1  0.1433395E-002  0.1250030E+03  0.7818608E-02  0.1235065E+00
         -4   -1    0    0    0  501 -0.00000000000E+00  0.00000000000E+00  0.21910065913E+02  0.21946842331E+02  0.12700000000E+01 0.  1.
          4   -1    0    0  501    0  0.00000000000E+00 -0.00000000000E+00 -0.17810550029E+03  0.17811002816E+03  0.12700000000E+01 0.  1.
         25    2    1    2    0    0  0.00000000000E+00  0.00000000000E+00 -0.15619543437E+03  0.20005687050E+03  0.12500295082E+03 0.  0.
    9000005    1    3    3    0    0 -0.38150172400E+01  0.31589745333E+02  0.79828312416E+01  0.32820602696E+02  0.10000000000E+01 0.  0.
    9000005    1    3    3    0    0  0.38150172400E+01 -0.31589745333E+02 -0.16417826562E+03  0.16723626780E+03  0.10000000000E+01 0.  0.
<mgrwt>
<rscale>  0 0.12500295E+03</rscale>
<asrwt>0</asrwt>
<pdfrwt beam="2">  1        4 0.44531534E-01 0.12500295E+03</pdfrwt>
<pdfrwt beam="1">  1       -4 0.54826800E-02 0.12500295E+03</pdfrwt>
<totfact> 0.16318651E+03</totfact>
</mgrwt>
</event>
<event>
 5    1  0.1433395E-002  0.1250015E+03  0.7818608E-02  0.1235067E+00
         -4   -1    0    0    0  501 -0.00000000000E+00  0.00000000000E+00  0.58060732745E+02  0.58074620850E+02  0.12700000000E+01 0. -1.
          4   -1    0    0  501    0  0.00000000000E+00 -0.00000000000E+00 -0.67252345462E+02  0.67264335797E+02  0.12700000000E+01 0. -1.
         25    2    1    2    0    0  0.00000000000E+00  0.00000000000E+00 -0.91916127173E+01  0.12533895665E+03  0.12500147323E+03 0.  0.
    9000005    1    3    3    0    0 -0.87983227949E+01  0.60521687541E+02 -0.17477940760E+02  0.63614177350E+02  0.10000000000E+01 0.  0.
    9000005    1    3    3    0    0  0.87983227949E+01 -0.60521687541E+02  0.82863280424E+01  0.61724779297E+02  0.10000000000E+01 0.  0.
<mgrwt>
<rscale>  0 0.12500147E+03</rscale>
<asrwt>0</asrwt>
<pdfrwt beam="2">  1        4 0.16816321E-01 0.12500147E+03</pdfrwt>
<pdfrwt beam="1">  1       -4 0.14518418E-01 0.12500147E+03</pdfrwt>
<totfact> 0.19816001E+03</totfact>
</mgrwt>
</event>
<event>
 5    1  0.1433395E-002  0.1250013E+03  0.7818608E-02  0.1235067E+00
          4   -1    0    0  501    0  0.00000000000E+00  0.00000000000E+00  0.10987632890E+02  0.11060785530E+02  0.12700000000E+01 0. -1.
         -4   -1    0    0    0  501 -0.00000000000E+00 -0.00000000000E+00 -0.35426673126E+03  0.35426900765E+03  0.12700000000E+01 0. -1.
         25    2    1    2    0    0  0.00000000000E+00  0.00000000000E+00 -0.34327909837E+03  0.36532979318E+03  0.12500127361E+03 0.  0.
    9000005    1    3    3    0    0 -0.46369096911E+02 -0.20515084348E+02 -0.64879583800E+02  0.82348784012E+02  0.10000000000E+01 0.  0.
    9000005    1    3    3    0    0  0.46369096911E+02  0.20515084348E+02 -0.27839951457E+03  0.28298100917E+03  0.10000000000E+01 0.  0.
<mgrwt>
<rscale>  0 0.12500127E+03</rscale>
<asrwt>0</asrwt>
<pdfrwt beam="1">  1        4 0.27563380E-02 0.12500127E+03</pdfrwt>
<pdfrwt beam="2">  1       -4 0.88576074E-01 0.12500127E+03</pdfrwt>
<totfact> 0.11319725E+03</totfact>
</mgrwt>
</event>
<event>
 5    1  0.1433395E-002  0.1250009E+03  0.7818608E-02  0.1235068E+00
         -4   -1    0    0    0  501 -0.00000000000E+00  0.00000000000E+00  0.16305021298E+03  0.16305515893E+03  0.12700000000E+01 0.  1.
          4   -1    0    0  501    0  0.00000000000E+00 -0.00000000000E+00 -0.23935551919E+02  0.23969220798E+02  0.12700000000E+01 0.  1.
         25    2    1    2    0    0  0.00000000000E+00  0.00000000000E+00  0.13911466106E+03  0.18702437973E+03  0.12500091876E+03 0.  0.
    9000005    1    3    3    0    0 -0.54852414369E+02  0.21511327962E+02  0.10071903444E+03  0.11669125285E+03  0.10000000000E+01 0.  0.
    9000005    1    3    3    0    0  0.54852414369E+02 -0.21511327962E+02  0.38395626621E+02  0.70333126878E+02  0.10000000000E+01 0.  0.
<mgrwt>
<rscale>  0 0.12500092E+03</rscale>
<asrwt>0</asrwt>
<pdfrwt beam="2">  1        4 0.59887150E-02 0.12500092E+03</pdfrwt>
<pdfrwt beam="1">  1       -4 0.40767379E-01 0.12500092E+03</pdfrwt>
<totfact> 0.16854780E+03</totfact>
</mgrwt>
</event>
<event>
 5    1  0.1433395E-002  0.1250023E+03  0.7818608E-02  0.1235066E+00
          4   -1    0    0  501    0  0.00000000000E+00  0.00000000000E+00  0.44997022588E+02  0.45014941317E+02  0.12700000000E+01 0.  1.
         -4   -1    0    0    0  501 -0.00000000000E+00 -0.00000000000E+00 -0.86774698101E+02  0.86783991211E+02  0.12700000000E+01 0.  1.
         25    2    1    2    0    0  0.00000000000E+00  0.00000000000E+00 -0.41777675513E+02  0.13179893253E+03  0.12500233776E+03 0.  0.
    9000005    1    3    3    0    0 -0.10229120237E+02 -0.59702780525E+01 -0.85585666797E+02  0.86407091618E+02  0.10000000000E+01 0.  0.
    9000005    1    3    3    0    0  0.10229120237E+02  0.59702780525E+01  0.43807991284E+02  0.45391840910E+02  0.10000000000E+01 0.  0.
<mgrwt>
<rscale>  0 0.12500234E+03</rscale>
<asrwt>0</asrwt>
<pdfrwt beam="1">  1        4 0.11252657E-01 0.12500234E+03</pdfrwt>
<pdfrwt beam="2">  1       -4 0.21697076E-01 0.12500234E+03</pdfrwt>
<totfact> 0.19467090E+03</totfact>
</mgrwt>
</event>
<event>
 5    1  0.1433395E-002  0.1250019E+03  0.7818608E-02  0.1235066E+00
          4   -1    0    0  501    0  0.00000000000E+00  0.00000000000E+00  0.36658543516E+02  0.36680535883E+02  0.12700000000E+01 0.  1.
         -4   -1    0    0    0  501 -0.00000000000E+00 -0.00000000000E+00 -0.10650325131E+03  0.10651082311E+03  0.12700000000E+01 0.  1.
         25    2    1    2    0    0  0.00000000000E+00  0.00000000000E+00 -0.69844707798E+02  0.14319135900E+03  0.12500192832E+03 0.  0.
    9000005    1    3    3    0    0 -0.54930661397E+02 -0.29759497489E+02 -0.33160619880E+02  0.70736355314E+02  0.10000000000E+01 0.  0.
    9000005    1    3    3    0    0  0.54930661397E+02  0.29759497489E+02 -0.36684087918E+02  0.72455003683E+02  0.10000000000E+01 0.  0.
<mgrwt>
<rscale>  0 0.12500193E+03</rscale>
<asrwt>0</asrwt>
<pdfrwt beam="1">  1        4 0.91683316E-02 0.12500193E+03</pdfrwt>
<pdfrwt beam="2">  1       -4 0.26629508E-01 0.12500193E+03</pdfrwt>
<totfact> 0.18877402E+03</totfact>
</mgrwt>
</event>
<event>
 5    1  0.1433395E-002  0.1250029E+03  0.7818608E-02  0.1235065E+00
          4   -1    0    0  501    0  0.00000000000E+00  0.00000000000E+00  0.11340466116E+03  0.11341177220E+03  0.12700000000E+01 0. -1.
         -4   -1    0    0    0  501 -0.00000000000E+00 -0.00000000000E+00 -0.34426944683E+02  0.34450361685E+02  0.12700000000E+01 0. -1.
         25    2    1    2    0    0  0.00000000000E+00  0.00000000000E+00  0.78977716479E+02  0.14786213388E+03  0.12500292371E+03 0.  0.
    9000005    1    3    3    0    0 -0.35093558677E+01 -0.59573031430E+02  0.17544444295E+02  0.62209880068E+02  0.10000000000E+01 0.  0.
    9000005    1    3    3    0    0  0.35093558677E+01  0.59573031430E+02  0.61433272184E+02  0.85652253815E+02  0.10000000000E+01 0.  0.
<mgrwt>
<rscale>  0 0.12500292E+03</rscale>
<asrwt>0</asrwt>
<pdfrwt beam="1">  1        4 0.28354981E-01 0.12500292E+03</pdfrwt>
<pdfrwt beam="2">  1       -4 0.86105523E-02 0.12500292E+03</pdfrwt>
<totfact> 0.18643133E+03</totfact>
</mgrwt>
</event>
<event>
 5    1  0.1433395E-002  0.1250042E+03  0.7818608E-02  0.1235063E+00
         -4   -1    0    0    0  501 -0.00000000000E+00  0.00000000000E+00  0.15727913945E+03  0.15728426687E+03  0.12700000000E+01 0.  1.
          4   -1    0    0  501    0  0.00000000000E+00 -0.00000000000E+00 -0.24816333290E+02  0.24848808783E+02  0.12700000000E+01 0.  1.
         25    2    1    2    0    0  0.00000000000E+00  0.00000000000E+00  0.13246280616E+03  0.18213307565E+03  0.12500424886E+03 0.  0.
    9000005    1    3    3    0    0  0.27415544472E+02 -0.10774357120E+02  0.14653681792E+03  0.14947152858E+03  0.10000000000E+01 0.  0.
    9000005    1    3    3    0    0 -0.27415544472E+02  0.10774357120E+02 -0.14074011764E+02  0.32661547073E+02  0.10000000000E+01 0.  0.
<mgrwt>
<rscale>  0 0.12500425E+03</rscale>
<asrwt>0</asrwt>
<pdfrwt beam="2">  1        4 0.62087838E-02 0.12500425E+03</pdfrwt>
<pdfrwt beam="1">  1       -4 0.39324484E-01 0.12500425E+03</pdfrwt>
<totfact> 0.17061603E+03</totfact>
</mgrwt>
</event>
<event>
 5    1  0.1433395E-002  0.1250014E+03  0.7818608E-02  0.1235067E+00
         -4   -1    0    0    0  501 -0.00000000000E+00  0.00000000000E+00  0.43693372194E+02  0.43711825330E+02  0.12700000000E+01 0. -1.
          4   -1    0    0  501    0  0.00000000000E+00 -0.00000000000E+00 -0.89361532433E+02  0.89370556554E+02  0.12700000000E+01 0. -1.
         25    2    1    2    0    0  0.00000000000E+00  0.00000000000E+00 -0.45668160239E+02  0.13308238188E+03  0.12500135803E+03 0.  0.
    9000005    1    3    3    0    0  0.51585103231E+02 -0.34315245776E+02 -0.31534009719E+02  0.69526633293E+02  0.10000000000E+01 0.  0.
    9000005    1    3    3    0    0 -0.51585103231E+02  0.34315245776E+02 -0.14134150521E+02  0.63555748592E+02  0.10000000000E+01 0.  0.
<mgrwt>
<rscale>  0 0.12500136E+03</rscale>
<asrwt>0</asrwt>
<pdfrwt beam="2">  1        4 0.22343817E-01 0.12500136E+03</pdfrwt>
<pdfrwt beam="1">  1       -4 0.10926778E-01 0.12500136E+03</pdfrwt>
<totfact> 0.19399442E+03</totfact>
</mgrwt>
</event>
<event>
 5    1  0.1433395E-002  0.1250006E+03  0.7818608E-02  0.1235068E+00
         -4   -1    0    0    0  501 -0.00000000000E+00  0.00000000000E+00  0.38231982239E+03  0.38232193174E+03  0.12700000000E+01 0.  1.
          4   -1    0    0  501    0  0.00000000000E+00 -0.00000000000E+00 -0.10175715907E+02  0.10254662073E+02  0.12700000000E+01 0.  1.
         25    2    1    2    0    0  0.00000000000E+00  0.00000000000E+00  0.37214410648E+03  0.39257659382E+03  0.12500058409E+03 0.  0.
    9000005    1    3    3    0    0  0.36523237214E+02  0.34389818844E+02  0.30310643142E+03  0.30723137090E+03  0.10000000000E+01 0.  0.
    9000005    1    3    3    0    0 -0.36523237214E+02 -0.34389818844E+02  0.69037675063E+02  0.85345222917E+02  0.10000000000E+01 0.  0.
<mgrwt>
<rscale>  0 0.12500058E+03</rscale>
<asrwt>0</asrwt>
<pdfrwt beam="2">  1        4 0.25540612E-02 0.12500058E+03</pdfrwt>
<pdfrwt beam="1">  1       -4 0.95590078E-01 0.12500058E+03</pdfrwt>
<totfact> 0.10723581E+03</totfact>
</mgrwt>
</event>
<event>
 5    1  0.1433395E-002  0.1250058E+03  0.7818608E-02  0.1235060E+00
          4   -1    0    0  501    0  0.00000000000E+00  0.00000000000E+00  0.55059150583E+02  0.55073795610E+02  0.12700000000E+01 0. -1.
         -4   -1    0    0    0  501 -0.00000000000E+00 -0.00000000000E+00 -0.70923214901E+02  0.70934584737E+02  0.12700000000E+01 0. -1.
         25    2    1    2    0    0  0.00000000000E+00  0.00000000000E+00 -0.15864064318E+02  0.12600838035E+03  0.12500577339E+03 0.  0.
    9000005    1    3    3    0    0  0.62125723892E+01 -0.48773739859E+02 -0.46817813390E+02  0.67899789441E+02  0.10000000000E+01 0.  0.
    9000005    1    3    3    0    0 -0.62125723892E+01  0.48773739859E+02  0.30953749072E+02  0.58108590906E+02  0.10000000000E+01 0.  0.
<mgrwt>
<rscale>  0 0.12500577E+03</rscale>
<asrwt>0</asrwt>
<pdfrwt beam="1">  1        4 0.13768040E-01 0.12500577E+03</pdfrwt>
<pdfrwt beam="2">  1       -4 0.17734056E-01 0.12500577E+03</pdfrwt>
<totfact> 0.19777796E+03</totfact>
</mgrwt>
</event>
<event>
 5    1  0.1433395E-002  0.1249964E+03  0.7818608E-02  0.1235075E+00
          4   -1    0    0  501    0  0.00000000000E+00  0.00000000000E+00  0.56541596705E+02  0.56555857857E+02  0.12700000000E+01 0.  1.
         -4   -1    0    0    0  501 -0.00000000000E+00 -0.00000000000E+00 -0.69053485741E+02  0.69065163382E+02  0.12700000000E+01 0.  1.
         25    2    1    2    0    0  0.00000000000E+00  0.00000000000E+00 -0.12511889037E+02  0.12562102124E+03  0.12499637439E+03 0.  0.
    9000005    1    3    3    0    0  0.31679878702E+02 -0.19421853131E+02  0.44236548175E+02  0.57781444150E+02  0.10000000000E+01 0.  0.
    9000005    1    3    3    0    0 -0.31679878702E+02  0.19421853131E+02 -0.56748437212E+02  0.67839577089E+02  0.10000000000E+01 0.  0.
<mgrwt>
<rscale>  0 0.12499637E+03</rscale>
<asrwt>0</asrwt>
<pdfrwt beam="1">  1        4 0.14138642E-01 0.12499637E+03</pdfrwt>
<pdfrwt beam="2">  1       -4 0.17266614E-01 0.12499637E+03</pdfrwt>
<totfact> 0.19803093E+03</totfact>
</mgrwt>
</event>
<event>
 5    1  0.1433395E-002  0.1250227E+03  0.7818608E-02  0.1235034E+00
          4   -1    0    0  501    0  0.00000000000E+00  0.00000000000E+00  0.91220130124E+02  0.91228970398E+02  0.12700000000E+01 0.  1.
         -4   -1    0    0    0  501 -0.00000000000E+00 -0.00000000000E+00 -0.42817468193E+02  0.42836298655E+02  0.12700000000E+01 0.  1.
         25    2    1    2    0    0  0.00000000000E+00  0.00000000000E+00  0.48402661932E+02  0.13406526905E+03  0.12502271267E+03 0.  0.
    9000005    1    3    3    0    0 -0.56723910790E+02 -0.17923686295E+02  0.44766798760E+02  0.74457550705E+02  0.10000000000E+01 0.  0.
    9000005    1    3    3    0    0  0.56723910790E+02  0.17923686295E+02  0.36358631716E+01  0.59607718348E+02  0.10000000000E+01 0.  0.
<mgrwt>
<rscale>  0 0.12502271E+03</rscale>
<asrwt>0</asrwt>
<pdfrwt beam="1">  1        4 0.22808491E-01 0.12502271E+03</pdfrwt>
<pdfrwt beam="2">  1       -4 0.10707826E-01 0.12502271E+03</pdfrwt>
<totfact> 0.19337959E+03</totfact>
</mgrwt>
</event>
<event>
 5    1  0.1433395E-002  0.1250007E+03  0.7818608E-02  0.1235068E+00
         -4   -1    0    0    0  501 -0.00000000000E+00  0.00000000000E+00  0.11965159987E+03  0.11965833966E+03  0.12700000000E+01 0. -1.
          4   -1    0    0  501    0  0.00000000000E+00 -0.00000000000E+00 -0.32627241926E+02  0.32651949646E+02  0.12700000000E+01 0. -1.
         25    2    1    2    0    0  0.00000000000E+00  0.00000000000E+00  0.87024357941E+02  0.15231028931E+03  0.12500074141E+03 0.  0.
    9000005    1    3    3    0    0 -0.38055665800E+02  0.70415744204E+01  0.10329795847E+03  0.11031448542E+03  0.10000000000E+01 0.  0.
    9000005    1    3    3    0    0  0.38055665800E+02 -0.70415744204E+01 -0.16273600530E+02  0.41995803885E+02  0.10000000000E+01 0.  0.
<mgrwt>
<rscale>  0 0.12500074E+03</rscale>
<asrwt>0</asrwt>
<pdfrwt beam="2">  1        4 0.81607414E-02 0.12500074E+03</pdfrwt>
<pdfrwt beam="1">  1       -4 0.29916831E-01 0.12500074E+03</pdfrwt>
<totfact> 0.18425446E+03</totfact>
</mgrwt>
</event>
<event>
 5    1  0.1433395E-002  0.1249857E+03  0.7818608E-02  0.1235092E+00
          4   -1    0    0  501    0  0.00000000000E+00  0.00000000000E+00  0.22180105878E+02  0.22216435285E+02  0.12700000000E+01 0.  1.
         -4   -1    0    0    0  501 -0.00000000000E+00 -0.00000000000E+00 -0.17589207100E+03  0.17589665586E+03  0.12700000000E+01 0.  1.
         25    2    1    2    0    0  0.00000000000E+00  0.00000000000E+00 -0.15371196512E+03  0.19811309114E+03  0.12498571382E+03 0.  0.
    9000005    1    3    3    0    0 -0.88898794852E+01  0.60028866946E+02 -0.10046590687E+03  0.11737501125E+03  0.10000000000E+01 0.  0.
    9000005    1    3    3    0    0  0.88898794852E+01 -0.60028866946E+02 -0.53246058255E+02  0.80738079886E+02  0.10000000000E+01 0.  0.
<mgrwt>
<rscale>  0 0.12498571E+03</rscale>
<asrwt>0</asrwt>
<pdfrwt beam="1">  1        4 0.55501413E-02 0.12498571E+03</pdfrwt>
<pdfrwt beam="2">  1       -4 0.43978128E-01 0.12498571E+03</pdfrwt>
<totfact> 0.16403295E+03</totfact>
</mgrwt>
</event>
<event>
 5    1  0.1433395E-002  0.1250015E+03  0.7818608E-02  0.1235067E+00
         -4   -1    0    0    0  501 -0.00000000000E+00  0.00000000000E+00  0.29111998127E+03  0.29112275142E+03  0.12700000000E+01 0.  1.
          4   -1    0    0  501    0  0.00000000000E+00 -0.00000000000E+00 -0.13385435948E+02  0.13445549283E+02  0.12700000000E+01 0.  1.
         25    2    1    2    0    0  0.00000000000E+00  0.00000000000E+00  0.27773454532E+03  0.30456830070E+03  0.12500148850E+03 0.  0.
    9000005    1    3    3    0    0  0.10571869918E+02  0.71892866709E+01  0.28791150818E+03  0.28819695838E+03  0.10000000000E+01 0.  0.
    9000005    1    3    3    0    0 -0.10571869918E+02 -0.71892866709E+01 -0.10176962860E+02  0.16371342323E+02  0.10000000000E+01 0.  0.
<mgrwt>
<rscale>  0 0.12500149E+03</rscale>
<asrwt>0</asrwt>
<pdfrwt beam="2">  1        4 0.33542194E-02 0.12500149E+03</pdfrwt>
<pdfrwt beam="1">  1       -4 0.72787855E-01 0.12500149E+03</pdfrwt>
<totfact> 0.12843542E+03</totfact>
</mgrwt>
</event>
<event>
 5    1  0.1433395E-002  0.1249990E+03  0.7818608E-02  0.1235071E+00
          4   -1    0    0  501    0  0.00000000000E+00  0.00000000000E+00  0.18874810285E+03  0.18875237542E+03  0.12700000000E+01 0.  1.
         -4   -1    0    0    0  501 -0.00000000000E+00 -0.00000000000E+00 -0.20671238397E+02  0.20710214795E+02  0.12700000000E+01 0.  1.
         25    2    1    2    0    0  0.00000000000E+00  0.00000000000E+00  0.16807686445E+03  0.20946259022E+03  0.12499897735E+03 0.  0.
    9000005    1    3    3    0    0  0.93905050840E+00 -0.30385815583E+01 -0.20543753758E+02  0.20812510954E+02  0.10000000000E+01 0.  0.
    9000005    1    3    3    0    0 -0.93905050840E+00  0.30385815583E+01  0.18862061821E+03  0.18865007927E+03  0.10000000000E+01 0.  0.
<mgrwt>
<rscale>  0 0.12499898E+03</rscale>
<asrwt>0</asrwt>
<pdfrwt beam="1">  1        4 0.47192431E-01 0.12499898E+03</pdfrwt>
<pdfrwt beam="2">  1       -4 0.51732158E-02 0.12499898E+03</pdfrwt>
<totfact> 0.15950405E+03</totfact>
</mgrwt>
</event>
<event>
 5    1  0.1433395E-002  0.1249975E+03  0.7818608E-02  0.1235073E+00
         -4   -1    0    0    0  501 -0.00000000000E+00  0.00000000000E+00  0.55658417435E+03  0.55658562327E+03  0.12700000000E+01 0.  1.
          4   -1    0    0  501    0  0.00000000000E+00 -0.00000000000E+00 -0.69590471883E+01  0.70739831614E+01  0.12700000000E+01 0.  1.
         25    2    1    2    0    0  0.00000000000E+00  0.00000000000E+00  0.54962512716E+03  0.56365960643E+03  0.12499748606E+03 0.  0.
    9000005    1    3    3    0    0  0.32962248254E+02  0.50153823874E+02  0.35332957760E+03  0.35839183343E+03  0.10000000000E+01 0.  0.
    9000005    1    3    3    0    0 -0.32962248254E+02 -0.50153823874E+02  0.19629554955E+03  0.20526777300E+03  0.10000000000E+01 0.  0.
<mgrwt>
<rscale>  0 0.12499749E+03</rscale>
<asrwt>0</asrwt>
<pdfrwt beam="2">  1        4 0.17543102E-02 0.12499749E+03</pdfrwt>
<pdfrwt beam="1">  1       -4 0.13916057E+00 0.12499749E+03</pdfrwt>
<totfact> 0.78278584E+02</totfact>
</mgrwt>
</event>
<event>
 5    1  0.1433395E-002  0.1249965E+03  0.7818608E-02  0.1235075E+00
         -4   -1    0    0    0  501 -0.00000000000E+00  0.00000000000E+00  0.94066650536E+02  0.94075223322E+02  0.12700000000E+01 0.  1.
          4   -1    0    0  501    0  0.00000000000E+00 -0.00000000000E+00 -0.41503878835E+02  0.41523305003E+02  0.12700000000E+01 0.  1.
         25    2    1    2    0    0  0.00000000000E+00  0.00000000000E+00  0.52562771701E+02  0.13559852832E+03  0.12499646361E+03 0.  0.
    9000005    1    3    3    0    0 -0.10538405528E+02 -0.16616005622E+02 -0.38061082851E+02  0.42857854142E+02  0.10000000000E+01 0.  0.
    9000005    1    3    3    0    0  0.10538405528E+02  0.16616005622E+02  0.90623854553E+02  0.92740674183E+02  0.10000000000E+01 0.  0.
<mgrwt>
<rscale>  0 0.12499646E+03</rscale>
<asrwt>0</asrwt>
<pdfrwt beam="2">  1        4 0.10379470E-01 0.12499646E+03</pdfrwt>
<pdfrwt beam="1">  1       -4 0.23520162E-01 0.12499646E+03</pdfrwt>
<totfact> 0.19269423E+03</totfact>
</mgrwt>
</event>
<event>
 5    1  0.1433395E-002  0.1249947E+03  0.7818608E-02  0.1235078E+00
          4   -1    0    0  501    0  0.00000000000E+00  0.00000000000E+00  0.22857892877E+02  0.22893146721E+02  0.12700000000E+01 0.  1.
         -4   -1    0    0    0  501 -0.00000000000E+00 -0.00000000000E+00 -0.17070906722E+03  0.17071379127E+03  0.12700000000E+01 0.  1.
         25    2    1    2    0    0  0.00000000000E+00  0.00000000000E+00 -0.14785117434E+03  0.19360693799E+03  0.12499470663E+03 0.  0.
    9000005    1    3    3    0    0 -0.54562866535E+01  0.55726835905E+02 -0.30954041772E+02  0.63987530083E+02  0.10000000000E+01 0.  0.
    9000005    1    3    3    0    0  0.54562866535E+01 -0.55726835905E+02 -0.11689713257E+03  0.12961940791E+03  0.10000000000E+01 0.  0.
<mgrwt>
<rscale>  0 0.12499471E+03</rscale>
<asrwt>0</asrwt>
<pdfrwt beam="1">  1        4 0.57194710E-02 0.12499471E+03</pdfrwt>
<pdfrwt beam="2">  1       -4 0.42682260E-01 0.12499471E+03</pdfrwt>
<totfact> 0.16583302E+03</totfact>
</mgrwt>
</event>
<event>
 5    1  0.1433395E-002  0.1249911E+03  0.7818608E-02  0.1235083E+00
         -4   -1    0    0    0  501 -0.00000000000E+00  0.00000000000E+00  0.77070724968E+01  0.78110093119E+01  0.12700000000E+01 0.  1.
          4   -1    0    0  501    0  0.00000000000E+00 -0.00000000000E+00 -0.50326841425E+03  0.50327001668E+03  0.12700000000E+01 0.  1.
         25    2    1    2    0    0  0.00000000000E+00  0.00000000000E+00 -0.49556134176E+03  0.51108102599E+03  0.12499108641E+03 0.  0.
    9000005    1    3    3    0    0 -0.40352419238E+02  0.20745730454E+02 -0.42346190331E+03  0.42588694113E+03  0.10000000000E+01 0.  0.
    9000005    1    3    3    0    0  0.40352419238E+02 -0.20745730454E+02 -0.72099438449E+02  0.85194084860E+02  0.10000000000E+01 0.  0.
<mgrwt>
<rscale>  0 0.12499109E+03</rscale>
<asrwt>0</asrwt>
<pdfrwt beam="2">  1        4 0.12583019E+00 0.12499109E+03</pdfrwt>
<pdfrwt beam="1">  1       -4 0.19399622E-02 0.12499109E+03</pdfrwt>
<totfact> 0.85888338E+02</totfact>
</mgrwt>
</event>
<event>
 5    1  0.1433395E-002  0.1250012E+03  0.7818608E-02  0.1235067E+00
         -4   -1    0    0    0  501 -0.00000000000E+00  0.00000000000E+00  0.79897937247E+02  0.79908030112E+02  0.12700000000E+01 0. -1.
          4   -1    0    0  501    0  0.00000000000E+00 -0.00000000000E+00 -0.48870031245E+02  0.48886530394E+02  0.12700000000E+01 0. -1.
         25    2    1    2    0    0  0.00000000000E+00  0.00000000000E+00  0.31027906002E+02  0.12879456051E+03  0.12500123145E+03 0.  0.
    9000005    1    3    3    0    0 -0.20519803396E+02 -0.17608665335E+02  0.73563701454E+02  0.78382048952E+02  0.10000000000E+01 0.  0.
    9000005    1    3    3    0    0  0.20519803396E+02  0.17608665335E+02 -0.42535795453E+02  0.50412511553E+02  0.10000000000E+01 0.  0.
<mgrwt>
<rscale>  0 0.12500123E+03</rscale>
<asrwt>0</asrwt>
<pdfrwt beam="2">  1        4 0.12220832E-01 0.12500123E+03</pdfrwt>
<pdfrwt beam="1">  1       -4 0.19977808E-01 0.12500123E+03</pdfrwt>
<totfact> 0.19628847E+03</totfact>
</mgrwt>
</event>
<event>
 5    1  0.1433395E-002  0.1249978E+03  0.7818608E-02  0.1235073E+00
          4   -1    0    0  501    0  0.00000000000E+00  0.00000000000E+00  0.11801908931E+02  0.11870044415E+02  0.12700000000E+01 0. -1.
         -4   -1    0    0    0  501 -0.00000000000E+00 -0.00000000000E+00 -0.32995078671E+03  0.32995323085E+03  0.12700000000E+01 0. -1.
         25    2    1    2    0    0  0.00000000000E+00  0.00000000000E+00 -0.31814887778E+03  0.34182327527E+03  0.12499777231E+03 0.  0.
    9000005    1    3    3    0    0 -0.10943564366E+02  0.41489099845E+02 -0.28331248152E+03  0.28654505613E+03  0.10000000000E+01 0.  0.
    9000005    1    3    3    0    0  0.10943564366E+02 -0.41489099845E+02 -0.34836396261E+02  0.55278219142E+02  0.10000000000E+01 0.  0.
<mgrwt>
<rscale>  0 0.12499777E+03</rscale>
<asrwt>0</asrwt>
<pdfrwt beam="1">  1        4 0.29593008E-02 0.12499777E+03</pdfrwt>
<pdfrwt beam="2">  1       -4 0.82496489E-01 0.12499777E+03</pdfrwt>
<totfact> 0.11875479E+03</totfact>
</mgrwt>
</event>
<event>
 5    1  0.1433395E-002  0.1249601E+03  0.7818608E-02  0.1235132E+00
          4   -1    0    0  501    0  0.00000000000E+00  0.00000000000E+00  0.12305506531E+03  0.12306161871E+03  0.12700000000E+01 0.  1.
         -4   -1    0    0    0  501 -0.00000000000E+00 -0.00000000000E+00 -0.31703530970E+02  0.31728958003E+02  0.12700000000E+01 0.  1.
         25    2    1    2    0    0  0.00000000000E+00  0.00000000000E+00  0.91351534342E+02  0.15479057671E+03  0.12496007287E+03 0.  0.
    9000005    1    3    3    0    0  0.47521180952E+00  0.58237154558E+02  0.17675127286E+02  0.60870371461E+02  0.10000000000E+01 0.  0.
    9000005    1    3    3    0    0 -0.47521180952E+00 -0.58237154558E+02  0.73676407055E+02  0.93920205248E+02  0.10000000000E+01 0.  0.
<mgrwt>
<rscale>  0 0.12496007E+03</rscale>
<asrwt>0</asrwt>
<pdfrwt beam="1">  1        4 0.30767763E-01 0.12496007E+03</pdfrwt>
<pdfrwt beam="2">  1       -4 0.79298804E-02 0.12496007E+03</pdfrwt>
<totfact> 0.18322718E+03</totfact>
</mgrwt>
</event>
<event>
 5    1  0.1433395E-002  0.1250004E+03  0.7818608E-02  0.1235069E+00
          4   -1    0    0  501    0  0.00000000000E+00  0.00000000000E+00  0.64599912613E+02  0.64612395170E+02  0.12700000000E+01 0. -1.
         -4   -1    0    0    0  501 -0.00000000000E+00 -0.00000000000E+00 -0.60443703516E+02  0.60457044211E+02  0.12700000000E+01 0. -1.
         25    2    1    2    0    0  0.00000000000E+00  0.00000000000E+00  0.41562090973E+01  0.12506943938E+03  0.12500036237E+03 0.  0.
    9000005    1    3    3    0    0  0.59519228959E+02 -0.24182704049E+00  0.21132670991E+02  0.63167926034E+02  0.10000000000E+01 0.  0.
    9000005    1    3    3    0    0 -0.59519228959E+02  0.24182704049E+00 -0.16976461894E+02  0.61901513347E+02  0.10000000000E+01 0.  0.
<mgrwt>
<rscale>  0 0.12500036E+03</rscale>
<asrwt>0</asrwt>
<pdfrwt beam="1">  1        4 0.16153206E-01 0.12500036E+03</pdfrwt>
<pdfrwt beam="2">  1       -4 0.15114154E-01 0.12500036E+03</pdfrwt>
<totfact> 0.19831122E+03</totfact>
</mgrwt>
</event>
<event>
 5    1  0.1433395E-002  0.1250016E+03  0.7818608E-02  0.1235067E+00
         -4   -1    0    0    0  501 -0.00000000000E+00  0.00000000000E+00  0.22322427536E+02  0.22358525692E+02  0.12700000000E+01 0. -1.
          4   -1    0    0  501    0  0.00000000000E+00 -0.00000000000E+00 -0.17481689977E+03  0.17482151282E+03  0.12700000000E+01 0. -1.
         25    2    1    2    0    0  0.00000000000E+00  0.00000000000E+00 -0.15249447223E+03  0.19718003851E+03  0.12500161410E+03 0.  0.
    9000005    1    3    3    0    0 -0.42530091157E+02 -0.15145229414E+02 -0.80858225660E+01  0.45875561625E+02  0.10000000000E+01 0.  0.
    9000005    1    3    3    0    0  0.42530091157E+02  0.15145229414E+02 -0.14440864967E+03  0.15130447689E+03  0.10000000000E+01 0.  0.
<mgrwt>
<rscale>  0 0.12500161E+03</rscale>
<asrwt>0</asrwt>
<pdfrwt beam="2">  1        4 0.43709310E-01 0.12500161E+03</pdfrwt>
<pdfrwt beam="1">  1       -4 0.55856963E-02 0.12500161E+03</pdfrwt>
<totfact> 0.16434970E+03</totfact>
</mgrwt>
</event>
<event>
 5    1  0.1433395E-002  0.1249983E+03  0.7818608E-02  0.1235072E+00
          4   -1    0    0  501    0  0.00000000000E+00  0.00000000000E+00  0.65559874810E+01  0.66778643181E+01  0.12700000000E+01 0.  1.
         -4   -1    0    0    0  501 -0.00000000000E+00 -0.00000000000E+00 -0.59020359447E+03  0.59020496086E+03  0.12700000000E+01 0.  1.
         25    2    1    2    0    0  0.00000000000E+00  0.00000000000E+00 -0.58364760699E+03  0.59688282518E+03  0.12499831139E+03 0.  0.
    9000005    1    3    3    0    0  0.23379560310E+02  0.53529383288E+01 -0.56737332623E+03  0.56788092863E+03  0.10000000000E+01 0.  0.
    9000005    1    3    3    0    0 -0.23379560310E+02 -0.53529383288E+01 -0.16274280760E+02  0.29001896546E+02  0.10000000000E+01 0.  0.
<mgrwt>
<rscale>  0 0.12499831E+03</rscale>
<asrwt>0</asrwt>
<pdfrwt beam="1">  1        4 0.16544043E-02 0.12499831E+03</pdfrwt>
<pdfrwt beam="2">  1       -4 0.14756613E+00 0.12499831E+03</pdfrwt>
<totfact> 0.73899410E+02</totfact>
</mgrwt>
</event>
<event>
 5    1  0.1433395E-002  0.1249973E+03  0.7818608E-02  0.1235073E+00
         -4   -1    0    0    0  501 -0.00000000000E+00  0.00000000000E+00  0.44038753247E+02  0.44057061722E+02  0.12700000000E+01 0.  1.
          4   -1    0    0  501    0  0.00000000000E+00 -0.00000000000E+00 -0.88655185836E+02  0.88664281848E+02  0.12700000000E+01 0.  1.
         25    2    1    2    0    0  0.00000000000E+00  0.00000000000E+00 -0.44616432589E+02  0.13272134357E+03  0.12499731590E+03 0.  0.
    9000005    1    3    3    0    0  0.21522835384E+02  0.58983751846E+01  0.39668691968E+02  0.45526128710E+02  0.10000000000E+01 0.  0.
    9000005    1    3    3    0    0 -0.21522835384E+02 -0.58983751846E+01 -0.84285124558E+02  0.87195214860E+02  0.10000000000E+01 0.  0.
<mgrwt>
<rscale>  0 0.12499732E+03</rscale>
<asrwt>0</asrwt>
<pdfrwt beam="2">  1        4 0.22167222E-01 0.12499732E+03</pdfrwt>
<pdfrwt beam="1">  1       -4 0.11013114E-01 0.12499732E+03</pdfrwt>
<totfact> 0.19420384E+03</totfact>
</mgrwt>
</event>
<event>
 5    1  0.1433395E-002  0.1249875E+03  0.7818608E-02  0.1235089E+00
         -4   -1    0    0    0  501 -0.00000000000E+00  0.00000000000E+00  0.56437908798E+02  0.56452196144E+02  0.12700000000E+01 0.  1.
          4   -1    0    0  501    0  0.00000000000E+00 -0.00000000000E+00 -0.69170468222E+02  0.69182126117E+02  0.12700000000E+01 0.  1.
         25    2    1    2    0    0  0.00000000000E+00  0.00000000000E+00 -0.12732559424E+02  0.12563432226E+03  0.12498745881E+03 0.  0.
    9000005    1    3    3    0    0  0.16185094263E+02  0.20258040913E+02  0.50779695634E+02  0.57025634469E+02  0.10000000000E+01 0.  0.
    9000005    1    3    3    0    0 -0.16185094263E+02 -0.20258040913E+02 -0.63512255058E+02  0.68608687792E+02  0.10000000000E+01 0.  0.
<mgrwt>
<rscale>  0 0.12498746E+03</rscale>
<asrwt>0</asrwt>
<pdfrwt beam="2">  1        4 0.17295860E-01 0.12498746E+03</pdfrwt>
<pdfrwt beam="1">  1       -4 0.14112720E-01 0.12498746E+03</pdfrwt>
<totfact> 0.19806504E+03</totfact>
</mgrwt>
</event>
<event>
 4    1  0.1433395E-002  0.1248522E+03  0.7818608E-02  0.1235300E+00
          4   -1    0    0  501    0  0.00000000000E+00  0.00000000000E+00  0.29440281418E+03  0.29440555344E+03  0.12700000000E+01 0. -1.
         -4   -1    0    0    0  501 -0.00000000000E+00 -0.00000000000E+00 -0.13203752498E+02  0.13264689217E+02  0.12700000000E+01 0. -1.
    9000005    1    1    2    0    0 -0.57529517595E+02  0.23698035769E+02  0.15286513904E+03  0.16504542717E+03  0.10000000000E+01 0.  0.
    9000005    1    1    2    0    0  0.57529517595E+02 -0.23698035769E+02  0.12833392264E+03  0.14262481549E+03  0.10000000000E+01 0.  0.
<mgrwt>
<rscale>  0 0.12485218E+03</rscale>
<asrwt>0</asrwt>
<pdfrwt beam="1">  1        4 0.73608663E-01 0.12485218E+03</pdfrwt>
<pdfrwt beam="2">  1       -4 0.33088976E-02 0.12485218E+03</pdfrwt>
<totfact> 0.12802056E+03</totfact>
</mgrwt>
</event>
<event>
 5    1  0.1433395E-002  0.1249995E+03  0.7818608E-02  0.1235070E+00
          4   -1    0    0  501    0  0.00000000000E+00  0.00000000000E+00  0.18728116881E+03  0.18728547486E+03  0.12700000000E+01 0.  1.
         -4   -1    0    0    0  501 -0.00000000000E+00 -0.00000000000E+00 -0.20833626538E+02  0.20872299699E+02  0.12700000000E+01 0.  1.
         25    2    1    2    0    0  0.00000000000E+00  0.00000000000E+00  0.16644754228E+03  0.20815777456E+03  0.12499949911E+03 0.  0.
    9000005    1    3    3    0    0 -0.28313189892E+02  0.44481959120E+02  0.27370512116E+02  0.59417390910E+02  0.10000000000E+01 0.  0.
    9000005    1    3    3    0    0  0.28313189892E+02 -0.44481959120E+02  0.13907703016E+03  0.14874038365E+03  0.10000000000E+01 0.  0.
<mgrwt>
<rscale>  0 0.12499950E+03</rscale>
<asrwt>0</asrwt>
<pdfrwt beam="1">  1        4 0.46825664E-01 0.12499950E+03</pdfrwt>
<pdfrwt beam="2">  1       -4 0.52137791E-02 0.12499950E+03</pdfrwt>
<totfact> 0.16000706E+03</totfact>
</mgrwt>
</event>
<event>
 5    1  0.1433395E-002  0.1250001E+03  0.7818608E-02  0.1235069E+00
         -4   -1    0    0    0  501 -0.00000000000E+00  0.00000000000E+00  0.38741059593E+03  0.38741267756E+03  0.12700000000E+01 0.  1.
          4   -1    0    0  501    0  0.00000000000E+00 -0.00000000000E+00 -0.10040886180E+02  0.10120884116E+02  0.12700000000E+01 0.  1.
         25    2    1    2    0    0  0.00000000000E+00  0.00000000000E+00  0.37736970974E+03  0.39753356168E+03  0.12500013931E+03 0.  0.
    9000005    1    3    3    0    0  0.18222211092E+02  0.23804185682E+02  0.36306578781E+03  0.36430269627E+03  0.10000000000E+01 0.  0.
    9000005    1    3    3    0    0 -0.18222211092E+02 -0.23804185682E+02  0.14303921940E+02  0.33230865410E+02  0.10000000000E+01 0.  0.
<mgrwt>
<rscale>  0 0.12500014E+03</rscale>
<asrwt>0</asrwt>
<pdfrwt beam="2">  1        4 0.25204815E-02 0.12500014E+03</pdfrwt>
<pdfrwt beam="1">  1       -4 0.96862908E-01 0.12500014E+03</pdfrwt>
<totfact> 0.10620147E+03</totfact>
</mgrwt>
</event>
<event>
 5    1  0.1433395E-002  0.1250013E+03  0.7818608E-02  0.1235067E+00
          4   -1    0    0  501    0  0.00000000000E+00  0.00000000000E+00  0.44784832192E+03  0.44785012264E+03  0.12700000000E+01 0.  1.
         -4   -1    0    0    0  501 -0.00000000000E+00 -0.00000000000E+00 -0.86743836686E+01  0.87668598729E+01  0.12700000000E+01 0.  1.
         25    2    1    2    0    0  0.00000000000E+00  0.00000000000E+00  0.43917393825E+03  0.45661698251E+03  0.12500128271E+03 0.  0.
    9000005    1    3    3    0    0 -0.30285254552E+02  0.43685656504E+02  0.99557322957E+02  0.11286405000E+03  0.10000000000E+01 0.  0.
    9000005    1    3    3    0    0  0.30285254552E+02 -0.43685656504E+02  0.33961661530E+03  0.34375293252E+03  0.10000000000E+01 0.  0.
<mgrwt>
<rscale>  0 0.12500128E+03</rscale>
<asrwt>0</asrwt>
<pdfrwt beam="1">  1        4 0.11197386E+00 0.12500128E+03</pdfrwt>
<pdfrwt beam="2">  1       -4 0.21803806E-02 0.12500128E+03</pdfrwt>
<totfact> 0.94838240E+02</totfact>
</mgrwt>
</event>
<event>
 5    1  0.1433395E-002  0.1250050E+03  0.7818608E-02  0.1235061E+00
         -4   -1    0    0    0  501 -0.00000000000E+00  0.00000000000E+00  0.41200603982E+03  0.41200799719E+03  0.12700000000E+01 0. -1.
          4   -1    0    0  501    0  0.00000000000E+00 -0.00000000000E+00 -0.94373013945E+01  0.95223714279E+01  0.12700000000E+01 0. -1.
         25    2    1    2    0    0  0.00000000000E+00  0.00000000000E+00  0.40256873843E+03  0.42153036862E+03  0.12500504994E+03 0.  0.
    9000005    1    3    3    0    0 -0.24836019305E+02  0.51933239021E+02  0.11925989506E+03  0.13243040338E+03  0.10000000000E+01 0.  0.
    9000005    1    3    3    0    0  0.24836019305E+02 -0.51933239021E+02  0.28330884337E+03  0.28909996524E+03  0.10000000000E+01 0.  0.
<mgrwt>
<rscale>  0 0.12500505E+03</rscale>
<asrwt>0</asrwt>
<pdfrwt beam="2">  1        4 0.23702038E-02 0.12500505E+03</pdfrwt>
<pdfrwt beam="1">  1       -4 0.10301239E+00 0.12500505E+03</pdfrwt>
<totfact> 0.10134892E+03</totfact>
</mgrwt>
</event>
<event>
 4    1  0.1433395E-002  0.1248941E+03  0.7818608E-02  0.1235235E+00
          4   -1    0    0  501    0  0.00000000000E+00  0.00000000000E+00  0.21222072497E+02  0.21260039065E+02  0.12700000000E+01 0. -1.
         -4   -1    0    0    0  501 -0.00000000000E+00 -0.00000000000E+00 -0.18354935531E+03  0.18355374890E+03  0.12700000000E+01 0. -1.
    9000005    1    1    2    0    0  0.24576581637E+02 -0.36518033240E+02 -0.85425693578E+01  0.44850313354E+02  0.10000000000E+01 0.  0.
    9000005    1    1    2    0    0 -0.24576581637E+02  0.36518033240E+02 -0.15378471346E+03  0.15996347461E+03  0.10000000000E+01 0.  0.
<mgrwt>
<rscale>  0 0.12489412E+03</rscale>
<asrwt>0</asrwt>
<pdfrwt beam="1">  1        4 0.53108137E-02 0.12489412E+03</pdfrwt>
<pdfrwt beam="2">  1       -4 0.45892629E-01 0.12489412E+03</pdfrwt>
<totfact> 0.16170623E+03</totfact>
</mgrwt>
</event>
<event>
 5    1  0.1433395E-002  0.1250301E+03  0.7818608E-02  0.1235022E+00
         -4   -1    0    0    0  501 -0.00000000000E+00  0.00000000000E+00  0.34080155738E+03  0.34080392371E+03  0.12700000000E+01 0.  1.
          4   -1    0    0  501    0  0.00000000000E+00 -0.00000000000E+00 -0.11429901997E+02  0.11500241722E+02  0.12700000000E+01 0.  1.
         25    2    1    2    0    0  0.00000000000E+00  0.00000000000E+00  0.32937165539E+03  0.35230416543E+03  0.12503014679E+03 0.  0.
    9000005    1    3    3    0    0 -0.46933666615E+02  0.11729141951E+02  0.53151439715E+02  0.71877794739E+02  0.10000000000E+01 0.  0.
    9000005    1    3    3    0    0  0.46933666615E+02 -0.11729141951E+02  0.27622021567E+03  0.28042637069E+03  0.10000000000E+01 0.  0.
<mgrwt>
<rscale>  0 0.12503015E+03</rscale>
<asrwt>0</asrwt>
<pdfrwt beam="2">  1        4 0.28665636E-02 0.12503015E+03</pdfrwt>
<pdfrwt beam="1">  1       -4 0.85209481E-01 0.12503015E+03</pdfrwt>
<totfact> 0.11614560E+03</totfact>
</mgrwt>
</event>
<event>
 5    1  0.1433395E-002  0.1249989E+03  0.7818608E-02  0.1235071E+00
          4   -1    0    0  501    0  0.00000000000E+00  0.00000000000E+00  0.24084490870E+02  0.24117951830E+02  0.12700000000E+01 0.  1.
         -4   -1    0    0    0  501 -0.00000000000E+00 -0.00000000000E+00 -0.16203796703E+03  0.16204294387E+03  0.12700000000E+01 0.  1.
         25    2    1    2    0    0  0.00000000000E+00  0.00000000000E+00 -0.13795347616E+03  0.18616089570E+03  0.12499887001E+03 0.  0.
    9000005    1    3    3    0    0 -0.80020973050E+01 -0.21929006461E+02  0.17354725612E+02  0.29105006214E+02  0.10000000000E+01 0.  0.
    9000005    1    3    3    0    0  0.80020973050E+01  0.21929006461E+02 -0.15530820177E+03  0.15705588949E+03  0.10000000000E+01 0.  0.
<mgrwt>
<rscale>  0 0.12499887E+03</rscale>
<asrwt>0</asrwt>
<pdfrwt beam="1">  1        4 0.60259279E-02 0.12499887E+03</pdfrwt>
<pdfrwt beam="2">  1       -4 0.40514293E-01 0.12499887E+03</pdfrwt>
<totfact> 0.16892044E+03</totfact>
</mgrwt>
</event>
<event>
 5    1  0.1433395E-002  0.1250587E+03  0.7818608E-02  0.1234978E+00
         -4   -1    0    0    0  501 -0.00000000000E+00  0.00000000000E+00  0.94931565542E+02  0.94940060229E+02  0.12700000000E+01 0.  1.
          4   -1    0    0  501    0  0.00000000000E+00 -0.00000000000E+00 -0.41166558634E+02  0.41186143905E+02  0.12700000000E+01 0.  1.
         25    2    1    2    0    0  0.00000000000E+00  0.00000000000E+00  0.53765006909E+02  0.13612620413E+03  0.12505865617E+03 0.  0.
    9000005    1    3    3    0    0  0.26312775542E+02 -0.43297371828E+02 -0.12991221459E+02  0.52314399537E+02  0.10000000000E+01 0.  0.
    9000005    1    3    3    0    0 -0.26312775542E+02  0.43297371828E+02  0.66756228367E+02  0.83811804597E+02  0.10000000000E+01 0.  0.
<mgrwt>
<rscale>  0 0.12505866E+03</rscale>
<asrwt>0</asrwt>
<pdfrwt beam="2">  1        4 0.10295150E-01 0.12505866E+03</pdfrwt>
<pdfrwt beam="1">  1       -4 0.23736401E-01 0.12505866E+03</pdfrwt>
<totfact> 0.19214004E+03</totfact>
</mgrwt>
</event>
<event>
 5    1  0.1433395E-002  0.1250058E+03  0.7818608E-02  0.1235060E+00
         -4   -1    0    0    0  501 -0.00000000000E+00  0.00000000000E+00  0.31600698033E+03  0.31600953232E+03  0.12700000000E+01 0.  1.
          4   -1    0    0  501    0  0.00000000000E+00 -0.00000000000E+00 -0.12327201247E+02  0.12392448934E+02  0.12700000000E+01 0.  1.
         25    2    1    2    0    0  0.00000000000E+00  0.00000000000E+00  0.30367977908E+03  0.32840198125E+03  0.12500581213E+03 0.  0.
    9000005    1    3    3    0    0 -0.40022960238E+01 -0.11206842444E+02  0.31301592200E+03  0.31324364178E+03  0.10000000000E+01 0.  0.
    9000005    1    3    3    0    0  0.40022960238E+01  0.11206842444E+02 -0.93361429163E+01  0.15158339473E+02  0.10000000000E+01 0.  0.
<mgrwt>
<rscale>  0 0.12500581E+03</rscale>
<asrwt>0</asrwt>
<pdfrwt beam="2">  1        4 0.30902753E-02 0.12500581E+03</pdfrwt>
<pdfrwt beam="1">  1       -4 0.79010219E-01 0.12500581E+03</pdfrwt>
<totfact> 0.12209161E+03</totfact>
</mgrwt>
</event>
<event>
 5    1  0.1433395E-002  0.1249937E+03  0.7818608E-02  0.1235079E+00
         -4   -1    0    0    0  501 -0.00000000000E+00  0.00000000000E+00  0.78521149111E+03  0.78521251816E+03  0.12700000000E+01 0.  1.
          4   -1    0    0  501    0  0.00000000000E+00 -0.00000000000E+00 -0.48921601422E+01  0.50543180407E+01  0.12700000000E+01 0.  1.
         25    2    1    2    0    0  0.00000000000E+00  0.00000000000E+00  0.78031933097E+03  0.79026683620E+03  0.12499365629E+03 0.  0.
    9000005    1    3    3    0    0  0.34942921455E+02  0.50843448675E+02  0.45300038773E+03  0.45718313105E+03  0.10000000000E+01 0.  0.
    9000005    1    3    3    0    0 -0.34942921455E+02 -0.50843448675E+02  0.32731894324E+03  0.33308370515E+03  0.10000000000E+01 0.  0.
<mgrwt>
<rscale>  0 0.12499366E+03</rscale>
<asrwt>0</asrwt>
<pdfrwt beam="2">  1        4 0.12434383E-02 0.12499366E+03</pdfrwt>
<pdfrwt beam="1">  1       -4 0.19632325E+00 0.12499366E+03</pdfrwt>
<totfact> 0.53352452E+02</totfact>
</mgrwt>
</event>
<event>
 5    1  0.1433395E-002  0.1249945E+03  0.7818608E-02  0.1235078E+00
          4   -1    0    0  501    0  0.00000000000E+00  0.00000000000E+00  0.20100389403E+02  0.20140470554E+02  0.12700000000E+01 0.  1.
         -4   -1    0    0    0  501 -0.00000000000E+00 -0.00000000000E+00 -0.19408409811E+03  0.19408825322E+03  0.12700000000E+01 0.  1.
         25    2    1    2    0    0  0.00000000000E+00  0.00000000000E+00 -0.17398370871E+03  0.21422872378E+03  0.12499446066E+03 0.  0.
    9000005    1    3    3    0    0 -0.49503536836E+02 -0.32097742628E+02 -0.51698770495E+02  0.78451437920E+02  0.10000000000E+01 0.  0.
    9000005    1    3    3    0    0  0.49503536836E+02  0.32097742628E+02 -0.12228493821E+03  0.13577728586E+03  0.10000000000E+01 0.  0.
<mgrwt>
<rscale>  0 0.12499446E+03</rscale>
<asrwt>0</asrwt>
<pdfrwt beam="1">  1        4 0.50306275E-02 0.12499446E+03</pdfrwt>
<pdfrwt beam="2">  1       -4 0.48526548E-01 0.12499446E+03</pdfrwt>
<totfact> 0.15769740E+03</totfact>
</mgrwt>
</event>
<event>
 4    1  0.1433395E-002  0.1252471E+03  0.7818608E-02  0.1234684E+00
         -4   -1    0    0    0  501 -0.00000000000E+00  0.00000000000E+00  0.46186515112E+02  0.46203972537E+02  0.12700000000E+01 0. -1.
          4   -1    0    0  501    0  0.00000000000E+00 -0.00000000000E+00 -0.84871992681E+02  0.84881494106E+02  0.12700000000E+01 0. -1.
    9000005    1    1    2    0    0  0.60080286089E+01  0.62032111886E+02 -0.25677053532E+02  0.67412093803E+02  0.10000000000E+01 0.  0.
    9000005    1    1    2    0    0 -0.60080286089E+01 -0.62032111886E+02 -0.13008424037E+02  0.63673372840E+02  0.10000000000E+01 0.  0.
<mgrwt>
<rscale>  0 0.12524709E+03</rscale>
<asrwt>0</asrwt>
<pdfrwt beam="2">  1        4 0.21221368E-01 0.12524709E+03</pdfrwt>
<pdfrwt beam="1">  1       -4 0.11549999E-01 0.12524709E+03</pdfrwt>
<totfact> 0.19394133E+03</totfact>
</mgrwt>
</event>
<event>
 5    1  0.1433395E-002  0.1250006E+03  0.7818608E-02  0.1235068E+00
          4   -1    0    0  501    0  0.00000000000E+00  0.00000000000E+00  0.96791141219E+01  0.97620771450E+01  0.12700000000E+01 0.  1.
         -4   -1    0    0    0  501 -0.00000000000E+00 -0.00000000000E+00 -0.40177255855E+03  0.40177456577E+03  0.12700000000E+01 0.  1.
         25    2    1    2    0    0  0.00000000000E+00  0.00000000000E+00 -0.39209344443E+03  0.41153664292E+03  0.12500055721E+03 0.  0.
    9000005    1    3    3    0    0 -0.18883524966E+02 -0.29350905646E+02 -0.25380212701E+02  0.43165013311E+02  0.10000000000E+01 0.  0.
    9000005    1    3    3    0    0  0.18883524966E+02  0.29350905646E+02 -0.36671323172E+03  0.36837162961E+03  0.10000000000E+01 0.  0.
<mgrwt>
<rscale>  0 0.12500056E+03</rscale>
<asrwt>0</asrwt>
<pdfrwt beam="1">  1        4 0.24304012E-02 0.12500056E+03</pdfrwt>
<pdfrwt beam="2">  1       -4 0.10045371E+00 0.12500056E+03</pdfrwt>
<totfact> 0.10334786E+03</totfact>
</mgrwt>
</event>
<event>
 5    1  0.1433395E-002  0.1250035E+03  0.7818608E-02  0.1235064E+00
         -4   -1    0    0    0  501 -0.00000000000E+00  0.00000000000E+00  0.19818728025E+03  0.19819134934E+03  0.12700000000E+01 0. -1.
          4   -1    0    0  501    0  0.00000000000E+00 -0.00000000000E+00 -0.19686266855E+02  0.19727189427E+02  0.12700000000E+01 0. -1.
         25    2    1    2    0    0  0.00000000000E+00  0.00000000000E+00  0.17850101340E+03  0.21791853877E+03  0.12500351097E+03 0.  0.
    9000005    1    3    3    0    0 -0.38039431988E+02 -0.49192158383E+02  0.78419214257E+02  0.10008716200E+03  0.10000000000E+01 0.  0.
    9000005    1    3    3    0    0  0.38039431988E+02  0.49192158383E+02  0.10008179914E+03  0.11783137677E+03  0.10000000000E+01 0.  0.
<mgrwt>
<rscale>  0 0.12500351E+03</rscale>
<asrwt>0</asrwt>
<pdfrwt beam="2">  1        4 0.49271907E-02 0.12500351E+03</pdfrwt>
<pdfrwt beam="1">  1       -4 0.49552444E-01 0.12500351E+03</pdfrwt>
<totfact> 0.15627571E+03</totfact>
</mgrwt>
</event>
<event>
 5    1  0.1433395E-002  0.1250024E+03  0.7818608E-02  0.1235066E+00
         -4   -1    0    0    0  501 -0.00000000000E+00  0.00000000000E+00  0.87836457542E+01  0.88749835343E+01  0.12700000000E+01 0. -1.
          4   -1    0    0  501    0  0.00000000000E+00 -0.00000000000E+00 -0.44234305085E+03  0.44234487398E+03  0.12700000000E+01 0. -1.
         25    2    1    2    0    0  0.00000000000E+00  0.00000000000E+00 -0.43355940510E+03  0.45121985752E+03  0.12500240825E+03 0.  0.
    9000005    1    3    3    0    0 -0.51159582580E+02 -0.30741584392E+02 -0.14992219350E+03  0.16136917922E+03  0.10000000000E+01 0.  0.
    9000005    1    3    3    0    0  0.51159582580E+02  0.30741584392E+02 -0.28363721160E+03  0.28985067829E+03  0.10000000000E+01 0.  0.
<mgrwt>
<rscale>  0 0.12500241E+03</rscale>
<asrwt>0</asrwt>
<pdfrwt beam="2">  1        4 0.11059733E+00 0.12500241E+03</pdfrwt>
<pdfrwt beam="1">  1       -4 0.22075580E-02 0.12500241E+03</pdfrwt>
<totfact> 0.95793163E+02</totfact>
</mgrwt>
</event>
<event>
 5    1  0.1433395E-002  0.1250015E+03  0.7818608E-02  0.1235067E+00
         -4   -1    0    0    0  501 -0.00000000000E+00  0.00000000000E+00  0.32308221344E+02  0.32333172848E+02  0.12700000000E+01 0. -1.
          4   -1    0    0  501    0  0.00000000000E+00 -0.00000000000E+00 -0.12083379342E+03  0.12084046728E+03  0.12700000000E+01 0. -1.
         25    2    1    2    0    0  0.00000000000E+00  0.00000000000E+00 -0.88525572078E+02  0.15317364013E+03  0.12500154847E+03 0.  0.
    9000005    1    3    3    0    0 -0.45962473605E+02  0.90841107022E+01  0.64131564010E+01  0.47299034051E+02  0.10000000000E+01 0.  0.
    9000005    1    3    3    0    0  0.45962473605E+02 -0.90841107022E+01 -0.94938728479E+02  0.10587460608E+03  0.10000000000E+01 0.  0.
<mgrwt>
<rscale>  0 0.12500155E+03</rscale>
<asrwt>0</asrwt>
<pdfrwt beam="2">  1        4 0.30212400E-01 0.12500155E+03</pdfrwt>
<pdfrwt beam="1">  1       -4 0.80810088E-02 0.12500155E+03</pdfrwt>
<totfact> 0.18383164E+03</totfact>
</mgrwt>
</event>
<event>
 5    1  0.1433395E-002  0.1250024E+03  0.7818608E-02  0.1235066E+00
         -4   -1    0    0    0  501 -0.00000000000E+00  0.00000000000E+00  0.62632417380E+03  0.62632546139E+03  0.12700000000E+01 0.  1.
          4   -1    0    0  501    0  0.00000000000E+00 -0.00000000000E+00 -0.61710651530E+01  0.63003924578E+01  0.12700000000E+01 0.  1.
         25    2    1    2    0    0  0.00000000000E+00  0.00000000000E+00  0.62015310865E+03  0.63262585385E+03  0.12500237115E+03 0.  0.
    9000005    1    3    3    0    0 -0.37716498803E+02 -0.21579416138E+02  0.82775012879E+02  0.93492824537E+02  0.10000000000E+01 0.  0.
    9000005    1    3    3    0    0  0.37716498803E+02  0.21579416138E+02  0.53737809577E+03  0.53913302931E+03  0.10000000000E+01 0.  0.
<mgrwt>
<rscale>  0 0.12500237E+03</rscale>
<asrwt>0</asrwt>
<pdfrwt beam="2">  1        4 0.15590930E-02 0.12500237E+03</pdfrwt>
<pdfrwt beam="1">  1       -4 0.15659739E+00 0.12500237E+03</pdfrwt>
<totfact> 0.69530853E+02</totfact>
</mgrwt>
</event>
<event>
 5    1  0.1433395E-002  0.1249994E+03  0.7818608E-02  0.1235070E+00
          4   -1    0    0  501    0  0.00000000000E+00  0.00000000000E+00  0.65930311384E+02  0.65942542104E+02  0.12700000000E+01 0. -1.
         -4   -1    0    0    0  501 -0.00000000000E+00 -0.00000000000E+00 -0.59223050600E+02  0.59236666199E+02  0.12700000000E+01 0. -1.
         25    2    1    2    0    0  0.00000000000E+00  0.00000000000E+00  0.67072607836E+01  0.12517920830E+03  0.12499938738E+03 0.  0.
    9000005    1    3    3    0    0 -0.45000590087E+02  0.51060824950E+01 -0.39767418349E+02  0.60279123657E+02  0.10000000000E+01 0.  0.
    9000005    1    3    3    0    0  0.45000590087E+02 -0.51060824950E+01  0.46474679133E+02  0.64900084647E+02  0.10000000000E+01 0.  0.
<mgrwt>
<rscale>  0 0.12499939E+03</rscale>
<asrwt>0</asrwt>
<pdfrwt beam="1">  1        4 0.16485809E-01 0.12499939E+03</pdfrwt>
<pdfrwt beam="2">  1       -4 0.14808994E-01 0.12499939E+03</pdfrwt>
<totfact> 0.19825624E+03</totfact>
</mgrwt>
</event>
<event>
 5    1  0.1433395E-002  0.1250013E+03  0.7818608E-02  0.1235067E+00
          4   -1    0    0  501    0  0.00000000000E+00  0.00000000000E+00  0.46556171059E+03  0.46556344279E+03  0.12700000000E+01 0. -1.
         -4   -1    0    0    0  501 -0.00000000000E+00 -0.00000000000E+00 -0.83407630357E+01  0.84368968239E+01  0.12700000000E+01 0. -1.
         25    2    1    2    0    0  0.00000000000E+00  0.00000000000E+00  0.45722094755E+03  0.47400033962E+03  0.12500130830E+03 0.  0.
    9000005    1    3    3    0    0 -0.56406498916E+02  0.67891518994E+01  0.32731419090E+03  0.33220982115E+03  0.10000000000E+01 0.  0.
    9000005    1    3    3    0    0  0.56406498916E+02 -0.67891518994E+01  0.12990675665E+03  0.14179051846E+03  0.10000000000E+01 0.  0.
<mgrwt>
<rscale>  0 0.12500131E+03</rscale>
<asrwt>0</asrwt>
<pdfrwt beam="1">  1        4 0.11640266E+00 0.12500131E+03</pdfrwt>
<pdfrwt beam="2">  1       -4 0.20974241E-02 0.12500131E+03</pdfrwt>
<totfact> 0.91859134E+02</totfact>
</mgrwt>
</event>
<event>
 5    1  0.1433395E-002  0.1250022E+03  0.7818608E-02  0.1235066E+00
          4   -1    0    0  501    0  0.00000000000E+00  0.00000000000E+00  0.22314189633E+02  0.22350301093E+02  0.12700000000E+01 0. -1.
         -4   -1    0    0    0  501 -0.00000000000E+00 -0.00000000000E+00 -0.17488286014E+03  0.17488747145E+03  0.12700000000E+01 0. -1.
         25    2    1    2    0    0  0.00000000000E+00  0.00000000000E+00 -0.15256867051E+03  0.19723777254E+03  0.12500215877E+03 0.  0.
    9000005    1    3    3    0    0 -0.31604291161E+02 -0.53325853876E+02 -0.88799083243E+02  0.10829937717E+03  0.10000000000E+01 0.  0.
    9000005    1    3    3    0    0  0.31604291161E+02  0.53325853876E+02 -0.63769587264E+02  0.88938395371E+02  0.10000000000E+01 0.  0.
<mgrwt>
<rscale>  0 0.12500216E+03</rscale>
<asrwt>0</asrwt>
<pdfrwt beam="1">  1        4 0.55836383E-02 0.12500216E+03</pdfrwt>
<pdfrwt beam="2">  1       -4 0.43725801E-01 0.12500216E+03</pdfrwt>
<totfact> 0.16432425E+03</totfact>
</mgrwt>
</event>
<event>
 5    1  0.1433395E-002  0.1249811E+03  0.7818608E-02  0.1235099E+00
         -4   -1    0    0    0  501 -0.00000000000E+00  0.00000000000E+00  0.34696628521E+03  0.34696860949E+03  0.12700000000E+01 0. -1.
          4   -1    0    0  501    0  0.00000000000E+00 -0.00000000000E+00 -0.11216697456E+02  0.11288365773E+02  0.12700000000E+01 0. -1.
         25    2    1    2    0    0  0.00000000000E+00  0.00000000000E+00  0.33574958775E+03  0.35825697526E+03  0.12498109716E+03 0.  0.
    9000005    1    3    3    0    0 -0.58089320359E+01  0.43217718817E+02  0.39599678796E+02  0.58912218358E+02  0.10000000000E+01 0.  0.
    9000005    1    3    3    0    0  0.58089320359E+01 -0.43217718817E+02  0.29614990895E+03  0.29934475690E+03  0.10000000000E+01 0.  0.
<mgrwt>
<rscale>  0 0.12498110E+03</rscale>
<asrwt>0</asrwt>
<pdfrwt beam="2">  1        4 0.28134238E-02 0.12498110E+03</pdfrwt>
<pdfrwt beam="1">  1       -4 0.86750809E-01 0.12498110E+03</pdfrwt>
<totfact> 0.11487790E+03</totfact>
</mgrwt>
</event>
<event>
 5    1  0.1433395E-002  0.1249941E+03  0.7818608E-02  0.1235079E+00
          4   -1    0    0  501    0  0.00000000000E+00  0.00000000000E+00  0.28996206313E+03  0.28996484434E+03  0.12700000000E+01 0. -1.
         -4   -1    0    0    0  501 -0.00000000000E+00 -0.00000000000E+00 -0.13437531572E+02  0.13497412891E+02  0.12700000000E+01 0. -1.
         25    2    1    2    0    0  0.00000000000E+00  0.00000000000E+00  0.27652453156E+03  0.30346225723E+03  0.12499409991E+03 0.  0.
    9000005    1    3    3    0    0  0.10668089768E+02  0.48327031521E+02  0.23088804791E+03  0.23613470897E+03  0.10000000000E+01 0.  0.
    9000005    1    3    3    0    0 -0.10668089768E+02 -0.48327031521E+02  0.45636483652E+02  0.67327548262E+02  0.10000000000E+01 0.  0.
<mgrwt>
<rscale>  0 0.12499410E+03</rscale>
<asrwt>0</asrwt>
<pdfrwt beam="1">  1        4 0.72498347E-01 0.12499410E+03</pdfrwt>
<pdfrwt beam="2">  1       -4 0.33672158E-02 0.12499410E+03</pdfrwt>
<totfact> 0.12876312E+03</totfact>
</mgrwt>
</event>
<event>
 5    1  0.1433395E-002  0.1249978E+03  0.7818608E-02  0.1235073E+00
          4   -1    0    0  501    0  0.00000000000E+00  0.00000000000E+00  0.24505464341E+02  0.24538351260E+02  0.12700000000E+01 0. -1.
         -4   -1    0    0    0  501 -0.00000000000E+00 -0.00000000000E+00 -0.15925534342E+03  0.15926040722E+03  0.12700000000E+01 0. -1.
         25    2    1    2    0    0  0.00000000000E+00  0.00000000000E+00 -0.13474987908E+03  0.18379875848E+03  0.12499781481E+03 0.  0.
    9000005    1    3    3    0    0  0.11150630001E+02  0.57234479758E+02 -0.34331742547E+02  0.67674151409E+02  0.10000000000E+01 0.  0.
    9000005    1    3    3    0    0 -0.11150630001E+02 -0.57234479758E+02 -0.10041813653E+03  0.11612460707E+03  0.10000000000E+01 0.  0.
<mgrwt>
<rscale>  0 0.12499781E+03</rscale>
<asrwt>0</asrwt>
<pdfrwt beam="1">  1        4 0.61311104E-02 0.12499781E+03</pdfrwt>
<pdfrwt beam="2">  1       -4 0.39818577E-01 0.12499781E+03</pdfrwt>
<totfact> 0.16992861E+03</totfact>
</mgrwt>
</event>
<event>
 5    1  0.1433395E-002  0.1250063E+03  0.7818608E-02  0.1235059E+00
         -4   -1    0    0    0  501 -0.00000000000E+00  0.00000000000E+00  0.30834711796E+02  0.30860854679E+02  0.12700000000E+01 0.  1.
          4   -1    0    0  501    0  0.00000000000E+00 -0.00000000000E+00 -0.12661332242E+03  0.12661969166E+03  0.12700000000E+01 0.  1.
         25    2    1    2    0    0  0.00000000000E+00  0.00000000000E+00 -0.95778610629E+02  0.15748054634E+03  0.12500632072E+03 0.  0.
    9000005    1    3    3    0    0  0.10742287969E+02 -0.43073766389E+01 -0.12525763342E+03  0.12579517071E+03  0.10000000000E+01 0.  0.
    9000005    1    3    3    0    0 -0.10742287969E+02  0.43073766389E+01  0.29479022787E+02  0.31685375629E+02  0.10000000000E+01 0.  0.
<mgrwt>
<rscale>  0 0.12500632E+03</rscale>
<asrwt>0</asrwt>
<pdfrwt beam="2">  1        4 0.31657393E-01 0.12500632E+03</pdfrwt>
<pdfrwt beam="1">  1       -4 0.77127423E-02 0.12500632E+03</pdfrwt>
<totfact> 0.18174301E+03</totfact>
</mgrwt>
</event>
<event>
 5    1  0.1433395E-002  0.1249982E+03  0.7818608E-02  0.1235072E+00
          4   -1    0    0  501    0  0.00000000000E+00  0.00000000000E+00  0.45739374233E+02  0.45757002253E+02  0.12700000000E+01 0.  1.
         -4   -1    0    0    0  501 -0.00000000000E+00 -0.00000000000E+00 -0.85361020307E+02  0.85370467305E+02  0.12700000000E+01 0.  1.
         25    2    1    2    0    0  0.00000000000E+00  0.00000000000E+00 -0.39621646075E+02  0.13112746956E+03  0.12499815373E+03 0.  0.
    9000005    1    3    3    0    0 -0.59057321977E+02 -0.11524027909E+02 -0.37507028206E+02  0.70910843058E+02  0.10000000000E+01 0.  0.
    9000005    1    3    3    0    0  0.59057321977E+02  0.11524027909E+02 -0.21146178686E+01  0.60216626500E+02  0.10000000000E+01 0.  0.
<mgrwt>
<rscale>  0 0.12499815E+03</rscale>
<asrwt>0</asrwt>
<pdfrwt beam="1">  1        4 0.11438228E-01 0.12499815E+03</pdfrwt>
<pdfrwt beam="2">  1       -4 0.21343639E-01 0.12499815E+03</pdfrwt>
<totfact> 0.19504802E+03</totfact>
</mgrwt>
</event>
<event>
 5    1  0.1433395E-002  0.1249989E+03  0.7818608E-02  0.1235071E+00
         -4   -1    0    0    0  501 -0.00000000000E+00  0.00000000000E+00  0.23612927900E+02  0.23647056139E+02  0.12700000000E+01 0. -1.
          4   -1    0    0  501    0  0.00000000000E+00 -0.00000000000E+00 -0.16526954584E+03  0.16527442538E+03  0.12700000000E+01 0. -1.
         25    2    1    2    0    0  0.00000000000E+00  0.00000000000E+00 -0.14165661794E+03  0.18892148151E+03  0.12499891508E+03 0.  0.
    9000005    1    3    3    0    0  0.45258643392E+02  0.37614500824E+02 -0.10260288093E+03  0.11828586834E+03  0.10000000000E+01 0.  0.
    9000005    1    3    3    0    0 -0.45258643392E+02 -0.37614500824E+02 -0.39053737016E+02  0.70635613177E+02  0.10000000000E+01 0.  0.
<mgrwt>
<rscale>  0 0.12499892E+03</rscale>
<asrwt>0</asrwt>
<pdfrwt beam="2">  1        4 0.41322259E-01 0.12499892E+03</pdfrwt>
<pdfrwt beam="1">  1       -4 0.59081084E-02 0.12499892E+03</pdfrwt>
<totfact> 0.16775891E+03</totfact>
</mgrwt>
</event>
<event>
 5    1  0.1433395E-002  0.1249972E+03  0.7818608E-02  0.1235074E+00
         -4   -1    0    0    0  501 -0.00000000000E+00  0.00000000000E+00  0.76805133059E+02  0.76815632290E+02  0.12700000000E+01 0.  1.
          4   -1    0    0  501    0  0.00000000000E+00 -0.00000000000E+00 -0.50835016463E+02  0.50850878054E+02  0.12700000000E+01 0.  1.
         25    2    1    2    0    0  0.00000000000E+00  0.00000000000E+00  0.25970116595E+02  0.12766651034E+03  0.12499716360E+03 0.  0.
    9000005    1    3    3    0    0 -0.56423245756E+02 -0.25373042904E+02  0.21987988238E+02  0.65664644936E+02  0.10000000000E+01 0.  0.
    9000005    1    3    3    0    0  0.56423245756E+02  0.25373042904E+02  0.39821283575E+01  0.62001865408E+02  0.10000000000E+01 0.  0.
<mgrwt>
<rscale>  0 0.12499716E+03</rscale>
<asrwt>0</asrwt>
<pdfrwt beam="2">  1        4 0.12712049E-01 0.12499716E+03</pdfrwt>
<pdfrwt beam="1">  1       -4 0.19204578E-01 0.12499716E+03</pdfrwt>
<totfact> 0.19692003E+03</totfact>
</mgrwt>
</event>
<event>
 5    1  0.1433395E-002  0.1250303E+03  0.7818608E-02  0.1235022E+00
          4   -1    0    0  501    0  0.00000000000E+00  0.00000000000E+00  0.18508823207E+03  0.18509258913E+03  0.12700000000E+01 0. -1.
         -4   -1    0    0    0  501 -0.00000000000E+00 -0.00000000000E+00 -0.21091342358E+02  0.21129543830E+02  0.12700000000E+01 0. -1.
         25    2    1    2    0    0  0.00000000000E+00  0.00000000000E+00  0.16399688971E+03  0.20622213296E+03  0.12503034946E+03 0.  0.
    9000005    1    3    3    0    0 -0.46294587547E+02 -0.88051448264E+00  0.15125621676E+03  0.15818788591E+03  0.10000000000E+01 0.  0.
    9000005    1    3    3    0    0  0.46294587547E+02  0.88051448264E+00  0.12740672953E+02  0.48034247045E+02  0.10000000000E+01 0.  0.
<mgrwt>
<rscale>  0 0.12503035E+03</rscale>
<asrwt>0</asrwt>
<pdfrwt beam="1">  1        4 0.46277378E-01 0.12503035E+03</pdfrwt>
<pdfrwt beam="2">  1       -4 0.52781554E-02 0.12503035E+03</pdfrwt>
<totfact> 0.16064624E+03</totfact>
</mgrwt>
</event>
<event>
 5    1  0.1433395E-002  0.1250009E+03  0.7818608E-02  0.1235068E+00
         -4   -1    0    0    0  501 -0.00000000000E+00  0.00000000000E+00  0.16618832411E+03  0.16619317666E+03  0.12700000000E+01 0. -1.
          4   -1    0    0  501    0  0.00000000000E+00 -0.00000000000E+00 -0.23482952978E+02  0.23517269837E+02  0.12700000000E+01 0. -1.
         25    2    1    2    0    0  0.00000000000E+00  0.00000000000E+00  0.14270537113E+03  0.18971044650E+03  0.12500092225E+03 0.  0.
    9000005    1    3    3    0    0  0.15691300957E+02  0.31200469410E+02 -0.72976220052E+01  0.35692317157E+02  0.10000000000E+01 0.  0.
    9000005    1    3    3    0    0 -0.15691300957E+02 -0.31200469410E+02  0.15000299313E+03  0.15401812934E+03  0.10000000000E+01 0.  0.
<mgrwt>
<rscale>  0 0.12500092E+03</rscale>
<asrwt>0</asrwt>
<pdfrwt beam="2">  1        4 0.58756344E-02 0.12500092E+03</pdfrwt>
<pdfrwt beam="1">  1       -4 0.41551977E-01 0.12500092E+03</pdfrwt>
<totfact> 0.16742157E+03</totfact>
</mgrwt>
</event>
<event>
 5    1  0.1433395E-002  0.1250004E+03  0.7818608E-02  0.1235069E+00
         -4   -1    0    0    0  501 -0.00000000000E+00  0.00000000000E+00  0.15931743176E+02  0.15982282084E+02  0.12700000000E+01 0.  1.
          4   -1    0    0  501    0  0.00000000000E+00 -0.00000000000E+00 -0.24474770710E+03  0.24475100210E+03  0.12700000000E+01 0.  1.
         25    2    1    2    0    0  0.00000000000E+00  0.00000000000E+00 -0.22881596393E+03  0.26073328419E+03  0.12500040055E+03 0.  0.
    9000005    1    3    3    0    0  0.24385058934E+02 -0.25880244452E+02 -0.22159877976E+03  0.22443582010E+03  0.10000000000E+01 0.  0.
    9000005    1    3    3    0    0 -0.24385058934E+02  0.25880244452E+02 -0.72171841661E+01  0.36297464091E+02  0.10000000000E+01 0.  0.
<mgrwt>
<rscale>  0 0.12500040E+03</rscale>
<asrwt>0</asrwt>
<pdfrwt beam="2">  1        4 0.61193644E-01 0.12500040E+03</pdfrwt>
<pdfrwt beam="1">  1       -4 0.39896658E-02 0.12500040E+03</pdfrwt>
<totfact> 0.14147506E+03</totfact>
</mgrwt>
</event>
<event>
 5    1  0.1433395E-002  0.1250005E+03  0.7818608E-02  0.1235068E+00
          4   -1    0    0  501    0  0.00000000000E+00  0.00000000000E+00  0.15383021561E+02  0.15435357215E+02  0.12700000000E+01 0.  1.
         -4   -1    0    0    0  501 -0.00000000000E+00 -0.00000000000E+00 -0.25344951925E+03  0.25345270113E+03  0.12700000000E+01 0.  1.
         25    2    1    2    0    0  0.00000000000E+00  0.00000000000E+00 -0.23806649769E+03  0.26888805834E+03  0.12500052238E+03 0.  0.
    9000005    1    3    3    0    0  0.22339166006E+02 -0.45125140725E+02 -0.39414641039E+02  0.63951783334E+02  0.10000000000E+01 0.  0.
    9000005    1    3    3    0    0 -0.22339166006E+02  0.45125140725E+02 -0.19865185665E+03  0.20493627501E+03  0.10000000000E+01 0.  0.
<mgrwt>
<rscale>  0 0.12500052E+03</rscale>
<asrwt>0</asrwt>
<pdfrwt beam="1">  1        4 0.38526959E-02 0.12500052E+03</pdfrwt>
<pdfrwt beam="2">  1       -4 0.63369306E-01 0.12500052E+03</pdfrwt>
<totfact> 0.13889961E+03</totfact>
</mgrwt>
</event>
<event>
 5    1  0.1433395E-002  0.1250022E+03  0.7818608E-02  0.1235066E+00
          4   -1    0    0  501    0  0.00000000000E+00  0.00000000000E+00  0.28474987005E+02  0.28503294282E+02  0.12700000000E+01 0.  1.
         -4   -1    0    0    0  501 -0.00000000000E+00 -0.00000000000E+00 -0.13708720438E+03  0.13709308700E+03  0.12700000000E+01 0.  1.
         25    2    1    2    0    0  0.00000000000E+00  0.00000000000E+00 -0.10861221737E+03  0.16559638128E+03  0.12500219091E+03 0.  0.
    9000005    1    3    3    0    0  0.12873910242E+02  0.60193946055E+02 -0.68594865217E+02  0.92169974725E+02  0.10000000000E+01 0.  0.
    9000005    1    3    3    0    0 -0.12873910242E+02 -0.60193946055E+02 -0.40017352154E+02  0.73426406558E+02  0.10000000000E+01 0.  0.
<mgrwt>
<rscale>  0 0.12500219E+03</rscale>
<asrwt>0</asrwt>
<pdfrwt beam="1">  1        4 0.71230209E-02 0.12500219E+03</pdfrwt>
<pdfrwt beam="2">  1       -4 0.34276073E-01 0.12500219E+03</pdfrwt>
<totfact> 0.17796612E+03</totfact>
</mgrwt>
</event>
<event>
 5    1  0.1433395E-002  0.1250044E+03  0.7818608E-02  0.1235062E+00
         -4   -1    0    0    0  501 -0.00000000000E+00  0.00000000000E+00  0.21651368166E+03  0.21651740633E+03  0.12700000000E+01 0.  1.
          4   -1    0    0  501    0  0.00000000000E+00 -0.00000000000E+00 -0.18016620246E+02  0.18061326227E+02  0.12700000000E+01 0.  1.
         25    2    1    2    0    0  0.00000000000E+00  0.00000000000E+00  0.19849706141E+03  0.23457873256E+03  0.12500439344E+03 0.  0.
    9000005    1    3    3    0    0 -0.38166611367E+02  0.25790114064E+02  0.19993872256E+02  0.50225243996E+02  0.10000000000E+01 0.  0.
    9000005    1    3    3    0    0  0.38166611367E+02 -0.25790114064E+02  0.17850318915E+03  0.18435348856E+03  0.10000000000E+01 0.  0.
<mgrwt>
<rscale>  0 0.12500439E+03</rscale>
<asrwt>0</asrwt>
<pdfrwt beam="2">  1        4 0.45102090E-02 0.12500439E+03</pdfrwt>
<pdfrwt beam="1">  1       -4 0.54134473E-01 0.12500439E+03</pdfrwt>
<totfact> 0.15023551E+03</totfact>
</mgrwt>
</event>
<event>
 5    1  0.1433395E-002  0.1249937E+03  0.7818608E-02  0.1235079E+00
         -4   -1    0    0    0  501 -0.00000000000E+00  0.00000000000E+00  0.13245259088E+02  0.13306005724E+02  0.12700000000E+01 0.  1.
          4   -1    0    0  501    0  0.00000000000E+00 -0.00000000000E+00 -0.29415045486E+03  0.29415319647E+03  0.12700000000E+01 0.  1.
         25    2    1    2    0    0  0.00000000000E+00  0.00000000000E+00 -0.28090519577E+03  0.30745920220E+03  0.12499372785E+03 0.  0.
    9000005    1    3    3    0    0 -0.55720314122E+02  0.31213747685E+01 -0.71299411660E+02  0.90548895572E+02  0.10000000000E+01 0.  0.
    9000005    1    3    3    0    0  0.55720314122E+02 -0.31213747685E+01 -0.20960578411E+03  0.21691030662E+03  0.10000000000E+01 0.  0.
<mgrwt>
<rscale>  0 0.12499373E+03</rscale>
<asrwt>0</asrwt>
<pdfrwt beam="2">  1        4 0.73545528E-01 0.12499373E+03</pdfrwt>
<pdfrwt beam="1">  1       -4 0.33192518E-02 0.12499373E+03</pdfrwt>
<totfact> 0.12766379E+03</totfact>
</mgrwt>
</event>
<event>
 5    1  0.1433395E-002  0.1249971E+03  0.7818608E-02  0.1235074E+00
         -4   -1    0    0    0  501 -0.00000000000E+00  0.00000000000E+00  0.16262595475E+03  0.16263091360E+03  0.12700000000E+01 0.  1.
          4   -1    0    0  501    0  0.00000000000E+00 -0.00000000000E+00 -0.23996616530E+02  0.24030199851E+02  0.12700000000E+01 0.  1.
         25    2    1    2    0    0  0.00000000000E+00  0.00000000000E+00  0.13862933822E+03  0.18666111345E+03  0.12499711141E+03 0.  0.
    9000005    1    3    3    0    0 -0.41387358952E+02 -0.43402543170E+02  0.43090990201E+02  0.73854774193E+02  0.10000000000E+01 0.  0.
    9000005    1    3    3    0    0  0.41387358952E+02  0.43402543170E+02  0.95538348022E+02  0.11280633926E+03  0.10000000000E+01 0.  0.
<mgrwt>
<rscale>  0 0.12499711E+03</rscale>
<asrwt>0</asrwt>
<pdfrwt beam="2">  1        4 0.60039720E-02 0.12499711E+03</pdfrwt>
<pdfrwt beam="1">  1       -4 0.40661306E-01 0.12499711E+03</pdfrwt>
<totfact> 0.16871592E+03</totfact>
</mgrwt>
</event>
<event>
 5    1  0.1433395E-002  0.1250268E+03  0.7818608E-02  0.1235027E+00
         -4   -1    0    0    0  501 -0.00000000000E+00  0.00000000000E+00  0.11751696595E+03  0.11752382817E+03  0.12700000000E+01 0.  1.
          4   -1    0    0  501    0  0.00000000000E+00 -0.00000000000E+00 -0.33234150292E+02  0.33258407142E+02  0.12700000000E+01 0.  1.
         25    2    1    2    0    0  0.00000000000E+00  0.00000000000E+00  0.84282815660E+02  0.15078223531E+03  0.12502675501E+03 0.  0.
    9000005    1    3    3    0    0 -0.23843037540E+02  0.24183301244E+01  0.11176200509E+03  0.11430697504E+03  0.10000000000E+01 0.  0.
    9000005    1    3    3    0    0  0.23843037540E+02 -0.24183301244E+01 -0.27479189435E+02  0.36475260269E+02  0.10000000000E+01 0.  0.
<mgrwt>
<rscale>  0 0.12502676E+03</rscale>
<asrwt>0</asrwt>
<pdfrwt beam="2">  1        4 0.83124275E-02 0.12502676E+03</pdfrwt>
<pdfrwt beam="1">  1       -4 0.29383131E-01 0.12502676E+03</pdfrwt>
<totfact> 0.18488872E+03</totfact>
</mgrwt>
</event>
<event>
 5    1  0.1433395E-002  0.1249987E+03  0.7818608E-02  0.1235071E+00
         -4   -1    0    0    0  501 -0.00000000000E+00  0.00000000000E+00  0.20739925092E+03  0.20740313928E+03  0.12700000000E+01 0.  1.
          4   -1    0    0  501    0  0.00000000000E+00 -0.00000000000E+00 -0.18808581886E+02  0.18851409830E+02  0.12700000000E+01 0.  1.
         25    2    1    2    0    0  0.00000000000E+00  0.00000000000E+00  0.18859066904E+03  0.22625454911E+03  0.12499872217E+03 0.  0.
    9000005    1    3    3    0    0  0.19326699089E+02  0.58901799271E+02  0.80016894415E+02  0.10122572127E+03  0.10000000000E+01 0.  0.
    9000005    1    3    3    0    0 -0.19326699089E+02 -0.58901799271E+02  0.10857377462E+03  0.12502882784E+03  0.10000000000E+01 0.  0.
<mgrwt>
<rscale>  0 0.12499872E+03</rscale>
<asrwt>0</asrwt>
<pdfrwt beam="2">  1        4 0.47079850E-02 0.12499872E+03</pdfrwt>
<pdfrwt beam="1">  1       -4 0.51855653E-01 0.12499872E+03</pdfrwt>
<totfact> 0.15322526E+03</totfact>
</mgrwt>
</event>
<event>
 5    1  0.1433395E-002  0.1250069E+03  0.7818608E-02  0.1235058E+00
         -4   -1    0    0    0  501 -0.00000000000E+00  0.00000000000E+00  0.60408986536E+01  0.61729536320E+01  0.12700000000E+01 0. -1.
          4   -1    0    0  501    0  0.00000000000E+00 -0.00000000000E+00 -0.63958083202E+03  0.63958209292E+03  0.12700000000E+01 0. -1.
         25    2    1    2    0    0  0.00000000000E+00  0.00000000000E+00 -0.63353993336E+03  0.64575504655E+03  0.12500693173E+03 0.  0.
    9000005    1    3    3    0    0 -0.36259571414E+02  0.37234171772E+02 -0.49605535635E+03  0.49877154754E+03  0.10000000000E+01 0.  0.
    9000005    1    3    3    0    0  0.36259571414E+02 -0.37234171772E+02 -0.13748457701E+03  0.14698349902E+03  0.10000000000E+01 0.  0.
<mgrwt>
<rscale>  0 0.12500693E+03</rscale>
<asrwt>0</asrwt>
<pdfrwt beam="2">  1        4 0.15991164E+00 0.12500693E+03</pdfrwt>
<pdfrwt beam="1">  1       -4 0.15268913E-02 0.12500693E+03</pdfrwt>
<totfact> 0.67988185E+02</totfact>
</mgrwt>
</event>
<event>
 5    1  0.1433395E-002  0.1250015E+03  0.7818608E-02  0.1235067E+00
         -4   -1    0    0    0  501 -0.00000000000E+00  0.00000000000E+00  0.12597000124E+03  0.12597640300E+03  0.12700000000E+01 0. -1.
          4   -1    0    0  501    0  0.00000000000E+00 -0.00000000000E+00 -0.30989938443E+02  0.31015950488E+02  0.12700000000E+01 0. -1.
         25    2    1    2    0    0  0.00000000000E+00  0.00000000000E+00  0.94980062796E+02  0.15699235349E+03  0.12500154689E+03 0.  0.
    9000005    1    3    3    0    0 -0.15692043660E+02  0.57166314290E+02  0.72328084193E+02  0.93523149470E+02  0.10000000000E+01 0.  0.
    9000005    1    3    3    0    0  0.15692043660E+02 -0.57166314290E+02  0.22651978604E+02  0.63469204016E+02  0.10000000000E+01 0.  0.
<mgrwt>
<rscale>  0 0.12500155E+03</rscale>
<asrwt>0</asrwt>
<pdfrwt beam="2">  1        4 0.77515364E-02 0.12500155E+03</pdfrwt>
<pdfrwt beam="1">  1       -4 0.31496552E-01 0.12500155E+03</pdfrwt>
<totfact> 0.18199569E+03</totfact>
</mgrwt>
</event>
<event>
 5    1  0.1433395E-002  0.1250011E+03  0.7818608E-02  0.1235068E+00
         -4   -1    0    0    0  501 -0.00000000000E+00  0.00000000000E+00  0.79434407978E+02  0.79444559731E+02  0.12700000000E+01 0.  1.
          4   -1    0    0  501    0  0.00000000000E+00 -0.00000000000E+00 -0.49155128425E+02  0.49171531911E+02  0.12700000000E+01 0.  1.
         25    2    1    2    0    0  0.00000000000E+00  0.00000000000E+00  0.30279279553E+02  0.12861609164E+03  0.12500105703E+03 0.  0.
    9000005    1    3    3    0    0  0.55604299505E+02  0.25840017374E+02  0.27562392764E+02  0.67232656620E+02  0.10000000000E+01 0.  0.
    9000005    1    3    3    0    0 -0.55604299505E+02 -0.25840017374E+02  0.27168867891E+01  0.61383435022E+02  0.10000000000E+01 0.  0.
<mgrwt>
<rscale>  0 0.12500106E+03</rscale>
<asrwt>0</asrwt>
<pdfrwt beam="2">  1        4 0.12292102E-01 0.12500106E+03</pdfrwt>
<pdfrwt beam="1">  1       -4 0.19861921E-01 0.12500106E+03</pdfrwt>
<totfact> 0.19638594E+03</totfact>
</mgrwt>
</event>
<event>
 5    1  0.1433395E-002  0.1249962E+03  0.7818608E-02  0.1235075E+00
         -4   -1    0    0    0  501 -0.00000000000E+00  0.00000000000E+00  0.35721394686E+02  0.35743963662E+02  0.12700000000E+01 0. -1.
          4   -1    0    0  501    0  0.00000000000E+00 -0.00000000000E+00 -0.10928575016E+03  0.10929312919E+03  0.12700000000E+01 0. -1.
         25    2    1    2    0    0  0.00000000000E+00  0.00000000000E+00 -0.73564355472E+02  0.14503709285E+03  0.12499617557E+03 0.  0.
    9000005    1    3    3    0    0 -0.31503757692E+02  0.21556656254E+02 -0.94190309389E+02  0.10163656114E+03  0.10000000000E+01 0.  0.
    9000005    1    3    3    0    0  0.31503757692E+02 -0.21556656254E+02  0.20625953917E+02  0.43400531709E+02  0.10000000000E+01 0.  0.
<mgrwt>
<rscale>  0 0.12499618E+03</rscale>
<asrwt>0</asrwt>
<pdfrwt beam="2">  1        4 0.27325180E-01 0.12499618E+03</pdfrwt>
<pdfrwt beam="1">  1       -4 0.89340924E-02 0.12499618E+03</pdfrwt>
<totfact> 0.18787172E+03</totfact>
</mgrwt>
</event>
<event>
 5    1  0.1433395E-002  0.1250083E+03  0.7818608E-02  0.1235056E+00
          4   -1    0    0  501    0  0.00000000000E+00  0.00000000000E+00  0.31602014590E+01  0.34058439866E+01  0.12700000000E+01 0.  1.
         -4   -1    0    0    0  501 -0.00000000000E+00 -0.00000000000E+00 -0.11897453638E+04  0.11897460417E+04  0.12700000000E+01 0.  1.
         25    2    1    2    0    0  0.00000000000E+00  0.00000000000E+00 -0.11865851624E+04  0.11931518857E+04  0.12500829842E+03 0.  0.
    9000005    1    3    3    0    0  0.40729102385E+02  0.19802610766E+02 -0.10043489601E+04  0.10053699999E+04  0.10000000000E+01 0.  0.
    9000005    1    3    3    0    0 -0.40729102385E+02 -0.19802610766E+02 -0.18223620232E+03  0.18778188573E+03  0.10000000000E+01 0.  0.
<mgrwt>
<rscale>  0 0.12500830E+03</rscale>
<asrwt>0</asrwt>
<pdfrwt beam="1">  1        4 0.82084449E-03 0.12500830E+03</pdfrwt>
<pdfrwt beam="2">  1       -4 0.29746565E+00 0.12500830E+03</pdfrwt>
<totfact> 0.25558166E+02</totfact>
</mgrwt>
</event>
<event>
 5    1  0.1433395E-002  0.1250005E+03  0.7818608E-02  0.1235069E+00
         -4   -1    0    0    0  501 -0.00000000000E+00  0.00000000000E+00  0.24340870508E+02  0.24373979509E+02  0.12700000000E+01 0. -1.
          4   -1    0    0  501    0  0.00000000000E+00 -0.00000000000E+00 -0.16033766901E+03  0.16034269863E+03  0.12700000000E+01 0. -1.
         25    2    1    2    0    0  0.00000000000E+00  0.00000000000E+00 -0.13599679850E+03  0.18471667814E+03  0.12500048792E+03 0.  0.
    9000005    1    3    3    0    0 -0.25230926007E+02  0.22703759713E+02 -0.14553644881E+03  0.14944536883E+03  0.10000000000E+01 0.  0.
    9000005    1    3    3    0    0  0.25230926007E+02 -0.22703759713E+02  0.95396503093E+01  0.35271309307E+02  0.10000000000E+01 0.  0.
<mgrwt>
<rscale>  0 0.12500049E+03</rscale>
<asrwt>0</asrwt>
<pdfrwt beam="2">  1        4 0.40089182E-01 0.12500049E+03</pdfrwt>
<pdfrwt beam="1">  1       -4 0.60899854E-02 0.12500049E+03</pdfrwt>
<totfact> 0.16952681E+03</totfact>
</mgrwt>
</event>
<event>
 5    1  0.1433395E-002  0.1249970E+03  0.7818608E-02  0.1235074E+00
          4   -1    0    0  501    0  0.00000000000E+00  0.00000000000E+00  0.23199321894E+02  0.23234057682E+02  0.12700000000E+01 0.  1.
         -4   -1    0    0    0  501 -0.00000000000E+00 -0.00000000000E+00 -0.16820656339E+03  0.16821135772E+03  0.12700000000E+01 0.  1.
         25    2    1    2    0    0  0.00000000000E+00  0.00000000000E+00 -0.14500724149E+03  0.19144541540E+03  0.12499698794E+03 0.  0.
    9000005    1    3    3    0    0  0.45595150843E+02  0.42262677028E+02 -0.82191533801E+02  0.10306066116E+03  0.10000000000E+01 0.  0.
    9000005    1    3    3    0    0 -0.45595150843E+02 -0.42262677028E+02 -0.62815707690E+02  0.88384754243E+02  0.10000000000E+01 0.  0.
<mgrwt>
<rscale>  0 0.12499699E+03</rscale>
<asrwt>0</asrwt>
<pdfrwt beam="1">  1        4 0.58047722E-02 0.12499699E+03</pdfrwt>
<pdfrwt beam="2">  1       -4 0.42056579E-01 0.12499699E+03</pdfrwt>
<totfact> 0.16671572E+03</totfact>
</mgrwt>
</event>
<event>
 5    1  0.1433395E-002  0.1250012E+03  0.7818608E-02  0.1235067E+00
         -4   -1    0    0    0  501 -0.00000000000E+00  0.00000000000E+00  0.84801641104E+01  0.85747351761E+01  0.12700000000E+01 0.  1.
          4   -1    0    0  501    0  0.00000000000E+00 -0.00000000000E+00 -0.45799305935E+03  0.45799482018E+03  0.12700000000E+01 0.  1.
         25    2    1    2    0    0  0.00000000000E+00  0.00000000000E+00 -0.44951289524E+03  0.46656955536E+03  0.12500122799E+03 0.  0.
    9000005    1    3    3    0    0 -0.37181025247E+02 -0.26630750764E+02 -0.65797495759E+02  0.80136982554E+02  0.10000000000E+01 0.  0.
    9000005    1    3    3    0    0  0.37181025247E+02  0.26630750764E+02 -0.38371539948E+03  0.38643257281E+03  0.10000000000E+01 0.  0.
<mgrwt>
<rscale>  0 0.12500123E+03</rscale>
<asrwt>0</asrwt>
<pdfrwt beam="2">  1        4 0.11451022E+00 0.12500123E+03</pdfrwt>
<pdfrwt beam="1">  1       -4 0.21320841E-02 0.12500123E+03</pdfrwt>
<totfact> 0.93113899E+02</totfact>
</mgrwt>
</event>
<event>
 5    1  0.1433395E-002  0.1249737E+03  0.7818608E-02  0.1235110E+00
          4   -1    0    0  501    0  0.00000000000E+00  0.00000000000E+00  0.85362094611E+01  0.86301663926E+01  0.12700000000E+01 0.  1.
         -4   -1    0    0    0  501 -0.00000000000E+00 -0.00000000000E+00 -0.45481827644E+03  0.45482004956E+03  0.12700000000E+01 0.  1.
         25    2    1    2    0    0  0.00000000000E+00  0.00000000000E+00 -0.44628206697E+03  0.46345021595E+03  0.12497367467E+03 0.  0.
    9000005    1    3    3    0    0 -0.62421236106E+02 -0.58132659385E-01 -0.23308527035E+03  0.24130096840E+03  0.10000000000E+01 0.  0.
    9000005    1    3    3    0    0  0.62421236106E+02  0.58132659385E-01 -0.21319679663E+03  0.22214924755E+03  0.10000000000E+01 0.  0.
<mgrwt>
<rscale>  0 0.12497367E+03</rscale>
<asrwt>0</asrwt>
<pdfrwt beam="1">  1        4 0.21460202E-02 0.12497367E+03</pdfrwt>
<pdfrwt beam="2">  1       -4 0.11371645E+00 0.12497367E+03</pdfrwt>
<totfact> 0.93707458E+02</totfact>
</mgrwt>
</event>
<event>
 5    1  0.1433395E-002  0.1250421E+03  0.7818608E-02  0.1235004E+00
         -4   -1    0    0    0  501 -0.00000000000E+00  0.00000000000E+00  0.29691133514E+02  0.29718282409E+02  0.12700000000E+01 0.  1.
          4   -1    0    0  501    0  0.00000000000E+00 -0.00000000000E+00 -0.13156108610E+03  0.13156721581E+03  0.12700000000E+01 0.  1.
         25    2    1    2    0    0  0.00000000000E+00  0.00000000000E+00 -0.10186995258E+03  0.16128549822E+03  0.12504209170E+03 0.  0.
    9000005    1    3    3    0    0  0.33648207265E+02  0.28754367148E+02  0.60066734122E+01  0.44677685792E+02  0.10000000000E+01 0.  0.
    9000005    1    3    3    0    0 -0.33648207265E+02 -0.28754367148E+02 -0.10787662600E+03  0.11660781243E+03  0.10000000000E+01 0.  0.
<mgrwt>
<rscale>  0 0.12504209E+03</rscale>
<asrwt>0</asrwt>
<pdfrwt beam="2">  1        4 0.32894430E-01 0.12504209E+03</pdfrwt>
<pdfrwt beam="1">  1       -4 0.74269435E-02 0.12504209E+03</pdfrwt>
<totfact> 0.17979832E+03</totfact>
</mgrwt>
</event>
<event>
 5    1  0.1433395E-002  0.1249983E+03  0.7818608E-02  0.1235072E+00
         -4   -1    0    0    0  501 -0.00000000000E+00  0.00000000000E+00  0.16359076180E+04  0.16359081109E+04  0.12700000000E+01 0.  1.
          4   -1    0    0  501    0  0.00000000000E+00 -0.00000000000E+00 -0.22183536895E+01  0.25561676572E+01  0.12700000000E+01 0.  1.
         25    2    1    2    0    0  0.00000000000E+00  0.00000000000E+00  0.16336892643E+04  0.16384642786E+04  0.12499832002E+03 0.  0.
    9000005    1    3    3    0    0 -0.52899660360E+02 -0.31421631667E+02  0.96010613816E+03  0.96207613500E+03  0.10000000000E+01 0.  0.
    9000005    1    3    3    0    0  0.52899660360E+02  0.31421631667E+02  0.67358312613E+03  0.67638814360E+03  0.10000000000E+01 0.  0.
<mgrwt>
<rscale>  0 0.12499832E+03</rscale>
<asrwt>0</asrwt>
<pdfrwt beam="2">  1        4 0.59687699E-03 0.12499832E+03</pdfrwt>
<pdfrwt beam="1">  1       -4 0.40901905E+00 0.12499832E+03</pdfrwt>
<totfact> 0.85034984E+01</totfact>
</mgrwt>
</event>
<event>
 5    1  0.1433395E-002  0.1250002E+03  0.7818608E-02  0.1235069E+00
          4   -1    0    0  501    0  0.00000000000E+00  0.00000000000E+00  0.15276788407E+03  0.15277316290E+03  0.12700000000E+01 0. -1.
         -4   -1    0    0    0  501 -0.00000000000E+00 -0.00000000000E+00 -0.25548407517E+02  0.25579953609E+02  0.12700000000E+01 0. -1.
         25    2    1    2    0    0  0.00000000000E+00  0.00000000000E+00  0.12721947655E+03  0.17835311651E+03  0.12500015582E+03 0.  0.
    9000005    1    3    3    0    0  0.59683546934E+02  0.43770356673E+01  0.37927891661E+02  0.70857668475E+02  0.10000000000E+01 0.  0.
    9000005    1    3    3    0    0 -0.59683546934E+02 -0.43770356673E+01  0.89291584888E+02  0.10749544803E+03  0.10000000000E+01 0.  0.
<mgrwt>
<rscale>  0 0.12500016E+03</rscale>
<asrwt>0</asrwt>
<pdfrwt beam="1">  1        4 0.38196573E-01 0.12500016E+03</pdfrwt>
<pdfrwt beam="2">  1       -4 0.63917051E-02 0.12500016E+03</pdfrwt>
<totfact> 0.17226674E+03</totfact>
</mgrwt>
</event>
<event>
 5    1  0.1433395E-002  0.1249967E+03  0.7818608E-02  0.1235074E+00
         -4   -1    0    0    0  501 -0.00000000000E+00  0.00000000000E+00  0.24140653415E+03  0.24140987475E+03  0.12700000000E+01 0. -1.
          4   -1    0    0  501    0  0.00000000000E+00 -0.00000000000E+00 -0.16151971908E+02  0.16201823864E+02  0.12700000000E+01 0. -1.
         25    2    1    2    0    0  0.00000000000E+00  0.00000000000E+00  0.22525456224E+03  0.25761169862E+03  0.12499667778E+03 0.  0.
    9000005    1    3    3    0    0 -0.18615445643E+02 -0.27157540180E+02  0.22209013649E+03  0.22451969965E+03  0.10000000000E+01 0.  0.
    9000005    1    3    3    0    0  0.18615445643E+02  0.27157540180E+02  0.31644257453E+01  0.33091998964E+02  0.10000000000E+01 0.  0.
<mgrwt>
<rscale>  0 0.12499668E+03</rscale>
<asrwt>0</asrwt>
<pdfrwt beam="2">  1        4 0.40446421E-02 0.12499668E+03</pdfrwt>
<pdfrwt beam="1">  1       -4 0.60358282E-01 0.12499668E+03</pdfrwt>
<totfact> 0.14249253E+03</totfact>
</mgrwt>
</event>
<event>
 5    1  0.1433395E-002  0.1249897E+03  0.7818608E-02  0.1235085E+00
         -4   -1    0    0    0  501 -0.00000000000E+00  0.00000000000E+00  0.35655302735E+03  0.35655528914E+03  0.12700000000E+01 0.  1.
          4   -1    0    0  501    0  0.00000000000E+00 -0.00000000000E+00 -0.10914672191E+02  0.10988310563E+02  0.12700000000E+01 0.  1.
         25    2    1    2    0    0  0.00000000000E+00  0.00000000000E+00  0.34563835516E+03  0.36754359970E+03  0.12498970007E+03 0.  0.
    9000005    1    3    3    0    0 -0.42827231780E+02 -0.23301448874E+02  0.28774615249E+03  0.29184923775E+03  0.10000000000E+01 0.  0.
    9000005    1    3    3    0    0  0.42827231780E+02  0.23301448874E+02  0.57892202668E+02  0.75694361952E+02  0.10000000000E+01 0.  0.
<mgrwt>
<rscale>  0 0.12498970E+03</rscale>
<asrwt>0</asrwt>
<pdfrwt beam="2">  1        4 0.27381556E-02 0.12498970E+03</pdfrwt>
<pdfrwt beam="1">  1       -4 0.89147743E-01 0.12498970E+03</pdfrwt>
<totfact> 0.11272450E+03</totfact>
</mgrwt>
</event>
<event>
 5    1  0.1433395E-002  0.1249994E+03  0.7818608E-02  0.1235070E+00
          4   -1    0    0  501    0  0.00000000000E+00  0.00000000000E+00  0.84480784714E+03  0.84480880174E+03  0.12700000000E+01 0.  1.
         -4   -1    0    0    0  501 -0.00000000000E+00 -0.00000000000E+00 -0.45356056839E+01  0.47100550867E+01  0.12700000000E+01 0.  1.
         25    2    1    2    0    0  0.00000000000E+00  0.00000000000E+00  0.84027224146E+03  0.84951885682E+03  0.12499939334E+03 0.  0.
    9000005    1    3    3    0    0  0.52176540171E+01 -0.59406123884E+02  0.54708123352E+03  0.55032280303E+03  0.10000000000E+01 0.  0.
    9000005    1    3    3    0    0 -0.52176540171E+01  0.59406123884E+02  0.29319100794E+03  0.29919605379E+03  0.10000000000E+01 0.  0.
<mgrwt>
<rscale>  0 0.12499939E+03</rscale>
<asrwt>0</asrwt>
<pdfrwt beam="1">  1        4 0.21122384E+00 0.12499939E+03</pdfrwt>
<pdfrwt beam="2">  1       -4 0.11558272E-02 0.12499939E+03</pdfrwt>
<totfact> 0.48270972E+02</totfact>
</mgrwt>
</event>
<event>
 5    1  0.1433395E-002  0.1249751E+03  0.7818608E-02  0.1235108E+00
         -4   -1    0    0    0  501 -0.00000000000E+00  0.00000000000E+00  0.69409669739E+01  0.70561974557E+01  0.12700000000E+01 0. -1.
          4   -1    0    0  501    0  0.00000000000E+00 -0.00000000000E+00 -0.55781086499E+03  0.55781231073E+03  0.12700000000E+01 0. -1.
         25    2    1    2    0    0  0.00000000000E+00  0.00000000000E+00 -0.55086989802E+03  0.56486850819E+03  0.12497514552E+03 0.  0.
    9000005    1    3    3    0    0 -0.43705883801E+02 -0.43300132169E+02 -0.32465585727E+03  0.33043536643E+03  0.10000000000E+01 0.  0.
    9000005    1    3    3    0    0  0.43705883801E+02  0.43300132169E+02 -0.22621404075E+03  0.23443314176E+03  0.10000000000E+01 0.  0.
<mgrwt>
<rscale>  0 0.12497515E+03</rscale>
<asrwt>0</asrwt>
<pdfrwt beam="2">  1        4 0.13946715E+00 0.12497515E+03</pdfrwt>
<pdfrwt beam="1">  1       -4 0.17498282E-02 0.12497515E+03</pdfrwt>
<totfact> 0.78152815E+02</totfact>
</mgrwt>
</event>
<event>
 5    1  0.1433395E-002  0.1249973E+03  0.7818608E-02  0.1235073E+00
          4   -1    0    0  501    0  0.00000000000E+00  0.00000000000E+00  0.70789508017E+01  0.71919708323E+01  0.12700000000E+01 0.  1.
         -4   -1    0    0    0  501 -0.00000000000E+00 -0.00000000000E+00 -0.54730451860E+03  0.54730599209E+03  0.12700000000E+01 0.  1.
         25    2    1    2    0    0  0.00000000000E+00  0.00000000000E+00 -0.54022556780E+03  0.55449796293E+03  0.12499730711E+03 0.  0.
    9000005    1    3    3    0    0  0.41803712020E+02 -0.46192103037E+02 -0.24846172906E+03  0.25615520984E+03  0.10000000000E+01 0.  0.
    9000005    1    3    3    0    0 -0.41803712020E+02  0.46192103037E+02 -0.29176383874E+03  0.29834275308E+03  0.10000000000E+01 0.  0.
<mgrwt>
<rscale>  0 0.12499731E+03</rscale>
<asrwt>0</asrwt>
<pdfrwt beam="1">  1        4 0.17840512E-02 0.12499731E+03</pdfrwt>
<pdfrwt beam="2">  1       -4 0.13684030E+00 0.12499731E+03</pdfrwt>
<totfact> 0.79547531E+02</totfact>
</mgrwt>
</event>
<event>
 5    1  0.1433395E-002  0.1249966E+03  0.7818608E-02  0.1235075E+00
         -4   -1    0    0    0  501 -0.00000000000E+00  0.00000000000E+00  0.39950198841E+03  0.39950400704E+03  0.12700000000E+01 0.  1.
          4   -1    0    0  501    0  0.00000000000E+00 -0.00000000000E+00 -0.97339738160E+01  0.98164732084E+01  0.12700000000E+01 0.  1.
         25    2    1    2    0    0  0.00000000000E+00  0.00000000000E+00  0.38976801459E+03  0.40932048025E+03  0.12499660136E+03 0.  0.
    9000005    1    3    3    0    0 -0.57255269053E+01  0.43584380210E+02  0.49441571353E+02  0.66165314437E+02  0.10000000000E+01 0.  0.
    9000005    1    3    3    0    0  0.57255269053E+01 -0.43584380210E+02  0.34032644324E+03  0.34315516581E+03  0.10000000000E+01 0.  0.
<mgrwt>
<rscale>  0 0.12499660E+03</rscale>
<asrwt>0</asrwt>
<pdfrwt beam="2">  1        4 0.24440584E-02 0.12499660E+03</pdfrwt>
<pdfrwt beam="1">  1       -4 0.99886053E-01 0.12499660E+03</pdfrwt>
<totfact> 0.10380501E+03</totfact>
</mgrwt>
</event>
<event>
 5    1  0.1433395E-002  0.1250087E+03  0.7818608E-02  0.1235056E+00
          4   -1    0    0  501    0  0.00000000000E+00  0.00000000000E+00  0.44413551223E+03  0.44413732800E+03  0.12700000000E+01 0.  1.
         -4   -1    0    0    0  501 -0.00000000000E+00 -0.00000000000E+00 -0.87487107542E+01  0.88404094849E+01  0.12700000000E+01 0.  1.
         25    2    1    2    0    0  0.00000000000E+00  0.00000000000E+00  0.43538680147E+03  0.45297773748E+03  0.12500865473E+03 0.  0.
    9000005    1    3    3    0    0 -0.33013822819E+02 -0.38770134272E-01  0.40997760628E+03  0.41130591006E+03  0.10000000000E+01 0.  0.
    9000005    1    3    3    0    0  0.33013822819E+02  0.38770134272E-01  0.25409195192E+02  0.41671827421E+02  0.10000000000E+01 0.  0.
<mgrwt>
<rscale>  0 0.12500865E+03</rscale>
<asrwt>0</asrwt>
<pdfrwt beam="1">  1        4 0.11104557E+00 0.12500865E+03</pdfrwt>
<pdfrwt beam="2">  1       -4 0.21988670E-02 0.12500865E+03</pdfrwt>
<totfact> 0.95466012E+02</totfact>
</mgrwt>
</event>
<event>
 5    1  0.1433395E-002  0.1249987E+03  0.7818608E-02  0.1235071E+00
         -4   -1    0    0    0  501 -0.00000000000E+00  0.00000000000E+00  0.24368782079E+03  0.24369113013E+03  0.12700000000E+01 0. -1.
          4   -1    0    0  501    0  0.00000000000E+00 -0.00000000000E+00 -0.16000821995E+02  0.16051143402E+02  0.12700000000E+01 0. -1.
         25    2    1    2    0    0  0.00000000000E+00  0.00000000000E+00  0.22768699880E+03  0.25974227353E+03  0.12499871694E+03 0.  0.
    9000005    1    3    3    0    0  0.16631122628E+02  0.48228826178E+01  0.23861307923E+03  0.23924267182E+03  0.10000000000E+01 0.  0.
    9000005    1    3    3    0    0 -0.16631122628E+02 -0.48228826178E+01 -0.10926080437E+02  0.20499601711E+02  0.10000000000E+01 0.  0.
<mgrwt>
<rscale>  0 0.12499872E+03</rscale>
<asrwt>0</asrwt>
<pdfrwt beam="2">  1        4 0.40069094E-02 0.12499872E+03</pdfrwt>
<pdfrwt beam="1">  1       -4 0.60928658E-01 0.12499872E+03</pdfrwt>
<totfact> 0.14179849E+03</totfact>
</mgrwt>
</event>
<event>
 5    1  0.1433395E-002  0.1250004E+03  0.7818608E-02  0.1235069E+00
          4   -1    0    0  501    0  0.00000000000E+00  0.00000000000E+00  0.53381654395E+02  0.53396759508E+02  0.12700000000E+01 0. -1.
         -4   -1    0    0    0  501 -0.00000000000E+00 -0.00000000000E+00 -0.73145441409E+02  0.73156465872E+02  0.12700000000E+01 0. -1.
         25    2    1    2    0    0  0.00000000000E+00  0.00000000000E+00 -0.19763787014E+02  0.12655322538E+03  0.12500044631E+03 0.  0.
    9000005    1    3    3    0    0 -0.21042705522E+02  0.48356189493E+02 -0.43826906910E+02  0.68577797335E+02  0.10000000000E+01 0.  0.
    9000005    1    3    3    0    0  0.21042705522E+02 -0.48356189493E+02  0.24063119895E+02  0.57975428046E+02  0.10000000000E+01 0.  0.
<mgrwt>
<rscale>  0 0.12500045E+03</rscale>
<asrwt>0</asrwt>
<pdfrwt beam="1">  1        4 0.13348680E-01 0.12500045E+03</pdfrwt>
<pdfrwt beam="2">  1       -4 0.18289626E-01 0.12500045E+03</pdfrwt>
<totfact> 0.19750848E+03</totfact>
</mgrwt>
</event>
<event>
 4    1  0.1433395E-002  0.1247501E+03  0.7818608E-02  0.1235460E+00
          4   -1    0    0  501    0  0.00000000000E+00  0.00000000000E+00  0.13867541607E+03  0.13868123133E+03  0.12700000000E+01 0. -1.
         -4   -1    0    0    0  501 -0.00000000000E+00 -0.00000000000E+00 -0.28035009343E+02  0.28063760420E+02  0.12700000000E+01 0. -1.
    9000005    1    1    2    0    0  0.60030513105E+01  0.57926406462E+02  0.25487759689E+02  0.63577756209E+02  0.10000000000E+01 0.  0.
    9000005    1    1    2    0    0 -0.60030513105E+01 -0.57926406462E+02  0.85152647038E+02  0.10316723554E+03  0.10000000000E+01 0.  0.
<mgrwt>
<rscale>  0 0.12475012E+03</rscale>
<asrwt>0</asrwt>
<pdfrwt beam="1">  1        4 0.34673175E-01 0.12475012E+03</pdfrwt>
<pdfrwt beam="2">  1       -4 0.70130732E-02 0.12475012E+03</pdfrwt>
<totfact> 0.17848229E+03</totfact>
</mgrwt>
</event>
<event>
 5    1  0.1433395E-002  0.1250004E+03  0.7818608E-02  0.1235069E+00
          4   -1    0    0  501    0  0.00000000000E+00  0.00000000000E+00  0.24853108161E+02  0.24885535664E+02  0.12700000000E+01 0. -1.
         -4   -1    0    0    0  501 -0.00000000000E+00 -0.00000000000E+00 -0.15703706739E+03  0.15704220272E+03  0.12700000000E+01 0. -1.
         25    2    1    2    0    0  0.00000000000E+00  0.00000000000E+00 -0.13218395923E+03  0.18192773838E+03  0.12500041166E+03 0.  0.
    9000005    1    3    3    0    0  0.14540425888E+02 -0.29804557759E+02  0.10997606882E+02  0.34952582242E+02  0.10000000000E+01 0.  0.
    9000005    1    3    3    0    0 -0.14540425888E+02  0.29804557759E+02 -0.14318156611E+03  0.14697515614E+03  0.10000000000E+01 0.  0.
<mgrwt>
<rscale>  0 0.12500041E+03</rscale>
<asrwt>0</asrwt>
<pdfrwt beam="1">  1        4 0.62179728E-02 0.12500041E+03</pdfrwt>
<pdfrwt beam="2">  1       -4 0.39263959E-01 0.12500041E+03</pdfrwt>
<totfact> 0.17071936E+03</totfact>
</mgrwt>
</event>
<event>
 5    1  0.1433395E-002  0.1249982E+03  0.7818608E-02  0.1235072E+00
          4   -1    0    0  501    0  0.00000000000E+00  0.00000000000E+00  0.70174268418E+03  0.70174383339E+03  0.12700000000E+01 0.  1.
         -4   -1    0    0    0  501 -0.00000000000E+00 -0.00000000000E+00 -0.54927337335E+01  0.56376434675E+01  0.12700000000E+01 0.  1.
         25    2    1    2    0    0  0.00000000000E+00  0.00000000000E+00  0.69624995044E+03  0.70738147685E+03  0.12499824120E+03 0.  0.
    9000005    1    3    3    0    0  0.56903592429E+02  0.96599499807E+01  0.21256466473E+03  0.22026363785E+03  0.10000000000E+01 0.  0.
    9000005    1    3    3    0    0 -0.56903592429E+02 -0.96599499807E+01  0.48368528571E+03  0.48711783901E+03  0.10000000000E+01 0.  0.
<mgrwt>
<rscale>  0 0.12499824E+03</rscale>
<asrwt>0</asrwt>
<pdfrwt beam="1">  1        4 0.17545388E+00 0.12499824E+03</pdfrwt>
<pdfrwt beam="2">  1       -4 0.13914412E-02 0.12499824E+03</pdfrwt>
<totfact> 0.61302178E+02</totfact>
</mgrwt>
</event>
<event>
 5    1  0.1433395E-002  0.1250160E+03  0.7818608E-02  0.1235044E+00
         -4   -1    0    0    0  501 -0.00000000000E+00  0.00000000000E+00  0.18724465786E+03  0.18724896474E+03  0.12700000000E+01 0. -1.
          4   -1    0    0  501    0  0.00000000000E+00 -0.00000000000E+00 -0.20843224539E+02  0.20881879924E+02  0.12700000000E+01 0. -1.
         25    2    1    2    0    0  0.00000000000E+00  0.00000000000E+00  0.16640143332E+03  0.20813084467E+03  0.12501604493E+03 0.  0.
    9000005    1    3    3    0    0  0.25625453309E+02 -0.34041688507E+02  0.70766467164E+01  0.43203927396E+02  0.10000000000E+01 0.  0.
    9000005    1    3    3    0    0 -0.25625453309E+02  0.34041688507E+02  0.15932478661E+03  0.16492691727E+03  0.10000000000E+01 0.  0.
<mgrwt>
<rscale>  0 0.12501604E+03</rscale>
<asrwt>0</asrwt>
<pdfrwt beam="2">  1        4 0.52161765E-02 0.12501604E+03</pdfrwt>
<pdfrwt beam="1">  1       -4 0.46816534E-01 0.12501604E+03</pdfrwt>
<totfact> 0.15995636E+03</totfact>
</mgrwt>
</event>
<event>
 5    1  0.1433395E-002  0.1249978E+03  0.7818608E-02  0.1235073E+00
          4   -1    0    0  501    0  0.00000000000E+00  0.00000000000E+00  0.10427151567E+02  0.10504208195E+02  0.12700000000E+01 0.  1.
         -4   -1    0    0    0  501 -0.00000000000E+00 -0.00000000000E+00 -0.37315263908E+03  0.37315480025E+03  0.12700000000E+01 0.  1.
         25    2    1    2    0    0  0.00000000000E+00  0.00000000000E+00 -0.36272548751E+03  0.38365900845E+03  0.12499782187E+03 0.  0.
    9000005    1    3    3    0    0  0.36327453037E+01 -0.53791289307E+02 -0.27834635126E+03  0.28352141172E+03  0.10000000000E+01 0.  0.
    9000005    1    3    3    0    0 -0.36327453037E+01  0.53791289307E+02 -0.84379136252E+02  0.10013759673E+03  0.10000000000E+01 0.  0.
<mgrwt>
<rscale>  0 0.12499782E+03</rscale>
<asrwt>0</asrwt>
<pdfrwt beam="1">  1        4 0.26166914E-02 0.12499782E+03</pdfrwt>
<pdfrwt beam="2">  1       -4 0.93298018E-01 0.12499782E+03</pdfrwt>
<totfact> 0.10914269E+03</totfact>
</mgrwt>
</event>
<event>
 5    1  0.1433395E-002  0.1249983E+03  0.7818608E-02  0.1235072E+00
         -4   -1    0    0    0  501 -0.00000000000E+00  0.00000000000E+00  0.51874564333E+03  0.51874719794E+03  0.12700000000E+01 0. -1.
          4   -1    0    0  501    0  0.00000000000E+00 -0.00000000000E+00 -0.74748583127E+01  0.75819790816E+01  0.12700000000E+01 0. -1.
         25    2    1    2    0    0  0.00000000000E+00  0.00000000000E+00  0.51127078502E+03  0.52632917702E+03  0.12499834789E+03 0.  0.
    9000005    1    3    3    0    0 -0.49638369425E+02 -0.66950391196E+01  0.98291036575E+02  0.11032188876E+03  0.10000000000E+01 0.  0.
    9000005    1    3    3    0    0  0.49638369425E+02  0.66950391196E+01  0.41297974844E+03  0.41600728826E+03  0.10000000000E+01 0.  0.
<mgrwt>
<rscale>  0 0.12499835E+03</rscale>
<asrwt>0</asrwt>
<pdfrwt beam="2">  1        4 0.18822990E-02 0.12499835E+03</pdfrwt>
<pdfrwt beam="1">  1       -4 0.12969999E+00 0.12499835E+03</pdfrwt>
<totfact> 0.83568979E+02</totfact>
</mgrwt>
</event>
<event>
 5    1  0.1433395E-002  0.1250035E+03  0.7818608E-02  0.1235064E+00
          4   -1    0    0  501    0  0.00000000000E+00  0.00000000000E+00  0.12303052010E+03  0.12303707480E+03  0.12700000000E+01 0.  1.
         -4   -1    0    0    0  501 -0.00000000000E+00 -0.00000000000E+00 -0.31731922603E+02  0.31757326904E+02  0.12700000000E+01 0.  1.
         25    2    1    2    0    0  0.00000000000E+00  0.00000000000E+00  0.91298597497E+02  0.15479440171E+03  0.12500349153E+03 0.  0.
    9000005    1    3    3    0    0 -0.47260269575E+02 -0.26710294939E+02  0.73114184268E+01  0.54785306200E+02  0.10000000000E+01 0.  0.
    9000005    1    3    3    0    0  0.47260269575E+02  0.26710294939E+02  0.83987179070E+02  0.10000909551E+03  0.10000000000E+01 0.  0.
<mgrwt>
<rscale>  0 0.12500349E+03</rscale>
<asrwt>0</asrwt>
<pdfrwt beam="1">  1        4 0.30761624E-01 0.12500349E+03</pdfrwt>
<pdfrwt beam="2">  1       -4 0.79369757E-02 0.12500349E+03</pdfrwt>
<totfact> 0.18304038E+03</totfact>
</mgrwt>
</event>
<event>
 5    1  0.1433395E-002  0.1250023E+03  0.7818608E-02  0.1235066E+00
         -4   -1    0    0    0  501 -0.00000000000E+00  0.00000000000E+00  0.36044346809E+02  0.36066713697E+02  0.12700000000E+01 0.  1.
          4   -1    0    0  501    0  0.00000000000E+00 -0.00000000000E+00 -0.10831778460E+03  0.10832522957E+03  0.12700000000E+01 0.  1.
         25    2    1    2    0    0  0.00000000000E+00  0.00000000000E+00 -0.72273437793E+02  0.14439194327E+03  0.12500233386E+03 0.  0.
    9000005    1    3    3    0    0  0.23429413886E+01 -0.47761650719E+02 -0.82610949682E+02  0.95458020412E+02  0.10000000000E+01 0.  0.
    9000005    1    3    3    0    0 -0.23429413886E+01  0.47761650719E+02  0.10337511889E+02  0.48933922853E+02  0.10000000000E+01 0.  0.
<mgrwt>
<rscale>  0 0.12500233E+03</rscale>
<asrwt>0</asrwt>
<pdfrwt beam="2">  1        4 0.27083172E-01 0.12500233E+03</pdfrwt>
<pdfrwt beam="1">  1       -4 0.90148134E-02 0.12500233E+03</pdfrwt>
<totfact> 0.18816843E+03</totfact>
</mgrwt>
</event>
<event>
 5    1  0.1433395E-002  0.1249971E+03  0.7818608E-02  0.1235074E+00
         -4   -1    0    0    0  501 -0.00000000000E+00  0.00000000000E+00  0.38042097819E+02  0.38063290799E+02  0.12700000000E+01 0. -1.
          4   -1    0    0  501    0  0.00000000000E+00 -0.00000000000E+00 -0.10262378996E+03  0.10263164797E+03  0.12700000000E+01 0. -1.
         25    2    1    2    0    0  0.00000000000E+00  0.00000000000E+00 -0.64581692140E+02  0.14069493877E+03  0.12499708331E+03 0.  0.
    9000005    1    3    3    0    0  0.31731828889E+02 -0.14831400400E+02  0.25959585895E+02  0.43609396950E+02  0.10000000000E+01 0.  0.
    9000005    1    3    3    0    0 -0.31731828889E+02  0.14831400400E+02 -0.90541278035E+02  0.97085541821E+02  0.10000000000E+01 0.  0.
<mgrwt>
<rscale>  0 0.12499708E+03</rscale>
<asrwt>0</asrwt>
<pdfrwt beam="2">  1        4 0.25659578E-01 0.12499708E+03</pdfrwt>
<pdfrwt beam="1">  1       -4 0.95141560E-02 0.12499708E+03</pdfrwt>
<totfact> 0.19006139E+03</totfact>
</mgrwt>
</event>
<event>
 5    1  0.1433395E-002  0.1250021E+03  0.7818608E-02  0.1235066E+00
         -4   -1    0    0    0  501 -0.00000000000E+00  0.00000000000E+00  0.12072140179E+02  0.12138758935E+02  0.12700000000E+01 0.  1.
          4   -1    0    0  501    0  0.00000000000E+00 -0.00000000000E+00 -0.32262813004E+03  0.32263062966E+03  0.12700000000E+01 0.  1.
         25    2    1    2    0    0  0.00000000000E+00  0.00000000000E+00 -0.31055598986E+03  0.33476938859E+03  0.12500208278E+03 0.  0.
    9000005    1    3    3    0    0 -0.51042973612E+02  0.75729561267E+01 -0.24968453694E+03  0.25496294399E+03  0.10000000000E+01 0.  0.
    9000005    1    3    3    0    0  0.51042973612E+02 -0.75729561267E+01 -0.60871452916E+02  0.79806444601E+02  0.10000000000E+01 0.  0.
<mgrwt>
<rscale>  0 0.12500208E+03</rscale>
<asrwt>0</asrwt>
<pdfrwt beam="2">  1        4 0.80665644E-01 0.12500208E+03</pdfrwt>
<pdfrwt beam="1">  1       -4 0.30266759E-02 0.12500208E+03</pdfrwt>
<totfact> 0.12049074E+03</totfact>
</mgrwt>
</event>
<event>
 5    1  0.1433395E-002  0.1250014E+03  0.7818608E-02  0.1235067E+00
          4   -1    0    0  501    0  0.00000000000E+00  0.00000000000E+00  0.32045642963E+03  0.32045894619E+03  0.12700000000E+01 0. -1.
         -4   -1    0    0    0  501 -0.00000000000E+00 -0.00000000000E+00 -0.12154263267E+02  0.12220434344E+02  0.12700000000E+01 0. -1.
         25    2    1    2    0    0  0.00000000000E+00  0.00000000000E+00  0.30830216637E+03  0.33267938053E+03  0.12500137778E+03 0.  0.
    9000005    1    3    3    0    0  0.55330535376E+02 -0.93960221364E+01  0.80994721729E+02  0.98543890348E+02  0.10000000000E+01 0.  0.
    9000005    1    3    3    0    0 -0.55330535376E+02  0.93960221364E+01  0.22730744464E+03  0.23413549019E+03  0.10000000000E+01 0.  0.
<mgrwt>
<rscale>  0 0.12500138E+03</rscale>
<asrwt>0</asrwt>
<pdfrwt beam="1">  1        4 0.80122688E-01 0.12500138E+03</pdfrwt>
<pdfrwt beam="2">  1       -4 0.30471520E-02 0.12500138E+03</pdfrwt>
<totfact> 0.12101798E+03</totfact>
</mgrwt>
</event>
<event>
 5    1  0.1433395E-002  0.1249988E+03  0.7818608E-02  0.1235071E+00
          4   -1    0    0  501    0  0.00000000000E+00  0.00000000000E+00  0.12007620589E+02  0.12074595323E+02  0.12700000000E+01 0. -1.
         -4   -1    0    0    0  501 -0.00000000000E+00 -0.00000000000E+00 -0.32433525369E+03  0.32433774015E+03  0.12700000000E+01 0. -1.
         25    2    1    2    0    0  0.00000000000E+00  0.00000000000E+00 -0.31232763310E+03  0.33641233548E+03  0.12499883624E+03 0.  0.
    9000005    1    3    3    0    0  0.47899402678E+02 -0.10467096390E+02 -0.26044225828E+03  0.26501902344E+03  0.10000000000E+01 0.  0.
    9000005    1    3    3    0    0 -0.47899402678E+02  0.10467096390E+02 -0.51885374821E+02  0.71393312040E+02  0.10000000000E+01 0.  0.
<mgrwt>
<rscale>  0 0.12499884E+03</rscale>
<asrwt>0</asrwt>
<pdfrwt beam="1">  1        4 0.30105889E-02 0.12499884E+03</pdfrwt>
<pdfrwt beam="2">  1       -4 0.81092467E-01 0.12499884E+03</pdfrwt>
<totfact> 0.12008913E+03</totfact>
</mgrwt>
</event>
<event>
 5    1  0.1433395E-002  0.1250107E+03  0.7818608E-02  0.1235053E+00
         -4   -1    0    0    0  501 -0.00000000000E+00  0.00000000000E+00  0.12103543909E+04  0.12103550572E+04  0.12700000000E+01 0. -1.
          4   -1    0    0  501    0  0.00000000000E+00 -0.00000000000E+00 -0.31023008982E+01  0.33521889659E+01  0.12700000000E+01 0. -1.
         25    2    1    2    0    0  0.00000000000E+00  0.00000000000E+00  0.12072520901E+04  0.12137072462E+04  0.12501068180E+03 0.  0.
    9000005    1    3    3    0    0  0.21103351829E+02 -0.12845160867E+01  0.32625081249E+02  0.38889553436E+02  0.10000000000E+01 0.  0.
    9000005    1    3    3    0    0 -0.21103351829E+02  0.12845160867E+01  0.11746270088E+04  0.11748176928E+04  0.10000000000E+01 0.  0.
<mgrwt>
<rscale>  0 0.12501068E+03</rscale>
<asrwt>0</asrwt>
<pdfrwt beam="2">  1        4 0.80689404E-03 0.12501068E+03</pdfrwt>
<pdfrwt beam="1">  1       -4 0.30262010E+00 0.12501068E+03</pdfrwt>
<totfact> 0.24487438E+02</totfact>
</mgrwt>
</event>
<event>
 5    1  0.1433395E-002  0.1249994E+03  0.7818608E-02  0.1235070E+00
          4   -1    0    0  501    0  0.00000000000E+00  0.00000000000E+00  0.69365334955E+03  0.69365451216E+03  0.12700000000E+01 0.  1.
         -4   -1    0    0    0  501 -0.00000000000E+00 -0.00000000000E+00 -0.55585778159E+01  0.57018143898E+01  0.12700000000E+01 0.  1.
         25    2    1    2    0    0  0.00000000000E+00  0.00000000000E+00  0.68809477173E+03  0.69935632655E+03  0.12499942640E+03 0.  0.
    9000005    1    3    3    0    0 -0.60694633891E+02 -0.13530106274E+02  0.30941704913E+03  0.31560546993E+03  0.10000000000E+01 0.  0.
    9000005    1    3    3    0    0  0.60694633891E+02  0.13530106274E+02  0.37867772261E+03  0.38375085662E+03  0.10000000000E+01 0.  0.
<mgrwt>
<rscale>  0 0.12499943E+03</rscale>
<asrwt>0</asrwt>
<pdfrwt beam="1">  1        4 0.17343144E+00 0.12499943E+03</pdfrwt>
<pdfrwt beam="2">  1       -4 0.14076939E-02 0.12499943E+03</pdfrwt>
<totfact> 0.62133813E+02</totfact>
</mgrwt>
</event>
<event>
 5    1  0.1433395E-002  0.1250030E+03  0.7818608E-02  0.1235065E+00
         -4   -1    0    0    0  501 -0.00000000000E+00  0.00000000000E+00  0.16740121263E+03  0.16740603003E+03  0.12700000000E+01 0. -1.
          4   -1    0    0  501    0  0.00000000000E+00 -0.00000000000E+00 -0.23313335726E+02  0.23347901890E+02  0.12700000000E+01 0. -1.
         25    2    1    2    0    0  0.00000000000E+00  0.00000000000E+00  0.14408787691E+03  0.19075393192E+03  0.12500298505E+03 0.  0.
    9000005    1    3    3    0    0  0.36542448887E+02  0.13574171460E+02 -0.24931918034E+01  0.39074604373E+02  0.10000000000E+01 0.  0.
    9000005    1    3    3    0    0 -0.36542448887E+02 -0.13574171460E+02  0.14658106871E+03  0.15167932755E+03  0.10000000000E+01 0.  0.
<mgrwt>
<rscale>  0 0.12500299E+03</rscale>
<asrwt>0</asrwt>
<pdfrwt beam="2">  1        4 0.58332570E-02 0.12500299E+03</pdfrwt>
<pdfrwt beam="1">  1       -4 0.41855225E-01 0.12500299E+03</pdfrwt>
<totfact> 0.16697934E+03</totfact>
</mgrwt>
</event>
<event>
 5    1  0.1433395E-002  0.1250058E+03  0.7818608E-02  0.1235060E+00
          4   -1    0    0  501    0  0.00000000000E+00  0.00000000000E+00  0.66617231261E+01  0.67817000087E+01  0.12700000000E+01 0.  1.
         -4   -1    0    0    0  501 -0.00000000000E+00 -0.00000000000E+00 -0.58107226624E+03  0.58107365411E+03  0.12700000000E+01 0.  1.
         25    2    1    2    0    0  0.00000000000E+00  0.00000000000E+00 -0.57441054312E+03  0.58785535412E+03  0.12500578114E+03 0.  0.
    9000005    1    3    3    0    0 -0.32732125579E+02 -0.34753077354E+02 -0.47685830354E+03  0.47924316383E+03  0.10000000000E+01 0.  0.
    9000005    1    3    3    0    0  0.32732125579E+02  0.34753077354E+02 -0.97552239582E+02  0.10861219028E+03  0.10000000000E+01 0.  0.
<mgrwt>
<rscale>  0 0.12500578E+03</rscale>
<asrwt>0</asrwt>
<pdfrwt beam="1">  1        4 0.16806033E-02 0.12500578E+03</pdfrwt>
<pdfrwt beam="2">  1       -4 0.14528307E+00 0.12500578E+03</pdfrwt>
<totfact> 0.75042773E+02</totfact>
</mgrwt>
</event>
<event>
 4    1  0.1433395E-002  0.1253543E+03  0.7818608E-02  0.1234517E+00
          4   -1    0    0  501    0  0.00000000000E+00  0.00000000000E+00  0.68158927189E+01  0.69332022583E+01  0.12700000000E+01 0.  1.
         -4   -1    0    0    0  501 -0.00000000000E+00 -0.00000000000E+00 -0.57132681986E+03  0.57132823140E+03  0.12700000000E+01 0.  1.
    9000005    1    1    2    0    0 -0.35711677704E+02 -0.50929744495E+02 -0.24704454661E+03  0.25475708196E+03  0.10000000000E+01 0.  0.
    9000005    1    1    2    0    0  0.35711677704E+02  0.50929744495E+02 -0.31746638053E+03  0.32350435169E+03  0.10000000000E+01 0.  0.
<mgrwt>
<rscale>  0 0.12535429E+03</rscale>
<asrwt>0</asrwt>
<pdfrwt beam="1">  1        4 0.17188153E-02 0.12535429E+03</pdfrwt>
<pdfrwt beam="2">  1       -4 0.14284638E+00 0.12535429E+03</pdfrwt>
<totfact> 0.75699331E+02</totfact>
</mgrwt>
</event>
<event>
 5    1  0.1433395E-002  0.1249970E+03  0.7818608E-02  0.1235074E+00
         -4   -1    0    0    0  501 -0.00000000000E+00  0.00000000000E+00  0.39771050894E+03  0.39771253667E+03  0.12700000000E+01 0.  1.
          4   -1    0    0  501    0  0.00000000000E+00 -0.00000000000E+00 -0.97782528409E+01  0.98603817685E+01  0.12700000000E+01 0.  1.
         25    2    1    2    0    0  0.00000000000E+00  0.00000000000E+00  0.38793225610E+03  0.40757291844E+03  0.12499699404E+03 0.  0.
    9000005    1    3    3    0    0  0.60677997729E+02 -0.13380965669E+02  0.21564216750E+03  0.22441794503E+03  0.10000000000E+01 0.  0.
    9000005    1    3    3    0    0 -0.60677997729E+02  0.13380965669E+02  0.17229008860E+03  0.18315497340E+03  0.10000000000E+01 0.  0.
<mgrwt>
<rscale>  0 0.12499699E+03</rscale>
<asrwt>0</asrwt>
<pdfrwt beam="2">  1        4 0.24550830E-02 0.12499699E+03</pdfrwt>
<pdfrwt beam="1">  1       -4 0.99438140E-01 0.12499699E+03</pdfrwt>
<totfact> 0.10415567E+03</totfact>
</mgrwt>
</event>
<event>
 5    1  0.1433395E-002  0.1249735E+03  0.7818608E-02  0.1235111E+00
          4   -1    0    0  501    0  0.00000000000E+00  0.00000000000E+00  0.35271659780E+02  0.35294516340E+02  0.12700000000E+01 0. -1.
         -4   -1    0    0    0  501 -0.00000000000E+00 -0.00000000000E+00 -0.11063832004E+03  0.11064560886E+03  0.12700000000E+01 0. -1.
         25    2    1    2    0    0  0.00000000000E+00  0.00000000000E+00 -0.75366660259E+02  0.14594012520E+03  0.12497354386E+03 0.  0.
    9000005    1    3    3    0    0 -0.32832423018E+02 -0.52308175288E+02 -0.48729914691E+02  0.78674759542E+02  0.10000000000E+01 0.  0.
    9000005    1    3    3    0    0  0.32832423018E+02  0.52308175288E+02 -0.26636745568E+02  0.67265365662E+02  0.10000000000E+01 0.  0.
<mgrwt>
<rscale>  0 0.12497354E+03</rscale>
<asrwt>0</asrwt>
<pdfrwt beam="1">  1        4 0.88216833E-02 0.12497354E+03</pdfrwt>
<pdfrwt beam="2">  1       -4 0.27663347E-01 0.12497354E+03</pdfrwt>
<totfact> 0.18751772E+03</totfact>
</mgrwt>
</event>
<event>
 5    1  0.1433395E-002  0.1249838E+03  0.7818608E-02  0.1235095E+00
         -4   -1    0    0    0  501 -0.00000000000E+00  0.00000000000E+00  0.39334914958E+03  0.39335119979E+03  0.12700000000E+01 0.  1.
          4   -1    0    0  501    0  0.00000000000E+00 -0.00000000000E+00 -0.98854667853E+01  0.99667122745E+01  0.12700000000E+01 0.  1.
         25    2    1    2    0    0  0.00000000000E+00  0.00000000000E+00  0.38346368279E+03  0.40331791206E+03  0.12498376762E+03 0.  0.
    9000005    1    3    3    0    0  0.99131801136E+01 -0.31053303371E+02  0.19711539004E+02  0.38106739038E+02  0.10000000000E+01 0.  0.
    9000005    1    3    3    0    0 -0.99131801136E+01  0.31053303371E+02  0.36375214379E+03  0.36521117302E+03  0.10000000000E+01 0.  0.
<mgrwt>
<rscale>  0 0.12498377E+03</rscale>
<asrwt>0</asrwt>
<pdfrwt beam="2">  1        4 0.24817788E-02 0.12498377E+03</pdfrwt>
<pdfrwt beam="1">  1       -4 0.98347694E-01 0.12498377E+03</pdfrwt>
<totfact> 0.10505056E+03</totfact>
</mgrwt>
</event>
<event>
 5    1  0.1433395E-002  0.1249999E+03  0.7818608E-02  0.1235069E+00
         -4   -1    0    0    0  501 -0.00000000000E+00  0.00000000000E+00  0.11603720607E+03  0.11604415578E+03  0.12700000000E+01 0.  1.
          4   -1    0    0  501    0  0.00000000000E+00 -0.00000000000E+00 -0.33643757582E+02  0.33667719321E+02  0.12700000000E+01 0.  1.
         25    2    1    2    0    0  0.00000000000E+00  0.00000000000E+00  0.82393448484E+02  0.14971187511E+03  0.12499986078E+03 0.  0.
    9000005    1    3    3    0    0 -0.17733233447E+02  0.19216514954E+02  0.10917587583E+03  0.11226804478E+03  0.10000000000E+01 0.  0.
    9000005    1    3    3    0    0  0.17733233447E+02 -0.19216514954E+02 -0.26782427341E+02  0.37443830330E+02  0.10000000000E+01 0.  0.
<mgrwt>
<rscale>  0 0.12499986E+03</rscale>
<asrwt>0</asrwt>
<pdfrwt beam="2">  1        4 0.84148034E-02 0.12499986E+03</pdfrwt>
<pdfrwt beam="1">  1       -4 0.29013165E-01 0.12499986E+03</pdfrwt>
<totfact> 0.18553017E+03</totfact>
</mgrwt>
</event>
<event>
 5    1  0.1433395E-002  0.1250018E+03  0.7818608E-02  0.1235066E+00
          4   -1    0    0  501    0  0.00000000000E+00  0.00000000000E+00  0.10924815117E+03  0.10925553274E+03  0.12700000000E+01 0. -1.
         -4   -1    0    0    0  501 -0.00000000000E+00 -0.00000000000E+00 -0.35736935295E+02  0.35759494464E+02  0.12700000000E+01 0. -1.
         25    2    1    2    0    0  0.00000000000E+00  0.00000000000E+00  0.73511215879E+02  0.14501502721E+03  0.12500183701E+03 0.  0.
    9000005    1    3    3    0    0 -0.20535315893E+02  0.35665735692E+02  0.91312793333E+02  0.10016371662E+03  0.10000000000E+01 0.  0.
    9000005    1    3    3    0    0  0.20535315893E+02 -0.35665735692E+02 -0.17801577455E+02  0.44851310584E+02  0.10000000000E+01 0.  0.
<mgrwt>
<rscale>  0 0.12500184E+03</rscale>
<asrwt>0</asrwt>
<pdfrwt beam="1">  1        4 0.27315780E-01 0.12500184E+03</pdfrwt>
<pdfrwt beam="2">  1       -4 0.89379765E-02 0.12500184E+03</pdfrwt>
<totfact> 0.18785801E+03</totfact>
</mgrwt>
</event>
<event>
 5    1  0.1433395E-002  0.1250022E+03  0.7818608E-02  0.1235066E+00
          4   -1    0    0  501    0  0.00000000000E+00  0.00000000000E+00  0.21219013588E+03  0.21219393644E+03  0.12700000000E+01 0.  1.
         -4   -1    0    0    0  501 -0.00000000000E+00 -0.00000000000E+00 -0.18383985702E+02  0.18427800474E+02  0.12700000000E+01 0.  1.
         25    2    1    2    0    0  0.00000000000E+00  0.00000000000E+00  0.19380615017E+03  0.23062173692E+03  0.12500224675E+03 0.  0.
    9000005    1    3    3    0    0  0.61251617076E+02 -0.64615996008E+01  0.77388733092E+02  0.98911722629E+02  0.10000000000E+01 0.  0.
    9000005    1    3    3    0    0 -0.61251617076E+02  0.64615996008E+01  0.11641741708E+03  0.13171001429E+03  0.10000000000E+01 0.  0.
<mgrwt>
<rscale>  0 0.12500225E+03</rscale>
<asrwt>0</asrwt>
<pdfrwt beam="1">  1        4 0.53053485E-01 0.12500225E+03</pdfrwt>
<pdfrwt beam="2">  1       -4 0.46019484E-02 0.12500225E+03</pdfrwt>
<totfact> 0.15164336E+03</totfact>
</mgrwt>
</event>
<event>
 5    1  0.1433395E-002  0.1249909E+03  0.7818608E-02  0.1235083E+00
          4   -1    0    0  501    0  0.00000000000E+00  0.00000000000E+00  0.89498758242E+01  0.90395341289E+01  0.12700000000E+01 0. -1.
         -4   -1    0    0    0  501 -0.00000000000E+00 -0.00000000000E+00 -0.43412954234E+03  0.43413139997E+03  0.12700000000E+01 0. -1.
         25    2    1    2    0    0  0.00000000000E+00  0.00000000000E+00 -0.42517966652E+03  0.44317093409E+03  0.12499091169E+03 0.  0.
    9000005    1    3    3    0    0  0.57887566984E+02  0.20470957215E+02 -0.17144659870E+03  0.18211251112E+03  0.10000000000E+01 0.  0.
    9000005    1    3    3    0    0 -0.57887566984E+02 -0.20470957215E+02 -0.25373306782E+03  0.26105842297E+03  0.10000000000E+01 0.  0.
<mgrwt>
<rscale>  0 0.12499091E+03</rscale>
<asrwt>0</asrwt>
<pdfrwt beam="1">  1        4 0.22489099E-02 0.12499091E+03</pdfrwt>
<pdfrwt beam="2">  1       -4 0.10854375E+00 0.12499091E+03</pdfrwt>
<totfact> 0.97276257E+02</totfact>
</mgrwt>
</event>
<event>
 5    1  0.1433395E-002  0.1249975E+03  0.7818608E-02  0.1235073E+00
          4   -1    0    0  501    0  0.00000000000E+00  0.00000000000E+00  0.40562311924E+02  0.40582188810E+02  0.12700000000E+01 0. -1.
         -4   -1    0    0    0  501 -0.00000000000E+00 -0.00000000000E+00 -0.96250969903E+02  0.96259348155E+02  0.12700000000E+01 0. -1.
         25    2    1    2    0    0  0.00000000000E+00  0.00000000000E+00 -0.55688657979E+02  0.13684153696E+03  0.12499751842E+03 0.  0.
    9000005    1    3    3    0    0 -0.17102658420E+02 -0.45105353458E+02  0.15645125402E+02  0.50722418953E+02  0.10000000000E+01 0.  0.
    9000005    1    3    3    0    0  0.17102658420E+02  0.45105353458E+02 -0.71333783381E+02  0.86119118011E+02  0.10000000000E+01 0.  0.
<mgrwt>
<rscale>  0 0.12499752E+03</rscale>
<asrwt>0</asrwt>
<pdfrwt beam="1">  1        4 0.10144110E-01 0.12499752E+03</pdfrwt>
<pdfrwt beam="2">  1       -4 0.24066274E-01 0.12499752E+03</pdfrwt>
<totfact> 0.19204221E+03</totfact>
</mgrwt>
</event>
<event>
 5    1  0.1433395E-002  0.1249961E+03  0.7818608E-02  0.1235075E+00
          4   -1    0    0  501    0  0.00000000000E+00  0.00000000000E+00  0.14746244418E+02  0.14800831883E+02  0.12700000000E+01 0. -1.
         -4   -1    0    0    0  501 -0.00000000000E+00 -0.00000000000E+00 -0.26433603777E+03  0.26433908860E+03  0.12700000000E+01 0. -1.
         25    2    1    2    0    0  0.00000000000E+00  0.00000000000E+00 -0.24958979335E+03  0.27913992048E+03  0.12499612099E+03 0.  0.
    9000005    1    3    3    0    0  0.98762091233E+00  0.44643113381E+02 -0.27170457198E+02  0.52280175131E+02  0.10000000000E+01 0.  0.
    9000005    1    3    3    0    0 -0.98762091233E+00 -0.44643113381E+02 -0.22241933615E+03  0.22685974535E+03  0.10000000000E+01 0.  0.
<mgrwt>
<rscale>  0 0.12499612E+03</rscale>
<asrwt>0</asrwt>
<pdfrwt beam="1">  1        4 0.36937667E-02 0.12499612E+03</pdfrwt>
<pdfrwt beam="2">  1       -4 0.66091199E-01 0.12499612E+03</pdfrwt>
<totfact> 0.13577729E+03</totfact>
</mgrwt>
</event>
<event>
 5    1  0.1433395E-002  0.1249842E+03  0.7818608E-02  0.1235094E+00
          4   -1    0    0  501    0  0.00000000000E+00  0.00000000000E+00  0.13126942110E+02  0.13188233740E+02  0.12700000000E+01 0. -1.
         -4   -1    0    0    0  501 -0.00000000000E+00 -0.00000000000E+00 -0.29674410687E+03  0.29674682451E+03  0.12700000000E+01 0. -1.
         25    2    1    2    0    0  0.00000000000E+00  0.00000000000E+00 -0.28361716475E+03  0.30993505825E+03  0.12498417576E+03 0.  0.
    9000005    1    3    3    0    0 -0.57588397370E+02 -0.23557013052E+02 -0.12758383840E+03  0.14195066818E+03  0.10000000000E+01 0.  0.
    9000005    1    3    3    0    0  0.57588397370E+02  0.23557013052E+02 -0.15603332635E+03  0.16798439007E+03  0.10000000000E+01 0.  0.
<mgrwt>
<rscale>  0 0.12498418E+03</rscale>
<asrwt>0</asrwt>
<pdfrwt beam="1">  1        4 0.32897377E-02 0.12498418E+03</pdfrwt>
<pdfrwt beam="2">  1       -4 0.74194006E-01 0.12498418E+03</pdfrwt>
<totfact> 0.12701709E+03</totfact>
</mgrwt>
</event>
<event>
 5    1  0.1433395E-002  0.1249998E+03  0.7818608E-02  0.1235070E+00
         -4   -1    0    0    0  501 -0.00000000000E+00  0.00000000000E+00  0.95577791696E+02  0.95586228953E+02  0.12700000000E+01 0. -1.
          4   -1    0    0  501    0  0.00000000000E+00 -0.00000000000E+00 -0.40849585425E+02  0.40869322595E+02  0.12700000000E+01 0. -1.
         25    2    1    2    0    0  0.00000000000E+00  0.00000000000E+00  0.54728206271E+02  0.13645555155E+03  0.12499976395E+03 0.  0.
    9000005    1    3    3    0    0  0.21956242851E+02  0.47476562620E+02  0.64690346388E+02  0.83198206195E+02  0.10000000000E+01 0.  0.
    9000005    1    3    3    0    0 -0.21956242851E+02 -0.47476562620E+02 -0.99621401166E+01  0.53257345353E+02  0.10000000000E+01 0.  0.
<mgrwt>
<rscale>  0 0.12499976E+03</rscale>
<asrwt>0</asrwt>
<pdfrwt beam="2">  1        4 0.10215918E-01 0.12499976E+03</pdfrwt>
<pdfrwt beam="1">  1       -4 0.23897970E-01 0.12499976E+03</pdfrwt>
<totfact> 0.19223272E+03</totfact>
</mgrwt>
</event>
<event>
 5    1  0.1433395E-002  0.1249994E+03  0.7818608E-02  0.1235070E+00
          4   -1    0    0  501    0  0.00000000000E+00  0.00000000000E+00  0.82258494519E+02  0.82268297785E+02  0.12700000000E+01 0.  1.
         -4   -1    0    0    0  501 -0.00000000000E+00 -0.00000000000E+00 -0.47465929416E+02  0.47482916458E+02  0.12700000000E+01 0.  1.
         25    2    1    2    0    0  0.00000000000E+00  0.00000000000E+00  0.34792565103E+02  0.12975121424E+03  0.12499942004E+03 0.  0.
    9000005    1    3    3    0    0  0.58849298790E+02  0.11038397100E+02  0.35968551947E+02  0.69855729241E+02  0.10000000000E+01 0.  0.
    9000005    1    3    3    0    0 -0.58849298790E+02 -0.11038397100E+02 -0.11759868441E+01  0.59895485002E+02  0.10000000000E+01 0.  0.
<mgrwt>
<rscale>  0 0.12499942E+03</rscale>
<asrwt>0</asrwt>
<pdfrwt beam="1">  1        4 0.20567972E-01 0.12499942E+03</pdfrwt>
<pdfrwt beam="2">  1       -4 0.11869831E-01 0.12499942E+03</pdfrwt>
<totfact> 0.19578031E+03</totfact>
</mgrwt>
</event>
<event>
 5    1  0.1433395E-002  0.1249904E+03  0.7818608E-02  0.1235084E+00
          4   -1    0    0  501    0  0.00000000000E+00  0.00000000000E+00  0.17648974407E+02  0.17694609281E+02  0.12700000000E+01 0. -1.
         -4   -1    0    0    0  501 -0.00000000000E+00 -0.00000000000E+00 -0.22096283249E+03  0.22096648217E+03  0.12700000000E+01 0. -1.
         25    2    1    2    0    0  0.00000000000E+00  0.00000000000E+00 -0.20331385808E+03  0.23866109145E+03  0.12499036636E+03 0.  0.
    9000005    1    3    3    0    0 -0.60025829060E+02  0.46082767993E+01 -0.13362567341E+03  0.14656451468E+03  0.10000000000E+01 0.  0.
    9000005    1    3    3    0    0  0.60025829060E+02 -0.46082767993E+01 -0.69688184673E+02  0.92096576769E+02  0.10000000000E+01 0.  0.
<mgrwt>
<rscale>  0 0.12499037E+03</rscale>
<asrwt>0</asrwt>
<pdfrwt beam="1">  1        4 0.44184049E-02 0.12499037E+03</pdfrwt>
<pdfrwt beam="2">  1       -4 0.55246860E-01 0.12499037E+03</pdfrwt>
<totfact> 0.14885995E+03</totfact>
</mgrwt>
</event>
<event>
 5    1  0.1433395E-002  0.1250162E+03  0.7818608E-02  0.1235044E+00
          4   -1    0    0  501    0  0.00000000000E+00  0.00000000000E+00  0.37268128595E+02  0.37289761449E+02  0.12700000000E+01 0.  1.
         -4   -1    0    0    0  501 -0.00000000000E+00 -0.00000000000E+00 -0.10478609384E+03  0.10479378972E+03  0.12700000000E+01 0.  1.
         25    2    1    2    0    0  0.00000000000E+00  0.00000000000E+00 -0.67517965250E+02  0.14208355117E+03  0.12501623847E+03 0.  0.
    9000005    1    3    3    0    0 -0.14082541948E+02  0.60848374133E+02 -0.31112487751E+02  0.69784163794E+02  0.10000000000E+01 0.  0.
    9000005    1    3    3    0    0  0.14082541948E+02 -0.60848374133E+02 -0.36405477499E+02  0.72299387372E+02  0.10000000000E+01 0.  0.
<mgrwt>
<rscale>  0 0.12501624E+03</rscale>
<asrwt>0</asrwt>
<pdfrwt beam="1">  1        4 0.93206985E-02 0.12501624E+03</pdfrwt>
<pdfrwt beam="2">  1       -4 0.26200189E-01 0.12501624E+03</pdfrwt>
<totfact> 0.18927088E+03</totfact>
</mgrwt>
</event>
<event>
 5    1  0.1433395E-002  0.1250188E+03  0.7818608E-02  0.1235040E+00
         -4   -1    0    0    0  501 -0.00000000000E+00  0.00000000000E+00  0.19615885405E+02  0.19656954500E+02  0.12700000000E+01 0.  1.
          4   -1    0    0  501    0  0.00000000000E+00 -0.00000000000E+00 -0.19894570265E+03  0.19894975622E+03  0.12700000000E+01 0.  1.
         25    2    1    2    0    0  0.00000000000E+00  0.00000000000E+00 -0.17932981724E+03  0.21860671072E+03  0.12501884107E+03 0.  0.
    9000005    1    3    3    0    0  0.34514983199E+02  0.14030007524E+02 -0.17741386652E+03  0.18128652793E+03  0.10000000000E+01 0.  0.
    9000005    1    3    3    0    0 -0.34514983199E+02 -0.14030007524E+02 -0.19159507205E+01  0.37320182790E+02  0.10000000000E+01 0.  0.
<mgrwt>
<rscale>  0 0.12501884E+03</rscale>
<asrwt>0</asrwt>
<pdfrwt beam="2">  1        4 0.49742060E-01 0.12501884E+03</pdfrwt>
<pdfrwt beam="1">  1       -4 0.49096123E-02 0.12501884E+03</pdfrwt>
<totfact> 0.15596366E+03</totfact>
</mgrwt>
</event>
<event>
 5    1  0.1433395E-002  0.1250020E+03  0.7818608E-02  0.1235066E+00
          4   -1    0    0  501    0  0.00000000000E+00  0.00000000000E+00  0.43682355722E+02  0.43700813510E+02  0.12700000000E+01 0.  1.
         -4   -1    0    0    0  501 -0.00000000000E+00 -0.00000000000E+00 -0.89384933103E+02  0.89393954862E+02  0.12700000000E+01 0.  1.
         25    2    1    2    0    0  0.00000000000E+00  0.00000000000E+00 -0.45702577381E+02  0.13309476837E+03  0.12500196714E+03 0.  0.
    9000005    1    3    3    0    0 -0.51361951700E+01  0.25863882300E+02 -0.83176683612E+02  0.87262143024E+02  0.10000000000E+01 0.  0.
    9000005    1    3    3    0    0  0.51361951700E+01 -0.25863882300E+02  0.37474106231E+02  0.45832625348E+02  0.10000000000E+01 0.  0.
<mgrwt>
<rscale>  0 0.12500197E+03</rscale>
<asrwt>0</asrwt>
<pdfrwt beam="1">  1        4 0.10924024E-01 0.12500197E+03</pdfrwt>
<pdfrwt beam="2">  1       -4 0.22349668E-01 0.12500197E+03</pdfrwt>
<totfact> 0.19398512E+03</totfact>
</mgrwt>
</event>
<event>
 5    1  0.1433395E-002  0.1249847E+03  0.7818608E-02  0.1235093E+00
          4   -1    0    0  501    0  0.00000000000E+00  0.00000000000E+00  0.38833253660E+02  0.38854015105E+02  0.12700000000E+01 0.  1.
         -4   -1    0    0    0  501 -0.00000000000E+00 -0.00000000000E+00 -0.10051408943E+03  0.10052211236E+03  0.12700000000E+01 0.  1.
         25    2    1    2    0    0  0.00000000000E+00  0.00000000000E+00 -0.61680835770E+02  0.13937612747E+03  0.12498471669E+03 0.  0.
    9000005    1    3    3    0    0 -0.30171086241E+02  0.38474011698E+02 -0.74227323865E+02  0.88888917359E+02  0.10000000000E+01 0.  0.
    9000005    1    3    3    0    0  0.30171086241E+02 -0.38474011698E+02  0.12546488095E+02  0.50487210109E+02  0.10000000000E+01 0.  0.
<mgrwt>
<rscale>  0 0.12498472E+03</rscale>
<asrwt>0</asrwt>
<pdfrwt beam="1">  1        4 0.97119117E-02 0.12498472E+03</pdfrwt>
<pdfrwt beam="2">  1       -4 0.25132120E-01 0.12498472E+03</pdfrwt>
<totfact> 0.19079103E+03</totfact>
</mgrwt>
</event>
<event>
 5    1  0.1433395E-002  0.1250003E+03  0.7818608E-02  0.1235069E+00
         -4   -1    0    0    0  501 -0.00000000000E+00  0.00000000000E+00  0.46337561195E+01  0.48046431475E+01  0.12700000000E+01 0. -1.
          4   -1    0    0  501    0  0.00000000000E+00 -0.00000000000E+00 -0.82756831332E+03  0.82756928781E+03  0.12700000000E+01 0. -1.
         25    2    1    2    0    0  0.00000000000E+00  0.00000000000E+00 -0.82293455721E+03  0.83237393095E+03  0.12500030195E+03 0.  0.
    9000005    1    3    3    0    0  0.33393640253E+02  0.40541754905E+02 -0.63694020127E+03  0.63910295657E+03  0.10000000000E+01 0.  0.
    9000005    1    3    3    0    0 -0.33393640253E+02 -0.40541754905E+02 -0.18599435594E+03  0.19327097439E+03  0.10000000000E+01 0.  0.
<mgrwt>
<rscale>  0 0.12500030E+03</rscale>
<asrwt>0</asrwt>
<pdfrwt beam="2">  1        4 0.20691307E+00 0.12500030E+03</pdfrwt>
<pdfrwt beam="1">  1       -4 0.11799245E-02 0.12500030E+03</pdfrwt>
<totfact> 0.49691487E+02</totfact>
</mgrwt>
</event>
<event>
 5    1  0.1433395E-002  0.1250015E+03  0.7818608E-02  0.1235067E+00
         -4   -1    0    0    0  501 -0.00000000000E+00  0.00000000000E+00  0.66722453511E+01  0.67920363681E+01  0.12700000000E+01 0. -1.
          4   -1    0    0  501    0  0.00000000000E+00 -0.00000000000E+00 -0.58013269306E+03  0.58013408317E+03  0.12700000000E+01 0. -1.
         25    2    1    2    0    0  0.00000000000E+00  0.00000000000E+00 -0.57346044771E+03  0.58692611954E+03  0.12500153883E+03 0.  0.
    9000005    1    3    3    0    0  0.31843760612E+02 -0.45468320324E+02 -0.15195213926E+03  0.16177714879E+03  0.10000000000E+01 0.  0.
    9000005    1    3    3    0    0 -0.31843760612E+02  0.45468320324E+02 -0.42150830845E+03  0.42514897075E+03  0.10000000000E+01 0.  0.
<mgrwt>
<rscale>  0 0.12500154E+03</rscale>
<asrwt>0</asrwt>
<pdfrwt beam="2">  1        4 0.14504815E+00 0.12500154E+03</pdfrwt>
<pdfrwt beam="1">  1       -4 0.16832109E-02 0.12500154E+03</pdfrwt>
<totfact> 0.75170349E+02</totfact>
</mgrwt>
</event>
<event>
 5    1  0.1433395E-002  0.1250013E+03  0.7818608E-02  0.1235067E+00
         -4   -1    0    0    0  501 -0.00000000000E+00  0.00000000000E+00  0.22749125850E+02  0.22784547986E+02  0.12700000000E+01 0. -1.
          4   -1    0    0  501    0  0.00000000000E+00 -0.00000000000E+00 -0.17154205645E+03  0.17154675757E+03  0.12700000000E+01 0. -1.
         25    2    1    2    0    0  0.00000000000E+00  0.00000000000E+00 -0.14879293060E+03  0.19433130555E+03  0.12500128048E+03 0.  0.
    9000005    1    3    3    0    0 -0.41947183287E+01  0.61217613236E+02 -0.92800225725E+02  0.11125679182E+03  0.10000000000E+01 0.  0.
    9000005    1    3    3    0    0  0.41947183287E+01 -0.61217613236E+02 -0.55992704879E+02  0.83074513732E+02  0.10000000000E+01 0.  0.
<mgrwt>
<rscale>  0 0.12500128E+03</rscale>
<asrwt>0</asrwt>
<pdfrwt beam="2">  1        4 0.42890526E-01 0.12500128E+03</pdfrwt>
<pdfrwt beam="1">  1       -4 0.56922974E-02 0.12500128E+03</pdfrwt>
<totfact> 0.16551079E+03</totfact>
</mgrwt>
</event>
<event>
 5    1  0.1433395E-002  0.1249981E+03  0.7818608E-02  0.1235072E+00
          4   -1    0    0  501    0  0.00000000000E+00  0.00000000000E+00  0.78314457675E+01  0.79337533872E+01  0.12700000000E+01 0. -1.
         -4   -1    0    0    0  501 -0.00000000000E+00 -0.00000000000E+00 -0.49543559113E+03  0.49543721888E+03  0.12700000000E+01 0. -1.
         25    2    1    2    0    0  0.00000000000E+00  0.00000000000E+00 -0.48760414536E+03  0.50337097227E+03  0.12499813260E+03 0.  0.
    9000005    1    3    3    0    0  0.17716574363E+02 -0.14063376513E+02 -0.47839080256E+03  0.47892631536E+03  0.10000000000E+01 0.  0.
    9000005    1    3    3    0    0 -0.17716574363E+02  0.14063376513E+02 -0.92133427967E+01  0.24444656913E+02  0.10000000000E+01 0.  0.
<mgrwt>
<rscale>  0 0.12499813E+03</rscale>
<asrwt>0</asrwt>
<pdfrwt beam="1">  1        4 0.19708550E-02 0.12499813E+03</pdfrwt>
<pdfrwt beam="2">  1       -4 0.12387178E+00 0.12499813E+03</pdfrwt>
<totfact> 0.87077036E+02</totfact>
</mgrwt>
</event>
<event>
 5    1  0.1433395E-002  0.1250012E+03  0.7818608E-02  0.1235067E+00
          4   -1    0    0  501    0  0.00000000000E+00  0.00000000000E+00  0.36993160097E+02  0.37014953654E+02  0.12700000000E+01 0.  1.
         -4   -1    0    0    0  501 -0.00000000000E+00 -0.00000000000E+00 -0.10553917028E+03  0.10554681124E+03  0.12700000000E+01 0.  1.
         25    2    1    2    0    0  0.00000000000E+00  0.00000000000E+00 -0.68546010179E+02  0.14256176489E+03  0.12500120519E+03 0.  0.
    9000005    1    3    3    0    0  0.53660046431E+01  0.21542603876E+02  0.32349637440E+02  0.39247634707E+02  0.10000000000E+01 0.  0.
    9000005    1    3    3    0    0 -0.53660046431E+01 -0.21542603876E+02 -0.10089564762E+03  0.10331413019E+03  0.10000000000E+01 0.  0.
<mgrwt>
<rscale>  0 0.12500121E+03</rscale>
<asrwt>0</asrwt>
<pdfrwt beam="1">  1        4 0.92519695E-02 0.12500121E+03</pdfrwt>
<pdfrwt beam="2">  1       -4 0.26388471E-01 0.12500121E+03</pdfrwt>
<totfact> 0.18909513E+03</totfact>
</mgrwt>
</event>
<event>
 5    1  0.1433395E-002  0.1250250E+03  0.7818608E-02  0.1235030E+00
          4   -1    0    0  501    0  0.00000000000E+00  0.00000000000E+00  0.13202795312E+02  0.13263736428E+02  0.12700000000E+01 0. -1.
         -4   -1    0    0    0  501 -0.00000000000E+00 -0.00000000000E+00 -0.29524003015E+03  0.29524276164E+03  0.12700000000E+01 0. -1.
         25    2    1    2    0    0  0.00000000000E+00  0.00000000000E+00 -0.28203723484E+03  0.30850649807E+03  0.12502502756E+03 0.  0.
    9000005    1    3    3    0    0 -0.27105778934E+02  0.44021069985E+02 -0.22770812863E+03  0.23350496719E+03  0.10000000000E+01 0.  0.
    9000005    1    3    3    0    0  0.27105778934E+02 -0.44021069985E+02 -0.54329106201E+02  0.75001530883E+02  0.10000000000E+01 0.  0.
<mgrwt>
<rscale>  0 0.12502503E+03</rscale>
<asrwt>0</asrwt>
<pdfrwt beam="1">  1        4 0.33086589E-02 0.12502503E+03</pdfrwt>
<pdfrwt beam="2">  1       -4 0.73817945E-01 0.12502503E+03</pdfrwt>
<totfact> 0.12728657E+03</totfact>
</mgrwt>
</event>
<event>
 5    1  0.1433395E-002  0.1249981E+03  0.7818608E-02  0.1235072E+00
          4   -1    0    0  501    0  0.00000000000E+00  0.00000000000E+00  0.48930561324E+02  0.48947040069E+02  0.12700000000E+01 0. -1.
         -4   -1    0    0    0  501 -0.00000000000E+00 -0.00000000000E+00 -0.79795080316E+02  0.79805186189E+02  0.12700000000E+01 0. -1.
         25    2    1    2    0    0  0.00000000000E+00  0.00000000000E+00 -0.30864518992E+02  0.12875222626E+03  0.12499806892E+03 0.  0.
    9000005    1    3    3    0    0 -0.43931617265E+01  0.60917151445E+02 -0.18089157926E+01  0.61110321440E+02  0.10000000000E+01 0.  0.
    9000005    1    3    3    0    0  0.43931617265E+01 -0.60917151445E+02 -0.29055603200E+02  0.67641904818E+02  0.10000000000E+01 0.  0.
<mgrwt>
<rscale>  0 0.12499807E+03</rscale>
<asrwt>0</asrwt>
<pdfrwt beam="1">  1        4 0.12235964E-01 0.12499807E+03</pdfrwt>
<pdfrwt beam="2">  1       -4 0.19952093E-01 0.12499807E+03</pdfrwt>
<totfact> 0.19632588E+03</totfact>
</mgrwt>
</event>
<event>
 5    1  0.1433395E-002  0.1249976E+03  0.7818608E-02  0.1235073E+00
          4   -1    0    0  501    0  0.00000000000E+00  0.00000000000E+00  0.17456401090E+03  0.17456863064E+03  0.12700000000E+01 0. -1.
         -4   -1    0    0    0  501 -0.00000000000E+00 -0.00000000000E+00 -0.22353373359E+02  0.22389421621E+02  0.12700000000E+01 0. -1.
         25    2    1    2    0    0  0.00000000000E+00  0.00000000000E+00  0.15221063754E+03  0.19695805226E+03  0.12499758465E+03 0.  0.
    9000005    1    3    3    0    0 -0.66374106836E+01  0.29899373343E+02 -0.97240879731E+01  0.32149426648E+02  0.10000000000E+01 0.  0.
    9000005    1    3    3    0    0  0.66374106836E+01 -0.29899373343E+02  0.16193472552E+03  0.16480862561E+03  0.10000000000E+01 0.  0.
<mgrwt>
<rscale>  0 0.12499758E+03</rscale>
<asrwt>0</asrwt>
<pdfrwt beam="1">  1        4 0.43646086E-01 0.12499758E+03</pdfrwt>
<pdfrwt beam="2">  1       -4 0.55934269E-02 0.12499758E+03</pdfrwt>
<totfact> 0.16445493E+03</totfact>
</mgrwt>
</event>
<event>
 5    1  0.1433395E-002  0.1249989E+03  0.7818608E-02  0.1235071E+00
         -4   -1    0    0    0  501 -0.00000000000E+00  0.00000000000E+00  0.22058173310E+01  0.25452956798E+01  0.12700000000E+01 0. -1.
          4   -1    0    0  501    0  0.00000000000E+00 -0.00000000000E+00 -0.16439836973E+04  0.16439841878E+04  0.12700000000E+01 0. -1.
         25    2    1    2    0    0  0.00000000000E+00  0.00000000000E+00 -0.16417778799E+04  0.16465294835E+04  0.12499893185E+03 0.  0.
    9000005    1    3    3    0    0  0.35428036725E+02 -0.18423580455E+02 -0.18771001202E+03  0.19191306030E+03  0.10000000000E+01 0.  0.
    9000005    1    3    3    0    0 -0.35428036725E+02  0.18423580455E+02 -0.14540678679E+04  0.14546164232E+04  0.10000000000E+01 0.  0.
<mgrwt>
<rscale>  0 0.12499893E+03</rscale>
<asrwt>0</asrwt>
<pdfrwt beam="2">  1        4 0.41103452E+00 0.12499893E+03</pdfrwt>
<pdfrwt beam="1">  1       -4 0.59395609E-03 0.12499893E+03</pdfrwt>
<totfact> 0.83047719E+01</totfact>
</mgrwt>
</event>
<event>
 5    1  0.1433395E-002  0.1249985E+03  0.7818608E-02  0.1235072E+00
          4   -1    0    0  501    0  0.00000000000E+00  0.00000000000E+00  0.39685693119E+03  0.39685896328E+03  0.12700000000E+01 0.  1.
         -4   -1    0    0    0  501 -0.00000000000E+00 -0.00000000000E+00 -0.97997053879E+01  0.98816560196E+01  0.12700000000E+01 0.  1.
         25    2    1    2    0    0  0.00000000000E+00  0.00000000000E+00  0.38705722580E+03  0.40674061930E+03  0.12499854135E+03 0.  0.
    9000005    1    3    3    0    0 -0.17445200838E+02 -0.54956238944E+02  0.11511988069E+03  0.12875601019E+03  0.10000000000E+01 0.  0.
    9000005    1    3    3    0    0  0.17445200838E+02  0.54956238944E+02  0.27193734511E+03  0.27798460910E+03  0.10000000000E+01 0.  0.
<mgrwt>
<rscale>  0 0.12499854E+03</rscale>
<asrwt>0</asrwt>
<pdfrwt beam="1">  1        4 0.99224735E-01 0.12499854E+03</pdfrwt>
<pdfrwt beam="2">  1       -4 0.24604241E-02 0.12499854E+03</pdfrwt>
<totfact> 0.10432004E+03</totfact>
</mgrwt>
</event>
<event>
 5    1  0.1433395E-002  0.1249997E+03  0.7818608E-02  0.1235070E+00
          4   -1    0    0  501    0  0.00000000000E+00  0.00000000000E+00  0.30025350722E+02  0.30052197690E+02  0.12700000000E+01 0. -1.
         -4   -1    0    0    0  501 -0.00000000000E+00 -0.00000000000E+00 -0.13000966148E+03  0.13001586433E+03  0.12700000000E+01 0. -1.
         25    2    1    2    0    0  0.00000000000E+00  0.00000000000E+00 -0.99984310753E+02  0.16006806202E+03  0.12499968832E+03 0.  0.
    9000005    1    3    3    0    0  0.37721344976E+02  0.32581890731E+02 -0.17246615665E+01  0.49884405659E+02  0.10000000000E+01 0.  0.
    9000005    1    3    3    0    0 -0.37721344976E+02 -0.32581890731E+02 -0.98259649187E+02  0.11018365636E+03  0.10000000000E+01 0.  0.
<mgrwt>
<rscale>  0 0.12499969E+03</rscale>
<asrwt>0</asrwt>
<pdfrwt beam="1">  1        4 0.75104692E-02 0.12499969E+03</pdfrwt>
<pdfrwt beam="2">  1       -4 0.32506545E-01 0.12499969E+03</pdfrwt>
<totfact> 0.18054683E+03</totfact>
</mgrwt>
</event>
<event>
 5    1  0.1433395E-002  0.1249953E+03  0.7818608E-02  0.1235077E+00
         -4   -1    0    0    0  501 -0.00000000000E+00  0.00000000000E+00  0.81928173358E+02  0.81938016145E+02  0.12700000000E+01 0. -1.
          4   -1    0    0  501    0  0.00000000000E+00 -0.00000000000E+00 -0.47654176239E+02  0.47671096201E+02  0.12700000000E+01 0. -1.
         25    2    1    2    0    0  0.00000000000E+00  0.00000000000E+00  0.34273997119E+02  0.12960911235E+03  0.12499526041E+03 0.  0.
    9000005    1    3    3    0    0 -0.77568892233E+01 -0.27822205306E+02 -0.40322435716E+02  0.49609910911E+02  0.10000000000E+01 0.  0.
    9000005    1    3    3    0    0  0.77568892233E+01  0.27822205306E+02  0.74596432835E+02  0.79999201435E+02  0.10000000000E+01 0.  0.
<mgrwt>
<rscale>  0 0.12499526E+03</rscale>
<asrwt>0</asrwt>
<pdfrwt beam="2">  1        4 0.11916890E-01 0.12499526E+03</pdfrwt>
<pdfrwt beam="1">  1       -4 0.20485388E-01 0.12499526E+03</pdfrwt>
<totfact> 0.19587586E+03</totfact>
</mgrwt>
</event>
<event>
 5    1  0.1433395E-002  0.1250372E+03  0.7818608E-02  0.1235011E+00
         -4   -1    0    0    0  501 -0.00000000000E+00  0.00000000000E+00  0.45716983077E+02  0.45734619728E+02  0.12700000000E+01 0.  1.
          4   -1    0    0  501    0  0.00000000000E+00 -0.00000000000E+00 -0.85456164434E+02  0.85465600915E+02  0.12700000000E+01 0.  1.
         25    2    1    2    0    0  0.00000000000E+00  0.00000000000E+00 -0.39739181357E+02  0.13120022064E+03  0.12503717592E+03 0.  0.
    9000005    1    3    3    0    0 -0.15712378919E+02  0.34303120010E+02  0.32426643122E+02  0.49760125380E+02  0.10000000000E+01 0.  0.
    9000005    1    3    3    0    0  0.15712378919E+02 -0.34303120010E+02 -0.72165824478E+02  0.81440095263E+02  0.10000000000E+01 0.  0.
<mgrwt>
<rscale>  0 0.12503718E+03</rscale>
<asrwt>0</asrwt>
<pdfrwt beam="2">  1        4 0.21367425E-01 0.12503718E+03</pdfrwt>
<pdfrwt beam="1">  1       -4 0.11432630E-01 0.12503718E+03</pdfrwt>
<totfact> 0.19483165E+03</totfact>
</mgrwt>
</event>
<event>
 5    1  0.1433395E-002  0.1249915E+03  0.7818608E-02  0.1235083E+00
         -4   -1    0    0    0  501 -0.00000000000E+00  0.00000000000E+00  0.26629758669E+02  0.26660025258E+02  0.12700000000E+01 0. -1.
          4   -1    0    0  501    0  0.00000000000E+00 -0.00000000000E+00 -0.14655108329E+03  0.14655658605E+03  0.12700000000E+01 0. -1.
         25    2    1    2    0    0  0.00000000000E+00  0.00000000000E+00 -0.11992132462E+03  0.17321661131E+03  0.12499148104E+03 0.  0.
    9000005    1    3    3    0    0  0.33614001131E+02 -0.50588886248E+02 -0.39613002637E+02  0.72521213874E+02  0.10000000000E+01 0.  0.
    9000005    1    3    3    0    0 -0.33614001131E+02  0.50588886248E+02 -0.80308321985E+02  0.10069539743E+03  0.10000000000E+01 0.  0.
<mgrwt>
<rscale>  0 0.12499148E+03</rscale>
<asrwt>0</asrwt>
<pdfrwt beam="2">  1        4 0.36642240E-01 0.12499148E+03</pdfrwt>
<pdfrwt beam="1">  1       -4 0.66619112E-02 0.12499148E+03</pdfrwt>
<totfact> 0.17456383E+03</totfact>
</mgrwt>
</event>
<event>
 5    1  0.1433395E-002  0.1250002E+03  0.7818608E-02  0.1235069E+00
          4   -1    0    0  501    0  0.00000000000E+00  0.00000000000E+00  0.12493919814E+03  0.12494565271E+03  0.12700000000E+01 0. -1.
         -4   -1    0    0    0  501 -0.00000000000E+00 -0.00000000000E+00 -0.31245160337E+02  0.31270960082E+02  0.12700000000E+01 0. -1.
         25    2    1    2    0    0  0.00000000000E+00  0.00000000000E+00  0.93694037800E+02  0.15621661279E+03  0.12500022957E+03 0.  0.
    9000005    1    3    3    0    0 -0.27207254929E+02 -0.56231001383E+02  0.49048855191E+02  0.79428901747E+02  0.10000000000E+01 0.  0.
    9000005    1    3    3    0    0  0.27207254929E+02  0.56231001383E+02  0.44645182609E+02  0.76787711045E+02  0.10000000000E+01 0.  0.
<mgrwt>
<rscale>  0 0.12500023E+03</rscale>
<asrwt>0</asrwt>
<pdfrwt beam="1">  1        4 0.31238831E-01 0.12500023E+03</pdfrwt>
<pdfrwt beam="2">  1       -4 0.78153220E-02 0.12500023E+03</pdfrwt>
<totfact> 0.18237176E+03</totfact>
</mgrwt>
</event>
<event>
 5    1  0.1433395E-002  0.1249989E+03  0.7818608E-02  0.1235071E+00
          4   -1    0    0  501    0  0.00000000000E+00  0.00000000000E+00  0.17919326688E+03  0.17919776727E+03  0.12700000000E+01 0.  1.
         -4   -1    0    0    0  501 -0.00000000000E+00 -0.00000000000E+00 -0.21775440640E+02  0.21812444042E+02  0.12700000000E+01 0.  1.
         25    2    1    2    0    0  0.00000000000E+00  0.00000000000E+00  0.15741782624E+03  0.20101021131E+03  0.12499893213E+03 0.  0.
    9000005    1    3    3    0    0 -0.52957924330E+02 -0.23825499438E+02  0.41583596996E+02  0.71431027656E+02  0.10000000000E+01 0.  0.
    9000005    1    3    3    0    0  0.52957924330E+02  0.23825499438E+02  0.11583422925E+03  0.12957918366E+03  0.10000000000E+01 0.  0.
<mgrwt>
<rscale>  0 0.12499893E+03</rscale>
<asrwt>0</asrwt>
<pdfrwt beam="1">  1        4 0.44803504E-01 0.12499893E+03</pdfrwt>
<pdfrwt beam="2">  1       -4 0.54490482E-02 0.12499893E+03</pdfrwt>
<totfact> 0.16282072E+03</totfact>
</mgrwt>
</event>
<event>
 5    1  0.1433395E-002  0.1250009E+03  0.7818608E-02  0.1235068E+00
          4   -1    0    0  501    0  0.00000000000E+00  0.00000000000E+00  0.73012134939E+01  0.74108446538E+01  0.12700000000E+01 0.  1.
         -4   -1    0    0    0  501 -0.00000000000E+00 -0.00000000000E+00 -0.53092428192E+03  0.53092580087E+03  0.12700000000E+01 0.  1.
         25    2    1    2    0    0  0.00000000000E+00  0.00000000000E+00 -0.52362306843E+03  0.53833664553E+03  0.12500090451E+03 0.  0.
    9000005    1    3    3    0    0 -0.38638147332E+02 -0.11561274159E+02 -0.56228205099E+02  0.69203905511E+02  0.10000000000E+01 0.  0.
    9000005    1    3    3    0    0  0.38638147332E+02  0.11561274159E+02 -0.46739486333E+03  0.46913274002E+03  0.10000000000E+01 0.  0.
<mgrwt>
<rscale>  0 0.12500090E+03</rscale>
<asrwt>0</asrwt>
<pdfrwt beam="1">  1        4 0.18391989E-02 0.12500090E+03</pdfrwt>
<pdfrwt beam="2">  1       -4 0.13274483E+00 0.12500090E+03</pdfrwt>
<totfact> 0.81814049E+02</totfact>
</mgrwt>
</event>
<event>
 5    1  0.1433395E-002  0.1250053E+03  0.7818608E-02  0.1235061E+00
          4   -1    0    0  501    0  0.00000000000E+00  0.00000000000E+00  0.16763250515E+02  0.16811289892E+02  0.12700000000E+01 0. -1.
         -4   -1    0    0    0  501 -0.00000000000E+00 -0.00000000000E+00 -0.23266122491E+03  0.23266469109E+03  0.12700000000E+01 0. -1.
         25    2    1    2    0    0  0.00000000000E+00  0.00000000000E+00 -0.21589797440E+03  0.24947598098E+03  0.12500531883E+03 0.  0.
    9000005    1    3    3    0    0  0.55717194855E+01  0.35453021154E+02 -0.58424177097E+01  0.36374367509E+02  0.10000000000E+01 0.  0.
    9000005    1    3    3    0    0 -0.55717194855E+01 -0.35453021154E+02 -0.21005555669E+03  0.21310161347E+03  0.10000000000E+01 0.  0.
<mgrwt>
<rscale>  0 0.12500532E+03</rscale>
<asrwt>0</asrwt>
<pdfrwt beam="1">  1        4 0.41972516E-02 0.12500532E+03</pdfrwt>
<pdfrwt beam="2">  1       -4 0.58171734E-01 0.12500532E+03</pdfrwt>
<totfact> 0.14513661E+03</totfact>
</mgrwt>
</event>
<event>
 5    1  0.1433395E-002  0.1250010E+03  0.7818608E-02  0.1235068E+00
         -4   -1    0    0    0  501 -0.00000000000E+00  0.00000000000E+00  0.80189564365E+02  0.80199620529E+02  0.12700000000E+01 0. -1.
          4   -1    0    0  501    0  0.00000000000E+00 -0.00000000000E+00 -0.48692103808E+02  0.48708663226E+02  0.12700000000E+01 0. -1.
         25    2    1    2    0    0  0.00000000000E+00  0.00000000000E+00  0.31497460556E+02  0.12890828376E+03  0.12500102239E+03 0.  0.
    9000005    1    3    3    0    0  0.26281497448E+02  0.53133783783E+02 -0.46534442475E+01  0.59469072892E+02  0.10000000000E+01 0.  0.
    9000005    1    3    3    0    0 -0.26281497448E+02 -0.53133783783E+02  0.36150904804E+02  0.69439210864E+02  0.10000000000E+01 0.  0.
<mgrwt>
<rscale>  0 0.12500102E+03</rscale>
<asrwt>0</asrwt>
<pdfrwt beam="2">  1        4 0.12176353E-01 0.12500102E+03</pdfrwt>
<pdfrwt beam="1">  1       -4 0.20050718E-01 0.12500102E+03</pdfrwt>
<totfact> 0.19622788E+03</totfact>
</mgrwt>
</event>
<event>
 5    1  0.1433395E-002  0.1250087E+03  0.7818608E-02  0.1235056E+00
          4   -1    0    0  501    0  0.00000000000E+00  0.00000000000E+00  0.23409230973E+02  0.23443655746E+02  0.12700000000E+01 0.  1.
         -4   -1    0    0    0  501 -0.00000000000E+00 -0.00000000000E+00 -0.16673177077E+03  0.16673660751E+03  0.12700000000E+01 0.  1.
         25    2    1    2    0    0  0.00000000000E+00  0.00000000000E+00 -0.14332253980E+03  0.19018026326E+03  0.12500872817E+03 0.  0.
    9000005    1    3    3    0    0  0.23966447749E+02 -0.33096445317E+02  0.27765478075E+00  0.40875939163E+02  0.10000000000E+01 0.  0.
    9000005    1    3    3    0    0 -0.23966447749E+02  0.33096445317E+02 -0.14360019458E+03  0.14930432409E+03  0.10000000000E+01 0.  0.
<mgrwt>
<rscale>  0 0.12500873E+03</rscale>
<asrwt>0</asrwt>
<pdfrwt beam="1">  1        4 0.58572159E-02 0.12500873E+03</pdfrwt>
<pdfrwt beam="2">  1       -4 0.41687847E-01 0.12500873E+03</pdfrwt>
<totfact> 0.16719562E+03</totfact>
</mgrwt>
</event>
<event>
 5    1  0.1433395E-002  0.1250003E+03  0.7818608E-02  0.1235069E+00
         -4   -1    0    0    0  501 -0.00000000000E+00  0.00000000000E+00  0.34406726336E+02  0.34430157089E+02  0.12700000000E+01 0.  1.
          4   -1    0    0  501    0  0.00000000000E+00 -0.00000000000E+00 -0.11346643917E+03  0.11347354634E+03  0.12700000000E+01 0.  1.
         25    2    1    2    0    0  0.00000000000E+00  0.00000000000E+00 -0.79059712834E+02  0.14790370342E+03  0.12500026917E+03 0.  0.
    9000005    1    3    3    0    0 -0.87119800026E+00  0.62068307249E+02 -0.48064941133E+02  0.78514153609E+02  0.10000000000E+01 0.  0.
    9000005    1    3    3    0    0  0.87119800026E+00 -0.62068307249E+02 -0.30994771701E+02  0.69389549815E+02  0.10000000000E+01 0.  0.
<mgrwt>
<rscale>  0 0.12500027E+03</rscale>
<asrwt>0</asrwt>
<pdfrwt beam="2">  1        4 0.28370426E-01 0.12500027E+03</pdfrwt>
<pdfrwt beam="1">  1       -4 0.86054991E-02 0.12500027E+03</pdfrwt>
<totfact> 0.18642222E+03</totfact>
</mgrwt>
</event>
<event>
 5    1  0.1433395E-002  0.1250019E+03  0.7818608E-02  0.1235066E+00
         -4   -1    0    0    0  501 -0.00000000000E+00  0.00000000000E+00  0.13297561291E+03  0.13298167742E+03  0.12700000000E+01 0. -1.
          4   -1    0    0  501    0  0.00000000000E+00 -0.00000000000E+00 -0.29356102965E+02  0.29383561413E+02  0.12700000000E+01 0. -1.
         25    2    1    2    0    0  0.00000000000E+00  0.00000000000E+00  0.10361950994E+03  0.16236523883E+03  0.12500187174E+03 0.  0.
    9000005    1    3    3    0    0 -0.43641271242E+02  0.38600035982E+02  0.22452155582E+02  0.62446958482E+02  0.10000000000E+01 0.  0.
    9000005    1    3    3    0    0  0.43641271242E+02 -0.38600035982E+02  0.81167354360E+02  0.99918280346E+02  0.10000000000E+01 0.  0.
<mgrwt>
<rscale>  0 0.12500187E+03</rscale>
<asrwt>0</asrwt>
<pdfrwt beam="2">  1        4 0.73432161E-02 0.12500187E+03</pdfrwt>
<pdfrwt beam="1">  1       -4 0.33248094E-01 0.12500187E+03</pdfrwt>
<totfact> 0.17946227E+03</totfact>
</mgrwt>
</event>
<event>
 5    1  0.1433395E-002  0.1250082E+03  0.7818608E-02  0.1235056E+00
          4   -1    0    0  501    0  0.00000000000E+00  0.00000000000E+00  0.11514937742E+03  0.11515638072E+03  0.12700000000E+01 0. -1.
         -4   -1    0    0    0  501 -0.00000000000E+00 -0.00000000000E+00 -0.33907873499E+02  0.33931648725E+02  0.12700000000E+01 0. -1.
         25    2    1    2    0    0  0.00000000000E+00  0.00000000000E+00  0.81241503923E+02  0.14908802945E+03  0.12500823399E+03 0.  0.
    9000005    1    3    3    0    0  0.29395781864E+02 -0.54700190631E+02  0.32226344965E+02  0.69969708848E+02  0.10000000000E+01 0.  0.
    9000005    1    3    3    0    0 -0.29395781864E+02  0.54700190631E+02  0.49015158958E+02  0.79118320597E+02  0.10000000000E+01 0.  0.
<mgrwt>
<rscale>  0 0.12500823E+03</rscale>
<asrwt>0</asrwt>
<pdfrwt beam="1">  1        4 0.28791191E-01 0.12500823E+03</pdfrwt>
<pdfrwt beam="2">  1       -4 0.84808158E-02 0.12500823E+03</pdfrwt>
<totfact> 0.18580153E+03</totfact>
</mgrwt>
</event>
<event>
 5    1  0.1433395E-002  0.1250007E+03  0.7818608E-02  0.1235068E+00
         -4   -1    0    0    0  501 -0.00000000000E+00  0.00000000000E+00  0.66933971490E+01  0.68128162601E+01  0.12700000000E+01 0.  1.
          4   -1    0    0  501    0  0.00000000000E+00 -0.00000000000E+00 -0.57832401099E+03  0.57832540545E+03  0.12700000000E+01 0.  1.
         25    2    1    2    0    0  0.00000000000E+00  0.00000000000E+00 -0.57163061384E+03  0.58513822171E+03  0.12500071930E+03 0.  0.
    9000005    1    3    3    0    0  0.52957920989E+02  0.20101077687E+02 -0.16225785757E+03  0.17186392019E+03  0.10000000000E+01 0.  0.
    9000005    1    3    3    0    0 -0.52957920989E+02 -0.20101077687E+02 -0.40937275627E+03  0.41327430152E+03  0.10000000000E+01 0.  0.
<mgrwt>
<rscale>  0 0.12500072E+03</rscale>
<asrwt>0</asrwt>
<pdfrwt beam="2">  1        4 0.14459594E+00 0.12500072E+03</pdfrwt>
<pdfrwt beam="1">  1       -4 0.16884529E-02 0.12500072E+03</pdfrwt>
<totfact> 0.75404085E+02</totfact>
</mgrwt>
</event>
<event>
 5    1  0.1433395E-002  0.1250015E+03  0.7818608E-02  0.1235067E+00
          4   -1    0    0  501    0  0.00000000000E+00  0.00000000000E+00  0.65818798051E+02  0.65831049490E+02  0.12700000000E+01 0. -1.
         -4   -1    0    0    0  501 -0.00000000000E+00 -0.00000000000E+00 -0.59325401815E+02  0.59338993929E+02  0.12700000000E+01 0. -1.
         25    2    1    2    0    0  0.00000000000E+00  0.00000000000E+00  0.64933962362E+01  0.12517004342E+03  0.12500150229E+03 0.  0.
    9000005    1    3    3    0    0 -0.15564865734E+02  0.44424858473E+02  0.44405777889E+02  0.64720214815E+02  0.10000000000E+01 0.  0.
    9000005    1    3    3    0    0  0.15564865734E+02 -0.44424858473E+02 -0.37912381653E+02  0.60449828604E+02  0.10000000000E+01 0.  0.
<mgrwt>
<rscale>  0 0.12500150E+03</rscale>
<asrwt>0</asrwt>
<pdfrwt beam="1">  1        4 0.16457930E-01 0.12500150E+03</pdfrwt>
<pdfrwt beam="2">  1       -4 0.14834581E-01 0.12500150E+03</pdfrwt>
<totfact> 0.19825139E+03</totfact>
</mgrwt>
</event>
<event>
 5    1  0.1433395E-002  0.1249993E+03  0.7818608E-02  0.1235070E+00
         -4   -1    0    0    0  501 -0.00000000000E+00  0.00000000000E+00  0.26457892240E+03  0.26458197043E+03  0.12700000000E+01 0. -1.
          4   -1    0    0  501    0  0.00000000000E+00 -0.00000000000E+00 -0.14733408208E+02  0.14788043056E+02  0.12700000000E+01 0. -1.
         25    2    1    2    0    0  0.00000000000E+00  0.00000000000E+00  0.24984551419E+03  0.27937001349E+03  0.12499929390E+03 0.  0.
    9000005    1    3    3    0    0  0.59232368873E+02 -0.11516597314E+02  0.88601848588E+02  0.10720257977E+03  0.10000000000E+01 0.  0.
    9000005    1    3    3    0    0 -0.59232368873E+02  0.11516597314E+02  0.16124366560E+03  0.17216743372E+03  0.10000000000E+01 0.  0.
<mgrwt>
<rscale>  0 0.12499929E+03</rscale>
<asrwt>0</asrwt>
<pdfrwt beam="2">  1        4 0.36905623E-02 0.12499929E+03</pdfrwt>
<pdfrwt beam="1">  1       -4 0.66151942E-01 0.12499929E+03</pdfrwt>
<totfact> 0.13569825E+03</totfact>
</mgrwt>
</event>
<event>
 5    1  0.1433395E-002  0.1249920E+03  0.7818608E-02  0.1235082E+00
         -4   -1    0    0    0  501 -0.00000000000E+00  0.00000000000E+00  0.57965431823E+02  0.57979342756E+02  0.12700000000E+01 0.  1.
          4   -1    0    0  501    0  0.00000000000E+00 -0.00000000000E+00 -0.67352649911E+02  0.67364622392E+02  0.12700000000E+01 0.  1.
         25    2    1    2    0    0  0.00000000000E+00  0.00000000000E+00 -0.93872180886E+01  0.12534396515E+03  0.12499195868E+03 0.  0.
    9000005    1    3    3    0    0  0.46404558970E+02  0.78136060739E+01 -0.45922796895E+02  0.65759705047E+02  0.10000000000E+01 0.  0.
    9000005    1    3    3    0    0 -0.46404558970E+02 -0.78136060739E+01  0.36535578807E+02  0.59584260102E+02  0.10000000000E+01 0.  0.
<mgrwt>
<rscale>  0 0.12499196E+03</rscale>
<asrwt>0</asrwt>
<pdfrwt beam="2">  1        4 0.16841398E-01 0.12499196E+03</pdfrwt>
<pdfrwt beam="1">  1       -4 0.14494593E-01 0.12499196E+03</pdfrwt>
<totfact> 0.19820142E+03</totfact>
</mgrwt>
</event>
<event>
 5    1  0.1433395E-002  0.1250023E+03  0.7818608E-02  0.1235066E+00
          4   -1    0    0  501    0  0.00000000000E+00  0.00000000000E+00  0.49353560829E+03  0.49353724231E+03  0.12700000000E+01 0. -1.
         -4   -1    0    0    0  501 -0.00000000000E+00 -0.00000000000E+00 -0.78625133319E+01  0.79644218807E+01  0.12700000000E+01 0. -1.
         25    2    1    2    0    0  0.00000000000E+00  0.00000000000E+00  0.48567309496E+03  0.50150166419E+03  0.12500225607E+03 0.  0.
    9000005    1    3    3    0    0  0.38346205070E+02  0.48568120628E+02  0.20783889405E+03  0.21685778672E+03  0.10000000000E+01 0.  0.
    9000005    1    3    3    0    0 -0.38346205070E+02 -0.48568120628E+02  0.27783420091E+03  0.28464387747E+03  0.10000000000E+01 0.  0.
<mgrwt>
<rscale>  0 0.12500226E+03</rscale>
<asrwt>0</asrwt>
<pdfrwt beam="1">  1        4 0.12339683E+00 0.12500226E+03</pdfrwt>
<pdfrwt beam="2">  1       -4 0.19785714E-02 0.12500226E+03</pdfrwt>
<totfact> 0.87364164E+02</totfact>
</mgrwt>
</event>
<event>
 4    1  0.1433395E-002  0.1252042E+03  0.7818608E-02  0.1234750E+00
          4   -1    0    0  501    0  0.00000000000E+00  0.00000000000E+00  0.88072168445E+02  0.88081324664E+02  0.12700000000E+01 0.  1.
         -4   -1    0    0    0  501 -0.00000000000E+00 -0.00000000000E+00 -0.44477340599E+02  0.44495468610E+02  0.12700000000E+01 0.  1.
    9000005    1    1    2    0    0 -0.48544455787E+01 -0.57740995936E+02  0.46864944793E+02  0.74531277354E+02  0.10000000000E+01 0.  0.
    9000005    1    1    2    0    0  0.48544455787E+01  0.57740995936E+02 -0.32701169470E+01  0.58045515920E+02  0.10000000000E+01 0.  0.
<mgrwt>
<rscale>  0 0.12520422E+03</rscale>
<asrwt>0</asrwt>
<pdfrwt beam="1">  1        4 0.22021452E-01 0.12520422E+03</pdfrwt>
<pdfrwt beam="2">  1       -4 0.11122746E-01 0.12520422E+03</pdfrwt>
<totfact> 0.19334525E+03</totfact>
</mgrwt>
</event>
<event>
 5    1  0.1433395E-002  0.1250140E+03  0.7818608E-02  0.1235047E+00
         -4   -1    0    0    0  501 -0.00000000000E+00  0.00000000000E+00  0.12876923977E+03  0.12877550237E+03  0.12700000000E+01 0. -1.
          4   -1    0    0  501    0  0.00000000000E+00 -0.00000000000E+00 -0.30321752390E+02  0.30348337154E+02  0.12700000000E+01 0. -1.
         25    2    1    2    0    0  0.00000000000E+00  0.00000000000E+00  0.98447487381E+02  0.15912383953E+03  0.12501395336E+03 0.  0.
    9000005    1    3    3    0    0 -0.35800774748E+01  0.50627783096E+02  0.95645787246E+02  0.10828252857E+03  0.10000000000E+01 0.  0.
    9000005    1    3    3    0    0  0.35800774748E+01 -0.50627783096E+02  0.28017001351E+01  0.50841310955E+02  0.10000000000E+01 0.  0.
<mgrwt>
<rscale>  0 0.12501395E+03</rscale>
<asrwt>0</asrwt>
<pdfrwt beam="2">  1        4 0.75845442E-02 0.12501395E+03</pdfrwt>
<pdfrwt beam="1">  1       -4 0.32196415E-01 0.12501395E+03</pdfrwt>
<totfact> 0.18093197E+03</totfact>
</mgrwt>
</event>
<event>
 5    1  0.1433395E-002  0.1250040E+03  0.7818608E-02  0.1235063E+00
         -4   -1    0    0    0  501 -0.00000000000E+00  0.00000000000E+00  0.38918519253E+02  0.38939235237E+02  0.12700000000E+01 0. -1.
          4   -1    0    0  501    0  0.00000000000E+00 -0.00000000000E+00 -0.10032500012E+03  0.10033303818E+03  0.12700000000E+01 0. -1.
         25    2    1    2    0    0  0.00000000000E+00  0.00000000000E+00 -0.61406480872E+02  0.13927227342E+03  0.12500404093E+03 0.  0.
    9000005    1    3    3    0    0  0.31790325587E+02 -0.38351000217E+02  0.11341103877E+02  0.51098382124E+02  0.10000000000E+01 0.  0.
    9000005    1    3    3    0    0 -0.31790325587E+02  0.38351000217E+02 -0.72747584749E+02  0.88173891291E+02  0.10000000000E+01 0.  0.
<mgrwt>
<rscale>  0 0.12500404E+03</rscale>
<asrwt>0</asrwt>
<pdfrwt beam="2">  1        4 0.25084844E-01 0.12500404E+03</pdfrwt>
<pdfrwt beam="1">  1       -4 0.97332243E-02 0.12500404E+03</pdfrwt>
<totfact> 0.19075836E+03</totfact>
</mgrwt>
</event>
<event>
 5    1  0.1433395E-002  0.1250012E+03  0.7818608E-02  0.1235067E+00
         -4   -1    0    0    0  501 -0.00000000000E+00  0.00000000000E+00  0.13919009171E+03  0.13919588546E+03  0.12700000000E+01 0. -1.
          4   -1    0    0  501    0  0.00000000000E+00 -0.00000000000E+00 -0.28043920165E+02  0.28072662115E+02  0.12700000000E+01 0. -1.
         25    2    1    2    0    0  0.00000000000E+00  0.00000000000E+00  0.11114617154E+03  0.16726854758E+03  0.12500118223E+03 0.  0.
    9000005    1    3    3    0    0 -0.61411836777E+02 -0.11073769718E+02  0.51078499619E+02  0.80647722816E+02  0.10000000000E+01 0.  0.
    9000005    1    3    3    0    0  0.61411836777E+02  0.11073769718E+02  0.60067671924E+02  0.86620824762E+02  0.10000000000E+01 0.  0.
<mgrwt>
<rscale>  0 0.12500118E+03</rscale>
<asrwt>0</asrwt>
<pdfrwt beam="2">  1        4 0.70152971E-02 0.12500118E+03</pdfrwt>
<pdfrwt beam="1">  1       -4 0.34801839E-01 0.12500118E+03</pdfrwt>
<totfact> 0.17720469E+03</totfact>
</mgrwt>
</event>
<event>
 5    1  0.1433395E-002  0.1249986E+03  0.7818608E-02  0.1235071E+00
          4   -1    0    0  501    0  0.00000000000E+00  0.00000000000E+00  0.14769313256E+03  0.14769859276E+03  0.12700000000E+01 0.  1.
         -4   -1    0    0    0  501 -0.00000000000E+00 -0.00000000000E+00 -0.26426640296E+02  0.26457139251E+02  0.12700000000E+01 0.  1.
         25    2    1    2    0    0  0.00000000000E+00  0.00000000000E+00  0.12126649226E+03  0.17415573201E+03  0.12499862739E+03 0.  0.
    9000005    1    3    3    0    0 -0.64968065235E+01  0.19564182540E+01  0.14718525034E+03  0.14734494896E+03  0.10000000000E+01 0.  0.
    9000005    1    3    3    0    0  0.64968065235E+01 -0.19564182540E+01 -0.25918758080E+02  0.26810783051E+02  0.10000000000E+01 0.  0.
<mgrwt>
<rscale>  0 0.12499863E+03</rscale>
<asrwt>0</asrwt>
<pdfrwt beam="1">  1        4 0.36927777E-01 0.12499863E+03</pdfrwt>
<pdfrwt beam="2">  1       -4 0.66111552E-02 0.12499863E+03</pdfrwt>
<totfact> 0.17411773E+03</totfact>
</mgrwt>
</event>
<event>
 5    1  0.1433395E-002  0.1250169E+03  0.7818608E-02  0.1235043E+00
         -4   -1    0    0    0  501 -0.00000000000E+00  0.00000000000E+00  0.15967234398E+03  0.15967739456E+03  0.12700000000E+01 0.  1.
          4   -1    0    0  501    0  0.00000000000E+00 -0.00000000000E+00 -0.24448838355E+02  0.24481801341E+02  0.12700000000E+01 0.  1.
         25    2    1    2    0    0  0.00000000000E+00  0.00000000000E+00  0.13522350563E+03  0.18415919590E+03  0.12501685071E+03 0.  0.
    9000005    1    3    3    0    0 -0.41246539121E+02  0.11112372105E+02  0.40430771223E+00  0.42730846798E+02  0.10000000000E+01 0.  0.
    9000005    1    3    3    0    0  0.41246539121E+02 -0.11112372105E+02  0.13481919792E+03  0.14142834910E+03  0.10000000000E+01 0.  0.
<mgrwt>
<rscale>  0 0.12501685E+03</rscale>
<asrwt>0</asrwt>
<pdfrwt beam="2">  1        4 0.61169614E-02 0.12501685E+03</pdfrwt>
<pdfrwt beam="1">  1       -4 0.39922837E-01 0.12501685E+03</pdfrwt>
<totfact> 0.16969994E+03</totfact>
</mgrwt>
</event>
<event>
 5    1  0.1433395E-002  0.1249997E+03  0.7818608E-02  0.1235070E+00
         -4   -1    0    0    0  501 -0.00000000000E+00  0.00000000000E+00  0.14144433925E+03  0.14145004067E+03  0.12700000000E+01 0. -1.
          4   -1    0    0  501    0  0.00000000000E+00 -0.00000000000E+00 -0.27595884896E+02  0.27625092999E+02  0.12700000000E+01 0. -1.
         25    2    1    2    0    0  0.00000000000E+00  0.00000000000E+00  0.11384845435E+03  0.16907513367E+03  0.12499972107E+03 0.  0.
    9000005    1    3    3    0    0 -0.58617980687E+02 -0.12426671942E+02  0.80920762962E+02  0.10069587734E+03  0.10000000000E+01 0.  0.
    9000005    1    3    3    0    0  0.58617980687E+02  0.12426671942E+02  0.32927691388E+02  0.68379256325E+02  0.10000000000E+01 0.  0.
<mgrwt>
<rscale>  0 0.12499972E+03</rscale>
<asrwt>0</asrwt>
<pdfrwt beam="2">  1        4 0.69033350E-02 0.12499972E+03</pdfrwt>
<pdfrwt beam="1">  1       -4 0.35365448E-01 0.12499972E+03</pdfrwt>
<totfact> 0.17638958E+03</totfact>
</mgrwt>
</event>
<event>
 5    1  0.1433395E-002  0.1249997E+03  0.7818608E-02  0.1235070E+00
         -4   -1    0    0    0  501 -0.00000000000E+00  0.00000000000E+00  0.11563135265E+02  0.11632669391E+02  0.12700000000E+01 0.  1.
          4   -1    0    0  501    0  0.00000000000E+00 -0.00000000000E+00 -0.33673422010E+03  0.33673661501E+03  0.12700000000E+01 0.  1.
         25    2    1    2    0    0  0.00000000000E+00  0.00000000000E+00 -0.32517108484E+03  0.34836928440E+03  0.12499969560E+03 0.  0.
    9000005    1    3    3    0    0 -0.51060644461E+00 -0.31174472310E+02 -0.31352264332E+03  0.31507071638E+03  0.10000000000E+01 0.  0.
    9000005    1    3    3    0    0  0.51060644461E+00  0.31174472310E+02 -0.11648441516E+02  0.33298568025E+02  0.10000000000E+01 0.  0.
<mgrwt>
<rscale>  0 0.12499970E+03</rscale>
<asrwt>0</asrwt>
<pdfrwt beam="2">  1        4 0.84192514E-01 0.12499970E+03</pdfrwt>
<pdfrwt beam="1">  1       -4 0.28997761E-02 0.12499970E+03</pdfrwt>
<totfact> 0.11716396E+03</totfact>
</mgrwt>
</event>
<event>
 5    1  0.1433395E-002  0.1250027E+03  0.7818608E-02  0.1235065E+00
         -4   -1    0    0    0  501 -0.00000000000E+00  0.00000000000E+00  0.32028537780E+03  0.32028789570E+03  0.12700000000E+01 0.  1.
          4   -1    0    0  501    0  0.00000000000E+00 -0.00000000000E+00 -0.12161056682E+02  0.12227190994E+02  0.12700000000E+01 0.  1.
         25    2    1    2    0    0  0.00000000000E+00  0.00000000000E+00  0.30812432112E+03  0.33251508670E+03  0.12500274243E+03 0.  0.
    9000005    1    3    3    0    0 -0.59012562425E+02 -0.12376649064E+02  0.11037251438E+03  0.12577263572E+03  0.10000000000E+01 0.  0.
    9000005    1    3    3    0    0  0.59012562425E+02  0.12376649064E+02  0.19775180674E+03  0.20674245097E+03  0.10000000000E+01 0.  0.
<mgrwt>
<rscale>  0 0.12500274E+03</rscale>
<asrwt>0</asrwt>
<pdfrwt beam="2">  1        4 0.30488457E-02 0.12500274E+03</pdfrwt>
<pdfrwt beam="1">  1       -4 0.80079925E-01 0.12500274E+03</pdfrwt>
<totfact> 0.12105564E+03</totfact>
</mgrwt>
</event>
<event>
 5    1  0.1433395E-002  0.1250022E+03  0.7818608E-02  0.1235066E+00
         -4   -1    0    0    0  501 -0.00000000000E+00  0.00000000000E+00  0.69144230925E+03  0.69144347558E+03  0.12700000000E+01 0.  1.
          4   -1    0    0  501    0  0.00000000000E+00 -0.00000000000E+00 -0.55770653787E+01  0.57198390046E+01  0.12700000000E+01 0.  1.
         25    2    1    2    0    0  0.00000000000E+00  0.00000000000E+00  0.68586524387E+03  0.69716331459E+03  0.12500221778E+03 0.  0.
    9000005    1    3    3    0    0  0.36028557424E+02  0.41734851828E+00  0.58158553219E+02  0.68422572608E+02  0.10000000000E+01 0.  0.
    9000005    1    3    3    0    0 -0.36028557424E+02 -0.41734851828E+00  0.62770669066E+03  0.62874074198E+03  0.10000000000E+01 0.  0.
<mgrwt>
<rscale>  0 0.12500222E+03</rscale>
<asrwt>0</asrwt>
<pdfrwt beam="2">  1        4 0.14122588E-02 0.12500222E+03</pdfrwt>
<pdfrwt beam="1">  1       -4 0.17287857E+00 0.12500222E+03</pdfrwt>
<totfact> 0.62358101E+02</totfact>
</mgrwt>
</event>
<event>
 5    1  0.1433395E-002  0.1249956E+03  0.7818608E-02  0.1235076E+00
         -4   -1    0    0    0  501 -0.00000000000E+00  0.00000000000E+00  0.30144817645E+02  0.30171558310E+02  0.12700000000E+01 0. -1.
          4   -1    0    0  501    0  0.00000000000E+00 -0.00000000000E+00 -0.12948637395E+03  0.12949260187E+03  0.12700000000E+01 0. -1.
         25    2    1    2    0    0  0.00000000000E+00  0.00000000000E+00 -0.99341556306E+02  0.15966416018E+03  0.12499559687E+03 0.  0.
    9000005    1    3    3    0    0  0.43528913034E+02  0.13370279625E+02  0.49942489017E+01  0.45820008395E+02  0.10000000000E+01 0.  0.
    9000005    1    3    3    0    0 -0.43528913034E+02 -0.13370279625E+02 -0.10433580521E+03  0.11384415178E+03  0.10000000000E+01 0.  0.
<mgrwt>
<rscale>  0 0.12499560E+03</rscale>
<asrwt>0</asrwt>
<pdfrwt beam="2">  1        4 0.32375713E-01 0.12499560E+03</pdfrwt>
<pdfrwt beam="1">  1       -4 0.75403258E-02 0.12499560E+03</pdfrwt>
<totfact> 0.18075421E+03</totfact>
</mgrwt>
</event>
<event>
 5    1  0.1433395E-002  0.1250034E+03  0.7818608E-02  0.1235064E+00
         -4   -1    0    0    0  501 -0.00000000000E+00  0.00000000000E+00  0.37204947635E+02  0.37226617205E+02  0.12700000000E+01 0. -1.
          4   -1    0    0  501    0  0.00000000000E+00 -0.00000000000E+00 -0.10494241562E+03  0.10495010003E+03  0.12700000000E+01 0. -1.
         25    2    1    2    0    0  0.00000000000E+00  0.00000000000E+00 -0.67737467982E+02  0.14217671723E+03  0.12500341737E+03 0.  0.
    9000005    1    3    3    0    0 -0.16568141718E+02 -0.29554652401E+02 -0.93594675102E+02  0.99543678885E+02  0.10000000000E+01 0.  0.
    9000005    1    3    3    0    0  0.16568141718E+02  0.29554652401E+02  0.25857207120E+02  0.42633038346E+02  0.10000000000E+01 0.  0.
<mgrwt>
<rscale>  0 0.12500342E+03</rscale>
<asrwt>0</asrwt>
<pdfrwt beam="2">  1        4 0.26239273E-01 0.12500342E+03</pdfrwt>
<pdfrwt beam="1">  1       -4 0.93049064E-02 0.12500342E+03</pdfrwt>
<totfact> 0.18928025E+03</totfact>
</mgrwt>
</event>
<event>
 5    1  0.1433395E-002  0.1250006E+03  0.7818608E-02  0.1235068E+00
          4   -1    0    0  501    0  0.00000000000E+00  0.00000000000E+00  0.84828129852E+02  0.84837636189E+02  0.12700000000E+01 0.  1.
         -4   -1    0    0    0  501 -0.00000000000E+00 -0.00000000000E+00 -0.46028568817E+02  0.46046086124E+02  0.12700000000E+01 0.  1.
         25    2    1    2    0    0  0.00000000000E+00  0.00000000000E+00  0.38799561035E+02  0.13088372231E+03  0.12500057132E+03 0.  0.
    9000005    1    3    3    0    0  0.24967318395E+02  0.54750707545E+02  0.37053890710E+02  0.70675298240E+02  0.10000000000E+01 0.  0.
    9000005    1    3    3    0    0 -0.24967318395E+02 -0.54750707545E+02  0.17456703251E+01  0.60208424073E+02  0.10000000000E+01 0.  0.
<mgrwt>
<rscale>  0 0.12500057E+03</rscale>
<asrwt>0</asrwt>
<pdfrwt beam="1">  1        4 0.21210410E-01 0.12500057E+03</pdfrwt>
<pdfrwt beam="2">  1       -4 0.11510520E-01 0.12500057E+03</pdfrwt>
<totfact> 0.19516732E+03</totfact>
</mgrwt>
</event>
<event>
 5    1  0.1433395E-002  0.1250027E+03  0.7818608E-02  0.1235065E+00
         -4   -1    0    0    0  501 -0.00000000000E+00  0.00000000000E+00  0.24556604987E+02  0.24589423508E+02  0.12700000000E+01 0.  1.
          4   -1    0    0  501    0  0.00000000000E+00 -0.00000000000E+00 -0.15893661607E+03  0.15894169003E+03  0.12700000000E+01 0.  1.
         25    2    1    2    0    0  0.00000000000E+00  0.00000000000E+00 -0.13438001109E+03  0.18353111353E+03  0.12500272899E+03 0.  0.
    9000005    1    3    3    0    0 -0.23414092675E+02  0.39256151159E+02 -0.46199253944E+01  0.45952245324E+02  0.10000000000E+01 0.  0.
    9000005    1    3    3    0    0  0.23414092675E+02 -0.39256151159E+02 -0.12976008569E+03  0.13757886821E+03  0.10000000000E+01 0.  0.
<mgrwt>
<rscale>  0 0.12500273E+03</rscale>
<asrwt>0</asrwt>
<pdfrwt beam="2">  1        4 0.39738888E-01 0.12500273E+03</pdfrwt>
<pdfrwt beam="1">  1       -4 0.61438883E-02 0.12500273E+03</pdfrwt>
<totfact> 0.17002353E+03</totfact>
</mgrwt>
</event>
<event>
 5    1  0.1433395E-002  0.1250030E+03  0.7818608E-02  0.1235065E+00
          4   -1    0    0  501    0  0.00000000000E+00  0.00000000000E+00  0.87571583485E+01  0.88487695382E+01  0.12700000000E+01 0. -1.
         -4   -1    0    0    0  501 -0.00000000000E+00 -0.00000000000E+00 -0.44367154852E+03  0.44367336619E+03  0.12700000000E+01 0. -1.
         25    2    1    2    0    0  0.00000000000E+00  0.00000000000E+00 -0.43491439017E+03  0.45252213573E+03  0.12500302615E+03 0.  0.
    9000005    1    3    3    0    0 -0.19974273857E+02  0.81572520283E+01 -0.51357314337E+01  0.22201083625E+02  0.10000000000E+01 0.  0.
    9000005    1    3    3    0    0  0.19974273857E+02 -0.81572520283E+01 -0.42977865874E+03  0.43032105211E+03  0.10000000000E+01 0.  0.
<mgrwt>
<rscale>  0 0.12500303E+03</rscale>
<asrwt>0</asrwt>
<pdfrwt beam="1">  1        4 0.22009697E-02 0.12500303E+03</pdfrwt>
<pdfrwt beam="2">  1       -4 0.11092949E+00 0.12500303E+03</pdfrwt>
<totfact> 0.95559374E+02</totfact>
</mgrwt>
</event>
<event>
 5    1  0.1433395E-002  0.1249869E+03  0.7818608E-02  0.1235090E+00
          4   -1    0    0  501    0  0.00000000000E+00  0.00000000000E+00  0.32976831634E+03  0.32977076183E+03  0.12700000000E+01 0. -1.
         -4   -1    0    0    0  501 -0.00000000000E+00 -0.00000000000E+00 -0.11806404862E+02  0.11874514549E+02  0.12700000000E+01 0. -1.
         25    2    1    2    0    0  0.00000000000E+00  0.00000000000E+00  0.31796191148E+03  0.34164527638E+03  0.12498687021E+03 0.  0.
    9000005    1    3    3    0    0  0.14871959581E+02  0.57838454602E+02  0.10872952344E+03  0.12405471083E+03  0.10000000000E+01 0.  0.
    9000005    1    3    3    0    0 -0.14871959581E+02 -0.57838454602E+02  0.20923238804E+03  0.21759056555E+03  0.10000000000E+01 0.  0.
<mgrwt>
<rscale>  0 0.12498687E+03</rscale>
<asrwt>0</asrwt>
<pdfrwt beam="1">  1        4 0.82450895E-01 0.12498687E+03</pdfrwt>
<pdfrwt beam="2">  1       -4 0.29604207E-02 0.12498687E+03</pdfrwt>
<totfact> 0.11882799E+03</totfact>
</mgrwt>
</event>
<event>
 5    1  0.1433395E-002  0.1250014E+03  0.7818608E-02  0.1235067E+00
          4   -1    0    0  501    0  0.00000000000E+00  0.00000000000E+00  0.15069424600E+02  0.15122845558E+02  0.12700000000E+01 0.  1.
         -4   -1    0    0    0  501 -0.00000000000E+00 -0.00000000000E+00 -0.25870911866E+03  0.25871223585E+03  0.12700000000E+01 0.  1.
         25    2    1    2    0    0  0.00000000000E+00  0.00000000000E+00 -0.24363969406E+03  0.27383508141E+03  0.12500140514E+03 0.  0.
    9000005    1    3    3    0    0  0.31938136603E+02  0.53713051285E+02 -0.12280289712E+03  0.13779219132E+03  0.10000000000E+01 0.  0.
    9000005    1    3    3    0    0 -0.31938136603E+02 -0.53713051285E+02 -0.12083679694E+03  0.13604289009E+03  0.10000000000E+01 0.  0.
<mgrwt>
<rscale>  0 0.12500141E+03</rscale>
<asrwt>0</asrwt>
<pdfrwt beam="1">  1        4 0.37744242E-02 0.12500141E+03</pdfrwt>
<pdfrwt beam="2">  1       -4 0.64684333E-01 0.12500141E+03</pdfrwt>
<totfact> 0.13736976E+03</totfact>
</mgrwt>
</event>
<event>
 5    1  0.1433395E-002  0.1249931E+03  0.7818608E-02  0.1235080E+00
          4   -1    0    0  501    0  0.00000000000E+00  0.00000000000E+00  0.51456013114E+03  0.51456169840E+03  0.12700000000E+01 0.  1.
         -4   -1    0    0    0  501 -0.00000000000E+00 -0.00000000000E+00 -0.75358913663E+01  0.76421566776E+01  0.12700000000E+01 0.  1.
         25    2    1    2    0    0  0.00000000000E+00  0.00000000000E+00  0.50702423977E+03  0.52220385508E+03  0.12499314597E+03 0.  0.
    9000005    1    3    3    0    0 -0.14853033061E+02 -0.40620888602E+02  0.65084039426E+02  0.78151144393E+02  0.10000000000E+01 0.  0.
    9000005    1    3    3    0    0  0.14853033061E+02  0.40620888602E+02  0.44194020035E+03  0.44405271068E+03  0.10000000000E+01 0.  0.
<mgrwt>
<rscale>  0 0.12499315E+03</rscale>
<asrwt>0</asrwt>
<pdfrwt beam="1">  1        4 0.12865350E+00 0.12499315E+03</pdfrwt>
<pdfrwt beam="2">  1       -4 0.18974521E-02 0.12499315E+03</pdfrwt>
<totfact> 0.84193227E+02</totfact>
</mgrwt>
</event>
<event>
 5    1  0.1433395E-002  0.1249993E+03  0.7818608E-02  0.1235070E+00
          4   -1    0    0  501    0  0.00000000000E+00  0.00000000000E+00  0.98918876621E+02  0.98927028925E+02  0.12700000000E+01 0. -1.
         -4   -1    0    0    0  501 -0.00000000000E+00 -0.00000000000E+00 -0.39468974118E+02  0.39489401337E+02  0.12700000000E+01 0. -1.
         25    2    1    2    0    0  0.00000000000E+00  0.00000000000E+00  0.59449902503E+02  0.13841643026E+03  0.12499926903E+03 0.  0.
    9000005    1    3    3    0    0  0.31560724695E+02 -0.40917192748E+02  0.68638203356E+02  0.85921469759E+02  0.10000000000E+01 0.  0.
    9000005    1    3    3    0    0 -0.31560724695E+02  0.40917192748E+02 -0.91883008531E+01  0.52494960503E+02  0.10000000000E+01 0.  0.
<mgrwt>
<rscale>  0 0.12499927E+03</rscale>
<asrwt>0</asrwt>
<pdfrwt beam="1">  1        4 0.24733291E-01 0.12499927E+03</pdfrwt>
<pdfrwt beam="2">  1       -4 0.98708161E-02 0.12499927E+03</pdfrwt>
<totfact> 0.19121976E+03</totfact>
</mgrwt>
</event>
<event>
 5    1  0.1433395E-002  0.1250003E+03  0.7818608E-02  0.1235069E+00
         -4   -1    0    0    0  501 -0.00000000000E+00  0.00000000000E+00  0.50239345848E+02  0.50255395444E+02  0.12700000000E+01 0. -1.
          4   -1    0    0  501    0  0.00000000000E+00 -0.00000000000E+00 -0.77719491720E+02  0.77729867446E+02  0.12700000000E+01 0. -1.
         25    2    1    2    0    0  0.00000000000E+00  0.00000000000E+00 -0.27480145872E+02  0.12798526289E+03  0.12500027640E+03 0.  0.
    9000005    1    3    3    0    0 -0.16068854830E+02  0.59651463719E+02 -0.23386415203E+02  0.66063830009E+02  0.10000000000E+01 0.  0.
    9000005    1    3    3    0    0  0.16068854830E+02 -0.59651463719E+02 -0.40937306683E+01  0.61921432882E+02  0.10000000000E+01 0.  0.
<mgrwt>
<rscale>  0 0.12500028E+03</rscale>
<asrwt>0</asrwt>
<pdfrwt beam="2">  1        4 0.19433176E-01 0.12500028E+03</pdfrwt>
<pdfrwt beam="1">  1       -4 0.12563140E-01 0.12500028E+03</pdfrwt>
<totfact> 0.19673209E+03</totfact>
</mgrwt>
</event>
<event>
 5    1  0.1433395E-002  0.1249994E+03  0.7818608E-02  0.1235070E+00
         -4   -1    0    0    0  501 -0.00000000000E+00  0.00000000000E+00  0.62795094961E+02  0.62807936212E+02  0.12700000000E+01 0.  1.
          4   -1    0    0  501    0  0.00000000000E+00 -0.00000000000E+00 -0.62180046718E+02  0.62193014960E+02  0.12700000000E+01 0.  1.
         25    2    1    2    0    0  0.00000000000E+00  0.00000000000E+00  0.61504824369E+00  0.12500095117E+03  0.12499943804E+03 0.  0.
    9000005    1    3    3    0    0 -0.54846590355E+02  0.25444773340E+02 -0.15492347939E+02  0.62422734709E+02  0.10000000000E+01 0.  0.
    9000005    1    3    3    0    0  0.54846590355E+02 -0.25444773340E+02  0.16107396183E+02  0.62578216463E+02  0.10000000000E+01 0.  0.
<mgrwt>
<rscale>  0 0.12499944E+03</rscale>
<asrwt>0</asrwt>
<pdfrwt beam="2">  1        4 0.15548238E-01 0.12499944E+03</pdfrwt>
<pdfrwt beam="1">  1       -4 0.15702000E-01 0.12499944E+03</pdfrwt>
<totfact> 0.19835265E+03</totfact>
</mgrwt>
</event>
<event>
 5    1  0.1433395E-002  0.1249810E+03  0.7818608E-02  0.1235099E+00
          4   -1    0    0  501    0  0.00000000000E+00  0.00000000000E+00  0.77119474245E+03  0.77119578816E+03  0.12700000000E+01 0.  1.
         -4   -1    0    0    0  501 -0.00000000000E+00 -0.00000000000E+00 -0.49829575742E+01  0.51422530263E+01  0.12700000000E+01 0.  1.
         25    2    1    2    0    0  0.00000000000E+00  0.00000000000E+00  0.76621178488E+03  0.77633804119E+03  0.12498101823E+03 0.  0.
    9000005    1    3    3    0    0  0.31703942071E+02  0.11182481925E+02  0.71025845116E+03  0.71105432654E+03  0.10000000000E+01 0.  0.
    9000005    1    3    3    0    0 -0.31703942071E+02 -0.11182481925E+02  0.55953333712E+02  0.65283714648E+02  0.10000000000E+01 0.  0.
<mgrwt>
<rscale>  0 0.12498102E+03</rscale>
<asrwt>0</asrwt>
<pdfrwt beam="1">  1        4 0.19281874E+00 0.12498102E+03</pdfrwt>
<pdfrwt beam="2">  1       -4 0.12657820E-02 0.12498102E+03</pdfrwt>
<totfact> 0.54632428E+02</totfact>
</mgrwt>
</event>
<event>
 5    1  0.1433395E-002  0.1250077E+03  0.7818608E-02  0.1235057E+00
         -4   -1    0    0    0  501 -0.00000000000E+00  0.00000000000E+00  0.78839909398E+01  0.79856254069E+01  0.12700000000E+01 0. -1.
          4   -1    0    0  501    0  0.00000000000E+00 -0.00000000000E+00 -0.49225094579E+03  0.49225258408E+03  0.12700000000E+01 0. -1.
         25    2    1    2    0    0  0.00000000000E+00  0.00000000000E+00 -0.48436695485E+03  0.50023820949E+03  0.12500767687E+03 0.  0.
    9000005    1    3    3    0    0 -0.31875447932E+02 -0.47226704482E+02 -0.13943163295E+03  0.15062730850E+03  0.10000000000E+01 0.  0.
    9000005    1    3    3    0    0  0.31875447932E+02  0.47226704482E+02 -0.34493532190E+03  0.34961090099E+03  0.10000000000E+01 0.  0.
<mgrwt>
<rscale>  0 0.12500768E+03</rscale>
<asrwt>0</asrwt>
<pdfrwt beam="2">  1        4 0.12307554E+00 0.12500768E+03</pdfrwt>
<pdfrwt beam="1">  1       -4 0.19839085E-02 0.12500768E+03</pdfrwt>
<totfact> 0.87553913E+02</totfact>
</mgrwt>
</event>
<event>
 5    1  0.1433395E-002  0.1250208E+03  0.7818608E-02  0.1235037E+00
         -4   -1    0    0    0  501 -0.00000000000E+00  0.00000000000E+00  0.10646387430E+02  0.10721868555E+02  0.12700000000E+01 0.  1.
          4   -1    0    0  501    0  0.00000000000E+00 -0.00000000000E+00 -0.36565723895E+03  0.36565944443E+03  0.12700000000E+01 0.  1.
         25    2    1    2    0    0  0.00000000000E+00  0.00000000000E+00 -0.35501085152E+03  0.37638131298E+03  0.12502075053E+03 0.  0.
    9000005    1    3    3    0    0  0.36780922188E+02 -0.34959196567E+02 -0.67648562480E+02  0.84571328872E+02  0.10000000000E+01 0.  0.
    9000005    1    3    3    0    0 -0.36780922188E+02  0.34959196567E+02 -0.28736228904E+03  0.29180998411E+03  0.10000000000E+01 0.  0.
<mgrwt>
<rscale>  0 0.12502075E+03</rscale>
<asrwt>0</asrwt>
<pdfrwt beam="2">  1        4 0.91423979E-01 0.12502075E+03</pdfrwt>
<pdfrwt beam="1">  1       -4 0.26713089E-02 0.12502075E+03</pdfrwt>
<totfact> 0.11067217E+03</totfact>
</mgrwt>
</event>
<event>
 5    1  0.1433395E-002  0.1250062E+03  0.7818608E-02  0.1235060E+00
         -4   -1    0    0    0  501 -0.00000000000E+00  0.00000000000E+00  0.86983775494E+02  0.86993046269E+02  0.12700000000E+01 0.  1.
          4   -1    0    0  501    0  0.00000000000E+00 -0.00000000000E+00 -0.44891582215E+02  0.44909543014E+02  0.12700000000E+01 0.  1.
         25    2    1    2    0    0  0.00000000000E+00  0.00000000000E+00  0.42092193279E+02  0.13190258928E+03  0.12500616115E+03 0.  0.
    9000005    1    3    3    0    0  0.46396177926E+02  0.73394073237E+01 -0.22448910375E+02  0.52071352998E+02  0.10000000000E+01 0.  0.
    9000005    1    3    3    0    0 -0.46396177926E+02 -0.73394073237E+01  0.64541103654E+02  0.79831236285E+02  0.10000000000E+01 0.  0.
<mgrwt>
<rscale>  0 0.12500616E+03</rscale>
<asrwt>0</asrwt>
<pdfrwt beam="2">  1        4 0.11226300E-01 0.12500616E+03</pdfrwt>
<pdfrwt beam="1">  1       -4 0.21749348E-01 0.12500616E+03</pdfrwt>
<totfact> 0.19459838E+03</totfact>
</mgrwt>
</event>
<event>
 5    1  0.1433395E-002  0.1250015E+03  0.7818608E-02  0.1235067E+00
         -4   -1    0    0    0  501 -0.00000000000E+00  0.00000000000E+00  0.37490077993E+02  0.37511582850E+02  0.12700000000E+01 0.  1.
          4   -1    0    0  501    0  0.00000000000E+00 -0.00000000000E+00 -0.10414143814E+03  0.10414918164E+03  0.12700000000E+01 0.  1.
         25    2    1    2    0    0  0.00000000000E+00  0.00000000000E+00 -0.66651360143E+02  0.14166076449E+03  0.12500147354E+03 0.  0.
    9000005    1    3    3    0    0 -0.35419598655E+01  0.16621172174E+02 -0.10147800565E+03  0.10289603721E+03  0.10000000000E+01 0.  0.
    9000005    1    3    3    0    0  0.35419598655E+01 -0.16621172174E+02  0.34826645504E+02  0.38764727281E+02  0.10000000000E+01 0.  0.
<mgrwt>
<rscale>  0 0.12500147E+03</rscale>
<asrwt>0</asrwt>
<pdfrwt beam="2">  1        4 0.26039015E-01 0.12500147E+03</pdfrwt>
<pdfrwt beam="1">  1       -4 0.93761758E-02 0.12500147E+03</pdfrwt>
<totfact> 0.18955049E+03</totfact>
</mgrwt>
</event>
<event>
 5    1  0.1433395E-002  0.1250010E+03  0.7818608E-02  0.1235068E+00
          4   -1    0    0  501    0  0.00000000000E+00  0.00000000000E+00  0.27184928850E+02  0.27214578015E+02  0.12700000000E+01 0. -1.
         -4   -1    0    0    0  501 -0.00000000000E+00 -0.00000000000E+00 -0.14358331344E+03  0.14358892993E+03  0.12700000000E+01 0. -1.
         25    2    1    2    0    0  0.00000000000E+00  0.00000000000E+00 -0.11639838459E+03  0.17080350794E+03  0.12500101756E+03 0.  0.
    9000005    1    3    3    0    0 -0.12795619157E+02 -0.61143261017E+02 -0.60600107913E+02  0.87037918843E+02  0.10000000000E+01 0.  0.
    9000005    1    3    3    0    0  0.12795619157E+02  0.61143261017E+02 -0.55798276674E+02  0.83765589100E+02  0.10000000000E+01 0.  0.
<mgrwt>
<rscale>  0 0.12500102E+03</rscale>
<asrwt>0</asrwt>
<pdfrwt beam="1">  1        4 0.68006408E-02 0.12500102E+03</pdfrwt>
<pdfrwt beam="2">  1       -4 0.35900234E-01 0.12500102E+03</pdfrwt>
<totfact> 0.17560452E+03</totfact>
</mgrwt>
</event>
<event>
 5    1  0.1433395E-002  0.1249972E+03  0.7818608E-02  0.1235074E+00
         -4   -1    0    0    0  501 -0.00000000000E+00  0.00000000000E+00  0.90976229569E+03  0.90976318213E+03  0.12700000000E+01 0.  1.
          4   -1    0    0  501    0  0.00000000000E+00 -0.00000000000E+00 -0.41986862193E+01  0.43865551368E+01  0.12700000000E+01 0.  1.
         25    2    1    2    0    0  0.00000000000E+00  0.00000000000E+00  0.90556360947E+03  0.91414973726E+03  0.12499716536E+03 0.  0.
    9000005    1    3    3    0    0 -0.23808106769E+02  0.18124340830E+02  0.51561634208E+02  0.59623148195E+02  0.10000000000E+01 0.  0.
    9000005    1    3    3    0    0  0.23808106769E+02 -0.18124340830E+02  0.85400197526E+03  0.85452658907E+03  0.10000000000E+01 0.  0.
<mgrwt>
<rscale>  0 0.12499717E+03</rscale>
<asrwt>0</asrwt>
<pdfrwt beam="2">  1        4 0.10732655E-02 0.12499717E+03</pdfrwt>
<pdfrwt beam="1">  1       -4 0.22746427E+00 0.12499717E+03</pdfrwt>
<totfact> 0.43208006E+02</totfact>
</mgrwt>
</event>
<event>
 5    1  0.1433395E-002  0.1249995E+03  0.7818608E-02  0.1235070E+00
          4   -1    0    0  501    0  0.00000000000E+00  0.00000000000E+00  0.64584449500E+03  0.64584574367E+03  0.12700000000E+01 0.  1.
         -4   -1    0    0    0  501 -0.00000000000E+00 -0.00000000000E+00 -0.59802959128E+01  0.61136600498E+01  0.12700000000E+01 0.  1.
         25    2    1    2    0    0  0.00000000000E+00  0.00000000000E+00  0.63986419908E+03  0.65195940372E+03  0.12499948332E+03 0.  0.
    9000005    1    3    3    0    0  0.24466744509E+02 -0.36273543590E+01  0.20611153064E+02  0.32211782272E+02  0.10000000000E+01 0.  0.
    9000005    1    3    3    0    0 -0.24466744509E+02  0.36273543590E+01  0.61925304602E+03  0.61974762145E+03  0.10000000000E+01 0.  0.
<mgrwt>
<rscale>  0 0.12499948E+03</rscale>
<asrwt>0</asrwt>
<pdfrwt beam="1">  1        4 0.16147793E+00 0.12499948E+03</pdfrwt>
<pdfrwt beam="2">  1       -4 0.15119007E-02 0.12499948E+03</pdfrwt>
<totfact> 0.67287946E+02</totfact>
</mgrwt>
</event>
<event>
 5    1  0.1433395E-002  0.1250027E+03  0.7818608E-02  0.1235065E+00
          4   -1    0    0  501    0  0.00000000000E+00  0.00000000000E+00  0.21808259686E+02  0.21845207496E+02  0.12700000000E+01 0.  1.
         -4   -1    0    0    0  501 -0.00000000000E+00 -0.00000000000E+00 -0.17893489246E+03  0.17893939935E+03  0.12700000000E+01 0.  1.
         25    2    1    2    0    0  0.00000000000E+00  0.00000000000E+00 -0.15712663277E+03  0.20078460684E+03  0.12500271845E+03 0.  0.
    9000005    1    3    3    0    0  0.41445636129E+02  0.63413179452E+00 -0.15368457447E+03  0.15917943117E+03  0.10000000000E+01 0.  0.
    9000005    1    3    3    0    0 -0.41445636129E+02 -0.63413179452E+00 -0.34420582979E+01  0.41605175671E+02  0.10000000000E+01 0.  0.
<mgrwt>
<rscale>  0 0.12500272E+03</rscale>
<asrwt>0</asrwt>
<pdfrwt beam="1">  1        4 0.54572473E-02 0.12500272E+03</pdfrwt>
<pdfrwt beam="2">  1       -4 0.44738901E-01 0.12500272E+03</pdfrwt>
<totfact> 0.16289649E+03</totfact>
</mgrwt>
</event>
<event>
 4    1  0.1433395E-002  0.1249057E+03  0.7818608E-02  0.1235217E+00
         -4   -1    0    0    0  501 -0.00000000000E+00  0.00000000000E+00  0.73229101051E+01  0.74322212297E+01  0.12700000000E+01 0. -1.
          4   -1    0    0  501    0  0.00000000000E+00 -0.00000000000E+00 -0.52856823309E+03  0.52856975881E+03  0.12700000000E+01 0. -1.
    9000005    1    1    2    0    0  0.34953960065E+02 -0.38661386216E+01 -0.48205433009E+03  0.48333642891E+03  0.10000000000E+01 0.  0.
    9000005    1    1    2    0    0 -0.34953960065E+02  0.38661386216E+01 -0.39190992893E+02  0.52665551132E+02  0.10000000000E+01 0.  0.
<mgrwt>
<rscale>  0 0.12490571E+03</rscale>
<asrwt>0</asrwt>
<pdfrwt beam="2">  1        4 0.13215578E+00 0.12490571E+03</pdfrwt>
<pdfrwt beam="1">  1       -4 0.18445839E-02 0.12490571E+03</pdfrwt>
<totfact> 0.82327490E+02</totfact>
</mgrwt>
</event>
<event>
 5    1  0.1433395E-002  0.1249985E+03  0.7818608E-02  0.1235072E+00
          4   -1    0    0  501    0  0.00000000000E+00  0.00000000000E+00  0.20280404148E+03  0.20280801794E+03  0.12700000000E+01 0.  1.
         -4   -1    0    0    0  501 -0.00000000000E+00 -0.00000000000E+00 -0.19235621689E+02  0.19277500921E+02  0.12700000000E+01 0.  1.
         25    2    1    2    0    0  0.00000000000E+00  0.00000000000E+00  0.18356841979E+03  0.22208551886E+03  0.12499845176E+03 0.  0.
    9000005    1    3    3    0    0 -0.45303233813E+02 -0.32194158911E+02  0.14254661623E+03  0.15300125706E+03  0.10000000000E+01 0.  0.
    9000005    1    3    3    0    0  0.45303233813E+02  0.32194158911E+02  0.41021803562E+02  0.69084261807E+02  0.10000000000E+01 0.  0.
<mgrwt>
<rscale>  0 0.12499845E+03</rscale>
<asrwt>0</asrwt>
<pdfrwt beam="1">  1        4 0.50706742E-01 0.12499845E+03</pdfrwt>
<pdfrwt beam="2">  1       -4 0.48146374E-02 0.12499845E+03</pdfrwt>
<totfact> 0.15474851E+03</totfact>
</mgrwt>
</event>
<event>
 5    1  0.1433395E-002  0.1249996E+03  0.7818608E-02  0.1235070E+00
         -4   -1    0    0    0  501 -0.00000000000E+00  0.00000000000E+00  0.14629831529E+02  0.14684851738E+02  0.12700000000E+01 0. -1.
          4   -1    0    0  501    0  0.00000000000E+00 -0.00000000000E+00 -0.26644624702E+03  0.26644927369E+03  0.12700000000E+01 0. -1.
         25    2    1    2    0    0  0.00000000000E+00  0.00000000000E+00 -0.25181641549E+03  0.28113412543E+03  0.12499955748E+03 0.  0.
    9000005    1    3    3    0    0 -0.45611989554E+02  0.41625333357E+00 -0.29838075628E+02  0.54515480509E+02  0.10000000000E+01 0.  0.
    9000005    1    3    3    0    0  0.45611989554E+02 -0.41625333357E+00 -0.22197833986E+03  0.22661864492E+03  0.10000000000E+01 0.  0.
<mgrwt>
<rscale>  0 0.12499956E+03</rscale>
<asrwt>0</asrwt>
<pdfrwt beam="2">  1        4 0.66618802E-01 0.12499956E+03</pdfrwt>
<pdfrwt beam="1">  1       -4 0.36647146E-02 0.12499956E+03</pdfrwt>
<totfact> 0.13516920E+03</totfact>
</mgrwt>
</event>
<event>
 5    1  0.1433395E-002  0.1250035E+03  0.7818608E-02  0.1235064E+00
         -4   -1    0    0    0  501 -0.00000000000E+00  0.00000000000E+00  0.21216924953E+03  0.21217305047E+03  0.12700000000E+01 0.  1.
          4   -1    0    0  501    0  0.00000000000E+00 -0.00000000000E+00 -0.18386181927E+02  0.18429991478E+02  0.12700000000E+01 0.  1.
         25    2    1    2    0    0  0.00000000000E+00  0.00000000000E+00  0.19378306760E+03  0.23060304195E+03  0.12500354262E+03 0.  0.
    9000005    1    3    3    0    0  0.41415032761E+02 -0.36939388539E+02  0.14990259397E+03  0.15984840019E+03  0.10000000000E+01 0.  0.
    9000005    1    3    3    0    0 -0.41415032761E+02  0.36939388539E+02  0.43880473632E+02  0.70754641759E+02  0.10000000000E+01 0.  0.
<mgrwt>
<rscale>  0 0.12500354E+03</rscale>
<asrwt>0</asrwt>
<pdfrwt beam="2">  1        4 0.46024968E-02 0.12500354E+03</pdfrwt>
<pdfrwt beam="1">  1       -4 0.53048264E-01 0.12500354E+03</pdfrwt>
<totfact> 0.15164549E+03</totfact>
</mgrwt>
</event>
<event>
 5    1  0.1433395E-002  0.1250054E+03  0.7818608E-02  0.1235061E+00
         -4   -1    0    0    0  501 -0.00000000000E+00  0.00000000000E+00  0.41394446687E+03  0.41394641507E+03  0.12700000000E+01 0.  1.
          4   -1    0    0  501    0  0.00000000000E+00 -0.00000000000E+00 -0.93927554646E+01  0.94782253200E+01  0.12700000000E+01 0.  1.
         25    2    1    2    0    0  0.00000000000E+00  0.00000000000E+00  0.40455171141E+03  0.42342464039E+03  0.12500535545E+03 0.  0.
    9000005    1    3    3    0    0 -0.37819635891E+02  0.33991482625E+02  0.79218385648E+02  0.94139781042E+02  0.10000000000E+01 0.  0.
    9000005    1    3    3    0    0  0.37819635891E+02 -0.33991482625E+02  0.32533332576E+03  0.32928485935E+03  0.10000000000E+01 0.  0.
<mgrwt>
<rscale>  0 0.12500536E+03</rscale>
<asrwt>0</asrwt>
<pdfrwt beam="2">  1        4 0.23591164E-02 0.12500536E+03</pdfrwt>
<pdfrwt beam="1">  1       -4 0.10349703E+00 0.12500536E+03</pdfrwt>
<totfact> 0.10097801E+03</totfact>
</mgrwt>
</event>
<event>
 5    1  0.1433395E-002  0.1249998E+03  0.7818608E-02  0.1235070E+00
          4   -1    0    0  501    0  0.00000000000E+00  0.00000000000E+00  0.19459216392E+03  0.19459630818E+03  0.12700000000E+01 0.  1.
         -4   -1    0    0    0  501 -0.00000000000E+00 -0.00000000000E+00 -0.20049520444E+02  0.20089703085E+02  0.12700000000E+01 0.  1.
         25    2    1    2    0    0  0.00000000000E+00  0.00000000000E+00  0.17454264347E+03  0.21468601127E+03  0.12499979617E+03 0.  0.
    9000005    1    3    3    0    0 -0.97626326784E+00 -0.41899601571E+01 -0.19803297680E+02  0.20289885537E+02  0.10000000000E+01 0.  0.
    9000005    1    3    3    0    0  0.97626326784E+00  0.41899601571E+01  0.19434594115E+03  0.19439612573E+03  0.10000000000E+01 0.  0.
<mgrwt>
<rscale>  0 0.12499980E+03</rscale>
<asrwt>0</asrwt>
<pdfrwt beam="1">  1        4 0.48653581E-01 0.12499980E+03</pdfrwt>
<pdfrwt beam="2">  1       -4 0.50179211E-02 0.12499980E+03</pdfrwt>
<totfact> 0.15750478E+03</totfact>
</mgrwt>
</event>
<event>
 5    1  0.1433395E-002  0.1249988E+03  0.7818608E-02  0.1235071E+00
         -4   -1    0    0    0  501 -0.00000000000E+00  0.00000000000E+00  0.13896803550E+03  0.13897383851E+03  0.12700000000E+01 0.  1.
          4   -1    0    0  501    0  0.00000000000E+00 -0.00000000000E+00 -0.28087701170E+02  0.28116398365E+02  0.12700000000E+01 0.  1.
         25    2    1    2    0    0  0.00000000000E+00  0.00000000000E+00  0.11088033433E+03  0.16709023688E+03  0.12499879487E+03 0.  0.
    9000005    1    3    3    0    0 -0.28873542265E+02 -0.54828809160E+02  0.44638645154E+02  0.76377276713E+02  0.10000000000E+01 0.  0.
    9000005    1    3    3    0    0  0.28873542265E+02  0.54828809160E+02  0.66241689175E+02  0.90712960164E+02  0.10000000000E+01 0.  0.
<mgrwt>
<rscale>  0 0.12499879E+03</rscale>
<asrwt>0</asrwt>
<pdfrwt beam="2">  1        4 0.70262379E-02 0.12499879E+03</pdfrwt>
<pdfrwt beam="1">  1       -4 0.34746321E-01 0.12499879E+03</pdfrwt>
<totfact> 0.17729590E+03</totfact>
</mgrwt>
</event>
<event>
 5    1  0.1433395E-002  0.1250033E+03  0.7818608E-02  0.1235064E+00
         -4   -1    0    0    0  501 -0.00000000000E+00  0.00000000000E+00  0.66142995358E+03  0.66143117284E+03  0.12700000000E+01 0.  1.
          4   -1    0    0  501    0  0.00000000000E+00 -0.00000000000E+00 -0.58365627474E+01  0.59731369233E+01  0.12700000000E+01 0.  1.
         25    2    1    2    0    0  0.00000000000E+00  0.00000000000E+00  0.65559339084E+03  0.66740430976E+03  0.12500327426E+03 0.  0.
    9000005    1    3    3    0    0 -0.43788354253E+02 -0.17463076578E+02  0.10875871117E+03  0.11854044148E+03  0.10000000000E+01 0.  0.
    9000005    1    3    3    0    0  0.43788354253E+02  0.17463076578E+02  0.54683467967E+03  0.54886386827E+03  0.10000000000E+01 0.  0.
<mgrwt>
<rscale>  0 0.12500327E+03</rscale>
<asrwt>0</asrwt>
<pdfrwt beam="2">  1        4 0.14763651E-02 0.12500327E+03</pdfrwt>
<pdfrwt beam="1">  1       -4 0.16537469E+00 0.12500327E+03</pdfrwt>
<totfact> 0.65549380E+02</totfact>
</mgrwt>
</event>
<event>
 5    1  0.1433395E-002  0.1250001E+03  0.7818608E-02  0.1235069E+00
          4   -1    0    0  501    0  0.00000000000E+00  0.00000000000E+00  0.80203764980E+03  0.80203865531E+03  0.12700000000E+01 0.  1.
         -4   -1    0    0    0  501 -0.00000000000E+00 -0.00000000000E+00 -0.47865949422E+01  0.49522107326E+01  0.12700000000E+01 0.  1.
         25    2    1    2    0    0  0.00000000000E+00  0.00000000000E+00  0.79725105486E+03  0.80699086604E+03  0.12500005356E+03 0.  0.
    9000005    1    3    3    0    0 -0.40903468823E+02 -0.42890961275E+02  0.52653187450E+03  0.52985804059E+03  0.10000000000E+01 0.  0.
    9000005    1    3    3    0    0  0.40903468823E+02  0.42890961275E+02  0.27071918036E+03  0.27713282544E+03  0.10000000000E+01 0.  0.
<mgrwt>
<rscale>  0 0.12500005E+03</rscale>
<asrwt>0</asrwt>
<pdfrwt beam="1">  1        4 0.20053019E+00 0.12500005E+03</pdfrwt>
<pdfrwt beam="2">  1       -4 0.12174767E-02 0.12500005E+03</pdfrwt>
<totfact> 0.51864273E+02</totfact>
</mgrwt>
</event>
<event>
 5    1  0.1433395E-002  0.1250030E+03  0.7818608E-02  0.1235065E+00
          4   -1    0    0  501    0  0.00000000000E+00  0.00000000000E+00  0.88714010089E+01  0.89618444453E+01  0.12700000000E+01 0. -1.
         -4   -1    0    0    0  501 -0.00000000000E+00 -0.00000000000E+00 -0.43801600690E+03  0.43801784804E+03  0.12700000000E+01 0. -1.
         25    2    1    2    0    0  0.00000000000E+00  0.00000000000E+00 -0.42914460589E+03  0.44697969248E+03  0.12500301087E+03 0.  0.
    9000005    1    3    3    0    0 -0.26212141858E+02 -0.17135201958E+02 -0.21192352267E+02  0.37826013820E+02  0.10000000000E+01 0.  0.
    9000005    1    3    3    0    0  0.26212141858E+02  0.17135201958E+02 -0.40795225362E+03  0.40915367866E+03  0.10000000000E+01 0.  0.
<mgrwt>
<rscale>  0 0.12500301E+03</rscale>
<asrwt>0</asrwt>
<pdfrwt beam="1">  1        4 0.22293873E-02 0.12500301E+03</pdfrwt>
<pdfrwt beam="2">  1       -4 0.10951547E+00 0.12500301E+03</pdfrwt>
<totfact> 0.96555204E+02</totfact>
</mgrwt>
</event>
<event>
 5    1  0.1433395E-002  0.1249978E+03  0.7818608E-02  0.1235073E+00
         -4   -1    0    0    0  501 -0.00000000000E+00  0.00000000000E+00  0.20951815971E+02  0.20990271377E+02  0.12700000000E+01 0. -1.
          4   -1    0    0  501    0  0.00000000000E+00 -0.00000000000E+00 -0.18622171155E+03  0.18622604209E+03  0.12700000000E+01 0. -1.
         25    2    1    2    0    0  0.00000000000E+00  0.00000000000E+00 -0.16526989558E+03  0.20721631346E+03  0.12499784871E+03 0.  0.
    9000005    1    3    3    0    0  0.76549658008E+01  0.43896169141E+02 -0.10002332513E+02  0.45678428414E+02  0.10000000000E+01 0.  0.
    9000005    1    3    3    0    0 -0.76549658008E+01 -0.43896169141E+02 -0.15526756306E+03  0.16153788505E+03  0.10000000000E+01 0.  0.
<mgrwt>
<rscale>  0 0.12499785E+03</rscale>
<asrwt>0</asrwt>
<pdfrwt beam="2">  1        4 0.46560771E-01 0.12499785E+03</pdfrwt>
<pdfrwt beam="1">  1       -4 0.52433028E-02 0.12499785E+03</pdfrwt>
<totfact> 0.16037908E+03</totfact>
</mgrwt>
</event>
<event>
 5    1  0.1433395E-002  0.1249978E+03  0.7818608E-02  0.1235073E+00
         -4   -1    0    0    0  501 -0.00000000000E+00  0.00000000000E+00  0.53990920674E+01  0.55464488777E+01  0.12700000000E+01 0. -1.
          4   -1    0    0  501    0  0.00000000000E+00 -0.00000000000E+00 -0.71358777138E+03  0.71358890152E+03  0.12700000000E+01 0. -1.
         25    2    1    2    0    0  0.00000000000E+00  0.00000000000E+00 -0.70818867932E+03  0.71913535040E+03  0.12499778668E+03 0.  0.
    9000005    1    3    3    0    0  0.22177718669E+02 -0.11681356369E+02 -0.68342616767E+03  0.68388641743E+03  0.10000000000E+01 0.  0.
    9000005    1    3    3    0    0 -0.22177718669E+02  0.11681356369E+02 -0.24762511647E+02  0.35248932963E+02  0.10000000000E+01 0.  0.
<mgrwt>
<rscale>  0 0.12499779E+03</rscale>
<asrwt>0</asrwt>
<pdfrwt beam="2">  1        4 0.17841519E+00 0.12499779E+03</pdfrwt>
<pdfrwt beam="1">  1       -4 0.13683363E-02 0.12499779E+03</pdfrwt>
<totfact> 0.60103759E+02</totfact>
</mgrwt>
</event>
<event>
 5    1  0.1433395E-002  0.1250006E+03  0.7818608E-02  0.1235068E+00
         -4   -1    0    0    0  501 -0.00000000000E+00  0.00000000000E+00  0.77806035815E+03  0.77806139464E+03  0.12700000000E+01 0.  1.
          4   -1    0    0  501    0  0.00000000000E+00 -0.00000000000E+00 -0.49391702552E+01  0.50998336061E+01  0.12700000000E+01 0.  1.
         25    2    1    2    0    0  0.00000000000E+00  0.00000000000E+00  0.77312118790E+03  0.78316122825E+03  0.12500055301E+03 0.  0.
    9000005    1    3    3    0    0 -0.61325995419E+01 -0.24766868052E+02  0.74397048885E+03  0.74440855369E+03  0.10000000000E+01 0.  0.
    9000005    1    3    3    0    0  0.61325995419E+01  0.24766868052E+02  0.29150699053E+02  0.38752674559E+02  0.10000000000E+01 0.  0.
<mgrwt>
<rscale>  0 0.12500055E+03</rscale>
<asrwt>0</asrwt>
<pdfrwt beam="2">  1        4 0.12550048E-02 0.12500055E+03</pdfrwt>
<pdfrwt beam="1">  1       -4 0.19453534E+00 0.12500055E+03</pdfrwt>
<totfact> 0.53985432E+02</totfact>
</mgrwt>
</event>
<event>
 5    1  0.1433395E-002  0.1249961E+03  0.7818608E-02  0.1235075E+00
         -4   -1    0    0    0  501 -0.00000000000E+00  0.00000000000E+00  0.27489110368E+03  0.27489403737E+03  0.12700000000E+01 0. -1.
          4   -1    0    0  501    0  0.00000000000E+00 -0.00000000000E+00 -0.14177882102E+02  0.14234649307E+02  0.12700000000E+01 0. -1.
         25    2    1    2    0    0  0.00000000000E+00  0.00000000000E+00  0.26071322158E+03  0.28912868668E+03  0.12499605416E+03 0.  0.
    9000005    1    3    3    0    0 -0.34714619246E+01  0.56085289063E+01 -0.13381759492E+02  0.14952529268E+02  0.10000000000E+01 0.  0.
    9000005    1    3    3    0    0  0.34714619246E+01 -0.56085289063E+01  0.27409498107E+03  0.27417615741E+03  0.10000000000E+01 0.  0.
<mgrwt>
<rscale>  0 0.12499605E+03</rscale>
<asrwt>0</asrwt>
<pdfrwt beam="2">  1        4 0.35519330E-02 0.12499605E+03</pdfrwt>
<pdfrwt beam="1">  1       -4 0.68730242E-01 0.12499605E+03</pdfrwt>
<totfact> 0.13282510E+03</totfact>
</mgrwt>
</event>
<event>
 5    1  0.1433395E-002  0.1250088E+03  0.7818608E-02  0.1235056E+00
         -4   -1    0    0    0  501 -0.00000000000E+00  0.00000000000E+00  0.12009179843E+03  0.12009851352E+03  0.12700000000E+01 0. -1.
          4   -1    0    0  501    0  0.00000000000E+00 -0.00000000000E+00 -0.32511747406E+02  0.32536542831E+02  0.12700000000E+01 0. -1.
         25    2    1    2    0    0  0.00000000000E+00  0.00000000000E+00  0.87580051019E+02  0.15263505635E+03  0.12500878005E+03 0.  0.
    9000005    1    3    3    0    0 -0.54465573997E+02  0.22871395505E+01  0.64733232714E+01  0.54905679782E+02  0.10000000000E+01 0.  0.
    9000005    1    3    3    0    0  0.54465573997E+02 -0.22871395505E+01  0.81106727747E+02  0.97729376566E+02  0.10000000000E+01 0.  0.
<mgrwt>
<rscale>  0 0.12500878E+03</rscale>
<asrwt>0</asrwt>
<pdfrwt beam="2">  1        4 0.81318758E-02 0.12500878E+03</pdfrwt>
<pdfrwt beam="1">  1       -4 0.30026888E-01 0.12500878E+03</pdfrwt>
<totfact> 0.18406210E+03</totfact>
</mgrwt>
</event>
<event>
 5    1  0.1433395E-002  0.1249958E+03  0.7818608E-02  0.1235076E+00
          4   -1    0    0  501    0  0.00000000000E+00  0.00000000000E+00  0.28380016191E+02  0.28408418101E+02  0.12700000000E+01 0.  1.
         -4   -1    0    0    0  501 -0.00000000000E+00 -0.00000000000E+00 -0.13753144040E+03  0.13753730403E+03  0.12700000000E+01 0.  1.
         25    2    1    2    0    0  0.00000000000E+00  0.00000000000E+00 -0.10915142421E+03  0.16594572213E+03  0.12499579707E+03 0.  0.
    9000005    1    3    3    0    0  0.74710791362E+01  0.33558834175E+02  0.14701830452E+02  0.37405296326E+02  0.10000000000E+01 0.  0.
    9000005    1    3    3    0    0 -0.74710791362E+01 -0.33558834175E+02 -0.12385325466E+03  0.12854042580E+03  0.10000000000E+01 0.  0.
<mgrwt>
<rscale>  0 0.12499580E+03</rscale>
<asrwt>0</asrwt>
<pdfrwt beam="1">  1        4 0.70992876E-02 0.12499580E+03</pdfrwt>
<pdfrwt beam="2">  1       -4 0.34387142E-01 0.12499580E+03</pdfrwt>
<totfact> 0.17783214E+03</totfact>
</mgrwt>
</event>
<event>
 5    1  0.1433395E-002  0.1249998E+03  0.7818608E-02  0.1235070E+00
          4   -1    0    0  501    0  0.00000000000E+00  0.00000000000E+00  0.75049380835E+02  0.75060125658E+02  0.12700000000E+01 0. -1.
         -4   -1    0    0    0  501 -0.00000000000E+00 -0.00000000000E+00 -0.52026637214E+02  0.52042135619E+02  0.12700000000E+01 0. -1.
         25    2    1    2    0    0  0.00000000000E+00  0.00000000000E+00  0.23022743621E+02  0.12710226128E+03  0.12499975239E+03 0.  0.
    9000005    1    3    3    0    0 -0.32653349789E+02  0.96518209436E+01 -0.41770735400E+02  0.53899844488E+02  0.10000000000E+01 0.  0.
    9000005    1    3    3    0    0  0.32653349789E+02 -0.96518209436E+01  0.64793479022E+02  0.73202416789E+02  0.10000000000E+01 0.  0.
<mgrwt>
<rscale>  0 0.12499975E+03</rscale>
<asrwt>0</asrwt>
<pdfrwt beam="1">  1        4 0.18765626E-01 0.12499975E+03</pdfrwt>
<pdfrwt beam="2">  1       -4 0.13009940E-01 0.12499975E+03</pdfrwt>
<totfact> 0.19721570E+03</totfact>
</mgrwt>
</event>
<event>
 5    1  0.1433395E-002  0.1250013E+03  0.7818608E-02  0.1235067E+00
          4   -1    0    0  501    0  0.00000000000E+00  0.00000000000E+00  0.16535593866E+03  0.16536081564E+03  0.12700000000E+01 0.  1.
         -4   -1    0    0    0  501 -0.00000000000E+00 -0.00000000000E+00 -0.23601491355E+02  0.23635636107E+02  0.12700000000E+01 0.  1.
         25    2    1    2    0    0  0.00000000000E+00  0.00000000000E+00  0.14175444730E+03  0.18899645175E+03  0.12500134177E+03 0.  0.
    9000005    1    3    3    0    0 -0.35392724069E+02 -0.40020324198E+02  0.11989496167E+03  0.13126337303E+03  0.10000000000E+01 0.  0.
    9000005    1    3    3    0    0  0.35392724069E+02  0.40020324198E+02  0.21859485634E+02  0.57733078717E+02  0.10000000000E+01 0.  0.
<mgrwt>
<rscale>  0 0.12500134E+03</rscale>
<asrwt>0</asrwt>
<pdfrwt beam="1">  1        4 0.41343862E-01 0.12500134E+03</pdfrwt>
<pdfrwt beam="2">  1       -4 0.59052506E-02 0.12500134E+03</pdfrwt>
<totfact> 0.16771813E+03</totfact>
</mgrwt>
</event>
<event>
 5    1  0.1433395E-002  0.1249994E+03  0.7818608E-02  0.1235070E+00
          4   -1    0    0  501    0  0.00000000000E+00  0.00000000000E+00  0.23283015955E+03  0.23283362321E+03  0.12700000000E+01 0. -1.
         -4   -1    0    0    0  501 -0.00000000000E+00 -0.00000000000E+00 -0.16749456028E+02  0.16797534856E+02  0.12700000000E+01 0. -1.
         25    2    1    2    0    0  0.00000000000E+00  0.00000000000E+00  0.21608070352E+03  0.24963115807E+03  0.12499937857E+03 0.  0.
    9000005    1    3    3    0    0 -0.86934624318E+01 -0.13713050530E+02  0.22855401546E+03  0.22913219335E+03  0.10000000000E+01 0.  0.
    9000005    1    3    3    0    0  0.86934624318E+01  0.13713050530E+02 -0.12473311938E+02  0.20498964720E+02  0.10000000000E+01 0.  0.
<mgrwt>
<rscale>  0 0.12499938E+03</rscale>
<asrwt>0</asrwt>
<pdfrwt beam="1">  1        4 0.58213984E-01 0.12499938E+03</pdfrwt>
<pdfrwt beam="2">  1       -4 0.41938067E-02 0.12499938E+03</pdfrwt>
<totfact> 0.14510472E+03</totfact>
</mgrwt>
</event>
<event>
 5    1  0.1433395E-002  0.1249985E+03  0.7818608E-02  0.1235072E+00
         -4   -1    0    0    0  501 -0.00000000000E+00  0.00000000000E+00  0.57289330288E+02  0.57303405351E+02  0.12700000000E+01 0.  1.
          4   -1    0    0  501    0  0.00000000000E+00 -0.00000000000E+00 -0.68154603044E+02  0.68166434674E+02  0.12700000000E+01 0.  1.
         25    2    1    2    0    0  0.00000000000E+00  0.00000000000E+00 -0.10865272757E+02  0.12546984002E+03  0.12499850641E+03 0.  0.
    9000005    1    3    3    0    0 -0.42825339447E+02  0.93420988803E+00  0.40239198090E+02  0.58779890352E+02  0.10000000000E+01 0.  0.
    9000005    1    3    3    0    0  0.42825339447E+02 -0.93420988803E+00 -0.51104470847E+02  0.66689949673E+02  0.10000000000E+01 0.  0.
<mgrwt>
<rscale>  0 0.12499851E+03</rscale>
<asrwt>0</asrwt>
<pdfrwt beam="2">  1        4 0.17041889E-01 0.12499851E+03</pdfrwt>
<pdfrwt beam="1">  1       -4 0.14325571E-01 0.12499851E+03</pdfrwt>
<totfact> 0.19810288E+03</totfact>
</mgrwt>
</event>
<event>
 5    1  0.1433395E-002  0.1250053E+03  0.7818608E-02  0.1235061E+00
         -4   -1    0    0    0  501 -0.00000000000E+00  0.00000000000E+00  0.10703217336E+03  0.10703970774E+03  0.12700000000E+01 0.  1.
          4   -1    0    0  501    0  0.00000000000E+00 -0.00000000000E+00 -0.36479271717E+02  0.36501372097E+02  0.12700000000E+01 0.  1.
         25    2    1    2    0    0  0.00000000000E+00  0.00000000000E+00  0.70552901639E+02  0.14354107984E+03  0.12500531857E+03 0.  0.
    9000005    1    3    3    0    0  0.47737906700E+02 -0.24572225296E+01  0.81502902427E+02  0.94491633400E+02  0.10000000000E+01 0.  0.
    9000005    1    3    3    0    0 -0.47737906700E+02  0.24572225296E+01 -0.10950000788E+02  0.49049446438E+02  0.10000000000E+01 0.  0.
<mgrwt>
<rscale>  0 0.12500532E+03</rscale>
<asrwt>0</asrwt>
<pdfrwt beam="2">  1        4 0.91235223E-02 0.12500532E+03</pdfrwt>
<pdfrwt beam="1">  1       -4 0.26761747E-01 0.12500532E+03</pdfrwt>
<totfact> 0.18858290E+03</totfact>
</mgrwt>
</event>
<event>
 5    1  0.1433395E-002  0.1249932E+03  0.7818608E-02  0.1235080E+00
          4   -1    0    0  501    0  0.00000000000E+00  0.00000000000E+00  0.10795655765E+03  0.10796402753E+03  0.12700000000E+01 0. -1.
         -4   -1    0    0    0  501 -0.00000000000E+00 -0.00000000000E+00 -0.36159735289E+02  0.36182030846E+02  0.12700000000E+01 0. -1.
         25    2    1    2    0    0  0.00000000000E+00  0.00000000000E+00  0.71796822365E+02  0.14414605838E+03  0.12499320959E+03 0.  0.
    9000005    1    3    3    0    0 -0.61968356844E+02  0.73532192953E+01  0.32129880746E+02  0.70195985075E+02  0.10000000000E+01 0.  0.
    9000005    1    3    3    0    0  0.61968356844E+02 -0.73532192953E+01  0.39666941619E+02  0.73950073302E+02  0.10000000000E+01 0.  0.
<mgrwt>
<rscale>  0 0.12499321E+03</rscale>
<asrwt>0</asrwt>
<pdfrwt beam="1">  1        4 0.26992860E-01 0.12499321E+03</pdfrwt>
<pdfrwt beam="2">  1       -4 0.90436546E-02 0.12499321E+03</pdfrwt>
<totfact> 0.18833187E+03</totfact>
</mgrwt>
</event>
<event>
 5    1  0.1433395E-002  0.1249881E+03  0.7818608E-02  0.1235088E+00
          4   -1    0    0  501    0  0.00000000000E+00  0.00000000000E+00  0.26172053362E+02  0.26202848646E+02  0.12700000000E+01 0. -1.
         -4   -1    0    0    0  501 -0.00000000000E+00 -0.00000000000E+00 -0.14910295344E+03  0.14910836202E+03  0.12700000000E+01 0. -1.
         25    2    1    2    0    0  0.00000000000E+00  0.00000000000E+00 -0.12293090008E+03  0.17531121067E+03  0.12498805700E+03 0.  0.
    9000005    1    3    3    0    0  0.40438573384E+02 -0.42675137541E+02 -0.91155320182E+02  0.10847459601E+03  0.10000000000E+01 0.  0.
    9000005    1    3    3    0    0 -0.40438573384E+02  0.42675137541E+02 -0.31775579896E+02  0.66836614660E+02  0.10000000000E+01 0.  0.
<mgrwt>
<rscale>  0 0.12498806E+03</rscale>
<asrwt>0</asrwt>
<pdfrwt beam="1">  1        4 0.65475392E-02 0.12498806E+03</pdfrwt>
<pdfrwt beam="2">  1       -4 0.37280262E-01 0.12498806E+03</pdfrwt>
<totfact> 0.17364927E+03</totfact>
</mgrwt>
</event>
<event>
 5    1  0.1433395E-002  0.1249890E+03  0.7818608E-02  0.1235086E+00
         -4   -1    0    0    0  501 -0.00000000000E+00  0.00000000000E+00  0.49280220527E+02  0.49296582389E+02  0.12700000000E+01 0. -1.
          4   -1    0    0  501    0  0.00000000000E+00 -0.00000000000E+00 -0.79217534644E+02  0.79227714186E+02  0.12700000000E+01 0. -1.
         25    2    1    2    0    0  0.00000000000E+00  0.00000000000E+00 -0.29937314117E+02  0.12852429657E+03  0.12498900765E+03 0.  0.
    9000005    1    3    3    0    0 -0.36089917751E+02  0.20429362911E+02  0.33094412565E+02  0.53066761492E+02  0.10000000000E+01 0.  0.
    9000005    1    3    3    0    0  0.36089917751E+02 -0.20429362911E+02 -0.63031726682E+02  0.75457535083E+02  0.10000000000E+01 0.  0.
<mgrwt>
<rscale>  0 0.12498901E+03</rscale>
<asrwt>0</asrwt>
<pdfrwt beam="2">  1        4 0.19807701E-01 0.12498901E+03</pdfrwt>
<pdfrwt beam="1">  1       -4 0.12323373E-01 0.12498901E+03</pdfrwt>
<totfact> 0.19649096E+03</totfact>
</mgrwt>
</event>
<event>
 5    1  0.1433395E-002  0.1250207E+03  0.7818608E-02  0.1235037E+00
         -4   -1    0    0    0  501 -0.00000000000E+00  0.00000000000E+00  0.39083063823E+03  0.39083270165E+03  0.12700000000E+01 0.  1.
          4   -1    0    0  501    0  0.00000000000E+00 -0.00000000000E+00 -0.99556240392E+01  0.10036301610E+02  0.12700000000E+01 0.  1.
         25    2    1    2    0    0  0.00000000000E+00  0.00000000000E+00  0.38087501419E+03  0.40086900326E+03  0.12502072364E+03 0.  0.
    9000005    1    3    3    0    0  0.31727924496E+02  0.22709306149E+02  0.34700053759E+03  0.34918869808E+03  0.10000000000E+01 0.  0.
    9000005    1    3    3    0    0 -0.31727924496E+02 -0.22709306149E+02  0.33874476599E+02  0.51680305179E+02  0.10000000000E+01 0.  0.
<mgrwt>
<rscale>  0 0.12502072E+03</rscale>
<asrwt>0</asrwt>
<pdfrwt beam="2">  1        4 0.24992487E-02 0.12502072E+03</pdfrwt>
<pdfrwt beam="1">  1       -4 0.97717999E-01 0.12502072E+03</pdfrwt>
<totfact> 0.10546344E+03</totfact>
</mgrwt>
</event>
<event>
 5    1  0.1433395E-002  0.1250015E+03  0.7818608E-02  0.1235067E+00
          4   -1    0    0  501    0  0.00000000000E+00  0.00000000000E+00  0.13188893902E+02  0.13249898957E+02  0.12700000000E+01 0. -1.
         -4   -1    0    0    0  501 -0.00000000000E+00 -0.00000000000E+00 -0.29543856704E+03  0.29544129670E+03  0.12700000000E+01 0. -1.
         25    2    1    2    0    0  0.00000000000E+00  0.00000000000E+00 -0.28224967314E+03  0.30869119566E+03  0.12500150514E+03 0.  0.
    9000005    1    3    3    0    0  0.13492672363E+02 -0.14063627548E+02 -0.28775379334E+03  0.28841477668E+03  0.10000000000E+01 0.  0.
    9000005    1    3    3    0    0 -0.13492672363E+02  0.14063627548E+02  0.55041201989E+01  0.20276418975E+02  0.10000000000E+01 0.  0.
<mgrwt>
<rscale>  0 0.12500151E+03</rscale>
<asrwt>0</asrwt>
<pdfrwt beam="1">  1        4 0.33051913E-02 0.12500151E+03</pdfrwt>
<pdfrwt beam="2">  1       -4 0.73867587E-01 0.12500151E+03</pdfrwt>
<totfact> 0.12730482E+03</totfact>
</mgrwt>
</event>
<event>
 5    1  0.1433395E-002  0.1250005E+03  0.7818608E-02  0.1235069E+00
          4   -1    0    0  501    0  0.00000000000E+00  0.00000000000E+00  0.85884268917E+02  0.85893658366E+02  0.12700000000E+01 0.  1.
         -4   -1    0    0    0  501 -0.00000000000E+00 -0.00000000000E+00 -0.45462334730E+02  0.45480070130E+02  0.12700000000E+01 0.  1.
         25    2    1    2    0    0  0.00000000000E+00  0.00000000000E+00  0.40421934188E+02  0.13137372850E+03  0.12500049510E+03 0.  0.
    9000005    1    3    3    0    0  0.51617998491E+02 -0.10477863154E+02  0.55557187854E+02  0.76562422289E+02  0.10000000000E+01 0.  0.
    9000005    1    3    3    0    0 -0.51617998491E+02  0.10477863154E+02 -0.15135253667E+02  0.54811306207E+02  0.10000000000E+01 0.  0.
<mgrwt>
<rscale>  0 0.12500050E+03</rscale>
<asrwt>0</asrwt>
<pdfrwt beam="1">  1        4 0.21474458E-01 0.12500050E+03</pdfrwt>
<pdfrwt beam="2">  1       -4 0.11368974E-01 0.12500050E+03</pdfrwt>
<totfact> 0.19490588E+03</totfact>
</mgrwt>
</event>
<event>
 5    1  0.1433395E-002  0.1250298E+03  0.7818608E-02  0.1235023E+00
         -4   -1    0    0    0  501 -0.00000000000E+00  0.00000000000E+00  0.19827500623E+02  0.19868132296E+02  0.12700000000E+01 0.  1.
          4   -1    0    0  501    0  0.00000000000E+00 -0.00000000000E+00 -0.19686136334E+03  0.19686545983E+03  0.12700000000E+01 0.  1.
         25    2    1    2    0    0  0.00000000000E+00  0.00000000000E+00 -0.17703386271E+03  0.21673359213E+03  0.12502984207E+03 0.  0.
    9000005    1    3    3    0    0 -0.58780685690E+02 -0.20759152750E+02 -0.96461360865E+02  0.11485602106E+03  0.10000000000E+01 0.  0.
    9000005    1    3    3    0    0  0.58780685690E+02  0.20759152750E+02 -0.80572501848E+02  0.10187757107E+03  0.10000000000E+01 0.  0.
<mgrwt>
<rscale>  0 0.12502984E+03</rscale>
<asrwt>0</asrwt>
<pdfrwt beam="2">  1        4 0.49220926E-01 0.12502984E+03</pdfrwt>
<pdfrwt beam="1">  1       -4 0.49624668E-02 0.12502984E+03</pdfrwt>
<totfact> 0.15662437E+03</totfact>
</mgrwt>
</event>
<event>
 5    1  0.1433395E-002  0.1249845E+03  0.7818608E-02  0.1235094E+00
          4   -1    0    0  501    0  0.00000000000E+00  0.00000000000E+00  0.18111092458E+03  0.18111537733E+03  0.12700000000E+01 0.  1.
         -4   -1    0    0    0  501 -0.00000000000E+00 -0.00000000000E+00 -0.21539489638E+02  0.21576897689E+02  0.12700000000E+01 0.  1.
         25    2    1    2    0    0  0.00000000000E+00  0.00000000000E+00  0.15957143495E+03  0.20269227501E+03  0.12498446103E+03 0.  0.
    9000005    1    3    3    0    0 -0.59418637009E+02 -0.17904228598E+02  0.67963351196E+02  0.92038866418E+02  0.10000000000E+01 0.  0.
    9000005    1    3    3    0    0  0.59418637009E+02  0.17904228598E+02  0.91608083750E+02  0.11065340860E+03  0.10000000000E+01 0.  0.
<mgrwt>
<rscale>  0 0.12498446E+03</rscale>
<asrwt>0</asrwt>
<pdfrwt beam="1">  1        4 0.45282963E-01 0.12498446E+03</pdfrwt>
<pdfrwt beam="2">  1       -4 0.53901052E-02 0.12498446E+03</pdfrwt>
<totfact> 0.16220629E+03</totfact>
</mgrwt>
</event>
<event>
 5    1  0.1433395E-002  0.1249980E+03  0.7818608E-02  0.1235072E+00
         -4   -1    0    0    0  501 -0.00000000000E+00  0.00000000000E+00  0.67090856317E+01  0.68282303721E+01  0.12700000000E+01 0. -1.
          4   -1    0    0  501    0  0.00000000000E+00 -0.00000000000E+00 -0.57697008723E+03  0.57697148496E+03  0.12700000000E+01 0. -1.
         25    2    1    2    0    0  0.00000000000E+00  0.00000000000E+00 -0.57026100159E+03  0.58379971533E+03  0.12499799070E+03 0.  0.
    9000005    1    3    3    0    0  0.17969691447E+02 -0.59558139642E+02 -0.31277820527E+03  0.31890639301E+03  0.10000000000E+01 0.  0.
    9000005    1    3    3    0    0 -0.17969691447E+02  0.59558139642E+02 -0.25748279632E+03  0.26489332232E+03  0.10000000000E+01 0.  0.
<mgrwt>
<rscale>  0 0.12499799E+03</rscale>
<asrwt>0</asrwt>
<pdfrwt beam="2">  1        4 0.14425742E+00 0.12499799E+03</pdfrwt>
<pdfrwt beam="1">  1       -4 0.16923412E-02 0.12499799E+03</pdfrwt>
<totfact> 0.75583332E+02</totfact>
</mgrwt>
</event>
<event>
 5    1  0.1433395E-002  0.1249958E+03  0.7818608E-02  0.1235076E+00
         -4   -1    0    0    0  501 -0.00000000000E+00  0.00000000000E+00  0.54266773051E+02  0.54281631860E+02  0.12700000000E+01 0. -1.
          4   -1    0    0  501    0  0.00000000000E+00 -0.00000000000E+00 -0.71947235731E+02  0.71958443766E+02  0.12700000000E+01 0. -1.
         25    2    1    2    0    0  0.00000000000E+00  0.00000000000E+00 -0.17680462679E+02  0.12624007563E+03  0.12499583167E+03 0.  0.
    9000005    1    3    3    0    0 -0.48085222125E+02 -0.10809006649E+02 -0.47640964526E+02  0.68554246496E+02  0.10000000000E+01 0.  0.
    9000005    1    3    3    0    0  0.48085222125E+02  0.10809006649E+02  0.29960501847E+02  0.57685829131E+02  0.10000000000E+01 0.  0.
<mgrwt>
<rscale>  0 0.12499583E+03</rscale>
<asrwt>0</asrwt>
<pdfrwt beam="2">  1        4 0.17990067E-01 0.12499583E+03</pdfrwt>
<pdfrwt beam="1">  1       -4 0.13569952E-01 0.12499583E+03</pdfrwt>
<totfact> 0.19769880E+03</totfact>
</mgrwt>
</event>
<event>
 5    1  0.1433395E-002  0.1249959E+03  0.7818608E-02  0.1235076E+00
         -4   -1    0    0    0  501 -0.00000000000E+00  0.00000000000E+00  0.35467874908E+03  0.35468102282E+03  0.12700000000E+01 0.  1.
          4   -1    0    0  501    0  0.00000000000E+00 -0.00000000000E+00 -0.10973841433E+02  0.11047085398E+02  0.12700000000E+01 0.  1.
         25    2    1    2    0    0  0.00000000000E+00  0.00000000000E+00  0.34370490765E+03  0.36572810822E+03  0.12499594234E+03 0.  0.
    9000005    1    3    3    0    0 -0.39457684067E+02  0.32593648730E+02  0.66937044933E+02  0.84266379736E+02  0.10000000000E+01 0.  0.
    9000005    1    3    3    0    0  0.39457684067E+02 -0.32593648730E+02  0.27676786271E+03  0.28146172848E+03  0.10000000000E+01 0.  0.
<mgrwt>
<rscale>  0 0.12499594E+03</rscale>
<asrwt>0</asrwt>
<pdfrwt beam="2">  1        4 0.27529001E-02 0.12499594E+03</pdfrwt>
<pdfrwt beam="1">  1       -4 0.88679125E-01 0.12499594E+03</pdfrwt>
<totfact> 0.11312032E+03</totfact>
</mgrwt>
</event>
<event>
 4    1  0.1433395E-002  0.1248525E+03  0.7818608E-02  0.1235300E+00
          4   -1    0    0  501    0  0.00000000000E+00  0.00000000000E+00  0.82306966456E+02  0.82316763950E+02  0.12700000000E+01 0. -1.
         -4   -1    0    0    0  501 -0.00000000000E+00 -0.00000000000E+00 -0.47326420514E+02  0.47343457612E+02  0.12700000000E+01 0. -1.
    9000005    1    1    2    0    0 -0.54032752383E+02 -0.18651927139E+02  0.43527647293E+02  0.71854636559E+02  0.10000000000E+01 0.  0.
    9000005    1    1    2    0    0  0.54032752383E+02  0.18651927139E+02 -0.85471013512E+01  0.57805585004E+02  0.10000000000E+01 0.  0.
<mgrwt>
<rscale>  0 0.12485245E+03</rscale>
<asrwt>0</asrwt>
<pdfrwt beam="1">  1        4 0.20580096E-01 0.12485245E+03</pdfrwt>
<pdfrwt beam="2">  1       -4 0.11834959E-01 0.12485245E+03</pdfrwt>
<totfact> 0.19650260E+03</totfact>
</mgrwt>
</event>
<event>
 5    1  0.1433395E-002  0.1249741E+03  0.7818608E-02  0.1235110E+00
          4   -1    0    0  501    0  0.00000000000E+00  0.00000000000E+00  0.12741548544E+02  0.12804685053E+02  0.12700000000E+01 0.  1.
         -4   -1    0    0    0  501 -0.00000000000E+00 -0.00000000000E+00 -0.30562690717E+03  0.30562954584E+03  0.12700000000E+01 0.  1.
         25    2    1    2    0    0  0.00000000000E+00  0.00000000000E+00 -0.29288535863E+03  0.31843423089E+03  0.12497410173E+03 0.  0.
    9000005    1    3    3    0    0 -0.22491875817E+02  0.34196131617E+02 -0.26162647675E+02  0.48587488397E+02  0.10000000000E+01 0.  0.
    9000005    1    3    3    0    0  0.22491875817E+02 -0.34196131617E+02 -0.26672271095E+03  0.26984674249E+03  0.10000000000E+01 0.  0.
<mgrwt>
<rscale>  0 0.12497410E+03</rscale>
<asrwt>0</asrwt>
<pdfrwt beam="1">  1        4 0.31936100E-02 0.12497410E+03</pdfrwt>
<pdfrwt beam="2">  1       -4 0.76414925E-01 0.12497410E+03</pdfrwt>
<totfact> 0.12477083E+03</totfact>
</mgrwt>
</event>
<event>
 5    1  0.1433395E-002  0.1250012E+03  0.7818608E-02  0.1235067E+00
         -4   -1    0    0    0  501 -0.00000000000E+00  0.00000000000E+00  0.61836494400E+02  0.61849534677E+02  0.12700000000E+01 0.  1.
          4   -1    0    0  501    0  0.00000000000E+00 -0.00000000000E+00 -0.63145789537E+02  0.63158559486E+02  0.12700000000E+01 0.  1.
         25    2    1    2    0    0  0.00000000000E+00  0.00000000000E+00 -0.13092951371E+01  0.12500809416E+03  0.12500123740E+03 0.  0.
    9000005    1    3    3    0    0  0.30945013649E+02 -0.46980883348E+02  0.26559527263E+02  0.62219014444E+02  0.10000000000E+01 0.  0.
    9000005    1    3    3    0    0 -0.30945013649E+02  0.46980883348E+02 -0.27868822400E+02  0.62789079719E+02  0.10000000000E+01 0.  0.
<mgrwt>
<rscale>  0 0.12500124E+03</rscale>
<asrwt>0</asrwt>
<pdfrwt beam="2">  1        4 0.15789674E-01 0.12500124E+03</pdfrwt>
<pdfrwt beam="1">  1       -4 0.15462350E-01 0.12500124E+03</pdfrwt>
<totfact> 0.19834042E+03</totfact>
</mgrwt>
</event>
<event>
 5    1  0.1433395E-002  0.1250025E+03  0.7818608E-02  0.1235065E+00
         -4   -1    0    0    0  501 -0.00000000000E+00  0.00000000000E+00  0.12414788305E+02  0.12479578064E+02  0.12700000000E+01 0. -1.
          4   -1    0    0  501    0  0.00000000000E+00 -0.00000000000E+00 -0.31377263625E+03  0.31377520642E+03  0.12700000000E+01 0. -1.
         25    2    1    2    0    0  0.00000000000E+00  0.00000000000E+00 -0.30135784795E+03  0.32625478448E+03  0.12500252748E+03 0.  0.
    9000005    1    3    3    0    0  0.31920775355E+02 -0.34959599896E+02 -0.25715540723E+03  0.26147851344E+03  0.10000000000E+01 0.  0.
    9000005    1    3    3    0    0 -0.31920775355E+02  0.34959599896E+02 -0.44202440718E+02  0.64776271037E+02  0.10000000000E+01 0.  0.
<mgrwt>
<rscale>  0 0.12500253E+03</rscale>
<asrwt>0</asrwt>
<pdfrwt beam="2">  1        4 0.78451553E-01 0.12500253E+03</pdfrwt>
<pdfrwt beam="1">  1       -4 0.31121181E-02 0.12500253E+03</pdfrwt>
<totfact> 0.12265154E+03</totfact>
</mgrwt>
</event>
<event>
 5    1  0.1433395E-002  0.1249994E+03  0.7818608E-02  0.1235070E+00
         -4   -1    0    0    0  501 -0.00000000000E+00  0.00000000000E+00  0.51485018114E+03  0.51485174752E+03  0.12700000000E+01 0. -1.
          4   -1    0    0  501    0  0.00000000000E+00 -0.00000000000E+00 -0.75323535351E+01  0.76386680631E+01  0.12700000000E+01 0. -1.
         25    2    1    2    0    0  0.00000000000E+00  0.00000000000E+00  0.50731782761E+03  0.52249041558E+03  0.12499942466E+03 0.  0.
    9000005    1    3    3    0    0  0.38427674582E+01 -0.55844875367E+02  0.13753494288E+03  0.14849335837E+03  0.10000000000E+01 0.  0.
    9000005    1    3    3    0    0 -0.38427674582E+01  0.55844875367E+02  0.36978288473E+03  0.37399705721E+03  0.10000000000E+01 0.  0.
<mgrwt>
<rscale>  0 0.12499942E+03</rscale>
<asrwt>0</asrwt>
<pdfrwt beam="2">  1        4 0.18965738E-02 0.12499942E+03</pdfrwt>
<pdfrwt beam="1">  1       -4 0.12872601E+00 0.12499942E+03</pdfrwt>
<totfact> 0.84138358E+02</totfact>
</mgrwt>
</event>
<event>
 5    1  0.1433395E-002  0.1250032E+03  0.7818608E-02  0.1235064E+00
         -4   -1    0    0    0  501 -0.00000000000E+00  0.00000000000E+00  0.94457372176E+02  0.94465909504E+02  0.12700000000E+01 0. -1.
          4   -1    0    0  501    0  0.00000000000E+00 -0.00000000000E+00 -0.41336593499E+02  0.41356098246E+02  0.12700000000E+01 0. -1.
         25    2    1    2    0    0  0.00000000000E+00  0.00000000000E+00  0.53120778677E+02  0.13582200775E+03  0.12500320261E+03 0.  0.
    9000005    1    3    3    0    0  0.28986146659E+01  0.31266466520E+02 -0.32147976702E+02  0.44949819818E+02  0.10000000000E+01 0.  0.
    9000005    1    3    3    0    0 -0.28986146659E+01 -0.31266466520E+02  0.85268755379E+02  0.90872187932E+02  0.10000000000E+01 0.  0.
<mgrwt>
<rscale>  0 0.12500320E+03</rscale>
<asrwt>0</asrwt>
<pdfrwt beam="2">  1        4 0.10337654E-01 0.12500320E+03</pdfrwt>
<pdfrwt beam="1">  1       -4 0.23617848E-01 0.12500320E+03</pdfrwt>
<totfact> 0.19254729E+03</totfact>
</mgrwt>
</event>
<event>
 5    1  0.1433395E-002  0.1249996E+03  0.7818608E-02  0.1235070E+00
          4   -1    0    0  501    0  0.00000000000E+00  0.00000000000E+00  0.70437695777E+02  0.70449143972E+02  0.12700000000E+01 0. -1.
         -4   -1    0    0    0  501 -0.00000000000E+00 -0.00000000000E+00 -0.55433236165E+02  0.55447782388E+02  0.12700000000E+01 0. -1.
         25    2    1    2    0    0  0.00000000000E+00  0.00000000000E+00  0.15004459612E+02  0.12589692636E+03  0.12499960903E+03 0.  0.
    9000005    1    3    3    0    0 -0.37667839365E+02 -0.81198316099E+01 -0.42048783129E+02  0.57042948297E+02  0.10000000000E+01 0.  0.
    9000005    1    3    3    0    0  0.37667839365E+02  0.81198316099E+01  0.57053242741E+02  0.68853978063E+02  0.10000000000E+01 0.  0.
<mgrwt>
<rscale>  0 0.12499961E+03</rscale>
<asrwt>0</asrwt>
<pdfrwt beam="1">  1        4 0.17612673E-01 0.12499961E+03</pdfrwt>
<pdfrwt beam="2">  1       -4 0.13861558E-01 0.12499961E+03</pdfrwt>
<totfact> 0.19786672E+03</totfact>
</mgrwt>
</event>
<event>
 5    1  0.1433395E-002  0.1250001E+03  0.7818608E-02  0.1235069E+00
         -4   -1    0    0    0  501 -0.00000000000E+00  0.00000000000E+00  0.29505874604E+03  0.29506147921E+03  0.12700000000E+01 0. -1.
          4   -1    0    0  501    0  0.00000000000E+00 -0.00000000000E+00 -0.13205654450E+02  0.13266582433E+02  0.12700000000E+01 0. -1.
         25    2    1    2    0    0  0.00000000000E+00  0.00000000000E+00  0.28185309159E+03  0.30832806165E+03  0.12500011344E+03 0.  0.
    9000005    1    3    3    0    0 -0.39645724871E+02 -0.40836257650E+02  0.20457656812E+03  0.21234866532E+03  0.10000000000E+01 0.  0.
    9000005    1    3    3    0    0  0.39645724871E+02  0.40836257650E+02  0.77276523475E+02  0.95979396330E+02  0.10000000000E+01 0.  0.
<mgrwt>
<rscale>  0 0.12500011E+03</rscale>
<asrwt>0</asrwt>
<pdfrwt beam="2">  1        4 0.33093712E-02 0.12500011E+03</pdfrwt>
<pdfrwt beam="1">  1       -4 0.73772645E-01 0.12500011E+03</pdfrwt>
<totfact> 0.12740782E+03</totfact>
</mgrwt>
</event>
<event>
 5    1  0.1433395E-002  0.1249995E+03  0.7818608E-02  0.1235070E+00
         -4   -1    0    0    0  501 -0.00000000000E+00  0.00000000000E+00  0.44529431685E+03  0.44529612790E+03  0.12700000000E+01 0. -1.
          4   -1    0    0  501    0  0.00000000000E+00 -0.00000000000E+00 -0.87244076959E+01  0.88163592057E+01  0.12700000000E+01 0. -1.
         25    2    1    2    0    0  0.00000000000E+00  0.00000000000E+00  0.43656990916E+03  0.45411248710E+03  0.12499946145E+03 0.  0.
    9000005    1    3    3    0    0 -0.52184627047E+02  0.59487857005E+01  0.95269424218E+02  0.10879286071E+03  0.10000000000E+01 0.  0.
    9000005    1    3    3    0    0  0.52184627047E+02 -0.59487857005E+01  0.34130048494E+03  0.34531962639E+03  0.10000000000E+01 0.  0.
<mgrwt>
<rscale>  0 0.12499946E+03</rscale>
<asrwt>0</asrwt>
<pdfrwt beam="2">  1        4 0.21928224E-02 0.12499946E+03</pdfrwt>
<pdfrwt beam="1">  1       -4 0.11133529E+00 0.12499946E+03</pdfrwt>
<totfact> 0.95284445E+02</totfact>
</mgrwt>
</event>
<event>
 5    1  0.1433395E-002  0.1250111E+03  0.7818608E-02  0.1235052E+00
         -4   -1    0    0    0  501 -0.00000000000E+00  0.00000000000E+00  0.39585850158E+03  0.39586053879E+03  0.12700000000E+01 0.  1.
          4   -1    0    0  501    0  0.00000000000E+00 -0.00000000000E+00 -0.98266191212E+01  0.99083471555E+01  0.12700000000E+01 0.  1.
         25    2    1    2    0    0  0.00000000000E+00  0.00000000000E+00  0.38603188246E+03  0.40576888595E+03  0.12501109762E+03 0.  0.
    9000005    1    3    3    0    0  0.20525293246E+02  0.58634237675E+02  0.17083880011E+03  0.18178602012E+03  0.10000000000E+01 0.  0.
    9000005    1    3    3    0    0 -0.20525293246E+02 -0.58634237675E+02  0.21519308235E+03  0.22398286582E+03  0.10000000000E+01 0.  0.
<mgrwt>
<rscale>  0 0.12501110E+03</rscale>
<asrwt>0</asrwt>
<pdfrwt beam="2">  1        4 0.24671256E-02 0.12501110E+03</pdfrwt>
<pdfrwt beam="1">  1       -4 0.98975088E-01 0.12501110E+03</pdfrwt>
<totfact> 0.10448687E+03</totfact>
</mgrwt>
</event>
<event>
 5    1  0.1433395E-002  0.1250003E+03  0.7818608E-02  0.1235069E+00
         -4   -1    0    0    0  501 -0.00000000000E+00  0.00000000000E+00  0.51228290268E+02  0.51244030128E+02  0.12700000000E+01 0.  1.
          4   -1    0    0  501    0  0.00000000000E+00 -0.00000000000E+00 -0.76219435980E+02  0.76230015880E+02  0.12700000000E+01 0.  1.
         25    2    1    2    0    0  0.00000000000E+00  0.00000000000E+00 -0.24991145712E+02  0.12747404601E+03  0.12500030017E+03 0.  0.
    9000005    1    3    3    0    0  0.10948703691E+02  0.56867616278E+02 -0.36443681199E+02  0.68432023154E+02  0.10000000000E+01 0.  0.
    9000005    1    3    3    0    0 -0.10948703691E+02 -0.56867616278E+02  0.11452535487E+02  0.59042022854E+02  0.10000000000E+01 0.  0.
<mgrwt>
<rscale>  0 0.12500030E+03</rscale>
<asrwt>0</asrwt>
<pdfrwt beam="2">  1        4 0.19058149E-01 0.12500030E+03</pdfrwt>
<pdfrwt beam="1">  1       -4 0.12810363E-01 0.12500030E+03</pdfrwt>
<totfact> 0.19701064E+03</totfact>
</mgrwt>
</event>
<event>
 5    1  0.1433395E-002  0.1249968E+03  0.7818608E-02  0.1235074E+00
         -4   -1    0    0    0  501 -0.00000000000E+00  0.00000000000E+00  0.30733976561E+03  0.30734238957E+03  0.12700000000E+01 0.  1.
          4   -1    0    0  501    0  0.00000000000E+00 -0.00000000000E+00 -0.12674819422E+02  0.12738286674E+02  0.12700000000E+01 0.  1.
         25    2    1    2    0    0  0.00000000000E+00  0.00000000000E+00  0.29466494619E+03  0.32008067625E+03  0.12499683513E+03 0.  0.
    9000005    1    3    3    0    0 -0.25721350664E+02  0.36917359975E+02  0.36285808156E+02  0.57811237844E+02  0.10000000000E+01 0.  0.
    9000005    1    3    3    0    0  0.25721350664E+02 -0.36917359975E+02  0.25837913804E+03  0.26226943840E+03  0.10000000000E+01 0.  0.
<mgrwt>
<rscale>  0 0.12499684E+03</rscale>
<asrwt>0</asrwt>
<pdfrwt beam="2">  1        4 0.31769662E-02 0.12499684E+03</pdfrwt>
<pdfrwt beam="1">  1       -4 0.76843204E-01 0.12499684E+03</pdfrwt>
<totfact> 0.12427251E+03</totfact>
</mgrwt>
</event>
<event>
 5    1  0.1433395E-002  0.1249945E+03  0.7818608E-02  0.1235078E+00
         -4   -1    0    0    0  501 -0.00000000000E+00  0.00000000000E+00  0.10614163915E+03  0.10614923674E+03  0.12700000000E+01 0.  1.
          4   -1    0    0  501    0  0.00000000000E+00 -0.00000000000E+00 -0.36779140000E+02  0.36801060299E+02  0.12700000000E+01 0.  1.
         25    2    1    2    0    0  0.00000000000E+00  0.00000000000E+00  0.69362499145E+02  0.14295029704E+03  0.12499452442E+03 0.  0.
    9000005    1    3    3    0    0  0.14768099618E+02 -0.58956509161E+02  0.18071058803E+02  0.63415533626E+02  0.10000000000E+01 0.  0.
    9000005    1    3    3    0    0 -0.14768099618E+02  0.58956509161E+02  0.51291440342E+02  0.79534763413E+02  0.10000000000E+01 0.  0.
<mgrwt>
<rscale>  0 0.12499452E+03</rscale>
<asrwt>0</asrwt>
<pdfrwt beam="2">  1        4 0.91984748E-02 0.12499452E+03</pdfrwt>
<pdfrwt beam="1">  1       -4 0.26539099E-01 0.12499452E+03</pdfrwt>
<totfact> 0.18892824E+03</totfact>
</mgrwt>
</event>
<event>
 5    1  0.1433395E-002  0.1250018E+03  0.7818608E-02  0.1235066E+00
         -4   -1    0    0    0  501 -0.00000000000E+00  0.00000000000E+00  0.42054760209E+02  0.42073932027E+02  0.12700000000E+01 0. -1.
          4   -1    0    0  501    0  0.00000000000E+00 -0.00000000000E+00 -0.92842837564E+02  0.92851523342E+02  0.12700000000E+01 0. -1.
         25    2    1    2    0    0  0.00000000000E+00  0.00000000000E+00 -0.50788077355E+02  0.13492545537E+03  0.12500179881E+03 0.  0.
    9000005    1    3    3    0    0  0.59953065900E+02 -0.80985541379E+01 -0.42303118912E+02  0.73827573166E+02  0.10000000000E+01 0.  0.
    9000005    1    3    3    0    0 -0.59953065900E+02  0.80985541379E+01 -0.84849584436E+01  0.61097882203E+02  0.10000000000E+01 0.  0.
<mgrwt>
<rscale>  0 0.12500180E+03</rscale>
<asrwt>0</asrwt>
<pdfrwt beam="2">  1        4 0.23214191E-01 0.12500180E+03</pdfrwt>
<pdfrwt beam="1">  1       -4 0.10517172E-01 0.12500180E+03</pdfrwt>
<totfact> 0.19302232E+03</totfact>
</mgrwt>
</event>
<event>
 5    1  0.1433395E-002  0.1249975E+03  0.7818608E-02  0.1235073E+00
         -4   -1    0    0    0  501 -0.00000000000E+00  0.00000000000E+00  0.85872931325E+01  0.86806971692E+01  0.12700000000E+01 0.  1.
          4   -1    0    0  501    0  0.00000000000E+00 -0.00000000000E+00 -0.45231412545E+03  0.45231590839E+03  0.12700000000E+01 0.  1.
         25    2    1    2    0    0  0.00000000000E+00  0.00000000000E+00 -0.44372683231E+03  0.46099660556E+03  0.12499747444E+03 0.  0.
    9000005    1    3    3    0    0  0.61004840476E+02  0.38609230070E+01 -0.17397630235E+03  0.18440512755E+03  0.10000000000E+01 0.  0.
    9000005    1    3    3    0    0 -0.61004840476E+02 -0.38609230070E+01 -0.26975052997E+03  0.27659147800E+03  0.10000000000E+01 0.  0.
<mgrwt>
<rscale>  0 0.12499747E+03</rscale>
<asrwt>0</asrwt>
<pdfrwt beam="2">  1        4 0.11309035E+00 0.12499747E+03</pdfrwt>
<pdfrwt beam="1">  1       -4 0.21587232E-02 0.12499747E+03</pdfrwt>
<totfact> 0.94081151E+02</totfact>
</mgrwt>
</event>
<event>
 5    1  0.1433395E-002  0.1250048E+03  0.7818608E-02  0.1235062E+00
          4   -1    0    0  501    0  0.00000000000E+00  0.00000000000E+00  0.76623608650E+02  0.76634132751E+02  0.12700000000E+01 0. -1.
         -4   -1    0    0    0  501 -0.00000000000E+00 -0.00000000000E+00 -0.50961720166E+02  0.50977542332E+02  0.12700000000E+01 0. -1.
         25    2    1    2    0    0  0.00000000000E+00  0.00000000000E+00  0.25661888485E+02  0.12761167508E+03  0.12500482830E+03 0.  0.
    9000005    1    3    3    0    0 -0.21029389646E+01  0.56644764500E+01  0.76329727997E+02  0.76575035239E+02  0.10000000000E+01 0.  0.
    9000005    1    3    3    0    0  0.21029389646E+01 -0.56644764500E+01 -0.50667839513E+02  0.51036639845E+02  0.10000000000E+01 0.  0.
<mgrwt>
<rscale>  0 0.12500483E+03</rscale>
<asrwt>0</asrwt>
<pdfrwt beam="1">  1        4 0.19159195E-01 0.12500483E+03</pdfrwt>
<pdfrwt beam="2">  1       -4 0.12743723E-01 0.12500483E+03</pdfrwt>
<totfact> 0.19691471E+03</totfact>
</mgrwt>
</event>
<event>
 5    1  0.1433395E-002  0.1250001E+03  0.7818608E-02  0.1235069E+00
         -4   -1    0    0    0  501 -0.00000000000E+00  0.00000000000E+00  0.73921202023E+03  0.73921311119E+03  0.12700000000E+01 0. -1.
          4   -1    0    0  501    0  0.00000000000E+00 -0.00000000000E+00 -0.52069348668E+01  0.53595774747E+01  0.12700000000E+01 0. -1.
         25    2    1    2    0    0  0.00000000000E+00  0.00000000000E+00  0.73400508537E+03  0.74457268867E+03  0.12500009345E+03 0.  0.
    9000005    1    3    3    0    0  0.61425733432E+01 -0.12514309344E+02  0.72986109780E+03  0.72999490493E+03  0.10000000000E+01 0.  0.
    9000005    1    3    3    0    0 -0.61425733432E+01  0.12514309344E+02  0.41439875661E+01  0.14577783733E+02  0.10000000000E+01 0.  0.
<mgrwt>
<rscale>  0 0.12500009E+03</rscale>
<asrwt>0</asrwt>
<pdfrwt beam="2">  1        4 0.13209503E-02 0.12500009E+03</pdfrwt>
<pdfrwt beam="1">  1       -4 0.18482224E+00 0.12500009E+03</pdfrwt>
<totfact> 0.57590979E+02</totfact>
</mgrwt>
</event>
<event>
 5    1  0.1433395E-002  0.1249977E+03  0.7818608E-02  0.1235073E+00
          4   -1    0    0  501    0  0.00000000000E+00  0.00000000000E+00  0.43577756932E+02  0.43596259005E+02  0.12700000000E+01 0.  1.
         -4   -1    0    0    0  501 -0.00000000000E+00 -0.00000000000E+00 -0.89593233638E+02  0.89602234423E+02  0.12700000000E+01 0.  1.
         25    2    1    2    0    0  0.00000000000E+00  0.00000000000E+00 -0.46015476706E+02  0.13319849343E+03  0.12499765820E+03 0.  0.
    9000005    1    3    3    0    0  0.76523887992E+01 -0.48686154478E+02 -0.63949871840E+02  0.80743339048E+02  0.10000000000E+01 0.  0.
    9000005    1    3    3    0    0 -0.76523887992E+01  0.48686154478E+02  0.17934395135E+02  0.52455154380E+02  0.10000000000E+01 0.  0.
<mgrwt>
<rscale>  0 0.12499766E+03</rscale>
<asrwt>0</asrwt>
<pdfrwt beam="1">  1        4 0.10897877E-01 0.12499766E+03</pdfrwt>
<pdfrwt beam="2">  1       -4 0.22401746E-01 0.12499766E+03</pdfrwt>
<totfact> 0.19394979E+03</totfact>
</mgrwt>
</event>
<event>
 5    1  0.1433395E-002  0.1250007E+03  0.7818608E-02  0.1235068E+00
         -4   -1    0    0    0  501 -0.00000000000E+00  0.00000000000E+00  0.85726159606E+01  0.86661781893E+01  0.12700000000E+01 0. -1.
          4   -1    0    0  501    0  0.00000000000E+00 -0.00000000000E+00 -0.45310333304E+03  0.45310511287E+03  0.12700000000E+01 0. -1.
         25    2    1    2    0    0  0.00000000000E+00  0.00000000000E+00 -0.44453071708E+03  0.46177129106E+03  0.12500066729E+03 0.  0.
    9000005    1    3    3    0    0  0.56668930188E+02 -0.48579744255E+01 -0.12662151339E+03  0.13881273435E+03  0.10000000000E+01 0.  0.
    9000005    1    3    3    0    0 -0.56668930188E+02  0.48579744255E+01 -0.31790920369E+03  0.32295855671E+03  0.10000000000E+01 0.  0.
<mgrwt>
<rscale>  0 0.12500067E+03</rscale>
<asrwt>0</asrwt>
<pdfrwt beam="2">  1        4 0.11328767E+00 0.12500067E+03</pdfrwt>
<pdfrwt beam="1">  1       -4 0.21550733E-02 0.12500067E+03</pdfrwt>
<totfact> 0.93940018E+02</totfact>
</mgrwt>
</event>
<event>
 5    1  0.1433395E-002  0.1250023E+03  0.7818608E-02  0.1235066E+00
          4   -1    0    0  501    0  0.00000000000E+00  0.00000000000E+00  0.61297637184E+02  0.61310792071E+02  0.12700000000E+01 0.  1.
         -4   -1    0    0    0  501 -0.00000000000E+00 -0.00000000000E+00 -0.63701991302E+02  0.63714649774E+02  0.12700000000E+01 0.  1.
         25    2    1    2    0    0  0.00000000000E+00  0.00000000000E+00 -0.24043541174E+01  0.12502544184E+03  0.12500232074E+03 0.  0.
    9000005    1    3    3    0    0  0.61772253697E+02 -0.65467668634E+01 -0.80389051068E+01  0.62644197484E+02  0.10000000000E+01 0.  0.
    9000005    1    3    3    0    0 -0.61772253697E+02  0.65467668634E+01  0.56345509894E+01  0.62381244361E+02  0.10000000000E+01 0.  0.
<mgrwt>
<rscale>  0 0.12500232E+03</rscale>
<asrwt>0</asrwt>
<pdfrwt beam="1">  1        4 0.15327636E-01 0.12500232E+03</pdfrwt>
<pdfrwt beam="2">  1       -4 0.15928724E-01 0.12500232E+03</pdfrwt>
<totfact> 0.19832599E+03</totfact>
</mgrwt>
</event>
<event>
 5    1  0.1433395E-002  0.1249994E+03  0.7818608E-02  0.1235070E+00
         -4   -1    0    0    0  501 -0.00000000000E+00  0.00000000000E+00  0.83913647031E+02  0.83923256955E+02  0.12700000000E+01 0.  1.
          4   -1    0    0  501    0  0.00000000000E+00 -0.00000000000E+00 -0.46529468660E+02  0.46546797460E+02  0.12700000000E+01 0.  1.
         25    2    1    2    0    0  0.00000000000E+00  0.00000000000E+00  0.37384178370E+02  0.13047005442E+03  0.12499943323E+03 0.  0.
    9000005    1    3    3    0    0  0.29785853007E+02 -0.21355759137E+02  0.71522993823E+02  0.80372906710E+02  0.10000000000E+01 0.  0.
    9000005    1    3    3    0    0 -0.29785853007E+02  0.21355759137E+02 -0.34138815452E+02  0.50097147705E+02  0.10000000000E+01 0.  0.
<mgrwt>
<rscale>  0 0.12499943E+03</rscale>
<asrwt>0</asrwt>
<pdfrwt beam="2">  1        4 0.11635735E-01 0.12499943E+03</pdfrwt>
<pdfrwt beam="1">  1       -4 0.20981779E-01 0.12499943E+03</pdfrwt>
<totfact> 0.19539405E+03</totfact>
</mgrwt>
</event>
<event>
 5    1  0.1433395E-002  0.1250003E+03  0.7818608E-02  0.1235069E+00
         -4   -1    0    0    0  501 -0.00000000000E+00  0.00000000000E+00  0.64892837712E+02  0.64905263934E+02  0.12700000000E+01 0.  1.
          4   -1    0    0  501    0  0.00000000000E+00 -0.00000000000E+00 -0.60170767731E+02  0.60184168927E+02  0.12700000000E+01 0.  1.
         25    2    1    2    0    0  0.00000000000E+00  0.00000000000E+00  0.47220699810E+01  0.12508943286E+03  0.12500027307E+03 0.  0.
    9000005    1    3    3    0    0 -0.37346358508E+02  0.24843964906E+02  0.45904069215E+02  0.64188446441E+02  0.10000000000E+01 0.  0.
    9000005    1    3    3    0    0  0.37346358508E+02 -0.24843964906E+02 -0.41181999234E+02  0.60900986420E+02  0.10000000000E+01 0.  0.
<mgrwt>
<rscale>  0 0.12500027E+03</rscale>
<asrwt>0</asrwt>
<pdfrwt beam="2">  1        4 0.15045920E-01 0.12500027E+03</pdfrwt>
<pdfrwt beam="1">  1       -4 0.16226438E-01 0.12500027E+03</pdfrwt>
<totfact> 0.19830079E+03</totfact>
</mgrwt>
</event>
<event>
 5    1  0.1433395E-002  0.1249996E+03  0.7818608E-02  0.1235070E+00
         -4   -1    0    0    0  501 -0.00000000000E+00  0.00000000000E+00  0.23004500144E+03  0.23004850703E+03  0.12700000000E+01 0. -1.
          4   -1    0    0  501    0  0.00000000000E+00 -0.00000000000E+00 -0.16952881336E+02  0.17000384866E+02  0.12700000000E+01 0. -1.
         25    2    1    2    0    0  0.00000000000E+00  0.00000000000E+00  0.21309212011E+03  0.24704889190E+03  0.12499961335E+03 0.  0.
    9000005    1    3    3    0    0 -0.60208006719E+02  0.41508208898E+01  0.74494743106E+02  0.95878569751E+02  0.10000000000E+01 0.  0.
    9000005    1    3    3    0    0  0.60208006719E+02 -0.41508208898E+01  0.13859737700E+03  0.15117032215E+03  0.10000000000E+01 0.  0.
<mgrwt>
<rscale>  0 0.12499961E+03</rscale>
<asrwt>0</asrwt>
<pdfrwt beam="2">  1        4 0.42445965E-02 0.12499961E+03</pdfrwt>
<pdfrwt beam="1">  1       -4 0.57517626E-01 0.12499961E+03</pdfrwt>
<totfact> 0.14596788E+03</totfact>
</mgrwt>
</event>
<event>
 5    1  0.1433395E-002  0.1249985E+03  0.7818608E-02  0.1235072E+00
         -4   -1    0    0    0  501 -0.00000000000E+00  0.00000000000E+00  0.73611059949E+01  0.74698581960E+01  0.12700000000E+01 0. -1.
          4   -1    0    0  501    0  0.00000000000E+00 -0.00000000000E+00 -0.52664722533E+03  0.52664875662E+03  0.12700000000E+01 0. -1.
         25    2    1    2    0    0  0.00000000000E+00  0.00000000000E+00 -0.51928611933E+03  0.53411861481E+03  0.12499848382E+03 0.  0.
    9000005    1    3    3    0    0 -0.58748329579E+02 -0.18636715330E+02 -0.21555408706E+03  0.22419468735E+03  0.10000000000E+01 0.  0.
    9000005    1    3    3    0    0  0.58748329579E+02  0.18636715330E+02 -0.30373203227E+03  0.30992392746E+03  0.10000000000E+01 0.  0.
<mgrwt>
<rscale>  0 0.12499848E+03</rscale>
<asrwt>0</asrwt>
<pdfrwt beam="2">  1        4 0.13167547E+00 0.12499848E+03</pdfrwt>
<pdfrwt beam="1">  1       -4 0.18540637E-02 0.12499848E+03</pdfrwt>
<totfact> 0.82427091E+02</totfact>
</mgrwt>
</event>
<event>
 5    1  0.1433395E-002  0.1250014E+03  0.7818608E-02  0.1235067E+00
         -4   -1    0    0    0  501 -0.00000000000E+00  0.00000000000E+00  0.82996318323E+02  0.83006034450E+02  0.12700000000E+01 0.  1.
          4   -1    0    0  501    0  0.00000000000E+00 -0.00000000000E+00 -0.47045333937E+02  0.47062472792E+02  0.12700000000E+01 0.  1.
         25    2    1    2    0    0  0.00000000000E+00  0.00000000000E+00  0.35950984386E+02  0.13006850724E+03  0.12500137318E+03 0.  0.
    9000005    1    3    3    0    0 -0.14051620916E+02  0.18984642947E+02  0.78178167447E+02  0.81674295734E+02  0.10000000000E+01 0.  0.
    9000005    1    3    3    0    0  0.14051620916E+02 -0.18984642947E+02 -0.42227183061E+02  0.48394211508E+02  0.10000000000E+01 0.  0.
<mgrwt>
<rscale>  0 0.12500137E+03</rscale>
<asrwt>0</asrwt>
<pdfrwt beam="2">  1        4 0.11764690E-01 0.12500137E+03</pdfrwt>
<pdfrwt beam="1">  1       -4 0.20752436E-01 0.12500137E+03</pdfrwt>
<totfact> 0.19560073E+03</totfact>
</mgrwt>
</event>
<event>
 5    1  0.1433395E-002  0.1250016E+03  0.7818608E-02  0.1235067E+00
          4   -1    0    0  501    0  0.00000000000E+00  0.00000000000E+00  0.59305868542E+01  0.60650441413E+01  0.12700000000E+01 0.  1.
         -4   -1    0    0    0  501 -0.00000000000E+00 -0.00000000000E+00 -0.65116023695E+03  0.65116147543E+03  0.12700000000E+01 0.  1.
         25    2    1    2    0    0  0.00000000000E+00  0.00000000000E+00 -0.64522965010E+03  0.65722651957E+03  0.12500158665E+03 0.  0.
    9000005    1    3    3    0    0 -0.40303612416E+02 -0.36143609159E+02 -0.15847482457E+03  0.16746943506E+03  0.10000000000E+01 0.  0.
    9000005    1    3    3    0    0  0.40303612416E+02  0.36143609159E+02 -0.48675482553E+03  0.48975708451E+03  0.10000000000E+01 0.  0.
<mgrwt>
<rscale>  0 0.12500159E+03</rscale>
<asrwt>0</asrwt>
<pdfrwt beam="1">  1        4 0.14996109E-02 0.12500159E+03</pdfrwt>
<pdfrwt beam="2">  1       -4 0.16280678E+00 0.12500159E+03</pdfrwt>
<totfact> 0.66687792E+02</totfact>
</mgrwt>
</event>
<event>
 5    1  0.1433395E-002  0.1250008E+03  0.7818608E-02  0.1235068E+00
          4   -1    0    0  501    0  0.00000000000E+00  0.00000000000E+00  0.98692754623E+02  0.98700925604E+02  0.12700000000E+01 0.  1.
         -4   -1    0    0    0  501 -0.00000000000E+00 -0.00000000000E+00 -0.39560428840E+02  0.39580808860E+02  0.12700000000E+01 0.  1.
         25    2    1    2    0    0  0.00000000000E+00  0.00000000000E+00  0.59132325783E+02  0.13828173446E+03  0.12500082453E+03 0.  0.
    9000005    1    3    3    0    0  0.52745326333E+02 -0.70670665724E+01  0.65808000463E+02  0.84638677948E+02  0.10000000000E+01 0.  0.
    9000005    1    3    3    0    0 -0.52745326333E+02  0.70670665724E+01 -0.66756746801E+01  0.53643056515E+02  0.10000000000E+01 0.  0.
<mgrwt>
<rscale>  0 0.12500082E+03</rscale>
<asrwt>0</asrwt>
<pdfrwt beam="1">  1        4 0.24676757E-01 0.12500082E+03</pdfrwt>
<pdfrwt beam="2">  1       -4 0.98936762E-02 0.12500082E+03</pdfrwt>
<totfact> 0.19128226E+03</totfact>
</mgrwt>
</event>
<event>
 5    1  0.1433395E-002  0.1250031E+03  0.7818608E-02  0.1235064E+00
          4   -1    0    0  501    0  0.00000000000E+00  0.00000000000E+00  0.31167269099E+02  0.31193133268E+02  0.12700000000E+01 0.  1.
         -4   -1    0    0    0  501 -0.00000000000E+00 -0.00000000000E+00 -0.12525696935E+03  0.12526340755E+03  0.12700000000E+01 0.  1.
         25    2    1    2    0    0  0.00000000000E+00  0.00000000000E+00 -0.94089700251E+02  0.15645654082E+03  0.12500310984E+03 0.  0.
    9000005    1    3    3    0    0  0.53394101447E+02  0.25262942292E+02 -0.72582156813E+02  0.93585873989E+02  0.10000000000E+01 0.  0.
    9000005    1    3    3    0    0 -0.53394101447E+02 -0.25262942292E+02 -0.21507543438E+02  0.62870666828E+02  0.10000000000E+01 0.  0.
<mgrwt>
<rscale>  0 0.12500311E+03</rscale>
<asrwt>0</asrwt>
<pdfrwt beam="1">  1        4 0.77958554E-02 0.12500311E+03</pdfrwt>
<pdfrwt beam="2">  1       -4 0.31318279E-01 0.12500311E+03</pdfrwt>
<totfact> 0.18224483E+03</totfact>
</mgrwt>
</event>
<event>
 5    1  0.1433395E-002  0.1249990E+03  0.7818608E-02  0.1235071E+00
         -4   -1    0    0    0  501 -0.00000000000E+00  0.00000000000E+00  0.20931825698E+02  0.20970317762E+02  0.12700000000E+01 0.  1.
          4   -1    0    0  501    0  0.00000000000E+00 -0.00000000000E+00 -0.18640268658E+03  0.18640701292E+03  0.12700000000E+01 0.  1.
         25    2    1    2    0    0  0.00000000000E+00  0.00000000000E+00 -0.16547086089E+03  0.20737733068E+03  0.12499900591E+03 0.  0.
    9000005    1    3    3    0    0 -0.58267178629E+02 -0.12902148323E+02 -0.51980258433E+02  0.79148447891E+02  0.10000000000E+01 0.  0.
    9000005    1    3    3    0    0  0.58267178629E+02  0.12902148323E+02 -0.11349060245E+03  0.12822888279E+03  0.10000000000E+01 0.  0.
<mgrwt>
<rscale>  0 0.12499901E+03</rscale>
<asrwt>0</asrwt>
<pdfrwt beam="2">  1        4 0.46606019E-01 0.12499901E+03</pdfrwt>
<pdfrwt beam="1">  1       -4 0.52383093E-02 0.12499901E+03</pdfrwt>
<totfact> 0.16031212E+03</totfact>
</mgrwt>
</event>
<event>
 5    1  0.1433395E-002  0.1249942E+03  0.7818608E-02  0.1235078E+00
          4   -1    0    0  501    0  0.00000000000E+00  0.00000000000E+00  0.18839501669E+03  0.18839929728E+03  0.12700000000E+01 0. -1.
         -4   -1    0    0    0  501 -0.00000000000E+00 -0.00000000000E+00 -0.20708453964E+02  0.20747360449E+02  0.12700000000E+01 0. -1.
         25    2    1    2    0    0  0.00000000000E+00  0.00000000000E+00  0.16768656273E+03  0.20914665773E+03  0.12499416434E+03 0.  0.
    9000005    1    3    3    0    0 -0.54617852793E+01  0.47525442527E+02  0.15111519746E+03  0.15850962649E+03  0.10000000000E+01 0.  0.
    9000005    1    3    3    0    0  0.54617852793E+01 -0.47525442527E+02  0.16571365268E+02  0.50637031238E+02  0.10000000000E+01 0.  0.
<mgrwt>
<rscale>  0 0.12499416E+03</rscale>
<asrwt>0</asrwt>
<pdfrwt beam="1">  1        4 0.47104153E-01 0.12499416E+03</pdfrwt>
<pdfrwt beam="2">  1       -4 0.51825119E-02 0.12499416E+03</pdfrwt>
<totfact> 0.15964383E+03</totfact>
</mgrwt>
</event>
<event>
 5    1  0.1433395E-002  0.1250072E+03  0.7818608E-02  0.1235058E+00
          4   -1    0    0  501    0  0.00000000000E+00  0.00000000000E+00  0.23339327466E+02  0.23373855192E+02  0.12700000000E+01 0. -1.
         -4   -1    0    0    0  501 -0.00000000000E+00 -0.00000000000E+00 -0.16722621297E+03  0.16723103541E+03  0.12700000000E+01 0. -1.
         25    2    1    2    0    0  0.00000000000E+00  0.00000000000E+00 -0.14388688550E+03  0.19060489060E+03  0.12500715380E+03 0.  0.
    9000005    1    3    3    0    0  0.83609920239E+01 -0.61921906998E+02 -0.73791081818E+02  0.96697220796E+02  0.10000000000E+01 0.  0.
    9000005    1    3    3    0    0 -0.83609920239E+01  0.61921906998E+02 -0.70095803685E+02  0.93907669804E+02  0.10000000000E+01 0.  0.
<mgrwt>
<rscale>  0 0.12500715E+03</rscale>
<asrwt>0</asrwt>
<pdfrwt beam="1">  1        4 0.58397511E-02 0.12500715E+03</pdfrwt>
<pdfrwt beam="2">  1       -4 0.41811469E-01 0.12500715E+03</pdfrwt>
<totfact> 0.16702514E+03</totfact>
</mgrwt>
</event>
<event>
 5    1  0.1433395E-002  0.1249999E+03  0.7818608E-02  0.1235069E+00
         -4   -1    0    0    0  501 -0.00000000000E+00  0.00000000000E+00  0.10558655656E+03  0.10559419409E+03  0.12700000000E+01 0.  1.
          4   -1    0    0  501    0  0.00000000000E+00 -0.00000000000E+00 -0.36975765157E+02  0.36997568960E+02  0.12700000000E+01 0.  1.
         25    2    1    2    0    0  0.00000000000E+00  0.00000000000E+00  0.68610791402E+02  0.14259176305E+03  0.12499988078E+03 0.  0.
    9000005    1    3    3    0    0 -0.40410948456E+02 -0.18346093244E+02  0.84492800603E+02  0.95444524443E+02  0.10000000000E+01 0.  0.
    9000005    1    3    3    0    0  0.40410948456E+02  0.18346093244E+02 -0.15882009200E+02  0.47147238611E+02  0.10000000000E+01 0.  0.
<mgrwt>
<rscale>  0 0.12499988E+03</rscale>
<asrwt>0</asrwt>
<pdfrwt beam="2">  1        4 0.92476215E-02 0.12499988E+03</pdfrwt>
<pdfrwt beam="1">  1       -4 0.26400319E-01 0.12499988E+03</pdfrwt>
<totfact> 0.18908580E+03</totfact>
</mgrwt>
</event>
<event>
 5    1  0.1433395E-002  0.1250034E+03  0.7818608E-02  0.1235064E+00
         -4   -1    0    0    0  501 -0.00000000000E+00  0.00000000000E+00  0.44177456229E+02  0.44195707245E+02  0.12700000000E+01 0.  1.
          4   -1    0    0  501    0  0.00000000000E+00 -0.00000000000E+00 -0.88385599301E+02  0.88394723054E+02  0.12700000000E+01 0.  1.
         25    2    1    2    0    0  0.00000000000E+00  0.00000000000E+00 -0.44208143072E+02  0.13259043030E+03  0.12500344912E+03 0.  0.
    9000005    1    3    3    0    0  0.64580106308E+01  0.11505099273E+02 -0.86896706622E+02  0.87898298233E+02  0.10000000000E+01 0.  0.
    9000005    1    3    3    0    0 -0.64580106308E+01 -0.11505099273E+02  0.42688563550E+02  0.44692132066E+02  0.10000000000E+01 0.  0.
<mgrwt>
<rscale>  0 0.12500345E+03</rscale>
<asrwt>0</asrwt>
<pdfrwt beam="2">  1        4 0.22099821E-01 0.12500345E+03</pdfrwt>
<pdfrwt beam="1">  1       -4 0.11047786E-01 0.12500345E+03</pdfrwt>
<totfact> 0.19424541E+03</totfact>
</mgrwt>
</event>
<event>
 5    1  0.1433395E-002  0.1249982E+03  0.7818608E-02  0.1235072E+00
         -4   -1    0    0    0  501 -0.00000000000E+00  0.00000000000E+00  0.86704840333E+01  0.87630013906E+01  0.12700000000E+01 0.  1.
          4   -1    0    0  501    0  0.00000000000E+00 -0.00000000000E+00 -0.44802569908E+03  0.44802749909E+03  0.12700000000E+01 0.  1.
         25    2    1    2    0    0  0.00000000000E+00  0.00000000000E+00 -0.43935521505E+03  0.45679050048E+03  0.12499822533E+03 0.  0.
    9000005    1    3    3    0    0 -0.54322015697E+02  0.10213446269E+02 -0.32621649831E+03  0.33086764671E+03  0.10000000000E+01 0.  0.
    9000005    1    3    3    0    0  0.54322015697E+02 -0.10213446269E+02 -0.11313871674E+03  0.12592285376E+03  0.10000000000E+01 0.  0.
<mgrwt>
<rscale>  0 0.12499823E+03</rscale>
<asrwt>0</asrwt>
<pdfrwt beam="2">  1        4 0.11201814E+00 0.12499823E+03</pdfrwt>
<pdfrwt beam="1">  1       -4 0.21794122E-02 0.12499823E+03</pdfrwt>
<totfact> 0.94814362E+02</totfact>
</mgrwt>
</event>
<event>
 5    1  0.1433395E-002  0.1249966E+03  0.7818608E-02  0.1235075E+00
          4   -1    0    0  501    0  0.00000000000E+00  0.00000000000E+00  0.38076253613E+01  0.40138399186E+01  0.12700000000E+01 0. -1.
         -4   -1    0    0    0  501 -0.00000000000E+00 -0.00000000000E+00 -0.99859275481E+03  0.99859356239E+03  0.12700000000E+01 0. -1.
         25    2    1    2    0    0  0.00000000000E+00  0.00000000000E+00 -0.99478512945E+03  0.10026074023E+04  0.12499659757E+03 0.  0.
    9000005    1    3    3    0    0  0.22134309354E+02 -0.26657582717E+02 -0.80259283396E+02  0.87424864530E+02  0.10000000000E+01 0.  0.
    9000005    1    3    3    0    0 -0.22134309354E+02  0.26657582717E+02 -0.91452584605E+03  0.91518253778E+03  0.10000000000E+01 0.  0.
<mgrwt>
<rscale>  0 0.12499660E+03</rscale>
<asrwt>0</asrwt>
<pdfrwt beam="1">  1        4 0.97778753E-03 0.12499660E+03</pdfrwt>
<pdfrwt beam="2">  1       -4 0.24967319E+00 0.12499660E+03</pdfrwt>
<totfact> 0.36937236E+02</totfact>
</mgrwt>
</event>
<event>
 5    1  0.1433395E-002  0.1250008E+03  0.7818608E-02  0.1235068E+00
          4   -1    0    0  501    0  0.00000000000E+00  0.00000000000E+00  0.13465905319E+04  0.13465911308E+04  0.12700000000E+01 0. -1.
         -4   -1    0    0    0  501 -0.00000000000E+00 -0.00000000000E+00 -0.27612512955E+01  0.30393105660E+01  0.12700000000E+01 0. -1.
         25    2    1    2    0    0  0.00000000000E+00  0.00000000000E+00  0.13438292806E+04  0.13496304413E+04  0.12500077122E+03 0.  0.
    9000005    1    3    3    0    0  0.14539388575E+02 -0.60531422798E+02  0.73090530986E+03  0.73355232871E+03  0.10000000000E+01 0.  0.
    9000005    1    3    3    0    0 -0.14539388575E+02  0.60531422798E+02  0.61292397072E+03  0.61607811262E+03  0.10000000000E+01 0.  0.
<mgrwt>
<rscale>  0 0.12500077E+03</rscale>
<asrwt>0</asrwt>
<pdfrwt beam="1">  1        4 0.33668261E+00 0.12500077E+03</pdfrwt>
<pdfrwt beam="2">  1       -4 0.72514478E-03 0.12500077E+03</pdfrwt>
<totfact> 0.18137155E+02</totfact>
</mgrwt>
</event>
<event>
 5    1  0.1433395E-002  0.1249952E+03  0.7818608E-02  0.1235077E+00
         -4   -1    0    0    0  501 -0.00000000000E+00  0.00000000000E+00  0.33023383065E+02  0.33047794617E+02  0.12700000000E+01 0.  1.
          4   -1    0    0  501    0  0.00000000000E+00 -0.00000000000E+00 -0.11820675357E+03  0.11821357574E+03  0.12700000000E+01 0.  1.
         25    2    1    2    0    0  0.00000000000E+00  0.00000000000E+00 -0.85183370503E+02  0.15126137036E+03  0.12499518211E+03 0.  0.
    9000005    1    3    3    0    0  0.25738612776E+02  0.53850356061E+02 -0.20192307782E+02  0.63016397303E+02  0.10000000000E+01 0.  0.
    9000005    1    3    3    0    0 -0.25738612776E+02 -0.53850356061E+02 -0.64991062721E+02  0.88244973053E+02  0.10000000000E+01 0.  0.
<mgrwt>
<rscale>  0 0.12499518E+03</rscale>
<asrwt>0</asrwt>
<pdfrwt beam="2">  1        4 0.29555592E-01 0.12499518E+03</pdfrwt>
<pdfrwt beam="1">  1       -4 0.82597503E-02 0.12499518E+03</pdfrwt>
<totfact> 0.18479004E+03</totfact>
</mgrwt>
</event>
<event>
 5    1  0.1433395E-002  0.1249992E+03  0.7818608E-02  0.1235071E+00
         -4   -1    0    0    0  501 -0.00000000000E+00  0.00000000000E+00  0.28632626611E+03  0.28632908264E+03  0.12700000000E+01 0. -1.
          4   -1    0    0  501    0  0.00000000000E+00 -0.00000000000E+00 -0.13610025467E+02  0.13669151152E+02  0.12700000000E+01 0. -1.
         25    2    1    2    0    0  0.00000000000E+00  0.00000000000E+00  0.27271624064E+03  0.29999823379E+03  0.12499916946E+03 0.  0.
    9000005    1    3    3    0    0  0.55600942367E+02  0.12718032214E+02  0.75076483328E+02  0.94290463380E+02  0.10000000000E+01 0.  0.
    9000005    1    3    3    0    0 -0.55600942367E+02 -0.12718032214E+02  0.19763975731E+03  0.20570777041E+03  0.10000000000E+01 0.  0.
<mgrwt>
<rscale>  0 0.12499917E+03</rscale>
<asrwt>0</asrwt>
<pdfrwt beam="2">  1        4 0.34102492E-02 0.12499917E+03</pdfrwt>
<pdfrwt beam="1">  1       -4 0.71589307E-01 0.12499917E+03</pdfrwt>
<totfact> 0.12971353E+03</totfact>
</mgrwt>
</event>
<event>
 5    1  0.1433395E-002  0.1249996E+03  0.7818608E-02  0.1235070E+00
          4   -1    0    0  501    0  0.00000000000E+00  0.00000000000E+00  0.13987353607E+02  0.14044890919E+02  0.12700000000E+01 0. -1.
         -4   -1    0    0    0  501 -0.00000000000E+00 -0.00000000000E+00 -0.27863600277E+03  0.27863889704E+03  0.12700000000E+01 0. -1.
         25    2    1    2    0    0  0.00000000000E+00  0.00000000000E+00 -0.26464864917E+03  0.29268378795E+03  0.12499956890E+03 0.  0.
    9000005    1    3    3    0    0  0.30263143717E+02  0.45918306930E+02 -0.62830355607E+02  0.83504505056E+02  0.10000000000E+01 0.  0.
    9000005    1    3    3    0    0 -0.30263143717E+02 -0.45918306930E+02 -0.20181829356E+03  0.20917928290E+03  0.10000000000E+01 0.  0.
<mgrwt>
<rscale>  0 0.12499957E+03</rscale>
<asrwt>0</asrwt>
<pdfrwt beam="1">  1        4 0.35043933E-02 0.12499957E+03</pdfrwt>
<pdfrwt beam="2">  1       -4 0.69666537E-01 0.12499957E+03</pdfrwt>
<totfact> 0.13178744E+03</totfact>
</mgrwt>
</event>
<event>
 4    1  0.1433395E-002  0.1248372E+03  0.7818608E-02  0.1235324E+00
          4   -1    0    0  501    0  0.00000000000E+00  0.00000000000E+00  0.10157164397E+02  0.10236253640E+02  0.12700000000E+01 0. -1.
         -4   -1    0    0    0  501 -0.00000000000E+00 -0.00000000000E+00 -0.38201200236E+03  0.38201411341E+03  0.12700000000E+01 0. -1.
    9000005    1    1    2    0    0  0.31371004190E+02  0.31865192748E+02 -0.32272775092E+03  0.32581241786E+03  0.10000000000E+01 0.  0.
    9000005    1    1    2    0    0 -0.31371004190E+02 -0.31865192748E+02 -0.49127087041E+02  0.66437949200E+02  0.10000000000E+01 0.  0.
<mgrwt>
<rscale>  0 0.12483721E+03</rscale>
<asrwt>0</asrwt>
<pdfrwt beam="1">  1        4 0.25494424E-02 0.12483721E+03</pdfrwt>
<pdfrwt beam="2">  1       -4 0.95513103E-01 0.12483721E+03</pdfrwt>
<totfact> 0.10770482E+03</totfact>
</mgrwt>
</event>
<event>
 5    1  0.1433395E-002  0.1250034E+03  0.7818608E-02  0.1235064E+00
         -4   -1    0    0    0  501 -0.00000000000E+00  0.00000000000E+00  0.52809521391E+02  0.52824790104E+02  0.12700000000E+01 0. -1.
          4   -1    0    0  501    0  0.00000000000E+00 -0.00000000000E+00 -0.73941326579E+02  0.73952232395E+02  0.12700000000E+01 0. -1.
         25    2    1    2    0    0  0.00000000000E+00  0.00000000000E+00 -0.21131805188E+02  0.12677702250E+03  0.12500344093E+03 0.  0.
    9000005    1    3    3    0    0  0.18624815519E+02 -0.53161400104E+02 -0.38013645465E+02  0.67963633332E+02  0.10000000000E+01 0.  0.
    9000005    1    3    3    0    0 -0.18624815519E+02  0.53161400104E+02  0.16881840277E+02  0.58813389167E+02  0.10000000000E+01 0.  0.
<mgrwt>
<rscale>  0 0.12500344E+03</rscale>
<asrwt>0</asrwt>
<pdfrwt beam="2">  1        4 0.18488603E-01 0.12500344E+03</pdfrwt>
<pdfrwt beam="1">  1       -4 0.13205652E-01 0.12500344E+03</pdfrwt>
<totfact> 0.19737401E+03</totfact>
</mgrwt>
</event>
<event>
 5    1  0.1433395E-002  0.1249977E+03  0.7818608E-02  0.1235073E+00
         -4   -1    0    0    0  501 -0.00000000000E+00  0.00000000000E+00  0.77953211909E+03  0.77953315362E+03  0.12700000000E+01 0. -1.
          4   -1    0    0  501    0  0.00000000000E+00 -0.00000000000E+00 -0.49293085483E+01  0.50902831713E+01  0.12700000000E+01 0. -1.
         25    2    1    2    0    0  0.00000000000E+00  0.00000000000E+00  0.77460281054E+03  0.78462343679E+03  0.12499769383E+03 0.  0.
    9000005    1    3    3    0    0 -0.24044590738E+02 -0.22018566550E+02  0.52657833623E+02  0.61941965246E+02  0.10000000000E+01 0.  0.
    9000005    1    3    3    0    0  0.24044590738E+02  0.22018566550E+02  0.72194497692E+03  0.72268147154E+03  0.10000000000E+01 0.  0.
<mgrwt>
<rscale>  0 0.12499769E+03</rscale>
<asrwt>0</asrwt>
<pdfrwt beam="2">  1        4 0.12525780E-02 0.12499769E+03</pdfrwt>
<pdfrwt beam="1">  1       -4 0.19490332E+00 0.12499769E+03</pdfrwt>
<totfact> 0.53856328E+02</totfact>
</mgrwt>
</event>
<event>
 5    1  0.1433395E-002  0.1249987E+03  0.7818608E-02  0.1235071E+00
          4   -1    0    0  501    0  0.00000000000E+00  0.00000000000E+00  0.25099767494E+02  0.25131876735E+02  0.12700000000E+01 0. -1.
         -4   -1    0    0    0  501 -0.00000000000E+00 -0.00000000000E+00 -0.15549156788E+03  0.15549675425E+03  0.12700000000E+01 0. -1.
         25    2    1    2    0    0  0.00000000000E+00  0.00000000000E+00 -0.13039180039E+03  0.18062863099E+03  0.12499872289E+03 0.  0.
    9000005    1    3    3    0    0  0.47501382617E+02 -0.32064243529E+01 -0.67027172694E+01  0.48089384758E+02  0.10000000000E+01 0.  0.
    9000005    1    3    3    0    0 -0.47501382617E+02  0.32064243529E+01 -0.12368908312E+03  0.13253924623E+03  0.10000000000E+01 0.  0.
<mgrwt>
<rscale>  0 0.12499872E+03</rscale>
<asrwt>0</asrwt>
<pdfrwt beam="1">  1        4 0.62796043E-02 0.12499872E+03</pdfrwt>
<pdfrwt beam="2">  1       -4 0.38877551E-01 0.12499872E+03</pdfrwt>
<totfact> 0.17128546E+03</totfact>
</mgrwt>
</event>
<event>
 5    1  0.1433395E-002  0.1249985E+03  0.7818608E-02  0.1235072E+00
          4   -1    0    0  501    0  0.00000000000E+00  0.00000000000E+00  0.18306514253E+04  0.18306518658E+04  0.12700000000E+01 0.  1.
         -4   -1    0    0    0  501 -0.00000000000E+00 -0.00000000000E+00 -0.19442992367E+01  0.23223263169E+01  0.12700000000E+01 0.  1.
         25    2    1    2    0    0  0.00000000000E+00  0.00000000000E+00  0.18287071261E+04  0.18329741921E+04  0.12499854458E+03 0.  0.
    9000005    1    3    3    0    0 -0.58951243453E+02  0.18181721572E+02  0.76820235969E+03  0.77067612493E+03  0.10000000000E+01 0.  0.
    9000005    1    3    3    0    0  0.58951243453E+02 -0.18181721572E+02  0.10605047664E+04  0.10622980672E+04  0.10000000000E+01 0.  0.
<mgrwt>
<rscale>  0 0.12499854E+03</rscale>
<asrwt>0</asrwt>
<pdfrwt beam="1">  1        4 0.45771059E+00 0.12499854E+03</pdfrwt>
<pdfrwt beam="2">  1       -4 0.53338277E-03 0.12499854E+03</pdfrwt>
<totfact> 0.46154127E+01</totfact>
</mgrwt>
</event>
<event>
 5    1  0.1433395E-002  0.1250075E+03  0.7818608E-02  0.1235058E+00
          4   -1    0    0  501    0  0.00000000000E+00  0.00000000000E+00  0.17711734182E+03  0.17712189496E+03  0.12700000000E+01 0.  1.
         -4   -1    0    0    0  501 -0.00000000000E+00 -0.00000000000E+00 -0.22034104775E+02  0.22070674508E+02  0.12700000000E+01 0.  1.
         25    2    1    2    0    0  0.00000000000E+00  0.00000000000E+00  0.15508323705E+03  0.19919256947E+03  0.12500747705E+03 0.  0.
    9000005    1    3    3    0    0  0.51202847362E+02  0.14075021964E+02  0.25033317973E+02  0.58715456483E+02  0.10000000000E+01 0.  0.
    9000005    1    3    3    0    0 -0.51202847362E+02 -0.14075021964E+02  0.13004991908E+03  0.14047711299E+03  0.10000000000E+01 0.  0.
<mgrwt>
<rscale>  0 0.12500748E+03</rscale>
<asrwt>0</asrwt>
<pdfrwt beam="1">  1        4 0.44284475E-01 0.12500748E+03</pdfrwt>
<pdfrwt beam="2">  1       -4 0.55136666E-02 0.12500748E+03</pdfrwt>
<totfact> 0.16351595E+03</totfact>
</mgrwt>
</event>
<event>
 5    1  0.1433395E-002  0.1250093E+03  0.7818608E-02  0.1235055E+00
         -4   -1    0    0    0  501 -0.00000000000E+00  0.00000000000E+00  0.95732414062E+03  0.95732498302E+03  0.12700000000E+01 0. -1.
          4   -1    0    0  501    0  0.00000000000E+00 -0.00000000000E+00 -0.39813230628E+01  0.41789751531E+01  0.12700000000E+01 0. -1.
         25    2    1    2    0    0  0.00000000000E+00  0.00000000000E+00  0.95334281755E+03  0.96150395817E+03  0.12500933483E+03 0.  0.
    9000005    1    3    3    0    0  0.53627369736E+02  0.25077593651E+02  0.32263992629E+03  0.32802789901E+03  0.10000000000E+01 0.  0.
    9000005    1    3    3    0    0 -0.53627369736E+02 -0.25077593651E+02  0.63070289126E+03  0.63347605916E+03  0.10000000000E+01 0.  0.
<mgrwt>
<rscale>  0 0.12500933E+03</rscale>
<asrwt>0</asrwt>
<pdfrwt beam="2">  1        4 0.10201426E-02 0.12500933E+03</pdfrwt>
<pdfrwt beam="1">  1       -4 0.23935583E+00 0.12500933E+03</pdfrwt>
<totfact> 0.39751127E+02</totfact>
</mgrwt>
</event>
<event>
 5    1  0.1433395E-002  0.1249999E+03  0.7818608E-02  0.1235069E+00
         -4   -1    0    0    0  501 -0.00000000000E+00  0.00000000000E+00  0.29270942937E+03  0.29271218448E+03  0.12700000000E+01 0. -1.
          4   -1    0    0  501    0  0.00000000000E+00 -0.00000000000E+00 -0.13312095396E+02  0.13372538421E+02  0.12700000000E+01 0. -1.
         25    2    1    2    0    0  0.00000000000E+00  0.00000000000E+00  0.27939733398E+03  0.30608472290E+03  0.12499994944E+03 0.  0.
    9000005    1    3    3    0    0 -0.88432515571E+01  0.46005864263E+02  0.24097171670E+03  0.24548545964E+03  0.10000000000E+01 0.  0.
    9000005    1    3    3    0    0  0.88432515571E+01 -0.46005864263E+02  0.38425617271E+02  0.60599263257E+02  0.10000000000E+01 0.  0.
<mgrwt>
<rscale>  0 0.12499995E+03</rscale>
<asrwt>0</asrwt>
<pdfrwt beam="2">  1        4 0.33359236E-02 0.12499995E+03</pdfrwt>
<pdfrwt beam="1">  1       -4 0.73185257E-01 0.12499995E+03</pdfrwt>
<totfact> 0.12802233E+03</totfact>
</mgrwt>
</event>
<event>
 5    1  0.1433395E-002  0.1249861E+03  0.7818608E-02  0.1235091E+00
         -4   -1    0    0    0  501 -0.00000000000E+00  0.00000000000E+00  0.22935897031E+01  0.26217272410E+01  0.12700000000E+01 0.  1.
          4   -1    0    0  501    0  0.00000000000E+00 -0.00000000000E+00 -0.15887372040E+04  0.15887377116E+04  0.12700000000E+01 0.  1.
         25    2    1    2    0    0  0.00000000000E+00  0.00000000000E+00 -0.15864436143E+04  0.15913594389E+04  0.12498608826E+03 0.  0.
    9000005    1    3    3    0    0 -0.38916446575E+02  0.24960635517E+01 -0.17159633688E+03  0.17597449525E+03  0.10000000000E+01 0.  0.
    9000005    1    3    3    0    0  0.38916446575E+02 -0.24960635517E+01 -0.14148472775E+04  0.14153849436E+04  0.10000000000E+01 0.  0.
<mgrwt>
<rscale>  0 0.12498609E+03</rscale>
<asrwt>0</asrwt>
<pdfrwt beam="2">  1        4 0.39722186E+00 0.12498609E+03</pdfrwt>
<pdfrwt beam="1">  1       -4 0.61448352E-03 0.12498609E+03</pdfrwt>
<totfact> 0.97403440E+01</totfact>
</mgrwt>
</event>
<event>
 5    1  0.1433395E-002  0.1249907E+03  0.7818608E-02  0.1235084E+00
         -4   -1    0    0    0  501 -0.00000000000E+00  0.00000000000E+00  0.72961342167E+02  0.72972394444E+02  0.12700000000E+01 0. -1.
          4   -1    0    0  501    0  0.00000000000E+00 -0.00000000000E+00 -0.53508051986E+02  0.53523121427E+02  0.12700000000E+01 0. -1.
         25    2    1    2    0    0  0.00000000000E+00  0.00000000000E+00  0.19453290182E+02  0.12649551587E+03  0.12499073980E+03 0.  0.
    9000005    1    3    3    0    0 -0.21540362417E+01  0.25784863055E+02 -0.47836696164E+02  0.54395298830E+02  0.10000000000E+01 0.  0.
    9000005    1    3    3    0    0  0.21540362417E+01 -0.25784863055E+02  0.67289986346E+02  0.72100217041E+02  0.10000000000E+01 0.  0.
<mgrwt>
<rscale>  0 0.12499074E+03</rscale>
<asrwt>0</asrwt>
<pdfrwt beam="2">  1        4 0.13380278E-01 0.12499074E+03</pdfrwt>
<pdfrwt beam="1">  1       -4 0.18243601E-01 0.12499074E+03</pdfrwt>
<totfact> 0.19758446E+03</totfact>
</mgrwt>
</event>
<event>
 5    1  0.1433395E-002  0.1250028E+03  0.7818608E-02  0.1235065E+00
          4   -1    0    0  501    0  0.00000000000E+00  0.00000000000E+00  0.41624967693E+03  0.41625161435E+03  0.12700000000E+01 0. -1.
         -4   -1    0    0    0  501 -0.00000000000E+00 -0.00000000000E+00 -0.93398838609E+01  0.94258331480E+01  0.12700000000E+01 0. -1.
         25    2    1    2    0    0  0.00000000000E+00  0.00000000000E+00  0.40690979307E+03  0.42567744750E+03  0.12500283840E+03 0.  0.
    9000005    1    3    3    0    0 -0.87478539273E+01  0.53302117804E+02  0.31048165018E+03  0.31514678454E+03  0.10000000000E+01 0.  0.
    9000005    1    3    3    0    0  0.87478539273E+01 -0.53302117804E+02  0.96428142895E+02  0.11053066295E+03  0.10000000000E+01 0.  0.
<mgrwt>
<rscale>  0 0.12500284E+03</rscale>
<asrwt>0</asrwt>
<pdfrwt beam="1">  1        4 0.10407340E+00 0.12500284E+03</pdfrwt>
<pdfrwt beam="2">  1       -4 0.23459570E-02 0.12500284E+03</pdfrwt>
<totfact> 0.10054624E+03</totfact>
</mgrwt>
</event>
<event>
 5    1  0.1433395E-002  0.1249981E+03  0.7818608E-02  0.1235072E+00
          4   -1    0    0  501    0  0.00000000000E+00  0.00000000000E+00  0.14647113997E+03  0.14647664573E+03  0.12700000000E+01 0. -1.
         -4   -1    0    0    0  501 -0.00000000000E+00 -0.00000000000E+00 -0.26647127670E+02  0.26677374554E+02  0.12700000000E+01 0. -1.
         25    2    1    2    0    0  0.00000000000E+00  0.00000000000E+00  0.11982401230E+03  0.17315402029E+03  0.12499808325E+03 0.  0.
    9000005    1    3    3    0    0 -0.39015542729E+02 -0.46327360907E+02  0.81223906298E+02  0.10132502108E+03  0.10000000000E+01 0.  0.
    9000005    1    3    3    0    0  0.39015542729E+02  0.46327360907E+02  0.38600106005E+02  0.71828999204E+02  0.10000000000E+01 0.  0.
<mgrwt>
<rscale>  0 0.12499808E+03</rscale>
<asrwt>0</asrwt>
<pdfrwt beam="1">  1        4 0.36622253E-01 0.12499808E+03</pdfrwt>
<pdfrwt beam="2">  1       -4 0.66662511E-02 0.12499808E+03</pdfrwt>
<totfact> 0.17456495E+03</totfact>
</mgrwt>
</event>
<event>
 5    1  0.1433395E-002  0.1250032E+03  0.7818608E-02  0.1235064E+00
         -4   -1    0    0    0  501 -0.00000000000E+00  0.00000000000E+00  0.28430636365E+02  0.28458987756E+02  0.12700000000E+01 0. -1.
          4   -1    0    0  501    0  0.00000000000E+00 -0.00000000000E+00 -0.13730316334E+03  0.13730903671E+03  0.12700000000E+01 0. -1.
         25    2    1    2    0    0  0.00000000000E+00  0.00000000000E+00 -0.10887252697E+03  0.16576802447E+03  0.12500324318E+03 0.  0.
    9000005    1    3    3    0    0  0.47900559902E+02  0.30190367397E+02 -0.89510069449E+02  0.10591966038E+03  0.10000000000E+01 0.  0.
    9000005    1    3    3    0    0 -0.47900559902E+02 -0.30190367397E+02 -0.19362457524E+02  0.59848364087E+02  0.10000000000E+01 0.  0.
<mgrwt>
<rscale>  0 0.12500324E+03</rscale>
<asrwt>0</asrwt>
<pdfrwt beam="2">  1        4 0.34330067E-01 0.12500324E+03</pdfrwt>
<pdfrwt beam="1">  1       -4 0.71119376E-02 0.12500324E+03</pdfrwt>
<totfact> 0.17788294E+03</totfact>
</mgrwt>
</event>
<event>
 5    1  0.1433395E-002  0.1249987E+03  0.7818608E-02  0.1235071E+00
         -4   -1    0    0    0  501 -0.00000000000E+00  0.00000000000E+00  0.92326814341E+02  0.92335548660E+02  0.12700000000E+01 0. -1.
          4   -1    0    0  501    0  0.00000000000E+00 -0.00000000000E+00 -0.42287799855E+02  0.42306866069E+02  0.12700000000E+01 0. -1.
         25    2    1    2    0    0  0.00000000000E+00  0.00000000000E+00  0.50039014486E+02  0.13464241473E+03  0.12499870749E+03 0.  0.
    9000005    1    3    3    0    0  0.71999584774E+01 -0.35612006038E+02  0.79786171560E+02  0.87674896911E+02  0.10000000000E+01 0.  0.
    9000005    1    3    3    0    0 -0.71999584774E+01  0.35612006038E+02 -0.29747157074E+02  0.46967517819E+02  0.10000000000E+01 0.  0.
<mgrwt>
<rscale>  0 0.12499871E+03</rscale>
<asrwt>0</asrwt>
<pdfrwt beam="2">  1        4 0.10575425E-01 0.12499871E+03</pdfrwt>
<pdfrwt beam="1">  1       -4 0.23085178E-01 0.12499871E+03</pdfrwt>
<totfact> 0.19318466E+03</totfact>
</mgrwt>
</event>
<event>
 5    1  0.1433395E-002  0.1249991E+03  0.7818608E-02  0.1235071E+00
         -4   -1    0    0    0  501 -0.00000000000E+00  0.00000000000E+00  0.37466828508E+03  0.37467043751E+03  0.12700000000E+01 0.  1.
          4   -1    0    0  501    0  0.00000000000E+00 -0.00000000000E+00 -0.10384880310E+02  0.10462248279E+02  0.12700000000E+01 0.  1.
         25    2    1    2    0    0  0.00000000000E+00  0.00000000000E+00  0.36428340477E+03  0.38513268579E+03  0.12499914669E+03 0.  0.
    9000005    1    3    3    0    0  0.13177302846E+02  0.45263676637E+02  0.30853200872E+03  0.31211446961E+03  0.10000000000E+01 0.  0.
    9000005    1    3    3    0    0 -0.13177302846E+02 -0.45263676637E+02  0.55751396046E+02  0.73018216180E+02  0.10000000000E+01 0.  0.
<mgrwt>
<rscale>  0 0.12499915E+03</rscale>
<asrwt>0</asrwt>
<pdfrwt beam="2">  1        4 0.26061604E-02 0.12499915E+03</pdfrwt>
<pdfrwt beam="1">  1       -4 0.93677001E-01 0.12499915E+03</pdfrwt>
<totfact> 0.10882201E+03</totfact>
</mgrwt>
</event>
<event>
 5    1  0.1433395E-002  0.1250036E+03  0.7818608E-02  0.1235064E+00
         -4   -1    0    0    0  501 -0.00000000000E+00  0.00000000000E+00  0.24260213757E+02  0.24293432683E+02  0.12700000000E+01 0. -1.
          4   -1    0    0  501    0  0.00000000000E+00 -0.00000000000E+00 -0.16087810759E+03  0.16088312031E+03  0.12700000000E+01 0. -1.
         25    2    1    2    0    0  0.00000000000E+00  0.00000000000E+00 -0.13661789383E+03  0.18517655300E+03  0.12500362740E+03 0.  0.
    9000005    1    3    3    0    0  0.11196821323E+02 -0.46980881950E+02 -0.12705985404E+03  0.13593299300E+03  0.10000000000E+01 0.  0.
    9000005    1    3    3    0    0 -0.11196821323E+02  0.46980881950E+02 -0.95580397912E+01  0.49243559998E+02  0.10000000000E+01 0.  0.
<mgrwt>
<rscale>  0 0.12500363E+03</rscale>
<asrwt>0</asrwt>
<pdfrwt beam="2">  1        4 0.40224303E-01 0.12500363E+03</pdfrwt>
<pdfrwt beam="1">  1       -4 0.60698329E-02 0.12500363E+03</pdfrwt>
<totfact> 0.16931901E+03</totfact>
</mgrwt>
</event>
<event>
 5    1  0.1433395E-002  0.1249981E+03  0.7818608E-02  0.1235072E+00
          4   -1    0    0  501    0  0.00000000000E+00  0.00000000000E+00  0.20349212340E+02  0.20388804351E+02  0.12700000000E+01 0.  1.
         -4   -1    0    0    0  501 -0.00000000000E+00 -0.00000000000E+00 -0.19172650737E+03  0.19173071358E+03  0.12700000000E+01 0.  1.
         25    2    1    2    0    0  0.00000000000E+00  0.00000000000E+00 -0.17137729503E+03  0.21211951793E+03  0.12499805052E+03 0.  0.
    9000005    1    3    3    0    0  0.59959078443E+02 -0.59100010427E+01 -0.57541800153E+02  0.83319133246E+02  0.10000000000E+01 0.  0.
    9000005    1    3    3    0    0 -0.59959078443E+02  0.59100010427E+01 -0.11383549488E+03  0.12880038468E+03  0.10000000000E+01 0.  0.
<mgrwt>
<rscale>  0 0.12499805E+03</rscale>
<asrwt>0</asrwt>
<pdfrwt beam="1">  1        4 0.50927784E-02 0.12499805E+03</pdfrwt>
<pdfrwt beam="2">  1       -4 0.47937096E-01 0.12499805E+03</pdfrwt>
<totfact> 0.15848705E+03</totfact>
</mgrwt>
</event>
<event>
 5    1  0.1433395E-002  0.1249985E+03  0.7818608E-02  0.1235072E+00
          4   -1    0    0  501    0  0.00000000000E+00  0.00000000000E+00  0.54627142691E+01  0.56083996992E+01  0.12700000000E+01 0.  1.
         -4   -1    0    0    0  501 -0.00000000000E+00 -0.00000000000E+00 -0.70550251932E+03  0.70550366240E+03  0.12700000000E+01 0.  1.
         25    2    1    2    0    0  0.00000000000E+00  0.00000000000E+00 -0.70003980505E+03  0.71111206210E+03  0.12499854485E+03 0.  0.
    9000005    1    3    3    0    0  0.96634147076E+01  0.41049159197E+01 -0.70047695893E+03  0.70055635170E+03  0.10000000000E+01 0.  0.
    9000005    1    3    3    0    0 -0.96634147076E+01 -0.41049159197E+01  0.43715388161E+00  0.10555710399E+02  0.10000000000E+01 0.  0.
<mgrwt>
<rscale>  0 0.12499854E+03</rscale>
<asrwt>0</asrwt>
<pdfrwt beam="1">  1        4 0.13840345E-02 0.12499854E+03</pdfrwt>
<pdfrwt beam="2">  1       -4 0.17639368E+00 0.12499854E+03</pdfrwt>
<totfact> 0.60918534E+02</totfact>
</mgrwt>
</event>
<event>
 5    1  0.1433395E-002  0.1249969E+03  0.7818608E-02  0.1235074E+00
          4   -1    0    0  501    0  0.00000000000E+00  0.00000000000E+00  0.45301660330E+02  0.45319458609E+02  0.12700000000E+01 0.  1.
         -4   -1    0    0    0  501 -0.00000000000E+00 -0.00000000000E+00 -0.86183833680E+02  0.86193190495E+02  0.12700000000E+01 0.  1.
         25    2    1    2    0    0  0.00000000000E+00  0.00000000000E+00 -0.40882173350E+02  0.13151264910E+03  0.12499689907E+03 0.  0.
    9000005    1    3    3    0    0  0.45237636250E+02 -0.14750150098E+02 -0.63062574161E+02  0.79005689170E+02  0.10000000000E+01 0.  0.
    9000005    1    3    3    0    0 -0.45237636250E+02  0.14750150098E+02  0.22180400811E+02  0.52506959934E+02  0.10000000000E+01 0.  0.
<mgrwt>
<rscale>  0 0.12499690E+03</rscale>
<asrwt>0</asrwt>
<pdfrwt beam="1">  1        4 0.11328810E-01 0.12499690E+03</pdfrwt>
<pdfrwt beam="2">  1       -4 0.21549353E-01 0.12499690E+03</pdfrwt>
<totfact> 0.19484814E+03</totfact>
</mgrwt>
</event>
<event>
 5    1  0.1433395E-002  0.1250020E+03  0.7818608E-02  0.1235066E+00
         -4   -1    0    0    0  501 -0.00000000000E+00  0.00000000000E+00  0.82250850195E+02  0.82260654373E+02  0.12700000000E+01 0.  1.
          4   -1    0    0  501    0  0.00000000000E+00 -0.00000000000E+00 -0.47472299299E+02  0.47489284062E+02  0.12700000000E+01 0.  1.
         25    2    1    2    0    0  0.00000000000E+00  0.00000000000E+00  0.34778550897E+02  0.12974993843E+03  0.12500199567E+03 0.  0.
    9000005    1    3    3    0    0  0.45823931536E+02 -0.22093323064E+02  0.55064297141E+02  0.74973491616E+02  0.10000000000E+01 0.  0.
    9000005    1    3    3    0    0 -0.45823931536E+02  0.22093323064E+02 -0.20285746244E+02  0.54776446819E+02  0.10000000000E+01 0.  0.
<mgrwt>
<rscale>  0 0.12500200E+03</rscale>
<asrwt>0</asrwt>
<pdfrwt beam="2">  1        4 0.11871424E-01 0.12500200E+03</pdfrwt>
<pdfrwt beam="1">  1       -4 0.20566061E-01 0.12500200E+03</pdfrwt>
<totfact> 0.19576923E+03</totfact>
</mgrwt>
</event>
<event>
 5    1  0.1433395E-002  0.1249986E+03  0.7818608E-02  0.1235071E+00
         -4   -1    0    0    0  501 -0.00000000000E+00  0.00000000000E+00  0.79563469086E+02  0.79573604374E+02  0.12700000000E+01 0. -1.
          4   -1    0    0  501    0  0.00000000000E+00 -0.00000000000E+00 -0.49073467039E+02  0.49089897812E+02  0.12700000000E+01 0. -1.
         25    2    1    2    0    0  0.00000000000E+00  0.00000000000E+00  0.30490002047E+02  0.12866350219E+03  0.12499862627E+03 0.  0.
    9000005    1    3    3    0    0  0.30535310957E+02  0.44053286265E+02  0.48312705871E+02  0.72167962383E+02  0.10000000000E+01 0.  0.
    9000005    1    3    3    0    0 -0.30535310957E+02 -0.44053286265E+02 -0.17822703823E+02  0.56495539803E+02  0.10000000000E+01 0.  0.
<mgrwt>
<rscale>  0 0.12499863E+03</rscale>
<asrwt>0</asrwt>
<pdfrwt beam="2">  1        4 0.12271688E-01 0.12499863E+03</pdfrwt>
<pdfrwt beam="1">  1       -4 0.19894188E-01 0.12499863E+03</pdfrwt>
<totfact> 0.19637139E+03</totfact>
</mgrwt>
</event>
<event>
 4    1  0.1433395E-002  0.1252313E+03  0.7818608E-02  0.1234708E+00
         -4   -1    0    0    0  501 -0.00000000000E+00  0.00000000000E+00  0.18592817114E+02  0.18636140916E+02  0.12700000000E+01 0.  1.
          4   -1    0    0  501    0  0.00000000000E+00 -0.00000000000E+00 -0.21058230925E+03  0.21058613883E+03  0.12700000000E+01 0.  1.
    9000005    1    1    2    0    0  0.95274393067E+01 -0.16117224130E+02 -0.20534715042E+03  0.20620133171E+03  0.10000000000E+01 0.  0.
    9000005    1    1    2    0    0 -0.95274393067E+01  0.16117224130E+02  0.13357658290E+02  0.23020948034E+02  0.10000000000E+01 0.  0.
<mgrwt>
<rscale>  0 0.12523134E+03</rscale>
<asrwt>0</asrwt>
<pdfrwt beam="2">  1        4 0.52651464E-01 0.12523134E+03</pdfrwt>
<pdfrwt beam="1">  1       -4 0.46540991E-02 0.12523134E+03</pdfrwt>
<totfact> 0.15134279E+03</totfact>
</mgrwt>
</event>
<event>
 5    1  0.1433395E-002  0.1250020E+03  0.7818608E-02  0.1235066E+00
         -4   -1    0    0    0  501 -0.00000000000E+00  0.00000000000E+00  0.30617416074E+03  0.30617679469E+03  0.12700000000E+01 0. -1.
          4   -1    0    0  501    0  0.00000000000E+00 -0.00000000000E+00 -0.12724362302E+02  0.12787583665E+02  0.12700000000E+01 0. -1.
         25    2    1    2    0    0  0.00000000000E+00  0.00000000000E+00  0.29344979844E+03  0.31896437835E+03  0.12500196180E+03 0.  0.
    9000005    1    3    3    0    0  0.39223888124E+02 -0.48023005212E+02  0.16659689189E+03  0.17776458257E+03  0.10000000000E+01 0.  0.
    9000005    1    3    3    0    0 -0.39223888124E+02  0.48023005212E+02  0.12685290655E+03  0.14119979578E+03  0.10000000000E+01 0.  0.
<mgrwt>
<rscale>  0 0.12500196E+03</rscale>
<asrwt>0</asrwt>
<pdfrwt beam="2">  1        4 0.31893227E-02 0.12500196E+03</pdfrwt>
<pdfrwt beam="1">  1       -4 0.76551768E-01 0.12500196E+03</pdfrwt>
<totfact> 0.12455150E+03</totfact>
</mgrwt>
</event>
<event>
 5    1  0.1433395E-002  0.1250031E+03  0.7818608E-02  0.1235064E+00
          4   -1    0    0  501    0  0.00000000000E+00  0.00000000000E+00  0.10877996233E+02  0.10951881210E+02  0.12700000000E+01 0.  1.
         -4   -1    0    0    0  501 -0.00000000000E+00 -0.00000000000E+00 -0.35782365622E+03  0.35782590997E+03  0.12700000000E+01 0.  1.
         25    2    1    2    0    0  0.00000000000E+00  0.00000000000E+00 -0.34694565998E+03  0.36877779118E+03  0.12500307312E+03 0.  0.
    9000005    1    3    3    0    0 -0.36534001160E+02  0.21906090715E+02 -0.30837024891E+03  0.31130020955E+03  0.10000000000E+01 0.  0.
    9000005    1    3    3    0    0  0.36534001160E+02 -0.21906090715E+02 -0.38575411071E+02  0.57477581634E+02  0.10000000000E+01 0.  0.
<mgrwt>
<rscale>  0 0.12500307E+03</rscale>
<asrwt>0</asrwt>
<pdfrwt beam="1">  1        4 0.27290176E-02 0.12500307E+03</pdfrwt>
<pdfrwt beam="2">  1       -4 0.89465392E-01 0.12500307E+03</pdfrwt>
<totfact> 0.11241147E+03</totfact>
</mgrwt>
</event>
<event>
 5    1  0.1433395E-002  0.1250005E+03  0.7818608E-02  0.1235068E+00
         -4   -1    0    0    0  501 -0.00000000000E+00  0.00000000000E+00  0.27364064780E+01  0.30167566048E+01  0.12700000000E+01 0.  1.
          4   -1    0    0  501    0  0.00000000000E+00 -0.00000000000E+00 -0.13576796340E+04  0.13576802280E+04  0.12700000000E+01 0.  1.
         25    2    1    2    0    0  0.00000000000E+00  0.00000000000E+00 -0.13549432276E+04  0.13606969846E+04  0.12500053632E+03 0.  0.
    9000005    1    3    3    0    0  0.39324614290E+02  0.17202973301E+02 -0.11718851038E+04  0.11726713367E+04  0.10000000000E+01 0.  0.
    9000005    1    3    3    0    0 -0.39324614290E+02 -0.17202973301E+02 -0.18305812379E+03  0.18802564789E+03  0.10000000000E+01 0.  0.
<mgrwt>
<rscale>  0 0.12500054E+03</rscale>
<asrwt>0</asrwt>
<pdfrwt beam="2">  1        4 0.33945283E+00 0.12500054E+03</pdfrwt>
<pdfrwt beam="1">  1       -4 0.71922429E-03 0.12500054E+03</pdfrwt>
<totfact> 0.17673675E+02</totfact>
</mgrwt>
</event>
<event>
 5    1  0.1433395E-002  0.1249999E+03  0.7818608E-02  0.1235070E+00
          4   -1    0    0  501    0  0.00000000000E+00  0.00000000000E+00  0.13860425364E+02  0.13918487392E+02  0.12700000000E+01 0.  1.
         -4   -1    0    0    0  501 -0.00000000000E+00 -0.00000000000E+00 -0.28117834502E+03  0.28118121311E+03  0.12700000000E+01 0.  1.
         25    2    1    2    0    0  0.00000000000E+00  0.00000000000E+00 -0.26731791966E+03  0.29509970051E+03  0.12499985228E+03 0.  0.
    9000005    1    3    3    0    0 -0.51926234776E+02 -0.28920951631E+02 -0.17922213013E+03  0.18882353463E+03  0.10000000000E+01 0.  0.
    9000005    1    3    3    0    0  0.51926234776E+02  0.28920951631E+02 -0.88095789523E+02  0.10627616587E+03  0.10000000000E+01 0.  0.
<mgrwt>
<rscale>  0 0.12499985E+03</rscale>
<asrwt>0</asrwt>
<pdfrwt beam="1">  1        4 0.34727235E-02 0.12499985E+03</pdfrwt>
<pdfrwt beam="2">  1       -4 0.70302184E-01 0.12499985E+03</pdfrwt>
<totfact> 0.13109562E+03</totfact>
</mgrwt>
</event>
<event>
 5    1  0.1433395E-002  0.1250035E+03  0.7818608E-02  0.1235064E+00
         -4   -1    0    0    0  501 -0.00000000000E+00  0.00000000000E+00  0.18064583554E+03  0.18065029974E+03  0.12700000000E+01 0. -1.
          4   -1    0    0  501    0  0.00000000000E+00 -0.00000000000E+00 -0.21601631302E+02  0.21638931926E+02  0.12700000000E+01 0. -1.
         25    2    1    2    0    0  0.00000000000E+00  0.00000000000E+00  0.15904420423E+03  0.20228923167E+03  0.12500349734E+03 0.  0.
    9000005    1    3    3    0    0 -0.42489233414E+02  0.22877896628E+02  0.14378051885E+03  0.15166598402E+03  0.10000000000E+01 0.  0.
    9000005    1    3    3    0    0  0.42489233414E+02 -0.22877896628E+02  0.15263685387E+02  0.50623247642E+02  0.10000000000E+01 0.  0.
<mgrwt>
<rscale>  0 0.12500350E+03</rscale>
<asrwt>0</asrwt>
<pdfrwt beam="2">  1        4 0.54056286E-02 0.12500350E+03</pdfrwt>
<pdfrwt beam="1">  1       -4 0.45166678E-01 0.12500350E+03</pdfrwt>
<totfact> 0.16229473E+03</totfact>
</mgrwt>
</event>
<event>
 5    1  0.1433395E-002  0.1250022E+03  0.7818608E-02  0.1235066E+00
          4   -1    0    0  501    0  0.00000000000E+00  0.00000000000E+00  0.44360957645E+03  0.44361139437E+03  0.12700000000E+01 0.  1.
         -4   -1    0    0    0  501 -0.00000000000E+00 -0.00000000000E+00 -0.87582715219E+01  0.88498711884E+01  0.12700000000E+01 0.  1.
         25    2    1    2    0    0  0.00000000000E+00  0.00000000000E+00  0.43485130492E+03  0.45246126556E+03  0.12500215773E+03 0.  0.
    9000005    1    3    3    0    0 -0.54162782972E+02 -0.96729734128E+01  0.11015932103E+03  0.12313914684E+03  0.10000000000E+01 0.  0.
    9000005    1    3    3    0    0  0.54162782972E+02  0.96729734128E+01  0.32469198390E+03  0.32932211872E+03  0.10000000000E+01 0.  0.
<mgrwt>
<rscale>  0 0.12500216E+03</rscale>
<asrwt>0</asrwt>
<pdfrwt beam="1">  1        4 0.11091407E+00 0.12500216E+03</pdfrwt>
<pdfrwt beam="2">  1       -4 0.22012451E-02 0.12500216E+03</pdfrwt>
<totfact> 0.95572053E+02</totfact>
</mgrwt>
</event>
<event>
 5    1  0.1433395E-002  0.1250000E+03  0.7818608E-02  0.1235069E+00
          4   -1    0    0  501    0  0.00000000000E+00  0.00000000000E+00  0.13444718702E+03  0.13445318515E+03  0.12700000000E+01 0.  1.
         -4   -1    0    0    0  501 -0.00000000000E+00 -0.00000000000E+00 -0.29033615392E+02  0.29061378542E+02  0.12700000000E+01 0.  1.
         25    2    1    2    0    0  0.00000000000E+00  0.00000000000E+00  0.10541357162E+03  0.16351456369E+03  0.12499996582E+03 0.  0.
    9000005    1    3    3    0    0  0.48107876611E+02 -0.26641382985E+02  0.13877153085E+02  0.56724831045E+02  0.10000000000E+01 0.  0.
    9000005    1    3    3    0    0 -0.48107876611E+02  0.26641382985E+02  0.91536418538E+02  0.10678973264E+03  0.10000000000E+01 0.  0.
<mgrwt>
<rscale>  0 0.12499997E+03</rscale>
<asrwt>0</asrwt>
<pdfrwt beam="1">  1        4 0.33616016E-01 0.12499997E+03</pdfrwt>
<pdfrwt beam="2">  1       -4 0.72626241E-02 0.12499997E+03</pdfrwt>
<totfact> 0.17893612E+03</totfact>
</mgrwt>
</event>
<event>
 5    1  0.1433395E-002  0.1249953E+03  0.7818608E-02  0.1235077E+00
         -4   -1    0    0    0  501 -0.00000000000E+00  0.00000000000E+00  0.67310067981E+03  0.67310187792E+03  0.12700000000E+01 0. -1.
          4   -1    0    0  501    0  0.00000000000E+00 -0.00000000000E+00 -0.57322231558E+01  0.58712249410E+01  0.12700000000E+01 0. -1.
         25    2    1    2    0    0  0.00000000000E+00  0.00000000000E+00  0.66736845665E+03  0.67897310286E+03  0.12499526980E+03 0.  0.
    9000005    1    3    3    0    0  0.35184379818E+02 -0.22890669546E+02  0.82221732341E+02  0.92321918333E+02  0.10000000000E+01 0.  0.
    9000005    1    3    3    0    0 -0.35184379818E+02  0.22890669546E+02  0.58514672431E+03  0.58665118453E+03  0.10000000000E+01 0.  0.
<mgrwt>
<rscale>  0 0.12499527E+03</rscale>
<asrwt>0</asrwt>
<pdfrwt beam="2">  1        4 0.14505810E-02 0.12499527E+03</pdfrwt>
<pdfrwt beam="1">  1       -4 0.16829266E+00 0.12499527E+03</pdfrwt>
<totfact> 0.64297803E+02</totfact>
</mgrwt>
</event>
<event>
 5    1  0.1433395E-002  0.1249997E+03  0.7818608E-02  0.1235070E+00
          4   -1    0    0  501    0  0.00000000000E+00  0.00000000000E+00  0.36704074694E+03  0.36704294410E+03  0.12700000000E+01 0.  1.
         -4   -1    0    0    0  501 -0.00000000000E+00 -0.00000000000E+00 -0.10602371570E+02  0.10678163836E+02  0.12700000000E+01 0.  1.
         25    2    1    2    0    0  0.00000000000E+00  0.00000000000E+00  0.35643837536E+03  0.37772110793E+03  0.12499967978E+03 0.  0.
    9000005    1    3    3    0    0 -0.33279294382E+02  0.13920489215E+02  0.24021550658E+02  0.43351197798E+02  0.10000000000E+01 0.  0.
    9000005    1    3    3    0    0  0.33279294382E+02 -0.13920489215E+02  0.33241682471E+03  0.33436991013E+03  0.10000000000E+01 0.  0.
<mgrwt>
<rscale>  0 0.12499968E+03</rscale>
<asrwt>0</asrwt>
<pdfrwt beam="1">  1        4 0.91769927E-01 0.12499968E+03</pdfrwt>
<pdfrwt beam="2">  1       -4 0.26603418E-02 0.12499968E+03</pdfrwt>
<totfact> 0.11043057E+03</totfact>
</mgrwt>
</event>
<event>
 5    1  0.1433395E-002  0.1249977E+03  0.7818608E-02  0.1235073E+00
         -4   -1    0    0    0  501 -0.00000000000E+00  0.00000000000E+00  0.19828263286E+03  0.19828669999E+03  0.12700000000E+01 0. -1.
          4   -1    0    0  501    0  0.00000000000E+00 -0.00000000000E+00 -0.19674936006E+02  0.19715882097E+02  0.12700000000E+01 0. -1.
         25    2    1    2    0    0  0.00000000000E+00  0.00000000000E+00  0.17860769686E+03  0.21800258209E+03  0.12499766567E+03 0.  0.
    9000005    1    3    3    0    0  0.25675821115E+02 -0.20711677893E+02  0.18186827548E+03  0.18483855393E+03  0.10000000000E+01 0.  0.
    9000005    1    3    3    0    0 -0.25675821115E+02  0.20711677893E+02 -0.32605786271E+01  0.33164028164E+02  0.10000000000E+01 0.  0.
<mgrwt>
<rscale>  0 0.12499767E+03</rscale>
<asrwt>0</asrwt>
<pdfrwt beam="2">  1        4 0.49243607E-02 0.12499767E+03</pdfrwt>
<pdfrwt beam="1">  1       -4 0.49576285E-01 0.12499767E+03</pdfrwt>
<totfact> 0.15626538E+03</totfact>
</mgrwt>
</event>
<event>
 5    1  0.1433395E-002  0.1250020E+03  0.7818608E-02  0.1235066E+00
         -4   -1    0    0    0  501 -0.00000000000E+00  0.00000000000E+00  0.55484542349E+02  0.55499075125E+02  0.12700000000E+01 0. -1.
          4   -1    0    0  501    0  0.00000000000E+00 -0.00000000000E+00 -0.70375301542E+02  0.70386759885E+02  0.12700000000E+01 0. -1.
         25    2    1    2    0    0  0.00000000000E+00  0.00000000000E+00 -0.14890759193E+02  0.12588583501E+03  0.12500203497E+03 0.  0.
    9000005    1    3    3    0    0 -0.36759867106E+02  0.33307417942E+02 -0.45723394735E+02  0.67470739922E+02  0.10000000000E+01 0.  0.
    9000005    1    3    3    0    0  0.36759867106E+02 -0.33307417942E+02  0.30832635542E+02  0.58415095087E+02  0.10000000000E+01 0.  0.
<mgrwt>
<rscale>  0 0.12500203E+03</rscale>
<asrwt>0</asrwt>
<pdfrwt beam="2">  1        4 0.17597074E-01 0.12500203E+03</pdfrwt>
<pdfrwt beam="1">  1       -4 0.13874385E-01 0.12500203E+03</pdfrwt>
<totfact> 0.19786149E+03</totfact>
</mgrwt>
</event>
<event>
 5    1  0.1433395E-002  0.1250076E+03  0.7818608E-02  0.1235057E+00
          4   -1    0    0  501    0  0.00000000000E+00  0.00000000000E+00  0.85385447197E+02  0.85394891493E+02  0.12700000000E+01 0.  1.
         -4   -1    0    0    0  501 -0.00000000000E+00 -0.00000000000E+00 -0.45733176669E+02  0.45750807078E+02  0.12700000000E+01 0.  1.
         25    2    1    2    0    0  0.00000000000E+00  0.00000000000E+00  0.39652270528E+02  0.13114569857E+03  0.12500756655E+03 0.  0.
    9000005    1    3    3    0    0  0.29272847425E+02  0.35221450960E+02 -0.24785661487E+02  0.52084347163E+02  0.10000000000E+01 0.  0.
    9000005    1    3    3    0    0 -0.29272847425E+02 -0.35221450960E+02  0.64437932014E+02  0.79061351408E+02  0.10000000000E+01 0.  0.
<mgrwt>
<rscale>  0 0.12500757E+03</rscale>
<asrwt>0</asrwt>
<pdfrwt beam="1">  1        4 0.21349746E-01 0.12500757E+03</pdfrwt>
<pdfrwt beam="2">  1       -4 0.11436679E-01 0.12500757E+03</pdfrwt>
<totfact> 0.19499543E+03</totfact>
</mgrwt>
</event>
<event>
 5    1  0.1433395E-002  0.1249756E+03  0.7818608E-02  0.1235107E+00
          4   -1    0    0  501    0  0.00000000000E+00  0.00000000000E+00  0.12417800508E+04  0.12417807002E+04  0.12700000000E+01 0.  1.
         -4   -1    0    0    0  501 -0.00000000000E+00 -0.00000000000E+00 -0.30155468353E+01  0.32720670402E+01  0.12700000000E+01 0.  1.
         25    2    1    2    0    0  0.00000000000E+00  0.00000000000E+00  0.12387645040E+04  0.12450527673E+04  0.12497558564E+03 0.  0.
    9000005    1    3    3    0    0 -0.45861732060E+02 -0.41727652305E+02  0.54271160882E+03  0.54624297321E+03  0.10000000000E+01 0.  0.
    9000005    1    3    3    0    0  0.45861732060E+02  0.41727652305E+02  0.69605289515E+03  0.69880979406E+03  0.10000000000E+01 0.  0.
<mgrwt>
<rscale>  0 0.12497559E+03</rscale>
<asrwt>0</asrwt>
<pdfrwt beam="1">  1        4 0.31047705E+00 0.12497559E+03</pdfrwt>
<pdfrwt beam="2">  1       -4 0.78603319E-03 0.12497559E+03</pdfrwt>
<totfact> 0.22930437E+02</totfact>
</mgrwt>
</event>
<event>
 5    1  0.1433395E-002  0.1249927E+03  0.7818608E-02  0.1235081E+00
          4   -1    0    0  501    0  0.00000000000E+00  0.00000000000E+00  0.16507750549E+03  0.16508239069E+03  0.12700000000E+01 0.  1.
         -4   -1    0    0    0  501 -0.00000000000E+00 -0.00000000000E+00 -0.23638098520E+02  0.23672190470E+02  0.12700000000E+01 0.  1.
         25    2    1    2    0    0  0.00000000000E+00  0.00000000000E+00  0.14143940696E+03  0.18875458116E+03  0.12499274406E+03 0.  0.
    9000005    1    3    3    0    0  0.84137477672E+01  0.79070297760E+00  0.16421798818E+03  0.16443832888E+03  0.10000000000E+01 0.  0.
    9000005    1    3    3    0    0 -0.84137477672E+01 -0.79070297760E+00 -0.22778581219E+02  0.24316252282E+02  0.10000000000E+01 0.  0.
<mgrwt>
<rscale>  0 0.12499274E+03</rscale>
<asrwt>0</asrwt>
<pdfrwt beam="1">  1        4 0.41274248E-01 0.12499274E+03</pdfrwt>
<pdfrwt beam="2">  1       -4 0.59143969E-02 0.12499274E+03</pdfrwt>
<totfact> 0.16785274E+03</totfact>
</mgrwt>
</event>
<event>
 5    1  0.1433395E-002  0.1249984E+03  0.7818608E-02  0.1235072E+00
          4   -1    0    0  501    0  0.00000000000E+00  0.00000000000E+00  0.36568640732E+02  0.36590687135E+02  0.12700000000E+01 0. -1.
         -4   -1    0    0    0  501 -0.00000000000E+00 -0.00000000000E+00 -0.10675894161E+03  0.10676649527E+03  0.12700000000E+01 0. -1.
         25    2    1    2    0    0  0.00000000000E+00  0.00000000000E+00 -0.70190300875E+02  0.14335718241E+03  0.12499841363E+03 0.  0.
    9000005    1    3    3    0    0  0.27178313910E+02  0.18056353105E+02  0.26028482352E+02  0.41751341631E+02  0.10000000000E+01 0.  0.
    9000005    1    3    3    0    0 -0.27178313910E+02 -0.18056353105E+02 -0.96218783227E+02  0.10160584078E+03  0.10000000000E+01 0.  0.
<mgrwt>
<rscale>  0 0.12499841E+03</rscale>
<asrwt>0</asrwt>
<pdfrwt beam="1">  1        4 0.91458604E-02 0.12499841E+03</pdfrwt>
<pdfrwt beam="2">  1       -4 0.26693435E-01 0.12499841E+03</pdfrwt>
<totfact> 0.18870589E+03</totfact>
</mgrwt>
</event>
<event>
 5    1  0.1433395E-002  0.1249987E+03  0.7818608E-02  0.1235071E+00
         -4   -1    0    0    0  501 -0.00000000000E+00  0.00000000000E+00  0.75003939717E+01  0.76071551667E+01  0.12700000000E+01 0. -1.
          4   -1    0    0  501    0  0.00000000000E+00 -0.00000000000E+00 -0.51700715285E+03  0.51700871269E+03  0.12700000000E+01 0. -1.
         25    2    1    2    0    0  0.00000000000E+00  0.00000000000E+00 -0.50950675888E+03  0.52461586786E+03  0.12499868585E+03 0.  0.
    9000005    1    3    3    0    0 -0.15933724924E+02 -0.58967026402E+02 -0.19936384308E+03  0.20851363438E+03  0.10000000000E+01 0.  0.
    9000005    1    3    3    0    0  0.15933724924E+02  0.58967026402E+02 -0.31014291580E+03  0.31610223348E+03  0.10000000000E+01 0.  0.
<mgrwt>
<rscale>  0 0.12499869E+03</rscale>
<asrwt>0</asrwt>
<pdfrwt beam="2">  1        4 0.12926521E+00 0.12499869E+03</pdfrwt>
<pdfrwt beam="1">  1       -4 0.18886404E-02 0.12499869E+03</pdfrwt>
<totfact> 0.83822716E+02</totfact>
</mgrwt>
</event>
<event>
 5    1  0.1433395E-002  0.1250042E+03  0.7818608E-02  0.1235063E+00
          4   -1    0    0  501    0  0.00000000000E+00  0.00000000000E+00  0.13891929466E+04  0.13891935271E+04  0.12700000000E+01 0.  1.
         -4   -1    0    0    0  501 -0.00000000000E+00 -0.00000000000E+00 -0.26680735921E+01  0.29549139908E+01  0.12700000000E+01 0.  1.
         25    2    1    2    0    0  0.00000000000E+00  0.00000000000E+00  0.13865248730E+04  0.13921484411E+04  0.12500423436E+03 0.  0.
    9000005    1    3    3    0    0 -0.23339925133E+02 -0.57690304958E+02  0.75684110100E+03  0.75939605975E+03  0.10000000000E+01 0.  0.
    9000005    1    3    3    0    0  0.23339925133E+02  0.57690304958E+02  0.62968377197E+03  0.63275238132E+03  0.10000000000E+01 0.  0.
<mgrwt>
<rscale>  0 0.12500423E+03</rscale>
<asrwt>0</asrwt>
<pdfrwt beam="1">  1        4 0.34733396E+00 0.12500423E+03</pdfrwt>
<pdfrwt beam="2">  1       -4 0.70294643E-03 0.12500423E+03</pdfrwt>
<totfact> 0.16395605E+02</totfact>
</mgrwt>
</event>
<event>
 5    1  0.1433395E-002  0.1250037E+03  0.7818608E-02  0.1235064E+00
         -4   -1    0    0    0  501 -0.00000000000E+00  0.00000000000E+00  0.21831604797E+02  0.21868513164E+02  0.12700000000E+01 0.  1.
          4   -1    0    0  501    0  0.00000000000E+00 -0.00000000000E+00 -0.17874656468E+03  0.17875107632E+03  0.12700000000E+01 0.  1.
         25    2    1    2    0    0  0.00000000000E+00  0.00000000000E+00 -0.15691495989E+03  0.20061958949E+03  0.12500366014E+03 0.  0.
    9000005    1    3    3    0    0  0.32150017837E+00  0.61098264452E+02 -0.57386202144E+02  0.83828858265E+02  0.10000000000E+01 0.  0.
    9000005    1    3    3    0    0 -0.32150017837E+00 -0.61098264452E+02 -0.99528757741E+02  0.11679073122E+03  0.10000000000E+01 0.  0.
<mgrwt>
<rscale>  0 0.12500366E+03</rscale>
<asrwt>0</asrwt>
<pdfrwt beam="2">  1        4 0.44691814E-01 0.12500366E+03</pdfrwt>
<pdfrwt beam="1">  1       -4 0.54630792E-02 0.12500366E+03</pdfrwt>
<totfact> 0.16295883E+03</totfact>
</mgrwt>
</event>
<event>
 4    1  0.1433395E-002  0.1265887E+03  0.7818608E-02  0.1232607E+00
         -4   -1    0    0    0  501 -0.00000000000E+00  0.00000000000E+00  0.20374463765E+03  0.20374859575E+03  0.12700000000E+01 0. -1.
          4   -1    0    0  501    0  0.00000000000E+00 -0.00000000000E+00 -0.19638070978E+02  0.19679093773E+02  0.12700000000E+01 0. -1.
    9000005    1    1    2    0    0 -0.38414706234E+02  0.41037773190E+02  0.14337130783E+03  0.15400039089E+03  0.10000000000E+01 0.  0.
    9000005    1    1    2    0    0  0.38414706234E+02 -0.41037773190E+02  0.40735258833E+02  0.69427298634E+02  0.10000000000E+01 0.  0.
<mgrwt>
<rscale>  0 0.12658872E+03</rscale>
<asrwt>0</asrwt>
<pdfrwt beam="2">  1        4 0.49151404E-02 0.12658872E+03</pdfrwt>
<pdfrwt beam="1">  1       -4 0.50941782E-01 0.12658872E+03</pdfrwt>
<totfact> 0.14873001E+03</totfact>
</mgrwt>
</event>
<event>
 5    1  0.1433395E-002  0.1250012E+03  0.7818608E-02  0.1235067E+00
          4   -1    0    0  501    0  0.00000000000E+00  0.00000000000E+00  0.14078780400E+03  0.14079353200E+03  0.12700000000E+01 0. -1.
         -4   -1    0    0    0  501 -0.00000000000E+00 -0.00000000000E+00 -0.27725339947E+02  0.27754411815E+02  0.12700000000E+01 0. -1.
         25    2    1    2    0    0  0.00000000000E+00  0.00000000000E+00  0.11306246405E+03  0.16854794382E+03  0.12500115435E+03 0.  0.
    9000005    1    3    3    0    0 -0.52074952487E+02 -0.28658008495E+02  0.82546060481E+02  0.10172479653E+03  0.10000000000E+01 0.  0.
    9000005    1    3    3    0    0  0.52074952487E+02  0.28658008495E+02  0.30516403569E+02  0.66823147293E+02  0.10000000000E+01 0.  0.
<mgrwt>
<rscale>  0 0.12500115E+03</rscale>
<asrwt>0</asrwt>
<pdfrwt beam="1">  1        4 0.35201301E-01 0.12500115E+03</pdfrwt>
<pdfrwt beam="2">  1       -4 0.69356850E-02 0.12500115E+03</pdfrwt>
<totfact> 0.17662267E+03</totfact>
</mgrwt>
</event>
<event>
 5    1  0.1433395E-002  0.1249990E+03  0.7818608E-02  0.1235071E+00
          4   -1    0    0  501    0  0.00000000000E+00  0.00000000000E+00  0.78078444318E+02  0.78088772349E+02  0.12700000000E+01 0.  1.
         -4   -1    0    0    0  501 -0.00000000000E+00 -0.00000000000E+00 -0.50007279795E+02  0.50023403848E+02  0.12700000000E+01 0.  1.
         25    2    1    2    0    0  0.00000000000E+00  0.00000000000E+00  0.28071164522E+02  0.12811217620E+03  0.12499895765E+03 0.  0.
    9000005    1    3    3    0    0 -0.57067878075E+02 -0.18544424887E+02 -0.38503173247E+01  0.60137038054E+02  0.10000000000E+01 0.  0.
    9000005    1    3    3    0    0  0.57067878075E+02  0.18544424887E+02  0.31921481847E+02  0.67975138144E+02  0.10000000000E+01 0.  0.
<mgrwt>
<rscale>  0 0.12499896E+03</rscale>
<asrwt>0</asrwt>
<pdfrwt beam="1">  1        4 0.19522917E-01 0.12499896E+03</pdfrwt>
<pdfrwt beam="2">  1       -4 0.12505127E-01 0.12499896E+03</pdfrwt>
<totfact> 0.19666911E+03</totfact>
</mgrwt>
</event>
<event>
 5    1  0.1433395E-002  0.1250220E+03  0.7818608E-02  0.1235035E+00
          4   -1    0    0  501    0  0.00000000000E+00  0.00000000000E+00  0.52097629991E+02  0.52113107283E+02  0.12700000000E+01 0. -1.
         -4   -1    0    0    0  501 -0.00000000000E+00 -0.00000000000E+00 -0.74973802266E+02  0.74984557919E+02  0.12700000000E+01 0. -1.
         25    2    1    2    0    0  0.00000000000E+00  0.00000000000E+00 -0.22876172275E+02  0.12709766520E+03  0.12502198703E+03 0.  0.
    9000005    1    3    3    0    0 -0.10268876253E+02 -0.35336983670E+02  0.39922701516E+02  0.54304459585E+02  0.10000000000E+01 0.  0.
    9000005    1    3    3    0    0  0.10268876253E+02  0.35336983670E+02 -0.62798873792E+02  0.72793205617E+02  0.10000000000E+01 0.  0.
<mgrwt>
<rscale>  0 0.12502199E+03</rscale>
<asrwt>0</asrwt>
<pdfrwt beam="1">  1        4 0.13027687E-01 0.12502199E+03</pdfrwt>
<pdfrwt beam="2">  1       -4 0.18746730E-01 0.12502199E+03</pdfrwt>
<totfact> 0.19711578E+03</totfact>
</mgrwt>
</event>
<event>
 5    1  0.1433395E-002  0.1249990E+03  0.7818608E-02  0.1235071E+00
         -4   -1    0    0    0  501 -0.00000000000E+00  0.00000000000E+00  0.15649976959E+03  0.15650492255E+03  0.12700000000E+01 0.  1.
          4   -1    0    0  501    0  0.00000000000E+00 -0.00000000000E+00 -0.24937997404E+02  0.24970314666E+02  0.12700000000E+01 0.  1.
         25    2    1    2    0    0  0.00000000000E+00  0.00000000000E+00  0.13156177219E+03  0.18147523722E+03  0.12499904728E+03 0.  0.
    9000005    1    3    3    0    0 -0.31970321318E+02  0.20285584868E+02  0.13795780890E+03  0.14306279543E+03  0.10000000000E+01 0.  0.
    9000005    1    3    3    0    0  0.31970321318E+02 -0.20285584868E+02 -0.63960367125E+01  0.38412441789E+02  0.10000000000E+01 0.  0.
<mgrwt>
<rscale>  0 0.12499905E+03</rscale>
<asrwt>0</asrwt>
<pdfrwt beam="2">  1        4 0.62391832E-02 0.12499905E+03</pdfrwt>
<pdfrwt beam="1">  1       -4 0.39129626E-01 0.12499905E+03</pdfrwt>
<totfact> 0.17091927E+03</totfact>
</mgrwt>
</event>
<event>
 5    1  0.1433395E-002  0.1249973E+03  0.7818608E-02  0.1235073E+00
          4   -1    0    0  501    0  0.00000000000E+00  0.00000000000E+00  0.13791536723E+02  0.13849887552E+02  0.12700000000E+01 0.  1.
         -4   -1    0    0    0  501 -0.00000000000E+00 -0.00000000000E+00 -0.28256558962E+03  0.28256844363E+03  0.12700000000E+01 0.  1.
         25    2    1    2    0    0  0.00000000000E+00  0.00000000000E+00 -0.26877405289E+03  0.29641833118E+03  0.12499734218E+03 0.  0.
    9000005    1    3    3    0    0 -0.11387986991E+02  0.15031668393E+02  0.68942472972E+01  0.20103928675E+02  0.10000000000E+01 0.  0.
    9000005    1    3    3    0    0  0.11387986991E+02 -0.15031668393E+02 -0.27566830019E+03  0.27631440251E+03  0.10000000000E+01 0.  0.
<mgrwt>
<rscale>  0 0.12499734E+03</rscale>
<asrwt>0</asrwt>
<pdfrwt beam="1">  1        4 0.34555357E-02 0.12499734E+03</pdfrwt>
<pdfrwt beam="2">  1       -4 0.70649029E-01 0.12499734E+03</pdfrwt>
<totfact> 0.13072834E+03</totfact>
</mgrwt>
</event>
<event>
 5    1  0.1433395E-002  0.1250000E+03  0.7818608E-02  0.1235069E+00
         -4   -1    0    0    0  501 -0.00000000000E+00  0.00000000000E+00  0.16304918397E+02  0.16354304141E+02  0.12700000000E+01 0.  1.
          4   -1    0    0  501    0  0.00000000000E+00 -0.00000000000E+00 -0.23916176530E+03  0.23916513726E+03  0.12700000000E+01 0.  1.
         25    2    1    2    0    0  0.00000000000E+00  0.00000000000E+00 -0.22285684690E+03  0.25551944140E+03  0.12500004289E+03 0.  0.
    9000005    1    3    3    0    0 -0.31699588624E+01  0.11292825306E+02 -0.23690150659E+03  0.23719380339E+03  0.10000000000E+01 0.  0.
    9000005    1    3    3    0    0  0.31699588624E+01 -0.11292825306E+02  0.14044659691E+02  0.18325638008E+02  0.10000000000E+01 0.  0.
<mgrwt>
<rscale>  0 0.12500004E+03</rscale>
<asrwt>0</asrwt>
<pdfrwt beam="2">  1        4 0.59797025E-01 0.12500004E+03</pdfrwt>
<pdfrwt beam="1">  1       -4 0.40828251E-02 0.12500004E+03</pdfrwt>
<totfact> 0.14316153E+03</totfact>
</mgrwt>
</event>
<event>
 5    1  0.1433395E-002  0.1250025E+03  0.7818608E-02  0.1235065E+00
         -4   -1    0    0    0  501 -0.00000000000E+00  0.00000000000E+00  0.12536871520E+03  0.12537514766E+03  0.12700000000E+01 0.  1.
          4   -1    0    0  501    0  0.00000000000E+00 -0.00000000000E+00 -0.31139163461E+02  0.31165050955E+02  0.12700000000E+01 0.  1.
         25    2    1    2    0    0  0.00000000000E+00  0.00000000000E+00  0.94229551735E+02  0.15654019861E+03  0.12500250142E+03 0.  0.
    9000005    1    3    3    0    0  0.18347031874E+02  0.59697478774E+02  0.49916057035E+02  0.79956333711E+02  0.10000000000E+01 0.  0.
    9000005    1    3    3    0    0 -0.18347031874E+02 -0.59697478774E+02  0.44313494700E+02  0.76583864900E+02  0.10000000000E+01 0.  0.
<mgrwt>
<rscale>  0 0.12500250E+03</rscale>
<asrwt>0</asrwt>
<pdfrwt beam="2">  1        4 0.77888310E-02 0.12500250E+03</pdfrwt>
<pdfrwt beam="1">  1       -4 0.31346218E-01 0.12500250E+03</pdfrwt>
<totfact> 0.18220744E+03</totfact>
</mgrwt>
</event>
<event>
 5    1  0.1433395E-002  0.1250045E+03  0.7818608E-02  0.1235062E+00
         -4   -1    0    0    0  501 -0.00000000000E+00  0.00000000000E+00  0.13279357915E+02  0.13339949274E+02  0.12700000000E+01 0.  1.
          4   -1    0    0  501    0  0.00000000000E+00 -0.00000000000E+00 -0.29344892890E+03  0.29345167707E+03  0.12700000000E+01 0.  1.
         25    2    1    2    0    0  0.00000000000E+00  0.00000000000E+00 -0.28016957099E+03  0.30679162634E+03  0.12500445387E+03 0.  0.
    9000005    1    3    3    0    0 -0.50948421355E+02  0.33154192309E+02 -0.17569979266E+03  0.18592030348E+03  0.10000000000E+01 0.  0.
    9000005    1    3    3    0    0  0.50948421355E+02 -0.33154192309E+02 -0.10446977833E+03  0.12087132286E+03  0.10000000000E+01 0.  0.
<mgrwt>
<rscale>  0 0.12500445E+03</rscale>
<asrwt>0</asrwt>
<pdfrwt beam="2">  1        4 0.73370129E-01 0.12500445E+03</pdfrwt>
<pdfrwt beam="1">  1       -4 0.33277579E-02 0.12500445E+03</pdfrwt>
<totfact> 0.12781519E+03</totfact>
</mgrwt>
</event>
<event>
 5    1  0.1433395E-002  0.1250015E+03  0.7818608E-02  0.1235067E+00
         -4   -1    0    0    0  501 -0.00000000000E+00  0.00000000000E+00  0.52265312780E+02  0.52280740431E+02  0.12700000000E+01 0.  1.
          4   -1    0    0  501    0  0.00000000000E+00 -0.00000000000E+00 -0.74708808438E+02  0.74719602235E+02  0.12700000000E+01 0.  1.
         25    2    1    2    0    0  0.00000000000E+00  0.00000000000E+00 -0.22443495657E+02  0.12700034267E+03  0.12500150615E+03 0.  0.
    9000005    1    3    3    0    0  0.47608958633E+02 -0.57095492698E+01  0.29495676392E+02  0.56304589695E+02  0.10000000000E+01 0.  0.
    9000005    1    3    3    0    0 -0.47608958633E+02  0.57095492698E+01 -0.51939172049E+02  0.70695752971E+02  0.10000000000E+01 0.  0.
<mgrwt>
<rscale>  0 0.12500151E+03</rscale>
<asrwt>0</asrwt>
<pdfrwt beam="2">  1        4 0.18680480E-01 0.12500151E+03</pdfrwt>
<pdfrwt beam="1">  1       -4 0.13069606E-01 0.12500151E+03</pdfrwt>
<totfact> 0.19726264E+03</totfact>
</mgrwt>
</event>
<event>
 5    1  0.1433395E-002  0.1249931E+03  0.7818608E-02  0.1235080E+00
          4   -1    0    0  501    0  0.00000000000E+00  0.00000000000E+00  0.16675774513E+03  0.16676258112E+03  0.12700000000E+01 0.  1.
         -4   -1    0    0    0  501 -0.00000000000E+00 -0.00000000000E+00 -0.23399707835E+02  0.23434146598E+02  0.12700000000E+01 0.  1.
         25    2    1    2    0    0  0.00000000000E+00  0.00000000000E+00  0.14335803730E+03  0.19019672772E+03  0.12499307331E+03 0.  0.
    9000005    1    3    3    0    0  0.31249579468E+02  0.52937567768E+02  0.54605580578E+02  0.82229506434E+02  0.10000000000E+01 0.  0.
    9000005    1    3    3    0    0 -0.31249579468E+02 -0.52937567768E+02  0.88752456718E+02  0.10796722128E+03  0.10000000000E+01 0.  0.
<mgrwt>
<rscale>  0 0.12499307E+03</rscale>
<asrwt>0</asrwt>
<pdfrwt beam="1">  1        4 0.41694345E-01 0.12499307E+03</pdfrwt>
<pdfrwt beam="2">  1       -4 0.58548364E-02 0.12499307E+03</pdfrwt>
<totfact> 0.16724936E+03</totfact>
</mgrwt>
</event>
<event>
 4    1  0.1433395E-002  0.1249247E+03  0.7818608E-02  0.1235187E+00
          4   -1    0    0  501    0  0.00000000000E+00  0.00000000000E+00  0.28993890463E+02  0.29021691614E+02  0.12700000000E+01 0.  1.
         -4   -1    0    0    0  501 -0.00000000000E+00 -0.00000000000E+00 -0.13446903454E+03  0.13447503169E+03  0.12700000000E+01 0.  1.
    9000005    1    1    2    0    0  0.11114561880E+02 -0.52250687995E+02 -0.10391969471E+02  0.54430330802E+02  0.10000000000E+01 0.  0.
    9000005    1    1    2    0    0 -0.11114561880E+02  0.52250687995E+02 -0.95083174602E+02  0.10906639251E+03  0.10000000000E+01 0.  0.
<mgrwt>
<rscale>  0 0.12492467E+03</rscale>
<asrwt>0</asrwt>
<pdfrwt beam="1">  1        4 0.72526978E-02 0.12492467E+03</pdfrwt>
<pdfrwt beam="2">  1       -4 0.33621482E-01 0.12492467E+03</pdfrwt>
<totfact> 0.17925778E+03</totfact>
</mgrwt>
</event>
<event>
 5    1  0.1433395E-002  0.1249799E+03  0.7818608E-02  0.1235101E+00
         -4   -1    0    0    0  501 -0.00000000000E+00  0.00000000000E+00  0.85088676775E+03  0.85088771552E+03  0.12700000000E+01 0.  1.
          4   -1    0    0  501    0  0.00000000000E+00 -0.00000000000E+00 -0.45004936256E+01  0.46762530806E+01  0.12700000000E+01 0.  1.
         25    2    1    2    0    0  0.00000000000E+00  0.00000000000E+00  0.84638627412E+03  0.85556396860E+03  0.12497991579E+03 0.  0.
    9000005    1    3    3    0    0 -0.42744377321E+02  0.14769229172E+02  0.12805414172E+03  0.13580896559E+03  0.10000000000E+01 0.  0.
    9000005    1    3    3    0    0  0.42744377321E+02 -0.14769229172E+02  0.71833213240E+03  0.71975500301E+03  0.10000000000E+01 0.  0.
<mgrwt>
<rscale>  0 0.12497992E+03</rscale>
<asrwt>0</asrwt>
<pdfrwt beam="2">  1        4 0.11472120E-02 0.12497992E+03</pdfrwt>
<pdfrwt beam="1">  1       -4 0.21274374E+00 0.12497992E+03</pdfrwt>
<totfact> 0.47797902E+02</totfact>
</mgrwt>
</event>
<event>
 5    1  0.1433395E-002  0.1250018E+03  0.7818608E-02  0.1235067E+00
          4   -1    0    0  501    0  0.00000000000E+00  0.00000000000E+00  0.11674286054E+03  0.11674976825E+03  0.12700000000E+01 0.  1.
         -4   -1    0    0    0  501 -0.00000000000E+00 -0.00000000000E+00 -0.33441289268E+02  0.33465395977E+02  0.12700000000E+01 0.  1.
         25    2    1    2    0    0  0.00000000000E+00  0.00000000000E+00  0.83301571273E+02  0.15021516423E+03  0.12500177514E+03 0.  0.
    9000005    1    3    3    0    0  0.59439346099E+02  0.67966092913E+01  0.63352485880E+02  0.87142224149E+02  0.10000000000E+01 0.  0.
    9000005    1    3    3    0    0 -0.59439346099E+02 -0.67966092913E+01  0.19949085394E+02  0.63072940082E+02  0.10000000000E+01 0.  0.
<mgrwt>
<rscale>  0 0.12500178E+03</rscale>
<asrwt>0</asrwt>
<pdfrwt beam="1">  1        4 0.29189592E-01 0.12500178E+03</pdfrwt>
<pdfrwt beam="2">  1       -4 0.83641992E-02 0.12500178E+03</pdfrwt>
<totfact> 0.18527441E+03</totfact>
</mgrwt>
</event>
<event>
 4    1  0.1433395E-002  0.1251587E+03  0.7818608E-02  0.1234821E+00
         -4   -1    0    0    0  501 -0.00000000000E+00  0.00000000000E+00  0.15319655074E+02  0.15372206465E+02  0.12700000000E+01 0. -1.
          4   -1    0    0  501    0  0.00000000000E+00 -0.00000000000E+00 -0.25513892330E+03  0.25514208410E+03  0.12700000000E+01 0. -1.
    9000005    1    1    2    0    0  0.81112480942E+01 -0.34746012713E+02 -0.23100695129E+03  0.23374834607E+03  0.10000000000E+01 0.  0.
    9000005    1    1    2    0    0 -0.81112480942E+01  0.34746012713E+02 -0.88123169285E+01  0.36765944497E+02  0.10000000000E+01 0.  0.
<mgrwt>
<rscale>  0 0.12515870E+03</rscale>
<asrwt>0</asrwt>
<pdfrwt beam="2">  1        4 0.63791681E-01 0.12515870E+03</pdfrwt>
<pdfrwt beam="1">  1       -4 0.38368786E-02 0.12515870E+03</pdfrwt>
<totfact> 0.13789328E+03</totfact>
</mgrwt>
</event>
<event>
 5    1  0.1433395E-002  0.1250019E+03  0.7818608E-02  0.1235066E+00
          4   -1    0    0  501    0  0.00000000000E+00  0.00000000000E+00  0.33378712467E+03  0.33378954073E+03  0.12700000000E+01 0.  1.
         -4   -1    0    0    0  501 -0.00000000000E+00 -0.00000000000E+00 -0.11666247800E+02  0.11735170972E+02  0.12700000000E+01 0.  1.
         25    2    1    2    0    0  0.00000000000E+00  0.00000000000E+00  0.32212087687E+03  0.34552471170E+03  0.12500186829E+03 0.  0.
    9000005    1    3    3    0    0  0.59515188552E+02  0.15678539136E+02  0.13109865211E+03  0.14483000671E+03  0.10000000000E+01 0.  0.
    9000005    1    3    3    0    0 -0.59515188552E+02 -0.15678539136E+02  0.19102222476E+03  0.20069470499E+03  0.10000000000E+01 0.  0.
<mgrwt>
<rscale>  0 0.12500187E+03</rscale>
<asrwt>0</asrwt>
<pdfrwt beam="1">  1        4 0.83455696E-01 0.12500187E+03</pdfrwt>
<pdfrwt beam="2">  1       -4 0.29254794E-02 0.12500187E+03</pdfrwt>
<totfact> 0.11784282E+03</totfact>
</mgrwt>
</event>
<event>
 5    1  0.1433395E-002  0.1249975E+03  0.7818608E-02  0.1235073E+00
          4   -1    0    0  501    0  0.00000000000E+00  0.00000000000E+00  0.73534898640E+02  0.73545864724E+02  0.12700000000E+01 0.  1.
         -4   -1    0    0    0  501 -0.00000000000E+00 -0.00000000000E+00 -0.53096406071E+02  0.53111592310E+02  0.12700000000E+01 0.  1.
         25    2    1    2    0    0  0.00000000000E+00  0.00000000000E+00  0.20438492569E+02  0.12665745703E+03  0.12499751775E+03 0.  0.
    9000005    1    3    3    0    0 -0.30688633633E+02 -0.24633762222E+02 -0.38968994479E+02  0.55391308038E+02  0.10000000000E+01 0.  0.
    9000005    1    3    3    0    0  0.30688633633E+02  0.24633762222E+02  0.59407487048E+02  0.71266148996E+02  0.10000000000E+01 0.  0.
<mgrwt>
<rscale>  0 0.12499752E+03</rscale>
<asrwt>0</asrwt>
<pdfrwt beam="1">  1        4 0.18386994E-01 0.12499752E+03</pdfrwt>
<pdfrwt beam="2">  1       -4 0.13277371E-01 0.12499752E+03</pdfrwt>
<totfact> 0.19746580E+03</totfact>
</mgrwt>
</event>
<event>
 5    1  0.1433395E-002  0.1249908E+03  0.7818608E-02  0.1235084E+00
         -4   -1    0    0    0  501 -0.00000000000E+00  0.00000000000E+00  0.35903105026E+01  0.38083105841E+01  0.12700000000E+01 0. -1.
          4   -1    0    0  501    0  0.00000000000E+00 -0.00000000000E+00 -0.10555654739E+04  0.10555662379E+04  0.12700000000E+01 0. -1.
         25    2    1    2    0    0  0.00000000000E+00  0.00000000000E+00 -0.10519751634E+04  0.10593745485E+04  0.12499075792E+03 0.  0.
    9000005    1    3    3    0    0  0.46172285774E+02 -0.22687425538E+02 -0.82661222499E+03  0.82821215263E+03  0.10000000000E+01 0.  0.
    9000005    1    3    3    0    0 -0.46172285774E+02  0.22687425538E+02 -0.22536293840E+03  0.23116239585E+03  0.10000000000E+01 0.  0.
<mgrwt>
<rscale>  0 0.12499076E+03</rscale>
<asrwt>0</asrwt>
<pdfrwt beam="2">  1        4 0.26391768E+00 0.12499076E+03</pdfrwt>
<pdfrwt beam="1">  1       -4 0.92492675E-03 0.12499076E+03</pdfrwt>
<totfact> 0.33266630E+02</totfact>
</mgrwt>
</event>
<event>
 5    1  0.1433395E-002  0.1249986E+03  0.7818608E-02  0.1235072E+00
         -4   -1    0    0    0  501 -0.00000000000E+00  0.00000000000E+00  0.23284859056E+02  0.23319467430E+02  0.12700000000E+01 0.  1.
          4   -1    0    0  501    0  0.00000000000E+00 -0.00000000000E+00 -0.16759376451E+03  0.16759857637E+03  0.12700000000E+01 0.  1.
         25    2    1    2    0    0  0.00000000000E+00  0.00000000000E+00 -0.14430890545E+03  0.19091804380E+03  0.12499855702E+03 0.  0.
    9000005    1    3    3    0    0 -0.33493327653E+02  0.38459187614E+02 -0.12731416814E+03  0.13715250460E+03  0.10000000000E+01 0.  0.
    9000005    1    3    3    0    0  0.33493327653E+02 -0.38459187614E+02 -0.16994737311E+02  0.53765539200E+02  0.10000000000E+01 0.  0.
<mgrwt>
<rscale>  0 0.12499856E+03</rscale>
<asrwt>0</asrwt>
<pdfrwt beam="2">  1        4 0.41903365E-01 0.12499856E+03</pdfrwt>
<pdfrwt beam="1">  1       -4 0.58261428E-02 0.12499856E+03</pdfrwt>
<totfact> 0.16692832E+03</totfact>
</mgrwt>
</event>
<event>
 5    1  0.1433395E-002  0.1249981E+03  0.7818608E-02  0.1235072E+00
          4   -1    0    0  501    0  0.00000000000E+00  0.00000000000E+00  0.48232191622E+02  0.48248908885E+02  0.12700000000E+01 0. -1.
         -4   -1    0    0    0  501 -0.00000000000E+00 -0.00000000000E+00 -0.80950225575E+02  0.80960187257E+02  0.12700000000E+01 0. -1.
         25    2    1    2    0    0  0.00000000000E+00  0.00000000000E+00 -0.32718033954E+02  0.12920909614E+03  0.12499808311E+03 0.  0.
    9000005    1    3    3    0    0  0.54530152705E+02  0.10011164390E+02  0.13445817100E+02  0.57057435659E+02  0.10000000000E+01 0.  0.
    9000005    1    3    3    0    0 -0.54530152705E+02 -0.10011164390E+02 -0.46163851054E+02  0.72151660484E+02  0.10000000000E+01 0.  0.
<mgrwt>
<rscale>  0 0.12499808E+03</rscale>
<asrwt>0</asrwt>
<pdfrwt beam="1">  1        4 0.12061383E-01 0.12499808E+03</pdfrwt>
<pdfrwt beam="2">  1       -4 0.20240891E-01 0.12499808E+03</pdfrwt>
<totfact> 0.19607874E+03</totfact>
</mgrwt>
</event>
<event>
 5    1  0.1433395E-002  0.1250019E+03  0.7818608E-02  0.1235066E+00
          4   -1    0    0  501    0  0.00000000000E+00  0.00000000000E+00  0.33171941548E+02  0.33196243855E+02  0.12700000000E+01 0.  1.
         -4   -1    0    0    0  501 -0.00000000000E+00 -0.00000000000E+00 -0.11769045439E+03  0.11769730649E+03  0.12700000000E+01 0.  1.
         25    2    1    2    0    0  0.00000000000E+00  0.00000000000E+00 -0.84518512843E+02  0.15089355034E+03  0.12500193807E+03 0.  0.
    9000005    1    3    3    0    0  0.18487685750E+02  0.40416384521E+02 -0.95291864851E+02  0.10515140593E+03  0.10000000000E+01 0.  0.
    9000005    1    3    3    0    0 -0.18487685750E+02 -0.40416384521E+02  0.10773352008E+02  0.45742144415E+02  0.10000000000E+01 0.  0.
<mgrwt>
<rscale>  0 0.12500194E+03</rscale>
<asrwt>0</asrwt>
<pdfrwt beam="1">  1        4 0.82968800E-02 0.12500194E+03</pdfrwt>
<pdfrwt beam="2">  1       -4 0.29426507E-01 0.12500194E+03</pdfrwt>
<totfact> 0.18494098E+03</totfact>
</mgrwt>
</event>
<event>
 5    1  0.1433395E-002  0.1249970E+03  0.7818608E-02  0.1235074E+00
          4   -1    0    0  501    0  0.00000000000E+00  0.00000000000E+00  0.32939311351E+01  0.35302807711E+01  0.12700000000E+01 0. -1.
         -4   -1    0    0    0  501 -0.00000000000E+00 -0.00000000000E+00 -0.11445296453E+04  0.11445303499E+04  0.12700000000E+01 0. -1.
         25    2    1    2    0    0  0.00000000000E+00  0.00000000000E+00 -0.11412357141E+04  0.11480606306E+04  0.12499702572E+03 0.  0.
    9000005    1    3    3    0    0  0.16431076240E+02  0.35229518310E+02 -0.12122720640E+03  0.12731117311E+03  0.10000000000E+01 0.  0.
    9000005    1    3    3    0    0 -0.16431076240E+02 -0.35229518310E+02 -0.10200085077E+04  0.10207494575E+04  0.10000000000E+01 0.  0.
<mgrwt>
<rscale>  0 0.12499703E+03</rscale>
<asrwt>0</asrwt>
<pdfrwt beam="1">  1        4 0.85311849E-03 0.12499703E+03</pdfrwt>
<pdfrwt beam="2">  1       -4 0.28616073E+00 0.12499703E+03</pdfrwt>
<totfact> 0.28014756E+02</totfact>
</mgrwt>
</event>
<event>
 5    1  0.1433395E-002  0.1249991E+03  0.7818608E-02  0.1235071E+00
         -4   -1    0    0    0  501 -0.00000000000E+00  0.00000000000E+00  0.69887260289E+01  0.71031817876E+01  0.12700000000E+01 0. -1.
          4   -1    0    0  501    0  0.00000000000E+00 -0.00000000000E+00 -0.55427316360E+03  0.55427461857E+03  0.12700000000E+01 0. -1.
         25    2    1    2    0    0  0.00000000000E+00  0.00000000000E+00 -0.54728443758E+03  0.56137780036E+03  0.12499911649E+03 0.  0.
    9000005    1    3    3    0    0  0.23955625701E+02  0.27163703879E+02 -0.44930861770E+02  0.57719330822E+02  0.10000000000E+01 0.  0.
    9000005    1    3    3    0    0 -0.23955625701E+02 -0.27163703879E+02 -0.50235357581E+03  0.50365846954E+03  0.10000000000E+01 0.  0.
<mgrwt>
<rscale>  0 0.12499912E+03</rscale>
<asrwt>0</asrwt>
<pdfrwt beam="2">  1        4 0.13858263E+00 0.12499912E+03</pdfrwt>
<pdfrwt beam="1">  1       -4 0.17616722E-02 0.12499912E+03</pdfrwt>
<totfact> 0.78589155E+02</totfact>
</mgrwt>
</event>
<event>
 5    1  0.1433395E-002  0.1249996E+03  0.7818608E-02  0.1235070E+00
          4   -1    0    0  501    0  0.00000000000E+00  0.00000000000E+00  0.78088545668E+02  0.78098872364E+02  0.12700000000E+01 0. -1.
         -4   -1    0    0    0  501 -0.00000000000E+00 -0.00000000000E+00 -0.50001327158E+02  0.50017453130E+02  0.12700000000E+01 0. -1.
         25    2    1    2    0    0  0.00000000000E+00  0.00000000000E+00  0.28087218510E+02  0.12811632549E+03  0.12499960406E+03 0.  0.
    9000005    1    3    3    0    0  0.54367990956E+02 -0.29032795851E+01 -0.17395604362E+02  0.57165676101E+02  0.10000000000E+01 0.  0.
    9000005    1    3    3    0    0 -0.54367990956E+02  0.29032795851E+01  0.45482822871E+02  0.70950649393E+02  0.10000000000E+01 0.  0.
<mgrwt>
<rscale>  0 0.12499960E+03</rscale>
<asrwt>0</asrwt>
<pdfrwt beam="1">  1        4 0.19525443E-01 0.12499960E+03</pdfrwt>
<pdfrwt beam="2">  1       -4 0.12503638E-01 0.12499960E+03</pdfrwt>
<totfact> 0.19666389E+03</totfact>
</mgrwt>
</event>
<event>
 5    1  0.1433395E-002  0.1250005E+03  0.7818608E-02  0.1235068E+00
          4   -1    0    0  501    0  0.00000000000E+00  0.00000000000E+00  0.54581231659E+01  0.56039279523E+01  0.12700000000E+01 0.  1.
         -4   -1    0    0    0  501 -0.00000000000E+00 -0.00000000000E+00 -0.70610303009E+03  0.70610417220E+03  0.12700000000E+01 0.  1.
         25    2    1    2    0    0  0.00000000000E+00  0.00000000000E+00 -0.70064490692E+03  0.71170810015E+03  0.12500053691E+03 0.  0.
    9000005    1    3    3    0    0 -0.12218087614E+02 -0.37809916228E+02 -0.75701698475E+02  0.85502155424E+02  0.10000000000E+01 0.  0.
    9000005    1    3    3    0    0  0.12218087614E+02  0.37809916228E+02 -0.62494320845E+03  0.62620594473E+03  0.10000000000E+01 0.  0.
<mgrwt>
<rscale>  0 0.12500054E+03</rscale>
<asrwt>0</asrwt>
<pdfrwt beam="1">  1        4 0.13829016E-02 0.12500054E+03</pdfrwt>
<pdfrwt beam="2">  1       -4 0.17654382E+00 0.12500054E+03</pdfrwt>
<totfact> 0.60854780E+02</totfact>
</mgrwt>
</event>
<event>
 5    1  0.1433395E-002  0.1250017E+03  0.7818608E-02  0.1235067E+00
         -4   -1    0    0    0  501 -0.00000000000E+00  0.00000000000E+00  0.63402178168E+02  0.63414896487E+02  0.12700000000E+01 0. -1.
          4   -1    0    0  501    0  0.00000000000E+00 -0.00000000000E+00 -0.61586882798E+02  0.61599975916E+02  0.12700000000E+01 0. -1.
         25    2    1    2    0    0  0.00000000000E+00  0.00000000000E+00  0.18152953694E+01  0.12501487240E+03  0.12500169209E+03 0.  0.
    9000005    1    3    3    0    0  0.21504332992E+02  0.52757095218E+02 -0.24777901362E+02  0.62134465711E+02  0.10000000000E+01 0.  0.
    9000005    1    3    3    0    0 -0.21504332992E+02 -0.52757095218E+02  0.26593196731E+02  0.62880406691E+02  0.10000000000E+01 0.  0.
<mgrwt>
<rscale>  0 0.12500169E+03</rscale>
<asrwt>0</asrwt>
<pdfrwt beam="2">  1        4 0.15399947E-01 0.12500169E+03</pdfrwt>
<pdfrwt beam="1">  1       -4 0.15853771E-01 0.12500169E+03</pdfrwt>
<totfact> 0.19833464E+03</totfact>
</mgrwt>
</event>
<event>
 5    1  0.1433395E-002  0.1249987E+03  0.7818608E-02  0.1235071E+00
          4   -1    0    0  501    0  0.00000000000E+00  0.00000000000E+00  0.14504794827E+03  0.14505350805E+03  0.12700000000E+01 0.  1.
         -4   -1    0    0    0  501 -0.00000000000E+00 -0.00000000000E+00 -0.26909142356E+02  0.26939095054E+02  0.12700000000E+01 0.  1.
         25    2    1    2    0    0  0.00000000000E+00  0.00000000000E+00  0.11813880591E+03  0.17199260310E+03  0.12499871223E+03 0.  0.
    9000005    1    3    3    0    0 -0.28575756502E+02  0.27995101042E+02 -0.69889050747E+01  0.40621968640E+02  0.10000000000E+01 0.  0.
    9000005    1    3    3    0    0  0.28575756502E+02 -0.27995101042E+02  0.12512771099E+03  0.13137063446E+03  0.10000000000E+01 0.  0.
<mgrwt>
<rscale>  0 0.12499871E+03</rscale>
<asrwt>0</asrwt>
<pdfrwt beam="1">  1        4 0.36266426E-01 0.12499871E+03</pdfrwt>
<pdfrwt beam="2">  1       -4 0.67317247E-02 0.12499871E+03</pdfrwt>
<totfact> 0.17508068E+03</totfact>
</mgrwt>
</event>
<event>
 5    1  0.1433395E-002  0.1249887E+03  0.7818608E-02  0.1235087E+00
         -4   -1    0    0    0  501 -0.00000000000E+00  0.00000000000E+00  0.34132323846E+02  0.34155942837E+02  0.12700000000E+01 0. -1.
          4   -1    0    0  501    0  0.00000000000E+00 -0.00000000000E+00 -0.11435681914E+03  0.11436387098E+03  0.12700000000E+01 0. -1.
         25    2    1    2    0    0  0.00000000000E+00  0.00000000000E+00 -0.80224495298E+02  0.14851981381E+03  0.12498866128E+03 0.  0.
    9000005    1    3    3    0    0  0.47051749246E+02 -0.32713727119E+02 -0.69711441482E+02  0.90248213958E+02  0.10000000000E+01 0.  0.
    9000005    1    3    3    0    0 -0.47051749246E+02  0.32713727119E+02 -0.10513053816E+02  0.58271599855E+02  0.10000000000E+01 0.  0.
<mgrwt>
<rscale>  0 0.12498866E+03</rscale>
<asrwt>0</asrwt>
<pdfrwt beam="2">  1        4 0.28593038E-01 0.12498866E+03</pdfrwt>
<pdfrwt beam="1">  1       -4 0.85369151E-02 0.12498866E+03</pdfrwt>
<totfact> 0.18616715E+03</totfact>
</mgrwt>
</event>
<event>
 5    1  0.1433395E-002  0.1250003E+03  0.7818608E-02  0.1235069E+00
         -4   -1    0    0    0  501 -0.00000000000E+00  0.00000000000E+00  0.71127537493E+02  0.71138874673E+02  0.12700000000E+01 0. -1.
          4   -1    0    0  501    0  0.00000000000E+00 -0.00000000000E+00 -0.54896161476E+02  0.54910849973E+02  0.12700000000E+01 0. -1.
         25    2    1    2    0    0  0.00000000000E+00  0.00000000000E+00  0.16231376017E+02  0.12604972465E+03  0.12500030206E+03 0.  0.
    9000005    1    3    3    0    0  0.58580602281E+02 -0.17872905928E+02  0.20635278828E+02  0.64637005362E+02  0.10000000000E+01 0.  0.
    9000005    1    3    3    0    0 -0.58580602281E+02  0.17872905928E+02 -0.44039028113E+01  0.61412719284E+02  0.10000000000E+01 0.  0.
<mgrwt>
<rscale>  0 0.12500030E+03</rscale>
<asrwt>0</asrwt>
<pdfrwt beam="2">  1        4 0.13727294E-01 0.12500030E+03</pdfrwt>
<pdfrwt beam="1">  1       -4 0.17785137E-01 0.12500030E+03</pdfrwt>
<totfact> 0.19778093E+03</totfact>
</mgrwt>
</event>
<event>
 5    1  0.1433395E-002  0.1250202E+03  0.7818608E-02  0.1235038E+00
         -4   -1    0    0    0  501 -0.00000000000E+00  0.00000000000E+00  0.29598284286E+02  0.29625518268E+02  0.12700000000E+01 0.  1.
          4   -1    0    0  501    0  0.00000000000E+00 -0.00000000000E+00 -0.13192711930E+03  0.13193323200E+03  0.12700000000E+01 0.  1.
         25    2    1    2    0    0  0.00000000000E+00  0.00000000000E+00 -0.10232883501E+03  0.16155875027E+03  0.12502015563E+03 0.  0.
    9000005    1    3    3    0    0 -0.17322337134E+02  0.42307545828E+02  0.39125862722E+01  0.45894445515E+02  0.10000000000E+01 0.  0.
    9000005    1    3    3    0    0  0.17322337134E+02 -0.42307545828E+02 -0.10624142128E+03  0.11566430475E+03  0.10000000000E+01 0.  0.
<mgrwt>
<rscale>  0 0.12502016E+03</rscale>
<asrwt>0</asrwt>
<pdfrwt beam="2">  1        4 0.32985947E-01 0.12502016E+03</pdfrwt>
<pdfrwt beam="1">  1       -4 0.74037397E-02 0.12502016E+03</pdfrwt>
<totfact> 0.17976222E+03</totfact>
</mgrwt>
</event>
<event>
 5    1  0.1433395E-002  0.1250028E+03  0.7818608E-02  0.1235065E+00
         -4   -1    0    0    0  501 -0.00000000000E+00  0.00000000000E+00  0.23699244412E+02  0.23733248528E+02  0.12700000000E+01 0.  1.
          4   -1    0    0  501    0  0.00000000000E+00 -0.00000000000E+00 -0.16467867850E+03  0.16468357554E+03  0.12700000000E+01 0.  1.
         25    2    1    2    0    0  0.00000000000E+00  0.00000000000E+00 -0.14097943409E+03  0.18841682407E+03  0.12500279499E+03 0.  0.
    9000005    1    3    3    0    0 -0.60142390650E+02  0.83719414865E+01 -0.48223044489E+02  0.77547782542E+02  0.10000000000E+01 0.  0.
    9000005    1    3    3    0    0  0.60142390650E+02 -0.83719414865E+01 -0.92756389599E+02  0.11086904153E+03  0.10000000000E+01 0.  0.
<mgrwt>
<rscale>  0 0.12500279E+03</rscale>
<asrwt>0</asrwt>
<pdfrwt beam="2">  1        4 0.41174529E-01 0.12500279E+03</pdfrwt>
<pdfrwt beam="1">  1       -4 0.59296742E-02 0.12500279E+03</pdfrwt>
<totfact> 0.16795517E+03</totfact>
</mgrwt>
</event>
<event>
 5    1  0.1433395E-002  0.1249999E+03  0.7818608E-02  0.1235069E+00
         -4   -1    0    0    0  501 -0.00000000000E+00  0.00000000000E+00  0.34385824969E+01  0.36656172179E+01  0.12700000000E+01 0. -1.
          4   -1    0    0  501    0  0.00000000000E+00 -0.00000000000E+00 -0.10994720788E+04  0.10994728122E+04  0.12700000000E+01 0. -1.
         25    2    1    2    0    0  0.00000000000E+00  0.00000000000E+00 -0.10960334963E+04  0.11031384295E+04  0.12499987854E+03 0.  0.
    9000005    1    3    3    0    0  0.49557959940E+02  0.37776121653E+02 -0.50642090653E+03  0.51024127756E+03  0.10000000000E+01 0.  0.
    9000005    1    3    3    0    0 -0.49557959940E+02 -0.37776121653E+02 -0.58961258974E+03  0.59289715191E+03  0.10000000000E+01 0.  0.
<mgrwt>
<rscale>  0 0.12499988E+03</rscale>
<asrwt>0</asrwt>
<pdfrwt beam="2">  1        4 0.27489532E+00 0.12499988E+03</pdfrwt>
<pdfrwt beam="1">  1       -4 0.88812042E-03 0.12499988E+03</pdfrwt>
<totfact> 0.30597210E+02</totfact>
</mgrwt>
</event>
<event>
 5    1  0.1433395E-002  0.1250084E+03  0.7818608E-02  0.1235056E+00
         -4   -1    0    0    0  501 -0.00000000000E+00  0.00000000000E+00  0.55130478433E+03  0.55130624713E+03  0.12700000000E+01 0.  1.
          4   -1    0    0  501    0  0.00000000000E+00 -0.00000000000E+00 -0.70280256892E+01  0.71418516568E+01  0.12700000000E+01 0.  1.
         25    2    1    2    0    0  0.00000000000E+00  0.00000000000E+00  0.54427675864E+03  0.55844809878E+03  0.12500835589E+03 0.  0.
    9000005    1    3    3    0    0  0.28199648636E+02 -0.40599651729E+02  0.44296289035E+03  0.44571366832E+03  0.10000000000E+01 0.  0.
    9000005    1    3    3    0    0 -0.28199648636E+02  0.40599651729E+02  0.10131386829E+03  0.11273443046E+03  0.10000000000E+01 0.  0.
<mgrwt>
<rscale>  0 0.12500836E+03</rscale>
<asrwt>0</asrwt>
<pdfrwt beam="2">  1        4 0.17714176E-02 0.12500836E+03</pdfrwt>
<pdfrwt beam="1">  1       -4 0.13784060E+00 0.12500836E+03</pdfrwt>
<totfact> 0.78977401E+02</totfact>
</mgrwt>
</event>
<event>
 5    1  0.1433395E-002  0.1250007E+03  0.7818608E-02  0.1235068E+00
         -4   -1    0    0    0  501 -0.00000000000E+00  0.00000000000E+00  0.37718725360E+03  0.37718939165E+03  0.12700000000E+01 0. -1.
          4   -1    0    0  501    0  0.00000000000E+00 -0.00000000000E+00 -0.10315273038E+02  0.10393159185E+02  0.12700000000E+01 0. -1.
         25    2    1    2    0    0  0.00000000000E+00  0.00000000000E+00  0.36687198056E+03  0.38758255084E+03  0.12500073438E+03 0.  0.
    9000005    1    3    3    0    0  0.20643679856E+02  0.14413845789E+02  0.60918489091E+01  0.25923562478E+02  0.10000000000E+01 0.  0.
    9000005    1    3    3    0    0 -0.20643679856E+02 -0.14413845789E+02  0.36078013165E+03  0.36165898836E+03  0.10000000000E+01 0.  0.
<mgrwt>
<rscale>  0 0.12500073E+03</rscale>
<asrwt>0</asrwt>
<pdfrwt beam="2">  1        4 0.25888214E-02 0.12500073E+03</pdfrwt>
<pdfrwt beam="1">  1       -4 0.94306811E-01 0.12500073E+03</pdfrwt>
<totfact> 0.10829348E+03</totfact>
</mgrwt>
</event>
<event>
 5    1  0.1433395E-002  0.1250030E+03  0.7818608E-02  0.1235065E+00
          4   -1    0    0  501    0  0.00000000000E+00  0.00000000000E+00  0.35030905484E+02  0.35053919025E+02  0.12700000000E+01 0. -1.
         -4   -1    0    0    0  501 -0.00000000000E+00 -0.00000000000E+00 -0.11145084199E+03  0.11145807768E+03  0.12700000000E+01 0. -1.
         25    2    1    2    0    0  0.00000000000E+00  0.00000000000E+00 -0.76419936503E+02  0.14651199670E+03  0.12500303389E+03 0.  0.
    9000005    1    3    3    0    0  0.30595090013E+02  0.28239792740E+02  0.16412581072E+02  0.44765145419E+02  0.10000000000E+01 0.  0.
    9000005    1    3    3    0    0 -0.30595090013E+02 -0.28239792740E+02 -0.92832517575E+02  0.10174685128E+03  0.10000000000E+01 0.  0.
<mgrwt>
<rscale>  0 0.12500303E+03</rscale>
<asrwt>0</asrwt>
<pdfrwt beam="1">  1        4 0.87615078E-02 0.12500303E+03</pdfrwt>
<pdfrwt beam="2">  1       -4 0.27866491E-01 0.12500303E+03</pdfrwt>
<totfact> 0.18710305E+03</totfact>
</mgrwt>
</event>
<event>
 5    1  0.1433395E-002  0.1249991E+03  0.7818608E-02  0.1235071E+00
         -4   -1    0    0    0  501 -0.00000000000E+00  0.00000000000E+00  0.83808659665E+03  0.83808755890E+03  0.12700000000E+01 0.  1.
          4   -1    0    0  501    0  0.00000000000E+00 -0.00000000000E+00 -0.45733538955E+01  0.47464161062E+01  0.12700000000E+01 0.  1.
         25    2    1    2    0    0  0.00000000000E+00  0.00000000000E+00  0.83351324276E+03  0.84283397501E+03  0.12499913431E+03 0.  0.
    9000005    1    3    3    0    0  0.55835348796E+02 -0.27858073664E+02  0.39385374811E+03  0.39876739252E+03  0.10000000000E+01 0.  0.
    9000005    1    3    3    0    0 -0.55835348796E+02  0.27858073664E+02  0.43965949465E+03  0.44406658249E+03  0.10000000000E+01 0.  0.
<mgrwt>
<rscale>  0 0.12499913E+03</rscale>
<asrwt>0</asrwt>
<pdfrwt beam="2">  1        4 0.11650916E-02 0.12499913E+03</pdfrwt>
<pdfrwt beam="1">  1       -4 0.20954339E+00 0.12499913E+03</pdfrwt>
<totfact> 0.48821924E+02</totfact>
</mgrwt>
</event>
<event>
 5    1  0.1433395E-002  0.1250013E+03  0.7818608E-02  0.1235067E+00
          4   -1    0    0  501    0  0.00000000000E+00  0.00000000000E+00  0.45649391543E+02  0.45667054298E+02  0.12700000000E+01 0. -1.
         -4   -1    0    0    0  501 -0.00000000000E+00 -0.00000000000E+00 -0.85533500643E+02  0.85542928593E+02  0.12700000000E+01 0. -1.
         25    2    1    2    0    0  0.00000000000E+00  0.00000000000E+00 -0.39884109100E+02  0.13120998289E+03  0.12500126980E+03 0.  0.
    9000005    1    3    3    0    0  0.27481212918E+02 -0.12451861282E+02 -0.77387482321E+02  0.83066770329E+02  0.10000000000E+01 0.  0.
    9000005    1    3    3    0    0 -0.27481212918E+02  0.12451861282E+02  0.37503373221E+02  0.48143212562E+02  0.10000000000E+01 0.  0.
<mgrwt>
<rscale>  0 0.12500127E+03</rscale>
<asrwt>0</asrwt>
<pdfrwt beam="1">  1        4 0.11415734E-01 0.12500127E+03</pdfrwt>
<pdfrwt beam="2">  1       -4 0.21386761E-01 0.12500127E+03</pdfrwt>
<totfact> 0.19498976E+03</totfact>
</mgrwt>
</event>
<event>
 5    1  0.1433395E-002  0.1250263E+03  0.7818608E-02  0.1235028E+00
         -4   -1    0    0    0  501 -0.00000000000E+00  0.00000000000E+00  0.36180383111E+02  0.36202665953E+02  0.12700000000E+01 0.  1.
          4   -1    0    0  501    0  0.00000000000E+00 -0.00000000000E+00 -0.10795211173E+03  0.10795958191E+03  0.12700000000E+01 0.  1.
         25    2    1    2    0    0  0.00000000000E+00  0.00000000000E+00 -0.71771728618E+02  0.14416224787E+03  0.12502628796E+03 0.  0.
    9000005    1    3    3    0    0 -0.47639189244E+02 -0.26612040500E+02 -0.73752286206E+00  0.54582387190E+02  0.10000000000E+01 0.  0.
    9000005    1    3    3    0    0  0.47639189244E+02  0.26612040500E+02 -0.71034205756E+02  0.89579860676E+02  0.10000000000E+01 0.  0.
<mgrwt>
<rscale>  0 0.12502629E+03</rscale>
<asrwt>0</asrwt>
<pdfrwt beam="2">  1        4 0.26991746E-01 0.12502629E+03</pdfrwt>
<pdfrwt beam="1">  1       -4 0.90488151E-02 0.12502629E+03</pdfrwt>
<totfact> 0.18817863E+03</totfact>
</mgrwt>
</event>
<event>
 5    1  0.1433395E-002  0.1249941E+03  0.7818608E-02  0.1235078E+00
          4   -1    0    0  501    0  0.00000000000E+00  0.00000000000E+00  0.19243328896E+02  0.19285191392E+02  0.12700000000E+01 0.  1.
         -4   -1    0    0    0  501 -0.00000000000E+00 -0.00000000000E+00 -0.20270893495E+03  0.20271291327E+03  0.12700000000E+01 0.  1.
         25    2    1    2    0    0  0.00000000000E+00  0.00000000000E+00 -0.18346560605E+03  0.22199810466E+03  0.12499411934E+03 0.  0.
    9000005    1    3    3    0    0 -0.12669285942E+02 -0.42200900919E+02 -0.13033618800E+02  0.45959787463E+02  0.10000000000E+01 0.  0.
    9000005    1    3    3    0    0  0.12669285942E+02  0.42200900919E+02 -0.17043198725E+03  0.17603831720E+03  0.10000000000E+01 0.  0.
<mgrwt>
<rscale>  0 0.12499412E+03</rscale>
<asrwt>0</asrwt>
<pdfrwt beam="1">  1        4 0.48165630E-02 0.12499412E+03</pdfrwt>
<pdfrwt beam="2">  1       -4 0.50682957E-01 0.12499412E+03</pdfrwt>
<totfact> 0.15479616E+03</totfact>
</mgrwt>
</event>
<event>
 5    1  0.1433395E-002  0.1249998E+03  0.7818608E-02  0.1235070E+00
         -4   -1    0    0    0  501 -0.00000000000E+00  0.00000000000E+00  0.33155687272E+02  0.33180001484E+02  0.12700000000E+01 0. -1.
          4   -1    0    0  501    0  0.00000000000E+00 -0.00000000000E+00 -0.11774401321E+03  0.11775086220E+03  0.12700000000E+01 0. -1.
         25    2    1    2    0    0  0.00000000000E+00  0.00000000000E+00 -0.84588325943E+02  0.15093086368E+03  0.12499976290E+03 0.  0.
    9000005    1    3    3    0    0  0.89231187356E+01 -0.72977564646E+01 -0.11645509798E+03  0.11702849714E+03  0.10000000000E+01 0.  0.
    9000005    1    3    3    0    0 -0.89231187356E+01  0.72977564646E+01  0.31866772034E+02  0.33902366543E+02  0.10000000000E+01 0.  0.
<mgrwt>
<rscale>  0 0.12499976E+03</rscale>
<asrwt>0</asrwt>
<pdfrwt beam="2">  1        4 0.29439898E-01 0.12499976E+03</pdfrwt>
<pdfrwt beam="1">  1       -4 0.82928175E-02 0.12499976E+03</pdfrwt>
<totfact> 0.18493207E+03</totfact>
</mgrwt>
</event>
<event>
 5    1  0.1433395E-002  0.1250014E+03  0.7818608E-02  0.1235067E+00
          4   -1    0    0  501    0  0.00000000000E+00  0.00000000000E+00  0.19081297641E+03  0.19081720275E+03  0.12700000000E+01 0. -1.
         -4   -1    0    0    0  501 -0.00000000000E+00 -0.00000000000E+00 -0.20447927885E+02  0.20487329127E+02  0.12700000000E+01 0. -1.
         25    2    1    2    0    0  0.00000000000E+00  0.00000000000E+00  0.17036504852E+03  0.21130453188E+03  0.12500142173E+03 0.  0.
    9000005    1    3    3    0    0  0.25113977992E+01  0.71423196751E+00  0.19072902321E+03  0.19074951518E+03  0.10000000000E+01 0.  0.
    9000005    1    3    3    0    0 -0.25113977992E+01 -0.71423196751E+00 -0.20363974690E+02  0.20555016696E+02  0.10000000000E+01 0.  0.
<mgrwt>
<rscale>  0 0.12500142E+03</rscale>
<asrwt>0</asrwt>
<pdfrwt beam="1">  1        4 0.47708698E-01 0.12500142E+03</pdfrwt>
<pdfrwt beam="2">  1       -4 0.51174354E-02 0.12500142E+03</pdfrwt>
<totfact> 0.15878658E+03</totfact>
</mgrwt>
</event>
<event>
 5    1  0.1433395E-002  0.1249961E+03  0.7818608E-02  0.1235075E+00
          4   -1    0    0  501    0  0.00000000000E+00  0.00000000000E+00  0.56779797520E+03  0.56779939551E+03  0.12700000000E+01 0.  1.
         -4   -1    0    0    0  501 -0.00000000000E+00 -0.00000000000E+00 -0.68191571462E+01  0.69364114775E+01  0.12700000000E+01 0.  1.
         25    2    1    2    0    0  0.00000000000E+00  0.00000000000E+00  0.56097881806E+03  0.57473580699E+03  0.12499605405E+03 0.  0.
    9000005    1    3    3    0    0 -0.80942899358E+01  0.53754915794E+02  0.42220242001E+03  0.42568884407E+03  0.10000000000E+01 0.  0.
    9000005    1    3    3    0    0  0.80942899358E+01 -0.53754915794E+02  0.13877639805E+03  0.14904696292E+03  0.10000000000E+01 0.  0.
<mgrwt>
<rscale>  0 0.12499605E+03</rscale>
<asrwt>0</asrwt>
<pdfrwt beam="1">  1        4 0.14196431E+00 0.12499605E+03</pdfrwt>
<pdfrwt beam="2">  1       -4 0.17196239E-02 0.12499605E+03</pdfrwt>
<totfact> 0.76783437E+02</totfact>
</mgrwt>
</event>
<event>
 5    1  0.1433395E-002  0.1249997E+03  0.7818608E-02  0.1235070E+00
          4   -1    0    0  501    0  0.00000000000E+00  0.00000000000E+00  0.38065130944E+02  0.38086311107E+02  0.12700000000E+01 0. -1.
         -4   -1    0    0    0  501 -0.00000000000E+00 -0.00000000000E+00 -0.10256594075E+03  0.10257380320E+03  0.12700000000E+01 0. -1.
         25    2    1    2    0    0  0.00000000000E+00  0.00000000000E+00 -0.64500809810E+02  0.14066011431E+03  0.12499965316E+03 0.  0.
    9000005    1    3    3    0    0  0.20660222845E+02 -0.52098720154E+02 -0.11447599159E+01  0.56066317206E+02  0.10000000000E+01 0.  0.
    9000005    1    3    3    0    0 -0.20660222845E+02  0.52098720154E+02 -0.63356049894E+02  0.84593797101E+02  0.10000000000E+01 0.  0.
<mgrwt>
<rscale>  0 0.12499965E+03</rscale>
<asrwt>0</asrwt>
<pdfrwt beam="1">  1        4 0.95199132E-02 0.12499965E+03</pdfrwt>
<pdfrwt beam="2">  1       -4 0.25645115E-01 0.12499965E+03</pdfrwt>
<totfact> 0.19006776E+03</totfact>
</mgrwt>
</event>
<event>
 5    1  0.1433395E-002  0.1250026E+03  0.7818608E-02  0.1235065E+00
          4   -1    0    0  501    0  0.00000000000E+00  0.00000000000E+00  0.13144684064E+03  0.13145297568E+03  0.12700000000E+01 0. -1.
         -4   -1    0    0    0  501 -0.00000000000E+00 -0.00000000000E+00 -0.29698183157E+02  0.29725325614E+02  0.12700000000E+01 0. -1.
         25    2    1    2    0    0  0.00000000000E+00  0.00000000000E+00  0.10174865748E+03  0.16117830129E+03  0.12500262200E+03 0.  0.
    9000005    1    3    3    0    0 -0.13191145736E+02  0.60663575077E+02  0.60112963802E+02  0.86421317301E+02  0.10000000000E+01 0.  0.
    9000005    1    3    3    0    0  0.13191145736E+02 -0.60663575077E+02  0.41635693682E+02  0.74756983990E+02  0.10000000000E+01 0.  0.
<mgrwt>
<rscale>  0 0.12500262E+03</rscale>
<asrwt>0</asrwt>
<pdfrwt beam="1">  1        4 0.32865869E-01 0.12500262E+03</pdfrwt>
<pdfrwt beam="2">  1       -4 0.74287056E-02 0.12500262E+03</pdfrwt>
<totfact> 0.18001345E+03</totfact>
</mgrwt>
</event>
<event>
 5    1  0.1433395E-002  0.1249939E+03  0.7818608E-02  0.1235079E+00
          4   -1    0    0  501    0  0.00000000000E+00  0.00000000000E+00  0.13749780734E+03  0.13750367240E+03  0.12700000000E+01 0.  1.
         -4   -1    0    0    0  501 -0.00000000000E+00 -0.00000000000E+00 -0.28386100250E+02  0.28414496079E+02  0.12700000000E+01 0.  1.
         25    2    1    2    0    0  0.00000000000E+00  0.00000000000E+00  0.10911170709E+03  0.16591816848E+03  0.12499389588E+03 0.  0.
    9000005    1    3    3    0    0  0.25520288382E+02  0.15499513854E+02 -0.18310966634E+02  0.35040141950E+02  0.10000000000E+01 0.  0.
    9000005    1    3    3    0    0 -0.25520288382E+02 -0.15499513854E+02  0.12742267372E+03  0.13087802653E+03  0.10000000000E+01 0.  0.
<mgrwt>
<rscale>  0 0.12499390E+03</rscale>
<asrwt>0</asrwt>
<pdfrwt beam="1">  1        4 0.34378734E-01 0.12499390E+03</pdfrwt>
<pdfrwt beam="2">  1       -4 0.71008078E-02 0.12499390E+03</pdfrwt>
<totfact> 0.17785263E+03</totfact>
</mgrwt>
</event>
<event>
 5    1  0.1433395E-002  0.1250011E+03  0.7818608E-02  0.1235068E+00
         -4   -1    0    0    0  501 -0.00000000000E+00  0.00000000000E+00  0.22955886990E+03  0.22956238292E+03  0.12700000000E+01 0.  1.
          4   -1    0    0  501    0  0.00000000000E+00 -0.00000000000E+00 -0.16989275726E+02  0.17036677778E+02  0.12700000000E+01 0.  1.
         25    2    1    2    0    0  0.00000000000E+00  0.00000000000E+00  0.21256959417E+03  0.24659906069E+03  0.12500105747E+03 0.  0.
    9000005    1    3    3    0    0 -0.59483884861E+02  0.18069721883E+01  0.14390839793E+03  0.15573125794E+03  0.10000000000E+01 0.  0.
    9000005    1    3    3    0    0  0.59483884861E+02 -0.18069721883E+01  0.68661196249E+02  0.90867802753E+02  0.10000000000E+01 0.  0.
<mgrwt>
<rscale>  0 0.12500106E+03</rscale>
<asrwt>0</asrwt>
<pdfrwt beam="2">  1        4 0.42536833E-02 0.12500106E+03</pdfrwt>
<pdfrwt beam="1">  1       -4 0.57396083E-01 0.12500106E+03</pdfrwt>
<totfact> 0.14611425E+03</totfact>
</mgrwt>
</event>
<event>
 5    1  0.1433395E-002  0.1249639E+03  0.7818608E-02  0.1235126E+00
         -4   -1    0    0    0  501 -0.00000000000E+00  0.00000000000E+00  0.48165370072E+01  0.49811573697E+01  0.12700000000E+01 0.  1.
          4   -1    0    0  501    0  0.00000000000E+00 -0.00000000000E+00 -0.79675558237E+03  0.79675659453E+03  0.12700000000E+01 0.  1.
         25    2    1    2    0    0  0.00000000000E+00  0.00000000000E+00 -0.79193904536E+03  0.80173775190E+03  0.12496387983E+03 0.  0.
    9000005    1    3    3    0    0 -0.70984627673E+01 -0.24990768883E+02 -0.76048757724E+03  0.76093185098E+03  0.10000000000E+01 0.  0.
    9000005    1    3    3    0    0  0.70984627673E+01  0.24990768883E+02 -0.31451468117E+02  0.40805900919E+02  0.10000000000E+01 0.  0.
<mgrwt>
<rscale>  0 0.12496388E+03</rscale>
<asrwt>0</asrwt>
<pdfrwt beam="2">  1        4 0.19920916E+00 0.12496388E+03</pdfrwt>
<pdfrwt beam="1">  1       -4 0.12248410E-02 0.12496388E+03</pdfrwt>
<totfact> 0.52367907E+02</totfact>
</mgrwt>
</event>
<event>
 5    1  0.1433395E-002  0.1249924E+03  0.7818608E-02  0.1235081E+00
          4   -1    0    0  501    0  0.00000000000E+00  0.00000000000E+00  0.12107002597E+03  0.12107668681E+03  0.12700000000E+01 0.  1.
         -4   -1    0    0    0  501 -0.00000000000E+00 -0.00000000000E+00 -0.32240428512E+02  0.32265432441E+02  0.12700000000E+01 0.  1.
         25    2    1    2    0    0  0.00000000000E+00  0.00000000000E+00  0.88829597462E+02  0.15334211925E+03  0.12499243238E+03 0.  0.
    9000005    1    3    3    0    0  0.13248187042E+02  0.58240225275E+02  0.21882222481E+02  0.63618157476E+02  0.10000000000E+01 0.  0.
    9000005    1    3    3    0    0 -0.13248187042E+02 -0.58240225275E+02  0.66947374981E+02  0.89723961777E+02  0.10000000000E+01 0.  0.
<mgrwt>
<rscale>  0 0.12499243E+03</rscale>
<asrwt>0</asrwt>
<pdfrwt beam="1">  1        4 0.30271464E-01 0.12499243E+03</pdfrwt>
<pdfrwt beam="2">  1       -4 0.80640653E-02 0.12499243E+03</pdfrwt>
<totfact> 0.18378896E+03</totfact>
</mgrwt>
</event>
<event>
 5    1  0.1433395E-002  0.1250005E+03  0.7818608E-02  0.1235068E+00
         -4   -1    0    0    0  501 -0.00000000000E+00  0.00000000000E+00  0.10589617965E+04  0.10589625581E+04  0.12700000000E+01 0.  1.
          4   -1    0    0  501    0  0.00000000000E+00 -0.00000000000E+00 -0.35786893881E+01  0.37973566775E+01  0.12700000000E+01 0.  1.
         25    2    1    2    0    0  0.00000000000E+00  0.00000000000E+00  0.10553831072E+04  0.10627599148E+04  0.12500053428E+03 0.  0.
    9000005    1    3    3    0    0  0.46061019853E+02  0.37381577172E+02  0.69479153138E+03  0.69732006420E+03  0.10000000000E+01 0.  0.
    9000005    1    3    3    0    0 -0.46061019853E+02 -0.37381577172E+02  0.36059157578E+03  0.36543985057E+03  0.10000000000E+01 0.  0.
<mgrwt>
<rscale>  0 0.12500053E+03</rscale>
<asrwt>0</asrwt>
<pdfrwt beam="2">  1        4 0.92210136E-03 0.12500053E+03</pdfrwt>
<pdfrwt beam="1">  1       -4 0.26476776E+00 0.12500053E+03</pdfrwt>
<totfact> 0.33048114E+02</totfact>
</mgrwt>
</event>
<event>
 5    1  0.1433395E-002  0.1249965E+03  0.7818608E-02  0.1235075E+00
          4   -1    0    0  501    0  0.00000000000E+00  0.00000000000E+00  0.82412511982E+02  0.82422296930E+02  0.12700000000E+01 0. -1.
         -4   -1    0    0    0  501 -0.00000000000E+00 -0.00000000000E+00 -0.47374995424E+02  0.47392015059E+02  0.12700000000E+01 0. -1.
         25    2    1    2    0    0  0.00000000000E+00  0.00000000000E+00  0.35037516558E+02  0.12981431199E+03  0.12499651207E+03 0.  0.
    9000005    1    3    3    0    0  0.31628201729E+02  0.45981929726E+02  0.46715519993E+02  0.72787504519E+02  0.10000000000E+01 0.  0.
    9000005    1    3    3    0    0 -0.31628201729E+02 -0.45981929726E+02 -0.11678003434E+02  0.57026807470E+02  0.10000000000E+01 0.  0.
<mgrwt>
<rscale>  0 0.12499651E+03</rscale>
<asrwt>0</asrwt>
<pdfrwt beam="1">  1        4 0.20606478E-01 0.12499651E+03</pdfrwt>
<pdfrwt beam="2">  1       -4 0.11847100E-01 0.12499651E+03</pdfrwt>
<totfact> 0.19575964E+03</totfact>
</mgrwt>
</event>
<event>
 5    1  0.1433395E-002  0.1250002E+03  0.7818608E-02  0.1235069E+00
         -4   -1    0    0    0  501 -0.00000000000E+00  0.00000000000E+00  0.73305396366E+02  0.73316396777E+02  0.12700000000E+01 0.  1.
          4   -1    0    0  501    0  0.00000000000E+00 -0.00000000000E+00 -0.53264955515E+02  0.53280093712E+02  0.12700000000E+01 0.  1.
         25    2    1    2    0    0  0.00000000000E+00  0.00000000000E+00  0.20040440851E+02  0.12659649049E+03  0.12500020854E+03 0.  0.
    9000005    1    3    3    0    0  0.19907368786E+00 -0.60094001960E+02  0.27383673044E+02  0.66046909475E+02  0.10000000000E+01 0.  0.
    9000005    1    3    3    0    0 -0.19907368786E+00  0.60094001960E+02 -0.73432321925E+01  0.60549581014E+02  0.10000000000E+01 0.  0.
<mgrwt>
<rscale>  0 0.12500021E+03</rscale>
<asrwt>0</asrwt>
<pdfrwt beam="2">  1        4 0.13319506E-01 0.12500021E+03</pdfrwt>
<pdfrwt beam="1">  1       -4 0.18329616E-01 0.12500021E+03</pdfrwt>
<totfact> 0.19748624E+03</totfact>
</mgrwt>
</event>
<event>
 5    1  0.1433395E-002  0.1249951E+03  0.7818608E-02  0.1235077E+00
          4   -1    0    0  501    0  0.00000000000E+00  0.00000000000E+00  0.76324607341E+02  0.76335172665E+02  0.12700000000E+01 0.  1.
         -4   -1    0    0    0  501 -0.00000000000E+00 -0.00000000000E+00 -0.51153394936E+02  0.51169157834E+02  0.12700000000E+01 0.  1.
         25    2    1    2    0    0  0.00000000000E+00  0.00000000000E+00  0.25171212405E+02  0.12750433050E+03  0.12499505735E+03 0.  0.
    9000005    1    3    3    0    0 -0.19498372874E+02  0.23389764164E+02  0.68249121720E+02  0.74740954154E+02  0.10000000000E+01 0.  0.
    9000005    1    3    3    0    0  0.19498372874E+02 -0.23389764164E+02 -0.43077909314E+02  0.52763376345E+02  0.10000000000E+01 0.  0.
<mgrwt>
<rscale>  0 0.12499506E+03</rscale>
<asrwt>0</asrwt>
<pdfrwt beam="1">  1        4 0.19084443E-01 0.12499506E+03</pdfrwt>
<pdfrwt beam="2">  1       -4 0.12791640E-01 0.12499506E+03</pdfrwt>
<totfact> 0.19701821E+03</totfact>
</mgrwt>
</event>
<event>
 5    1  0.1433395E-002  0.1250015E+03  0.7818608E-02  0.1235067E+00
         -4   -1    0    0    0  501 -0.00000000000E+00  0.00000000000E+00  0.74327364734E+01  0.75404556549E+01  0.12700000000E+01 0.  1.
          4   -1    0    0  501    0  0.00000000000E+00 -0.00000000000E+00 -0.52166991497E+03  0.52167146087E+03  0.12700000000E+01 0.  1.
         25    2    1    2    0    0  0.00000000000E+00  0.00000000000E+00 -0.51423717850E+03  0.52921191653E+03  0.12500150736E+03 0.  0.
    9000005    1    3    3    0    0  0.22522217526E+02 -0.51333597080E+02 -0.14017833415E+03  0.15097467945E+03  0.10000000000E+01 0.  0.
    9000005    1    3    3    0    0 -0.22522217526E+02  0.51333597080E+02 -0.37405884435E+03  0.37823723707E+03  0.10000000000E+01 0.  0.
<mgrwt>
<rscale>  0 0.12500151E+03</rscale>
<asrwt>0</asrwt>
<pdfrwt beam="2">  1        4 0.13043101E+00 0.12500151E+03</pdfrwt>
<pdfrwt beam="1">  1       -4 0.18718440E-02 0.12500151E+03</pdfrwt>
<totfact> 0.83137822E+02</totfact>
</mgrwt>
</event>
<event>
 5    1  0.1433395E-002  0.1249983E+03  0.7818608E-02  0.1235072E+00
          4   -1    0    0  501    0  0.00000000000E+00  0.00000000000E+00  0.17716209223E+02  0.17761671353E+02  0.12700000000E+01 0.  1.
         -4   -1    0    0    0  501 -0.00000000000E+00 -0.00000000000E+00 -0.22015419698E+03  0.22015786007E+03  0.12700000000E+01 0.  1.
         25    2    1    2    0    0  0.00000000000E+00  0.00000000000E+00 -0.20243798776E+03  0.23791953142E+03  0.12499825816E+03 0.  0.
    9000005    1    3    3    0    0 -0.59536425860E+02  0.16996822388E+02 -0.85106079010E+02  0.10524981074E+03  0.10000000000E+01 0.  0.
    9000005    1    3    3    0    0  0.59536425860E+02 -0.16996822388E+02 -0.11733190875E+03  0.13266972068E+03  0.10000000000E+01 0.  0.
<mgrwt>
<rscale>  0 0.12499826E+03</rscale>
<asrwt>0</asrwt>
<pdfrwt beam="1">  1        4 0.44351937E-02 0.12499826E+03</pdfrwt>
<pdfrwt beam="2">  1       -4 0.55044681E-01 0.12499826E+03</pdfrwt>
<totfact> 0.14908997E+03</totfact>
</mgrwt>
</event>
<event>
 5    1  0.1433395E-002  0.1250003E+03  0.7818608E-02  0.1235069E+00
          4   -1    0    0  501    0  0.00000000000E+00  0.00000000000E+00  0.44752195501E+02  0.44770212219E+02  0.12700000000E+01 0. -1.
         -4   -1    0    0    0  501 -0.00000000000E+00 -0.00000000000E+00 -0.87246374431E+02  0.87255617305E+02  0.12700000000E+01 0. -1.
         25    2    1    2    0    0  0.00000000000E+00  0.00000000000E+00 -0.42494178930E+02  0.13202582952E+03  0.12500025767E+03 0.  0.
    9000005    1    3    3    0    0  0.24911679896E+02  0.26181453903E+01 -0.81717166532E+02  0.85475971984E+02  0.10000000000E+01 0.  0.
    9000005    1    3    3    0    0 -0.24911679896E+02 -0.26181453903E+01  0.39222987602E+02  0.46549857540E+02  0.10000000000E+01 0.  0.
<mgrwt>
<rscale>  0 0.12500026E+03</rscale>
<asrwt>0</asrwt>
<pdfrwt beam="1">  1        4 0.11191456E-01 0.12500026E+03</pdfrwt>
<pdfrwt beam="2">  1       -4 0.21815001E-01 0.12500026E+03</pdfrwt>
<totfact> 0.19455964E+03</totfact>
</mgrwt>
</event>
<event>
 5    1  0.1433395E-002  0.1250004E+03  0.7818608E-02  0.1235069E+00
         -4   -1    0    0    0  501 -0.00000000000E+00  0.00000000000E+00  0.14183098812E+03  0.14183667400E+03  0.12700000000E+01 0.  1.
          4   -1    0    0  501    0  0.00000000000E+00 -0.00000000000E+00 -0.27520876095E+02  0.27550163721E+02  0.12700000000E+01 0.  1.
         25    2    1    2    0    0  0.00000000000E+00  0.00000000000E+00  0.11431011203E+03  0.16938683772E+03  0.12500039633E+03 0.  0.
    9000005    1    3    3    0    0 -0.37212735956E+02 -0.49992585751E+02  0.50911570093E+02  0.80480024334E+02  0.10000000000E+01 0.  0.
    9000005    1    3    3    0    0  0.37212735956E+02  0.49992585751E+02  0.63398541934E+02  0.88906813388E+02  0.10000000000E+01 0.  0.
<mgrwt>
<rscale>  0 0.12500040E+03</rscale>
<asrwt>0</asrwt>
<pdfrwt beam="2">  1        4 0.68845908E-02 0.12500040E+03</pdfrwt>
<pdfrwt beam="1">  1       -4 0.35462118E-01 0.12500040E+03</pdfrwt>
<totfact> 0.17624577E+03</totfact>
</mgrwt>
</event>
<event>
 5    1  0.1433395E-002  0.1249989E+03  0.7818608E-02  0.1235071E+00
         -4   -1    0    0    0  501 -0.00000000000E+00  0.00000000000E+00  0.29137014984E+02  0.29164679703E+02  0.12700000000E+01 0. -1.
          4   -1    0    0  501    0  0.00000000000E+00 -0.00000000000E+00 -0.13396829457E+03  0.13397431415E+03  0.12700000000E+01 0. -1.
         25    2    1    2    0    0  0.00000000000E+00  0.00000000000E+00 -0.10483127959E+03  0.16313899385E+03  0.12499893653E+03 0.  0.
    9000005    1    3    3    0    0 -0.61165481149E+02  0.21020215407E+01 -0.35930279514E+02  0.70976190126E+02  0.10000000000E+01 0.  0.
    9000005    1    3    3    0    0  0.61165481149E+02 -0.21020215407E+01 -0.68901000075E+02  0.92162803723E+02  0.10000000000E+01 0.  0.
<mgrwt>
<rscale>  0 0.12499894E+03</rscale>
<asrwt>0</asrwt>
<pdfrwt beam="2">  1        4 0.33496283E-01 0.12499894E+03</pdfrwt>
<pdfrwt beam="1">  1       -4 0.72884646E-02 0.12499894E+03</pdfrwt>
<totfact> 0.17911464E+03</totfact>
</mgrwt>
</event>
<event>
 5    1  0.1433395E-002  0.1249987E+03  0.7818608E-02  0.1235071E+00
          4   -1    0    0  501    0  0.00000000000E+00  0.00000000000E+00  0.78213354402E+02  0.78223664621E+02  0.12700000000E+01 0. -1.
         -4   -1    0    0    0  501 -0.00000000000E+00 -0.00000000000E+00 -0.49920834696E+02  0.49936986660E+02  0.12700000000E+01 0. -1.
         25    2    1    2    0    0  0.00000000000E+00  0.00000000000E+00  0.28292519706E+02  0.12816065128E+03  0.12499874346E+03 0.  0.
    9000005    1    3    3    0    0 -0.18249521744E+02  0.58848605789E+02  0.24849088852E+02  0.66443063325E+02  0.10000000000E+01 0.  0.
    9000005    1    3    3    0    0  0.18249521744E+02 -0.58848605789E+02  0.34434308545E+01  0.61717587957E+02  0.10000000000E+01 0.  0.
<mgrwt>
<rscale>  0 0.12499874E+03</rscale>
<asrwt>0</asrwt>
<pdfrwt beam="1">  1        4 0.19556646E-01 0.12499874E+03</pdfrwt>
<pdfrwt beam="2">  1       -4 0.12483516E-01 0.12499874E+03</pdfrwt>
<totfact> 0.19664374E+03</totfact>
</mgrwt>
</event>
<event>
 5    1  0.1433395E-002  0.1249957E+03  0.7818608E-02  0.1235076E+00
          4   -1    0    0  501    0  0.00000000000E+00  0.00000000000E+00  0.15927676405E+02  0.15978228177E+02  0.12700000000E+01 0. -1.
         -4   -1    0    0    0  501 -0.00000000000E+00 -0.00000000000E+00 -0.24479169660E+03  0.24479499101E+03  0.12700000000E+01 0. -1.
         25    2    1    2    0    0  0.00000000000E+00  0.00000000000E+00 -0.22886402019E+03  0.26077321919E+03  0.12499572835E+03 0.  0.
    9000005    1    3    3    0    0 -0.57127167326E+02 -0.16776476442E+02 -0.15401703297E+03  0.16512785911E+03  0.10000000000E+01 0.  0.
    9000005    1    3    3    0    0  0.57127167326E+02  0.16776476442E+02 -0.74846987226E+02  0.95645360082E+02  0.10000000000E+01 0.  0.
<mgrwt>
<rscale>  0 0.12499573E+03</rscale>
<asrwt>0</asrwt>
<pdfrwt beam="1">  1        4 0.39886507E-02 0.12499573E+03</pdfrwt>
<pdfrwt beam="2">  1       -4 0.61204643E-01 0.12499573E+03</pdfrwt>
<totfact> 0.14147746E+03</totfact>
</mgrwt>
</event>
<event>
 5    1  0.1433395E-002  0.1250020E+03  0.7818608E-02  0.1235066E+00
          4   -1    0    0  501    0  0.00000000000E+00  0.00000000000E+00  0.24395457640E+03  0.24395788212E+03  0.12700000000E+01 0.  1.
         -4   -1    0    0    0  501 -0.00000000000E+00 -0.00000000000E+00 -0.15984123827E+02  0.16034497639E+02  0.12700000000E+01 0.  1.
         25    2    1    2    0    0  0.00000000000E+00  0.00000000000E+00  0.22797045257E+03  0.25999237975E+03  0.12500204112E+03 0.  0.
    9000005    1    3    3    0    0 -0.18812518311E+02 -0.55838475341E+01  0.23739017435E+03  0.23820198378E+03  0.10000000000E+01 0.  0.
    9000005    1    3    3    0    0  0.18812518311E+02  0.55838475341E+01 -0.94197217754E+01  0.21790395977E+02  0.10000000000E+01 0.  0.
<mgrwt>
<rscale>  0 0.12500204E+03</rscale>
<asrwt>0</asrwt>
<pdfrwt beam="1">  1        4 0.60995353E-01 0.12500204E+03</pdfrwt>
<pdfrwt beam="2">  1       -4 0.40027409E-02 0.12500204E+03</pdfrwt>
<totfact> 0.14170731E+03</totfact>
</mgrwt>
</event>
<event>
 5    1  0.1433395E-002  0.1249998E+03  0.7818608E-02  0.1235070E+00
          4   -1    0    0  501    0  0.00000000000E+00  0.00000000000E+00  0.41929176425E+02  0.41948405639E+02  0.12700000000E+01 0. -1.
         -4   -1    0    0    0  501 -0.00000000000E+00 -0.00000000000E+00 -0.93117765797E+02  0.93126425933E+02  0.12700000000E+01 0. -1.
         25    2    1    2    0    0  0.00000000000E+00  0.00000000000E+00 -0.51188589372E+02  0.13507483157E+03  0.12499975377E+03 0.  0.
    9000005    1    3    3    0    0 -0.53673327645E+02  0.24273331251E+02 -0.48137551365E+02  0.76080513680E+02  0.10000000000E+01 0.  0.
    9000005    1    3    3    0    0  0.53673327645E+02 -0.24273331251E+02 -0.30510380076E+01  0.58994317891E+02  0.10000000000E+01 0.  0.
<mgrwt>
<rscale>  0 0.12499975E+03</rscale>
<asrwt>0</asrwt>
<pdfrwt beam="1">  1        4 0.10485780E-01 0.12499975E+03</pdfrwt>
<pdfrwt beam="2">  1       -4 0.23282927E-01 0.12499975E+03</pdfrwt>
<totfact> 0.19295329E+03</totfact>
</mgrwt>
</event>
<event>
 5    1  0.1433395E-002  0.1250031E+03  0.7818608E-02  0.1235064E+00
         -4   -1    0    0    0  501 -0.00000000000E+00  0.00000000000E+00  0.51196309089E+01  0.52748005311E+01  0.12700000000E+01 0. -1.
          4   -1    0    0  501    0  0.00000000000E+00 -0.00000000000E+00 -0.75148581195E+03  0.75148688509E+03  0.12700000000E+01 0. -1.
         25    2    1    2    0    0  0.00000000000E+00  0.00000000000E+00 -0.74636618104E+03  0.75676168562E+03  0.12500309045E+03 0.  0.
    9000005    1    3    3    0    0 -0.21660576902E+02  0.58593005925E+02 -0.36248588924E+03  0.36783058713E+03  0.10000000000E+01 0.  0.
    9000005    1    3    3    0    0  0.21660576902E+02 -0.58593005925E+02 -0.38388029180E+03  0.38893109849E+03  0.10000000000E+01 0.  0.
<mgrwt>
<rscale>  0 0.12500309E+03</rscale>
<asrwt>0</asrwt>
<pdfrwt beam="2">  1        4 0.18789061E+00 0.12500309E+03</pdfrwt>
<pdfrwt beam="1">  1       -4 0.12994406E-02 0.12500309E+03</pdfrwt>
<totfact> 0.56424472E+02</totfact>
</mgrwt>
</event>
<event>
 5    1  0.1433395E-002  0.1250021E+03  0.7818608E-02  0.1235066E+00
         -4   -1    0    0    0  501 -0.00000000000E+00  0.00000000000E+00  0.15945306103E+03  0.15945811856E+03  0.12700000000E+01 0. -1.
          4   -1    0    0  501    0  0.00000000000E+00 -0.00000000000E+00 -0.24476719122E+02  0.24509644612E+02  0.12700000000E+01 0. -1.
         25    2    1    2    0    0  0.00000000000E+00  0.00000000000E+00  0.13497634191E+03  0.18396776317E+03  0.12500210002E+03 0.  0.
    9000005    1    3    3    0    0  0.13053451390E+02 -0.93849898167E+01 -0.21388336262E+02  0.26775577587E+02  0.10000000000E+01 0.  0.
    9000005    1    3    3    0    0 -0.13053451390E+02  0.93849898167E+01  0.15636467817E+03  0.15719218558E+03  0.10000000000E+01 0.  0.
<mgrwt>
<rscale>  0 0.12500210E+03</rscale>
<asrwt>0</asrwt>
<pdfrwt beam="2">  1        4 0.61239277E-02 0.12500210E+03</pdfrwt>
<pdfrwt beam="1">  1       -4 0.39868013E-01 0.12500210E+03</pdfrwt>
<totfact> 0.16983959E+03</totfact>
</mgrwt>
</event>
<event>
 5    1  0.1433395E-002  0.1250030E+03  0.7818608E-02  0.1235065E+00
         -4   -1    0    0    0  501 -0.00000000000E+00  0.00000000000E+00  0.53935641594E+01  0.55410679784E+01  0.12700000000E+01 0. -1.
          4   -1    0    0  501    0  0.00000000000E+00 -0.00000000000E+00 -0.71435979459E+03  0.71436092351E+03  0.12700000000E+01 0. -1.
         25    2    1    2    0    0  0.00000000000E+00  0.00000000000E+00 -0.70896623043E+03  0.71990199148E+03  0.12500304575E+03 0.  0.
    9000005    1    3    3    0    0 -0.13546533239E+02  0.51189526983E+02 -0.16334043469E+03  0.17171189196E+03  0.10000000000E+01 0.  0.
    9000005    1    3    3    0    0  0.13546533239E+02 -0.51189526983E+02 -0.54562579575E+03  0.54819009953E+03  0.10000000000E+01 0.  0.
<mgrwt>
<rscale>  0 0.12500305E+03</rscale>
<asrwt>0</asrwt>
<pdfrwt beam="2">  1        4 0.17860821E+00 0.12500305E+03</pdfrwt>
<pdfrwt beam="1">  1       -4 0.13669726E-02 0.12500305E+03</pdfrwt>
<totfact> 0.60019295E+02</totfact>
</mgrwt>
</event>
<event>
 5    1  0.1433395E-002  0.1249877E+03  0.7818608E-02  0.1235089E+00
         -4   -1    0    0    0  501 -0.00000000000E+00  0.00000000000E+00  0.42720850760E+03  0.42721039532E+03  0.12700000000E+01 0.  1.
          4   -1    0    0  501    0  0.00000000000E+00 -0.00000000000E+00 -0.90958347177E+01  0.91840682278E+01  0.12700000000E+01 0.  1.
         25    2    1    2    0    0  0.00000000000E+00  0.00000000000E+00  0.41811267288E+03  0.43639446354E+03  0.12498768174E+03 0.  0.
    9000005    1    3    3    0    0 -0.54370912725E+02  0.26487995437E+02  0.15421976811E+03  0.16565792142E+03  0.10000000000E+01 0.  0.
    9000005    1    3    3    0    0  0.54370912725E+02 -0.26487995437E+02  0.26389290477E+03  0.27073654212E+03  0.10000000000E+01 0.  0.
<mgrwt>
<rscale>  0 0.12498768E+03</rscale>
<asrwt>0</asrwt>
<pdfrwt beam="2">  1        4 0.22852239E-02 0.12498768E+03</pdfrwt>
<pdfrwt beam="1">  1       -4 0.10681339E+00 0.12498768E+03</pdfrwt>
<totfact> 0.98539591E+02</totfact>
</mgrwt>
</event>
<event>
 5    1  0.1433395E-002  0.1250014E+03  0.7818608E-02  0.1235067E+00
          4   -1    0    0  501    0  0.00000000000E+00  0.00000000000E+00  0.26836159633E+03  0.26836460140E+03  0.12700000000E+01 0.  1.
         -4   -1    0    0    0  501 -0.00000000000E+00 -0.00000000000E+00 -0.14525455349E+02  0.14580869422E+02  0.12700000000E+01 0.  1.
         25    2    1    2    0    0  0.00000000000E+00  0.00000000000E+00  0.25383614098E+03  0.28294547082E+03  0.12500141195E+03 0.  0.
    9000005    1    3    3    0    0  0.19904229268E+02 -0.56976089672E+02  0.16361847257E+03  0.17439741312E+03  0.10000000000E+01 0.  0.
    9000005    1    3    3    0    0 -0.19904229268E+02  0.56976089672E+02  0.90217668404E+02  0.10854805770E+03  0.10000000000E+01 0.  0.
<mgrwt>
<rscale>  0 0.12500141E+03</rscale>
<asrwt>0</asrwt>
<pdfrwt beam="1">  1        4 0.67097701E-01 0.12500141E+03</pdfrwt>
<pdfrwt beam="2">  1       -4 0.36386663E-02 0.12500141E+03</pdfrwt>
<totfact> 0.13462435E+03</totfact>
</mgrwt>
</event>
<event>
 5    1  0.1433395E-002  0.1249979E+03  0.7818608E-02  0.1235072E+00
          4   -1    0    0  501    0  0.00000000000E+00  0.00000000000E+00  0.28281559274E+02  0.28310059960E+02  0.12700000000E+01 0.  1.
         -4   -1    0    0    0  501 -0.00000000000E+00 -0.00000000000E+00 -0.13801451112E+03  0.13802035422E+03  0.12700000000E+01 0.  1.
         25    2    1    2    0    0  0.00000000000E+00  0.00000000000E+00 -0.10973295185E+03  0.16633041418E+03  0.12499794383E+03 0.  0.
    9000005    1    3    3    0    0 -0.37957821984E+02 -0.26183115363E+02  0.12549455633E+01  0.46140293327E+02  0.10000000000E+01 0.  0.
    9000005    1    3    3    0    0  0.37957821984E+02  0.26183115363E+02 -0.11098789741E+03  0.12019012085E+03  0.10000000000E+01 0.  0.
<mgrwt>
<rscale>  0 0.12499794E+03</rscale>
<asrwt>0</asrwt>
<pdfrwt beam="1">  1        4 0.70746832E-02 0.12499794E+03</pdfrwt>
<pdfrwt beam="2">  1       -4 0.34507919E-01 0.12499794E+03</pdfrwt>
<totfact> 0.17764691E+03</totfact>
</mgrwt>
</event>
<event>
 5    1  0.1433395E-002  0.1249994E+03  0.7818608E-02  0.1235070E+00
          4   -1    0    0  501    0  0.00000000000E+00  0.00000000000E+00  0.58651114503E+01  0.60010359376E+01  0.12700000000E+01 0. -1.
         -4   -1    0    0    0  501 -0.00000000000E+00 -0.00000000000E+00 -0.65824231899E+03  0.65824354415E+03  0.12700000000E+01 0. -1.
         25    2    1    2    0    0  0.00000000000E+00  0.00000000000E+00 -0.65237720754E+03  0.66424458008E+03  0.12499936501E+03 0.  0.
    9000005    1    3    3    0    0  0.12518058002E+02  0.50355954749E+02 -0.51124852130E+03  0.51387593297E+03  0.10000000000E+01 0.  0.
    9000005    1    3    3    0    0 -0.12518058002E+02 -0.50355954749E+02 -0.14112868624E+03  0.15036864712E+03  0.10000000000E+01 0.  0.
<mgrwt>
<rscale>  0 0.12499937E+03</rscale>
<asrwt>0</asrwt>
<pdfrwt beam="1">  1        4 0.14834238E-02 0.12499937E+03</pdfrwt>
<pdfrwt beam="2">  1       -4 0.16457747E+00 0.12499937E+03</pdfrwt>
<totfact> 0.65905415E+02</totfact>
</mgrwt>
</event>
<event>
 5    1  0.1433395E-002  0.1249997E+03  0.7818608E-02  0.1235070E+00
          4   -1    0    0  501    0  0.00000000000E+00  0.00000000000E+00  0.28951265038E+03  0.28951543591E+03  0.12700000000E+01 0.  1.
         -4   -1    0    0    0  501 -0.00000000000E+00 -0.00000000000E+00 -0.13459705052E+02  0.13519488160E+02  0.12700000000E+01 0.  1.
         25    2    1    2    0    0  0.00000000000E+00  0.00000000000E+00  0.27605294533E+03  0.30303492407E+03  0.12499974633E+03 0.  0.
    9000005    1    3    3    0    0 -0.44259757269E+02  0.40895148192E+02  0.17814782039E+03  0.18806643818E+03  0.10000000000E+01 0.  0.
    9000005    1    3    3    0    0  0.44259757269E+02 -0.40895148192E+02  0.97905124940E+02  0.11496848589E+03  0.10000000000E+01 0.  0.
<mgrwt>
<rscale>  0 0.12499975E+03</rscale>
<asrwt>0</asrwt>
<pdfrwt beam="1">  1        4 0.72385983E-01 0.12499975E+03</pdfrwt>
<pdfrwt beam="2">  1       -4 0.33727474E-02 0.12499975E+03</pdfrwt>
<totfact> 0.12886496E+03</totfact>
</mgrwt>
</event>
<event>
 5    1  0.1433395E-002  0.1250020E+03  0.7818608E-02  0.1235066E+00
         -4   -1    0    0    0  501 -0.00000000000E+00  0.00000000000E+00  0.91213165722E+02  0.91222006671E+02  0.12700000000E+01 0. -1.
          4   -1    0    0  501    0  0.00000000000E+00 -0.00000000000E+00 -0.42806552151E+02  0.42825387413E+02  0.12700000000E+01 0. -1.
         25    2    1    2    0    0  0.00000000000E+00  0.00000000000E+00  0.48406613571E+02  0.13404739408E+03  0.12500201448E+03 0.  0.
    9000005    1    3    3    0    0 -0.25305985715E+02 -0.33200749956E+02  0.74073243893E+02  0.85032512438E+02  0.10000000000E+01 0.  0.
    9000005    1    3    3    0    0  0.25305985715E+02  0.33200749956E+02 -0.25666630322E+02  0.49014881646E+02  0.10000000000E+01 0.  0.
<mgrwt>
<rscale>  0 0.12500201E+03</rscale>
<asrwt>0</asrwt>
<pdfrwt beam="2">  1        4 0.10705098E-01 0.12500201E+03</pdfrwt>
<pdfrwt beam="1">  1       -4 0.22806751E-01 0.12500201E+03</pdfrwt>
<totfact> 0.19348241E+03</totfact>
</mgrwt>
</event>
<event>
 5    1  0.1433395E-002  0.1250023E+03  0.7818608E-02  0.1235066E+00
         -4   -1    0    0    0  501 -0.00000000000E+00  0.00000000000E+00  0.16843196206E+02  0.16891008213E+02  0.12700000000E+01 0. -1.
          4   -1    0    0  501    0  0.00000000000E+00 -0.00000000000E+00 -0.23154891732E+03  0.23155240014E+03  0.12700000000E+01 0. -1.
         25    2    1    2    0    0  0.00000000000E+00  0.00000000000E+00 -0.21470572111E+03  0.24844340835E+03  0.12500232188E+03 0.  0.
    9000005    1    3    3    0    0  0.56488449409E+02  0.18098871590E+02 -0.14644578206E+03  0.15800595290E+03  0.10000000000E+01 0.  0.
    9000005    1    3    3    0    0 -0.56488449409E+02 -0.18098871590E+02 -0.68259939056E+02  0.90437455456E+02  0.10000000000E+01 0.  0.
<mgrwt>
<rscale>  0 0.12500232E+03</rscale>
<asrwt>0</asrwt>
<pdfrwt beam="2">  1        4 0.57893631E-01 0.12500232E+03</pdfrwt>
<pdfrwt beam="1">  1       -4 0.42172116E-02 0.12500232E+03</pdfrwt>
<totfact> 0.14549137E+03</totfact>
</mgrwt>
</event>
<event>
 5    1  0.1433395E-002  0.1250033E+03  0.7818608E-02  0.1235064E+00
          4   -1    0    0  501    0  0.00000000000E+00  0.00000000000E+00  0.62801972183E+03  0.62802100595E+03  0.12700000000E+01 0.  1.
         -4   -1    0    0    0  501 -0.00000000000E+00 -0.00000000000E+00 -0.61541480983E+01  0.62838235825E+01  0.12700000000E+01 0.  1.
         25    2    1    2    0    0  0.00000000000E+00  0.00000000000E+00  0.62186557373E+03  0.63430482953E+03  0.12500329983E+03 0.  0.
    9000005    1    3    3    0    0  0.28987752066E+02 -0.31807354137E+02  0.80990140003E+02  0.91719138269E+02  0.10000000000E+01 0.  0.
    9000005    1    3    3    0    0 -0.28987752066E+02  0.31807354137E+02  0.54087543373E+03  0.54258569126E+03  0.10000000000E+01 0.  0.
<mgrwt>
<rscale>  0 0.12500330E+03</rscale>
<asrwt>0</asrwt>
<pdfrwt beam="1">  1        4 0.15702128E+00 0.12500330E+03</pdfrwt>
<pdfrwt beam="2">  1       -4 0.15549072E-02 0.12500330E+03</pdfrwt>
<totfact> 0.69330717E+02</totfact>
</mgrwt>
</event>
<event>
 5    1  0.1433395E-002  0.1250021E+03  0.7818608E-02  0.1235066E+00
          4   -1    0    0  501    0  0.00000000000E+00  0.00000000000E+00  0.94278084204E+01  0.95129633454E+01  0.12700000000E+01 0. -1.
         -4   -1    0    0    0  501 -0.00000000000E+00 -0.00000000000E+00 -0.41239785130E+03  0.41239980681E+03  0.12700000000E+01 0. -1.
         25    2    1    2    0    0  0.00000000000E+00  0.00000000000E+00 -0.40297004288E+03  0.42191277016E+03  0.12500212063E+03 0.  0.
    9000005    1    3    3    0    0 -0.59593958048E+02 -0.80287969925E+01 -0.25891192693E+03  0.26580497987E+03  0.10000000000E+01 0.  0.
    9000005    1    3    3    0    0  0.59593958048E+02  0.80287969925E+01 -0.14405811595E+03  0.15610779029E+03  0.10000000000E+01 0.  0.
<mgrwt>
<rscale>  0 0.12500212E+03</rscale>
<asrwt>0</asrwt>
<pdfrwt beam="1">  1        4 0.23678423E-02 0.12500212E+03</pdfrwt>
<pdfrwt beam="2">  1       -4 0.10311029E+00 0.12500212E+03</pdfrwt>
<totfact> 0.10128081E+03</totfact>
</mgrwt>
</event>
<event>
 5    1  0.1433395E-002  0.1250036E+03  0.7818608E-02  0.1235064E+00
          4   -1    0    0  501    0  0.00000000000E+00  0.00000000000E+00  0.12422872506E+03  0.12423521654E+03  0.12700000000E+01 0.  1.
         -4   -1    0    0    0  501 -0.00000000000E+00 -0.00000000000E+00 -0.31425675806E+02  0.31451327473E+02  0.12700000000E+01 0.  1.
         25    2    1    2    0    0  0.00000000000E+00  0.00000000000E+00  0.92803049253E+02  0.15568654402E+03  0.12500357610E+03 0.  0.
    9000005    1    3    3    0    0  0.69697626101E+01  0.45806729535E+02 -0.58281169994E+01  0.46709752828E+02  0.10000000000E+01 0.  0.
    9000005    1    3    3    0    0 -0.69697626101E+01 -0.45806729535E+02  0.98631166252E+02  0.10897679119E+03  0.10000000000E+01 0.  0.
<mgrwt>
<rscale>  0 0.12500358E+03</rscale>
<asrwt>0</asrwt>
<pdfrwt beam="1">  1        4 0.31061199E-01 0.12500358E+03</pdfrwt>
<pdfrwt beam="2">  1       -4 0.78604369E-02 0.12500358E+03</pdfrwt>
<totfact> 0.18261143E+03</totfact>
</mgrwt>
</event>
<event>
 5    1  0.1433395E-002  0.1249982E+03  0.7818608E-02  0.1235072E+00
          4   -1    0    0  501    0  0.00000000000E+00  0.00000000000E+00  0.42291395826E+02  0.42310460420E+02  0.12700000000E+01 0. -1.
         -4   -1    0    0    0  501 -0.00000000000E+00 -0.00000000000E+00 -0.92318177061E+02  0.92326912197E+02  0.12700000000E+01 0. -1.
         25    2    1    2    0    0  0.00000000000E+00  0.00000000000E+00 -0.50026781234E+02  0.13463737262E+03  0.12499817304E+03 0.  0.
    9000005    1    3    3    0    0  0.11646502352E+02 -0.61348273520E+02 -0.22400607969E+02  0.66347862952E+02  0.10000000000E+01 0.  0.
    9000005    1    3    3    0    0 -0.11646502352E+02  0.61348273520E+02 -0.27626173265E+02  0.68289509664E+02  0.10000000000E+01 0.  0.
<mgrwt>
<rscale>  0 0.12499817E+03</rscale>
<asrwt>0</asrwt>
<pdfrwt beam="1">  1        4 0.10576324E-01 0.12499817E+03</pdfrwt>
<pdfrwt beam="2">  1       -4 0.23083019E-01 0.12499817E+03</pdfrwt>
<totfact> 0.19318971E+03</totfact>
</mgrwt>
</event>
<event>
 5    1  0.1433395E-002  0.1249995E+03  0.7818608E-02  0.1235070E+00
          4   -1    0    0  501    0  0.00000000000E+00  0.00000000000E+00  0.87640237677E+02  0.87649439018E+02  0.12700000000E+01 0.  1.
         -4   -1    0    0    0  501 -0.00000000000E+00 -0.00000000000E+00 -0.44550495268E+02  0.44568593523E+02  0.12700000000E+01 0.  1.
         25    2    1    2    0    0  0.00000000000E+00  0.00000000000E+00  0.43089742409E+02  0.13221803254E+03  0.12499952891E+03 0.  0.
    9000005    1    3    3    0    0  0.10432658209E+02  0.57906934244E+02  0.43812096455E+02  0.73365885714E+02  0.10000000000E+01 0.  0.
    9000005    1    3    3    0    0 -0.10432658209E+02 -0.57906934244E+02 -0.72235404506E+00  0.58852146827E+02  0.10000000000E+01 0.  0.
<mgrwt>
<rscale>  0 0.12499953E+03</rscale>
<asrwt>0</asrwt>
<pdfrwt beam="1">  1        4 0.21913472E-01 0.12499953E+03</pdfrwt>
<pdfrwt beam="2">  1       -4 0.11141036E-01 0.12499953E+03</pdfrwt>
<totfact> 0.19446081E+03</totfact>
</mgrwt>
</event>
<event>
 5    1  0.1433395E-002  0.1250000E+03  0.7818608E-02  0.1235069E+00
         -4   -1    0    0    0  501 -0.00000000000E+00  0.00000000000E+00  0.12671356879E+03  0.12671993299E+03  0.12700000000E+01 0.  1.
          4   -1    0    0  501    0  0.00000000000E+00 -0.00000000000E+00 -0.30807159987E+02  0.30833326231E+02  0.12700000000E+01 0.  1.
         25    2    1    2    0    0  0.00000000000E+00  0.00000000000E+00  0.95906408805E+02  0.15755325922E+03  0.12499996096E+03 0.  0.
    9000005    1    3    3    0    0 -0.26715034259E+02  0.21345728411E+02 -0.17974623209E+02  0.38644795980E+02  0.10000000000E+01 0.  0.
    9000005    1    3    3    0    0  0.26715034259E+02 -0.21345728411E+02  0.11388103201E+03  0.11890846324E+03  0.10000000000E+01 0.  0.
<mgrwt>
<rscale>  0 0.12499996E+03</rscale>
<asrwt>0</asrwt>
<pdfrwt beam="2">  1        4 0.77058563E-02 0.12499996E+03</pdfrwt>
<pdfrwt beam="1">  1       -4 0.31682458E-01 0.12499996E+03</pdfrwt>
<totfact> 0.18173529E+03</totfact>
</mgrwt>
</event>
<event>
 5    1  0.1433395E-002  0.1250532E+03  0.7818608E-02  0.1234986E+00
          4   -1    0    0  501    0  0.00000000000E+00  0.00000000000E+00  0.27299754441E+02  0.27329279035E+02  0.12700000000E+01 0.  1.
         -4   -1    0    0    0  501 -0.00000000000E+00 -0.00000000000E+00 -0.14309948485E+03  0.14310512032E+03  0.12700000000E+01 0.  1.
         25    2    1    2    0    0  0.00000000000E+00  0.00000000000E+00 -0.11579973040E+03  0.17043439936E+03  0.12505321636E+03 0.  0.
    9000005    1    3    3    0    0 -0.35407007046E+02  0.10981644657E+01 -0.12810833320E+03  0.13291955142E+03  0.10000000000E+01 0.  0.
    9000005    1    3    3    0    0  0.35407007046E+02 -0.10981644657E+01  0.12308602799E+02  0.37514847941E+02  0.10000000000E+01 0.  0.
<mgrwt>
<rscale>  0 0.12505322E+03</rscale>
<asrwt>0</asrwt>
<pdfrwt beam="1">  1        4 0.68293340E-02 0.12505322E+03</pdfrwt>
<pdfrwt beam="2">  1       -4 0.35779264E-01 0.12505322E+03</pdfrwt>
<totfact> 0.17555777E+03</totfact>
</mgrwt>
</event>
<event>
 5    1  0.1433395E-002  0.1249964E+03  0.7818608E-02  0.1235075E+00
          4   -1    0    0  501    0  0.00000000000E+00  0.00000000000E+00  0.14075377546E+02  0.14132556495E+02  0.12700000000E+01 0.  1.
         -4   -1    0    0    0  501 -0.00000000000E+00 -0.00000000000E+00 -0.27688640218E+03  0.27688931473E+03  0.12700000000E+01 0.  1.
         25    2    1    2    0    0  0.00000000000E+00  0.00000000000E+00 -0.26281102463E+03  0.29102187123E+03  0.12499637940E+03 0.  0.
    9000005    1    3    3    0    0  0.25768814902E+02 -0.75415532190E+01 -0.27497533300E-01  0.26868338291E+02  0.10000000000E+01 0.  0.
    9000005    1    3    3    0    0 -0.25768814902E+02  0.75415532190E+01 -0.26278352710E+03  0.26415353293E+03  0.10000000000E+01 0.  0.
<mgrwt>
<rscale>  0 0.12499638E+03</rscale>
<asrwt>0</asrwt>
<pdfrwt beam="1">  1        4 0.35263567E-02 0.12499638E+03</pdfrwt>
<pdfrwt beam="2">  1       -4 0.69229094E-01 0.12499638E+03</pdfrwt>
<totfact> 0.13227568E+03</totfact>
</mgrwt>
</event>
<event>
 4    1  0.1433395E-002  0.1249124E+03  0.7818608E-02  0.1235206E+00
          4   -1    0    0  501    0  0.00000000000E+00  0.00000000000E+00  0.53891553958E+01  0.55367766688E+01  0.12700000000E+01 0.  1.
         -4   -1    0    0    0  501 -0.00000000000E+00 -0.00000000000E+00 -0.71389195236E+03  0.71389308201E+03  0.12700000000E+01 0.  1.
    9000005    1    1    2    0    0  0.41821354343E+02  0.43093707557E+02 -0.45295269531E+03  0.45691710135E+03  0.10000000000E+01 0.  0.
    9000005    1    1    2    0    0 -0.41821354343E+02 -0.43093707557E+02 -0.25555010165E+03  0.26251275734E+03  0.10000000000E+01 0.  0.
<mgrwt>
<rscale>  0 0.12491240E+03</rscale>
<asrwt>0</asrwt>
<pdfrwt beam="1">  1        4 0.13658851E-02 0.12491240E+03</pdfrwt>
<pdfrwt beam="2">  1       -4 0.17849126E+00 0.12491240E+03</pdfrwt>
<totfact> 0.60190084E+02</totfact>
</mgrwt>
</event>
<event>
 5    1  0.1433395E-002  0.1249943E+03  0.7818608E-02  0.1235078E+00
         -4   -1    0    0    0  501 -0.00000000000E+00  0.00000000000E+00  0.50037025540E+02  0.50053140010E+02  0.12700000000E+01 0. -1.
          4   -1    0    0  501    0  0.00000000000E+00 -0.00000000000E+00 -0.78026225656E+02  0.78036560599E+02  0.12700000000E+01 0. -1.
         25    2    1    2    0    0  0.00000000000E+00  0.00000000000E+00 -0.27989200116E+02  0.12808970061E+03  0.12499430419E+03 0.  0.
    9000005    1    3    3    0    0 -0.59455372206E+02  0.14638348436E+02 -0.26780418389E+02  0.66838711374E+02  0.10000000000E+01 0.  0.
    9000005    1    3    3    0    0  0.59455372206E+02 -0.14638348436E+02 -0.12087817277E+01  0.61250989235E+02  0.10000000000E+01 0.  0.
<mgrwt>
<rscale>  0 0.12499430E+03</rscale>
<asrwt>0</asrwt>
<pdfrwt beam="2">  1        4 0.19509862E-01 0.12499430E+03</pdfrwt>
<pdfrwt beam="1">  1       -4 0.12512563E-01 0.12499430E+03</pdfrwt>
<totfact> 0.19670270E+03</totfact>
</mgrwt>
</event>
<event>
 5    1  0.1433395E-002  0.1249993E+03  0.7818608E-02  0.1235070E+00
         -4   -1    0    0    0  501 -0.00000000000E+00  0.00000000000E+00  0.32644704413E+03  0.32644951451E+03  0.12700000000E+01 0. -1.
          4   -1    0    0  501    0  0.00000000000E+00 -0.00000000000E+00 -0.11929589750E+02  0.11997000108E+02  0.12700000000E+01 0. -1.
         25    2    1    2    0    0  0.00000000000E+00  0.00000000000E+00  0.31451745438E+03  0.33844651461E+03  0.12499925658E+03 0.  0.
    9000005    1    3    3    0    0  0.46679146497E+01 -0.56711942534E+02  0.22719472371E+03  0.23421459463E+03  0.10000000000E+01 0.  0.
    9000005    1    3    3    0    0 -0.46679146497E+01  0.56711942534E+02  0.87322730667E+02  0.10423191999E+03  0.10000000000E+01 0.  0.
<mgrwt>
<rscale>  0 0.12499926E+03</rscale>
<asrwt>0</asrwt>
<pdfrwt beam="2">  1        4 0.29911325E-02 0.12499926E+03</pdfrwt>
<pdfrwt beam="1">  1       -4 0.81620498E-01 0.12499926E+03</pdfrwt>
<totfact> 0.11958257E+03</totfact>
</mgrwt>
</event>
<event>
 5    1  0.1433395E-002  0.1250002E+03  0.7818608E-02  0.1235069E+00
          4   -1    0    0  501    0  0.00000000000E+00  0.00000000000E+00  0.20357074395E+02  0.20396651145E+02  0.12700000000E+01 0.  1.
         -4   -1    0    0    0  501 -0.00000000000E+00 -0.00000000000E+00 -0.19165923955E+03  0.19166344724E+03  0.12700000000E+01 0.  1.
         25    2    1    2    0    0  0.00000000000E+00  0.00000000000E+00 -0.17130216516E+03  0.21206009838E+03  0.12500021415E+03 0.  0.
    9000005    1    3    3    0    0  0.42696596687E+01 -0.61578103942E+02 -0.10220113561E+03  0.11939918341E+03  0.10000000000E+01 0.  0.
    9000005    1    3    3    0    0 -0.42696596687E+01  0.61578103942E+02 -0.69101029552E+02  0.92660914975E+02  0.10000000000E+01 0.  0.
<mgrwt>
<rscale>  0 0.12500021E+03</rscale>
<asrwt>0</asrwt>
<pdfrwt beam="1">  1        4 0.50947422E-02 0.12500021E+03</pdfrwt>
<pdfrwt beam="2">  1       -4 0.47920277E-01 0.12500021E+03</pdfrwt>
<totfact> 0.15850184E+03</totfact>
</mgrwt>
</event>
<event>
 5    1  0.1433395E-002  0.1249972E+03  0.7818608E-02  0.1235074E+00
         -4   -1    0    0    0  501 -0.00000000000E+00  0.00000000000E+00  0.13670703012E+03  0.13671292910E+03  0.12700000000E+01 0. -1.
          4   -1    0    0  501    0  0.00000000000E+00 -0.00000000000E+00 -0.28551986610E+02  0.28580217623E+02  0.12700000000E+01 0. -1.
         25    2    1    2    0    0  0.00000000000E+00  0.00000000000E+00  0.10815504351E+03  0.16529314672E+03  0.12499724364E+03 0.  0.
    9000005    1    3    3    0    0  0.64497241968E+01  0.18148891502E+02 -0.24535341523E+02  0.31208399328E+02  0.10000000000E+01 0.  0.
    9000005    1    3    3    0    0 -0.64497241968E+01 -0.18148891502E+02  0.13269038503E+03  0.13408474740E+03  0.10000000000E+01 0.  0.
<mgrwt>
<rscale>  0 0.12499724E+03</rscale>
<asrwt>0</asrwt>
<pdfrwt beam="2">  1        4 0.71422630E-02 0.12499724E+03</pdfrwt>
<pdfrwt beam="1">  1       -4 0.34181023E-01 0.12499724E+03</pdfrwt>
<totfact> 0.17812600E+03</totfact>
</mgrwt>
</event>
<event>
 5    1  0.1433395E-002  0.1249989E+03  0.7818608E-02  0.1235071E+00
         -4   -1    0    0    0  501 -0.00000000000E+00  0.00000000000E+00  0.78205721095E+02  0.78216032321E+02  0.12700000000E+01 0. -1.
          4   -1    0    0  501    0  0.00000000000E+00 -0.00000000000E+00 -0.49925804115E+02  0.49941954472E+02  0.12700000000E+01 0. -1.
         25    2    1    2    0    0  0.00000000000E+00  0.00000000000E+00  0.28279916980E+02  0.12815798679E+03  0.12499886349E+03 0.  0.
    9000005    1    3    3    0    0 -0.41478700110E+02 -0.46614932421E+02  0.17653592566E+02  0.64854327673E+02  0.10000000000E+01 0.  0.
    9000005    1    3    3    0    0  0.41478700110E+02  0.46614932421E+02  0.10626324414E+02  0.63303659120E+02  0.10000000000E+01 0.  0.
<mgrwt>
<rscale>  0 0.12499886E+03</rscale>
<asrwt>0</asrwt>
<pdfrwt beam="2">  1        4 0.12484759E-01 0.12499886E+03</pdfrwt>
<pdfrwt beam="1">  1       -4 0.19554738E-01 0.12499886E+03</pdfrwt>
<totfact> 0.19664464E+03</totfact>
</mgrwt>
</event>
<event>
 5    1  0.1433395E-002  0.1250190E+03  0.7818608E-02  0.1235040E+00
         -4   -1    0    0    0  501 -0.00000000000E+00  0.00000000000E+00  0.19348446983E+03  0.19348863782E+03  0.12700000000E+01 0.  1.
          4   -1    0    0  501    0  0.00000000000E+00 -0.00000000000E+00 -0.20170748248E+02  0.20210689867E+02  0.12700000000E+01 0.  1.
         25    2    1    2    0    0  0.00000000000E+00  0.00000000000E+00  0.17331372158E+03  0.21369932769E+03  0.12501902481E+03 0.  0.
    9000005    1    3    3    0    0 -0.26030705144E+02 -0.42745240270E+02  0.22660922443E+02  0.54947889695E+02  0.10000000000E+01 0.  0.
    9000005    1    3    3    0    0  0.26030705144E+02  0.42745240270E+02  0.15065279914E+03  0.15875143799E+03  0.10000000000E+01 0.  0.
<mgrwt>
<rscale>  0 0.12501902E+03</rscale>
<asrwt>0</asrwt>
<pdfrwt beam="2">  1        4 0.50482008E-02 0.12501902E+03</pdfrwt>
<pdfrwt beam="1">  1       -4 0.48376631E-01 0.12501902E+03</pdfrwt>
<totfact> 0.15780876E+03</totfact>
</mgrwt>
</event>
<event>
 5    1  0.1433395E-002  0.1250009E+03  0.7818608E-02  0.1235068E+00
          4   -1    0    0  501    0  0.00000000000E+00  0.00000000000E+00  0.86377386038E+02  0.86386721889E+02  0.12700000000E+01 0.  1.
         -4   -1    0    0    0  501 -0.00000000000E+00 -0.00000000000E+00 -0.45203020456E+02  0.45220857558E+02  0.12700000000E+01 0.  1.
         25    2    1    2    0    0  0.00000000000E+00  0.00000000000E+00  0.41174365582E+02  0.13160757945E+03  0.12500090634E+03 0.  0.
    9000005    1    3    3    0    0  0.57007855882E+02 -0.10721876886E+02  0.45063521400E+02  0.73461386028E+02  0.10000000000E+01 0.  0.
    9000005    1    3    3    0    0 -0.57007855882E+02  0.10721876886E+02 -0.38891558185E+01  0.58146193419E+02  0.10000000000E+01 0.  0.
<mgrwt>
<rscale>  0 0.12500091E+03</rscale>
<asrwt>0</asrwt>
<pdfrwt beam="1">  1        4 0.21597743E-01 0.12500091E+03</pdfrwt>
<pdfrwt beam="2">  1       -4 0.11304152E-01 0.12500091E+03</pdfrwt>
<totfact> 0.19477932E+03</totfact>
</mgrwt>
</event>
<event>
 5    1  0.1433395E-002  0.1249979E+03  0.7818608E-02  0.1235073E+00
          4   -1    0    0  501    0  0.00000000000E+00  0.00000000000E+00  0.16076284387E+02  0.16126370319E+02  0.12700000000E+01 0.  1.
         -4   -1    0    0    0  501 -0.00000000000E+00 -0.00000000000E+00 -0.24254443047E+03  0.24254775541E+03  0.12700000000E+01 0.  1.
         25    2    1    2    0    0  0.00000000000E+00  0.00000000000E+00 -0.22646814609E+03  0.25867412573E+03  0.12499792850E+03 0.  0.
    9000005    1    3    3    0    0  0.61623966228E+02  0.27230401122E+01 -0.13394824139E+03  0.14747223309E+03  0.10000000000E+01 0.  0.
    9000005    1    3    3    0    0 -0.61623966228E+02 -0.27230401122E+01 -0.92519904702E+02  0.11120189264E+03  0.10000000000E+01 0.  0.
<mgrwt>
<rscale>  0 0.12499793E+03</rscale>
<asrwt>0</asrwt>
<pdfrwt beam="1">  1        4 0.40257482E-02 0.12499793E+03</pdfrwt>
<pdfrwt beam="2">  1       -4 0.60642772E-01 0.12499793E+03</pdfrwt>
<totfact> 0.14214504E+03</totfact>
</mgrwt>
</event>
<event>
 5    1  0.1433395E-002  0.1250010E+03  0.7818608E-02  0.1235068E+00
         -4   -1    0    0    0  501 -0.00000000000E+00  0.00000000000E+00  0.98030483993E+01  0.98849713161E+01  0.12700000000E+01 0.  1.
          4   -1    0    0  501    0  0.00000000000E+00 -0.00000000000E+00 -0.39673855045E+03  0.39674058314E+03  0.12700000000E+01 0.  1.
         25    2    1    2    0    0  0.00000000000E+00  0.00000000000E+00 -0.38693550205E+03  0.40662555446E+03  0.12500103517E+03 0.  0.
    9000005    1    3    3    0    0  0.54695130636E+02  0.29546546270E+02 -0.21423565881E+03  0.22307503943E+03  0.10000000000E+01 0.  0.
    9000005    1    3    3    0    0 -0.54695130636E+02 -0.29546546270E+02 -0.17269984324E+03  0.18355051503E+03  0.10000000000E+01 0.  0.
<mgrwt>
<rscale>  0 0.12500104E+03</rscale>
<asrwt>0</asrwt>
<pdfrwt beam="2">  1        4 0.99195079E-01 0.12500104E+03</pdfrwt>
<pdfrwt beam="1">  1       -4 0.24612579E-02 0.12500104E+03</pdfrwt>
<totfact> 0.10433743E+03</totfact>
</mgrwt>
</event>
<event>
 5    1  0.1433395E-002  0.1249986E+03  0.7818608E-02  0.1235071E+00
          4   -1    0    0  501    0  0.00000000000E+00  0.00000000000E+00  0.39964635404E+02  0.39984809403E+02  0.12700000000E+01 0. -1.
         -4   -1    0    0    0  501 -0.00000000000E+00 -0.00000000000E+00 -0.97691480369E+02  0.97699735090E+02  0.12700000000E+01 0. -1.
         25    2    1    2    0    0  0.00000000000E+00  0.00000000000E+00 -0.57726844965E+02  0.13768454449E+03  0.12499858064E+03 0.  0.
    9000005    1    3    3    0    0  0.18379120717E+01 -0.42208088290E+01  0.39783004928E+02  0.40060961409E+02  0.10000000000E+01 0.  0.
    9000005    1    3    3    0    0 -0.18379120717E+01  0.42208088290E+01 -0.97509849893E+02  0.97623583084E+02  0.10000000000E+01 0.  0.
<mgrwt>
<rscale>  0 0.12499858E+03</rscale>
<asrwt>0</asrwt>
<pdfrwt beam="1">  1        4 0.99947126E-02 0.12499858E+03</pdfrwt>
<pdfrwt beam="2">  1       -4 0.24426423E-01 0.12499858E+03</pdfrwt>
<totfact> 0.19160065E+03</totfact>
</mgrwt>
</event>
<event>
 5    1  0.1433395E-002  0.1250103E+03  0.7818608E-02  0.1235053E+00
         -4   -1    0    0    0  501 -0.00000000000E+00  0.00000000000E+00  0.35860832930E+02  0.35883314207E+02  0.12700000000E+01 0. -1.
          4   -1    0    0  501    0  0.00000000000E+00 -0.00000000000E+00 -0.10888567852E+03  0.10889308466E+03  0.12700000000E+01 0. -1.
         25    2    1    2    0    0  0.00000000000E+00  0.00000000000E+00 -0.73024845585E+02  0.14477639886E+03  0.12501030995E+03 0.  0.
    9000005    1    3    3    0    0  0.41161353718E+02  0.46964101547E+02 -0.39351702178E+02  0.73820324697E+02  0.10000000000E+01 0.  0.
    9000005    1    3    3    0    0 -0.41161353718E+02 -0.46964101547E+02 -0.33673143407E+02  0.70956074165E+02  0.10000000000E+01 0.  0.
<mgrwt>
<rscale>  0 0.12501031E+03</rscale>
<asrwt>0</asrwt>
<pdfrwt beam="2">  1        4 0.27225155E-01 0.12501031E+03</pdfrwt>
<pdfrwt beam="1">  1       -4 0.89689444E-02 0.12501031E+03</pdfrwt>
<totfact> 0.18794067E+03</totfact>
</mgrwt>
</event>
<event>
 5    1  0.1433395E-002  0.1250038E+03  0.7818608E-02  0.1235063E+00
         -4   -1    0    0    0  501 -0.00000000000E+00  0.00000000000E+00  0.12898291034E+03  0.12898916257E+03  0.12700000000E+01 0. -1.
          4   -1    0    0  501    0  0.00000000000E+00 -0.00000000000E+00 -0.30266548533E+02  0.30293181743E+02  0.12700000000E+01 0. -1.
         25    2    1    2    0    0  0.00000000000E+00  0.00000000000E+00  0.98716361806E+02  0.15928234431E+03  0.12500378042E+03 0.  0.
    9000005    1    3    3    0    0 -0.53359090762E+02 -0.16500360440E+02  0.85082548946E+02  0.10178160245E+03  0.10000000000E+01 0.  0.
    9000005    1    3    3    0    0  0.53359090762E+02  0.16500360440E+02  0.13633812860E+02  0.57500741862E+02  0.10000000000E+01 0.  0.
<mgrwt>
<rscale>  0 0.12500378E+03</rscale>
<asrwt>0</asrwt>
<pdfrwt beam="2">  1        4 0.75707479E-02 0.12500378E+03</pdfrwt>
<pdfrwt beam="1">  1       -4 0.32249838E-01 0.12500378E+03</pdfrwt>
<totfact> 0.18089991E+03</totfact>
</mgrwt>
</event>
<event>
 5    1  0.1433395E-002  0.1249986E+03  0.7818608E-02  0.1235071E+00
          4   -1    0    0  501    0  0.00000000000E+00  0.00000000000E+00  0.71655485873E+02  0.71666739535E+02  0.12700000000E+01 0.  1.
         -4   -1    0    0    0  501 -0.00000000000E+00 -0.00000000000E+00 -0.54490191490E+02  0.54504989392E+02  0.12700000000E+01 0.  1.
         25    2    1    2    0    0  0.00000000000E+00  0.00000000000E+00  0.17165294383E+02  0.12617172893E+03  0.12499863139E+03 0.  0.
    9000005    1    3    3    0    0  0.29812009498E+02 -0.49135106600E+01  0.63797623821E+02  0.70597700405E+02  0.10000000000E+01 0.  0.
    9000005    1    3    3    0    0 -0.29812009498E+02  0.49135106600E+01 -0.46632329438E+02  0.55574028522E+02  0.10000000000E+01 0.  0.
<mgrwt>
<rscale>  0 0.12499863E+03</rscale>
<asrwt>0</asrwt>
<pdfrwt beam="1">  1        4 0.17917128E-01 0.12499863E+03</pdfrwt>
<pdfrwt beam="2">  1       -4 0.13625804E-01 0.12499863E+03</pdfrwt>
<totfact> 0.19772276E+03</totfact>
</mgrwt>
</event>
<event>
 4    1  0.1433395E-002  0.1249114E+03  0.7818608E-02  0.1235208E+00
          4   -1    0    0  501    0  0.00000000000E+00  0.00000000000E+00  0.32985577325E+02  0.33010016836E+02  0.12700000000E+01 0. -1.
         -4   -1    0    0    0  501 -0.00000000000E+00 -0.00000000000E+00 -0.11818341548E+03  0.11819023900E+03  0.12700000000E+01 0. -1.
    9000005    1    1    2    0    0  0.38173641145E+02 -0.43910735035E+02 -0.15147022680E+02  0.60131620847E+02  0.10000000000E+01 0.  0.
    9000005    1    1    2    0    0 -0.38173641145E+02  0.43910735035E+02 -0.70050815472E+02  0.91068634984E+02  0.10000000000E+01 0.  0.
<mgrwt>
<rscale>  0 0.12491135E+03</rscale>
<asrwt>0</asrwt>
<pdfrwt beam="1">  1        4 0.82503025E-02 0.12491135E+03</pdfrwt>
<pdfrwt beam="2">  1       -4 0.29549761E-01 0.12491135E+03</pdfrwt>
<totfact> 0.18518090E+03</totfact>
</mgrwt>
</event>
<event>
 5    1  0.1433395E-002  0.1250008E+03  0.7818608E-02  0.1235068E+00
         -4   -1    0    0    0  501 -0.00000000000E+00  0.00000000000E+00  0.64483577869E+02  0.64496082942E+02  0.12700000000E+01 0. -1.
          4   -1    0    0  501    0  0.00000000000E+00 -0.00000000000E+00 -0.60553209699E+02  0.60566526273E+02  0.12700000000E+01 0. -1.
         25    2    1    2    0    0  0.00000000000E+00  0.00000000000E+00  0.39303681707E+01  0.12506260921E+03  0.12500083372E+03 0.  0.
    9000005    1    3    3    0    0 -0.52858176357E+02 -0.33301670277E+02  0.44323000737E+00  0.62483473846E+02  0.10000000000E+01 0.  0.
    9000005    1    3    3    0    0  0.52858176357E+02  0.33301670277E+02  0.34871381634E+01  0.62579135369E+02  0.10000000000E+01 0.  0.
<mgrwt>
<rscale>  0 0.12500083E+03</rscale>
<asrwt>0</asrwt>
<pdfrwt beam="2">  1        4 0.15141530E-01 0.12500083E+03</pdfrwt>
<pdfrwt beam="1">  1       -4 0.16124122E-01 0.12500083E+03</pdfrwt>
<totfact> 0.19831273E+03</totfact>
</mgrwt>
</event>
<event>
 5    1  0.1433395E-002  0.1250012E+03  0.7818608E-02  0.1235067E+00
         -4   -1    0    0    0  501 -0.00000000000E+00  0.00000000000E+00  0.64658417390E+02  0.64670888655E+02  0.12700000000E+01 0. -1.
          4   -1    0    0  501    0  0.00000000000E+00 -0.00000000000E+00 -0.60389812849E+02  0.60403165446E+02  0.12700000000E+01 0. -1.
         25    2    1    2    0    0  0.00000000000E+00  0.00000000000E+00  0.42686045410E+01  0.12507405410E+03  0.12500119209E+03 0.  0.
    9000005    1    3    3    0    0 -0.37977067985E+02  0.57050424460E+01 -0.47194731606E+02  0.60853495326E+02  0.10000000000E+01 0.  0.
    9000005    1    3    3    0    0  0.37977067985E+02 -0.57050424460E+01  0.51463336147E+02  0.64220558775E+02  0.10000000000E+01 0.  0.
<mgrwt>
<rscale>  0 0.12500119E+03</rscale>
<asrwt>0</asrwt>
<pdfrwt beam="2">  1        4 0.15100681E-01 0.12500119E+03</pdfrwt>
<pdfrwt beam="1">  1       -4 0.16167832E-01 0.12500119E+03</pdfrwt>
<totfact> 0.19830487E+03</totfact>
</mgrwt>
</event>
<event>
 5    1  0.1433395E-002  0.1250012E+03  0.7818608E-02  0.1235067E+00
          4   -1    0    0  501    0  0.00000000000E+00  0.00000000000E+00  0.17247059737E+03  0.17247527318E+03  0.12700000000E+01 0. -1.
         -4   -1    0    0    0  501 -0.00000000000E+00 -0.00000000000E+00 -0.22626433279E+02  0.22662047192E+02  0.12700000000E+01 0. -1.
         25    2    1    2    0    0  0.00000000000E+00  0.00000000000E+00  0.14984416409E+03  0.19513732037E+03  0.12500120115E+03 0.  0.
    9000005    1    3    3    0    0  0.42347429166E+02 -0.30420003611E+02  0.12869781257E+03  0.13886255196E+03  0.10000000000E+01 0.  0.
    9000005    1    3    3    0    0 -0.42347429166E+02  0.30420003611E+02  0.21146351523E+02  0.56274768408E+02  0.10000000000E+01 0.  0.
<mgrwt>
<rscale>  0 0.12500120E+03</rscale>
<asrwt>0</asrwt>
<pdfrwt beam="1">  1        4 0.43122684E-01 0.12500120E+03</pdfrwt>
<pdfrwt beam="2">  1       -4 0.56616447E-02 0.12500120E+03</pdfrwt>
<totfact> 0.16518161E+03</totfact>
</mgrwt>
</event>
<event>
 5    1  0.1433395E-002  0.1250031E+03  0.7818608E-02  0.1235064E+00
          4   -1    0    0  501    0  0.00000000000E+00  0.00000000000E+00  0.15316116277E+02  0.15368679768E+02  0.12700000000E+01 0.  1.
         -4   -1    0    0    0  501 -0.00000000000E+00 -0.00000000000E+00 -0.25456354498E+03  0.25456671293E+03  0.12700000000E+01 0.  1.
         25    2    1    2    0    0  0.00000000000E+00  0.00000000000E+00 -0.23924742871E+03  0.26993539270E+03  0.12500313632E+03 0.  0.
    9000005    1    3    3    0    0 -0.19358245275E+01  0.24054851995E+02 -0.24410618215E+03  0.24529820930E+03  0.10000000000E+01 0.  0.
    9000005    1    3    3    0    0  0.19358245275E+01 -0.24054851995E+02  0.48587534434E+01  0.24637183405E+02  0.10000000000E+01 0.  0.
<mgrwt>
<rscale>  0 0.12500314E+03</rscale>
<asrwt>0</asrwt>
<pdfrwt beam="1">  1        4 0.38359963E-02 0.12500314E+03</pdfrwt>
<pdfrwt beam="2">  1       -4 0.63647839E-01 0.12500314E+03</pdfrwt>
<totfact> 0.13856582E+03</totfact>
</mgrwt>
</event>
<event>
 5    1  0.1433395E-002  0.1249980E+03  0.7818608E-02  0.1235072E+00
          4   -1    0    0  501    0  0.00000000000E+00  0.00000000000E+00  0.92496833590E+02  0.92505551856E+02  0.12700000000E+01 0. -1.
         -4   -1    0    0    0  501 -0.00000000000E+00 -0.00000000000E+00 -0.42209540002E+02  0.42228641551E+02  0.12700000000E+01 0. -1.
         25    2    1    2    0    0  0.00000000000E+00  0.00000000000E+00  0.50287293588E+02  0.13473419341E+03  0.12499796389E+03 0.  0.
    9000005    1    3    3    0    0 -0.28216236308E+02 -0.39010019370E+02 -0.17798987510E+02  0.51339473692E+02  0.10000000000E+01 0.  0.
    9000005    1    3    3    0    0  0.28216236308E+02  0.39010019370E+02  0.68086281097E+02  0.83394719715E+02  0.10000000000E+01 0.  0.
<mgrwt>
<rscale>  0 0.12499796E+03</rscale>
<asrwt>0</asrwt>
<pdfrwt beam="1">  1        4 0.23127686E-01 0.12499796E+03</pdfrwt>
<pdfrwt beam="2">  1       -4 0.10555863E-01 0.12499796E+03</pdfrwt>
<totfact> 0.19313986E+03</totfact>
</mgrwt>
</event>
<event>
 5    1  0.1433395E-002  0.1250000E+03  0.7818608E-02  0.1235069E+00
         -4   -1    0    0    0  501 -0.00000000000E+00  0.00000000000E+00  0.29742143882E+02  0.29769246257E+02  0.12700000000E+01 0. -1.
          4   -1    0    0  501    0  0.00000000000E+00 -0.00000000000E+00 -0.13124714521E+03  0.13125328958E+03  0.12700000000E+01 0. -1.
         25    2    1    2    0    0  0.00000000000E+00  0.00000000000E+00 -0.10150500132E+03  0.16102253583E+03  0.12499996701E+03 0.  0.
    9000005    1    3    3    0    0  0.48639615722E+02  0.37421195557E+02 -0.65944833723E+02  0.90088174525E+02  0.10000000000E+01 0.  0.
    9000005    1    3    3    0    0 -0.48639615722E+02 -0.37421195557E+02 -0.35560167601E+02  0.70934361309E+02  0.10000000000E+01 0.  0.
<mgrwt>
<rscale>  0 0.12499997E+03</rscale>
<asrwt>0</asrwt>
<pdfrwt beam="2">  1        4 0.32815941E-01 0.12499997E+03</pdfrwt>
<pdfrwt beam="1">  1       -4 0.74396922E-02 0.12499997E+03</pdfrwt>
<totfact> 0.18009752E+03</totfact>
</mgrwt>
</event>
<event>
 5    1  0.1433395E-002  0.1250028E+03  0.7818608E-02  0.1235065E+00
         -4   -1    0    0    0  501 -0.00000000000E+00  0.00000000000E+00  0.11592434096E+02  0.11661793528E+02  0.12700000000E+01 0. -1.
          4   -1    0    0  501    0  0.00000000000E+00 -0.00000000000E+00 -0.33590507872E+03  0.33590747954E+03  0.12700000000E+01 0. -1.
         25    2    1    2    0    0  0.00000000000E+00  0.00000000000E+00 -0.32431264463E+03  0.34756927307E+03  0.12500283244E+03 0.  0.
    9000005    1    3    3    0    0  0.17779538019E+02 -0.38020757426E+02 -0.33418167564E+02  0.53660636325E+02  0.10000000000E+01 0.  0.
    9000005    1    3    3    0    0 -0.17779538019E+02  0.38020757426E+02 -0.29089447706E+03  0.29390863675E+03  0.10000000000E+01 0.  0.
<mgrwt>
<rscale>  0 0.12500283E+03</rscale>
<asrwt>0</asrwt>
<pdfrwt beam="2">  1        4 0.83985208E-01 0.12500283E+03</pdfrwt>
<pdfrwt beam="1">  1       -4 0.29070797E-02 0.12500283E+03</pdfrwt>
<totfact> 0.11734757E+03</totfact>
</mgrwt>
</event>
<event>
 5    1  0.1433395E-002  0.1249998E+03  0.7818608E-02  0.1235070E+00
          4   -1    0    0  501    0  0.00000000000E+00  0.00000000000E+00  0.26264208322E+03  0.26264515374E+03  0.12700000000E+01 0.  1.
         -4   -1    0    0    0  501 -0.00000000000E+00 -0.00000000000E+00 -0.14842579625E+02  0.14896814087E+02  0.12700000000E+01 0.  1.
         25    2    1    2    0    0  0.00000000000E+00  0.00000000000E+00  0.24779950360E+03  0.27754196782E+03  0.12499979967E+03 0.  0.
    9000005    1    3    3    0    0 -0.22468531019E+02  0.50609683271E+02  0.59584123642E+02  0.81347665714E+02  0.10000000000E+01 0.  0.
    9000005    1    3    3    0    0  0.22468531019E+02 -0.50609683271E+02  0.18821537996E+03  0.19619430211E+03  0.10000000000E+01 0.  0.
<mgrwt>
<rscale>  0 0.12499980E+03</rscale>
<asrwt>0</asrwt>
<pdfrwt beam="1">  1        4 0.65667684E-01 0.12499980E+03</pdfrwt>
<pdfrwt beam="2">  1       -4 0.37178080E-02 0.12499980E+03</pdfrwt>
<totfact> 0.13624741E+03</totfact>
</mgrwt>
</event>
<event>
 5    1  0.1433395E-002  0.1250000E+03  0.7818608E-02  0.1235069E+00
         -4   -1    0    0    0  501 -0.00000000000E+00  0.00000000000E+00  0.56153791256E+03  0.56153934870E+03  0.12700000000E+01 0. -1.
          4   -1    0    0  501    0  0.00000000000E+00 -0.00000000000E+00 -0.68969181707E+01  0.70128724680E+01  0.12700000000E+01 0. -1.
         25    2    1    2    0    0  0.00000000000E+00  0.00000000000E+00  0.55464099439E+03  0.56855222117E+03  0.12499998217E+03 0.  0.
    9000005    1    3    3    0    0 -0.30838960021E+02  0.26413561160E+02  0.49338383578E+03  0.49505285281E+03  0.10000000000E+01 0.  0.
    9000005    1    3    3    0    0  0.30838960021E+02 -0.26413561160E+02  0.61257158609E+02  0.73499368359E+02  0.10000000000E+01 0.  0.
<mgrwt>
<rscale>  0 0.12499998E+03</rscale>
<asrwt>0</asrwt>
<pdfrwt beam="2">  1        4 0.17389036E-02 0.12499998E+03</pdfrwt>
<pdfrwt beam="1">  1       -4 0.14039913E+00 0.12499998E+03</pdfrwt>
<totfact> 0.77607837E+02</totfact>
</mgrwt>
</event>
<event>
 5    1  0.1433395E-002  0.1250025E+03  0.7818608E-02  0.1235065E+00
         -4   -1    0    0    0  501 -0.00000000000E+00  0.00000000000E+00  0.30942077345E+02  0.30968129592E+02  0.12700000000E+01 0.  1.
          4   -1    0    0  501    0  0.00000000000E+00 -0.00000000000E+00 -0.12616663043E+03  0.12617302221E+03  0.12700000000E+01 0.  1.
         25    2    1    2    0    0  0.00000000000E+00  0.00000000000E+00 -0.95224553080E+02  0.15714115180E+03  0.12500250429E+03 0.  0.
    9000005    1    3    3    0    0  0.50678353321E+02 -0.21993033772E+02 -0.10888106642E+02  0.56316426521E+02  0.10000000000E+01 0.  0.
    9000005    1    3    3    0    0 -0.50678353321E+02  0.21993033772E+02 -0.84336446438E+02  0.10082472528E+03  0.10000000000E+01 0.  0.
<mgrwt>
<rscale>  0 0.12500250E+03</rscale>
<asrwt>0</asrwt>
<pdfrwt beam="2">  1        4 0.31545712E-01 0.12500250E+03</pdfrwt>
<pdfrwt beam="1">  1       -4 0.77395752E-02 0.12500250E+03</pdfrwt>
<totfact> 0.18192072E+03</totfact>
</mgrwt>
</event>
<event>
 5    1  0.1433395E-002  0.1249968E+03  0.7818608E-02  0.1235074E+00
         -4   -1    0    0    0  501 -0.00000000000E+00  0.00000000000E+00  0.31954816210E+02  0.31980043450E+02  0.12700000000E+01 0. -1.
          4   -1    0    0  501    0  0.00000000000E+00 -0.00000000000E+00 -0.12215995791E+03  0.12216655932E+03  0.12700000000E+01 0. -1.
         25    2    1    2    0    0  0.00000000000E+00  0.00000000000E+00 -0.90205141698E+02  0.15414660277E+03  0.12499683019E+03 0.  0.
    9000005    1    3    3    0    0 -0.31231412211E+02  0.59293134242E+01  0.21244428582E+02  0.38247661525E+02  0.10000000000E+01 0.  0.
    9000005    1    3    3    0    0  0.31231412211E+02 -0.59293134242E+01 -0.11144957028E+03  0.11589894125E+03  0.10000000000E+01 0.  0.
<mgrwt>
<rscale>  0 0.12499683E+03</rscale>
<asrwt>0</asrwt>
<pdfrwt beam="2">  1        4 0.30543967E-01 0.12499683E+03</pdfrwt>
<pdfrwt beam="1">  1       -4 0.79926829E-02 0.12499683E+03</pdfrwt>
<totfact> 0.18338106E+03</totfact>
</mgrwt>
</event>
<event>
 5    1  0.1433395E-002  0.1249998E+03  0.7818608E-02  0.1235070E+00
          4   -1    0    0  501    0  0.00000000000E+00  0.00000000000E+00  0.37061387513E+03  0.37061605111E+03  0.12700000000E+01 0.  1.
         -4   -1    0    0    0  501 -0.00000000000E+00 -0.00000000000E+00 -0.10499431304E+02  0.10575961314E+02  0.12700000000E+01 0.  1.
         25    2    1    2    0    0  0.00000000000E+00  0.00000000000E+00  0.36011444383E+03  0.38119201243E+03  0.12499975073E+03 0.  0.
    9000005    1    3    3    0    0  0.14439181469E+02 -0.60162785030E+02  0.20684875717E+03  0.21590613471E+03  0.10000000000E+01 0.  0.
    9000005    1    3    3    0    0 -0.14439181469E+02  0.60162785030E+02  0.15326568666E+03  0.16528587772E+03  0.10000000000E+01 0.  0.
<mgrwt>
<rscale>  0 0.12499975E+03</rscale>
<asrwt>0</asrwt>
<pdfrwt beam="1">  1        4 0.92663305E-01 0.12499975E+03</pdfrwt>
<pdfrwt beam="2">  1       -4 0.26346961E-02 0.12499975E+03</pdfrwt>
<totfact> 0.10967216E+03</totfact>
</mgrwt>
</event>
<event>
 5    1  0.1433395E-002  0.1250087E+03  0.7818608E-02  0.1235056E+00
          4   -1    0    0  501    0  0.00000000000E+00  0.00000000000E+00  0.65294736396E+02  0.65307086147E+02  0.12700000000E+01 0. -1.
         -4   -1    0    0    0  501 -0.00000000000E+00 -0.00000000000E+00 -0.59808472908E+02  0.59821955264E+02  0.12700000000E+01 0. -1.
         25    2    1    2    0    0  0.00000000000E+00  0.00000000000E+00  0.54862634875E+01  0.12512904141E+03  0.12500871137E+03 0.  0.
    9000005    1    3    3    0    0 -0.53948005437E+02  0.21798807242E+02  0.25573400505E+02  0.63565510312E+02  0.10000000000E+01 0.  0.
    9000005    1    3    3    0    0  0.53948005437E+02 -0.21798807242E+02 -0.20087137017E+02  0.61563531099E+02  0.10000000000E+01 0.  0.
<mgrwt>
<rscale>  0 0.12500871E+03</rscale>
<asrwt>0</asrwt>
<pdfrwt beam="1">  1        4 0.16326913E-01 0.12500871E+03</pdfrwt>
<pdfrwt beam="2">  1       -4 0.14955347E-01 0.12500871E+03</pdfrwt>
<totfact> 0.19824018E+03</totfact>
</mgrwt>
</event>
<event>
 5    1  0.1433395E-002  0.1249973E+03  0.7818608E-02  0.1235074E+00
          4   -1    0    0  501    0  0.00000000000E+00  0.00000000000E+00  0.33069511396E+01  0.35424321927E+01  0.12700000000E+01 0. -1.
         -4   -1    0    0    0  501 -0.00000000000E+00 -0.00000000000E+00 -0.11403284564E+04  0.11403291636E+04  0.12700000000E+01 0. -1.
         25    2    1    2    0    0  0.00000000000E+00  0.00000000000E+00 -0.11370215053E+04  0.11438715958E+04  0.12499729699E+03 0.  0.
    9000005    1    3    3    0    0  0.50837497831E+02 -0.15619140376E+02 -0.86878523750E+03  0.87041208495E+03  0.10000000000E+01 0.  0.
    9000005    1    3    3    0    0 -0.50837497831E+02  0.15619140376E+02 -0.26823626775E+03  0.27345951084E+03  0.10000000000E+01 0.  0.
<mgrwt>
<rscale>  0 0.12499730E+03</rscale>
<asrwt>0</asrwt>
<pdfrwt beam="1">  1        4 0.85626522E-03 0.12499730E+03</pdfrwt>
<pdfrwt beam="2">  1       -4 0.28511034E+00 0.12499730E+03</pdfrwt>
<totfact> 0.28249595E+02</totfact>
</mgrwt>
</event>
<event>
 5    1  0.1433395E-002  0.1250001E+03  0.7818608E-02  0.1235069E+00
         -4   -1    0    0    0  501 -0.00000000000E+00  0.00000000000E+00  0.11122061884E+03  0.11122786950E+03  0.12700000000E+01 0. -1.
          4   -1    0    0  501    0  0.00000000000E+00 -0.00000000000E+00 -0.35101792942E+02  0.35124760038E+02  0.12700000000E+01 0. -1.
         25    2    1    2    0    0  0.00000000000E+00  0.00000000000E+00  0.76118825896E+02  0.14635262954E+03  0.12500006607E+03 0.  0.
    9000005    1    3    3    0    0 -0.55251423884E+02  0.28308700804E+02  0.29685652673E+02  0.68821074948E+02  0.10000000000E+01 0.  0.
    9000005    1    3    3    0    0  0.55251423884E+02 -0.28308700804E+02  0.46433173223E+02  0.77531554595E+02  0.10000000000E+01 0.  0.
<mgrwt>
<rscale>  0 0.12500007E+03</rscale>
<asrwt>0</asrwt>
<pdfrwt beam="2">  1        4 0.87792255E-02 0.12500007E+03</pdfrwt>
<pdfrwt beam="1">  1       -4 0.27808932E-01 0.12500007E+03</pdfrwt>
<totfact> 0.18719560E+03</totfact>
</mgrwt>
</event>
<event>
 5    1  0.1433395E-002  0.1249959E+03  0.7818608E-02  0.1235076E+00
          4   -1    0    0  501    0  0.00000000000E+00  0.00000000000E+00  0.70528917708E+03  0.70529032051E+03  0.12700000000E+01 0.  1.
         -4   -1    0    0    0  501 -0.00000000000E+00 -0.00000000000E+00 -0.54641714420E+01  0.56098190298E+01  0.12700000000E+01 0.  1.
         25    2    1    2    0    0  0.00000000000E+00  0.00000000000E+00  0.69982500564E+03  0.71090013954E+03  0.12499587946E+03 0.  0.
    9000005    1    3    3    0    0 -0.47089392533E+02  0.55475341840E+00  0.58353017285E+03  0.58542820334E+03  0.10000000000E+01 0.  0.
    9000005    1    3    3    0    0  0.47089392533E+02 -0.55475341840E+00  0.11629483279E+03  0.12547193620E+03  0.10000000000E+01 0.  0.
<mgrwt>
<rscale>  0 0.12499588E+03</rscale>
<asrwt>0</asrwt>
<pdfrwt beam="1">  1        4 0.17634064E+00 0.12499588E+03</pdfrwt>
<pdfrwt beam="2">  1       -4 0.13843918E-02 0.12499588E+03</pdfrwt>
<totfact> 0.60943792E+02</totfact>
</mgrwt>
</event>
<event>
 5    1  0.1433395E-002  0.1249945E+03  0.7818608E-02  0.1235078E+00
          4   -1    0    0  501    0  0.00000000000E+00  0.00000000000E+00  0.16730389094E+03  0.16730871114E+03  0.12700000000E+01 0.  1.
         -4   -1    0    0    0  501 -0.00000000000E+00 -0.00000000000E+00 -0.23323743551E+02  0.23358294314E+02  0.12700000000E+01 0.  1.
         25    2    1    2    0    0  0.00000000000E+00  0.00000000000E+00  0.14398014739E+03  0.19066700545E+03  0.12499449639E+03 0.  0.
    9000005    1    3    3    0    0  0.75425285614E+01  0.58183993498E+02  0.39180101178E+02  0.70557403331E+02  0.10000000000E+01 0.  0.
    9000005    1    3    3    0    0 -0.75425285614E+01 -0.58183993498E+02  0.10480004621E+03  0.12010960212E+03  0.10000000000E+01 0.  0.
<mgrwt>
<rscale>  0 0.12499450E+03</rscale>
<asrwt>0</asrwt>
<pdfrwt beam="1">  1        4 0.41830893E-01 0.12499450E+03</pdfrwt>
<pdfrwt beam="2">  1       -4 0.58358574E-02 0.12499450E+03</pdfrwt>
<totfact> 0.16704827E+03</totfact>
</mgrwt>
</event>
<event>
 5    1  0.1433395E-002  0.1250066E+03  0.7818608E-02  0.1235059E+00
         -4   -1    0    0    0  501 -0.00000000000E+00  0.00000000000E+00  0.20180684498E+02  0.20220606489E+02  0.12700000000E+01 0.  1.
          4   -1    0    0  501    0  0.00000000000E+00 -0.00000000000E+00 -0.19335094662E+03  0.19335511749E+03  0.12700000000E+01 0.  1.
         25    2    1    2    0    0  0.00000000000E+00  0.00000000000E+00 -0.17317026212E+03  0.21357572398E+03  0.12500660058E+03 0.  0.
    9000005    1    3    3    0    0  0.47163334464E+02 -0.24154363426E+02 -0.14319475611E+03  0.15268775841E+03  0.10000000000E+01 0.  0.
    9000005    1    3    3    0    0 -0.47163334464E+02  0.24154363426E+02 -0.29975506007E+02  0.60887965565E+02  0.10000000000E+01 0.  0.
<mgrwt>
<rscale>  0 0.12500660E+03</rscale>
<asrwt>0</asrwt>
<pdfrwt beam="2">  1        4 0.48343243E-01 0.12500660E+03</pdfrwt>
<pdfrwt beam="1">  1       -4 0.50506833E-02 0.12500660E+03</pdfrwt>
<totfact> 0.15790098E+03</totfact>
</mgrwt>
</event>
<event>
 5    1  0.1433395E-002  0.1249894E+03  0.7818608E-02  0.1235086E+00
          4   -1    0    0  501    0  0.00000000000E+00  0.00000000000E+00  0.65856914306E+02  0.65869158655E+02  0.12700000000E+01 0. -1.
         -4   -1    0    0    0  501 -0.00000000000E+00 -0.00000000000E+00 -0.59279591115E+02  0.59293193731E+02  0.12700000000E+01 0. -1.
         25    2    1    2    0    0  0.00000000000E+00  0.00000000000E+00  0.65773231909E+01  0.12516235239E+03  0.12498941265E+03 0.  0.
    9000005    1    3    3    0    0  0.57612845854E+02 -0.43347087608E+01  0.27124087258E+02  0.63833735729E+02  0.10000000000E+01 0.  0.
    9000005    1    3    3    0    0 -0.57612845854E+02  0.43347087608E+01 -0.20546764068E+02  0.61328616657E+02  0.10000000000E+01 0.  0.
<mgrwt>
<rscale>  0 0.12498941E+03</rscale>
<asrwt>0</asrwt>
<pdfrwt beam="1">  1        4 0.16467459E-01 0.12498941E+03</pdfrwt>
<pdfrwt beam="2">  1       -4 0.14823129E-01 0.12498941E+03</pdfrwt>
<totfact> 0.19831165E+03</totfact>
</mgrwt>
</event>
<event>
 5    1  0.1433395E-002  0.1250085E+03  0.7818608E-02  0.1235056E+00
         -4   -1    0    0    0  501 -0.00000000000E+00  0.00000000000E+00  0.54931665186E+03  0.54931811995E+03  0.12700000000E+01 0.  1.
          4   -1    0    0  501    0  0.00000000000E+00 -0.00000000000E+00 -0.70538935927E+01  0.71673087570E+01  0.12700000000E+01 0.  1.
         25    2    1    2    0    0  0.00000000000E+00  0.00000000000E+00  0.54226275827E+03  0.55648542871E+03  0.12500853317E+03 0.  0.
    9000005    1    3    3    0    0  0.32912438981E+02  0.49322553022E+02  0.35902504854E+03  0.36388999486E+03  0.10000000000E+01 0.  0.
    9000005    1    3    3    0    0 -0.32912438981E+02 -0.49322553022E+02  0.18323770972E+03  0.19259543385E+03  0.10000000000E+01 0.  0.
<mgrwt>
<rscale>  0 0.12500853E+03</rscale>
<asrwt>0</asrwt>
<pdfrwt beam="2">  1        4 0.17778338E-02 0.12500853E+03</pdfrwt>
<pdfrwt beam="1">  1       -4 0.13734353E+00 0.12500853E+03</pdfrwt>
<totfact> 0.79249792E+02</totfact>
</mgrwt>
</event>
<event>
 5    1  0.1433395E-002  0.1250052E+03  0.7818608E-02  0.1235061E+00
          4   -1    0    0  501    0  0.00000000000E+00  0.00000000000E+00  0.43569271258E+02  0.43587776933E+02  0.12700000000E+01 0.  1.
         -4   -1    0    0    0  501 -0.00000000000E+00 -0.00000000000E+00 -0.89621486351E+02  0.89630484299E+02  0.12700000000E+01 0.  1.
         25    2    1    2    0    0  0.00000000000E+00  0.00000000000E+00 -0.46052215093E+02  0.13321826123E+03  0.12500519433E+03 0.  0.
    9000005    1    3    3    0    0  0.58658943207E+02  0.10968177056E+02 -0.32487341300E+01  0.59772291236E+02  0.10000000000E+01 0.  0.
    9000005    1    3    3    0    0 -0.58658943207E+02 -0.10968177056E+02 -0.42803480963E+02  0.73445969996E+02  0.10000000000E+01 0.  0.
<mgrwt>
<rscale>  0 0.12500519E+03</rscale>
<asrwt>0</asrwt>
<pdfrwt beam="1">  1        4 0.10895756E-01 0.12500519E+03</pdfrwt>
<pdfrwt beam="2">  1       -4 0.22408809E-01 0.12500519E+03</pdfrwt>
<totfact> 0.19390524E+03</totfact>
</mgrwt>
</event>
<event>
 5    1  0.1433395E-002  0.1249966E+03  0.7818608E-02  0.1235075E+00
          4   -1    0    0  501    0  0.00000000000E+00  0.00000000000E+00  0.60901811517E+02  0.60915051884E+02  0.12700000000E+01 0. -1.
         -4   -1    0    0    0  501 -0.00000000000E+00 -0.00000000000E+00 -0.64110104182E+02  0.64122682089E+02  0.12700000000E+01 0. -1.
         25    2    1    2    0    0  0.00000000000E+00  0.00000000000E+00 -0.32082926650E+01  0.12503773397E+03  0.12499656705E+03 0.  0.
    9000005    1    3    3    0    0  0.31438582703E+02 -0.37410166740E+02 -0.40567332383E+02  0.63518607625E+02  0.10000000000E+01 0.  0.
    9000005    1    3    3    0    0 -0.31438582703E+02  0.37410166740E+02  0.37359039718E+02  0.61519126348E+02  0.10000000000E+01 0.  0.
<mgrwt>
<rscale>  0 0.12499657E+03</rscale>
<asrwt>0</asrwt>
<pdfrwt beam="1">  1        4 0.15228680E-01 0.12499657E+03</pdfrwt>
<pdfrwt beam="2">  1       -4 0.16030753E-01 0.12499657E+03</pdfrwt>
<totfact> 0.19834602E+03</totfact>
</mgrwt>
</event>
<event>
 5    1  0.1433395E-002  0.1249918E+03  0.7818608E-02  0.1235082E+00
         -4   -1    0    0    0  501 -0.00000000000E+00  0.00000000000E+00  0.59388854487E+02  0.59402432082E+02  0.12700000000E+01 0. -1.
          4   -1    0    0  501    0  0.00000000000E+00 -0.00000000000E+00 -0.65738293149E+02  0.65750559588E+02  0.12700000000E+01 0. -1.
         25    2    1    2    0    0  0.00000000000E+00  0.00000000000E+00 -0.63494386621E+01  0.12515299167E+03  0.12499182354E+03 0.  0.
    9000005    1    3    3    0    0  0.26196994182E+02 -0.42546896348E+02  0.34399900188E+02  0.60670207070E+02  0.10000000000E+01 0.  0.
    9000005    1    3    3    0    0 -0.26196994182E+02  0.42546896348E+02 -0.40749338850E+02  0.64482784600E+02  0.10000000000E+01 0.  0.
<mgrwt>
<rscale>  0 0.12499182E+03</rscale>
<asrwt>0</asrwt>
<pdfrwt beam="2">  1        4 0.16437804E-01 0.12499182E+03</pdfrwt>
<pdfrwt beam="1">  1       -4 0.14850444E-01 0.12499182E+03</pdfrwt>
<totfact> 0.19830554E+03</totfact>
</mgrwt>
</event>
<event>
 5    1  0.1433395E-002  0.1250009E+03  0.7818608E-02  0.1235068E+00
         -4   -1    0    0    0  501 -0.00000000000E+00  0.00000000000E+00  0.44815637705E+03  0.44815817652E+03  0.12700000000E+01 0.  1.
          4   -1    0    0  501    0  0.00000000000E+00 -0.00000000000E+00 -0.86683022959E+01  0.87608426931E+01  0.12700000000E+01 0.  1.
         25    2    1    2    0    0  0.00000000000E+00  0.00000000000E+00  0.43948807475E+03  0.45691901922E+03  0.12500088910E+03 0.  0.
    9000005    1    3    3    0    0  0.52930415426E+02 -0.30715921847E+02  0.26601082724E+03  0.27296127371E+03  0.10000000000E+01 0.  0.
    9000005    1    3    3    0    0 -0.52930415426E+02  0.30715921847E+02  0.17347724750E+03  0.18395774551E+03  0.10000000000E+01 0.  0.
<mgrwt>
<rscale>  0 0.12500089E+03</rscale>
<asrwt>0</asrwt>
<pdfrwt beam="2">  1        4 0.21788682E-02 0.12500089E+03</pdfrwt>
<pdfrwt beam="1">  1       -4 0.11205088E+00 0.12500089E+03</pdfrwt>
<totfact> 0.94785986E+02</totfact>
</mgrwt>
</event>
<event>
 5    1  0.1433395E-002  0.1249953E+03  0.7818608E-02  0.1235077E+00
          4   -1    0    0  501    0  0.00000000000E+00  0.00000000000E+00  0.55408583753E+03  0.55408729299E+03  0.12700000000E+01 0.  1.
         -4   -1    0    0    0  501 -0.00000000000E+00 -0.00000000000E+00 -0.69906965699E+01  0.71051205853E+01  0.12700000000E+01 0.  1.
         25    2    1    2    0    0  0.00000000000E+00  0.00000000000E+00  0.54709514096E+03  0.56119241358E+03  0.12499532708E+03 0.  0.
    9000005    1    3    3    0    0  0.44665684409E+02 -0.43095297841E+02  0.30614973530E+03  0.31237939830E+03  0.10000000000E+01 0.  0.
    9000005    1    3    3    0    0 -0.44665684409E+02  0.43095297841E+02  0.24094540566E+03  0.24881301527E+03  0.10000000000E+01 0.  0.
<mgrwt>
<rscale>  0 0.12499533E+03</rscale>
<asrwt>0</asrwt>
<pdfrwt beam="1">  1        4 0.13853594E+00 0.12499533E+03</pdfrwt>
<pdfrwt beam="2">  1       -4 0.17621591E-02 0.12499533E+03</pdfrwt>
<totfact> 0.78621357E+02</totfact>
</mgrwt>
</event>
<event>
 5    1  0.1433395E-002  0.1249987E+03  0.7818608E-02  0.1235071E+00
         -4   -1    0    0    0  501 -0.00000000000E+00  0.00000000000E+00  0.79223893533E+02  0.79234072258E+02  0.12700000000E+01 0. -1.
          4   -1    0    0  501    0  0.00000000000E+00 -0.00000000000E+00 -0.49283928591E+02  0.49300289222E+02  0.12700000000E+01 0. -1.
         25    2    1    2    0    0  0.00000000000E+00  0.00000000000E+00  0.29939964942E+02  0.12853436148E+03  0.12499872231E+03 0.  0.
    9000005    1    3    3    0    0  0.48566550955E+02 -0.39190134994E+02  0.11623139759E+02  0.63487588790E+02  0.10000000000E+01 0.  0.
    9000005    1    3    3    0    0 -0.48566550955E+02  0.39190134994E+02  0.18316825182E+02  0.65046772689E+02  0.10000000000E+01 0.  0.
<mgrwt>
<rscale>  0 0.12499872E+03</rscale>
<asrwt>0</asrwt>
<pdfrwt beam="2">  1        4 0.12324300E-01 0.12499872E+03</pdfrwt>
<pdfrwt beam="1">  1       -4 0.19809291E-01 0.12499872E+03</pdfrwt>
<totfact> 0.19644095E+03</totfact>
</mgrwt>
</event>
<event>
 5    1  0.1433395E-002  0.1249998E+03  0.7818608E-02  0.1235070E+00
          4   -1    0    0  501    0  0.00000000000E+00  0.00000000000E+00  0.11416614096E+02  0.11487035188E+02  0.12700000000E+01 0.  1.
         -4   -1    0    0    0  501 -0.00000000000E+00 -0.00000000000E+00 -0.34103041673E+03  0.34103278146E+03  0.12700000000E+01 0.  1.
         25    2    1    2    0    0  0.00000000000E+00  0.00000000000E+00 -0.32961380263E+03  0.35251981665E+03  0.12499984899E+03 0.  0.
    9000005    1    3    3    0    0  0.39463371251E+02  0.48241627142E+02 -0.15199817968E+03  0.16428347113E+03  0.10000000000E+01 0.  0.
    9000005    1    3    3    0    0 -0.39463371251E+02 -0.48241627142E+02 -0.17761562295E+03  0.18823634552E+03  0.10000000000E+01 0.  0.
<mgrwt>
<rscale>  0 0.12499985E+03</rscale>
<asrwt>0</asrwt>
<pdfrwt beam="1">  1        4 0.28632529E-02 0.12499985E+03</pdfrwt>
<pdfrwt beam="2">  1       -4 0.85266669E-01 0.12499985E+03</pdfrwt>
<totfact> 0.11617492E+03</totfact>
</mgrwt>
</event>
<event>
 5    1  0.1433395E-002  0.1250015E+03  0.7818608E-02  0.1235067E+00
          4   -1    0    0  501    0  0.00000000000E+00  0.00000000000E+00  0.13835552011E+03  0.13836134881E+03  0.12700000000E+01 0. -1.
         -4   -1    0    0    0  501 -0.00000000000E+00 -0.00000000000E+00 -0.28213372315E+02  0.28241941814E+02  0.12700000000E+01 0. -1.
         25    2    1    2    0    0  0.00000000000E+00  0.00000000000E+00  0.11014214779E+03  0.16660329062E+03  0.12500145490E+03 0.  0.
    9000005    1    3    3    0    0  0.14756874266E+02 -0.10027436437E+02  0.13489549474E+03  0.13607391125E+03  0.10000000000E+01 0.  0.
    9000005    1    3    3    0    0 -0.14756874266E+02  0.10027436437E+02 -0.24753346953E+02  0.30529379375E+02  0.10000000000E+01 0.  0.
<mgrwt>
<rscale>  0 0.12500145E+03</rscale>
<asrwt>0</asrwt>
<pdfrwt beam="1">  1        4 0.34593179E-01 0.12500145E+03</pdfrwt>
<pdfrwt beam="2">  1       -4 0.70576430E-02 0.12500145E+03</pdfrwt>
<totfact> 0.17750750E+03</totfact>
</mgrwt>
</event>
<event>
 5    1  0.1433395E-002  0.1250395E+03  0.7818608E-02  0.1235008E+00
          4   -1    0    0  501    0  0.00000000000E+00  0.00000000000E+00  0.92667422572E+02  0.92676124790E+02  0.12700000000E+01 0. -1.
         -4   -1    0    0    0  501 -0.00000000000E+00 -0.00000000000E+00 -0.42159828019E+02  0.42178952080E+02  0.12700000000E+01 0. -1.
         25    2    1    2    0    0  0.00000000000E+00  0.00000000000E+00  0.50507594553E+02  0.13485507687E+03  0.12503949236E+03 0.  0.
    9000005    1    3    3    0    0 -0.15166786065E+02  0.44547338542E+02 -0.19125154137E+02  0.50806183595E+02  0.10000000000E+01 0.  0.
    9000005    1    3    3    0    0  0.15166786065E+02 -0.44547338542E+02  0.69632748690E+02  0.84048893275E+02  0.10000000000E+01 0.  0.
<mgrwt>
<rscale>  0 0.12503949E+03</rscale>
<asrwt>0</asrwt>
<pdfrwt beam="1">  1        4 0.23170334E-01 0.12503949E+03</pdfrwt>
<pdfrwt beam="2">  1       -4 0.10543435E-01 0.12503949E+03</pdfrwt>
<totfact> 0.19288951E+03</totfact>
</mgrwt>
</event>
<event>
 5    1  0.1433395E-002  0.1250030E+03  0.7818608E-02  0.1235065E+00
          4   -1    0    0  501    0  0.00000000000E+00  0.00000000000E+00  0.24059095765E+03  0.24059430958E+03  0.12700000000E+01 0. -1.
         -4   -1    0    0    0  501 -0.00000000000E+00 -0.00000000000E+00 -0.16208546195E+02  0.16258224681E+02  0.12700000000E+01 0. -1.
         25    2    1    2    0    0  0.00000000000E+00  0.00000000000E+00  0.22438241145E+03  0.25685253426E+03  0.12500303111E+03 0.  0.
    9000005    1    3    3    0    0  0.11798345437E+02  0.29632942817E+02  0.17651732013E+01  0.31959788664E+02  0.10000000000E+01 0.  0.
    9000005    1    3    3    0    0 -0.11798345437E+02 -0.29632942817E+02  0.22261723825E+03  0.22489274559E+03  0.10000000000E+01 0.  0.
<mgrwt>
<rscale>  0 0.12500303E+03</rscale>
<asrwt>0</asrwt>
<pdfrwt beam="1">  1        4 0.60154368E-01 0.12500303E+03</pdfrwt>
<pdfrwt beam="2">  1       -4 0.40587654E-02 0.12500303E+03</pdfrwt>
<totfact> 0.14271786E+03</totfact>
</mgrwt>
</event>
<event>
 5    1  0.1433395E-002  0.1249966E+03  0.7818608E-02  0.1235075E+00
         -4   -1    0    0    0  501 -0.00000000000E+00  0.00000000000E+00  0.33962469108E+02  0.33986206141E+02  0.12700000000E+01 0. -1.
          4   -1    0    0  501    0  0.00000000000E+00 -0.00000000000E+00 -0.11494291453E+03  0.11494993041E+03  0.12700000000E+01 0. -1.
         25    2    1    2    0    0  0.00000000000E+00  0.00000000000E+00 -0.80980445423E+02  0.14893613655E+03  0.12499656087E+03 0.  0.
    9000005    1    3    3    0    0 -0.54806640466E+01  0.48868845442E+02  0.54542385041E+01  0.49486871500E+02  0.10000000000E+01 0.  0.
    9000005    1    3    3    0    0  0.54806640466E+01 -0.48868845442E+02 -0.86434683927E+02  0.99449265049E+02  0.10000000000E+01 0.  0.
<mgrwt>
<rscale>  0 0.12499656E+03</rscale>
<asrwt>0</asrwt>
<pdfrwt beam="2">  1        4 0.28739572E-01 0.12499656E+03</pdfrwt>
<pdfrwt beam="1">  1       -4 0.84944616E-02 0.12499656E+03</pdfrwt>
<totfact> 0.18592703E+03</totfact>
</mgrwt>
</event>
<event>
 5    1  0.1433395E-002  0.1250006E+03  0.7818608E-02  0.1235068E+00
         -4   -1    0    0    0  501 -0.00000000000E+00  0.00000000000E+00  0.25280669304E+02  0.25312549070E+02  0.12700000000E+01 0.  1.
          4   -1    0    0  501    0  0.00000000000E+00 -0.00000000000E+00 -0.15438488362E+03  0.15439010716E+03  0.12700000000E+01 0.  1.
         25    2    1    2    0    0  0.00000000000E+00  0.00000000000E+00 -0.12910421431E+03  0.17970265623E+03  0.12500058601E+03 0.  0.
    9000005    1    3    3    0    0  0.48548672031E+02  0.37967963602E+02 -0.49698911571E+02  0.79180310857E+02  0.10000000000E+01 0.  0.
    9000005    1    3    3    0    0 -0.48548672031E+02 -0.37967963602E+02 -0.79405302742E+02  0.10052234537E+03  0.10000000000E+01 0.  0.
<mgrwt>
<rscale>  0 0.12500059E+03</rscale>
<asrwt>0</asrwt>
<pdfrwt beam="2">  1        4 0.38600856E-01 0.12500059E+03</pdfrwt>
<pdfrwt beam="1">  1       -4 0.63248057E-02 0.12500059E+03</pdfrwt>
<totfact> 0.17167859E+03</totfact>
</mgrwt>
</event>
<event>
 5    1  0.1433395E-002  0.1250168E+03  0.7818608E-02  0.1235043E+00
          4   -1    0    0  501    0  0.00000000000E+00  0.00000000000E+00  0.28856813498E+02  0.28884746585E+02  0.12700000000E+01 0. -1.
         -4   -1    0    0    0  501 -0.00000000000E+00 -0.00000000000E+00 -0.13530651305E+03  0.13531247309E+03  0.12700000000E+01 0. -1.
         25    2    1    2    0    0  0.00000000000E+00  0.00000000000E+00 -0.10644969956E+03  0.16419721968E+03  0.12501675254E+03 0.  0.
    9000005    1    3    3    0    0 -0.30861001518E+02 -0.52005798333E+02 -0.73962154251E+02  0.95542685416E+02  0.10000000000E+01 0.  0.
    9000005    1    3    3    0    0  0.30861001518E+02  0.52005798333E+02 -0.32487545305E+02  0.68654534263E+02  0.10000000000E+01 0.  0.
<mgrwt>
<rscale>  0 0.12501675E+03</rscale>
<asrwt>0</asrwt>
<pdfrwt beam="1">  1        4 0.72184404E-02 0.12501675E+03</pdfrwt>
<pdfrwt beam="2">  1       -4 0.33830863E-01 0.12501675E+03</pdfrwt>
<totfact> 0.17855048E+03</totfact>
</mgrwt>
</event>
<event>
 5    1  0.1433395E-002  0.1250008E+03  0.7818608E-02  0.1235068E+00
          4   -1    0    0  501    0  0.00000000000E+00  0.00000000000E+00  0.49015330388E+01  0.50633907741E+01  0.12700000000E+01 0. -1.
         -4   -1    0    0    0  501 -0.00000000000E+00 -0.00000000000E+00 -0.78384735717E+03  0.78384838600E+03  0.12700000000E+01 0. -1.
         25    2    1    2    0    0  0.00000000000E+00  0.00000000000E+00 -0.77894582413E+03  0.78891177678E+03  0.12500077843E+03 0.  0.
    9000005    1    3    3    0    0  0.51703725521E+01  0.47900080629E+02 -0.13827638982E+03  0.14643261405E+03  0.10000000000E+01 0.  0.
    9000005    1    3    3    0    0 -0.51703725521E+01 -0.47900080629E+02 -0.64066943431E+03  0.64247916273E+03  0.10000000000E+01 0.  0.
<mgrwt>
<rscale>  0 0.12500078E+03</rscale>
<asrwt>0</asrwt>
<pdfrwt beam="1">  1        4 0.12457468E-02 0.12500078E+03</pdfrwt>
<pdfrwt beam="2">  1       -4 0.19598178E+00 0.12500078E+03</pdfrwt>
<totfact> 0.53465737E+02</totfact>
</mgrwt>
</event>
<event>
 5    1  0.1433395E-002  0.1250007E+03  0.7818608E-02  0.1235068E+00
         -4   -1    0    0    0  501 -0.00000000000E+00  0.00000000000E+00  0.12614128965E+03  0.12614768271E+03  0.12700000000E+01 0. -1.
          4   -1    0    0  501    0  0.00000000000E+00 -0.00000000000E+00 -0.30947423187E+02  0.30973470937E+02  0.12700000000E+01 0. -1.
         25    2    1    2    0    0  0.00000000000E+00  0.00000000000E+00  0.95193866461E+02  0.15712115365E+03  0.12500073885E+03 0.  0.
    9000005    1    3    3    0    0  0.23041345442E+02  0.20353584727E+02  0.11598448295E+03  0.11999405109E+03  0.10000000000E+01 0.  0.
    9000005    1    3    3    0    0 -0.23041345442E+02 -0.20353584727E+02 -0.20790616487E+02  0.37127102566E+02  0.10000000000E+01 0.  0.
<mgrwt>
<rscale>  0 0.12500074E+03</rscale>
<asrwt>0</asrwt>
<pdfrwt beam="2">  1        4 0.77409110E-02 0.12500074E+03</pdfrwt>
<pdfrwt beam="1">  1       -4 0.31539377E-01 0.12500074E+03</pdfrwt>
<totfact> 0.18193772E+03</totfact>
</mgrwt>
</event>
<event>
 5    1  0.1433395E-002  0.1250044E+03  0.7818608E-02  0.1235062E+00
         -4   -1    0    0    0  501 -0.00000000000E+00  0.00000000000E+00  0.76574224083E+01  0.77620240877E+01  0.12700000000E+01 0.  1.
          4   -1    0    0  501    0  0.00000000000E+00 -0.00000000000E+00 -0.50659542214E+03  0.50659701403E+03  0.12700000000E+01 0.  1.
         25    2    1    2    0    0  0.00000000000E+00  0.00000000000E+00 -0.49893799973E+03  0.51435903812E+03  0.12500437003E+03 0.  0.
    9000005    1    3    3    0    0 -0.42890259402E+02  0.23562152937E+01 -0.43624309337E+03  0.43835392391E+03  0.10000000000E+01 0.  0.
    9000005    1    3    3    0    0  0.42890259402E+02 -0.23562152937E+01 -0.62694906362E+02  0.76005114208E+02  0.10000000000E+01 0.  0.
<mgrwt>
<rscale>  0 0.12500437E+03</rscale>
<asrwt>0</asrwt>
<pdfrwt beam="2">  1        4 0.12666202E+00 0.12500437E+03</pdfrwt>
<pdfrwt beam="1">  1       -4 0.19276315E-02 0.12500437E+03</pdfrwt>
<totfact> 0.85358925E+02</totfact>
</mgrwt>
</event>
<event>
 5    1  0.1433395E-002  0.1249989E+03  0.7818608E-02  0.1235071E+00
         -4   -1    0    0    0  501 -0.00000000000E+00  0.00000000000E+00  0.29718210015E+02  0.29745334197E+02  0.12700000000E+01 0. -1.
          4   -1    0    0  501    0  0.00000000000E+00 -0.00000000000E+00 -0.13135042419E+03  0.13135656373E+03  0.12700000000E+01 0. -1.
         25    2    1    2    0    0  0.00000000000E+00  0.00000000000E+00 -0.10163221418E+03  0.16110189793E+03  0.12499885823E+03 0.  0.
    9000005    1    3    3    0    0  0.48547105539E+02  0.24217435976E+02 -0.90787885658E+02  0.10576741390E+03  0.10000000000E+01 0.  0.
    9000005    1    3    3    0    0 -0.48547105539E+02 -0.24217435976E+02 -0.10844328520E+02  0.55334484027E+02  0.10000000000E+01 0.  0.
<mgrwt>
<rscale>  0 0.12499886E+03</rscale>
<asrwt>0</asrwt>
<pdfrwt beam="2">  1        4 0.32841762E-01 0.12499886E+03</pdfrwt>
<pdfrwt beam="1">  1       -4 0.74337108E-02 0.12499886E+03</pdfrwt>
<totfact> 0.18006498E+03</totfact>
</mgrwt>
</event>
<event>
 5    1  0.1433395E-002  0.1249995E+03  0.7818608E-02  0.1235070E+00
          4   -1    0    0  501    0  0.00000000000E+00  0.00000000000E+00  0.73102039726E+02  0.73113070733E+02  0.12700000000E+01 0. -1.
         -4   -1    0    0    0  501 -0.00000000000E+00 -0.00000000000E+00 -0.53412500196E+02  0.53427596588E+02  0.12700000000E+01 0. -1.
         25    2    1    2    0    0  0.00000000000E+00  0.00000000000E+00  0.19689539530E+02  0.12654066732E+03  0.12499945008E+03 0.  0.
    9000005    1    3    3    0    0 -0.59783462397E+02  0.32567550757E+01 -0.82798014472E+01  0.60450177351E+02  0.10000000000E+01 0.  0.
    9000005    1    3    3    0    0  0.59783462397E+02 -0.32567550757E+01  0.27969340977E+02  0.66090489970E+02  0.10000000000E+01 0.  0.
<mgrwt>
<rscale>  0 0.12499945E+03</rscale>
<asrwt>0</asrwt>
<pdfrwt beam="1">  1        4 0.18278776E-01 0.12499945E+03</pdfrwt>
<pdfrwt beam="2">  1       -4 0.13356391E-01 0.12499945E+03</pdfrwt>
<totfact> 0.19751985E+03</totfact>
</mgrwt>
</event>
<event>
 5    1  0.1433395E-002  0.1250027E+03  0.7818608E-02  0.1235065E+00
         -4   -1    0    0    0  501 -0.00000000000E+00  0.00000000000E+00  0.57028359649E+02  0.57042499106E+02  0.12700000000E+01 0. -1.
          4   -1    0    0  501    0  0.00000000000E+00 -0.00000000000E+00 -0.68471049364E+02  0.68482826322E+02  0.12700000000E+01 0. -1.
         25    2    1    2    0    0  0.00000000000E+00  0.00000000000E+00 -0.11442689715E+02  0.12552532543E+03  0.12500268867E+03 0.  0.
    9000005    1    3    3    0    0 -0.26399538983E+02  0.40102305809E+02  0.34449503345E+02  0.59100751860E+02  0.10000000000E+01 0.  0.
    9000005    1    3    3    0    0  0.26399538983E+02 -0.40102305809E+02 -0.45892193060E+02  0.66424573568E+02  0.10000000000E+01 0.  0.
<mgrwt>
<rscale>  0 0.12500269E+03</rscale>
<asrwt>0</asrwt>
<pdfrwt beam="2">  1        4 0.17121002E-01 0.12500269E+03</pdfrwt>
<pdfrwt beam="1">  1       -4 0.14260329E-01 0.12500269E+03</pdfrwt>
<totfact> 0.19805347E+03</totfact>
</mgrwt>
</event>
<event>
 5    1  0.1433395E-002  0.1250093E+03  0.7818608E-02  0.1235055E+00
         -4   -1    0    0    0  501 -0.00000000000E+00  0.00000000000E+00  0.12083608606E+02  0.12150164482E+02  0.12700000000E+01 0.  1.
          4   -1    0    0  501    0  0.00000000000E+00 -0.00000000000E+00 -0.32236074797E+03  0.32236324966E+03  0.12700000000E+01 0.  1.
         25    2    1    2    0    0  0.00000000000E+00  0.00000000000E+00 -0.31027713936E+03  0.33451341414E+03  0.12500928377E+03 0.  0.
    9000005    1    3    3    0    0 -0.12870399332E+02  0.10976964613E+02 -0.31613154233E+03  0.31658536446E+03  0.10000000000E+01 0.  0.
    9000005    1    3    3    0    0  0.12870399332E+02 -0.10976964613E+02  0.58544029748E+01  0.17928049678E+02  0.10000000000E+01 0.  0.
<mgrwt>
<rscale>  0 0.12500928E+03</rscale>
<asrwt>0</asrwt>
<pdfrwt beam="2">  1        4 0.80598791E-01 0.12500928E+03</pdfrwt>
<pdfrwt beam="1">  1       -4 0.30295354E-02 0.12500928E+03</pdfrwt>
<totfact> 0.12053505E+03</totfact>
</mgrwt>
</event>
<event>
 5    1  0.1433395E-002  0.1249947E+03  0.7818608E-02  0.1235078E+00
          4   -1    0    0  501    0  0.00000000000E+00  0.00000000000E+00  0.14121738484E+03  0.14122309542E+03  0.12700000000E+01 0.  1.
         -4   -1    0    0    0  501 -0.00000000000E+00 -0.00000000000E+00 -0.27638068987E+02  0.27667232557E+02  0.12700000000E+01 0.  1.
         25    2    1    2    0    0  0.00000000000E+00  0.00000000000E+00  0.11357931585E+03  0.16889032798E+03  0.12499472747E+03 0.  0.
    9000005    1    3    3    0    0  0.56062947173E+02 -0.52340089220E+01  0.20171155211E+02  0.59819097266E+02  0.10000000000E+01 0.  0.
    9000005    1    3    3    0    0 -0.56062947173E+02  0.52340089220E+01  0.93408160637E+02  0.10907123071E+03  0.10000000000E+01 0.  0.
<mgrwt>
<rscale>  0 0.12499473E+03</rscale>
<asrwt>0</asrwt>
<pdfrwt beam="1">  1        4 0.35308704E-01 0.12499473E+03</pdfrwt>
<pdfrwt beam="2">  1       -4 0.69138767E-02 0.12499473E+03</pdfrwt>
<totfact> 0.17649375E+03</totfact>
</mgrwt>
</event>
<event>
 5    1  0.1433395E-002  0.1249638E+03  0.7818608E-02  0.1235126E+00
          4   -1    0    0  501    0  0.00000000000E+00  0.00000000000E+00  0.99364808163E+02  0.99372923884E+02  0.12700000000E+01 0. -1.
         -4   -1    0    0    0  501 -0.00000000000E+00 -0.00000000000E+00 -0.39269443534E+02  0.39289974490E+02  0.12700000000E+01 0. -1.
         25    2    1    2    0    0  0.00000000000E+00  0.00000000000E+00  0.60095364629E+02  0.13866289837E+03  0.12496378089E+03 0.  0.
    9000005    1    3    3    0    0 -0.64493926640E+01 -0.37339872161E+01  0.98875273462E+02  0.99160763553E+02  0.10000000000E+01 0.  0.
    9000005    1    3    3    0    0  0.64493926640E+01  0.37339872161E+01 -0.38779908833E+02  0.39502134820E+02  0.10000000000E+01 0.  0.
<mgrwt>
<rscale>  0 0.12496378E+03</rscale>
<asrwt>0</asrwt>
<pdfrwt beam="1">  1        4 0.24844783E-01 0.12496378E+03</pdfrwt>
<pdfrwt beam="2">  1       -4 0.98209418E-02 0.12496378E+03</pdfrwt>
<totfact> 0.19125107E+03</totfact>
</mgrwt>
</event>
<event>
 5    1  0.1433395E-002  0.1250027E+03  0.7818608E-02  0.1235065E+00
          4   -1    0    0  501    0  0.00000000000E+00  0.00000000000E+00  0.99417639464E+01  0.10022553086E+02  0.12700000000E+01 0.  1.
         -4   -1    0    0    0  501 -0.00000000000E+00 -0.00000000000E+00 -0.39125805041E+03  0.39126011158E+03  0.12700000000E+01 0.  1.
         25    2    1    2    0    0  0.00000000000E+00  0.00000000000E+00 -0.38131628646E+03  0.40128266466E+03  0.12500266652E+03 0.  0.
    9000005    1    3    3    0    0 -0.50853370124E+02  0.36109352539E+02 -0.17803344400E+03  0.18864479260E+03  0.10000000000E+01 0.  0.
    9000005    1    3    3    0    0  0.50853370124E+02 -0.36109352539E+02 -0.20328284247E+03  0.21263787206E+03  0.10000000000E+01 0.  0.
<mgrwt>
<rscale>  0 0.12500267E+03</rscale>
<asrwt>0</asrwt>
<pdfrwt beam="1">  1        4 0.24957986E-02 0.12500267E+03</pdfrwt>
<pdfrwt beam="2">  1       -4 0.97824818E-01 0.12500267E+03</pdfrwt>
<totfact> 0.10542191E+03</totfact>
</mgrwt>
</event>
<event>
 5    1  0.1433395E-002  0.1249998E+03  0.7818608E-02  0.1235070E+00
         -4   -1    0    0    0  501 -0.00000000000E+00  0.00000000000E+00  0.11898576939E+03  0.11899254690E+03  0.12700000000E+01 0. -1.
          4   -1    0    0  501    0  0.00000000000E+00 -0.00000000000E+00 -0.32809462422E+02  0.32834033021E+02  0.12700000000E+01 0. -1.
         25    2    1    2    0    0  0.00000000000E+00  0.00000000000E+00  0.86176306968E+02  0.15182657992E+03  0.12499981795E+03 0.  0.
    9000005    1    3    3    0    0 -0.47227040428E+02 -0.37895931644E+02  0.24320743855E+02  0.65260965090E+02  0.10000000000E+01 0.  0.
    9000005    1    3    3    0    0  0.47227040428E+02  0.37895931644E+02  0.61855563114E+02  0.86565614830E+02  0.10000000000E+01 0.  0.
<mgrwt>
<rscale>  0 0.12499982E+03</rscale>
<asrwt>0</asrwt>
<pdfrwt beam="2">  1        4 0.82062842E-02 0.12499982E+03</pdfrwt>
<pdfrwt beam="1">  1       -4 0.29750361E-01 0.12499982E+03</pdfrwt>
<totfact> 0.18449409E+03</totfact>
</mgrwt>
</event>
<event>
 5    1  0.1433395E-002  0.1249949E+03  0.7818608E-02  0.1235077E+00
         -4   -1    0    0    0  501 -0.00000000000E+00  0.00000000000E+00  0.44538626816E+02  0.44556729892E+02  0.12700000000E+01 0. -1.
          4   -1    0    0  501    0  0.00000000000E+00 -0.00000000000E+00 -0.87657103029E+02  0.87666302599E+02  0.12700000000E+01 0. -1.
         25    2    1    2    0    0  0.00000000000E+00  0.00000000000E+00 -0.43118476213E+02  0.13222303249E+03  0.12499490922E+03 0.  0.
    9000005    1    3    3    0    0 -0.39062995748E+02  0.28067286110E+02  0.20637886297E+02  0.52350859947E+02  0.10000000000E+01 0.  0.
    9000005    1    3    3    0    0  0.39062995748E+02 -0.28067286110E+02 -0.63756362510E+02  0.79872172544E+02  0.10000000000E+01 0.  0.
<mgrwt>
<rscale>  0 0.12499491E+03</rscale>
<asrwt>0</asrwt>
<pdfrwt beam="2">  1        4 0.21917688E-01 0.12499491E+03</pdfrwt>
<pdfrwt beam="1">  1       -4 0.11138070E-01 0.12499491E+03</pdfrwt>
<totfact> 0.19447912E+03</totfact>
</mgrwt>
</event>
<event>
 5    1  0.1433395E-002  0.1250016E+03  0.7818608E-02  0.1235067E+00
          4   -1    0    0  501    0  0.00000000000E+00  0.00000000000E+00  0.25971905641E+02  0.26002937961E+02  0.12700000000E+01 0.  1.
         -4   -1    0    0    0  501 -0.00000000000E+00 -0.00000000000E+00 -0.15028332821E+03  0.15028869431E+03  0.12700000000E+01 0.  1.
         25    2    1    2    0    0  0.00000000000E+00  0.00000000000E+00 -0.12431142257E+03  0.17629163227E+03  0.12500163930E+03 0.  0.
    9000005    1    3    3    0    0 -0.10172945608E+02  0.59530883001E+02 -0.39505444537E+02  0.72174060446E+02  0.10000000000E+01 0.  0.
    9000005    1    3    3    0    0  0.10172945608E+02 -0.59530883001E+02 -0.84805978034E+02  0.10411757183E+03  0.10000000000E+01 0.  0.
<mgrwt>
<rscale>  0 0.12500164E+03</rscale>
<asrwt>0</asrwt>
<pdfrwt beam="1">  1        4 0.64975266E-02 0.12500164E+03</pdfrwt>
<pdfrwt beam="2">  1       -4 0.37575379E-01 0.12500164E+03</pdfrwt>
<totfact> 0.17316287E+03</totfact>
</mgrwt>
</event>
<event>
 5    1  0.1433395E-002  0.1249999E+03  0.7818608E-02  0.1235069E+00
          4   -1    0    0  501    0  0.00000000000E+00  0.00000000000E+00  0.31846853807E+02  0.31872166500E+02  0.12700000000E+01 0. -1.
         -4   -1    0    0    0  501 -0.00000000000E+00 -0.00000000000E+00 -0.12257975591E+03  0.12258633472E+03  0.12700000000E+01 0. -1.
         25    2    1    2    0    0  0.00000000000E+00  0.00000000000E+00 -0.90732902105E+02  0.15445850122E+03  0.12499987629E+03 0.  0.
    9000005    1    3    3    0    0  0.22505450602E+02 -0.58125415421E+02 -0.50917762129E+02  0.80490233724E+02  0.10000000000E+01 0.  0.
    9000005    1    3    3    0    0 -0.22505450602E+02  0.58125415421E+02 -0.39815139975E+02  0.73968267493E+02  0.10000000000E+01 0.  0.
<mgrwt>
<rscale>  0 0.12499988E+03</rscale>
<asrwt>0</asrwt>
<pdfrwt beam="1">  1        4 0.79657002E-02 0.12499988E+03</pdfrwt>
<pdfrwt beam="2">  1       -4 0.30648924E-01 0.12499988E+03</pdfrwt>
<totfact> 0.18321760E+03</totfact>
</mgrwt>
</event>
<event>
 5    1  0.1433395E-002  0.1250043E+03  0.7818608E-02  0.1235063E+00
         -4   -1    0    0    0  501 -0.00000000000E+00  0.00000000000E+00  0.13756878061E+02  0.13815375274E+02  0.12700000000E+01 0.  1.
          4   -1    0    0  501    0  0.00000000000E+00 -0.00000000000E+00 -0.28330610800E+03  0.28330895456E+03  0.12700000000E+01 0.  1.
         25    2    1    2    0    0  0.00000000000E+00  0.00000000000E+00 -0.26954922994E+03  0.29712432983E+03  0.12500431998E+03 0.  0.
    9000005    1    3    3    0    0  0.61159780792E+02  0.11865208595E+02 -0.12307739360E+03  0.13795052293E+03  0.10000000000E+01 0.  0.
    9000005    1    3    3    0    0 -0.61159780792E+02 -0.11865208595E+02 -0.14647183634E+03  0.15917380690E+03  0.10000000000E+01 0.  0.
<mgrwt>
<rscale>  0 0.12500432E+03</rscale>
<asrwt>0</asrwt>
<pdfrwt beam="2">  1        4 0.70834176E-01 0.12500432E+03</pdfrwt>
<pdfrwt beam="1">  1       -4 0.34468884E-02 0.12500432E+03</pdfrwt>
<totfact> 0.13050746E+03</totfact>
</mgrwt>
</event>
<event>
 5    1  0.1433395E-002  0.1249919E+03  0.7818608E-02  0.1235082E+00
         -4   -1    0    0    0  501 -0.00000000000E+00  0.00000000000E+00  0.41853566409E+03  0.41853759092E+03  0.12700000000E+01 0. -1.
          4   -1    0    0  501    0  0.00000000000E+00 -0.00000000000E+00 -0.92867645363E+01  0.93732009235E+01  0.12700000000E+01 0. -1.
         25    2    1    2    0    0  0.00000000000E+00  0.00000000000E+00  0.40924889955E+03  0.42791079184E+03  0.12499193571E+03 0.  0.
    9000005    1    3    3    0    0  0.34039588599E+02 -0.61355409802E+01  0.26457045459E+02  0.43558164671E+02  0.10000000000E+01 0.  0.
    9000005    1    3    3    0    0 -0.34039588599E+02  0.61355409802E+01  0.38279185409E+03  0.38435262717E+03  0.10000000000E+01 0.  0.
<mgrwt>
<rscale>  0 0.12499194E+03</rscale>
<asrwt>0</asrwt>
<pdfrwt beam="2">  1        4 0.23327367E-02 0.12499194E+03</pdfrwt>
<pdfrwt beam="1">  1       -4 0.10464495E+00 0.12499194E+03</pdfrwt>
<totfact> 0.10014026E+03</totfact>
</mgrwt>
</event>
<event>
 5    1  0.1433395E-002  0.1250049E+03  0.7818608E-02  0.1235062E+00
         -4   -1    0    0    0  501 -0.00000000000E+00  0.00000000000E+00  0.73274572452E+02  0.73285577490E+02  0.12700000000E+01 0. -1.
          4   -1    0    0  501    0  0.00000000000E+00 -0.00000000000E+00 -0.53291394041E+02  0.53306524730E+02  0.12700000000E+01 0. -1.
         25    2    1    2    0    0  0.00000000000E+00  0.00000000000E+00  0.19983178411E+02  0.12659210222E+03  0.12500493160E+03 0.  0.
    9000005    1    3    3    0    0  0.52665457760E+02  0.21529030854E+02  0.36173448609E+02  0.67428984827E+02  0.10000000000E+01 0.  0.
    9000005    1    3    3    0    0 -0.52665457760E+02 -0.21529030854E+02 -0.16190270198E+02  0.59163117393E+02  0.10000000000E+01 0.  0.
<mgrwt>
<rscale>  0 0.12500493E+03</rscale>
<asrwt>0</asrwt>
<pdfrwt beam="2">  1        4 0.13326116E-01 0.12500493E+03</pdfrwt>
<pdfrwt beam="1">  1       -4 0.18321910E-01 0.12500493E+03</pdfrwt>
<totfact> 0.19746680E+03</totfact>
</mgrwt>
</event>
<event>
 5    1  0.1433395E-002  0.1250035E+03  0.7818608E-02  0.1235064E+00
         -4   -1    0    0    0  501 -0.00000000000E+00  0.00000000000E+00  0.53176220631E+02  0.53191384083E+02  0.12700000000E+01 0. -1.
          4   -1    0    0  501    0  0.00000000000E+00 -0.00000000000E+00 -0.73431545010E+02  0.73442526526E+02  0.12700000000E+01 0. -1.
         25    2    1    2    0    0  0.00000000000E+00  0.00000000000E+00 -0.20255324379E+02  0.12663391061E+03  0.12500347655E+03 0.  0.
    9000005    1    3    3    0    0 -0.30309041275E+02 -0.44662520567E+02 -0.42035924095E+02  0.68420739845E+02  0.10000000000E+01 0.  0.
    9000005    1    3    3    0    0  0.30309041275E+02  0.44662520567E+02  0.21780599716E+02  0.58213170764E+02  0.10000000000E+01 0.  0.
<mgrwt>
<rscale>  0 0.12500348E+03</rscale>
<asrwt>0</asrwt>
<pdfrwt beam="2">  1        4 0.18361154E-01 0.12500348E+03</pdfrwt>
<pdfrwt beam="1">  1       -4 0.13297323E-01 0.12500348E+03</pdfrwt>
<totfact> 0.19745098E+03</totfact>
</mgrwt>
</event>
<event>
 5    1  0.1433395E-002  0.1250030E+03  0.7818608E-02  0.1235065E+00
         -4   -1    0    0    0  501 -0.00000000000E+00  0.00000000000E+00  0.49332837178E+02  0.49349181594E+02  0.12700000000E+01 0. -1.
          4   -1    0    0  501    0  0.00000000000E+00 -0.00000000000E+00 -0.79150816845E+02  0.79161004966E+02  0.12700000000E+01 0. -1.
         25    2    1    2    0    0  0.00000000000E+00  0.00000000000E+00 -0.29817979667E+02  0.12851018656E+03  0.12500302452E+03 0.  0.
    9000005    1    3    3    0    0 -0.44080592953E+02 -0.36595557842E+02  0.10753443092E+02  0.58300686679E+02  0.10000000000E+01 0.  0.
    9000005    1    3    3    0    0  0.44080592953E+02  0.36595557842E+02 -0.40571422759E+02  0.70209499881E+02  0.10000000000E+01 0.  0.
<mgrwt>
<rscale>  0 0.12500302E+03</rscale>
<asrwt>0</asrwt>
<pdfrwt beam="2">  1        4 0.19791021E-01 0.12500302E+03</pdfrwt>
<pdfrwt beam="1">  1       -4 0.12336526E-01 0.12500302E+03</pdfrwt>
<totfact> 0.19643433E+03</totfact>
</mgrwt>
</event>
<event>
 5    1  0.1433395E-002  0.1249929E+03  0.7818608E-02  0.1235080E+00
         -4   -1    0    0    0  501 -0.00000000000E+00  0.00000000000E+00  0.24366827691E+03  0.24367158651E+03  0.12700000000E+01 0. -1.
          4   -1    0    0  501    0  0.00000000000E+00 -0.00000000000E+00 -0.16000609942E+02  0.16050932014E+02  0.12700000000E+01 0. -1.
         25    2    1    2    0    0  0.00000000000E+00  0.00000000000E+00  0.22766766697E+03  0.25972251853E+03  0.12499287998E+03 0.  0.
    9000005    1    3    3    0    0  0.30411359576E+02  0.22299920300E+02  0.10299680639E+02  0.39105251028E+02  0.10000000000E+01 0.  0.
    9000005    1    3    3    0    0 -0.30411359576E+02 -0.22299920300E+02  0.21736798633E+03  0.22061726750E+03  0.10000000000E+01 0.  0.
<mgrwt>
<rscale>  0 0.12499288E+03</rscale>
<asrwt>0</asrwt>
<pdfrwt beam="2">  1        4 0.40068564E-02 0.12499288E+03</pdfrwt>
<pdfrwt beam="1">  1       -4 0.60923774E-01 0.12499288E+03</pdfrwt>
<totfact> 0.14182386E+03</totfact>
</mgrwt>
</event>
<event>
 5    1  0.1433395E-002  0.1249993E+03  0.7818608E-02  0.1235070E+00
         -4   -1    0    0    0  501 -0.00000000000E+00  0.00000000000E+00  0.17479937460E+03  0.17480398812E+03  0.12700000000E+01 0. -1.
          4   -1    0    0  501    0  0.00000000000E+00 -0.00000000000E+00 -0.22323846829E+02  0.22359942694E+02  0.12700000000E+01 0. -1.
         25    2    1    2    0    0  0.00000000000E+00  0.00000000000E+00  0.15247552777E+03  0.19716393081E+03  0.12499931617E+03 0.  0.
    9000005    1    3    3    0    0 -0.10985542973E+02 -0.51565991454E+02  0.23321704750E+02  0.57659652630E+02  0.10000000000E+01 0.  0.
    9000005    1    3    3    0    0  0.10985542973E+02  0.51565991454E+02  0.12915382302E+03  0.13950427818E+03  0.10000000000E+01 0.  0.
<mgrwt>
<rscale>  0 0.12499932E+03</rscale>
<asrwt>0</asrwt>
<pdfrwt beam="2">  1        4 0.55860505E-02 0.12499932E+03</pdfrwt>
<pdfrwt beam="1">  1       -4 0.43704932E-01 0.12499932E+03</pdfrwt>
<totfact> 0.16436495E+03</totfact>
</mgrwt>
</event>
<event>
 5    1  0.1433395E-002  0.1249973E+03  0.7818608E-02  0.1235073E+00
          4   -1    0    0  501    0  0.00000000000E+00  0.00000000000E+00  0.25871101421E+03  0.25871413138E+03  0.12700000000E+01 0.  1.
         -4   -1    0    0    0  501 -0.00000000000E+00 -0.00000000000E+00 -0.15068323889E+02  0.15121748736E+02  0.12700000000E+01 0.  1.
         25    2    1    2    0    0  0.00000000000E+00  0.00000000000E+00  0.24364269032E+03  0.27383588012E+03  0.12499731473E+03 0.  0.
    9000005    1    3    3    0    0  0.40018059221E+02  0.14825613216E+02  0.22182633659E+03  0.22589636446E+03  0.10000000000E+01 0.  0.
    9000005    1    3    3    0    0 -0.40018059221E+02 -0.14825613216E+02  0.21816353734E+02  0.47939515655E+02  0.10000000000E+01 0.  0.
<mgrwt>
<rscale>  0 0.12499731E+03</rscale>
<asrwt>0</asrwt>
<pdfrwt beam="1">  1        4 0.64684820E-01 0.12499731E+03</pdfrwt>
<pdfrwt beam="2">  1       -4 0.37741488E-02 0.12499731E+03</pdfrwt>
<totfact> 0.13738240E+03</totfact>
</mgrwt>
</event>
<event>
 5    1  0.1433395E-002  0.1250007E+03  0.7818608E-02  0.1235068E+00
         -4   -1    0    0    0  501 -0.00000000000E+00  0.00000000000E+00  0.43728900535E+03  0.43729084955E+03  0.12700000000E+01 0. -1.
          4   -1    0    0  501    0  0.00000000000E+00 -0.00000000000E+00 -0.88859647595E+01  0.89762614549E+01  0.12700000000E+01 0. -1.
         25    2    1    2    0    0  0.00000000000E+00  0.00000000000E+00  0.42840304059E+03  0.44626711100E+03  0.12500067671E+03 0.  0.
    9000005    1    3    3    0    0  0.71013291890E+01 -0.31289027221E+02  0.22746657286E+02  0.39342629784E+02  0.10000000000E+01 0.  0.
    9000005    1    3    3    0    0 -0.71013291890E+01  0.31289027221E+02  0.40565638330E+03  0.40692448122E+03  0.10000000000E+01 0.  0.
<mgrwt>
<rscale>  0 0.12500068E+03</rscale>
<asrwt>0</asrwt>
<pdfrwt beam="2">  1        4 0.22330088E-02 0.12500068E+03</pdfrwt>
<pdfrwt beam="1">  1       -4 0.10933377E+00 0.12500068E+03</pdfrwt>
<totfact> 0.96689557E+02</totfact>
</mgrwt>
</event>
<event>
 5    1  0.1433395E-002  0.1249999E+03  0.7818608E-02  0.1235070E+00
         -4   -1    0    0    0  501 -0.00000000000E+00  0.00000000000E+00  0.62779172531E+02  0.62792017038E+02  0.12700000000E+01 0. -1.
          4   -1    0    0  501    0  0.00000000000E+00 -0.00000000000E+00 -0.62196233907E+02  0.62209198775E+02  0.12700000000E+01 0. -1.
         25    2    1    2    0    0  0.00000000000E+00  0.00000000000E+00  0.58293862383E+00  0.12500121581E+03  0.12499985655E+03 0.  0.
    9000005    1    3    3    0    0 -0.47493932246E+02 -0.35668846877E+02  0.19715912737E+02  0.62591193092E+02  0.10000000000E+01 0.  0.
    9000005    1    3    3    0    0  0.47493932246E+02  0.35668846877E+02 -0.19132974113E+02  0.62410022721E+02  0.10000000000E+01 0.  0.
<mgrwt>
<rscale>  0 0.12499986E+03</rscale>
<asrwt>0</asrwt>
<pdfrwt beam="2">  1        4 0.15552285E-01 0.12499986E+03</pdfrwt>
<pdfrwt beam="1">  1       -4 0.15698019E-01 0.12499986E+03</pdfrwt>
<totfact> 0.19835056E+03</totfact>
</mgrwt>
</event>
<event>
 5    1  0.1433395E-002  0.1250000E+03  0.7818608E-02  0.1235069E+00
          4   -1    0    0  501    0  0.00000000000E+00  0.00000000000E+00  0.13503354146E+03  0.13503951355E+03  0.12700000000E+01 0. -1.
         -4   -1    0    0    0  501 -0.00000000000E+00 -0.00000000000E+00 -0.28907462986E+02  0.28935347178E+02  0.12700000000E+01 0. -1.
         25    2    1    2    0    0  0.00000000000E+00  0.00000000000E+00  0.10612607848E+03  0.16397486073E+03  0.12500004167E+03 0.  0.
    9000005    1    3    3    0    0 -0.46491706365E+02  0.93388854177E+01 -0.32827058516E+00  0.47432070407E+02  0.10000000000E+01 0.  0.
    9000005    1    3    3    0    0  0.46491706365E+02 -0.93388854177E+01  0.10645434906E+03  0.11654279032E+03  0.10000000000E+01 0.  0.
<mgrwt>
<rscale>  0 0.12500004E+03</rscale>
<asrwt>0</asrwt>
<pdfrwt beam="1">  1        4 0.33762617E-01 0.12500004E+03</pdfrwt>
<pdfrwt beam="2">  1       -4 0.72310979E-02 0.12500004E+03</pdfrwt>
<totfact> 0.17872263E+03</totfact>
</mgrwt>
</event>
<event>
 5    1  0.1433395E-002  0.1249940E+03  0.7818608E-02  0.1235079E+00
         -4   -1    0    0    0  501 -0.00000000000E+00  0.00000000000E+00  0.63255584600E+02  0.63268332388E+02  0.12700000000E+01 0. -1.
          4   -1    0    0  501    0  0.00000000000E+00 -0.00000000000E+00 -0.61722006635E+02  0.61735071095E+02  0.12700000000E+01 0. -1.
         25    2    1    2    0    0  0.00000000000E+00  0.00000000000E+00  0.15335779653E+01  0.12500340348E+03  0.12499399594E+03 0.  0.
    9000005    1    3    3    0    0 -0.41992855060E+02 -0.40852345058E+02 -0.20973310342E+02  0.62234987905E+02  0.10000000000E+01 0.  0.
    9000005    1    3    3    0    0  0.41992855060E+02  0.40852345058E+02  0.22506888307E+02  0.62768415578E+02  0.10000000000E+01 0.  0.
<mgrwt>
<rscale>  0 0.12499400E+03</rscale>
<asrwt>0</asrwt>
<pdfrwt beam="2">  1        4 0.15433728E-01 0.12499400E+03</pdfrwt>
<pdfrwt beam="1">  1       -4 0.15817123E-01 0.12499400E+03</pdfrwt>
<totfact> 0.19837658E+03</totfact>
</mgrwt>
</event>
<event>
 5    1  0.1433395E-002  0.1249992E+03  0.7818608E-02  0.1235071E+00
          4   -1    0    0  501    0  0.00000000000E+00  0.00000000000E+00  0.44760696114E+02  0.44778709412E+02  0.12700000000E+01 0.  1.
         -4   -1    0    0    0  501 -0.00000000000E+00 -0.00000000000E+00 -0.87228341462E+02  0.87237586247E+02  0.12700000000E+01 0.  1.
         25    2    1    2    0    0  0.00000000000E+00  0.00000000000E+00 -0.42467645348E+02  0.13201629566E+03  0.12499920567E+03 0.  0.
    9000005    1    3    3    0    0  0.38211910204E+02 -0.40250049620E+02  0.91011070966E+01  0.56249859789E+02  0.10000000000E+01 0.  0.
    9000005    1    3    3    0    0 -0.38211910204E+02  0.40250049620E+02 -0.51568752444E+02  0.75766435871E+02  0.10000000000E+01 0.  0.
<mgrwt>
<rscale>  0 0.12499921E+03</rscale>
<asrwt>0</asrwt>
<pdfrwt beam="1">  1        4 0.11193581E-01 0.12499921E+03</pdfrwt>
<pdfrwt beam="2">  1       -4 0.21810492E-01 0.12499921E+03</pdfrwt>
<totfact> 0.19456949E+03</totfact>
</mgrwt>
</event>
<event>
 5    1  0.1433395E-002  0.1249999E+03  0.7818608E-02  0.1235069E+00
         -4   -1    0    0    0  501 -0.00000000000E+00  0.00000000000E+00  0.39063677394E+03  0.39063883838E+03  0.12700000000E+01 0.  1.
          4   -1    0    0  501    0  0.00000000000E+00 -0.00000000000E+00 -0.99572643209E+01  0.10037928708E+02  0.12700000000E+01 0.  1.
         25    2    1    2    0    0  0.00000000000E+00  0.00000000000E+00  0.38067950962E+03  0.40067676709E+03  0.12499993058E+03 0.  0.
    9000005    1    3    3    0    0  0.58832282045E+02  0.15549189449E+02  0.23592331152E+03  0.24364692410E+03  0.10000000000E+01 0.  0.
    9000005    1    3    3    0    0 -0.58832282045E+02 -0.15549189449E+02  0.14475619810E+03  0.15702984299E+03  0.10000000000E+01 0.  0.
<mgrwt>
<rscale>  0 0.12499993E+03</rscale>
<asrwt>0</asrwt>
<pdfrwt beam="2">  1        4 0.24996574E-02 0.12499993E+03</pdfrwt>
<pdfrwt beam="1">  1       -4 0.97669525E-01 0.12499993E+03</pdfrwt>
<totfact> 0.10555290E+03</totfact>
</mgrwt>
</event>
<event>
 5    1  0.1433395E-002  0.1249977E+03  0.7818608E-02  0.1235073E+00
          4   -1    0    0  501    0  0.00000000000E+00  0.00000000000E+00  0.13060083184E+02  0.13121687117E+02  0.12700000000E+01 0. -1.
         -4   -1    0    0    0  501 -0.00000000000E+00 -0.00000000000E+00 -0.29832090528E+03  0.29832360856E+03  0.12700000000E+01 0. -1.
         25    2    1    2    0    0  0.00000000000E+00  0.00000000000E+00 -0.28526082209E+03  0.31144529568E+03  0.12499774230E+03 0.  0.
    9000005    1    3    3    0    0 -0.33281364106E+00  0.29380051840E+02 -0.52117549710E+01  0.29857337472E+02  0.10000000000E+01 0.  0.
    9000005    1    3    3    0    0  0.33281364106E+00 -0.29380051840E+02 -0.28004906712E+03  0.28158795821E+03  0.10000000000E+01 0.  0.
<mgrwt>
<rscale>  0 0.12499774E+03</rscale>
<asrwt>0</asrwt>
<pdfrwt beam="1">  1        4 0.32730602E-02 0.12499774E+03</pdfrwt>
<pdfrwt beam="2">  1       -4 0.74588242E-01 0.12499774E+03</pdfrwt>
<totfact> 0.12656893E+03</totfact>
</mgrwt>
</event>
<event>
 5    1  0.1433395E-002  0.1249990E+03  0.7818608E-02  0.1235071E+00
          4   -1    0    0  501    0  0.00000000000E+00  0.00000000000E+00  0.23197851594E+02  0.23232589580E+02  0.12700000000E+01 0.  1.
         -4   -1    0    0    0  501 -0.00000000000E+00 -0.00000000000E+00 -0.16822267792E+03  0.16822747180E+03  0.12700000000E+01 0.  1.
         25    2    1    2    0    0  0.00000000000E+00  0.00000000000E+00 -0.14502482633E+03  0.19146006138E+03  0.12499901940E+03 0.  0.
    9000005    1    3    3    0    0 -0.35641564633E+02 -0.50241537240E+02 -0.88624734989E+02  0.10793459522E+03  0.10000000000E+01 0.  0.
    9000005    1    3    3    0    0  0.35641564633E+02  0.50241537240E+02 -0.56400091341E+02  0.83525466158E+02  0.10000000000E+01 0.  0.
<mgrwt>
<rscale>  0 0.12499902E+03</rscale>
<asrwt>0</asrwt>
<pdfrwt beam="1">  1        4 0.58044049E-02 0.12499902E+03</pdfrwt>
<pdfrwt beam="2">  1       -4 0.42060607E-01 0.12499902E+03</pdfrwt>
<totfact> 0.16670182E+03</totfact>
</mgrwt>
</event>
<event>
 5    1  0.1433395E-002  0.1250079E+03  0.7818608E-02  0.1235057E+00
         -4   -1    0    0    0  501 -0.00000000000E+00  0.00000000000E+00  0.90308230897E+03  0.90308320196E+03  0.12700000000E+01 0. -1.
          4   -1    0    0  501    0  0.00000000000E+00 -0.00000000000E+00 -0.42318874192E+01  0.44183448404E+01  0.12700000000E+01 0. -1.
         25    2    1    2    0    0  0.00000000000E+00  0.00000000000E+00  0.89885042155E+03  0.90750154680E+03  0.12500790829E+03 0.  0.
    9000005    1    3    3    0    0  0.32127575238E+02  0.25585872965E+02  0.10746047394E+03  0.11504595362E+03  0.10000000000E+01 0.  0.
    9000005    1    3    3    0    0 -0.32127575238E+02 -0.25585872965E+02  0.79138994761E+03  0.79245559318E+03  0.10000000000E+01 0.  0.
<mgrwt>
<rscale>  0 0.12500791E+03</rscale>
<asrwt>0</asrwt>
<pdfrwt beam="2">  1        4 0.10813907E-02 0.12500791E+03</pdfrwt>
<pdfrwt beam="1">  1       -4 0.22579400E+00 0.12500791E+03</pdfrwt>
<totfact> 0.43697323E+02</totfact>
</mgrwt>
</event>
<event>
 5    1  0.1433395E-002  0.1250004E+03  0.7818608E-02  0.1235069E+00
          4   -1    0    0  501    0  0.00000000000E+00  0.00000000000E+00  0.10971429253E+02  0.11044689215E+02  0.12700000000E+01 0.  1.
         -4   -1    0    0    0  501 -0.00000000000E+00 -0.00000000000E+00 -0.35478148554E+03  0.35478375862E+03  0.12700000000E+01 0.  1.
         25    2    1    2    0    0  0.00000000000E+00  0.00000000000E+00 -0.34381005629E+03  0.36582844784E+03  0.12500039377E+03 0.  0.
    9000005    1    3    3    0    0 -0.36313028038E+01  0.17364534712E+01 -0.35441606811E+03  0.35444033485E+03  0.10000000000E+01 0.  0.
    9000005    1    3    3    0    0  0.36313028038E+01 -0.17364534712E+01  0.10606011823E+02  0.11388112991E+02  0.10000000000E+01 0.  0.
<mgrwt>
<rscale>  0 0.12500039E+03</rscale>
<asrwt>0</asrwt>
<pdfrwt beam="1">  1        4 0.27523001E-02 0.12500039E+03</pdfrwt>
<pdfrwt beam="2">  1       -4 0.88704775E-01 0.12500039E+03</pdfrwt>
<totfact> 0.11308605E+03</totfact>
</mgrwt>
</event>
<event>
 5    1  0.1433395E-002  0.1249941E+03  0.7818608E-02  0.1235079E+00
         -4   -1    0    0    0  501 -0.00000000000E+00  0.00000000000E+00  0.15142800733E+02  0.15195963741E+02  0.12700000000E+01 0.  1.
          4   -1    0    0  501    0  0.00000000000E+00 -0.00000000000E+00 -0.25742963317E+03  0.25743276585E+03  0.12700000000E+01 0.  1.
         25    2    1    2    0    0  0.00000000000E+00  0.00000000000E+00 -0.24228683244E+03  0.27262872959E+03  0.12499405997E+03 0.  0.
    9000005    1    3    3    0    0 -0.24328976763E+02 -0.26015454957E+02 -0.91559482408E+01  0.36790411728E+02  0.10000000000E+01 0.  0.
    9000005    1    3    3    0    0  0.24328976763E+02  0.26015454957E+02 -0.23313088420E+03  0.23583831786E+03  0.10000000000E+01 0.  0.
<mgrwt>
<rscale>  0 0.12499406E+03</rscale>
<asrwt>0</asrwt>
<pdfrwt beam="2">  1        4 0.64364431E-01 0.12499406E+03</pdfrwt>
<pdfrwt beam="1">  1       -4 0.37927380E-02 0.12499406E+03</pdfrwt>
<totfact> 0.13776297E+03</totfact>
</mgrwt>
</event>
<event>
 5    1  0.1433395E-002  0.1250035E+03  0.7818608E-02  0.1235064E+00
         -4   -1    0    0    0  501 -0.00000000000E+00  0.00000000000E+00  0.90413703535E+02  0.90422622650E+02  0.12700000000E+01 0. -1.
          4   -1    0    0  501    0  0.00000000000E+00 -0.00000000000E+00 -0.43186231098E+02  0.43204900838E+02  0.12700000000E+01 0. -1.
         25    2    1    2    0    0  0.00000000000E+00  0.00000000000E+00  0.47227472437E+02  0.13362752349E+03  0.12500352347E+03 0.  0.
    9000005    1    3    3    0    0 -0.36025060257E+02  0.42095995847E+02 -0.72871476882E+01  0.55892578705E+02  0.10000000000E+01 0.  0.
    9000005    1    3    3    0    0  0.36025060257E+02 -0.42095995847E+02  0.54514620126E+02  0.77734944782E+02  0.10000000000E+01 0.  0.
<mgrwt>
<rscale>  0 0.12500352E+03</rscale>
<asrwt>0</asrwt>
<pdfrwt beam="2">  1        4 0.10800006E-01 0.12500352E+03</pdfrwt>
<pdfrwt beam="1">  1       -4 0.22606874E-01 0.12500352E+03</pdfrwt>
<totfact> 0.19369676E+03</totfact>
</mgrwt>
</event>
<event>
 5    1  0.1433395E-002  0.1250031E+03  0.7818608E-02  0.1235064E+00
         -4   -1    0    0    0  501 -0.00000000000E+00  0.00000000000E+00  0.60079465713E+03  0.60079599943E+03  0.12700000000E+01 0. -1.
          4   -1    0    0  501    0  0.00000000000E+00 -0.00000000000E+00 -0.64387557886E+01  0.65628100769E+01  0.12700000000E+01 0. -1.
         25    2    1    2    0    0  0.00000000000E+00  0.00000000000E+00  0.59435590134E+03  0.60735880951E+03  0.12500314408E+03 0.  0.
    9000005    1    3    3    0    0  0.59518551071E+02  0.18480317798E+02  0.31968944968E+03  0.32570895644E+03  0.10000000000E+01 0.  0.
    9000005    1    3    3    0    0 -0.59518551071E+02 -0.18480317798E+02  0.27466645166E+03  0.28164985307E+03  0.10000000000E+01 0.  0.
<mgrwt>
<rscale>  0 0.12500314E+03</rscale>
<asrwt>0</asrwt>
<pdfrwt beam="2">  1        4 0.16253635E-02 0.12500314E+03</pdfrwt>
<pdfrwt beam="1">  1       -4 0.15021434E+00 0.12500314E+03</pdfrwt>
<totfact> 0.72579526E+02</totfact>
</mgrwt>
</event>
<event>
 5    1  0.1433395E-002  0.1250044E+03  0.7818608E-02  0.1235062E+00
          4   -1    0    0  501    0  0.00000000000E+00  0.00000000000E+00  0.60071747197E+02  0.60085170477E+02  0.12700000000E+01 0. -1.
         -4   -1    0    0    0  501 -0.00000000000E+00 -0.00000000000E+00 -0.65004111202E+02  0.65016516157E+02  0.12700000000E+01 0. -1.
         25    2    1    2    0    0  0.00000000000E+00  0.00000000000E+00 -0.49323640058E+01  0.12510168663E+03  0.12500441506E+03 0.  0.
    9000005    1    3    3    0    0 -0.60194250645E+02  0.15733857099E+02 -0.83549664138E+01  0.62783019470E+02  0.10000000000E+01 0.  0.
    9000005    1    3    3    0    0  0.60194250645E+02 -0.15733857099E+02  0.34226024080E+01  0.62318667165E+02  0.10000000000E+01 0.  0.
<mgrwt>
<rscale>  0 0.12500442E+03</rscale>
<asrwt>0</asrwt>
<pdfrwt beam="1">  1        4 0.15021165E-01 0.12500442E+03</pdfrwt>
<pdfrwt beam="2">  1       -4 0.16254256E-01 0.12500442E+03</pdfrwt>
<totfact> 0.19827493E+03</totfact>
</mgrwt>
</event>
<event>
 5    1  0.1433395E-002  0.1250013E+03  0.7818608E-02  0.1235067E+00
         -4   -1    0    0    0  501 -0.00000000000E+00  0.00000000000E+00  0.53235824088E+01  0.54729726532E+01  0.12700000000E+01 0. -1.
          4   -1    0    0  501    0  0.00000000000E+00 -0.00000000000E+00 -0.72347588879E+03  0.72347700348E+03  0.12700000000E+01 0. -1.
         25    2    1    2    0    0  0.00000000000E+00  0.00000000000E+00 -0.71815230638E+03  0.72894997613E+03  0.12500133015E+03 0.  0.
    9000005    1    3    3    0    0 -0.61765866243E+02 -0.94991177041E+01 -0.35745099314E+03  0.36287390092E+03  0.10000000000E+01 0.  0.
    9000005    1    3    3    0    0  0.61765866243E+02  0.94991177041E+01 -0.36070131324E+03  0.36607607521E+03  0.10000000000E+01 0.  0.
<mgrwt>
<rscale>  0 0.12500133E+03</rscale>
<asrwt>0</asrwt>
<pdfrwt beam="2">  1        4 0.18088745E+00 0.12500133E+03</pdfrwt>
<pdfrwt beam="1">  1       -4 0.13497112E-02 0.12500133E+03</pdfrwt>
<totfact> 0.59117079E+02</totfact>
</mgrwt>
</event>
<event>
 5    1  0.1433395E-002  0.1249986E+03  0.7818608E-02  0.1235071E+00
         -4   -1    0    0    0  501 -0.00000000000E+00  0.00000000000E+00  0.28606466731E+02  0.28634644032E+02  0.12700000000E+01 0.  1.
          4   -1    0    0  501    0  0.00000000000E+00 -0.00000000000E+00 -0.13644997213E+03  0.13645588223E+03  0.12700000000E+01 0.  1.
         25    2    1    2    0    0  0.00000000000E+00  0.00000000000E+00 -0.10784350540E+03  0.16509052626E+03  0.12499864081E+03 0.  0.
    9000005    1    3    3    0    0  0.31446003960E+02  0.12511912973E+02 -0.12330473845E+03  0.12786890809E+03  0.10000000000E+01 0.  0.
    9000005    1    3    3    0    0 -0.31446003960E+02 -0.12511912973E+02  0.15461233056E+02  0.37221618166E+02  0.10000000000E+01 0.  0.
<mgrwt>
<rscale>  0 0.12499864E+03</rscale>
<asrwt>0</asrwt>
<pdfrwt beam="2">  1        4 0.34116752E-01 0.12499864E+03</pdfrwt>
<pdfrwt beam="1">  1       -4 0.71558780E-02 0.12499864E+03</pdfrwt>
<totfact> 0.17821348E+03</totfact>
</mgrwt>
</event>
<event>
 5    1  0.1433395E-002  0.1249997E+03  0.7818608E-02  0.1235070E+00
         -4   -1    0    0    0  501 -0.00000000000E+00  0.00000000000E+00  0.14297164782E+03  0.14297728833E+03  0.12700000000E+01 0.  1.
          4   -1    0    0  501    0  0.00000000000E+00 -0.00000000000E+00 -0.27300756734E+02  0.27330280244E+02  0.12700000000E+01 0.  1.
         25    2    1    2    0    0  0.00000000000E+00  0.00000000000E+00  0.11567089108E+03  0.17030756858E+03  0.12499965148E+03 0.  0.
    9000005    1    3    3    0    0  0.61146152289E+02  0.12835525412E+02  0.59572555729E+02  0.86333609032E+02  0.10000000000E+01 0.  0.
    9000005    1    3    3    0    0 -0.61146152289E+02 -0.12835525412E+02  0.56098335353E+02  0.83973959546E+02  0.10000000000E+01 0.  0.
<mgrwt>
<rscale>  0 0.12499965E+03</rscale>
<asrwt>0</asrwt>
<pdfrwt beam="2">  1        4 0.68295848E-02 0.12499965E+03</pdfrwt>
<pdfrwt beam="1">  1       -4 0.35747307E-01 0.12499965E+03</pdfrwt>
<totfact> 0.17583326E+03</totfact>
</mgrwt>
</event>
<event>
 5    1  0.1433395E-002  0.1249959E+03  0.7818608E-02  0.1235076E+00
          4   -1    0    0  501    0  0.00000000000E+00  0.00000000000E+00  0.48041552788E+02  0.48058336366E+02  0.12700000000E+01 0. -1.
         -4   -1    0    0    0  501 -0.00000000000E+00 -0.00000000000E+00 -0.81268553234E+02  0.81278475900E+02  0.12700000000E+01 0. -1.
         25    2    1    2    0    0  0.00000000000E+00  0.00000000000E+00 -0.33227000446E+02  0.12933681227E+03  0.12499590973E+03 0.  0.
    9000005    1    3    3    0    0 -0.33374913848E+02 -0.38225797018E+02  0.21120730981E+02  0.54974373204E+02  0.10000000000E+01 0.  0.
    9000005    1    3    3    0    0  0.33374913848E+02  0.38225797018E+02 -0.54347731427E+02  0.74362439062E+02  0.10000000000E+01 0.  0.
<mgrwt>
<rscale>  0 0.12499591E+03</rscale>
<asrwt>0</asrwt>
<pdfrwt beam="1">  1        4 0.12013727E-01 0.12499591E+03</pdfrwt>
<pdfrwt beam="2">  1       -4 0.20320476E-01 0.12499591E+03</pdfrwt>
<totfact> 0.19601973E+03</totfact>
</mgrwt>
</event>
<event>
 5    1  0.1433395E-002  0.1249983E+03  0.7818608E-02  0.1235072E+00
         -4   -1    0    0    0  501 -0.00000000000E+00  0.00000000000E+00  0.10577468891E+03  0.10578231286E+03  0.12700000000E+01 0.  1.
          4   -1    0    0  501    0  0.00000000000E+00 -0.00000000000E+00 -0.36909034662E+02  0.36930877862E+02  0.12700000000E+01 0.  1.
         25    2    1    2    0    0  0.00000000000E+00  0.00000000000E+00  0.68865654244E+02  0.14271319072E+03  0.12499830587E+03 0.  0.
    9000005    1    3    3    0    0  0.86840921589E+01 -0.52889963161E+01 -0.35963852664E+02  0.37386971488E+02  0.10000000000E+01 0.  0.
    9000005    1    3    3    0    0 -0.86840921589E+01  0.52889963161E+01  0.10482950691E+03  0.10532621923E+03  0.10000000000E+01 0.  0.
<mgrwt>
<rscale>  0 0.12499831E+03</rscale>
<asrwt>0</asrwt>
<pdfrwt beam="2">  1        4 0.92309421E-02 0.12499831E+03</pdfrwt>
<pdfrwt beam="1">  1       -4 0.26447355E-01 0.12499831E+03</pdfrwt>
<totfact> 0.18903136E+03</totfact>
</mgrwt>
</event>
<event>
 5    1  0.1433395E-002  0.1250027E+03  0.7818608E-02  0.1235065E+00
         -4   -1    0    0    0  501 -0.00000000000E+00  0.00000000000E+00  0.41640871804E+01  0.43534494422E+01  0.12700000000E+01 0. -1.
          4   -1    0    0  501    0  0.00000000000E+00 -0.00000000000E+00 -0.91707498082E+03  0.91707586019E+03  0.12700000000E+01 0. -1.
         25    2    1    2    0    0  0.00000000000E+00  0.00000000000E+00 -0.91291089364E+03  0.92142930964E+03  0.12500269168E+03 0.  0.
    9000005    1    3    3    0    0 -0.33613316022E+02 -0.22820473859E+01 -0.84443640147E+03  0.84510880890E+03  0.10000000000E+01 0.  0.
    9000005    1    3    3    0    0  0.33613316022E+02  0.22820473859E+01 -0.68474492171E+02  0.76320500734E+02  0.10000000000E+01 0.  0.
<mgrwt>
<rscale>  0 0.12500269E+03</rscale>
<asrwt>0</asrwt>
<pdfrwt beam="2">  1        4 0.22929185E+00 0.12500269E+03</pdfrwt>
<pdfrwt beam="1">  1       -4 0.10648051E-02 0.12500269E+03</pdfrwt>
<totfact> 0.42659921E+02</totfact>
</mgrwt>
</event>
<event>
 5    1  0.1433395E-002  0.1249996E+03  0.7818608E-02  0.1235070E+00
         -4   -1    0    0    0  501 -0.00000000000E+00  0.00000000000E+00  0.22704668595E+03  0.22705023783E+03  0.12700000000E+01 0.  1.
          4   -1    0    0  501    0  0.00000000000E+00 -0.00000000000E+00 -0.17177363859E+02  0.17224248289E+02  0.12700000000E+01 0.  1.
         25    2    1    2    0    0  0.00000000000E+00  0.00000000000E+00  0.20986932209E+03  0.24427448612E+03  0.12499956886E+03 0.  0.
    9000005    1    3    3    0    0 -0.34940434853E+02 -0.70855992015E+01  0.20523273505E+03  0.20830870178E+03  0.10000000000E+01 0.  0.
    9000005    1    3    3    0    0  0.34940434853E+02  0.70855992015E+01  0.46365870426E+01  0.35965784339E+02  0.10000000000E+01 0.  0.
<mgrwt>
<rscale>  0 0.12499957E+03</rscale>
<asrwt>0</asrwt>
<pdfrwt beam="2">  1        4 0.43006456E-02 0.12499957E+03</pdfrwt>
<pdfrwt beam="1">  1       -4 0.56767975E-01 0.12499957E+03</pdfrwt>
<totfact> 0.14690463E+03</totfact>
</mgrwt>
</event>
<event>
 5    1  0.1433395E-002  0.1249991E+03  0.7818608E-02  0.1235071E+00
         -4   -1    0    0    0  501 -0.00000000000E+00  0.00000000000E+00  0.10772463503E+03  0.10773212099E+03  0.12700000000E+01 0. -1.
          4   -1    0    0  501    0  0.00000000000E+00 -0.00000000000E+00 -0.36241046840E+02  0.36263292405E+02  0.12700000000E+01 0. -1.
         25    2    1    2    0    0  0.00000000000E+00  0.00000000000E+00  0.71483588189E+02  0.14399541339E+03  0.12499910279E+03 0.  0.
    9000005    1    3    3    0    0 -0.42828477168E+02 -0.31747359062E+02 -0.18170844080E+01  0.53352366955E+02  0.10000000000E+01 0.  0.
    9000005    1    3    3    0    0  0.42828477168E+02  0.31747359062E+02  0.73300672597E+02  0.90643046436E+02  0.10000000000E+01 0.  0.
<mgrwt>
<rscale>  0 0.12499910E+03</rscale>
<asrwt>0</asrwt>
<pdfrwt beam="2">  1        4 0.90639782E-02 0.12499910E+03</pdfrwt>
<pdfrwt beam="1">  1       -4 0.26934875E-01 0.12499910E+03</pdfrwt>
<totfact> 0.18838168E+03</totfact>
</mgrwt>
</event>
<event>
 5    1  0.1433395E-002  0.1250019E+03  0.7818608E-02  0.1235066E+00
         -4   -1    0    0    0  501 -0.00000000000E+00  0.00000000000E+00  0.32935111394E+03  0.32935356253E+03  0.12700000000E+01 0.  1.
          4   -1    0    0  501    0  0.00000000000E+00 -0.00000000000E+00 -0.11824314347E+02  0.11892321463E+02  0.12700000000E+01 0.  1.
         25    2    1    2    0    0  0.00000000000E+00  0.00000000000E+00  0.31752679959E+03  0.34124588400E+03  0.12500193952E+03 0.  0.
    9000005    1    3    3    0    0  0.25734794072E+02  0.45292141456E+02  0.64523112160E+02  0.82933043514E+02  0.10000000000E+01 0.  0.
    9000005    1    3    3    0    0 -0.25734794072E+02 -0.45292141456E+02  0.25300368743E+03  0.25831284048E+03  0.10000000000E+01 0.  0.
<mgrwt>
<rscale>  0 0.12500194E+03</rscale>
<asrwt>0</asrwt>
<pdfrwt beam="2">  1        4 0.29648855E-02 0.12500194E+03</pdfrwt>
<pdfrwt beam="1">  1       -4 0.82346586E-01 0.12500194E+03</pdfrwt>
<totfact> 0.11888506E+03</totfact>
</mgrwt>
</event>
<event>
 5    1  0.1433395E-002  0.1249995E+03  0.7818608E-02  0.1235070E+00
         -4   -1    0    0    0  501 -0.00000000000E+00  0.00000000000E+00  0.21340020174E+02  0.21377777271E+02  0.12700000000E+01 0.  1.
          4   -1    0    0  501    0  0.00000000000E+00 -0.00000000000E+00 -0.18284495856E+03  0.18284936907E+03  0.12700000000E+01 0.  1.
         25    2    1    2    0    0  0.00000000000E+00  0.00000000000E+00 -0.16150493839E+03  0.20422714634E+03  0.12499952872E+03 0.  0.
    9000005    1    3    3    0    0 -0.85825339943E+01  0.39448992659E+02 -0.28182805509E+01  0.40482411203E+02  0.10000000000E+01 0.  0.
    9000005    1    3    3    0    0  0.85825339943E+01 -0.39448992659E+02 -0.15868665783E+03  0.16374473514E+03  0.10000000000E+01 0.  0.
<mgrwt>
<rscale>  0 0.12499953E+03</rscale>
<asrwt>0</asrwt>
<pdfrwt beam="2">  1        4 0.45716506E-01 0.12499953E+03</pdfrwt>
<pdfrwt beam="1">  1       -4 0.53402765E-02 0.12499953E+03</pdfrwt>
<totfact> 0.16154344E+03</totfact>
</mgrwt>
</event>
<event>
 5    1  0.1433395E-002  0.1249927E+03  0.7818608E-02  0.1235081E+00
          4   -1    0    0  501    0  0.00000000000E+00  0.00000000000E+00  0.43927357631E+02  0.43945712515E+02  0.12700000000E+01 0.  1.
         -4   -1    0    0    0  501 -0.00000000000E+00 -0.00000000000E+00 -0.88873406459E+02  0.88882480139E+02  0.12700000000E+01 0.  1.
         25    2    1    2    0    0  0.00000000000E+00  0.00000000000E+00 -0.44946048828E+02  0.13282819265E+03  0.12499272562E+03 0.  0.
    9000005    1    3    3    0    0  0.29089637007E+02  0.30154852429E+02  0.26793433878E+02  0.49743443841E+02  0.10000000000E+01 0.  0.
    9000005    1    3    3    0    0 -0.29089637007E+02 -0.30154852429E+02 -0.71739482707E+02  0.83084748812E+02  0.10000000000E+01 0.  0.
<mgrwt>
<rscale>  0 0.12499273E+03</rscale>
<asrwt>0</asrwt>
<pdfrwt beam="1">  1        4 0.10985268E-01 0.12499273E+03</pdfrwt>
<pdfrwt beam="2">  1       -4 0.22221780E-01 0.12499273E+03</pdfrwt>
<totfact> 0.19416804E+03</totfact>
</mgrwt>
</event>
<event>
 5    1  0.1433395E-002  0.1250000E+03  0.7818608E-02  0.1235069E+00
         -4   -1    0    0    0  501 -0.00000000000E+00  0.00000000000E+00  0.17255604579E+03  0.17256071929E+03  0.12700000000E+01 0. -1.
          4   -1    0    0  501    0  0.00000000000E+00 -0.00000000000E+00 -0.22614781446E+02  0.22650413680E+02  0.12700000000E+01 0. -1.
         25    2    1    2    0    0  0.00000000000E+00  0.00000000000E+00  0.14994126435E+03  0.19521113296E+03  0.12500001472E+03 0.  0.
    9000005    1    3    3    0    0  0.57168527724E+02 -0.11507189801E+02  0.39890116911E+02  0.70660295828E+02  0.10000000000E+01 0.  0.
    9000005    1    3    3    0    0 -0.57168527724E+02  0.11507189801E+02  0.11005114744E+03  0.12455083714E+03  0.10000000000E+01 0.  0.
<mgrwt>
<rscale>  0 0.12500001E+03</rscale>
<asrwt>0</asrwt>
<pdfrwt beam="2">  1        4 0.56587336E-02 0.12500001E+03</pdfrwt>
<pdfrwt beam="1">  1       -4 0.43144050E-01 0.12500001E+03</pdfrwt>
<totfact> 0.16515602E+03</totfact>
</mgrwt>
</event>
<event>
 5    1  0.1433395E-002  0.1249995E+03  0.7818608E-02  0.1235070E+00
         -4   -1    0    0    0  501 -0.00000000000E+00  0.00000000000E+00  0.13651014460E+02  0.13709963376E+02  0.12700000000E+01 0.  1.
          4   -1    0    0  501    0  0.00000000000E+00 -0.00000000000E+00 -0.28547166785E+03  0.28547449281E+03  0.12700000000E+01 0.  1.
         25    2    1    2    0    0  0.00000000000E+00  0.00000000000E+00 -0.27182065339E+03  0.29918445619E+03  0.12499948486E+03 0.  0.
    9000005    1    3    3    0    0 -0.86453801129E+01  0.24353571796E+02 -0.27209478852E+03  0.27332108041E+03  0.10000000000E+01 0.  0.
    9000005    1    3    3    0    0  0.86453801129E+01 -0.24353571796E+02  0.27413512897E+00  0.25863375777E+02  0.10000000000E+01 0.  0.
<mgrwt>
<rscale>  0 0.12499948E+03</rscale>
<asrwt>0</asrwt>
<pdfrwt beam="2">  1        4 0.71375619E-01 0.12499948E+03</pdfrwt>
<pdfrwt beam="1">  1       -4 0.34204763E-02 0.12499948E+03</pdfrwt>
<totfact> 0.12994099E+03</totfact>
</mgrwt>
</event>
<event>
 5    1  0.1433395E-002  0.1250016E+03  0.7818608E-02  0.1235067E+00
          4   -1    0    0  501    0  0.00000000000E+00  0.00000000000E+00  0.90518961276E+03  0.90519050368E+03  0.12700000000E+01 0. -1.
         -4   -1    0    0    0  501 -0.00000000000E+00 -0.00000000000E+00 -0.42211562775E+01  0.44080676400E+01  0.12700000000E+01 0. -1.
         25    2    1    2    0    0  0.00000000000E+00  0.00000000000E+00  0.90096845648E+03  0.90959857132E+03  0.12500160546E+03 0.  0.
    9000005    1    3    3    0    0  0.61085905698E+02 -0.12717544980E+02  0.42514448502E+03  0.42969996157E+03  0.10000000000E+01 0.  0.
    9000005    1    3    3    0    0 -0.61085905698E+02  0.12717544980E+02  0.47582397146E+03  0.47989860975E+03  0.10000000000E+01 0.  0.
<mgrwt>
<rscale>  0 0.12500161E+03</rscale>
<asrwt>0</asrwt>
<pdfrwt beam="1">  1        4 0.22632090E+00 0.12500161E+03</pdfrwt>
<pdfrwt beam="2">  1       -4 0.10787643E-02 0.12500161E+03</pdfrwt>
<totfact> 0.43545386E+02</totfact>
</mgrwt>
</event>
<event>
 5    1  0.1433395E-002  0.1249989E+03  0.7818608E-02  0.1235071E+00
         -4   -1    0    0    0  501 -0.00000000000E+00  0.00000000000E+00  0.18905810732E+02  0.18948418917E+02  0.12700000000E+01 0. -1.
          4   -1    0    0  501    0  0.00000000000E+00 -0.00000000000E+00 -0.20633566099E+03  0.20633956939E+03  0.12700000000E+01 0. -1.
         25    2    1    2    0    0  0.00000000000E+00  0.00000000000E+00 -0.18742985025E+03  0.22528798830E+03  0.12499891563E+03 0.  0.
    9000005    1    3    3    0    0 -0.33668364639E+02  0.26628991983E+02 -0.11862622627E+02  0.44546423056E+02  0.10000000000E+01 0.  0.
    9000005    1    3    3    0    0  0.33668364639E+02 -0.26628991983E+02 -0.17556722763E+03  0.18074156525E+03  0.10000000000E+01 0.  0.
<mgrwt>
<rscale>  0 0.12499892E+03</rscale>
<asrwt>0</asrwt>
<pdfrwt beam="2">  1        4 0.51589723E-01 0.12499892E+03</pdfrwt>
<pdfrwt beam="1">  1       -4 0.47322679E-02 0.12499892E+03</pdfrwt>
<totfact> 0.15357541E+03</totfact>
</mgrwt>
</event>
<event>
 5    1  0.1433395E-002  0.1249958E+03  0.7818608E-02  0.1235076E+00
         -4   -1    0    0    0  501 -0.00000000000E+00  0.00000000000E+00  0.13094955100E+03  0.13095570933E+03  0.12700000000E+01 0.  1.
          4   -1    0    0  501    0  0.00000000000E+00 -0.00000000000E+00 -0.29807822457E+02  0.29834865169E+02  0.12700000000E+01 0.  1.
         25    2    1    2    0    0  0.00000000000E+00  0.00000000000E+00  0.10114172854E+03  0.16079057450E+03  0.12499583831E+03 0.  0.
    9000005    1    3    3    0    0  0.37054446138E+02  0.90132772495E+01  0.11425214225E+03  0.12045257637E+03  0.10000000000E+01 0.  0.
    9000005    1    3    3    0    0 -0.37054446138E+02 -0.90132772495E+01 -0.13110413710E+02  0.40337998129E+02  0.10000000000E+01 0.  0.
<mgrwt>
<rscale>  0 0.12499584E+03</rscale>
<asrwt>0</asrwt>
<pdfrwt beam="2">  1        4 0.74561059E-02 0.12499584E+03</pdfrwt>
<pdfrwt beam="1">  1       -4 0.32741537E-01 0.12499584E+03</pdfrwt>
<totfact> 0.18022355E+03</totfact>
</mgrwt>
</event>
<event>
 5    1  0.1433395E-002  0.1249980E+03  0.7818608E-02  0.1235072E+00
          4   -1    0    0  501    0  0.00000000000E+00  0.00000000000E+00  0.35276598343E+03  0.35276826950E+03  0.12700000000E+01 0.  1.
         -4   -1    0    0    0  501 -0.00000000000E+00 -0.00000000000E+00 -0.11034112901E+02  0.11106959418E+02  0.12700000000E+01 0.  1.
         25    2    1    2    0    0  0.00000000000E+00  0.00000000000E+00  0.34173187053E+03  0.36387522892E+03  0.12499804352E+03 0.  0.
    9000005    1    3    3    0    0 -0.61611909859E+02  0.40376612373E+01  0.19890849110E+03  0.20827366126E+03  0.10000000000E+01 0.  0.
    9000005    1    3    3    0    0  0.61611909859E+02 -0.40376612373E+01  0.14282337943E+03  0.15560156766E+03  0.10000000000E+01 0.  0.
<mgrwt>
<rscale>  0 0.12499804E+03</rscale>
<asrwt>0</asrwt>
<pdfrwt beam="1">  1        4 0.88200885E-01 0.12499804E+03</pdfrwt>
<pdfrwt beam="2">  1       -4 0.27679199E-02 0.12499804E+03</pdfrwt>
<totfact> 0.11353754E+03</totfact>
</mgrwt>
</event>
<event>
 5    1  0.1433395E-002  0.1249921E+03  0.7818608E-02  0.1235082E+00
         -4   -1    0    0    0  501 -0.00000000000E+00  0.00000000000E+00  0.11261515944E+03  0.11262232032E+03  0.12700000000E+01 0.  1.
          4   -1    0    0  501    0  0.00000000000E+00 -0.00000000000E+00 -0.34662458782E+02  0.34685716784E+02  0.12700000000E+01 0.  1.
         25    2    1    2    0    0  0.00000000000E+00  0.00000000000E+00  0.77952700655E+02  0.14730803711E+03  0.12499213678E+03 0.  0.
    9000005    1    3    3    0    0  0.33756982281E+01  0.36493825801E+02 -0.20671713001E+02  0.42089361821E+02  0.10000000000E+01 0.  0.
    9000005    1    3    3    0    0 -0.33756982281E+01 -0.36493825801E+02  0.98624413656E+02  0.10521867529E+03  0.10000000000E+01 0.  0.
<mgrwt>
<rscale>  0 0.12499214E+03</rscale>
<asrwt>0</asrwt>
<pdfrwt beam="2">  1        4 0.86694171E-02 0.12499214E+03</pdfrwt>
<pdfrwt beam="1">  1       -4 0.28157592E-01 0.12499214E+03</pdfrwt>
<totfact> 0.18675360E+03</totfact>
</mgrwt>
</event>
<event>
 5    1  0.1433395E-002  0.1250040E+03  0.7818608E-02  0.1235063E+00
          4   -1    0    0  501    0  0.00000000000E+00  0.00000000000E+00  0.30426079344E+03  0.30426344395E+03  0.12700000000E+01 0.  1.
         -4   -1    0    0    0  501 -0.00000000000E+00 -0.00000000000E+00 -0.12805187628E+02  0.12868011897E+02  0.12700000000E+01 0.  1.
         25    2    1    2    0    0  0.00000000000E+00  0.00000000000E+00  0.29145560581E+03  0.31713145584E+03  0.12500396045E+03 0.  0.
    9000005    1    3    3    0    0  0.37381228735E+02  0.25329928304E+02  0.25533365282E+03  0.25929758153E+03  0.10000000000E+01 0.  0.
    9000005    1    3    3    0    0 -0.37381228735E+02 -0.25329928304E+02  0.36121952994E+02  0.57833874310E+02  0.10000000000E+01 0.  0.
<mgrwt>
<rscale>  0 0.12500396E+03</rscale>
<asrwt>0</asrwt>
<pdfrwt beam="1">  1        4 0.76073380E-01 0.12500396E+03</pdfrwt>
<pdfrwt beam="2">  1       -4 0.32094814E-02 0.12500396E+03</pdfrwt>
<totfact> 0.12503010E+03</totfact>
</mgrwt>
</event>
<event>
 5    1  0.1433395E-002  0.1249987E+03  0.7818608E-02  0.1235071E+00
          4   -1    0    0  501    0  0.00000000000E+00  0.00000000000E+00  0.13665523788E+02  0.13724410385E+02  0.12700000000E+01 0.  1.
         -4   -1    0    0    0  501 -0.00000000000E+00 -0.00000000000E+00 -0.28516635653E+03  0.28516918451E+03  0.12700000000E+01 0.  1.
         25    2    1    2    0    0  0.00000000000E+00  0.00000000000E+00 -0.27150083274E+03  0.29889359490E+03  0.12499871556E+03 0.  0.
    9000005    1    3    3    0    0 -0.57679239742E+02 -0.22209694106E+02 -0.15779653049E+03  0.16947244686E+03  0.10000000000E+01 0.  0.
    9000005    1    3    3    0    0  0.57679239742E+02  0.22209694106E+02 -0.11370430225E+03  0.12942114804E+03  0.10000000000E+01 0.  0.
<mgrwt>
<rscale>  0 0.12499872E+03</rscale>
<asrwt>0</asrwt>
<pdfrwt beam="1">  1        4 0.34240962E-02 0.12499872E+03</pdfrwt>
<pdfrwt beam="2">  1       -4 0.71299284E-01 0.12499872E+03</pdfrwt>
<totfact> 0.13002507E+03</totfact>
</mgrwt>
</event>
<event>
 5    1  0.1433395E-002  0.1249461E+03  0.7818608E-02  0.1235153E+00
         -4   -1    0    0    0  501 -0.00000000000E+00  0.00000000000E+00  0.10368051452E+02  0.10445544070E+02  0.12700000000E+01 0. -1.
          4   -1    0    0  501    0  0.00000000000E+00 -0.00000000000E+00 -0.37495367750E+03  0.37495582830E+03  0.12700000000E+01 0. -1.
         25    2    1    2    0    0  0.00000000000E+00  0.00000000000E+00 -0.36458562605E+03  0.38540137236E+03  0.12494614479E+03 0.  0.
    9000005    1    3    3    0    0  0.17911820788E+02  0.32893648219E+02 -0.28094833888E+02  0.46831027196E+02  0.10000000000E+01 0.  0.
    9000005    1    3    3    0    0 -0.17911820788E+02 -0.32893648219E+02 -0.33649079216E+03  0.33857034517E+03  0.10000000000E+01 0.  0.
<mgrwt>
<rscale>  0 0.12494614E+03</rscale>
<asrwt>0</asrwt>
<pdfrwt beam="2">  1        4 0.93748330E-01 0.12494614E+03</pdfrwt>
<pdfrwt beam="1">  1       -4 0.26019695E-02 0.12494614E+03</pdfrwt>
<totfact> 0.10889579E+03</totfact>
</mgrwt>
</event>
<event>
 5    1  0.1433395E-002  0.1249998E+03  0.7818608E-02  0.1235070E+00
          4   -1    0    0  501    0  0.00000000000E+00  0.00000000000E+00  0.13365905504E+03  0.13366508854E+03  0.12700000000E+01 0.  1.
         -4   -1    0    0    0  501 -0.00000000000E+00 -0.00000000000E+00 -0.29204882382E+02  0.29232482874E+02  0.12700000000E+01 0.  1.
         25    2    1    2    0    0  0.00000000000E+00  0.00000000000E+00  0.10445417266E+03  0.16289757142E+03  0.12499977835E+03 0.  0.
    9000005    1    3    3    0    0 -0.66523471463E+01 -0.54222277211E+01  0.13289381063E+03  0.13317439386E+03  0.10000000000E+01 0.  0.
    9000005    1    3    3    0    0  0.66523471463E+01  0.54222277211E+01 -0.28439637971E+02  0.29723177555E+02  0.10000000000E+01 0.  0.
<mgrwt>
<rscale>  0 0.12499978E+03</rscale>
<asrwt>0</asrwt>
<pdfrwt beam="1">  1        4 0.33418967E-01 0.12499978E+03</pdfrwt>
<pdfrwt beam="2">  1       -4 0.73054250E-02 0.12499978E+03</pdfrwt>
<totfact> 0.17922329E+03</totfact>
</mgrwt>
</event>
<event>
 5    1  0.1433395E-002  0.1249984E+03  0.7818608E-02  0.1235072E+00
         -4   -1    0    0    0  501 -0.00000000000E+00  0.00000000000E+00  0.28097925290E+03  0.28098212302E+03  0.12700000000E+01 0.  1.
          4   -1    0    0  501    0  0.00000000000E+00 -0.00000000000E+00 -0.13869965201E+02  0.13927987460E+02  0.12700000000E+01 0.  1.
         25    2    1    2    0    0  0.00000000000E+00  0.00000000000E+00  0.26710928770E+03  0.29491011048E+03  0.12499840676E+03 0.  0.
    9000005    1    3    3    0    0  0.42475030761E+02 -0.28120164414E+02  0.21895643869E+03  0.22480612520E+03  0.10000000000E+01 0.  0.
    9000005    1    3    3    0    0 -0.42475030761E+02  0.28120164414E+02  0.48152849005E+02  0.70103985280E+02  0.10000000000E+01 0.  0.
<mgrwt>
<rscale>  0 0.12499841E+03</rscale>
<asrwt>0</asrwt>
<pdfrwt beam="2">  1        4 0.34751028E-02 0.12499841E+03</pdfrwt>
<pdfrwt beam="1">  1       -4 0.70252425E-01 0.12499841E+03</pdfrwt>
<totfact> 0.13115397E+03</totfact>
</mgrwt>
</event>
<event>
 5    1  0.1433395E-002  0.1250022E+03  0.7818608E-02  0.1235066E+00
         -4   -1    0    0    0  501 -0.00000000000E+00  0.00000000000E+00  0.14785322327E+03  0.14785867757E+03  0.12700000000E+01 0. -1.
          4   -1    0    0  501    0  0.00000000000E+00 -0.00000000000E+00 -0.26399518966E+02  0.26430049218E+02  0.12700000000E+01 0. -1.
         25    2    1    2    0    0  0.00000000000E+00  0.00000000000E+00  0.12145370430E+03  0.17428872678E+03  0.12500223196E+03 0.  0.
    9000005    1    3    3    0    0  0.96561102860E+00  0.61444873531E+02  0.76561940048E+02  0.98179099364E+02  0.10000000000E+01 0.  0.
    9000005    1    3    3    0    0 -0.96561102860E+00 -0.61444873531E+02  0.44891764256E+02  0.76109627419E+02  0.10000000000E+01 0.  0.
<mgrwt>
<rscale>  0 0.12500223E+03</rscale>
<asrwt>0</asrwt>
<pdfrwt beam="2">  1        4 0.66043779E-02 0.12500223E+03</pdfrwt>
<pdfrwt beam="1">  1       -4 0.36967803E-01 0.12500223E+03</pdfrwt>
<totfact> 0.17404423E+03</totfact>
</mgrwt>
</event>
<event>
 5    1  0.1433395E-002  0.1249981E+03  0.7818608E-02  0.1235072E+00
         -4   -1    0    0    0  501 -0.00000000000E+00  0.00000000000E+00  0.62581294992E+02  0.62594180104E+02  0.12700000000E+01 0.  1.
          4   -1    0    0  501    0  0.00000000000E+00 -0.00000000000E+00 -0.62391106141E+02  0.62404030523E+02  0.12700000000E+01 0.  1.
         25    2    1    2    0    0  0.00000000000E+00  0.00000000000E+00  0.19018885114E+00  0.12499821063E+03  0.12499806594E+03 0.  0.
    9000005    1    3    3    0    0  0.56056515284E+02 -0.26649306228E+02  0.73484257706E+01  0.62510141493E+02  0.10000000000E+01 0.  0.
    9000005    1    3    3    0    0 -0.56056515284E+02  0.26649306228E+02 -0.71582369195E+01  0.62488069133E+02  0.10000000000E+01 0.  0.
<mgrwt>
<rscale>  0 0.12499807E+03</rscale>
<asrwt>0</asrwt>
<pdfrwt beam="2">  1        4 0.15601003E-01 0.12499807E+03</pdfrwt>
<pdfrwt beam="1">  1       -4 0.15648550E-01 0.12499807E+03</pdfrwt>
<totfact> 0.19836050E+03</totfact>
</mgrwt>
</event>
<event>
 5    1  0.1433395E-002  0.1249976E+03  0.7818608E-02  0.1235073E+00
         -4   -1    0    0    0  501 -0.00000000000E+00  0.00000000000E+00  0.16793397183E+02  0.16841350567E+02  0.12700000000E+01 0. -1.
          4   -1    0    0  501    0  0.00000000000E+00 -0.00000000000E+00 -0.23221589209E+03  0.23221936491E+03  0.12700000000E+01 0. -1.
         25    2    1    2    0    0  0.00000000000E+00  0.00000000000E+00 -0.21542249490E+03  0.24906071547E+03  0.12499755470E+03 0.  0.
    9000005    1    3    3    0    0  0.47599289285E+02 -0.37765461438E+02 -0.13680311474E+03  0.14969306805E+03  0.10000000000E+01 0.  0.
    9000005    1    3    3    0    0 -0.47599289285E+02  0.37765461438E+02 -0.78619380160E+02  0.99367647425E+02  0.10000000000E+01 0.  0.
<mgrwt>
<rscale>  0 0.12499755E+03</rscale>
<asrwt>0</asrwt>
<pdfrwt beam="2">  1        4 0.58060391E-01 0.12499755E+03</pdfrwt>
<pdfrwt beam="1">  1       -4 0.42047783E-02 0.12499755E+03</pdfrwt>
<totfact> 0.14530104E+03</totfact>
</mgrwt>
</event>
<event>
 5    1  0.1433395E-002  0.1249990E+03  0.7818608E-02  0.1235071E+00
         -4   -1    0    0    0  501 -0.00000000000E+00  0.00000000000E+00  0.15807296926E+03  0.15807807094E+03  0.12700000000E+01 0. -1.
          4   -1    0    0  501    0  0.00000000000E+00 -0.00000000000E+00 -0.24689476990E+02  0.24722119125E+02  0.12700000000E+01 0. -1.
         25    2    1    2    0    0  0.00000000000E+00  0.00000000000E+00  0.13338349227E+03  0.18280019006E+03  0.12499901390E+03 0.  0.
    9000005    1    3    3    0    0  0.56692772884E+02 -0.22151134586E+02  0.45987101205E+02  0.76292573282E+02  0.10000000000E+01 0.  0.
    9000005    1    3    3    0    0 -0.56692772884E+02  0.22151134586E+02  0.87396391066E+02  0.10650761678E+03  0.10000000000E+01 0.  0.
<mgrwt>
<rscale>  0 0.12499901E+03</rscale>
<asrwt>0</asrwt>
<pdfrwt beam="2">  1        4 0.61770873E-02 0.12499901E+03</pdfrwt>
<pdfrwt beam="1">  1       -4 0.39522960E-01 0.12499901E+03</pdfrwt>
<totfact> 0.17035075E+03</totfact>
</mgrwt>
</event>
<event>
 5    1  0.1433395E-002  0.1250042E+03  0.7818608E-02  0.1235063E+00
         -4   -1    0    0    0  501 -0.00000000000E+00  0.00000000000E+00  0.69796873697E+02  0.69808426983E+02  0.12700000000E+01 0. -1.
          4   -1    0    0  501    0  0.00000000000E+00 -0.00000000000E+00 -0.55946351138E+02  0.55960763984E+02  0.12700000000E+01 0. -1.
         25    2    1    2    0    0  0.00000000000E+00  0.00000000000E+00  0.13850522559E+02  0.12576919097E+03  0.12500420961E+03 0.  0.
    9000005    1    3    3    0    0  0.12437934036E+02  0.39245950963E+02  0.54229645654E+02  0.68094062427E+02  0.10000000000E+01 0.  0.
    9000005    1    3    3    0    0 -0.12437934036E+02 -0.39245950963E+02 -0.40379123095E+02  0.57675128539E+02  0.10000000000E+01 0.  0.
<mgrwt>
<rscale>  0 0.12500421E+03</rscale>
<asrwt>0</asrwt>
<pdfrwt beam="2">  1        4 0.13989834E-01 0.12500421E+03</pdfrwt>
<pdfrwt beam="1">  1       -4 0.17452464E-01 0.12500421E+03</pdfrwt>
<totfact> 0.19791449E+03</totfact>
</mgrwt>
</event>
<event>
 5    1  0.1433395E-002  0.1249989E+03  0.7818608E-02  0.1235071E+00
          4   -1    0    0  501    0  0.00000000000E+00  0.00000000000E+00  0.39023453760E+02  0.39044114068E+02  0.12700000000E+01 0. -1.
         -4   -1    0    0    0  501 -0.00000000000E+00 -0.00000000000E+00 -0.10004705636E+03  0.10005511674E+03  0.12700000000E+01 0. -1.
         25    2    1    2    0    0  0.00000000000E+00  0.00000000000E+00 -0.61023602597E+02  0.13909923081E+03  0.12499886374E+03 0.  0.
    9000005    1    3    3    0    0 -0.22340481648E+02  0.54290929842E+02 -0.54341837567E+02  0.80003984236E+02  0.10000000000E+01 0.  0.
    9000005    1    3    3    0    0  0.22340481648E+02 -0.54290929842E+02 -0.66817650298E+01  0.59095246571E+02  0.10000000000E+01 0.  0.
<mgrwt>
<rscale>  0 0.12499886E+03</rscale>
<asrwt>0</asrwt>
<pdfrwt beam="1">  1        4 0.97594537E-02 0.12499886E+03</pdfrwt>
<pdfrwt beam="2">  1       -4 0.25015354E-01 0.12499886E+03</pdfrwt>
<totfact> 0.19087025E+03</totfact>
</mgrwt>
</event>
<event>
 5    1  0.1433395E-002  0.1249988E+03  0.7818608E-02  0.1235071E+00
          4   -1    0    0  501    0  0.00000000000E+00  0.00000000000E+00  0.35674633450E+02  0.35697231990E+02  0.12700000000E+01 0.  1.
         -4   -1    0    0    0  501 -0.00000000000E+00 -0.00000000000E+00 -0.10943358177E+03  0.10944095084E+03  0.12700000000E+01 0.  1.
         25    2    1    2    0    0  0.00000000000E+00  0.00000000000E+00 -0.73758948324E+02  0.14513818283E+03  0.12499883862E+03 0.  0.
    9000005    1    3    3    0    0 -0.16898159705E+02  0.52696093650E+02 -0.70586887434E+02  0.89699134695E+02  0.10000000000E+01 0.  0.
    9000005    1    3    3    0    0  0.16898159705E+02 -0.52696093650E+02 -0.31720608898E+01  0.55439048131E+02  0.10000000000E+01 0.  0.
<mgrwt>
<rscale>  0 0.12499884E+03</rscale>
<asrwt>0</asrwt>
<pdfrwt beam="1">  1        4 0.89224045E-02 0.12499884E+03</pdfrwt>
<pdfrwt beam="2">  1       -4 0.27362141E-01 0.12499884E+03</pdfrwt>
<totfact> 0.18780937E+03</totfact>
</mgrwt>
</event>
<event>
 5    1  0.1433395E-002  0.1249984E+03  0.7818608E-02  0.1235072E+00
         -4   -1    0    0    0  501 -0.00000000000E+00  0.00000000000E+00  0.10961001898E+02  0.11034331091E+02  0.12700000000E+01 0.  1.
          4   -1    0    0  501    0  0.00000000000E+00 -0.00000000000E+00 -0.35510545484E+03  0.35510772585E+03  0.12700000000E+01 0.  1.
         25    2    1    2    0    0  0.00000000000E+00  0.00000000000E+00 -0.34414445294E+03  0.36614205694E+03  0.12499840547E+03 0.  0.
    9000005    1    3    3    0    0  0.56886925954E+02 -0.25510733419E+02 -0.15956548494E+03  0.17131568477E+03  0.10000000000E+01 0.  0.
    9000005    1    3    3    0    0 -0.56886925954E+02  0.25510733419E+02 -0.18457896800E+03  0.19482637217E+03  0.10000000000E+01 0.  0.
<mgrwt>
<rscale>  0 0.12499841E+03</rscale>
<asrwt>0</asrwt>
<pdfrwt beam="2">  1        4 0.88785776E-01 0.12499841E+03</pdfrwt>
<pdfrwt beam="1">  1       -4 0.27497017E-02 0.12499841E+03</pdfrwt>
<totfact> 0.11301990E+03</totfact>
</mgrwt>
</event>
<event>
 5    1  0.1433395E-002  0.1250085E+03  0.7818608E-02  0.1235056E+00
          4   -1    0    0  501    0  0.00000000000E+00  0.00000000000E+00  0.25382866782E+03  0.25383184494E+03  0.12700000000E+01 0.  1.
         -4   -1    0    0    0  501 -0.00000000000E+00 -0.00000000000E+00 -0.15361921257E+02  0.15414328552E+02  0.12700000000E+01 0.  1.
         25    2    1    2    0    0  0.00000000000E+00  0.00000000000E+00  0.23846674656E+03  0.26924617349E+03  0.12500845061E+03 0.  0.
    9000005    1    3    3    0    0  0.10970269425E+02 -0.61436609336E+02  0.11209826406E+03  0.12830364213E+03  0.10000000000E+01 0.  0.
    9000005    1    3    3    0    0 -0.10970269425E+02  0.61436609336E+02  0.12636848250E+03  0.14094253136E+03  0.10000000000E+01 0.  0.
<mgrwt>
<rscale>  0 0.12500845E+03</rscale>
<asrwt>0</asrwt>
<pdfrwt beam="1">  1        4 0.63464115E-01 0.12500845E+03</pdfrwt>
<pdfrwt beam="2">  1       -4 0.38474284E-02 0.12500845E+03</pdfrwt>
<totfact> 0.13876291E+03</totfact>
</mgrwt>
</event>
<event>
 4    1  0.1433395E-002  0.1251411E+03  0.7818608E-02  0.1234849E+00
         -4   -1    0    0    0  501 -0.00000000000E+00  0.00000000000E+00  0.12727197573E+02  0.12790404922E+02  0.12700000000E+01 0.  1.
          4   -1    0    0  501    0  0.00000000000E+00 -0.00000000000E+00 -0.30678809809E+03  0.30679072677E+03  0.12700000000E+01 0.  1.
    9000005    1    1    2    0    0  0.14333601518E+02  0.22607013227E+02 -0.29143784667E+03  0.29266627351E+03  0.10000000000E+01 0.  0.
    9000005    1    1    2    0    0 -0.14333601518E+02 -0.22607013227E+02 -0.26230538535E+01  0.26914858183E+02  0.10000000000E+01 0.  0.
<mgrwt>
<rscale>  0 0.12514107E+03</rscale>
<asrwt>0</asrwt>
<pdfrwt beam="2">  1        4 0.76705230E-01 0.12514107E+03</pdfrwt>
<pdfrwt beam="1">  1       -4 0.31900299E-02 0.12514107E+03</pdfrwt>
<totfact> 0.12399414E+03</totfact>
</mgrwt>
</event>
<event>
 5    1  0.1433395E-002  0.1249989E+03  0.7818608E-02  0.1235071E+00
         -4   -1    0    0    0  501 -0.00000000000E+00  0.00000000000E+00  0.11458881069E+03  0.11459584825E+03  0.12700000000E+01 0.  1.
          4   -1    0    0  501    0  0.00000000000E+00 -0.00000000000E+00 -0.34068768222E+02  0.34092431245E+02  0.12700000000E+01 0.  1.
         25    2    1    2    0    0  0.00000000000E+00  0.00000000000E+00  0.80520042473E+02  0.14868827950E+03  0.12499890887E+03 0.  0.
    9000005    1    3    3    0    0 -0.40146741592E+01 -0.17832192702E+01 -0.33890711737E+02  0.34188855225E+02  0.10000000000E+01 0.  0.
    9000005    1    3    3    0    0  0.40146741592E+01  0.17832192702E+01  0.11441075421E+03  0.11449942427E+03  0.10000000000E+01 0.  0.
<mgrwt>
<rscale>  0 0.12499891E+03</rscale>
<asrwt>0</asrwt>
<pdfrwt beam="2">  1        4 0.85210297E-02 0.12499891E+03</pdfrwt>
<pdfrwt beam="1">  1       -4 0.28651040E-01 0.12499891E+03</pdfrwt>
<totfact> 0.18603939E+03</totfact>
</mgrwt>
</event>
<event>
 5    1  0.1433395E-002  0.1250160E+03  0.7818608E-02  0.1235044E+00
          4   -1    0    0  501    0  0.00000000000E+00  0.00000000000E+00  0.96609629383E+02  0.96617976534E+02  0.12700000000E+01 0. -1.
         -4   -1    0    0    0  501 -0.00000000000E+00 -0.00000000000E+00 -0.40423602475E+02  0.40443547533E+02  0.12700000000E+01 0. -1.
         25    2    1    2    0    0  0.00000000000E+00  0.00000000000E+00  0.56186026908E+02  0.13706152407E+03  0.12501596602E+03 0.  0.
    9000005    1    3    3    0    0  0.41596920568E+02 -0.43613387127E+02  0.99512306032E+01  0.61093848528E+02  0.10000000000E+01 0.  0.
    9000005    1    3    3    0    0 -0.41596920568E+02  0.43613387127E+02  0.46234796305E+02  0.75967675539E+02  0.10000000000E+01 0.  0.
<mgrwt>
<rscale>  0 0.12501597E+03</rscale>
<asrwt>0</asrwt>
<pdfrwt beam="1">  1        4 0.24155944E-01 0.12501597E+03</pdfrwt>
<pdfrwt beam="2">  1       -4 0.10109437E-01 0.12501597E+03</pdfrwt>
<totfact> 0.19184548E+03</totfact>
</mgrwt>
</event>
<event>
 5    1  0.1433395E-002  0.1249993E+03  0.7818608E-02  0.1235070E+00
          4   -1    0    0  501    0  0.00000000000E+00  0.00000000000E+00  0.11104134691E+03  0.11104860928E+03  0.12700000000E+01 0. -1.
         -4   -1    0    0    0  501 -0.00000000000E+00 -0.00000000000E+00 -0.35158049109E+02  0.35180979480E+02  0.12700000000E+01 0. -1.
         25    2    1    2    0    0  0.00000000000E+00  0.00000000000E+00  0.75883297800E+02  0.14622958876E+03  0.12499927098E+03 0.  0.
    9000005    1    3    3    0    0  0.53993694741E+02 -0.11945030719E+02  0.38913315773E+01  0.55444975355E+02  0.10000000000E+01 0.  0.
    9000005    1    3    3    0    0 -0.53993694741E+02  0.11945030719E+02  0.71991966223E+02  0.90784613406E+02  0.10000000000E+01 0.  0.
<mgrwt>
<rscale>  0 0.12499927E+03</rscale>
<asrwt>0</asrwt>
<pdfrwt beam="1">  1        4 0.27764111E-01 0.12499927E+03</pdfrwt>
<pdfrwt beam="2">  1       -4 0.87932864E-02 0.12499927E+03</pdfrwt>
<totfact> 0.18726057E+03</totfact>
</mgrwt>
</event>
<event>
 5    1  0.1433395E-002  0.1250001E+03  0.7818608E-02  0.1235069E+00
         -4   -1    0    0    0  501 -0.00000000000E+00  0.00000000000E+00  0.11147261609E+03  0.11147985037E+03  0.12700000000E+01 0.  1.
          4   -1    0    0  501    0  0.00000000000E+00 -0.00000000000E+00 -0.35022437113E+02  0.35045456215E+02  0.12700000000E+01 0.  1.
         25    2    1    2    0    0  0.00000000000E+00  0.00000000000E+00  0.76450178975E+02  0.14652530658E+03  0.12500014241E+03 0.  0.
    9000005    1    3    3    0    0 -0.46239503072E+02  0.26429288475E+02 -0.94592944359E-01  0.53269201998E+02  0.10000000000E+01 0.  0.
    9000005    1    3    3    0    0  0.46239503072E+02 -0.26429288475E+02  0.76544771920E+02  0.93256104582E+02  0.10000000000E+01 0.  0.
<mgrwt>
<rscale>  0 0.12500014E+03</rscale>
<asrwt>0</asrwt>
<pdfrwt beam="2">  1        4 0.87593910E-02 0.12500014E+03</pdfrwt>
<pdfrwt beam="1">  1       -4 0.27871936E-01 0.12500014E+03</pdfrwt>
<totfact> 0.18710900E+03</totfact>
</mgrwt>
</event>
<event>
 5    1  0.1433395E-002  0.1250007E+03  0.7818608E-02  0.1235068E+00
         -4   -1    0    0    0  501 -0.00000000000E+00  0.00000000000E+00  0.75148144137E+02  0.75158874840E+02  0.12700000000E+01 0.  1.
          4   -1    0    0  501    0  0.00000000000E+00 -0.00000000000E+00 -0.51959080173E+02  0.51974598723E+02  0.12700000000E+01 0.  1.
         25    2    1    2    0    0  0.00000000000E+00  0.00000000000E+00  0.23189063964E+02  0.12713347356E+03  0.12500074965E+03 0.  0.
    9000005    1    3    3    0    0 -0.50432239119E+02 -0.25900643737E+02 -0.15141672713E+02  0.58690070209E+02  0.10000000000E+01 0.  0.
    9000005    1    3    3    0    0  0.50432239119E+02  0.25900643737E+02  0.38330736677E+02  0.68443403355E+02  0.10000000000E+01 0.  0.
<mgrwt>
<rscale>  0 0.12500075E+03</rscale>
<asrwt>0</asrwt>
<pdfrwt beam="2">  1        4 0.12993051E-01 0.12500075E+03</pdfrwt>
<pdfrwt beam="1">  1       -4 0.18790317E-01 0.12500075E+03</pdfrwt>
<totfact> 0.19719416E+03</totfact>
</mgrwt>
</event>
<event>
 5    1  0.1433395E-002  0.1249870E+03  0.7818608E-02  0.1235090E+00
          4   -1    0    0  501    0  0.00000000000E+00  0.00000000000E+00  0.10661697089E+03  0.10662453461E+03  0.12700000000E+01 0.  1.
         -4   -1    0    0    0  501 -0.00000000000E+00 -0.00000000000E+00 -0.36610656522E+02  0.36632677638E+02  0.12700000000E+01 0.  1.
         25    2    1    2    0    0  0.00000000000E+00  0.00000000000E+00  0.70006314365E+02  0.14325721225E+03  0.12498697856E+03 0.  0.
    9000005    1    3    3    0    0  0.53080611030E+02 -0.89796955660E+01  0.71361549658E+02  0.89396067975E+02  0.10000000000E+01 0.  0.
    9000005    1    3    3    0    0 -0.53080611030E+02  0.89796955660E+01 -0.13552352929E+01  0.53861144274E+02  0.10000000000E+01 0.  0.
<mgrwt>
<rscale>  0 0.12498698E+03</rscale>
<asrwt>0</asrwt>
<pdfrwt beam="1">  1        4 0.26657941E-01 0.12498698E+03</pdfrwt>
<pdfrwt beam="2">  1       -4 0.91563623E-02 0.12498698E+03</pdfrwt>
<totfact> 0.18880659E+03</totfact>
</mgrwt>
</event>
<event>
 5    1  0.1433395E-002  0.1250006E+03  0.7818608E-02  0.1235068E+00
          4   -1    0    0  501    0  0.00000000000E+00  0.00000000000E+00  0.49081040354E+03  0.49081204663E+03  0.12700000000E+01 0.  1.
         -4   -1    0    0    0  501 -0.00000000000E+00 -0.00000000000E+00 -0.79065250606E+01  0.80078735338E+01  0.12700000000E+01 0.  1.
         25    2    1    2    0    0  0.00000000000E+00  0.00000000000E+00  0.48290387848E+03  0.49881992017E+03  0.12500062763E+03 0.  0.
    9000005    1    3    3    0    0 -0.69751955314E+01  0.47648210569E+02  0.40038785684E+03  0.40327464740E+03  0.10000000000E+01 0.  0.
    9000005    1    3    3    0    0  0.69751955314E+01 -0.47648210569E+02  0.82516021632E+02  0.95545272772E+02  0.10000000000E+01 0.  0.
<mgrwt>
<rscale>  0 0.12500063E+03</rscale>
<asrwt>0</asrwt>
<pdfrwt beam="1">  1        4 0.12271547E+00 0.12500063E+03</pdfrwt>
<pdfrwt beam="2">  1       -4 0.19895052E-02 0.12500063E+03</pdfrwt>
<totfact> 0.87793703E+02</totfact>
</mgrwt>
</event>
<event>
 5    1  0.1433395E-002  0.1250023E+03  0.7818608E-02  0.1235066E+00
         -4   -1    0    0    0  501 -0.00000000000E+00  0.00000000000E+00  0.12604249009E+02  0.12668069824E+02  0.12700000000E+01 0.  1.
          4   -1    0    0  501    0  0.00000000000E+00 -0.00000000000E+00 -0.30907903350E+03  0.30908164269E+03  0.12700000000E+01 0.  1.
         25    2    1    2    0    0  0.00000000000E+00  0.00000000000E+00 -0.29647478449E+03  0.32174971251E+03  0.12500231864E+03 0.  0.
    9000005    1    3    3    0    0  0.40837955136E+02  0.30747260953E+02 -0.55708911198E+02  0.75614915345E+02  0.10000000000E+01 0.  0.
    9000005    1    3    3    0    0 -0.40837955136E+02 -0.30747260953E+02 -0.24076587329E+03  0.24613479717E+03  0.10000000000E+01 0.  0.
<mgrwt>
<rscale>  0 0.12500232E+03</rscale>
<asrwt>0</asrwt>
<pdfrwt beam="2">  1        4 0.77278037E-01 0.12500232E+03</pdfrwt>
<pdfrwt beam="1">  1       -4 0.31593670E-02 0.12500232E+03</pdfrwt>
<totfact> 0.12381998E+03</totfact>
</mgrwt>
</event>
<event>
 5    1  0.1433395E-002  0.1249992E+03  0.7818608E-02  0.1235070E+00
          4   -1    0    0  501    0  0.00000000000E+00  0.00000000000E+00  0.31261815191E+03  0.31262073157E+03  0.12700000000E+01 0.  1.
         -4   -1    0    0    0  501 -0.00000000000E+00 -0.00000000000E+00 -0.12460215220E+02  0.12524769991E+02  0.12700000000E+01 0.  1.
         25    2    1    2    0    0  0.00000000000E+00  0.00000000000E+00  0.30015793670E+03  0.32514550156E+03  0.12499924089E+03 0.  0.
    9000005    1    3    3    0    0 -0.78741346890E+01 -0.12406835629E+02  0.30807298951E+03  0.30842486675E+03  0.10000000000E+01 0.  0.
    9000005    1    3    3    0    0  0.78741346890E+01  0.12406835629E+02 -0.79150528100E+01  0.16720634809E+02  0.10000000000E+01 0.  0.
<mgrwt>
<rscale>  0 0.12499924E+03</rscale>
<asrwt>0</asrwt>
<pdfrwt beam="1">  1        4 0.78162928E-01 0.12499924E+03</pdfrwt>
<pdfrwt beam="2">  1       -4 0.31234457E-02 0.12499924E+03</pdfrwt>
<totfact> 0.12294676E+03</totfact>
</mgrwt>
</event>
<event>
 5    1  0.1433395E-002  0.1250003E+03  0.7818608E-02  0.1235069E+00
          4   -1    0    0  501    0  0.00000000000E+00  0.00000000000E+00  0.89196046615E+02  0.89205087477E+02  0.12700000000E+01 0.  1.
         -4   -1    0    0    0  501 -0.00000000000E+00 -0.00000000000E+00 -0.43773745330E+02  0.43792164599E+02  0.12700000000E+01 0.  1.
         25    2    1    2    0    0  0.00000000000E+00  0.00000000000E+00  0.45422301284E+02  0.13299725208E+03  0.12500033442E+03 0.  0.
    9000005    1    3    3    0    0 -0.55927748592E+02 -0.11231450272E+02  0.49862587134E+02  0.75771605061E+02  0.10000000000E+01 0.  0.
    9000005    1    3    3    0    0  0.55927748592E+02  0.11231450272E+02 -0.44402858492E+01  0.57225647015E+02  0.10000000000E+01 0.  0.
<mgrwt>
<rscale>  0 0.12500033E+03</rscale>
<asrwt>0</asrwt>
<pdfrwt beam="1">  1        4 0.22302444E-01 0.12500033E+03</pdfrwt>
<pdfrwt beam="2">  1       -4 0.10946869E-01 0.12500033E+03</pdfrwt>
<totfact> 0.19404409E+03</totfact>
</mgrwt>
</event>
<event>
 5    1  0.1433395E-002  0.1250027E+03  0.7818608E-02  0.1235065E+00
          4   -1    0    0  501    0  0.00000000000E+00  0.00000000000E+00  0.57967255828E+01  0.59342166696E+01  0.12700000000E+01 0.  1.
         -4   -1    0    0    0  501 -0.00000000000E+00 -0.00000000000E+00 -0.66586399262E+03  0.66586520375E+03  0.12700000000E+01 0.  1.
         25    2    1    2    0    0  0.00000000000E+00  0.00000000000E+00 -0.66006726703E+03  0.67179942042E+03  0.12500265703E+03 0.  0.
    9000005    1    3    3    0    0  0.14693109827E+02 -0.60259130773E+02 -0.28897548045E+03  0.29555858746E+03  0.10000000000E+01 0.  0.
    9000005    1    3    3    0    0 -0.14693109827E+02  0.60259130773E+02 -0.37109178658E+03  0.37624083296E+03  0.10000000000E+01 0.  0.
<mgrwt>
<rscale>  0 0.12500266E+03</rscale>
<asrwt>0</asrwt>
<pdfrwt beam="1">  1        4 0.14665214E-02 0.12500266E+03</pdfrwt>
<pdfrwt beam="2">  1       -4 0.16648308E+00 0.12500266E+03</pdfrwt>
<totfact> 0.65067058E+02</totfact>
</mgrwt>
</event>
<event>
 4    1  0.1433395E-002  0.1248047E+03  0.7818608E-02  0.1235375E+00
          4   -1    0    0  501    0  0.00000000000E+00  0.00000000000E+00  0.44636641965E+02  0.44654705306E+02  0.12700000000E+01 0. -1.
         -4   -1    0    0    0  501 -0.00000000000E+00 -0.00000000000E+00 -0.87198603582E+02  0.87207851520E+02  0.12700000000E+01 0. -1.
    9000005    1    1    2    0    0 -0.53324647363E+02 -0.11087195173E+02 -0.53442673944E+02  0.76312274973E+02  0.10000000000E+01 0.  0.
    9000005    1    1    2    0    0  0.53324647363E+02  0.11087195173E+02  0.10880712327E+02  0.55550281853E+02  0.10000000000E+01 0.  0.
<mgrwt>
<rscale>  0 0.12480470E+03</rscale>
<asrwt>0</asrwt>
<pdfrwt beam="1">  1        4 0.11162575E-01 0.12480470E+03</pdfrwt>
<pdfrwt beam="2">  1       -4 0.21803065E-01 0.12480470E+03</pdfrwt>
<totfact> 0.19553753E+03</totfact>
</mgrwt>
</event>
<event>
 5    1  0.1433395E-002  0.1249969E+03  0.7818608E-02  0.1235074E+00
         -4   -1    0    0    0  501 -0.00000000000E+00  0.00000000000E+00  0.93956586364E+01  0.94811023205E+01  0.12700000000E+01 0. -1.
          4   -1    0    0  501    0  0.00000000000E+00 -0.00000000000E+00 -0.41376202046E+03  0.41376396953E+03  0.12700000000E+01 0. -1.
         25    2    1    2    0    0  0.00000000000E+00  0.00000000000E+00 -0.40436636183E+03  0.42324507185E+03  0.12499694502E+03 0.  0.
    9000005    1    3    3    0    0  0.25446936633E+02 -0.48300339553E+02 -0.99223536892E+02  0.11325537364E+03  0.10000000000E+01 0.  0.
    9000005    1    3    3    0    0 -0.25446936633E+02  0.48300339553E+02 -0.30514282493E+03  0.30998969821E+03  0.10000000000E+01 0.  0.
<mgrwt>
<rscale>  0 0.12499695E+03</rscale>
<asrwt>0</asrwt>
<pdfrwt beam="2">  1        4 0.10345137E+00 0.12499695E+03</pdfrwt>
<pdfrwt beam="1">  1       -4 0.23598401E-02 0.12499695E+03</pdfrwt>
<totfact> 0.10103238E+03</totfact>
</mgrwt>
</event>
<event>
 5    1  0.1433395E-002  0.1250003E+03  0.7818608E-02  0.1235069E+00
         -4   -1    0    0    0  501 -0.00000000000E+00  0.00000000000E+00  0.99681426845E+01  0.10048719748E+02  0.12700000000E+01 0.  1.
          4   -1    0    0  501    0  0.00000000000E+00 -0.00000000000E+00 -0.39021635002E+03  0.39021841669E+03  0.12700000000E+01 0.  1.
         25    2    1    2    0    0  0.00000000000E+00  0.00000000000E+00 -0.38024820734E+03  0.40026713644E+03  0.12500032532E+03 0.  0.
    9000005    1    3    3    0    0  0.87153427999E+01 -0.30177088651E+02 -0.17130406601E+02  0.35791964320E+02  0.10000000000E+01 0.  0.
    9000005    1    3    3    0    0 -0.87153427999E+01  0.30177088651E+02 -0.36311780074E+03  0.36447517212E+03  0.10000000000E+01 0.  0.
<mgrwt>
<rscale>  0 0.12500033E+03</rscale>
<asrwt>0</asrwt>
<pdfrwt beam="2">  1        4 0.97564367E-01 0.12500033E+03</pdfrwt>
<pdfrwt beam="1">  1       -4 0.25023674E-02 0.12500033E+03</pdfrwt>
<totfact> 0.10563625E+03</totfact>
</mgrwt>
</event>
<event>
 5    1  0.1433395E-002  0.1249938E+03  0.7818608E-02  0.1235079E+00
          4   -1    0    0  501    0  0.00000000000E+00  0.00000000000E+00  0.37609904237E+02  0.37631340618E+02  0.12700000000E+01 0.  1.
         -4   -1    0    0    0  501 -0.00000000000E+00 -0.00000000000E+00 -0.10379706791E+03  0.10380483710E+03  0.12700000000E+01 0.  1.
         25    2    1    2    0    0  0.00000000000E+00  0.00000000000E+00 -0.66187163672E+02  0.14143617772E+03  0.12499380678E+03 0.  0.
    9000005    1    3    3    0    0 -0.13115938081E+02  0.50630716033E+02  0.56007356533E+01  0.52610507293E+02  0.10000000000E+01 0.  0.
    9000005    1    3    3    0    0  0.13115938081E+02 -0.50630716033E+02 -0.71787899325E+02  0.88825670430E+02  0.10000000000E+01 0.  0.
<mgrwt>
<rscale>  0 0.12499381E+03</rscale>
<asrwt>0</asrwt>
<pdfrwt beam="1">  1        4 0.94061270E-02 0.12499381E+03</pdfrwt>
<pdfrwt beam="2">  1       -4 0.25952917E-01 0.12499381E+03</pdfrwt>
<totfact> 0.18969848E+03</totfact>
</mgrwt>
</event>
<event>
 5    1  0.1433395E-002  0.1249946E+03  0.7818608E-02  0.1235078E+00
          4   -1    0    0  501    0  0.00000000000E+00  0.00000000000E+00  0.32872631535E+02  0.32897154954E+02  0.12700000000E+01 0.  1.
         -4   -1    0    0    0  501 -0.00000000000E+00 -0.00000000000E+00 -0.11874733060E+03  0.11875412172E+03  0.12700000000E+01 0.  1.
         25    2    1    2    0    0  0.00000000000E+00  0.00000000000E+00 -0.85874699068E+02  0.15165127667E+03  0.12499458299E+03 0.  0.
    9000005    1    3    3    0    0 -0.14733368624E+02  0.47234423388E+01 -0.11639265554E+03  0.11742075337E+03  0.10000000000E+01 0.  0.
    9000005    1    3    3    0    0  0.14733368624E+02 -0.47234423388E+01  0.30517956471E+02  0.34230523304E+02  0.10000000000E+01 0.  0.
<mgrwt>
<rscale>  0 0.12499458E+03</rscale>
<asrwt>0</asrwt>
<pdfrwt beam="1">  1        4 0.82220725E-02 0.12499458E+03</pdfrwt>
<pdfrwt beam="2">  1       -4 0.29690746E-01 0.12499458E+03</pdfrwt>
<totfact> 0.18460211E+03</totfact>
</mgrwt>
</event>
<event>
 5    1  0.1433395E-002  0.1250184E+03  0.7818608E-02  0.1235041E+00
         -4   -1    0    0    0  501 -0.00000000000E+00  0.00000000000E+00  0.31162056809E+01  0.33650613435E+01  0.12700000000E+01 0. -1.
          4   -1    0    0  501    0  0.00000000000E+00 -0.00000000000E+00 -0.12055020672E+04  0.12055027362E+04  0.12700000000E+01 0. -1.
         25    2    1    2    0    0  0.00000000000E+00  0.00000000000E+00 -0.12023858615E+04  0.12088677975E+04  0.12501836623E+03 0.  0.
    9000005    1    3    3    0    0  0.39718531229E+02 -0.10987500608E+02 -0.14681686358E+03  0.15249419112E+03  0.10000000000E+01 0.  0.
    9000005    1    3    3    0    0 -0.39718531229E+02  0.10987500608E+02 -0.10555689979E+04  0.10563736064E+04  0.10000000000E+01 0.  0.
<mgrwt>
<rscale>  0 0.12501837E+03</rscale>
<asrwt>0</asrwt>
<pdfrwt beam="2">  1        4 0.30140517E+00 0.12501837E+03</pdfrwt>
<pdfrwt beam="1">  1       -4 0.81024613E-03 0.12501837E+03</pdfrwt>
<totfact> 0.24732599E+02</totfact>
</mgrwt>
</event>
<event>
 5    1  0.1433395E-002  0.1249961E+03  0.7818608E-02  0.1235075E+00
         -4   -1    0    0    0  501 -0.00000000000E+00  0.00000000000E+00  0.25659349344E+03  0.25659663633E+03  0.12700000000E+01 0. -1.
          4   -1    0    0  501    0  0.00000000000E+00 -0.00000000000E+00 -0.15192825974E+02  0.15245814543E+02  0.12700000000E+01 0. -1.
         25    2    1    2    0    0  0.00000000000E+00  0.00000000000E+00  0.24140066747E+03  0.27184245088E+03  0.12499614331E+03 0.  0.
    9000005    1    3    3    0    0 -0.37341035514E+02  0.50025466376E+02  0.12689328111E+03  0.14142066684E+03  0.10000000000E+01 0.  0.
    9000005    1    3    3    0    0  0.37341035514E+02 -0.50025466376E+02  0.11450738636E+03  0.13042178403E+03  0.10000000000E+01 0.  0.
<mgrwt>
<rscale>  0 0.12499614E+03</rscale>
<asrwt>0</asrwt>
<pdfrwt beam="2">  1        4 0.38052228E-02 0.12499614E+03</pdfrwt>
<pdfrwt beam="1">  1       -4 0.64155393E-01 0.12499614E+03</pdfrwt>
<totfact> 0.13799836E+03</totfact>
</mgrwt>
</event>
<event>
 5    1  0.1433395E-002  0.1249950E+03  0.7818608E-02  0.1235077E+00
         -4   -1    0    0    0  501 -0.00000000000E+00  0.00000000000E+00  0.44072723897E+03  0.44072906878E+03  0.12700000000E+01 0. -1.
          4   -1    0    0  501    0  0.00000000000E+00 -0.00000000000E+00 -0.88151305440E+01  0.89061454350E+01  0.12700000000E+01 0. -1.
         25    2    1    2    0    0  0.00000000000E+00  0.00000000000E+00  0.43191210843E+03  0.44963521422E+03  0.12499502574E+03 0.  0.
    9000005    1    3    3    0    0 -0.19989020372E+02 -0.57587069226E+02  0.26542380006E+03  0.27233550102E+03  0.10000000000E+01 0.  0.
    9000005    1    3    3    0    0  0.19989020372E+02  0.57587069226E+02  0.16648830837E+03  0.17729971320E+03  0.10000000000E+01 0.  0.
<mgrwt>
<rscale>  0 0.12499503E+03</rscale>
<asrwt>0</asrwt>
<pdfrwt beam="2">  1        4 0.22153884E-02 0.12499503E+03</pdfrwt>
<pdfrwt beam="1">  1       -4 0.11019341E+00 0.12499503E+03</pdfrwt>
<totfact> 0.96093348E+02</totfact>
</mgrwt>
</event>
<event>
 5    1  0.1433395E-002  0.1250053E+03  0.7818608E-02  0.1235061E+00
         -4   -1    0    0    0  501 -0.00000000000E+00  0.00000000000E+00  0.44476846271E+03  0.44477027589E+03  0.12700000000E+01 0.  1.
          4   -1    0    0  501    0  0.00000000000E+00 -0.00000000000E+00 -0.87356499812E+01  0.88274843865E+01  0.12700000000E+01 0.  1.
         25    2    1    2    0    0  0.00000000000E+00  0.00000000000E+00  0.43603281273E+03  0.45359776028E+03  0.12500525732E+03 0.  0.
    9000005    1    3    3    0    0 -0.20755437624E+02  0.18241387973E+02  0.42141531922E+03  0.42232145068E+03  0.10000000000E+01 0.  0.
    9000005    1    3    3    0    0  0.20755437624E+02 -0.18241387973E+02  0.14617493504E+02  0.31276309604E+02  0.10000000000E+01 0.  0.
<mgrwt>
<rscale>  0 0.12500526E+03</rscale>
<asrwt>0</asrwt>
<pdfrwt beam="2">  1        4 0.21956185E-02 0.12500526E+03</pdfrwt>
<pdfrwt beam="1">  1       -4 0.11120382E+00 0.12500526E+03</pdfrwt>
<totfact> 0.95363205E+02</totfact>
</mgrwt>
</event>
<event>
 5    1  0.1433395E-002  0.1249917E+03  0.7818608E-02  0.1235082E+00
         -4   -1    0    0    0  501 -0.00000000000E+00  0.00000000000E+00  0.58236013710E+02  0.58249860024E+02  0.12700000000E+01 0. -1.
          4   -1    0    0  501    0  0.00000000000E+00 -0.00000000000E+00 -0.67039415357E+02  0.67051443768E+02  0.12700000000E+01 0. -1.
         25    2    1    2    0    0  0.00000000000E+00  0.00000000000E+00 -0.88034016470E+01  0.12530130379E+03  0.12499166713E+03 0.  0.
    9000005    1    3    3    0    0  0.39061758395E+02 -0.41223596396E+02 -0.30533945736E+02  0.64486647540E+02  0.10000000000E+01 0.  0.
    9000005    1    3    3    0    0 -0.39061758395E+02  0.41223596396E+02  0.21730544089E+02  0.60814656253E+02  0.10000000000E+01 0.  0.
<mgrwt>
<rscale>  0 0.12499167E+03</rscale>
<asrwt>0</asrwt>
<pdfrwt beam="2">  1        4 0.16763088E-01 0.12499167E+03</pdfrwt>
<pdfrwt beam="1">  1       -4 0.14562238E-01 0.12499167E+03</pdfrwt>
<totfact> 0.19822588E+03</totfact>
</mgrwt>
</event>
<event>
 5    1  0.1433395E-002  0.1250183E+03  0.7818608E-02  0.1235041E+00
          4   -1    0    0  501    0  0.00000000000E+00  0.00000000000E+00  0.63717535277E+02  0.63730190662E+02  0.12700000000E+01 0. -1.
         -4   -1    0    0    0  501 -0.00000000000E+00 -0.00000000000E+00 -0.61298379494E+02  0.61311534222E+02  0.12700000000E+01 0. -1.
         25    2    1    2    0    0  0.00000000000E+00  0.00000000000E+00  0.24191557831E+01  0.12504172488E+03  0.12501832125E+03 0.  0.
    9000005    1    3    3    0    0 -0.22718538106E+02 -0.46136527818E+02 -0.34317262835E+02  0.61833532175E+02  0.10000000000E+01 0.  0.
    9000005    1    3    3    0    0  0.22718538106E+02  0.46136527818E+02  0.36736418618E+02  0.63208192709E+02  0.10000000000E+01 0.  0.
<mgrwt>
<rscale>  0 0.12501832E+03</rscale>
<asrwt>0</asrwt>
<pdfrwt beam="1">  1        4 0.15932610E-01 0.12501832E+03</pdfrwt>
<pdfrwt beam="2">  1       -4 0.15327821E-01 0.12501832E+03</pdfrwt>
<totfact> 0.19824293E+03</totfact>
</mgrwt>
</event>
<event>
 5    1  0.1433395E-002  0.1250030E+03  0.7818608E-02  0.1235065E+00
          4   -1    0    0  501    0  0.00000000000E+00  0.00000000000E+00  0.83642423271E+01  0.84601093200E+01  0.12700000000E+01 0. -1.
         -4   -1    0    0    0  501 -0.00000000000E+00 -0.00000000000E+00 -0.46428240379E+03  0.46428414077E+03  0.12700000000E+01 0. -1.
         25    2    1    2    0    0  0.00000000000E+00  0.00000000000E+00 -0.45591816146E+03  0.47274425009E+03  0.12500302412E+03 0.  0.
    9000005    1    3    3    0    0 -0.11121142252E+02  0.34533567017E+02 -0.35522398842E+02  0.50784720885E+02  0.10000000000E+01 0.  0.
    9000005    1    3    3    0    0  0.11121142252E+02 -0.34533567017E+02 -0.42039576262E+03  0.42195952920E+03  0.10000000000E+01 0.  0.
<mgrwt>
<rscale>  0 0.12500302E+03</rscale>
<asrwt>0</asrwt>
<pdfrwt beam="1">  1        4 0.21032626E-02 0.12500302E+03</pdfrwt>
<pdfrwt beam="2">  1       -4 0.11608272E+00 0.12500302E+03</pdfrwt>
<totfact> 0.92065757E+02</totfact>
</mgrwt>
</event>
<event>
 5    1  0.1433395E-002  0.1250009E+03  0.7818608E-02  0.1235068E+00
         -4   -1    0    0    0  501 -0.00000000000E+00  0.00000000000E+00  0.24779117476E+03  0.24779442929E+03  0.12700000000E+01 0.  1.
          4   -1    0    0  501    0  0.00000000000E+00 -0.00000000000E+00 -0.15735573851E+02  0.15786740779E+02  0.12700000000E+01 0.  1.
         25    2    1    2    0    0  0.00000000000E+00  0.00000000000E+00  0.23205560090E+03  0.26358117007E+03  0.12500092521E+03 0.  0.
    9000005    1    3    3    0    0 -0.57898507164E+02 -0.22909584397E+02  0.10482588595E+03  0.12192847311E+03  0.10000000000E+01 0.  0.
    9000005    1    3    3    0    0  0.57898507164E+02  0.22909584397E+02  0.12722971496E+03  0.14165269696E+03  0.10000000000E+01 0.  0.
<mgrwt>
<rscale>  0 0.12500093E+03</rscale>
<asrwt>0</asrwt>
<pdfrwt beam="2">  1        4 0.39406963E-02 0.12500093E+03</pdfrwt>
<pdfrwt beam="1">  1       -4 0.61954595E-01 0.12500093E+03</pdfrwt>
<totfact> 0.14056575E+03</totfact>
</mgrwt>
</event>
<event>
 5    1  0.1433395E-002  0.1249973E+03  0.7818608E-02  0.1235073E+00
          4   -1    0    0  501    0  0.00000000000E+00  0.00000000000E+00  0.17812625754E+03  0.17813078489E+03  0.12700000000E+01 0. -1.
         -4   -1    0    0    0  501 -0.00000000000E+00 -0.00000000000E+00 -0.21905533710E+02  0.21942317724E+02  0.12700000000E+01 0. -1.
         25    2    1    2    0    0  0.00000000000E+00  0.00000000000E+00  0.15622072384E+03  0.20007310262E+03  0.12499732731E+03 0.  0.
    9000005    1    3    3    0    0  0.24320156784E+02  0.55848879045E+02  0.10043401402E+03  0.11746726560E+03  0.10000000000E+01 0.  0.
    9000005    1    3    3    0    0 -0.24320156784E+02 -0.55848879045E+02  0.55786709816E+02  0.82605837014E+02  0.10000000000E+01 0.  0.
<mgrwt>
<rscale>  0 0.12499733E+03</rscale>
<asrwt>0</asrwt>
<pdfrwt beam="1">  1        4 0.44536727E-01 0.12499733E+03</pdfrwt>
<pdfrwt beam="2">  1       -4 0.54815475E-02 0.12499733E+03</pdfrwt>
<totfact> 0.16320123E+03</totfact>
</mgrwt>
</event>
<event>
 5    1  0.1433395E-002  0.1249996E+03  0.7818608E-02  0.1235070E+00
          4   -1    0    0  501    0  0.00000000000E+00  0.00000000000E+00  0.21799618212E+02  0.21836580643E+02  0.12700000000E+01 0. -1.
         -4   -1    0    0    0  501 -0.00000000000E+00 -0.00000000000E+00 -0.17899681293E+03  0.17900131826E+03  0.12700000000E+01 0. -1.
         25    2    1    2    0    0  0.00000000000E+00  0.00000000000E+00 -0.15719719471E+03  0.20083789890E+03  0.12499961443E+03 0.  0.
    9000005    1    3    3    0    0  0.30912940753E+02  0.14171867526E+02  0.56391076278E+01  0.34485522615E+02  0.10000000000E+01 0.  0.
    9000005    1    3    3    0    0 -0.30912940753E+02 -0.14171867526E+02 -0.16283630234E+03  0.16635237628E+03  0.10000000000E+01 0.  0.
<mgrwt>
<rscale>  0 0.12499961E+03</rscale>
<asrwt>0</asrwt>
<pdfrwt beam="1">  1        4 0.54550886E-02 0.12499961E+03</pdfrwt>
<pdfrwt beam="2">  1       -4 0.44754382E-01 0.12499961E+03</pdfrwt>
<totfact> 0.16288691E+03</totfact>
</mgrwt>
</event>
<event>
 5    1  0.1433395E-002  0.1249972E+03  0.7818608E-02  0.1235074E+00
         -4   -1    0    0    0  501 -0.00000000000E+00  0.00000000000E+00  0.34194444802E+01  0.36476705653E+01  0.12700000000E+01 0.  1.
          4   -1    0    0  501    0  0.00000000000E+00 -0.00000000000E+00 -0.11051942080E+04  0.11051949377E+04  0.12700000000E+01 0.  1.
         25    2    1    2    0    0  0.00000000000E+00  0.00000000000E+00 -0.11017747635E+04  0.11088426083E+04  0.12499720139E+03 0.  0.
    9000005    1    3    3    0    0 -0.48103008759E+02 -0.30464683751E+01 -0.90371160758E+03  0.90499660226E+03  0.10000000000E+01 0.  0.
    9000005    1    3    3    0    0  0.48103008759E+02  0.30464683751E+01 -0.19806315595E+03  0.20384600601E+03  0.10000000000E+01 0.  0.
<mgrwt>
<rscale>  0 0.12499720E+03</rscale>
<asrwt>0</asrwt>
<pdfrwt beam="2">  1        4 0.27632599E+00 0.12499720E+03</pdfrwt>
<pdfrwt beam="1">  1       -4 0.88348438E-03 0.12499720E+03</pdfrwt>
<totfact> 0.30262702E+02</totfact>
</mgrwt>
</event>
<event>
 5    1  0.1433395E-002  0.1249973E+03  0.7818608E-02  0.1235073E+00
         -4   -1    0    0    0  501 -0.00000000000E+00  0.00000000000E+00  0.24558289074E+03  0.24558617454E+03  0.12700000000E+01 0.  1.
          4   -1    0    0  501    0  0.00000000000E+00 -0.00000000000E+00 -0.15876608644E+02  0.15927322501E+02  0.12700000000E+01 0.  1.
         25    2    1    2    0    0  0.00000000000E+00  0.00000000000E+00  0.22970628210E+03  0.26151349704E+03  0.12499733237E+03 0.  0.
    9000005    1    3    3    0    0 -0.58214948050E+02  0.41900662605E+01  0.68139235888E+02  0.89724535659E+02  0.10000000000E+01 0.  0.
    9000005    1    3    3    0    0  0.58214948050E+02 -0.41900662605E+01  0.16156704621E+03  0.17178896138E+03  0.10000000000E+01 0.  0.
<mgrwt>
<rscale>  0 0.12499733E+03</rscale>
<asrwt>0</asrwt>
<pdfrwt beam="2">  1        4 0.39759018E-02 0.12499733E+03</pdfrwt>
<pdfrwt beam="1">  1       -4 0.61402473E-01 0.12499733E+03</pdfrwt>
<totfact> 0.14123545E+03</totfact>
</mgrwt>
</event>
<event>
 5    1  0.1433395E-002  0.1249984E+03  0.7818608E-02  0.1235072E+00
          4   -1    0    0  501    0  0.00000000000E+00  0.00000000000E+00  0.17255480083E+02  0.17302152840E+02  0.12700000000E+01 0. -1.
         -4   -1    0    0    0  501 -0.00000000000E+00 -0.00000000000E+00 -0.22601730122E+03  0.22602086928E+03  0.12700000000E+01 0. -1.
         25    2    1    2    0    0  0.00000000000E+00  0.00000000000E+00 -0.20876182114E+03  0.24332302212E+03  0.12499838051E+03 0.  0.
    9000005    1    3    3    0    0 -0.58220663138E+02  0.22439858740E+02 -0.97650058263E+02  0.11588669792E+03  0.10000000000E+01 0.  0.
    9000005    1    3    3    0    0  0.58220663138E+02 -0.22439858740E+02 -0.11111176288E+03  0.12743632420E+03  0.10000000000E+01 0.  0.
<mgrwt>
<rscale>  0 0.12499838E+03</rscale>
<asrwt>0</asrwt>
<pdfrwt beam="1">  1        4 0.43201508E-02 0.12499838E+03</pdfrwt>
<pdfrwt beam="2">  1       -4 0.56510596E-01 0.12499838E+03</pdfrwt>
<totfact> 0.14723202E+03</totfact>
</mgrwt>
</event>
<event>
 5    1  0.1433395E-002  0.1249909E+03  0.7818608E-02  0.1235083E+00
         -4   -1    0    0    0  501 -0.00000000000E+00  0.00000000000E+00  0.25206849255E+02  0.25238822265E+02  0.12700000000E+01 0.  1.
          4   -1    0    0  501    0  0.00000000000E+00 -0.00000000000E+00 -0.15481250569E+03  0.15481771481E+03  0.12700000000E+01 0.  1.
         25    2    1    2    0    0  0.00000000000E+00  0.00000000000E+00 -0.12960565643E+03  0.18005653707E+03  0.12499092112E+03 0.  0.
    9000005    1    3    3    0    0 -0.24311340783E+02 -0.30470041651E+02 -0.13515774460E+03  0.14067011286E+03  0.10000000000E+01 0.  0.
    9000005    1    3    3    0    0  0.24311340783E+02  0.30470041651E+02  0.55520881614E+01  0.39386424208E+02  0.10000000000E+01 0.  0.
<mgrwt>
<rscale>  0 0.12499092E+03</rscale>
<asrwt>0</asrwt>
<pdfrwt beam="2">  1        4 0.38707771E-01 0.12499092E+03</pdfrwt>
<pdfrwt beam="1">  1       -4 0.63063605E-02 0.12499092E+03</pdfrwt>
<totfact> 0.17156378E+03</totfact>
</mgrwt>
</event>
<event>
 5    1  0.1433395E-002  0.1250026E+03  0.7818608E-02  0.1235065E+00
          4   -1    0    0  501    0  0.00000000000E+00  0.00000000000E+00  0.45323897512E+02  0.45341687062E+02  0.12700000000E+01 0.  1.
         -4   -1    0    0    0  501 -0.00000000000E+00 -0.00000000000E+00 -0.86149364467E+02  0.86158725026E+02  0.12700000000E+01 0.  1.
         25    2    1    2    0    0  0.00000000000E+00  0.00000000000E+00 -0.40825466955E+02  0.13150041209E+03  0.12500255848E+03 0.  0.
    9000005    1    3    3    0    0  0.49040079460E+02 -0.38485932244E+02 -0.25035895046E+02  0.67185507476E+02  0.10000000000E+01 0.  0.
    9000005    1    3    3    0    0 -0.49040079460E+02  0.38485932244E+02 -0.15789571909E+02  0.64314904612E+02  0.10000000000E+01 0.  0.
<mgrwt>
<rscale>  0 0.12500256E+03</rscale>
<asrwt>0</asrwt>
<pdfrwt beam="1">  1        4 0.11334368E-01 0.12500256E+03</pdfrwt>
<pdfrwt beam="2">  1       -4 0.21540735E-01 0.12500256E+03</pdfrwt>
<totfact> 0.19482893E+03</totfact>
</mgrwt>
</event>
<event>
 5    1  0.1433395E-002  0.1250005E+03  0.7818608E-02  0.1235069E+00
         -4   -1    0    0    0  501 -0.00000000000E+00  0.00000000000E+00  0.63410250501E+02  0.63422967201E+02  0.12700000000E+01 0. -1.
          4   -1    0    0  501    0  0.00000000000E+00 -0.00000000000E+00 -0.61577829338E+02  0.61590924380E+02  0.12700000000E+01 0. -1.
         25    2    1    2    0    0  0.00000000000E+00  0.00000000000E+00  0.18324211632E+01  0.12501389158E+03  0.12500046128E+03 0.  0.
    9000005    1    3    3    0    0  0.11600442027E+02 -0.56065891149E+02  0.25965346972E+02  0.62874109528E+02  0.10000000000E+01 0.  0.
    9000005    1    3    3    0    0 -0.11600442027E+02  0.56065891149E+02 -0.24132925808E+02  0.62139782053E+02  0.10000000000E+01 0.  0.
<mgrwt>
<rscale>  0 0.12500046E+03</rscale>
<asrwt>0</asrwt>
<pdfrwt beam="2">  1        4 0.15397684E-01 0.12500046E+03</pdfrwt>
<pdfrwt beam="1">  1       -4 0.15855789E-01 0.12500046E+03</pdfrwt>
<totfact> 0.19834088E+03</totfact>
</mgrwt>
</event>
<event>
 5    1  0.1433395E-002  0.1249999E+03  0.7818608E-02  0.1235069E+00
          4   -1    0    0  501    0  0.00000000000E+00  0.00000000000E+00  0.22569599229E+03  0.22569956543E+03  0.12700000000E+01 0. -1.
         -4   -1    0    0    0  501 -0.00000000000E+00 -0.00000000000E+00 -0.17280529932E+02  0.17327135214E+02  0.12700000000E+01 0. -1.
         25    2    1    2    0    0  0.00000000000E+00  0.00000000000E+00  0.20841546236E+03  0.24302670065E+03  0.12499988911E+03 0.  0.
    9000005    1    3    3    0    0  0.54248631889E+02 -0.58646862959E+01  0.16343245105E+03  0.17230343776E+03  0.10000000000E+01 0.  0.
    9000005    1    3    3    0    0 -0.54248631889E+02  0.58646862959E+01  0.44983011313E+02  0.70723262891E+02  0.10000000000E+01 0.  0.
<mgrwt>
<rscale>  0 0.12499989E+03</rscale>
<asrwt>0</asrwt>
<pdfrwt beam="1">  1        4 0.56430270E-01 0.12499989E+03</pdfrwt>
<pdfrwt beam="2">  1       -4 0.43264048E-02 0.12499989E+03</pdfrwt>
<totfact> 0.14732782E+03</totfact>
</mgrwt>
</event>
<event>
 5    1  0.1433395E-002  0.1250032E+03  0.7818608E-02  0.1235064E+00
         -4   -1    0    0    0  501 -0.00000000000E+00  0.00000000000E+00  0.89521894889E+02  0.89530902846E+02  0.12700000000E+01 0.  1.
          4   -1    0    0  501    0  0.00000000000E+00 -0.00000000000E+00 -0.43616384188E+02  0.43634869882E+02  0.12700000000E+01 0.  1.
         25    2    1    2    0    0  0.00000000000E+00  0.00000000000E+00  0.45905510701E+02  0.13316577273E+03  0.12500322841E+03 0.  0.
    9000005    1    3    3    0    0  0.31680487809E+02  0.11052651505E+02  0.79117715430E+02  0.85944326794E+02  0.10000000000E+01 0.  0.
    9000005    1    3    3    0    0 -0.31680487809E+02 -0.11052651505E+02 -0.33212204729E+02  0.47221445934E+02  0.10000000000E+01 0.  0.
<mgrwt>
<rscale>  0 0.12500323E+03</rscale>
<asrwt>0</asrwt>
<pdfrwt beam="2">  1        4 0.10907533E-01 0.12500323E+03</pdfrwt>
<pdfrwt beam="1">  1       -4 0.22383910E-01 0.12500323E+03</pdfrwt>
<totfact> 0.19394187E+03</totfact>
</mgrwt>
</event>
<event>
 5    1  0.1433395E-002  0.1249977E+03  0.7818608E-02  0.1235073E+00
          4   -1    0    0  501    0  0.00000000000E+00  0.00000000000E+00  0.10746221625E+03  0.10746972049E+03  0.12700000000E+01 0.  1.
         -4   -1    0    0    0  501 -0.00000000000E+00 -0.00000000000E+00 -0.36328804202E+02  0.36350996063E+02  0.12700000000E+01 0.  1.
         25    2    1    2    0    0  0.00000000000E+00  0.00000000000E+00  0.71133412048E+02  0.14382071655E+03  0.12499774478E+03 0.  0.
    9000005    1    3    3    0    0 -0.34489878865E+02 -0.52110785221E+02  0.35742596497E+02  0.71997353318E+02  0.10000000000E+01 0.  0.
    9000005    1    3    3    0    0  0.34489878865E+02  0.52110785221E+02  0.35390815551E+02  0.71823363231E+02  0.10000000000E+01 0.  0.
<mgrwt>
<rscale>  0 0.12499774E+03</rscale>
<asrwt>0</asrwt>
<pdfrwt beam="1">  1        4 0.26869266E-01 0.12499774E+03</pdfrwt>
<pdfrwt beam="2">  1       -4 0.90859132E-02 0.12499774E+03</pdfrwt>
<totfact> 0.18847547E+03</totfact>
</mgrwt>
</event>
<event>
 5    1  0.1433395E-002  0.1249985E+03  0.7818608E-02  0.1235072E+00
         -4   -1    0    0    0  501 -0.00000000000E+00  0.00000000000E+00  0.36975572290E+03  0.36975790393E+03  0.12700000000E+01 0. -1.
          4   -1    0    0  501    0  0.00000000000E+00 -0.00000000000E+00 -0.10523760535E+02  0.10600114896E+02  0.12700000000E+01 0. -1.
         25    2    1    2    0    0  0.00000000000E+00  0.00000000000E+00  0.35923196237E+03  0.38035801883E+03  0.12499847879E+03 0.  0.
    9000005    1    3    3    0    0 -0.54499717993E+02  0.87476495861E+00  0.86612134505E+02  0.10234083407E+03  0.10000000000E+01 0.  0.
    9000005    1    3    3    0    0  0.54499717993E+02 -0.87476495861E+00  0.27261982786E+03  0.27801718476E+03  0.10000000000E+01 0.  0.
<mgrwt>
<rscale>  0 0.12499848E+03</rscale>
<asrwt>0</asrwt>
<pdfrwt beam="2">  1        4 0.26407570E-02 0.12499848E+03</pdfrwt>
<pdfrwt beam="1">  1       -4 0.92448751E-01 0.12499848E+03</pdfrwt>
<totfact> 0.10985683E+03</totfact>
</mgrwt>
</event>
<event>
 5    1  0.1433395E-002  0.1250028E+03  0.7818608E-02  0.1235065E+00
          4   -1    0    0  501    0  0.00000000000E+00  0.00000000000E+00  0.33761533274E+03  0.33761772139E+03  0.12700000000E+01 0.  1.
         -4   -1    0    0    0  501 -0.00000000000E+00 -0.00000000000E+00 -0.11533354394E+02  0.11603066990E+02  0.12700000000E+01 0.  1.
         25    2    1    2    0    0  0.00000000000E+00  0.00000000000E+00  0.32608197834E+03  0.34922078838E+03  0.12500280972E+03 0.  0.
    9000005    1    3    3    0    0  0.97373005044E+01  0.10352215737E+02  0.33305436860E+03  0.33335895943E+03  0.10000000000E+01 0.  0.
    9000005    1    3    3    0    0 -0.97373005044E+01 -0.10352215737E+02 -0.69723902551E+01  0.15861828950E+02  0.10000000000E+01 0.  0.
<mgrwt>
<rscale>  0 0.12500281E+03</rscale>
<asrwt>0</asrwt>
<pdfrwt beam="1">  1        4 0.84412852E-01 0.12500281E+03</pdfrwt>
<pdfrwt beam="2">  1       -4 0.28923510E-02 0.12500281E+03</pdfrwt>
<totfact> 0.11695176E+03</totfact>
</mgrwt>
</event>
<event>
 5    1  0.1433395E-002  0.1250004E+03  0.7818608E-02  0.1235069E+00
         -4   -1    0    0    0  501 -0.00000000000E+00  0.00000000000E+00  0.17752236879E+03  0.17752691154E+03  0.12700000000E+01 0.  1.
          4   -1    0    0  501    0  0.00000000000E+00 -0.00000000000E+00 -0.21981259481E+02  0.22017916986E+02  0.12700000000E+01 0.  1.
         25    2    1    2    0    0  0.00000000000E+00  0.00000000000E+00  0.15554110930E+03  0.19954482852E+03  0.12500040762E+03 0.  0.
    9000005    1    3    3    0    0 -0.18477551810E+02 -0.18338962238E+02  0.16846166751E+03  0.17046428036E+03  0.10000000000E+01 0.  0.
    9000005    1    3    3    0    0  0.18477551810E+02  0.18338962238E+02 -0.12920558211E+02  0.29080548161E+02  0.10000000000E+01 0.  0.
<mgrwt>
<rscale>  0 0.12500041E+03</rscale>
<asrwt>0</asrwt>
<pdfrwt beam="2">  1        4 0.55004650E-02 0.12500041E+03</pdfrwt>
<pdfrwt beam="1">  1       -4 0.44385741E-01 0.12500041E+03</pdfrwt>
<totfact> 0.16340129E+03</totfact>
</mgrwt>
</event>
<event>
 5    1  0.1433395E-002  0.1249996E+03  0.7818608E-02  0.1235070E+00
          4   -1    0    0  501    0  0.00000000000E+00  0.00000000000E+00  0.94422580121E+02  0.94431120595E+02  0.12700000000E+01 0.  1.
         -4   -1    0    0    0  501 -0.00000000000E+00 -0.00000000000E+00 -0.41349449838E+02  0.41368948523E+02  0.12700000000E+01 0.  1.
         25    2    1    2    0    0  0.00000000000E+00  0.00000000000E+00  0.53073130283E+02  0.13580006912E+03  0.12499960646E+03 0.  0.
    9000005    1    3    3    0    0 -0.31517521323E+02 -0.16398323051E+02 -0.29315232303E+02  0.46072139024E+02  0.10000000000E+01 0.  0.
    9000005    1    3    3    0    0  0.31517521323E+02  0.16398323051E+02  0.82388362586E+02  0.89727930094E+02  0.10000000000E+01 0.  0.
<mgrwt>
<rscale>  0 0.12499961E+03</rscale>
<asrwt>0</asrwt>
<pdfrwt beam="1">  1        4 0.23609150E-01 0.12499961E+03</pdfrwt>
<pdfrwt beam="2">  1       -4 0.10340867E-01 0.12499961E+03</pdfrwt>
<totfact> 0.19257489E+03</totfact>
</mgrwt>
</event>
<event>
 5    1  0.1433395E-002  0.1250070E+03  0.7818608E-02  0.1235058E+00
          4   -1    0    0  501    0  0.00000000000E+00  0.00000000000E+00  0.14299289361E+04  0.14299295001E+04  0.12700000000E+01 0.  1.
         -4   -1    0    0    0  501 -0.00000000000E+00 -0.00000000000E+00 -0.25839001581E+01  0.28791387648E+01  0.12700000000E+01 0.  1.
         25    2    1    2    0    0  0.00000000000E+00  0.00000000000E+00  0.14273450359E+04  0.14328086388E+04  0.12500697547E+03 0.  0.
    9000005    1    3    3    0    0 -0.54190987466E+02 -0.24048745318E+02  0.94022296595E+03  0.94209088254E+03  0.10000000000E+01 0.  0.
    9000005    1    3    3    0    0  0.54190987466E+02  0.24048745318E+02  0.48712206998E+03  0.49071775628E+03  0.10000000000E+01 0.  0.
<mgrwt>
<rscale>  0 0.12500698E+03</rscale>
<asrwt>0</asrwt>
<pdfrwt beam="1">  1        4 0.35751893E+00 0.12500698E+03</pdfrwt>
<pdfrwt beam="2">  1       -4 0.68295089E-03 0.12500698E+03</pdfrwt>
<totfact> 0.14838058E+02</totfact>
</mgrwt>
</event>
<event>
 5    1  0.1433395E-002  0.1250069E+03  0.7818608E-02  0.1235059E+00
         -4   -1    0    0    0  501 -0.00000000000E+00  0.00000000000E+00  0.32692191659E+03  0.32692438338E+03  0.12700000000E+01 0.  1.
          4   -1    0    0  501    0  0.00000000000E+00 -0.00000000000E+00 -0.11913623510E+02  0.11981123701E+02  0.12700000000E+01 0.  1.
         25    2    1    2    0    0  0.00000000000E+00  0.00000000000E+00  0.31500829308E+03  0.33890550708E+03  0.12500687189E+03 0.  0.
    9000005    1    3    3    0    0 -0.53970446901E+01  0.18070329986E+02  0.31903660656E+03  0.31959508951E+03  0.10000000000E+01 0.  0.
    9000005    1    3    3    0    0  0.53970446901E+01 -0.18070329986E+02 -0.40283134753E+01  0.19310417568E+02  0.10000000000E+01 0.  0.
<mgrwt>
<rscale>  0 0.12500687E+03</rscale>
<asrwt>0</asrwt>
<pdfrwt beam="2">  1        4 0.29871517E-02 0.12500687E+03</pdfrwt>
<pdfrwt beam="1">  1       -4 0.81739225E-01 0.12500687E+03</pdfrwt>
<totfact> 0.11944820E+03</totfact>
</mgrwt>
</event>
<event>
 5    1  0.1433395E-002  0.1249996E+03  0.7818608E-02  0.1235070E+00
         -4   -1    0    0    0  501 -0.00000000000E+00  0.00000000000E+00  0.24612668814E+02  0.24645412680E+02  0.12700000000E+01 0. -1.
          4   -1    0    0  501    0  0.00000000000E+00 -0.00000000000E+00 -0.15856721726E+03  0.15857230303E+03  0.12700000000E+01 0. -1.
         25    2    1    2    0    0  0.00000000000E+00  0.00000000000E+00 -0.13395454844E+03  0.18321771571E+03  0.12499964121E+03 0.  0.
    9000005    1    3    3    0    0 -0.98534913066E+01 -0.59663820365E+02 -0.90076836005E+02  0.10849746143E+03  0.10000000000E+01 0.  0.
    9000005    1    3    3    0    0  0.98534913066E+01  0.59663820365E+02 -0.43877712438E+02  0.74720254284E+02  0.10000000000E+01 0.  0.
<mgrwt>
<rscale>  0 0.12499964E+03</rscale>
<asrwt>0</asrwt>
<pdfrwt beam="2">  1        4 0.39646530E-01 0.12499964E+03</pdfrwt>
<pdfrwt beam="1">  1       -4 0.61578964E-02 0.12499964E+03</pdfrwt>
<totfact> 0.17016961E+03</totfact>
</mgrwt>
</event>
<event>
 5    1  0.1433395E-002  0.1250035E+03  0.7818608E-02  0.1235064E+00
          4   -1    0    0  501    0  0.00000000000E+00  0.00000000000E+00  0.33458726289E+03  0.33458967316E+03  0.12700000000E+01 0. -1.
         -4   -1    0    0    0  501 -0.00000000000E+00 -0.00000000000E+00 -0.11638492317E+02  0.11707578888E+02  0.12700000000E+01 0. -1.
         25    2    1    2    0    0  0.00000000000E+00  0.00000000000E+00  0.32294877057E+03  0.34629725205E+03  0.12500351341E+03 0.  0.
    9000005    1    3    3    0    0  0.31869203221E+02 -0.53557696910E+02  0.17428880644E+03  0.18509905744E+03  0.10000000000E+01 0.  0.
    9000005    1    3    3    0    0 -0.31869203221E+02  0.53557696910E+02  0.14865996413E+03  0.16119819461E+03  0.10000000000E+01 0.  0.
<mgrwt>
<rscale>  0 0.12500351E+03</rscale>
<asrwt>0</asrwt>
<pdfrwt beam="1">  1        4 0.83655755E-01 0.12500351E+03</pdfrwt>
<pdfrwt beam="2">  1       -4 0.29185601E-02 0.12500351E+03</pdfrwt>
<totfact> 0.11765190E+03</totfact>
</mgrwt>
</event>
<event>
 5    1  0.1433395E-002  0.1249994E+03  0.7818608E-02  0.1235070E+00
         -4   -1    0    0    0  501 -0.00000000000E+00  0.00000000000E+00  0.25427153854E+02  0.25458850192E+02  0.12700000000E+01 0.  1.
          4   -1    0    0  501    0  0.00000000000E+00 -0.00000000000E+00 -0.15349371604E+03  0.15349896991E+03  0.12700000000E+01 0.  1.
         25    2    1    2    0    0  0.00000000000E+00  0.00000000000E+00 -0.12806656219E+03  0.17895782010E+03  0.12499942810E+03 0.  0.
    9000005    1    3    3    0    0  0.57088438967E+02 -0.22913407923E+02 -0.79788156024E+02  0.10075348117E+03  0.10000000000E+01 0.  0.
    9000005    1    3    3    0    0 -0.57088438967E+02  0.22913407923E+02 -0.48278406163E+02  0.78204338934E+02  0.10000000000E+01 0.  0.
<mgrwt>
<rscale>  0 0.12499943E+03</rscale>
<asrwt>0</asrwt>
<pdfrwt beam="2">  1        4 0.38378045E-01 0.12499943E+03</pdfrwt>
<pdfrwt beam="1">  1       -4 0.63614077E-02 0.12499943E+03</pdfrwt>
<totfact> 0.17200647E+03</totfact>
</mgrwt>
</event>
<event>
 5    1  0.1433395E-002  0.1249985E+03  0.7818608E-02  0.1235072E+00
          4   -1    0    0  501    0  0.00000000000E+00  0.00000000000E+00  0.38770881484E+02  0.38791676311E+02  0.12700000000E+01 0. -1.
         -4   -1    0    0    0  501 -0.00000000000E+00 -0.00000000000E+00 -0.10069784885E+03  0.10070585714E+03  0.12700000000E+01 0. -1.
         25    2    1    2    0    0  0.00000000000E+00  0.00000000000E+00 -0.61926967365E+02  0.13949753345E+03  0.12499845020E+03 0.  0.
    9000005    1    3    3    0    0 -0.73343803495E+01 -0.26111602153E+02  0.31865539678E+02  0.41857156152E+02  0.10000000000E+01 0.  0.
    9000005    1    3    3    0    0  0.73343803495E+01  0.26111602153E+02 -0.93792507043E+02  0.97640377301E+02  0.10000000000E+01 0.  0.
<mgrwt>
<rscale>  0 0.12499845E+03</rscale>
<asrwt>0</asrwt>
<pdfrwt beam="1">  1        4 0.96963210E-02 0.12499845E+03</pdfrwt>
<pdfrwt beam="2">  1       -4 0.25178062E-01 0.12499845E+03</pdfrwt>
<totfact> 0.19066766E+03</totfact>
</mgrwt>
</event>
<event>
 5    1  0.1433395E-002  0.1250111E+03  0.7818608E-02  0.1235052E+00
         -4   -1    0    0    0  501 -0.00000000000E+00  0.00000000000E+00  0.61177554639E+01  0.62481862901E+01  0.12700000000E+01 0.  1.
          4   -1    0    0  501    0  0.00000000000E+00 -0.00000000000E+00 -0.63175661503E+03  0.63175789155E+03  0.12700000000E+01 0.  1.
         25    2    1    2    0    0  0.00000000000E+00  0.00000000000E+00 -0.62563885957E+03  0.63800607784E+03  0.12501109055E+03 0.  0.
    9000005    1    3    3    0    0 -0.85879056073E+01  0.49909830783E+02 -0.49972533443E+03  0.50228592774E+03  0.10000000000E+01 0.  0.
    9000005    1    3    3    0    0  0.85879056073E+01 -0.49909830783E+02 -0.12591352513E+03  0.13572015010E+03  0.10000000000E+01 0.  0.
<mgrwt>
<rscale>  0 0.12501109E+03</rscale>
<asrwt>0</asrwt>
<pdfrwt beam="2">  1        4 0.15795540E+00 0.12501109E+03</pdfrwt>
<pdfrwt beam="1">  1       -4 0.15459044E-02 0.12501109E+03</pdfrwt>
<totfact> 0.68883053E+02</totfact>
</mgrwt>
</event>
<event>
 5    1  0.1433395E-002  0.1250004E+03  0.7818608E-02  0.1235069E+00
          4   -1    0    0  501    0  0.00000000000E+00  0.00000000000E+00  0.97860700249E+01  0.98681338931E+01  0.12700000000E+01 0.  1.
         -4   -1    0    0    0  501 -0.00000000000E+00 -0.00000000000E+00 -0.39741738594E+03  0.39741941516E+03  0.12700000000E+01 0.  1.
         25    2    1    2    0    0  0.00000000000E+00  0.00000000000E+00 -0.38763131591E+03  0.40728754905E+03  0.12500044215E+03 0.  0.
    9000005    1    3    3    0    0 -0.37116766406E+02 -0.10264139172E+02 -0.35417745909E+03  0.35626630409E+03  0.10000000000E+01 0.  0.
    9000005    1    3    3    0    0  0.37116766406E+02  0.10264139172E+02 -0.33453856825E+02  0.51021244966E+02  0.10000000000E+01 0.  0.
<mgrwt>
<rscale>  0 0.12500044E+03</rscale>
<asrwt>0</asrwt>
<pdfrwt beam="1">  1        4 0.24570305E-02 0.12500044E+03</pdfrwt>
<pdfrwt beam="2">  1       -4 0.99364804E-01 0.12500044E+03</pdfrwt>
<totfact> 0.10420511E+03</totfact>
</mgrwt>
</event>
<event>
 5    1  0.1433395E-002  0.1249998E+03  0.7818608E-02  0.1235070E+00
          4   -1    0    0  501    0  0.00000000000E+00  0.00000000000E+00  0.12732936838E+02  0.12796115838E+02  0.12700000000E+01 0. -1.
         -4   -1    0    0    0  501 -0.00000000000E+00 -0.00000000000E+00 -0.30595851037E+03  0.30596114617E+03  0.12700000000E+01 0. -1.
         25    2    1    2    0    0  0.00000000000E+00  0.00000000000E+00 -0.29322557353E+03  0.31875726201E+03  0.12499982045E+03 0.  0.
    9000005    1    3    3    0    0  0.21299417329E+02  0.49550269789E+02 -0.66120283727E+02  0.85333383473E+02  0.10000000000E+01 0.  0.
    9000005    1    3    3    0    0 -0.21299417329E+02 -0.49550269789E+02 -0.22710528980E+03  0.23342387854E+03  0.10000000000E+01 0.  0.
<mgrwt>
<rscale>  0 0.12499982E+03</rscale>
<asrwt>0</asrwt>
<pdfrwt beam="1">  1        4 0.31914621E-02 0.12499982E+03</pdfrwt>
<pdfrwt beam="2">  1       -4 0.76497831E-01 0.12499982E+03</pdfrwt>
<totfact> 0.12461221E+03</totfact>
</mgrwt>
</event>
<event>
 5    1  0.1433395E-002  0.1250007E+03  0.7818608E-02  0.1235068E+00
         -4   -1    0    0    0  501 -0.00000000000E+00  0.00000000000E+00  0.15157207598E+03  0.15157739646E+03  0.12700000000E+01 0. -1.
          4   -1    0    0  501    0  0.00000000000E+00 -0.00000000000E+00 -0.25750443795E+02  0.25781742681E+02  0.12700000000E+01 0. -1.
         25    2    1    2    0    0  0.00000000000E+00  0.00000000000E+00  0.12582163219E+03  0.17735913914E+03  0.12500072444E+03 0.  0.
    9000005    1    3    3    0    0  0.45253679311E+02 -0.37734105934E+02  0.92453785460E+02  0.10963786156E+03  0.10000000000E+01 0.  0.
    9000005    1    3    3    0    0 -0.45253679311E+02  0.37734105934E+02  0.33367846728E+02  0.67721277580E+02  0.10000000000E+01 0.  0.
<mgrwt>
<rscale>  0 0.12500072E+03</rscale>
<asrwt>0</asrwt>
<pdfrwt beam="2">  1        4 0.64421885E-02 0.12500072E+03</pdfrwt>
<pdfrwt beam="1">  1       -4 0.37897596E-01 0.12500072E+03</pdfrwt>
<totfact> 0.17269847E+03</totfact>
</mgrwt>
</event>
<event>
 5    1  0.1433395E-002  0.1249957E+03  0.7818608E-02  0.1235076E+00
          4   -1    0    0  501    0  0.00000000000E+00  0.00000000000E+00  0.21833118202E+03  0.21833487569E+03  0.12700000000E+01 0.  1.
         -4   -1    0    0    0  501 -0.00000000000E+00 -0.00000000000E+00 -0.17863772679E+02  0.17908860218E+02  0.12700000000E+01 0.  1.
         25    2    1    2    0    0  0.00000000000E+00  0.00000000000E+00  0.20046740934E+03  0.23624373591E+03  0.12499568212E+03 0.  0.
    9000005    1    3    3    0    0 -0.22135363098E+02 -0.58351131810E+02  0.10625548814E+03  0.12323172337E+03  0.10000000000E+01 0.  0.
    9000005    1    3    3    0    0  0.22135363098E+02  0.58351131810E+02  0.94211921200E+02  0.11301201254E+03  0.10000000000E+01 0.  0.
<mgrwt>
<rscale>  0 0.12499568E+03</rscale>
<asrwt>0</asrwt>
<pdfrwt beam="1">  1        4 0.54588893E-01 0.12499568E+03</pdfrwt>
<pdfrwt beam="2">  1       -4 0.44720408E-02 0.12499568E+03</pdfrwt>
<totfact> 0.14968235E+03</totfact>
</mgrwt>
</event>
<event>
 5    1  0.1433395E-002  0.1250001E+03  0.7818608E-02  0.1235069E+00
         -4   -1    0    0    0  501 -0.00000000000E+00  0.00000000000E+00  0.73875784545E+02  0.73886700035E+02  0.12700000000E+01 0.  1.
          4   -1    0    0  501    0  0.00000000000E+00 -0.00000000000E+00 -0.52853572174E+02  0.52868828165E+02  0.12700000000E+01 0.  1.
         25    2    1    2    0    0  0.00000000000E+00  0.00000000000E+00  0.21022212371E+02  0.12675552820E+03  0.12500012207E+03 0.  0.
    9000005    1    3    3    0    0 -0.21146552897E+02  0.49356104063E+02  0.42929672275E+02  0.68754334186E+02  0.10000000000E+01 0.  0.
    9000005    1    3    3    0    0  0.21146552897E+02 -0.49356104063E+02 -0.21907459904E+02  0.58001194015E+02  0.10000000000E+01 0.  0.
<mgrwt>
<rscale>  0 0.12500012E+03</rscale>
<asrwt>0</asrwt>
<pdfrwt beam="2">  1        4 0.13216665E-01 0.12500012E+03</pdfrwt>
<pdfrwt beam="1">  1       -4 0.18472217E-01 0.12500012E+03</pdfrwt>
<totfact> 0.19740091E+03</totfact>
</mgrwt>
</event>
<event>
 5    1  0.1433395E-002  0.1250010E+03  0.7818608E-02  0.1235068E+00
         -4   -1    0    0    0  501 -0.00000000000E+00  0.00000000000E+00  0.18183752355E+03  0.18184195850E+03  0.12700000000E+01 0.  1.
          4   -1    0    0  501    0  0.00000000000E+00 -0.00000000000E+00 -0.21458958697E+02  0.21496506887E+02  0.12700000000E+01 0.  1.
         25    2    1    2    0    0  0.00000000000E+00  0.00000000000E+00  0.16037856485E+03  0.20333846539E+03  0.12500098976E+03 0.  0.
    9000005    1    3    3    0    0  0.32155223098E+02 -0.53530696173E+02  0.84112975313E+02  0.10476395573E+03  0.10000000000E+01 0.  0.
    9000005    1    3    3    0    0 -0.32155223098E+02  0.53530696173E+02  0.76265589541E+02  0.98574509653E+02  0.10000000000E+01 0.  0.
<mgrwt>
<rscale>  0 0.12500099E+03</rscale>
<asrwt>0</asrwt>
<pdfrwt beam="2">  1        4 0.53699877E-02 0.12500099E+03</pdfrwt>
<pdfrwt beam="1">  1       -4 0.45464627E-01 0.12500099E+03</pdfrwt>
<totfact> 0.16188861E+03</totfact>
</mgrwt>
</event>
<event>
 5    1  0.1433395E-002  0.1250010E+03  0.7818608E-02  0.1235068E+00
          4   -1    0    0  501    0  0.00000000000E+00  0.00000000000E+00  0.24342292666E+02  0.24375399735E+02  0.12700000000E+01 0. -1.
         -4   -1    0    0    0  501 -0.00000000000E+00 -0.00000000000E+00 -0.16032974139E+03  0.16033477125E+03  0.12700000000E+01 0. -1.
         25    2    1    2    0    0  0.00000000000E+00  0.00000000000E+00 -0.13598744872E+03  0.18471017099E+03  0.12500104423E+03 0.  0.
    9000005    1    3    3    0    0  0.41412257498E+02  0.46717689652E+02 -0.63867436634E+02  0.89317227117E+02  0.10000000000E+01 0.  0.
    9000005    1    3    3    0    0 -0.41412257498E+02 -0.46717689652E+02 -0.72120012087E+02  0.95392943874E+02  0.10000000000E+01 0.  0.
<mgrwt>
<rscale>  0 0.12500104E+03</rscale>
<asrwt>0</asrwt>
<pdfrwt beam="1">  1        4 0.60903407E-02 0.12500104E+03</pdfrwt>
<pdfrwt beam="2">  1       -4 0.40087199E-01 0.12500104E+03</pdfrwt>
<totfact> 0.16952739E+03</totfact>
</mgrwt>
</event>
<event>
 5    1  0.1433395E-002  0.1250015E+03  0.7818608E-02  0.1235067E+00
         -4   -1    0    0    0  501 -0.00000000000E+00  0.00000000000E+00  0.58788724060E+03  0.58788861237E+03  0.12700000000E+01 0. -1.
          4   -1    0    0  501    0  0.00000000000E+00 -0.00000000000E+00 -0.65826375740E+01  0.67040299395E+01  0.12700000000E+01 0. -1.
         25    2    1    2    0    0  0.00000000000E+00  0.00000000000E+00  0.58130460303E+03  0.59459264231E+03  0.12500147517E+03 0.  0.
    9000005    1    3    3    0    0 -0.56108160062E+02  0.61769667383E+01  0.16310024720E+03  0.17259481794E+03  0.10000000000E+01 0.  0.
    9000005    1    3    3    0    0  0.56108160062E+02 -0.61769667383E+01  0.41820435583E+03  0.42199782438E+03  0.10000000000E+01 0.  0.
<mgrwt>
<rscale>  0 0.12500148E+03</rscale>
<asrwt>0</asrwt>
<pdfrwt beam="2">  1        4 0.16610053E-02 0.12500148E+03</pdfrwt>
<pdfrwt beam="1">  1       -4 0.14698712E+00 0.12500148E+03</pdfrwt>
<totfact> 0.74185022E+02</totfact>
</mgrwt>
</event>
<event>
 5    1  0.1433395E-002  0.1250034E+03  0.7818608E-02  0.1235064E+00
          4   -1    0    0  501    0  0.00000000000E+00  0.00000000000E+00  0.27311793275E+02  0.27341304868E+02  0.12700000000E+01 0.  1.
         -4   -1    0    0    0  501 -0.00000000000E+00 -0.00000000000E+00 -0.14292244215E+03  0.14292808461E+03  0.12700000000E+01 0.  1.
         25    2    1    2    0    0  0.00000000000E+00  0.00000000000E+00 -0.11561064887E+03  0.17026938948E+03  0.12500337139E+03 0.  0.
    9000005    1    3    3    0    0 -0.34106978856E+01  0.43243196457E+02 -0.11908330188E+03  0.12674162571E+03  0.10000000000E+01 0.  0.
    9000005    1    3    3    0    0  0.34106978856E+01 -0.43243196457E+02  0.34726530063E+01  0.43527763770E+02  0.10000000000E+01 0.  0.
<mgrwt>
<rscale>  0 0.12500337E+03</rscale>
<asrwt>0</asrwt>
<pdfrwt beam="1">  1        4 0.68323430E-02 0.12500337E+03</pdfrwt>
<pdfrwt beam="2">  1       -4 0.35735003E-01 0.12500337E+03</pdfrwt>
<totfact> 0.17583528E+03</totfact>
</mgrwt>
</event>
<event>
 5    1  0.1433395E-002  0.1250009E+03  0.7818608E-02  0.1235068E+00
          4   -1    0    0  501    0  0.00000000000E+00  0.00000000000E+00  0.11498928305E+03  0.11499629610E+03  0.12700000000E+01 0. -1.
         -4   -1    0    0    0  501 -0.00000000000E+00 -0.00000000000E+00 -0.33951116079E+02  0.33974861045E+02  0.12700000000E+01 0. -1.
         25    2    1    2    0    0  0.00000000000E+00  0.00000000000E+00  0.81038166975E+02  0.14897115715E+03  0.12500088462E+03 0.  0.
    9000005    1    3    3    0    0 -0.41100079506E+02  0.47073692058E+02  0.40047969282E+02  0.74229299222E+02  0.10000000000E+01 0.  0.
    9000005    1    3    3    0    0  0.41100079506E+02 -0.47073692058E+02  0.40990197693E+02  0.74741857926E+02  0.10000000000E+01 0.  0.
<mgrwt>
<rscale>  0 0.12500088E+03</rscale>
<asrwt>0</asrwt>
<pdfrwt beam="1">  1        4 0.28751165E-01 0.12500088E+03</pdfrwt>
<pdfrwt beam="2">  1       -4 0.84916239E-02 0.12500088E+03</pdfrwt>
<totfact> 0.18589102E+03</totfact>
</mgrwt>
</event>
<event>
 5    1  0.1433395E-002  0.1250029E+03  0.7818608E-02  0.1235065E+00
          4   -1    0    0  501    0  0.00000000000E+00  0.00000000000E+00  0.14439861264E+02  0.14495602552E+02  0.12700000000E+01 0. -1.
         -4   -1    0    0    0  501 -0.00000000000E+00 -0.00000000000E+00 -0.26995289695E+03  0.26995588431E+03  0.12700000000E+01 0. -1.
         25    2    1    2    0    0  0.00000000000E+00  0.00000000000E+00 -0.25551303569E+03  0.28445148686E+03  0.12500294785E+03 0.  0.
    9000005    1    3    3    0    0  0.19112300972E+02 -0.58838833196E+02 -0.14787249153E+03  0.16029523415E+03  0.10000000000E+01 0.  0.
    9000005    1    3    3    0    0 -0.19112300972E+02  0.58838833196E+02 -0.10764054416E+03  0.12415625272E+03  0.10000000000E+01 0.  0.
<mgrwt>
<rscale>  0 0.12500295E+03</rscale>
<asrwt>0</asrwt>
<pdfrwt beam="1">  1        4 0.36173073E-02 0.12500295E+03</pdfrwt>
<pdfrwt beam="2">  1       -4 0.67495549E-01 0.12500295E+03</pdfrwt>
<totfact> 0.13417394E+03</totfact>
</mgrwt>
</event>
<event>
 5    1  0.1433395E-002  0.1249950E+03  0.7818608E-02  0.1235077E+00
          4   -1    0    0  501    0  0.00000000000E+00  0.00000000000E+00  0.38776841531E+02  0.38797633164E+02  0.12700000000E+01 0.  1.
         -4   -1    0    0    0  501 -0.00000000000E+00 -0.00000000000E+00 -0.10067678391E+03  0.10068479388E+03  0.12700000000E+01 0.  1.
         25    2    1    2    0    0  0.00000000000E+00  0.00000000000E+00 -0.61899942376E+02  0.13948242704E+03  0.12499497825E+03 0.  0.
    9000005    1    3    3    0    0  0.29740642874E+02  0.29428538455E+01 -0.92190344021E+02  0.96918655366E+02  0.10000000000E+01 0.  0.
    9000005    1    3    3    0    0 -0.29740642874E+02 -0.29428538455E+01  0.30290401644E+02  0.42563771674E+02  0.10000000000E+01 0.  0.
<mgrwt>
<rscale>  0 0.12499498E+03</rscale>
<asrwt>0</asrwt>
<pdfrwt beam="1">  1        4 0.96978108E-02 0.12499498E+03</pdfrwt>
<pdfrwt beam="2">  1       -4 0.25172796E-01 0.12499498E+03</pdfrwt>
<totfact> 0.19069085E+03</totfact>
</mgrwt>
</event>
<event>
 5    1  0.1433395E-002  0.1250006E+03  0.7818608E-02  0.1235068E+00
         -4   -1    0    0    0  501 -0.00000000000E+00  0.00000000000E+00  0.23217908742E+02  0.23252616763E+02  0.12700000000E+01 0. -1.
          4   -1    0    0  501    0  0.00000000000E+00 -0.00000000000E+00 -0.16808186438E+03  0.16808666228E+03  0.12700000000E+01 0. -1.
         25    2    1    2    0    0  0.00000000000E+00  0.00000000000E+00 -0.14486395564E+03  0.19133927904E+03  0.12500061623E+03 0.  0.
    9000005    1    3    3    0    0  0.36134098377E+02  0.29968418357E+02 -0.92913131654E+01  0.47865516446E+02  0.10000000000E+01 0.  0.
    9000005    1    3    3    0    0 -0.36134098377E+02 -0.29968418357E+02 -0.13557264248E+03  0.14347376259E+03  0.10000000000E+01 0.  0.
<mgrwt>
<rscale>  0 0.12500062E+03</rscale>
<asrwt>0</asrwt>
<pdfrwt beam="2">  1        4 0.42025401E-01 0.12500062E+03</pdfrwt>
<pdfrwt beam="1">  1       -4 0.58094159E-02 0.12500062E+03</pdfrwt>
<totfact> 0.16674569E+03</totfact>
</mgrwt>
</event>
<event>
 5    1  0.1433395E-002  0.1250033E+03  0.7818608E-02  0.1235064E+00
          4   -1    0    0  501    0  0.00000000000E+00  0.00000000000E+00  0.53135628077E+01  0.54632270419E+01  0.12700000000E+01 0.  1.
         -4   -1    0    0    0  501 -0.00000000000E+00 -0.00000000000E+00 -0.72482600831E+03  0.72482712092E+03  0.12700000000E+01 0.  1.
         25    2    1    2    0    0  0.00000000000E+00  0.00000000000E+00 -0.71951244550E+03  0.73029034796E+03  0.12500333234E+03 0.  0.
    9000005    1    3    3    0    0 -0.58253082998E+02 -0.34212576686E+01 -0.49043435925E+03  0.49389471288E+03  0.10000000000E+01 0.  0.
    9000005    1    3    3    0    0  0.58253082998E+02  0.34212576686E+01 -0.22907808625E+03  0.23639563508E+03  0.10000000000E+01 0.  0.
<mgrwt>
<rscale>  0 0.12500333E+03</rscale>
<asrwt>0</asrwt>
<pdfrwt beam="1">  1        4 0.13472403E-02 0.12500333E+03</pdfrwt>
<pdfrwt beam="2">  1       -4 0.18122502E+00 0.12500333E+03</pdfrwt>
<totfact> 0.58981666E+02</totfact>
</mgrwt>
</event>
<event>
 5    1  0.1433395E-002  0.1249992E+03  0.7818608E-02  0.1235071E+00
          4   -1    0    0  501    0  0.00000000000E+00  0.00000000000E+00  0.17932891603E+02  0.17977805796E+02  0.12700000000E+01 0.  1.
         -4   -1    0    0    0  501 -0.00000000000E+00 -0.00000000000E+00 -0.21750402021E+03  0.21750772792E+03  0.12700000000E+01 0.  1.
         25    2    1    2    0    0  0.00000000000E+00  0.00000000000E+00 -0.19957112860E+03  0.23548553372E+03  0.12499920487E+03 0.  0.
    9000005    1    3    3    0    0  0.21018942275E+01  0.20457064907E+01  0.17812386027E+02  0.18079932808E+02  0.10000000000E+01 0.  0.
    9000005    1    3    3    0    0 -0.21018942275E+01 -0.20457064907E+01 -0.21738351463E+03  0.21740560091E+03  0.10000000000E+01 0.  0.
<mgrwt>
<rscale>  0 0.12499920E+03</rscale>
<asrwt>0</asrwt>
<pdfrwt beam="1">  1        4 0.44893013E-02 0.12499920E+03</pdfrwt>
<pdfrwt beam="2">  1       -4 0.54382075E-01 0.12499920E+03</pdfrwt>
<totfact> 0.14993538E+03</totfact>
</mgrwt>
</event>
<event>
 5    1  0.1433395E-002  0.1250017E+03  0.7818608E-02  0.1235067E+00
         -4   -1    0    0    0  501 -0.00000000000E+00  0.00000000000E+00  0.91809154617E+02  0.91817938179E+02  0.12700000000E+01 0.  1.
          4   -1    0    0  501    0  0.00000000000E+00 -0.00000000000E+00 -0.42528361222E+02  0.42547319636E+02  0.12700000000E+01 0.  1.
         25    2    1    2    0    0  0.00000000000E+00  0.00000000000E+00  0.49280793394E+02  0.13436525782E+03  0.12500170363E+03 0.  0.
    9000005    1    3    3    0    0  0.44193465402E+02 -0.34532697138E+02  0.54269394697E+02  0.78049578837E+02  0.10000000000E+01 0.  0.
    9000005    1    3    3    0    0 -0.44193465402E+02  0.34532697138E+02 -0.49886013024E+01  0.56315678978E+02  0.10000000000E+01 0.  0.
<mgrwt>
<rscale>  0 0.12500170E+03</rscale>
<asrwt>0</asrwt>
<pdfrwt beam="2">  1        4 0.10635558E-01 0.12500170E+03</pdfrwt>
<pdfrwt beam="1">  1       -4 0.22955756E-01 0.12500170E+03</pdfrwt>
<totfact> 0.19331667E+03</totfact>
</mgrwt>
</event>
<event>
 5    1  0.1433395E-002  0.1249985E+03  0.7818608E-02  0.1235072E+00
          4   -1    0    0  501    0  0.00000000000E+00  0.00000000000E+00  0.20316364943E+02  0.20356020841E+02  0.12700000000E+01 0.  1.
         -4   -1    0    0    0  501 -0.00000000000E+00 -0.00000000000E+00 -0.19203731613E+03  0.19204151553E+03  0.12700000000E+01 0.  1.
         25    2    1    2    0    0  0.00000000000E+00  0.00000000000E+00 -0.17172095119E+03  0.21239753637E+03  0.12499851351E+03 0.  0.
    9000005    1    3    3    0    0  0.34497446445E+02 -0.19063198937E+01  0.26195755419E+01  0.34663670359E+02  0.10000000000E+01 0.  0.
    9000005    1    3    3    0    0 -0.34497446445E+02  0.19063198937E+01 -0.17434052673E+03  0.17773386601E+03  0.10000000000E+01 0.  0.
<mgrwt>
<rscale>  0 0.12499851E+03</rscale>
<asrwt>0</asrwt>
<pdfrwt beam="1">  1        4 0.50845737E-02 0.12499851E+03</pdfrwt>
<pdfrwt beam="2">  1       -4 0.48014805E-01 0.12499851E+03</pdfrwt>
<totfact> 0.15837918E+03</totfact>
</mgrwt>
</event>
<event>
 5    1  0.1433395E-002  0.1249977E+03  0.7818608E-02  0.1235073E+00
          4   -1    0    0  501    0  0.00000000000E+00  0.00000000000E+00  0.42259977128E+02  0.42279055889E+02  0.12700000000E+01 0.  1.
         -4   -1    0    0    0  501 -0.00000000000E+00 -0.00000000000E+00 -0.92386063560E+02  0.92394792278E+02  0.12700000000E+01 0.  1.
         25    2    1    2    0    0  0.00000000000E+00  0.00000000000E+00 -0.50126086432E+02  0.13467384817E+03  0.12499768333E+03 0.  0.
    9000005    1    3    3    0    0 -0.26161829077E+02 -0.68494261219E+01  0.35634010818E+02  0.44745264172E+02  0.10000000000E+01 0.  0.
    9000005    1    3    3    0    0  0.26161829077E+02  0.68494261219E+01 -0.85760097250E+02  0.89928583995E+02  0.10000000000E+01 0.  0.
<mgrwt>
<rscale>  0 0.12499768E+03</rscale>
<asrwt>0</asrwt>
<pdfrwt beam="1">  1        4 0.10568470E-01 0.12499768E+03</pdfrwt>
<pdfrwt beam="2">  1       -4 0.23099992E-01 0.12499768E+03</pdfrwt>
<totfact> 0.19317278E+03</totfact>
</mgrwt>
</event>
<event>
 5    1  0.1433395E-002  0.1249962E+03  0.7818608E-02  0.1235075E+00
         -4   -1    0    0    0  501 -0.00000000000E+00  0.00000000000E+00  0.37292776637E+02  0.37314395202E+02  0.12700000000E+01 0. -1.
          4   -1    0    0  501    0  0.00000000000E+00 -0.00000000000E+00 -0.10468329631E+03  0.10469099974E+03  0.12700000000E+01 0. -1.
         25    2    1    2    0    0  0.00000000000E+00  0.00000000000E+00 -0.67390519677E+02  0.14200539494E+03  0.12499620015E+03 0.  0.
    9000005    1    3    3    0    0 -0.22262724951E+02  0.45912203217E+02 -0.74680011581E+02  0.90452548091E+02  0.10000000000E+01 0.  0.
    9000005    1    3    3    0    0  0.22262724951E+02 -0.45912203217E+02  0.72894919041E+01  0.51552846854E+02  0.10000000000E+01 0.  0.
<mgrwt>
<rscale>  0 0.12499620E+03</rscale>
<asrwt>0</asrwt>
<pdfrwt beam="2">  1        4 0.26174489E-01 0.12499620E+03</pdfrwt>
<pdfrwt beam="1">  1       -4 0.93268596E-02 0.12499620E+03</pdfrwt>
<totfact> 0.18939893E+03</totfact>
</mgrwt>
</event>
<event>
 5    1  0.1433395E-002  0.1250070E+03  0.7818608E-02  0.1235058E+00
         -4   -1    0    0    0  501 -0.00000000000E+00  0.00000000000E+00  0.27912819403E+02  0.27941696209E+02  0.12700000000E+01 0. -1.
          4   -1    0    0  501    0  0.00000000000E+00 -0.00000000000E+00 -0.13985617788E+03  0.13986194405E+03  0.12700000000E+01 0. -1.
         25    2    1    2    0    0  0.00000000000E+00  0.00000000000E+00 -0.11194335848E+03  0.16780364026E+03  0.12500698450E+03 0.  0.
    9000005    1    3    3    0    0 -0.52037987961E+01 -0.26924514311E+02  0.19411724384E+02  0.33612855224E+02  0.10000000000E+01 0.  0.
    9000005    1    3    3    0    0  0.52037987961E+01  0.26924514311E+02 -0.13135508286E+03  0.13419078503E+03  0.10000000000E+01 0.  0.
<mgrwt>
<rscale>  0 0.12500698E+03</rscale>
<asrwt>0</asrwt>
<pdfrwt beam="2">  1        4 0.34968373E-01 0.12500698E+03</pdfrwt>
<pdfrwt beam="1">  1       -4 0.69825356E-02 0.12500698E+03</pdfrwt>
<totfact> 0.17693700E+03</totfact>
</mgrwt>
</event>
<event>
 5    1  0.1433395E-002  0.1250031E+03  0.7818608E-02  0.1235064E+00
         -4   -1    0    0    0  501 -0.00000000000E+00  0.00000000000E+00  0.57366549732E+01  0.58755519129E+01  0.12700000000E+01 0. -1.
          4   -1    0    0  501    0  0.00000000000E+00 -0.00000000000E+00 -0.67267695954E+03  0.67267815840E+03  0.12700000000E+01 0. -1.
         25    2    1    2    0    0  0.00000000000E+00  0.00000000000E+00 -0.66694030456E+03  0.67855371031E+03  0.12500307169E+03 0.  0.
    9000005    1    3    3    0    0 -0.54602459254E+02  0.23377244171E+02 -0.22799933582E+03  0.23561116535E+03  0.10000000000E+01 0.  0.
    9000005    1    3    3    0    0  0.54602459254E+02 -0.23377244171E+02 -0.43894096874E+03  0.44294254497E+03  0.10000000000E+01 0.  0.
<mgrwt>
<rscale>  0 0.12500307E+03</rscale>
<asrwt>0</asrwt>
<pdfrwt beam="2">  1        4 0.16818649E+00 0.12500307E+03</pdfrwt>
<pdfrwt beam="1">  1       -4 0.14516780E-02 0.12500307E+03</pdfrwt>
<totfact> 0.64331856E+02</totfact>
</mgrwt>
</event>
<event>
 5    1  0.1433395E-002  0.1250016E+03  0.7818608E-02  0.1235067E+00
          4   -1    0    0  501    0  0.00000000000E+00  0.00000000000E+00  0.75336299606E+01  0.76399267263E+01  0.12700000000E+01 0. -1.
         -4   -1    0    0    0  501 -0.00000000000E+00 -0.00000000000E+00 -0.51478237849E+03  0.51478394507E+03  0.12700000000E+01 0. -1.
         25    2    1    2    0    0  0.00000000000E+00  0.00000000000E+00 -0.50724874853E+03  0.52242387179E+03  0.12500163575E+03 0.  0.
    9000005    1    3    3    0    0  0.45330320327E+02  0.29388692524E+02 -0.12233605796E+03  0.13373722095E+03  0.10000000000E+01 0.  0.
    9000005    1    3    3    0    0 -0.45330320327E+02 -0.29388692524E+02 -0.38491269056E+03  0.38868665085E+03  0.10000000000E+01 0.  0.
<mgrwt>
<rscale>  0 0.12500164E+03</rscale>
<asrwt>0</asrwt>
<pdfrwt beam="1">  1        4 0.18968922E-02 0.12500164E+03</pdfrwt>
<pdfrwt beam="2">  1       -4 0.12870896E+00 0.12500164E+03</pdfrwt>
<totfact> 0.84144157E+02</totfact>
</mgrwt>
</event>
<event>
 5    1  0.1433395E-002  0.1250038E+03  0.7818608E-02  0.1235063E+00
         -4   -1    0    0    0  501 -0.00000000000E+00  0.00000000000E+00  0.63770687437E+02  0.63783332275E+02  0.12700000000E+01 0.  1.
          4   -1    0    0  501    0  0.00000000000E+00 -0.00000000000E+00 -0.61233049216E+02  0.61246217975E+02  0.12700000000E+01 0.  1.
         25    2    1    2    0    0  0.00000000000E+00  0.00000000000E+00  0.25376382213E+01  0.12502955025E+03  0.12500379525E+03 0.  0.
    9000005    1    3    3    0    0  0.33670944669E+02  0.51368326789E+02 -0.10268274376E+02  0.62280614726E+02  0.10000000000E+01 0.  0.
    9000005    1    3    3    0    0 -0.33670944669E+02 -0.51368326789E+02  0.12805912598E+02  0.62748935524E+02  0.10000000000E+01 0.  0.
<mgrwt>
<rscale>  0 0.12500380E+03</rscale>
<asrwt>0</asrwt>
<pdfrwt beam="2">  1        4 0.15311489E-01 0.12500380E+03</pdfrwt>
<pdfrwt beam="1">  1       -4 0.15945899E-01 0.12500380E+03</pdfrwt>
<totfact> 0.19831692E+03</totfact>
</mgrwt>
</event>
<event>
 5    1  0.1433395E-002  0.1250011E+03  0.7818608E-02  0.1235068E+00
          4   -1    0    0  501    0  0.00000000000E+00  0.00000000000E+00  0.28902199241E+02  0.28930088506E+02  0.12700000000E+01 0. -1.
         -4   -1    0    0    0  501 -0.00000000000E+00 -0.00000000000E+00 -0.13506033500E+03  0.13506630591E+03  0.12700000000E+01 0. -1.
         25    2    1    2    0    0  0.00000000000E+00  0.00000000000E+00 -0.10615813576E+03  0.16399639441E+03  0.12500107036E+03 0.  0.
    9000005    1    3    3    0    0 -0.61651513400E+02 -0.97810500553E+01 -0.49200710821E+02  0.79487659356E+02  0.10000000000E+01 0.  0.
    9000005    1    3    3    0    0  0.61651513400E+02  0.97810500553E+01 -0.56957424942E+02  0.84508735055E+02  0.10000000000E+01 0.  0.
<mgrwt>
<rscale>  0 0.12500107E+03</rscale>
<asrwt>0</asrwt>
<pdfrwt beam="1">  1        4 0.72297827E-02 0.12500107E+03</pdfrwt>
<pdfrwt beam="2">  1       -4 0.33769315E-01 0.12500107E+03</pdfrwt>
<totfact> 0.17870840E+03</totfact>
</mgrwt>
</event>
<event>
 5    1  0.1433395E-002  0.1250002E+03  0.7818608E-02  0.1235069E+00
          4   -1    0    0  501    0  0.00000000000E+00  0.00000000000E+00  0.42555677478E+02  0.42574623728E+02  0.12700000000E+01 0. -1.
         -4   -1    0    0    0  501 -0.00000000000E+00 -0.00000000000E+00 -0.91748085220E+02  0.91756874629E+02  0.12700000000E+01 0. -1.
         25    2    1    2    0    0  0.00000000000E+00  0.00000000000E+00 -0.49192407743E+02  0.13433149836E+03  0.12500023388E+03 0.  0.
    9000005    1    3    3    0    0 -0.30120479528E+02 -0.54199150956E+02 -0.32953178938E+02  0.70226086702E+02  0.10000000000E+01 0.  0.
    9000005    1    3    3    0    0  0.30120479528E+02  0.54199150956E+02 -0.16239228805E+02  0.64105411655E+02  0.10000000000E+01 0.  0.
<mgrwt>
<rscale>  0 0.12500023E+03</rscale>
<asrwt>0</asrwt>
<pdfrwt beam="1">  1        4 0.10642386E-01 0.12500023E+03</pdfrwt>
<pdfrwt beam="2">  1       -4 0.22940488E-01 0.12500023E+03</pdfrwt>
<totfact> 0.19334104E+03</totfact>
</mgrwt>
</event>
<event>
 5    1  0.1433395E-002  0.1250034E+03  0.7818608E-02  0.1235064E+00
         -4   -1    0    0    0  501 -0.00000000000E+00  0.00000000000E+00  0.14579328838E+02  0.14634538919E+02  0.12700000000E+01 0. -1.
          4   -1    0    0  501    0  0.00000000000E+00 -0.00000000000E+00 -0.26738238678E+03  0.26738540286E+03  0.12700000000E+01 0. -1.
         25    2    1    2    0    0  0.00000000000E+00  0.00000000000E+00 -0.25280305794E+03  0.28201994178E+03  0.12500344577E+03 0.  0.
    9000005    1    3    3    0    0  0.25717940339E+01  0.44565871906E+02 -0.22507153549E+03  0.22945789843E+03  0.10000000000E+01 0.  0.
    9000005    1    3    3    0    0 -0.25717940339E+01 -0.44565871906E+02 -0.27731522456E+02  0.52562043349E+02  0.10000000000E+01 0.  0.
<mgrwt>
<rscale>  0 0.12500345E+03</rscale>
<asrwt>0</asrwt>
<pdfrwt beam="2">  1        4 0.66852859E-01 0.12500345E+03</pdfrwt>
<pdfrwt beam="1">  1       -4 0.36521113E-02 0.12500345E+03</pdfrwt>
<totfact> 0.13489311E+03</totfact>
</mgrwt>
</event>
<event>
 5    1  0.1433395E-002  0.1249911E+03  0.7818608E-02  0.1235083E+00
         -4   -1    0    0    0  501 -0.00000000000E+00  0.00000000000E+00  0.56454519402E+02  0.56468802545E+02  0.12700000000E+01 0.  1.
          4   -1    0    0  501    0  0.00000000000E+00 -0.00000000000E+00 -0.69154168929E+02  0.69165829571E+02  0.12700000000E+01 0.  1.
         25    2    1    2    0    0  0.00000000000E+00  0.00000000000E+00 -0.12699649527E+02  0.12563463212E+03  0.12499111844E+03 0.  0.
    9000005    1    3    3    0    0  0.43385769855E+02 -0.17158154724E+02  0.35433021271E+02  0.58593739391E+02  0.10000000000E+01 0.  0.
    9000005    1    3    3    0    0 -0.43385769855E+02  0.17158154724E+02 -0.48132670798E+02  0.67040892726E+02  0.10000000000E+01 0.  0.
<mgrwt>
<rscale>  0 0.12499112E+03</rscale>
<asrwt>0</asrwt>
<pdfrwt beam="2">  1        4 0.17291785E-01 0.12499112E+03</pdfrwt>
<pdfrwt beam="1">  1       -4 0.14116873E-01 0.12499112E+03</pdfrwt>
<totfact> 0.19804792E+03</totfact>
</mgrwt>
</event>
<event>
 5    1  0.1433395E-002  0.1249962E+03  0.7818608E-02  0.1235075E+00
          4   -1    0    0  501    0  0.00000000000E+00  0.00000000000E+00  0.21599541229E+02  0.21636845456E+02  0.12700000000E+01 0.  1.
         -4   -1    0    0    0  501 -0.00000000000E+00 -0.00000000000E+00 -0.18064209510E+03  0.18064655940E+03  0.12700000000E+01 0.  1.
         25    2    1    2    0    0  0.00000000000E+00  0.00000000000E+00 -0.15904255387E+03  0.20228340486E+03  0.12499616769E+03 0.  0.
    9000005    1    3    3    0    0  0.41127919708E+02  0.27995563390E+02 -0.18329356122E+02  0.53030393595E+02  0.10000000000E+01 0.  0.
    9000005    1    3    3    0    0 -0.41127919708E+02 -0.27995563390E+02 -0.14071319775E+03  0.14925301126E+03  0.10000000000E+01 0.  0.
<mgrwt>
<rscale>  0 0.12499617E+03</rscale>
<asrwt>0</asrwt>
<pdfrwt beam="1">  1        4 0.54051069E-02 0.12499617E+03</pdfrwt>
<pdfrwt beam="2">  1       -4 0.45165740E-01 0.12499617E+03</pdfrwt>
<totfact> 0.16232455E+03</totfact>
</mgrwt>
</event>
<event>
 5    1  0.1433395E-002  0.1250010E+03  0.7818608E-02  0.1235068E+00
          4   -1    0    0  501    0  0.00000000000E+00  0.00000000000E+00  0.38800179898E+02  0.38820959031E+02  0.12700000000E+01 0.  1.
         -4   -1    0    0    0  501 -0.00000000000E+00 -0.00000000000E+00 -0.10062594344E+03  0.10063395745E+03  0.12700000000E+01 0.  1.
         25    2    1    2    0    0  0.00000000000E+00  0.00000000000E+00 -0.61825763539E+02  0.13945491648E+03  0.12500099477E+03 0.  0.
    9000005    1    3    3    0    0  0.43597294575E+02  0.21298383806E+02  0.13023230889E+02  0.50248878493E+02  0.10000000000E+01 0.  0.
    9000005    1    3    3    0    0 -0.43597294575E+02 -0.21298383806E+02 -0.74848994428E+02  0.89206037990E+02  0.10000000000E+01 0.  0.
<mgrwt>
<rscale>  0 0.12500099E+03</rscale>
<asrwt>0</asrwt>
<pdfrwt beam="1">  1        4 0.97036443E-02 0.12500099E+03</pdfrwt>
<pdfrwt beam="2">  1       -4 0.25160084E-01 0.12500099E+03</pdfrwt>
<totfact> 0.19067820E+03</totfact>
</mgrwt>
</event>
<event>
 5    1  0.1433395E-002  0.1250009E+03  0.7818608E-02  0.1235068E+00
         -4   -1    0    0    0  501 -0.00000000000E+00  0.00000000000E+00  0.25210696815E+03  0.25211016697E+03  0.12700000000E+01 0.  1.
          4   -1    0    0  501    0  0.00000000000E+00 -0.00000000000E+00 -0.15465311724E+02  0.15517369839E+02  0.12700000000E+01 0.  1.
         25    2    1    2    0    0  0.00000000000E+00  0.00000000000E+00  0.23664165642E+03  0.26762753681E+03  0.12500089961E+03 0.  0.
    9000005    1    3    3    0    0 -0.14425145580E+02 -0.57164148187E+02  0.16269087847E+03  0.17304666018E+03  0.10000000000E+01 0.  0.
    9000005    1    3    3    0    0  0.14425145580E+02  0.57164148187E+02  0.73950777953E+02  0.94580876623E+02  0.10000000000E+01 0.  0.
<mgrwt>
<rscale>  0 0.12500090E+03</rscale>
<asrwt>0</asrwt>
<pdfrwt beam="2">  1        4 0.38732350E-02 0.12500090E+03</pdfrwt>
<pdfrwt beam="1">  1       -4 0.63033649E-01 0.12500090E+03</pdfrwt>
<totfact> 0.13929167E+03</totfact>
</mgrwt>
</event>
<event>
 5    1  0.1433395E-002  0.1249989E+03  0.7818608E-02  0.1235071E+00
         -4   -1    0    0    0  501 -0.00000000000E+00  0.00000000000E+00  0.43584513102E+02  0.43603012308E+02  0.12700000000E+01 0.  1.
          4   -1    0    0  501    0  0.00000000000E+00 -0.00000000000E+00 -0.89581070848E+02  0.89590072856E+02  0.12700000000E+01 0.  1.
         25    2    1    2    0    0  0.00000000000E+00  0.00000000000E+00 -0.45996557746E+02  0.13319308516E+03  0.12499885844E+03 0.  0.
    9000005    1    3    3    0    0  0.45541138951E+02  0.41052215123E+02 -0.10127592318E+02  0.62151812763E+02  0.10000000000E+01 0.  0.
    9000005    1    3    3    0    0 -0.45541138951E+02 -0.41052215123E+02 -0.35868965428E+02  0.71041272401E+02  0.10000000000E+01 0.  0.
<mgrwt>
<rscale>  0 0.12499886E+03</rscale>
<asrwt>0</asrwt>
<pdfrwt beam="2">  1        4 0.22398705E-01 0.12499886E+03</pdfrwt>
<pdfrwt beam="1">  1       -4 0.10899566E-01 0.12499886E+03</pdfrwt>
<totfact> 0.19394721E+03</totfact>
</mgrwt>
</event>
<event>
 5    1  0.1433395E-002  0.1249976E+03  0.7818608E-02  0.1235073E+00
         -4   -1    0    0    0  501 -0.00000000000E+00  0.00000000000E+00  0.15297850486E+02  0.15350476523E+02  0.12700000000E+01 0. -1.
          4   -1    0    0  501    0  0.00000000000E+00 -0.00000000000E+00 -0.25484407119E+03  0.25484723565E+03  0.12700000000E+01 0. -1.
         25    2    1    2    0    0  0.00000000000E+00  0.00000000000E+00 -0.23954622070E+03  0.27019771218E+03  0.12499764723E+03 0.  0.
    9000005    1    3    3    0    0 -0.11065066088E+02  0.22512845128E+02 -0.24349345126E+03  0.24478424110E+03  0.10000000000E+01 0.  0.
    9000005    1    3    3    0    0  0.11065066088E+02 -0.22512845128E+02  0.39472305561E+01  0.25413471080E+02  0.10000000000E+01 0.  0.
<mgrwt>
<rscale>  0 0.12499765E+03</rscale>
<asrwt>0</asrwt>
<pdfrwt beam="2">  1        4 0.63717978E-01 0.12499765E+03</pdfrwt>
<pdfrwt beam="1">  1       -4 0.38314373E-02 0.12499765E+03</pdfrwt>
<totfact> 0.13850195E+03</totfact>
</mgrwt>
</event>
<event>
 5    1  0.1433395E-002  0.1249985E+03  0.7818608E-02  0.1235072E+00
         -4   -1    0    0    0  501 -0.00000000000E+00  0.00000000000E+00  0.56208120061E+02  0.56222465802E+02  0.12700000000E+01 0.  1.
          4   -1    0    0  501    0  0.00000000000E+00 -0.00000000000E+00 -0.69465546069E+02  0.69477154451E+02  0.12700000000E+01 0.  1.
         25    2    1    2    0    0  0.00000000000E+00  0.00000000000E+00 -0.13257426008E+02  0.12569962025E+03  0.12499854074E+03 0.  0.
    9000005    1    3    3    0    0 -0.34218995104E+01  0.17194356077E+02 -0.66946825625E+02  0.69211507269E+02  0.10000000000E+01 0.  0.
    9000005    1    3    3    0    0  0.34218995104E+01 -0.17194356077E+02  0.53689399618E+02  0.56488112984E+02  0.10000000000E+01 0.  0.
<mgrwt>
<rscale>  0 0.12499854E+03</rscale>
<asrwt>0</asrwt>
<pdfrwt beam="2">  1        4 0.17369631E-01 0.12499854E+03</pdfrwt>
<pdfrwt beam="1">  1       -4 0.14055274E-01 0.12499854E+03</pdfrwt>
<totfact> 0.19797837E+03</totfact>
</mgrwt>
</event>
<event>
 5    1  0.1433395E-002  0.1250094E+03  0.7818608E-02  0.1235055E+00
          4   -1    0    0  501    0  0.00000000000E+00  0.00000000000E+00  0.25829587217E+03  0.25829899435E+03  0.12700000000E+01 0.  1.
         -4   -1    0    0    0  501 -0.00000000000E+00 -0.00000000000E+00 -0.15095568629E+02  0.15148897393E+02  0.12700000000E+01 0.  1.
         25    2    1    2    0    0  0.00000000000E+00  0.00000000000E+00  0.24320030354E+03  0.27344789174E+03  0.12500944706E+03 0.  0.
    9000005    1    3    3    0    0 -0.28345796670E+02 -0.45041321707E+02  0.49926389865E+02  0.72978416364E+02  0.10000000000E+01 0.  0.
    9000005    1    3    3    0    0  0.28345796670E+02  0.45041321707E+02  0.19327391368E+03  0.20046947538E+03  0.10000000000E+01 0.  0.
<mgrwt>
<rscale>  0 0.12500945E+03</rscale>
<asrwt>0</asrwt>
<pdfrwt beam="1">  1        4 0.64581025E-01 0.12500945E+03</pdfrwt>
<pdfrwt beam="2">  1       -4 0.37809485E-02 0.12500945E+03</pdfrwt>
<totfact> 0.13746295E+03</totfact>
</mgrwt>
</event>
<event>
 5    1  0.1433395E-002  0.1249989E+03  0.7818608E-02  0.1235071E+00
         -4   -1    0    0    0  501 -0.00000000000E+00  0.00000000000E+00  0.15414669607E+03  0.15415192769E+03  0.12700000000E+01 0.  1.
          4   -1    0    0  501    0  0.00000000000E+00 -0.00000000000E+00 -0.25319111266E+02  0.25350942691E+02  0.12700000000E+01 0.  1.
         25    2    1    2    0    0  0.00000000000E+00  0.00000000000E+00  0.12882758481E+03  0.17950287038E+03  0.12499893546E+03 0.  0.
    9000005    1    3    3    0    0  0.26892264231E+02 -0.56284762907E+02  0.69789832512E+02  0.93609770500E+02  0.10000000000E+01 0.  0.
    9000005    1    3    3    0    0 -0.26892264231E+02  0.56284762907E+02  0.59037752294E+02  0.85893099879E+02  0.10000000000E+01 0.  0.
<mgrwt>
<rscale>  0 0.12499894E+03</rscale>
<asrwt>0</asrwt>
<pdfrwt beam="2">  1        4 0.63344108E-02 0.12499894E+03</pdfrwt>
<pdfrwt beam="1">  1       -4 0.38541306E-01 0.12499894E+03</pdfrwt>
<totfact> 0.17177177E+03</totfact>
</mgrwt>
</event>
<event>
 5    1  0.1433395E-002  0.1249986E+03  0.7818608E-02  0.1235072E+00
         -4   -1    0    0    0  501 -0.00000000000E+00  0.00000000000E+00  0.41626375226E+02  0.41645744254E+02  0.12700000000E+01 0. -1.
          4   -1    0    0  501    0  0.00000000000E+00 -0.00000000000E+00 -0.93793076205E+02  0.93801673994E+02  0.12700000000E+01 0. -1.
         25    2    1    2    0    0  0.00000000000E+00  0.00000000000E+00 -0.52166700979E+02  0.13544741825E+03  0.12499855367E+03 0.  0.
    9000005    1    3    3    0    0 -0.85446111607E+01  0.55916047518E+02 -0.54865820316E+02  0.78809092045E+02  0.10000000000E+01 0.  0.
    9000005    1    3    3    0    0  0.85446111607E+01 -0.55916047518E+02  0.26991193370E+01  0.56638326203E+02  0.10000000000E+01 0.  0.
<mgrwt>
<rscale>  0 0.12499855E+03</rscale>
<asrwt>0</asrwt>
<pdfrwt beam="2">  1        4 0.23451765E-01 0.12499855E+03</pdfrwt>
<pdfrwt beam="1">  1       -4 0.10410090E-01 0.12499855E+03</pdfrwt>
<totfact> 0.19276378E+03</totfact>
</mgrwt>
</event>
<event>
 5    1  0.1433395E-002  0.1249967E+03  0.7818608E-02  0.1235074E+00
         -4   -1    0    0    0  501 -0.00000000000E+00  0.00000000000E+00  0.31241464187E+03  0.31241722320E+03  0.12700000000E+01 0. -1.
          4   -1    0    0  501    0  0.00000000000E+00 -0.00000000000E+00 -0.12467863944E+02  0.12532379316E+02  0.12700000000E+01 0. -1.
         25    2    1    2    0    0  0.00000000000E+00  0.00000000000E+00  0.29994677793E+03  0.32494960252E+03  0.12499669831E+03 0.  0.
    9000005    1    3    3    0    0 -0.10874700817E+02  0.60927957513E+02  0.17242229792E+03  0.18319640811E+03  0.10000000000E+01 0.  0.
    9000005    1    3    3    0    0  0.10874700817E+02 -0.60927957513E+02  0.12752448001E+03  0.14175319441E+03  0.10000000000E+01 0.  0.
<mgrwt>
<rscale>  0 0.12499670E+03</rscale>
<asrwt>0</asrwt>
<pdfrwt beam="2">  1        4 0.31253530E-02 0.12499670E+03</pdfrwt>
<pdfrwt beam="1">  1       -4 0.78112050E-01 0.12499670E+03</pdfrwt>
<totfact> 0.12300452E+03</totfact>
</mgrwt>
</event>
<event>
 5    1  0.1433395E-002  0.1250003E+03  0.7818608E-02  0.1235069E+00
         -4   -1    0    0    0  501 -0.00000000000E+00  0.00000000000E+00  0.24663091748E+02  0.24695768758E+02  0.12700000000E+01 0. -1.
          4   -1    0    0  501    0  0.00000000000E+00 -0.00000000000E+00 -0.15824508592E+03  0.15825018205E+03  0.12700000000E+01 0. -1.
         25    2    1    2    0    0  0.00000000000E+00  0.00000000000E+00 -0.13358199417E+03  0.18294595080E+03  0.12500028699E+03 0.  0.
    9000005    1    3    3    0    0 -0.31003363377E+02  0.53515911306E+02 -0.53691759110E+02  0.81908279800E+02  0.10000000000E+01 0.  0.
    9000005    1    3    3    0    0  0.31003363377E+02 -0.53515911306E+02 -0.79890235062E+02  0.10103767100E+03  0.10000000000E+01 0.  0.
<mgrwt>
<rscale>  0 0.12500029E+03</rscale>
<asrwt>0</asrwt>
<pdfrwt beam="2">  1        4 0.39565990E-01 0.12500029E+03</pdfrwt>
<pdfrwt beam="1">  1       -4 0.61704950E-02 0.12500029E+03</pdfrwt>
<totfact> 0.17028333E+03</totfact>
</mgrwt>
</event>
<event>
 5    1  0.1433395E-002  0.1250002E+03  0.7818608E-02  0.1235069E+00
          4   -1    0    0  501    0  0.00000000000E+00  0.00000000000E+00  0.55830053113E+02  0.55844495974E+02  0.12700000000E+01 0. -1.
         -4   -1    0    0    0  501 -0.00000000000E+00 -0.00000000000E+00 -0.69937801273E+02  0.69949331283E+02  0.12700000000E+01 0. -1.
         25    2    1    2    0    0  0.00000000000E+00  0.00000000000E+00 -0.14107748160E+02  0.12579382726E+03  0.12500023367E+03 0.  0.
    9000005    1    3    3    0    0  0.12677630013E+02  0.47344049477E+02 -0.46069630194E+02  0.67272521507E+02  0.10000000000E+01 0.  0.
    9000005    1    3    3    0    0 -0.12677630013E+02 -0.47344049477E+02  0.31961882034E+02  0.58521305751E+02  0.10000000000E+01 0.  0.
<mgrwt>
<rscale>  0 0.12500023E+03</rscale>
<asrwt>0</asrwt>
<pdfrwt beam="1">  1        4 0.13960760E-01 0.12500023E+03</pdfrwt>
<pdfrwt beam="2">  1       -4 0.17487697E-01 0.12500023E+03</pdfrwt>
<totfact> 0.19791957E+03</totfact>
</mgrwt>
</event>
<event>
 5    1  0.1433395E-002  0.1250031E+03  0.7818608E-02  0.1235064E+00
          4   -1    0    0  501    0  0.00000000000E+00  0.00000000000E+00  0.61724746125E+02  0.61737810005E+02  0.12700000000E+01 0. -1.
         -4   -1    0    0    0  501 -0.00000000000E+00 -0.00000000000E+00 -0.63262028327E+02  0.63274774816E+02  0.12700000000E+01 0. -1.
         25    2    1    2    0    0  0.00000000000E+00  0.00000000000E+00 -0.15372822019E+01  0.12501258482E+03  0.12500313247E+03 0.  0.
    9000005    1    3    3    0    0  0.43953641554E+02  0.28772610792E+02 -0.34618800824E+02  0.62922548487E+02  0.10000000000E+01 0.  0.
    9000005    1    3    3    0    0 -0.43953641554E+02 -0.28772610792E+02  0.33081518622E+02  0.62090036334E+02  0.10000000000E+01 0.  0.
<mgrwt>
<rscale>  0 0.12500313E+03</rscale>
<asrwt>0</asrwt>
<pdfrwt beam="1">  1        4 0.15434413E-01 0.12500313E+03</pdfrwt>
<pdfrwt beam="2">  1       -4 0.15818733E-01 0.12500313E+03</pdfrwt>
<totfact> 0.19832919E+03</totfact>
</mgrwt>
</event>
<event>
 5    1  0.1433395E-002  0.1249951E+03  0.7818608E-02  0.1235077E+00
          4   -1    0    0  501    0  0.00000000000E+00  0.00000000000E+00  0.10214701870E+03  0.10215491339E+03  0.12700000000E+01 0. -1.
         -4   -1    0    0    0  501 -0.00000000000E+00 -0.00000000000E+00 -0.38218555671E+02  0.38239650856E+02  0.12700000000E+01 0. -1.
         25    2    1    2    0    0  0.00000000000E+00  0.00000000000E+00  0.63928463031E+02  0.14039456425E+03  0.12499514104E+03 0.  0.
    9000005    1    3    3    0    0 -0.61551503108E+02  0.11397318358E+01  0.19916120380E+02  0.64711192035E+02  0.10000000000E+01 0.  0.
    9000005    1    3    3    0    0  0.61551503108E+02 -0.11397318358E+01  0.44012342651E+02  0.75683372211E+02  0.10000000000E+01 0.  0.
<mgrwt>
<rscale>  0 0.12499514E+03</rscale>
<asrwt>0</asrwt>
<pdfrwt beam="1">  1        4 0.25540378E-01 0.12499514E+03</pdfrwt>
<pdfrwt beam="2">  1       -4 0.95582627E-02 0.12499514E+03</pdfrwt>
<totfact> 0.19022330E+03</totfact>
</mgrwt>
</event>
<event>
 5    1  0.1433395E-002  0.1250010E+03  0.7818608E-02  0.1235068E+00
          4   -1    0    0  501    0  0.00000000000E+00  0.00000000000E+00  0.32228907316E+02  0.32253920177E+02  0.12700000000E+01 0. -1.
         -4   -1    0    0    0  501 -0.00000000000E+00 -0.00000000000E+00 -0.12112993842E+03  0.12113659597E+03  0.12700000000E+01 0. -1.
         25    2    1    2    0    0  0.00000000000E+00  0.00000000000E+00 -0.88901031106E+02  0.15339051614E+03  0.12500102844E+03 0.  0.
    9000005    1    3    3    0    0 -0.12274417379E+02 -0.51315161529E+02 -0.33576352016E+01  0.52878926227E+02  0.10000000000E+01 0.  0.
    9000005    1    3    3    0    0  0.12274417379E+02  0.51315161529E+02 -0.85543395905E+02  0.10051158992E+03  0.10000000000E+01 0.  0.
<mgrwt>
<rscale>  0 0.12500103E+03</rscale>
<asrwt>0</asrwt>
<pdfrwt beam="1">  1        4 0.80611859E-02 0.12500103E+03</pdfrwt>
<pdfrwt beam="2">  1       -4 0.30286442E-01 0.12500103E+03</pdfrwt>
<totfact> 0.18372877E+03</totfact>
</mgrwt>
</event>
<event>
 5    1  0.1433395E-002  0.1249977E+03  0.7818608E-02  0.1235073E+00
         -4   -1    0    0    0  501 -0.00000000000E+00  0.00000000000E+00  0.56313522626E+03  0.56313665833E+03  0.12700000000E+01 0.  1.
          4   -1    0    0  501    0  0.00000000000E+00 -0.00000000000E+00 -0.68767689107E+01  0.69930573178E+01  0.12700000000E+01 0.  1.
         25    2    1    2    0    0  0.00000000000E+00  0.00000000000E+00  0.55625845735E+03  0.57012971564E+03  0.12499768515E+03 0.  0.
    9000005    1    3    3    0    0  0.51737029620E+02 -0.34947386366E+02  0.29025295847E+03  0.29689361722E+03  0.10000000000E+01 0.  0.
    9000005    1    3    3    0    0 -0.51737029620E+02  0.34947386366E+02  0.26600549888E+03  0.27323609842E+03  0.10000000000E+01 0.  0.
<mgrwt>
<rscale>  0 0.12499769E+03</rscale>
<asrwt>0</asrwt>
<pdfrwt beam="2">  1        4 0.17339078E-02 0.12499769E+03</pdfrwt>
<pdfrwt beam="1">  1       -4 0.14079848E+00 0.12499769E+03</pdfrwt>
<totfact> 0.77398664E+02</totfact>
</mgrwt>
</event>
<event>
 5    1  0.1433395E-002  0.1250011E+03  0.7818608E-02  0.1235068E+00
          4   -1    0    0  501    0  0.00000000000E+00  0.00000000000E+00  0.38725433816E+02  0.38746253035E+02  0.12700000000E+01 0. -1.
         -4   -1    0    0    0  501 -0.00000000000E+00 -0.00000000000E+00 -0.10082028047E+03  0.10082827904E+03  0.12700000000E+01 0. -1.
         25    2    1    2    0    0  0.00000000000E+00  0.00000000000E+00 -0.62094846653E+02  0.13957453207E+03  0.12500112009E+03 0.  0.
    9000005    1    3    3    0    0  0.54087058846E+02 -0.31303304891E+02 -0.30919264180E+02  0.69730249743E+02  0.10000000000E+01 0.  0.
    9000005    1    3    3    0    0 -0.54087058846E+02  0.31303304891E+02 -0.31175582473E+02  0.69844282331E+02  0.10000000000E+01 0.  0.
<mgrwt>
<rscale>  0 0.12500112E+03</rscale>
<asrwt>0</asrwt>
<pdfrwt beam="1">  1        4 0.96849609E-02 0.12500112E+03</pdfrwt>
<pdfrwt beam="2">  1       -4 0.25208672E-01 0.12500112E+03</pdfrwt>
<totfact> 0.19061632E+03</totfact>
</mgrwt>
</event>
<event>
 5    1  0.1433395E-002  0.1250161E+03  0.7818608E-02  0.1235044E+00
          4   -1    0    0  501    0  0.00000000000E+00  0.00000000000E+00  0.22574747168E+02  0.22610442492E+02  0.12700000000E+01 0.  1.
         -4   -1    0    0    0  501 -0.00000000000E+00 -0.00000000000E+00 -0.17290611328E+03  0.17291077731E+03  0.12700000000E+01 0.  1.
         25    2    1    2    0    0  0.00000000000E+00  0.00000000000E+00 -0.15033136611E+03  0.19552121980E+03  0.12501610998E+03 0.  0.
    9000005    1    3    3    0    0  0.15922459794E+02 -0.16776130387E+02  0.15642755661E+02  0.27940277045E+02  0.10000000000E+01 0.  0.
    9000005    1    3    3    0    0 -0.15922459794E+02  0.16776130387E+02 -0.16597412178E+03  0.16758094276E+03  0.10000000000E+01 0.  0.
<mgrwt>
<rscale>  0 0.12501611E+03</rscale>
<asrwt>0</asrwt>
<pdfrwt beam="1">  1        4 0.56487322E-02 0.12501611E+03</pdfrwt>
<pdfrwt beam="2">  1       -4 0.43231569E-01 0.12501611E+03</pdfrwt>
<totfact> 0.16496815E+03</totfact>
</mgrwt>
</event>
<event>
 5    1  0.1433395E-002  0.1249983E+03  0.7818608E-02  0.1235072E+00
         -4   -1    0    0    0  501 -0.00000000000E+00  0.00000000000E+00  0.17720699006E+02  0.17766149646E+02  0.12700000000E+01 0.  1.
          4   -1    0    0  501    0  0.00000000000E+00 -0.00000000000E+00 -0.22009876295E+03  0.22010242696E+03  0.12700000000E+01 0.  1.
         25    2    1    2    0    0  0.00000000000E+00  0.00000000000E+00 -0.20237806395E+03  0.23786857661E+03  0.12499831587E+03 0.  0.
    9000005    1    3    3    0    0 -0.15871146905E+02  0.25862676758E+02  0.27693452296E+01  0.30486728690E+02  0.10000000000E+01 0.  0.
    9000005    1    3    3    0    0  0.15871146905E+02 -0.25862676758E+02 -0.20514740918E+03  0.20738184792E+03  0.10000000000E+01 0.  0.
<mgrwt>
<rscale>  0 0.12499832E+03</rscale>
<asrwt>0</asrwt>
<pdfrwt beam="2">  1        4 0.55030821E-01 0.12499832E+03</pdfrwt>
<pdfrwt beam="1">  1       -4 0.44363148E-02 0.12499832E+03</pdfrwt>
<totfact> 0.14910746E+03</totfact>
</mgrwt>
</event>
<event>
 5    1  0.1433395E-002  0.1249998E+03  0.7818608E-02  0.1235070E+00
          4   -1    0    0  501    0  0.00000000000E+00  0.00000000000E+00  0.11847383189E+03  0.11848063869E+03  0.12700000000E+01 0.  1.
         -4   -1    0    0    0  501 -0.00000000000E+00 -0.00000000000E+00 -0.32951348905E+02  0.32975813783E+02  0.12700000000E+01 0.  1.
         25    2    1    2    0    0  0.00000000000E+00  0.00000000000E+00  0.85522482989E+02  0.15145645247E+03  0.12499984759E+03 0.  0.
    9000005    1    3    3    0    0 -0.45501339265E+02 -0.25280205514E+02  0.86221767842E+00  0.52069223973E+02  0.10000000000E+01 0.  0.
    9000005    1    3    3    0    0  0.45501339265E+02  0.25280205514E+02  0.84660265311E+02  0.99387228497E+02  0.10000000000E+01 0.  0.
<mgrwt>
<rscale>  0 0.12499985E+03</rscale>
<asrwt>0</asrwt>
<pdfrwt beam="1">  1        4 0.29622367E-01 0.12499985E+03</pdfrwt>
<pdfrwt beam="2">  1       -4 0.82417462E-02 0.12499985E+03</pdfrwt>
<totfact> 0.18467464E+03</totfact>
</mgrwt>
</event>
<event>
 5    1  0.1433395E-002  0.1250053E+03  0.7818608E-02  0.1235061E+00
         -4   -1    0    0    0  501 -0.00000000000E+00  0.00000000000E+00  0.86243782710E+02  0.86253133022E+02  0.12700000000E+01 0. -1.
          4   -1    0    0  501    0  0.00000000000E+00 -0.00000000000E+00 -0.45276241150E+02  0.45294049418E+02  0.12700000000E+01 0. -1.
         25    2    1    2    0    0  0.00000000000E+00  0.00000000000E+00  0.40967541561E+02  0.13154718244E+03  0.12500528687E+03 0.  0.
    9000005    1    3    3    0    0 -0.23465113943E+02 -0.57422197110E+02  0.12492956661E+02  0.63285023974E+02  0.10000000000E+01 0.  0.
    9000005    1    3    3    0    0  0.23465113943E+02  0.57422197110E+02  0.28474584900E+02  0.68262158466E+02  0.10000000000E+01 0.  0.
<mgrwt>
<rscale>  0 0.12500529E+03</rscale>
<asrwt>0</asrwt>
<pdfrwt beam="2">  1        4 0.11322455E-01 0.12500529E+03</pdfrwt>
<pdfrwt beam="1">  1       -4 0.21564340E-01 0.12500529E+03</pdfrwt>
<totfact> 0.19479160E+03</totfact>
</mgrwt>
</event>
<event>
 5    1  0.1433395E-002  0.1249988E+03  0.7818608E-02  0.1235071E+00
         -4   -1    0    0    0  501 -0.00000000000E+00  0.00000000000E+00  0.84127077094E+01  0.85080286203E+01  0.12700000000E+01 0. -1.
          4   -1    0    0  501    0  0.00000000000E+00 -0.00000000000E+00 -0.46160660260E+03  0.46160834965E+03  0.12700000000E+01 0. -1.
         25    2    1    2    0    0  0.00000000000E+00  0.00000000000E+00 -0.45319389489E+03  0.47011637827E+03  0.12499881099E+03 0.  0.
    9000005    1    3    3    0    0  0.23724693276E+02 -0.26879345774E+02 -0.34095125592E+02  0.49485734201E+02  0.10000000000E+01 0.  0.
    9000005    1    3    3    0    0 -0.23724693276E+02  0.26879345774E+02 -0.41909876930E+03  0.42063064407E+03  0.10000000000E+01 0.  0.
<mgrwt>
<rscale>  0 0.12499881E+03</rscale>
<asrwt>0</asrwt>
<pdfrwt beam="2">  1        4 0.11541370E+00 0.12499881E+03</pdfrwt>
<pdfrwt beam="1">  1       -4 0.21153120E-02 0.12499881E+03</pdfrwt>
<totfact> 0.92516750E+02</totfact>
</mgrwt>
</event>
<event>
 5    1  0.1433395E-002  0.1250017E+03  0.7818608E-02  0.1235067E+00
         -4   -1    0    0    0  501 -0.00000000000E+00  0.00000000000E+00  0.66308620541E+03  0.66308742162E+03  0.12700000000E+01 0.  1.
          4   -1    0    0  501    0  0.00000000000E+00 -0.00000000000E+00 -0.58214949762E+01  0.59584145339E+01  0.12700000000E+01 0.  1.
         25    2    1    2    0    0  0.00000000000E+00  0.00000000000E+00  0.65726471044E+03  0.66904583615E+03  0.12500172514E+03 0.  0.
    9000005    1    3    3    0    0  0.54887604554E+02 -0.18929569218E+02  0.20490520704E+03  0.21297446231E+03  0.10000000000E+01 0.  0.
    9000005    1    3    3    0    0 -0.54887604554E+02  0.18929569218E+02  0.45235950340E+03  0.45607137384E+03  0.10000000000E+01 0.  0.
<mgrwt>
<rscale>  0 0.12500173E+03</rscale>
<asrwt>0</asrwt>
<pdfrwt beam="2">  1        4 0.14726410E-02 0.12500173E+03</pdfrwt>
<pdfrwt beam="1">  1       -4 0.16578879E+00 0.12500173E+03</pdfrwt>
<totfact> 0.65370656E+02</totfact>
</mgrwt>
</event>
<event>
 5    1  0.1433395E-002  0.1250004E+03  0.7818608E-02  0.1235069E+00
          4   -1    0    0  501    0  0.00000000000E+00  0.00000000000E+00  0.65482217498E+02  0.65494531897E+02  0.12700000000E+01 0. -1.
         -4   -1    0    0    0  501 -0.00000000000E+00 -0.00000000000E+00 -0.59629250703E+02  0.59642773572E+02  0.12700000000E+01 0. -1.
         25    2    1    2    0    0  0.00000000000E+00  0.00000000000E+00  0.58529667949E+01  0.12513730547E+03  0.12500035200E+03 0.  0.
    9000005    1    3    3    0    0  0.40213059806E+02  0.46388601168E+02  0.14613154807E+02  0.63115265909E+02  0.10000000000E+01 0.  0.
    9000005    1    3    3    0    0 -0.40213059806E+02 -0.46388601168E+02 -0.87601880122E+01  0.62022039561E+02  0.10000000000E+01 0.  0.
<mgrwt>
<rscale>  0 0.12500035E+03</rscale>
<asrwt>0</asrwt>
<pdfrwt beam="1">  1        4 0.16373784E-01 0.12500035E+03</pdfrwt>
<pdfrwt beam="2">  1       -4 0.14910542E-01 0.12500035E+03</pdfrwt>
<totfact> 0.19827447E+03</totfact>
</mgrwt>
</event>
<event>
 5    1  0.1433395E-002  0.1249949E+03  0.7818608E-02  0.1235077E+00
          4   -1    0    0  501    0  0.00000000000E+00  0.00000000000E+00  0.17955996767E+02  0.18000853310E+02  0.12700000000E+01 0. -1.
         -4   -1    0    0    0  501 -0.00000000000E+00 -0.00000000000E+00 -0.21720996614E+03  0.21721367887E+03  0.12700000000E+01 0. -1.
         25    2    1    2    0    0  0.00000000000E+00  0.00000000000E+00 -0.19925396937E+03  0.23521453218E+03  0.12499492726E+03 0.  0.
    9000005    1    3    3    0    0 -0.41874261089E+02 -0.23420239069E+02 -0.17496855689E+03  0.18143030960E+03  0.10000000000E+01 0.  0.
    9000005    1    3    3    0    0  0.41874261089E+02  0.23420239069E+02 -0.24285412478E+02  0.53784222585E+02  0.10000000000E+01 0.  0.
<mgrwt>
<rscale>  0 0.12499493E+03</rscale>
<asrwt>0</asrwt>
<pdfrwt beam="1">  1        4 0.44950710E-02 0.12499493E+03</pdfrwt>
<pdfrwt beam="2">  1       -4 0.54308555E-01 0.12499493E+03</pdfrwt>
<totfact> 0.15004512E+03</totfact>
</mgrwt>
</event>
<event>
 5    1  0.1433395E-002  0.1250049E+03  0.7818608E-02  0.1235062E+00
          4   -1    0    0  501    0  0.00000000000E+00  0.00000000000E+00  0.35123599433E+01  0.37349126324E+01  0.12700000000E+01 0. -1.
         -4   -1    0    0    0  501 -0.00000000000E+00 -0.00000000000E+00 -0.10778528277E+04  0.10778535759E+04  0.12700000000E+01 0. -1.
         25    2    1    2    0    0  0.00000000000E+00  0.00000000000E+00 -0.10743404678E+04  0.10815884886E+04  0.12500487137E+03 0.  0.
    9000005    1    3    3    0    0  0.59983319625E+02  0.16024671577E+02 -0.59881844173E+03  0.60202933058E+03  0.10000000000E+01 0.  0.
    9000005    1    3    3    0    0 -0.59983319625E+02 -0.16024671577E+02 -0.47552202607E+03  0.47955915799E+03  0.10000000000E+01 0.  0.
<mgrwt>
<rscale>  0 0.12500487E+03</rscale>
<asrwt>0</asrwt>
<pdfrwt beam="1">  1        4 0.90600629E-03 0.12500487E+03</pdfrwt>
<pdfrwt beam="2">  1       -4 0.26949002E+00 0.12500487E+03</pdfrwt>
<totfact> 0.31886571E+02</totfact>
</mgrwt>
</event>
<event>
 5    1  0.1433395E-002  0.1250051E+03  0.7818608E-02  0.1235061E+00
         -4   -1    0    0    0  501 -0.00000000000E+00  0.00000000000E+00  0.15996079080E+02  0.16046415361E+02  0.12700000000E+01 0. -1.
          4   -1    0    0  501    0  0.00000000000E+00 -0.00000000000E+00 -0.24378487021E+03  0.24378817823E+03  0.12700000000E+01 0. -1.
         25    2    1    2    0    0  0.00000000000E+00  0.00000000000E+00 -0.22778879113E+03  0.25983459359E+03  0.12500513054E+03 0.  0.
    9000005    1    3    3    0    0  0.24129064396E+02  0.56951379097E+02 -0.95314609182E+02  0.11362898421E+03  0.10000000000E+01 0.  0.
    9000005    1    3    3    0    0 -0.24129064396E+02 -0.56951379097E+02 -0.13247418195E+03  0.14620560937E+03  0.10000000000E+01 0.  0.
<mgrwt>
<rscale>  0 0.12500513E+03</rscale>
<asrwt>0</asrwt>
<pdfrwt beam="2">  1        4 0.60952911E-01 0.12500513E+03</pdfrwt>
<pdfrwt beam="1">  1       -4 0.40057261E-02 0.12500513E+03</pdfrwt>
<totfact> 0.14174794E+03</totfact>
</mgrwt>
</event>
<event>
 5    1  0.1433395E-002  0.1250065E+03  0.7818608E-02  0.1235059E+00
          4   -1    0    0  501    0  0.00000000000E+00  0.00000000000E+00  0.45626972101E+02  0.45644643531E+02  0.12700000000E+01 0.  1.
         -4   -1    0    0    0  501 -0.00000000000E+00 -0.00000000000E+00 -0.85582691511E+02  0.85592114042E+02  0.12700000000E+01 0.  1.
         25    2    1    2    0    0  0.00000000000E+00  0.00000000000E+00 -0.39955719409E+02  0.13123675757E+03  0.12500650793E+03 0.  0.
    9000005    1    3    3    0    0  0.56068586140E+02  0.18875798583E+02 -0.41123059557E+02  0.72056145825E+02  0.10000000000E+01 0.  0.
    9000005    1    3    3    0    0 -0.56068586140E+02 -0.18875798583E+02  0.11673401478E+01  0.59180611748E+02  0.10000000000E+01 0.  0.
<mgrwt>
<rscale>  0 0.12500651E+03</rscale>
<asrwt>0</asrwt>
<pdfrwt beam="1">  1        4 0.11410130E-01 0.12500651E+03</pdfrwt>
<pdfrwt beam="2">  1       -4 0.21399059E-01 0.12500651E+03</pdfrwt>
<totfact> 0.19495163E+03</totfact>
</mgrwt>
</event>
<event>
 5    1  0.1433395E-002  0.1249992E+03  0.7818608E-02  0.1235071E+00
          4   -1    0    0  501    0  0.00000000000E+00  0.00000000000E+00  0.90222085041E+02  0.90231023097E+02  0.12700000000E+01 0. -1.
         -4   -1    0    0    0  501 -0.00000000000E+00 -0.00000000000E+00 -0.43274979116E+02  0.43293610586E+02  0.12700000000E+01 0. -1.
         25    2    1    2    0    0  0.00000000000E+00  0.00000000000E+00  0.46947105925E+02  0.13352463368E+03  0.12499918818E+03 0.  0.
    9000005    1    3    3    0    0 -0.44787066733E+02  0.43473991514E+02  0.26736383223E+02  0.67909524167E+02  0.10000000000E+01 0.  0.
    9000005    1    3    3    0    0  0.44787066733E+02 -0.43473991514E+02  0.20210722701E+02  0.65615109516E+02  0.10000000000E+01 0.  0.
<mgrwt>
<rscale>  0 0.12499919E+03</rscale>
<asrwt>0</asrwt>
<pdfrwt beam="1">  1        4 0.22558967E-01 0.12499919E+03</pdfrwt>
<pdfrwt beam="2">  1       -4 0.10822191E-01 0.12499919E+03</pdfrwt>
<totfact> 0.19377064E+03</totfact>
</mgrwt>
</event>
<event>
 5    1  0.1433395E-002  0.1249965E+03  0.7818608E-02  0.1235075E+00
          4   -1    0    0  501    0  0.00000000000E+00  0.00000000000E+00  0.21822487974E+03  0.21822857520E+03  0.12700000000E+01 0.  1.
         -4   -1    0    0    0  501 -0.00000000000E+00 -0.00000000000E+00 -0.17872744221E+02  0.17917809185E+02  0.12700000000E+01 0.  1.
         25    2    1    2    0    0  0.00000000000E+00  0.00000000000E+00  0.20035213552E+03  0.23614638439E+03  0.12499654657E+03 0.  0.
    9000005    1    3    3    0    0 -0.58991356504E+02 -0.18872877552E+02  0.84497960060E+02  0.10477151762E+03  0.10000000000E+01 0.  0.
    9000005    1    3    3    0    0  0.58991356504E+02  0.18872877552E+02  0.11585417546E+03  0.13137486677E+03  0.10000000000E+01 0.  0.
<mgrwt>
<rscale>  0 0.12499655E+03</rscale>
<asrwt>0</asrwt>
<pdfrwt beam="1">  1        4 0.54562314E-01 0.12499655E+03</pdfrwt>
<pdfrwt beam="2">  1       -4 0.44742812E-02 0.12499655E+03</pdfrwt>
<totfact> 0.14971337E+03</totfact>
</mgrwt>
</event>
<event>
 5    1  0.1433395E-002  0.1249996E+03  0.7818608E-02  0.1235070E+00
          4   -1    0    0  501    0  0.00000000000E+00  0.00000000000E+00  0.46249268436E+02  0.46266702183E+02  0.12700000000E+01 0.  1.
         -4   -1    0    0    0  501 -0.00000000000E+00 -0.00000000000E+00 -0.84422074219E+02  0.84431626275E+02  0.12700000000E+01 0.  1.
         25    2    1    2    0    0  0.00000000000E+00  0.00000000000E+00 -0.38172805783E+02  0.13069832846E+03  0.12499955984E+03 0.  0.
    9000005    1    3    3    0    0  0.13228665309E+02 -0.60247610194E+02 -0.86069811117E+01  0.62288459956E+02  0.10000000000E+01 0.  0.
    9000005    1    3    3    0    0 -0.13228665309E+02  0.60247610194E+02 -0.29565824672E+02  0.68409868502E+02  0.10000000000E+01 0.  0.
<mgrwt>
<rscale>  0 0.12499956E+03</rscale>
<asrwt>0</asrwt>
<pdfrwt beam="1">  1        4 0.11565690E-01 0.12499956E+03</pdfrwt>
<pdfrwt beam="2">  1       -4 0.21108892E-01 0.12499956E+03</pdfrwt>
<totfact> 0.19527115E+03</totfact>
</mgrwt>
</event>
<event>
 5    1  0.1433395E-002  0.1249971E+03  0.7818608E-02  0.1235074E+00
          4   -1    0    0  501    0  0.00000000000E+00  0.00000000000E+00  0.15492870050E+02  0.15544835875E+02  0.12700000000E+01 0. -1.
         -4   -1    0    0    0  501 -0.00000000000E+00 -0.00000000000E+00 -0.25164485622E+03  0.25164806092E+03  0.12700000000E+01 0. -1.
         25    2    1    2    0    0  0.00000000000E+00  0.00000000000E+00 -0.23615198617E+03  0.26719289679E+03  0.12499713406E+03 0.  0.
    9000005    1    3    3    0    0  0.35537163722E+02  0.42820239499E+02 -0.17886063467E+03  0.18731948524E+03  0.10000000000E+01 0.  0.
    9000005    1    3    3    0    0 -0.35537163722E+02 -0.42820239499E+02 -0.57291351507E+02  0.79873411556E+02  0.10000000000E+01 0.  0.
<mgrwt>
<rscale>  0 0.12499713E+03</rscale>
<asrwt>0</asrwt>
<pdfrwt beam="1">  1        4 0.38801146E-02 0.12499713E+03</pdfrwt>
<pdfrwt beam="2">  1       -4 0.62918097E-01 0.12499713E+03</pdfrwt>
<totfact> 0.13943975E+03</totfact>
</mgrwt>
</event>
<event>
 5    1  0.1433395E-002  0.1249997E+03  0.7818608E-02  0.1235070E+00
          4   -1    0    0  501    0  0.00000000000E+00  0.00000000000E+00  0.22823220261E+03  0.22823573604E+03  0.12700000000E+01 0.  1.
         -4   -1    0    0    0  501 -0.00000000000E+00 -0.00000000000E+00 -0.17087939166E+02  0.17135068279E+02  0.12700000000E+01 0.  1.
         25    2    1    2    0    0  0.00000000000E+00  0.00000000000E+00  0.21114426344E+03  0.24537080432E+03  0.12499972652E+03 0.  0.
    9000005    1    3    3    0    0 -0.12980489434E+02  0.50349347856E+02  0.17361909946E+03  0.18124056288E+03  0.10000000000E+01 0.  0.
    9000005    1    3    3    0    0  0.12980489434E+02 -0.50349347856E+02  0.37525163979E+02  0.64130241440E+02  0.10000000000E+01 0.  0.
<mgrwt>
<rscale>  0 0.12499973E+03</rscale>
<asrwt>0</asrwt>
<pdfrwt beam="1">  1        4 0.57064383E-01 0.12499973E+03</pdfrwt>
<pdfrwt beam="2">  1       -4 0.42783177E-02 0.12499973E+03</pdfrwt>
<totfact> 0.14653290E+03</totfact>
</mgrwt>
</event>
<event>
 5    1  0.1433395E-002  0.1250017E+03  0.7818608E-02  0.1235067E+00
         -4   -1    0    0    0  501 -0.00000000000E+00  0.00000000000E+00  0.40886234688E+02  0.40905954175E+02  0.12700000000E+01 0.  1.
          4   -1    0    0  501    0  0.00000000000E+00 -0.00000000000E+00 -0.95495087749E+02  0.95503532313E+02  0.12700000000E+01 0.  1.
         25    2    1    2    0    0  0.00000000000E+00  0.00000000000E+00 -0.54608853062E+02  0.13640948649E+03  0.12500168467E+03 0.  0.
    9000005    1    3    3    0    0 -0.37424379071E+02 -0.46308283343E+02 -0.65901724424E+01  0.59912199324E+02  0.10000000000E+01 0.  0.
    9000005    1    3    3    0    0  0.37424379071E+02  0.46308283343E+02 -0.48018680619E+02  0.76497287164E+02  0.10000000000E+01 0.  0.
<mgrwt>
<rscale>  0 0.12500168E+03</rscale>
<asrwt>0</asrwt>
<pdfrwt beam="2">  1        4 0.23877292E-01 0.12500168E+03</pdfrwt>
<pdfrwt beam="1">  1       -4 0.10225079E-01 0.12500168E+03</pdfrwt>
<totfact> 0.19224807E+03</totfact>
</mgrwt>
</event>
<event>
 5    1  0.1433395E-002  0.1249988E+03  0.7818608E-02  0.1235071E+00
         -4   -1    0    0    0  501 -0.00000000000E+00  0.00000000000E+00  0.71555665277E+02  0.71566934636E+02  0.12700000000E+01 0. -1.
          4   -1    0    0  501    0  0.00000000000E+00 -0.00000000000E+00 -0.54566379143E+02  0.54581156390E+02  0.12700000000E+01 0. -1.
         25    2    1    2    0    0  0.00000000000E+00  0.00000000000E+00  0.16989286134E+02  0.12614809103E+03  0.12499882010E+03 0.  0.
    9000005    1    3    3    0    0 -0.29495113289E+02  0.52760248435E+02  0.24501454448E+02  0.65229799884E+02  0.10000000000E+01 0.  0.
    9000005    1    3    3    0    0  0.29495113289E+02 -0.52760248435E+02 -0.75121683144E+01  0.60918291142E+02  0.10000000000E+01 0.  0.
<mgrwt>
<rscale>  0 0.12499882E+03</rscale>
<asrwt>0</asrwt>
<pdfrwt beam="2">  1        4 0.13644851E-01 0.12499882E+03</pdfrwt>
<pdfrwt beam="1">  1       -4 0.17892172E-01 0.12499882E+03</pdfrwt>
<totfact> 0.19773465E+03</totfact>
</mgrwt>
</event>
<event>
 5    1  0.1433395E-002  0.1250003E+03  0.7818608E-02  0.1235069E+00
          4   -1    0    0  501    0  0.00000000000E+00  0.00000000000E+00  0.69632380447E+03  0.69632496262E+03  0.12700000000E+01 0.  1.
         -4   -1    0    0    0  501 -0.00000000000E+00 -0.00000000000E+00 -0.55367883354E+01  0.56805743611E+01  0.12700000000E+01 0.  1.
         25    2    1    2    0    0  0.00000000000E+00  0.00000000000E+00  0.69078701613E+03  0.70200553698E+03  0.12500028918E+03 0.  0.
    9000005    1    3    3    0    0  0.52685030734E+02  0.32133571194E+02  0.40070192615E+03  0.40542732084E+03  0.10000000000E+01 0.  0.
    9000005    1    3    3    0    0 -0.52685030734E+02 -0.32133571194E+02  0.29008508998E+03  0.29657821615E+03  0.10000000000E+01 0.  0.
<mgrwt>
<rscale>  0 0.12500029E+03</rscale>
<asrwt>0</asrwt>
<pdfrwt beam="1">  1        4 0.17409907E+00 0.12500029E+03</pdfrwt>
<pdfrwt beam="2">  1       -4 0.14023151E-02 0.12500029E+03</pdfrwt>
<totfact> 0.61856274E+02</totfact>
</mgrwt>
</event>
<event>
 5    1  0.1433395E-002  0.1250003E+03  0.7818608E-02  0.1235069E+00
          4   -1    0    0  501    0  0.00000000000E+00  0.00000000000E+00  0.10453578881E+03  0.10454350310E+03  0.12700000000E+01 0. -1.
         -4   -1    0    0    0  501 -0.00000000000E+00 -0.00000000000E+00 -0.37347860241E+02  0.37369446940E+02  0.12700000000E+01 0. -1.
         25    2    1    2    0    0  0.00000000000E+00  0.00000000000E+00  0.67187928565E+02  0.14191295004E+03  0.12500027058E+03 0.  0.
    9000005    1    3    3    0    0 -0.10224619908E+02 -0.42136738047E+01  0.10342162080E+03  0.10401600621E+03  0.10000000000E+01 0.  0.
    9000005    1    3    3    0    0  0.10224619908E+02  0.42136738047E+01 -0.36233692233E+02  0.37896943835E+02  0.10000000000E+01 0.  0.
<mgrwt>
<rscale>  0 0.12500027E+03</rscale>
<asrwt>0</asrwt>
<pdfrwt beam="1">  1        4 0.26137610E-01 0.12500027E+03</pdfrwt>
<pdfrwt beam="2">  1       -4 0.93406277E-02 0.12500027E+03</pdfrwt>
<totfact> 0.18942783E+03</totfact>
</mgrwt>
</event>
<event>
 5    1  0.1433395E-002  0.1249967E+03  0.7818608E-02  0.1235074E+00
          4   -1    0    0  501    0  0.00000000000E+00  0.00000000000E+00  0.10078151192E+04  0.10078159194E+04  0.12700000000E+01 0.  1.
         -4   -1    0    0    0  501 -0.00000000000E+00 -0.00000000000E+00 -0.37708959544E+01  0.39790144884E+01  0.12700000000E+01 0.  1.
         25    2    1    2    0    0  0.00000000000E+00  0.00000000000E+00  0.10040442233E+04  0.10117949339E+04  0.12499674397E+03 0.  0.
    9000005    1    3    3    0    0  0.53773483914E+01 -0.62182094300E+02  0.47704964292E+03  0.48111629627E+03  0.10000000000E+01 0.  0.
    9000005    1    3    3    0    0 -0.53773483914E+01  0.62182094300E+02  0.52699458036E+03  0.53067863765E+03  0.10000000000E+01 0.  0.
<mgrwt>
<rscale>  0 0.12499674E+03</rscale>
<asrwt>0</asrwt>
<pdfrwt beam="1">  1        4 0.25197992E+00 0.12499674E+03</pdfrwt>
<pdfrwt beam="2">  1       -4 0.96883874E-03 0.12499674E+03</pdfrwt>
<totfact> 0.36324034E+02</totfact>
</mgrwt>
</event>
<event>
 5    1  0.1433395E-002  0.1250013E+03  0.7818608E-02  0.1235067E+00
         -4   -1    0    0    0  501 -0.00000000000E+00  0.00000000000E+00  0.11201493639E+03  0.11202213565E+03  0.12700000000E+01 0.  1.
          4   -1    0    0  501    0  0.00000000000E+00 -0.00000000000E+00 -0.34853396032E+02  0.34876526705E+02  0.12700000000E+01 0.  1.
         25    2    1    2    0    0  0.00000000000E+00  0.00000000000E+00  0.77161540362E+02  0.14689866235E+03  0.12500125476E+03 0.  0.
    9000005    1    3    3    0    0 -0.12225221956E+01  0.62392297127E+02  0.42484610325E+02  0.75499903415E+02  0.10000000000E+01 0.  0.
    9000005    1    3    3    0    0  0.12225221956E+01 -0.62392297127E+02  0.34676930037E+02  0.71398758939E+02  0.10000000000E+01 0.  0.
<mgrwt>
<rscale>  0 0.12500125E+03</rscale>
<asrwt>0</asrwt>
<pdfrwt beam="2">  1        4 0.87171403E-02 0.12500125E+03</pdfrwt>
<pdfrwt beam="1">  1       -4 0.28007525E-01 0.12500125E+03</pdfrwt>
<totfact> 0.18691786E+03</totfact>
</mgrwt>
</event>
<event>
 5    1  0.1433395E-002  0.1249998E+03  0.7818608E-02  0.1235070E+00
          4   -1    0    0  501    0  0.00000000000E+00  0.00000000000E+00  0.33903953498E+03  0.33904191360E+03  0.12700000000E+01 0. -1.
         -4   -1    0    0    0  501 -0.00000000000E+00 -0.00000000000E+00 -0.11484065774E+02  0.11554075762E+02  0.12700000000E+01 0. -1.
         25    2    1    2    0    0  0.00000000000E+00  0.00000000000E+00  0.32755546920E+03  0.35059598936E+03  0.12499984941E+03 0.  0.
    9000005    1    3    3    0    0  0.59812149185E+02 -0.18103747804E+02  0.16389382692E+03  0.17540645762E+03  0.10000000000E+01 0.  0.
    9000005    1    3    3    0    0 -0.59812149185E+02  0.18103747804E+02  0.16366164229E+03  0.17518953174E+03  0.10000000000E+01 0.  0.
<mgrwt>
<rscale>  0 0.12499985E+03</rscale>
<asrwt>0</asrwt>
<pdfrwt beam="1">  1        4 0.84768929E-01 0.12499985E+03</pdfrwt>
<pdfrwt beam="2">  1       -4 0.28800651E-02 0.12499985E+03</pdfrwt>
<totfact> 0.11663158E+03</totfact>
</mgrwt>
</event>
<event>
 5    1  0.1433395E-002  0.1249973E+03  0.7818608E-02  0.1235074E+00
         -4   -1    0    0    0  501 -0.00000000000E+00  0.00000000000E+00  0.77994498888E+02  0.78004838035E+02  0.12700000000E+01 0. -1.
          4   -1    0    0  501    0  0.00000000000E+00 -0.00000000000E+00 -0.50059778693E+02  0.50075885842E+02  0.12700000000E+01 0. -1.
         25    2    1    2    0    0  0.00000000000E+00  0.00000000000E+00  0.27934720195E+02  0.12808072388E+03  0.12499729292E+03 0.  0.
    9000005    1    3    3    0    0  0.26327797888E+02 -0.54609376324E+02  0.29498564888E+02  0.67427755818E+02  0.10000000000E+01 0.  0.
    9000005    1    3    3    0    0 -0.26327797888E+02  0.54609376324E+02 -0.15638446933E+01  0.60652968059E+02  0.10000000000E+01 0.  0.
<mgrwt>
<rscale>  0 0.12499729E+03</rscale>
<asrwt>0</asrwt>
<pdfrwt beam="2">  1        4 0.12518251E-01 0.12499729E+03</pdfrwt>
<pdfrwt beam="1">  1       -4 0.19501930E-01 0.12499729E+03</pdfrwt>
<totfact> 0.19669386E+03</totfact>
</mgrwt>
</event>
<event>
 5    1  0.1433395E-002  0.1250024E+03  0.7818608E-02  0.1235066E+00
          4   -1    0    0  501    0  0.00000000000E+00  0.00000000000E+00  0.40934007258E+03  0.40934204270E+03  0.12700000000E+01 0. -1.
         -4   -1    0    0    0  501 -0.00000000000E+00 -0.00000000000E+00 -0.94989070717E+01  0.95834302605E+01  0.12700000000E+01 0. -1.
         25    2    1    2    0    0  0.00000000000E+00  0.00000000000E+00  0.39984116551E+03  0.41892547296E+03  0.12500237701E+03 0.  0.
    9000005    1    3    3    0    0  0.54861289233E+02 -0.23187419969E+02  0.26332923524E+03  0.26998278396E+03  0.10000000000E+01 0.  0.
    9000005    1    3    3    0    0 -0.54861289233E+02  0.23187419969E+02  0.13651193026E+03  0.14894268900E+03  0.10000000000E+01 0.  0.
<mgrwt>
<rscale>  0 0.12500238E+03</rscale>
<asrwt>0</asrwt>
<pdfrwt beam="1">  1        4 0.10234583E+00 0.12500238E+03</pdfrwt>
<pdfrwt beam="2">  1       -4 0.23855384E-02 0.12500238E+03</pdfrwt>
<totfact> 0.10186768E+03</totfact>
</mgrwt>
</event>
<event>
 5    1  0.1433395E-002  0.1250021E+03  0.7818608E-02  0.1235066E+00
         -4   -1    0    0    0  501 -0.00000000000E+00  0.00000000000E+00  0.12534393102E+02  0.12598567793E+02  0.12700000000E+01 0.  1.
          4   -1    0    0  501    0  0.00000000000E+00 -0.00000000000E+00 -0.31079165107E+03  0.31079424588E+03  0.12700000000E+01 0.  1.
         25    2    1    2    0    0  0.00000000000E+00  0.00000000000E+00 -0.29825725796E+03  0.32339281367E+03  0.12500208001E+03 0.  0.
    9000005    1    3    3    0    0  0.57847705786E+02  0.22484192976E+02 -0.16804880096E+03  0.17914601727E+03  0.10000000000E+01 0.  0.
    9000005    1    3    3    0    0 -0.57847705786E+02 -0.22484192976E+02 -0.13020845700E+03  0.14424679641E+03  0.10000000000E+01 0.  0.
<mgrwt>
<rscale>  0 0.12500208E+03</rscale>
<asrwt>0</asrwt>
<pdfrwt beam="2">  1        4 0.77706234E-01 0.12500208E+03</pdfrwt>
<pdfrwt beam="1">  1       -4 0.31419455E-02 0.12500208E+03</pdfrwt>
<totfact> 0.12339276E+03</totfact>
</mgrwt>
</event>
<event>
 5    1  0.1433395E-002  0.1250017E+03  0.7818608E-02  0.1235067E+00
         -4   -1    0    0    0  501 -0.00000000000E+00  0.00000000000E+00  0.55430117777E+03  0.55430263266E+03  0.12700000000E+01 0. -1.
          4   -1    0    0  501    0  0.00000000000E+00 -0.00000000000E+00 -0.69886624113E+01  0.71031191951E+01  0.12700000000E+01 0. -1.
         25    2    1    2    0    0  0.00000000000E+00  0.00000000000E+00  0.54731251535E+03  0.56140575185E+03  0.12500171499E+03 0.  0.
    9000005    1    3    3    0    0 -0.88922329801E+01 -0.55015090714E+02  0.40065637307E+03  0.40451484681E+03  0.10000000000E+01 0.  0.
    9000005    1    3    3    0    0  0.88922329801E+01  0.55015090714E+02  0.14665614229E+03  0.15689090504E+03  0.10000000000E+01 0.  0.
<mgrwt>
<rscale>  0 0.12500171E+03</rscale>
<asrwt>0</asrwt>
<pdfrwt beam="2">  1        4 0.17616544E-02 0.12500171E+03</pdfrwt>
<pdfrwt beam="1">  1       -4 0.13858980E+00 0.12500171E+03</pdfrwt>
<totfact> 0.78580594E+02</totfact>
</mgrwt>
</event>
<event>
 5    1  0.1433395E-002  0.1249979E+03  0.7818608E-02  0.1235073E+00
         -4   -1    0    0    0  501 -0.00000000000E+00  0.00000000000E+00  0.31484314774E+03  0.31484570916E+03  0.12700000000E+01 0.  1.
          4   -1    0    0  501    0  0.00000000000E+00 -0.00000000000E+00 -0.12371425005E+02  0.12436440674E+02  0.12700000000E+01 0.  1.
         25    2    1    2    0    0  0.00000000000E+00  0.00000000000E+00  0.30247172273E+03  0.32728214983E+03  0.12499785017E+03 0.  0.
    9000005    1    3    3    0    0  0.11201955282E+02  0.50826877137E+02  0.60676648714E+02  0.79946925774E+02  0.10000000000E+01 0.  0.
    9000005    1    3    3    0    0 -0.11201955282E+02 -0.50826877137E+02  0.24179507402E+03  0.24733522406E+03  0.10000000000E+01 0.  0.
<mgrwt>
<rscale>  0 0.12499785E+03</rscale>
<asrwt>0</asrwt>
<pdfrwt beam="2">  1        4 0.31013033E-02 0.12499785E+03</pdfrwt>
<pdfrwt beam="1">  1       -4 0.78719235E-01 0.12499785E+03</pdfrwt>
<totfact> 0.12240063E+03</totfact>
</mgrwt>
</event>
<event>
 5    1  0.1433395E-002  0.1250026E+03  0.7818608E-02  0.1235065E+00
          4   -1    0    0  501    0  0.00000000000E+00  0.00000000000E+00  0.16177808430E+02  0.16227581015E+02  0.12700000000E+01 0.  1.
         -4   -1    0    0    0  501 -0.00000000000E+00 -0.00000000000E+00 -0.24104500549E+03  0.24104835111E+03  0.12700000000E+01 0.  1.
         25    2    1    2    0    0  0.00000000000E+00  0.00000000000E+00 -0.22486719706E+03  0.25727593212E+03  0.12500259572E+03 0.  0.
    9000005    1    3    3    0    0  0.42145559027E+02  0.10519238063E+02 -0.20490246874E+03  0.20945864558E+03  0.10000000000E+01 0.  0.
    9000005    1    3    3    0    0 -0.42145559027E+02 -0.10519238063E+02 -0.19964728324E+02  0.47817286541E+02  0.10000000000E+01 0.  0.
<mgrwt>
<rscale>  0 0.12500260E+03</rscale>
<asrwt>0</asrwt>
<pdfrwt beam="1">  1        4 0.40510927E-02 0.12500260E+03</pdfrwt>
<pdfrwt beam="2">  1       -4 0.60267880E-01 0.12500260E+03</pdfrwt>
<totfact> 0.14258194E+03</totfact>
</mgrwt>
</event>
<event>
 5    1  0.1433395E-002  0.1250001E+03  0.7818608E-02  0.1235069E+00
         -4   -1    0    0    0  501 -0.00000000000E+00  0.00000000000E+00  0.21955320585E+03  0.21955687896E+03  0.12700000000E+01 0. -1.
          4   -1    0    0  501    0  0.00000000000E+00 -0.00000000000E+00 -0.17765349205E+02  0.17810685904E+02  0.12700000000E+01 0. -1.
         25    2    1    2    0    0  0.00000000000E+00  0.00000000000E+00  0.20178785664E+03  0.23736756486E+03  0.12500008704E+03 0.  0.
    9000005    1    3    3    0    0 -0.31163135408E+02 -0.53364223228E+01  0.20325427302E+03  0.20570104013E+03  0.10000000000E+01 0.  0.
    9000005    1    3    3    0    0  0.31163135408E+02  0.53364223228E+01 -0.14664163728E+01  0.31666524732E+02  0.10000000000E+01 0.  0.
<mgrwt>
<rscale>  0 0.12500009E+03</rscale>
<asrwt>0</asrwt>
<pdfrwt beam="2">  1        4 0.44474636E-02 0.12500009E+03</pdfrwt>
<pdfrwt beam="1">  1       -4 0.54894427E-01 0.12500009E+03</pdfrwt>
<totfact> 0.14927547E+03</totfact>
</mgrwt>
</event>
<event>
 5    1  0.1433395E-002  0.1249976E+03  0.7818608E-02  0.1235073E+00
         -4   -1    0    0    0  501 -0.00000000000E+00  0.00000000000E+00  0.16958085812E+03  0.16958561360E+03  0.12700000000E+01 0.  1.
          4   -1    0    0  501    0  0.00000000000E+00 -0.00000000000E+00 -0.23011279060E+02  0.23046298271E+02  0.12700000000E+01 0.  1.
         25    2    1    2    0    0  0.00000000000E+00  0.00000000000E+00  0.14656957906E+03  0.19263191187E+03  0.12499764784E+03 0.  0.
    9000005    1    3    3    0    0 -0.54563898415E+02 -0.94679726589E+00  0.26364212282E+02  0.60615073411E+02  0.10000000000E+01 0.  0.
    9000005    1    3    3    0    0  0.54563898415E+02  0.94679726589E+00  0.12020536678E+03  0.13201683846E+03  0.10000000000E+01 0.  0.
<mgrwt>
<rscale>  0 0.12499765E+03</rscale>
<asrwt>0</asrwt>
<pdfrwt beam="2">  1        4 0.57577917E-02 0.12499765E+03</pdfrwt>
<pdfrwt beam="1">  1       -4 0.42400186E-01 0.12499765E+03</pdfrwt>
<totfact> 0.16622290E+03</totfact>
</mgrwt>
</event>
<event>
 5    1  0.1433395E-002  0.1249969E+03  0.7818608E-02  0.1235074E+00
         -4   -1    0    0    0  501 -0.00000000000E+00  0.00000000000E+00  0.27132023171E+03  0.27132320401E+03  0.12700000000E+01 0.  1.
          4   -1    0    0  501    0  0.00000000000E+00 -0.00000000000E+00 -0.14365422249E+02  0.14421451258E+02  0.12700000000E+01 0.  1.
         25    2    1    2    0    0  0.00000000000E+00  0.00000000000E+00  0.25695480946E+03  0.28574465527E+03  0.12499693560E+03 0.  0.
    9000005    1    3    3    0    0  0.35394111225E+02 -0.27950917944E+02  0.22736066735E+03  0.23179273065E+03  0.10000000000E+01 0.  0.
    9000005    1    3    3    0    0 -0.35394111225E+02  0.27950917944E+02  0.29594142117E+02  0.53951924627E+02  0.10000000000E+01 0.  0.
<mgrwt>
<rscale>  0 0.12499694E+03</rscale>
<asrwt>0</asrwt>
<pdfrwt beam="2">  1        4 0.35987306E-02 0.12499694E+03</pdfrwt>
<pdfrwt beam="1">  1       -4 0.67837436E-01 0.12499694E+03</pdfrwt>
<totfact> 0.13381148E+03</totfact>
</mgrwt>
</event>
<event>
 5    1  0.1433395E-002  0.1250015E+03  0.7818608E-02  0.1235067E+00
          4   -1    0    0  501    0  0.00000000000E+00  0.00000000000E+00  0.38900585213E+02  0.38921310743E+02  0.12700000000E+01 0.  1.
         -4   -1    0    0    0  501 -0.00000000000E+00 -0.00000000000E+00 -0.10036720673E+03  0.10037524140E+03  0.12700000000E+01 0.  1.
         25    2    1    2    0    0  0.00000000000E+00  0.00000000000E+00 -0.61466621513E+02  0.13929655214E+03  0.12500153550E+03 0.  0.
    9000005    1    3    3    0    0  0.20792974292E+02  0.47069736744E+02 -0.70248887221E+02  0.87085096617E+02  0.10000000000E+01 0.  0.
    9000005    1    3    3    0    0 -0.20792974292E+02 -0.47069736744E+02  0.87822657084E+01  0.52211455525E+02  0.10000000000E+01 0.  0.
<mgrwt>
<rscale>  0 0.12500154E+03</rscale>
<asrwt>0</asrwt>
<pdfrwt beam="1">  1        4 0.97287415E-02 0.12500154E+03</pdfrwt>
<pdfrwt beam="2">  1       -4 0.25095396E-01 0.12500154E+03</pdfrwt>
<totfact> 0.19075704E+03</totfact>
</mgrwt>
</event>
<event>
 5    1  0.1433395E-002  0.1249997E+03  0.7818608E-02  0.1235070E+00
          4   -1    0    0  501    0  0.00000000000E+00  0.00000000000E+00  0.12887500589E+03  0.12888126335E+03  0.12700000000E+01 0. -1.
         -4   -1    0    0    0  501 -0.00000000000E+00 -0.00000000000E+00 -0.30289934616E+02  0.30316547281E+02  0.12700000000E+01 0. -1.
         25    2    1    2    0    0  0.00000000000E+00  0.00000000000E+00  0.98585071273E+02  0.15919781063E+03  0.12499970653E+03 0.  0.
    9000005    1    3    3    0    0 -0.43281385189E+02  0.45041917161E+02  0.51563325516E+02  0.81005118009E+02  0.10000000000E+01 0.  0.
    9000005    1    3    3    0    0  0.43281385189E+02 -0.45041917161E+02  0.47021745758E+02  0.78192692622E+02  0.10000000000E+01 0.  0.
<mgrwt>
<rscale>  0 0.12499971E+03</rscale>
<asrwt>0</asrwt>
<pdfrwt beam="1">  1        4 0.32222860E-01 0.12499971E+03</pdfrwt>
<pdfrwt beam="2">  1       -4 0.75765925E-02 0.12499971E+03</pdfrwt>
<totfact> 0.18095695E+03</totfact>
</mgrwt>
</event>
<event>
 5    1  0.1433395E-002  0.1249979E+03  0.7818608E-02  0.1235073E+00
          4   -1    0    0  501    0  0.00000000000E+00  0.00000000000E+00  0.52306533408E+02  0.52321948905E+02  0.12700000000E+01 0.  1.
         -4   -1    0    0    0  501 -0.00000000000E+00 -0.00000000000E+00 -0.74645633539E+02  0.74656436470E+02  0.12700000000E+01 0.  1.
         25    2    1    2    0    0  0.00000000000E+00  0.00000000000E+00 -0.22339100130E+02  0.12697838537E+03  0.12499789981E+03 0.  0.
    9000005    1    3    3    0    0  0.46603067439E+01  0.61871275547E+02 -0.18726880457E+02  0.64818741491E+02  0.10000000000E+01 0.  0.
    9000005    1    3    3    0    0 -0.46603067439E+01 -0.61871275547E+02 -0.36122196737E+01  0.62159643884E+02  0.10000000000E+01 0.  0.
<mgrwt>
<rscale>  0 0.12499790E+03</rscale>
<asrwt>0</asrwt>
<pdfrwt beam="1">  1        4 0.13079911E-01 0.12499790E+03</pdfrwt>
<pdfrwt beam="2">  1       -4 0.18664686E-01 0.12499790E+03</pdfrwt>
<totfact> 0.19729110E+03</totfact>
</mgrwt>
</event>
<event>
 5    1  0.1433395E-002  0.1249974E+03  0.7818608E-02  0.1235073E+00
         -4   -1    0    0    0  501 -0.00000000000E+00  0.00000000000E+00  0.18509270701E+03  0.18509706396E+03  0.12700000000E+01 0.  1.
          4   -1    0    0  501    0  0.00000000000E+00 -0.00000000000E+00 -0.21079694971E+02  0.21117917513E+02  0.12700000000E+01 0.  1.
         25    2    1    2    0    0  0.00000000000E+00  0.00000000000E+00  0.16401301204E+03  0.20621498147E+03  0.12499740184E+03 0.  0.
    9000005    1    3    3    0    0 -0.30946445448E+02  0.51127424366E+02  0.11212939074E+03  0.12706571637E+03  0.10000000000E+01 0.  0.
    9000005    1    3    3    0    0  0.30946445448E+02 -0.51127424366E+02  0.51883621298E+02  0.79149265108E+02  0.10000000000E+01 0.  0.
<mgrwt>
<rscale>  0 0.12499740E+03</rscale>
<asrwt>0</asrwt>
<pdfrwt beam="2">  1        4 0.52752464E-02 0.12499740E+03</pdfrwt>
<pdfrwt beam="1">  1       -4 0.46278497E-01 0.12499740E+03</pdfrwt>
<totfact> 0.16077138E+03</totfact>
</mgrwt>
</event>
<event>
 5    1  0.1433395E-002  0.1249968E+03  0.7818608E-02  0.1235074E+00
         -4   -1    0    0    0  501 -0.00000000000E+00  0.00000000000E+00  0.85399068266E+02  0.85408511055E+02  0.12700000000E+01 0.  1.
          4   -1    0    0  501    0  0.00000000000E+00 -0.00000000000E+00 -0.45717981338E+02  0.45735617604E+02  0.12700000000E+01 0.  1.
         25    2    1    2    0    0  0.00000000000E+00  0.00000000000E+00  0.39681086928E+02  0.13114412866E+03  0.12499677525E+03 0.  0.
    9000005    1    3    3    0    0 -0.39754631357E+02  0.44123472768E+02  0.40231835495E+02  0.71741983181E+02  0.10000000000E+01 0.  0.
    9000005    1    3    3    0    0  0.39754631357E+02 -0.44123472768E+02 -0.55074856734E+00  0.59402145478E+02  0.10000000000E+01 0.  0.
<mgrwt>
<rscale>  0 0.12499678E+03</rscale>
<asrwt>0</asrwt>
<pdfrwt beam="2">  1        4 0.11432880E-01 0.12499678E+03</pdfrwt>
<pdfrwt beam="1">  1       -4 0.21353152E-01 0.12499678E+03</pdfrwt>
<totfact> 0.19504539E+03</totfact>
</mgrwt>
</event>
<event>
 5    1  0.1433395E-002  0.1250086E+03  0.7818608E-02  0.1235056E+00
         -4   -1    0    0    0  501 -0.00000000000E+00  0.00000000000E+00  0.28716633112E+02  0.28744702421E+02  0.12700000000E+01 0.  1.
          4   -1    0    0  501    0  0.00000000000E+00 -0.00000000000E+00 -0.13594868081E+03  0.13595461269E+03  0.12700000000E+01 0.  1.
         25    2    1    2    0    0  0.00000000000E+00  0.00000000000E+00 -0.10723204769E+03  0.16469931512E+03  0.12500860909E+03 0.  0.
    9000005    1    3    3    0    0  0.10001696817E+02 -0.58714488543E+02 -0.28675048018E+02  0.66111144922E+02  0.10000000000E+01 0.  0.
    9000005    1    3    3    0    0 -0.10001696817E+02  0.58714488543E+02 -0.78556999675E+02  0.98588170193E+02  0.10000000000E+01 0.  0.
<mgrwt>
<rscale>  0 0.12500861E+03</rscale>
<asrwt>0</asrwt>
<pdfrwt beam="2">  1        4 0.33991419E-01 0.12500861E+03</pdfrwt>
<pdfrwt beam="1">  1       -4 0.71834088E-02 0.12500861E+03</pdfrwt>
<totfact> 0.17835248E+03</totfact>
</mgrwt>
</event>
<event>
 5    1  0.1433395E-002  0.1249943E+03  0.7818608E-02  0.1235078E+00
         -4   -1    0    0    0  501 -0.00000000000E+00  0.00000000000E+00  0.21760251697E+02  0.21797280884E+02  0.12700000000E+01 0. -1.
          4   -1    0    0  501    0  0.00000000000E+00 -0.00000000000E+00 -0.17930498293E+03  0.17930948052E+03  0.12700000000E+01 0. -1.
         25    2    1    2    0    0  0.00000000000E+00  0.00000000000E+00 -0.15754473123E+03  0.20110676140E+03  0.12499434844E+03 0.  0.
    9000005    1    3    3    0    0 -0.55599931320E+02  0.11597971634E+02 -0.36846576213E+02  0.67709197953E+02  0.10000000000E+01 0.  0.
    9000005    1    3    3    0    0  0.55599931320E+02 -0.11597971634E+02 -0.12069815502E+03  0.13339756345E+03  0.10000000000E+01 0.  0.
<mgrwt>
<rscale>  0 0.12499435E+03</rscale>
<asrwt>0</asrwt>
<pdfrwt beam="2">  1        4 0.44831432E-01 0.12499435E+03</pdfrwt>
<pdfrwt beam="1">  1       -4 0.54452543E-02 0.12499435E+03</pdfrwt>
<totfact> 0.16279948E+03</totfact>
</mgrwt>
</event>
<event>
 5    1  0.1433395E-002  0.1250031E+03  0.7818608E-02  0.1235064E+00
          4   -1    0    0  501    0  0.00000000000E+00  0.00000000000E+00  0.37595655816E+02  0.37617100317E+02  0.12700000000E+01 0. -1.
         -4   -1    0    0    0  501 -0.00000000000E+00 -0.00000000000E+00 -0.10385190107E+03  0.10385966616E+03  0.12700000000E+01 0. -1.
         25    2    1    2    0    0  0.00000000000E+00  0.00000000000E+00 -0.66256245250E+02  0.14147676648E+03  0.12500314163E+03 0.  0.
    9000005    1    3    3    0    0  0.97724899348E+01 -0.25185325160E+02  0.30651231308E+02  0.40869305642E+02  0.10000000000E+01 0.  0.
    9000005    1    3    3    0    0 -0.97724899348E+01  0.25185325160E+02 -0.96907476558E+02  0.10060746084E+03  0.10000000000E+01 0.  0.
<mgrwt>
<rscale>  0 0.12500314E+03</rscale>
<asrwt>0</asrwt>
<pdfrwt beam="1">  1        4 0.94025654E-02 0.12500314E+03</pdfrwt>
<pdfrwt beam="2">  1       -4 0.25966626E-01 0.12500314E+03</pdfrwt>
<totfact> 0.18963658E+03</totfact>
</mgrwt>
</event>
<event>
 5    1  0.1433395E-002  0.1249999E+03  0.7818608E-02  0.1235069E+00
         -4   -1    0    0    0  501 -0.00000000000E+00  0.00000000000E+00  0.12224176033E+02  0.12289970695E+02  0.12700000000E+01 0. -1.
          4   -1    0    0  501    0  0.00000000000E+00 -0.00000000000E+00 -0.31862609347E+03  0.31862862448E+03  0.12700000000E+01 0. -1.
         25    2    1    2    0    0  0.00000000000E+00  0.00000000000E+00 -0.30640191744E+03  0.33091859518E+03  0.12499992650E+03 0.  0.
    9000005    1    3    3    0    0  0.31081089038E+02  0.20063124739E+02 -0.19865869230E+02  0.42002569330E+02  0.10000000000E+01 0.  0.
    9000005    1    3    3    0    0 -0.31081089038E+02 -0.20063124739E+02 -0.28653604821E+03  0.28891602585E+03  0.10000000000E+01 0.  0.
<mgrwt>
<rscale>  0 0.12499993E+03</rscale>
<asrwt>0</asrwt>
<pdfrwt beam="2">  1        4 0.79665037E-01 0.12499993E+03</pdfrwt>
<pdfrwt beam="1">  1       -4 0.30645858E-02 0.12499993E+03</pdfrwt>
<totfact> 0.12146731E+03</totfact>
</mgrwt>
</event>
<event>
 5    1  0.1433395E-002  0.1249978E+03  0.7818608E-02  0.1235073E+00
         -4   -1    0    0    0  501 -0.00000000000E+00  0.00000000000E+00  0.84487831059E+02  0.84497375681E+02  0.12700000000E+01 0.  1.
          4   -1    0    0  501    0  0.00000000000E+00 -0.00000000000E+00 -0.46211942450E+02  0.46229390273E+02  0.12700000000E+01 0.  1.
         25    2    1    2    0    0  0.00000000000E+00  0.00000000000E+00  0.38275888609E+02  0.13072676595E+03  0.12499777473E+03 0.  0.
    9000005    1    3    3    0    0  0.58259478501E+02 -0.10340189438E+02 -0.18836729111E+01  0.59208399543E+02  0.10000000000E+01 0.  0.
    9000005    1    3    3    0    0 -0.58259478501E+02  0.10340189438E+02  0.40159561520E+02  0.71518366412E+02  0.10000000000E+01 0.  0.
<mgrwt>
<rscale>  0 0.12499777E+03</rscale>
<asrwt>0</asrwt>
<pdfrwt beam="2">  1        4 0.11556360E-01 0.12499777E+03</pdfrwt>
<pdfrwt beam="1">  1       -4 0.21125332E-01 0.12499777E+03</pdfrwt>
<totfact> 0.19526406E+03</totfact>
</mgrwt>
</event>
<event>
 5    1  0.1433395E-002  0.1249990E+03  0.7818608E-02  0.1235071E+00
          4   -1    0    0  501    0  0.00000000000E+00  0.00000000000E+00  0.24206822520E+02  0.24240114614E+02  0.12700000000E+01 0. -1.
         -4   -1    0    0    0  501 -0.00000000000E+00 -0.00000000000E+00 -0.16122041156E+03  0.16122541364E+03  0.12700000000E+01 0. -1.
         25    2    1    2    0    0  0.00000000000E+00  0.00000000000E+00 -0.13701358904E+03  0.18546552826E+03  0.12499895435E+03 0.  0.
    9000005    1    3    3    0    0  0.42475315732E+01 -0.46367929257E+02 -0.66657931192E+01  0.47047414233E+02  0.10000000000E+01 0.  0.
    9000005    1    3    3    0    0 -0.42475315732E+01  0.46367929257E+02 -0.13034779592E+03  0.13841811402E+03  0.10000000000E+01 0.  0.
<mgrwt>
<rscale>  0 0.12499895E+03</rscale>
<asrwt>0</asrwt>
<pdfrwt beam="1">  1        4 0.60564929E-02 0.12499895E+03</pdfrwt>
<pdfrwt beam="2">  1       -4 0.40309887E-01 0.12499895E+03</pdfrwt>
<totfact> 0.16921468E+03</totfact>
</mgrwt>
</event>
<event>
 5    1  0.1433395E-002  0.1249986E+03  0.7818608E-02  0.1235072E+00
          4   -1    0    0  501    0  0.00000000000E+00  0.00000000000E+00  0.17265898831E+03  0.17266365901E+03  0.12700000000E+01 0. -1.
         -4   -1    0    0    0  501 -0.00000000000E+00 -0.00000000000E+00 -0.22600748152E+02  0.22636402475E+02  0.12700000000E+01 0. -1.
         25    2    1    2    0    0  0.00000000000E+00  0.00000000000E+00  0.15005824015E+03  0.19530006149E+03  0.12499855430E+03 0.  0.
    9000005    1    3    3    0    0 -0.10906513767E+02  0.54620022959E+02  0.30758308035E+02  0.63634679725E+02  0.10000000000E+01 0.  0.
    9000005    1    3    3    0    0  0.10906513767E+02 -0.54620022959E+02  0.11929993212E+03  0.13166538176E+03  0.10000000000E+01 0.  0.
<mgrwt>
<rscale>  0 0.12499855E+03</rscale>
<asrwt>0</asrwt>
<pdfrwt beam="1">  1        4 0.43169787E-01 0.12499855E+03</pdfrwt>
<pdfrwt beam="2">  1       -4 0.56552277E-02 0.12499855E+03</pdfrwt>
<totfact> 0.16512532E+03</totfact>
</mgrwt>
</event>
<event>
 5    1  0.1433395E-002  0.1249987E+03  0.7818608E-02  0.1235071E+00
         -4   -1    0    0    0  501 -0.00000000000E+00  0.00000000000E+00  0.92049346183E+02  0.92058106827E+02  0.12700000000E+01 0. -1.
          4   -1    0    0  501    0  0.00000000000E+00 -0.00000000000E+00 -0.42415287281E+02  0.42434296213E+02  0.12700000000E+01 0. -1.
         25    2    1    2    0    0  0.00000000000E+00  0.00000000000E+00  0.49634058902E+02  0.13449240304E+03  0.12499866668E+03 0.  0.
    9000005    1    3    3    0    0 -0.21622672777E+02 -0.87442986089E+00 -0.38260318289E+02  0.43967676322E+02  0.10000000000E+01 0.  0.
    9000005    1    3    3    0    0  0.21622672777E+02  0.87442986089E+00  0.87894377191E+02  0.90524726718E+02  0.10000000000E+01 0.  0.
<mgrwt>
<rscale>  0 0.12499867E+03</rscale>
<asrwt>0</asrwt>
<pdfrwt beam="2">  1        4 0.10607293E-01 0.12499867E+03</pdfrwt>
<pdfrwt beam="1">  1       -4 0.23015808E-01 0.12499867E+03</pdfrwt>
<totfact> 0.19326359E+03</totfact>
</mgrwt>
</event>
<event>
 5    1  0.1433395E-002  0.1249851E+03  0.7818608E-02  0.1235093E+00
         -4   -1    0    0    0  501 -0.00000000000E+00  0.00000000000E+00  0.29484819075E+02  0.29512157764E+02  0.12700000000E+01 0. -1.
          4   -1    0    0  501    0  0.00000000000E+00 -0.00000000000E+00 -0.13235998426E+03  0.13236607698E+03  0.12700000000E+01 0. -1.
         25    2    1    2    0    0  0.00000000000E+00  0.00000000000E+00 -0.10287516519E+03  0.16187823474E+03  0.12498505219E+03 0.  0.
    9000005    1    3    3    0    0  0.44772762393E+02 -0.10009061989E+02 -0.10638033874E+03  0.11585576397E+03  0.10000000000E+01 0.  0.
    9000005    1    3    3    0    0 -0.44772762393E+02  0.10009061989E+02  0.35051735539E+01  0.46022470771E+02  0.10000000000E+01 0.  0.
<mgrwt>
<rscale>  0 0.12498505E+03</rscale>
<asrwt>0</asrwt>
<pdfrwt beam="2">  1        4 0.33094173E-01 0.12498505E+03</pdfrwt>
<pdfrwt beam="1">  1       -4 0.73753840E-02 0.12498505E+03</pdfrwt>
<totfact> 0.17975962E+03</totfact>
</mgrwt>
</event>
<event>
 5    1  0.1433395E-002  0.1250021E+03  0.7818608E-02  0.1235066E+00
          4   -1    0    0  501    0  0.00000000000E+00  0.00000000000E+00  0.74344572940E+01  0.75421518983E+01  0.12700000000E+01 0.  1.
         -4   -1    0    0    0  501 -0.00000000000E+00 -0.00000000000E+00 -0.52155601266E+03  0.52155755889E+03  0.12700000000E+01 0.  1.
         25    2    1    2    0    0  0.00000000000E+00  0.00000000000E+00 -0.51412155536E+03  0.52909971079E+03  0.12500212107E+03 0.  0.
    9000005    1    3    3    0    0 -0.38975009510E+02  0.11397050088E+02 -0.45812365243E+03  0.45992088997E+03  0.10000000000E+01 0.  0.
    9000005    1    3    3    0    0  0.38975009510E+02 -0.11397050088E+02 -0.55997902932E+02  0.69178820818E+02  0.10000000000E+01 0.  0.
<mgrwt>
<rscale>  0 0.12500212E+03</rscale>
<asrwt>0</asrwt>
<pdfrwt beam="1">  1        4 0.18722712E-02 0.12500212E+03</pdfrwt>
<pdfrwt beam="2">  1       -4 0.13040254E+00 0.12500212E+03</pdfrwt>
<totfact> 0.83153156E+02</totfact>
</mgrwt>
</event>
<event>
 5    1  0.1433395E-002  0.1250030E+03  0.7818608E-02  0.1235065E+00
          4   -1    0    0  501    0  0.00000000000E+00  0.00000000000E+00  0.11278237832E+03  0.11278952859E+03  0.12700000000E+01 0. -1.
         -4   -1    0    0    0  501 -0.00000000000E+00 -0.00000000000E+00 -0.34617083020E+02  0.34640371487E+02  0.12700000000E+01 0. -1.
         25    2    1    2    0    0  0.00000000000E+00  0.00000000000E+00  0.78165295305E+02  0.14742990008E+03  0.12500304815E+03 0.  0.
    9000005    1    3    3    0    0  0.41233108059E+02  0.39829643579E+02  0.68422975707E+02  0.89270786445E+02  0.10000000000E+01 0.  0.
    9000005    1    3    3    0    0 -0.41233108059E+02 -0.39829643579E+02  0.97423195979E+01  0.58159113637E+02  0.10000000000E+01 0.  0.
<mgrwt>
<rscale>  0 0.12500305E+03</rscale>
<asrwt>0</asrwt>
<pdfrwt beam="1">  1        4 0.28199399E-01 0.12500305E+03</pdfrwt>
<pdfrwt beam="2">  1       -4 0.86580757E-02 0.12500305E+03</pdfrwt>
<totfact> 0.18664555E+03</totfact>
</mgrwt>
</event>
<event>
 4    1  0.1433395E-002  0.1249335E+03  0.7818608E-02  0.1235173E+00
         -4   -1    0    0    0  501 -0.00000000000E+00  0.00000000000E+00  0.23623839315E+02  0.23657951813E+02  0.12700000000E+01 0. -1.
          4   -1    0    0  501    0  0.00000000000E+00 -0.00000000000E+00 -0.16502051120E+03  0.16502539809E+03  0.12700000000E+01 0. -1.
    9000005    1    1    2    0    0 -0.89769338084E+01 -0.23189446272E+02  0.15833157607E+02  0.29496180071E+02  0.10000000000E+01 0.  0.
    9000005    1    1    2    0    0  0.89769338084E+01  0.23189446272E+02 -0.15722982949E+03  0.15918716984E+03  0.10000000000E+01 0.  0.
<mgrwt>
<rscale>  0 0.12493353E+03</rscale>
<asrwt>0</asrwt>
<pdfrwt beam="2">  1        4 0.41259999E-01 0.12493353E+03</pdfrwt>
<pdfrwt beam="1">  1       -4 0.59108352E-02 0.12493353E+03</pdfrwt>
<totfact> 0.16811293E+03</totfact>
</mgrwt>
</event>
<event>
 5    1  0.1433395E-002  0.1249992E+03  0.7818608E-02  0.1235071E+00
          4   -1    0    0  501    0  0.00000000000E+00  0.00000000000E+00  0.70760744225E+01  0.71891396726E+01  0.12700000000E+01 0. -1.
         -4   -1    0    0    0  501 -0.00000000000E+00 -0.00000000000E+00 -0.54753997626E+03  0.54754144912E+03  0.12700000000E+01 0. -1.
         25    2    1    2    0    0  0.00000000000E+00  0.00000000000E+00 -0.54046390184E+03  0.55473058879E+03  0.12499918780E+03 0.  0.
    9000005    1    3    3    0    0  0.58763060510E+02 -0.24382137912E+01 -0.36397062652E+03  0.36869317750E+03  0.10000000000E+01 0.  0.
    9000005    1    3    3    0    0 -0.58763060510E+02  0.24382137912E+01 -0.17649327532E+03  0.18603741129E+03  0.10000000000E+01 0.  0.
<mgrwt>
<rscale>  0 0.12499919E+03</rscale>
<asrwt>0</asrwt>
<pdfrwt beam="1">  1        4 0.17833377E-02 0.12499919E+03</pdfrwt>
<pdfrwt beam="2">  1       -4 0.13689917E+00 0.12499919E+03</pdfrwt>
<totfact> 0.79511596E+02</totfact>
</mgrwt>
</event>
<event>
 5    1  0.1433395E-002  0.1249855E+03  0.7818608E-02  0.1235092E+00
          4   -1    0    0  501    0  0.00000000000E+00  0.00000000000E+00  0.67130142650E+02  0.67142154808E+02  0.12700000000E+01 0.  1.
         -4   -1    0    0    0  501 -0.00000000000E+00 -0.00000000000E+00 -0.58151517560E+02  0.58165383988E+02  0.12700000000E+01 0.  1.
         25    2    1    2    0    0  0.00000000000E+00  0.00000000000E+00  0.89786250902E+01  0.12530753880E+03  0.12498545344E+03 0.  0.
    9000005    1    3    3    0    0  0.57508018071E+02 -0.24020666850E+02  0.89926930871E+01  0.62976448831E+02  0.10000000000E+01 0.  0.
    9000005    1    3    3    0    0 -0.57508018071E+02  0.24020666850E+02 -0.14067996901E-01  0.62331089965E+02  0.10000000000E+01 0.  0.
<mgrwt>
<rscale>  0 0.12498545E+03</rscale>
<asrwt>0</asrwt>
<pdfrwt beam="1">  1        4 0.16785770E-01 0.12498545E+03</pdfrwt>
<pdfrwt beam="2">  1       -4 0.14541114E-01 0.12498545E+03</pdfrwt>
<totfact> 0.19825133E+03</totfact>
</mgrwt>
</event>
<event>
 5    1  0.1433395E-002  0.1250009E+03  0.7818608E-02  0.1235068E+00
          4   -1    0    0  501    0  0.00000000000E+00  0.00000000000E+00  0.62383291658E+03  0.62383420931E+03  0.12700000000E+01 0. -1.
         -4   -1    0    0    0  501 -0.00000000000E+00 -0.00000000000E+00 -0.61960744419E+01  0.63248903934E+01  0.12700000000E+01 0. -1.
         25    2    1    2    0    0  0.00000000000E+00  0.00000000000E+00  0.61763684214E+03  0.63015909970E+03  0.12500088870E+03 0.  0.
    9000005    1    3    3    0    0  0.52736355877E+02  0.29628569729E+02  0.22969666577E+03  0.23753006892E+03  0.10000000000E+01 0.  0.
    9000005    1    3    3    0    0 -0.52736355877E+02 -0.29628569729E+02  0.38794017637E+03  0.39262903079E+03  0.10000000000E+01 0.  0.
<mgrwt>
<rscale>  0 0.12500089E+03</rscale>
<asrwt>0</asrwt>
<pdfrwt beam="1">  1        4 0.15597447E+00 0.12500089E+03</pdfrwt>
<pdfrwt beam="2">  1       -4 0.15652824E-02 0.12500089E+03</pdfrwt>
<totfact> 0.69826377E+02</totfact>
</mgrwt>
</event>
<event>
 5    1  0.1433395E-002  0.1250042E+03  0.7818608E-02  0.1235063E+00
          4   -1    0    0  501    0  0.00000000000E+00  0.00000000000E+00  0.13195245481E+03  0.13195856634E+03  0.12700000000E+01 0.  1.
         -4   -1    0    0    0  501 -0.00000000000E+00 -0.00000000000E+00 -0.29585018326E+02  0.29612264509E+02  0.12700000000E+01 0.  1.
         25    2    1    2    0    0  0.00000000000E+00  0.00000000000E+00  0.10236743649E+03  0.16157083085E+03  0.12500416525E+03 0.  0.
    9000005    1    3    3    0    0  0.16281546705E+02 -0.48238081778E+02  0.98027829767E+02  0.11046473060E+03  0.10000000000E+01 0.  0.
    9000005    1    3    3    0    0 -0.16281546705E+02  0.48238081778E+02  0.43396067188E+01  0.51106100254E+02  0.10000000000E+01 0.  0.
<mgrwt>
<rscale>  0 0.12500417E+03</rscale>
<asrwt>0</asrwt>
<pdfrwt beam="1">  1        4 0.32992283E-01 0.12500417E+03</pdfrwt>
<pdfrwt beam="2">  1       -4 0.74004244E-02 0.12500417E+03</pdfrwt>
<totfact> 0.17982338E+03</totfact>
</mgrwt>
</event>
<event>
 5    1  0.1433395E-002  0.1250071E+03  0.7818608E-02  0.1235058E+00
          4   -1    0    0  501    0  0.00000000000E+00  0.00000000000E+00  0.70462549741E+02  0.70473993899E+02  0.12700000000E+01 0. -1.
         -4   -1    0    0    0  501 -0.00000000000E+00 -0.00000000000E+00 -0.55420347713E+02  0.55434897318E+02  0.12700000000E+01 0. -1.
         25    2    1    2    0    0  0.00000000000E+00  0.00000000000E+00  0.15042202028E+02  0.12590889122E+03  0.12500712398E+03 0.  0.
    9000005    1    3    3    0    0 -0.61203733163E+02  0.52222267711E+01 -0.40739658009E+01  0.61569195243E+02  0.10000000000E+01 0.  0.
    9000005    1    3    3    0    0  0.61203733163E+02 -0.52222267711E+01  0.19116167829E+02  0.64339695974E+02  0.10000000000E+01 0.  0.
<mgrwt>
<rscale>  0 0.12500712E+03</rscale>
<asrwt>0</asrwt>
<pdfrwt beam="1">  1        4 0.17618887E-01 0.12500712E+03</pdfrwt>
<pdfrwt beam="2">  1       -4 0.13858336E-01 0.12500712E+03</pdfrwt>
<totfact> 0.19782547E+03</totfact>
</mgrwt>
</event>
<event>
 5    1  0.1433395E-002  0.1250007E+03  0.7818608E-02  0.1235068E+00
         -4   -1    0    0    0  501 -0.00000000000E+00  0.00000000000E+00  0.31449599384E+02  0.31475231555E+02  0.12700000000E+01 0. -1.
          4   -1    0    0  501    0  0.00000000000E+00 -0.00000000000E+00 -0.12412848542E+03  0.12413498215E+03  0.12700000000E+01 0. -1.
         25    2    1    2    0    0  0.00000000000E+00  0.00000000000E+00 -0.92678886038E+02  0.15561021370E+03  0.12500065077E+03 0.  0.
    9000005    1    3    3    0    0  0.32077351765E+02 -0.46195700068E+02 -0.12422784359E+02  0.57604902329E+02  0.10000000000E+01 0.  0.
    9000005    1    3    3    0    0 -0.32077351765E+02  0.46195700068E+02 -0.80256101679E+02  0.98005311376E+02  0.10000000000E+01 0.  0.
<mgrwt>
<rscale>  0 0.12500065E+03</rscale>
<asrwt>0</asrwt>
<pdfrwt beam="2">  1        4 0.31036136E-01 0.12500065E+03</pdfrwt>
<pdfrwt beam="1">  1       -4 0.78664163E-02 0.12500065E+03</pdfrwt>
<totfact> 0.18266046E+03</totfact>
</mgrwt>
</event>
<event>
 5    1  0.1433395E-002  0.1249993E+03  0.7818608E-02  0.1235070E+00
         -4   -1    0    0    0  501 -0.00000000000E+00  0.00000000000E+00  0.13771179311E+03  0.13771764906E+03  0.12700000000E+01 0. -1.
          4   -1    0    0  501    0  0.00000000000E+00 -0.00000000000E+00 -0.28344388263E+02  0.28372825838E+02  0.12700000000E+01 0. -1.
         25    2    1    2    0    0  0.00000000000E+00  0.00000000000E+00  0.10936740485E+03  0.16609047490E+03  0.12499926643E+03 0.  0.
    9000005    1    3    3    0    0  0.54037166779E+02  0.82577513702E+01  0.14447079042E+02  0.56550189602E+02  0.10000000000E+01 0.  0.
    9000005    1    3    3    0    0 -0.54037166779E+02 -0.82577513702E+01  0.94920325810E+02  0.10954028530E+03  0.10000000000E+01 0.  0.
<mgrwt>
<rscale>  0 0.12499927E+03</rscale>
<asrwt>0</asrwt>
<pdfrwt beam="2">  1        4 0.70903839E-02 0.12499927E+03</pdfrwt>
<pdfrwt beam="1">  1       -4 0.34432234E-01 0.12499927E+03</pdfrwt>
<totfact> 0.17775141E+03</totfact>
</mgrwt>
</event>
<event>
 5    1  0.1433395E-002  0.1249987E+03  0.7818608E-02  0.1235071E+00
         -4   -1    0    0    0  501 -0.00000000000E+00  0.00000000000E+00  0.14047198892E+03  0.14047772981E+03  0.12700000000E+01 0. -1.
          4   -1    0    0  501    0  0.00000000000E+00 -0.00000000000E+00 -0.27786643039E+02  0.27815650835E+02  0.12700000000E+01 0. -1.
         25    2    1    2    0    0  0.00000000000E+00  0.00000000000E+00  0.11268534588E+03  0.16829338064E+03  0.12499869916E+03 0.  0.
    9000005    1    3    3    0    0  0.39188054214E+02 -0.15196894637E+02 -0.59186218815E+01  0.42457970803E+02  0.10000000000E+01 0.  0.
    9000005    1    3    3    0    0 -0.39188054214E+02  0.15196894637E+02  0.11860396776E+03  0.12583540984E+03  0.10000000000E+01 0.  0.
<mgrwt>
<rscale>  0 0.12499870E+03</rscale>
<asrwt>0</asrwt>
<pdfrwt beam="2">  1        4 0.69510045E-02 0.12499870E+03</pdfrwt>
<pdfrwt beam="1">  1       -4 0.35122340E-01 0.12499870E+03</pdfrwt>
<totfact> 0.17674833E+03</totfact>
</mgrwt>
</event>
<event>
 5    1  0.1433395E-002  0.1250006E+03  0.7818608E-02  0.1235068E+00
         -4   -1    0    0    0  501 -0.00000000000E+00  0.00000000000E+00  0.23330117265E+02  0.23364658602E+02  0.12700000000E+01 0. -1.
          4   -1    0    0  501    0  0.00000000000E+00 -0.00000000000E+00 -0.16727471740E+03  0.16727953844E+03  0.12700000000E+01 0. -1.
         25    2    1    2    0    0  0.00000000000E+00  0.00000000000E+00 -0.14394460014E+03  0.19064419705E+03  0.12500064783E+03 0.  0.
    9000005    1    3    3    0    0  0.24348386171E+02 -0.30775430885E+01  0.15680135918E+02  0.29140724819E+02  0.10000000000E+01 0.  0.
    9000005    1    3    3    0    0 -0.24348386171E+02  0.30775430885E+01 -0.15962473606E+03  0.16150347223E+03  0.10000000000E+01 0.  0.
<mgrwt>
<rscale>  0 0.12500065E+03</rscale>
<asrwt>0</asrwt>
<pdfrwt beam="2">  1        4 0.41823596E-01 0.12500065E+03</pdfrwt>
<pdfrwt beam="1">  1       -4 0.58374501E-02 0.12500065E+03</pdfrwt>
<totfact> 0.16703396E+03</totfact>
</mgrwt>
</event>
<event>
 5    1  0.1433395E-002  0.1250269E+03  0.7818608E-02  0.1235027E+00
         -4   -1    0    0    0  501 -0.00000000000E+00  0.00000000000E+00  0.12028127435E+03  0.12028797886E+03  0.12700000000E+01 0.  1.
          4   -1    0    0  501    0  0.00000000000E+00 -0.00000000000E+00 -0.32469912163E+02  0.32494739511E+02  0.12700000000E+01 0.  1.
         25    2    1    2    0    0  0.00000000000E+00  0.00000000000E+00  0.87811362183E+02  0.15278271837E+03  0.12502689193E+03 0.  0.
    9000005    1    3    3    0    0  0.56040977974E+02  0.11306516943E+02  0.13027475043E+02  0.58644212363E+02  0.10000000000E+01 0.  0.
    9000005    1    3    3    0    0 -0.56040977974E+02 -0.11306516943E+02  0.74783887140E+02  0.94138506008E+02  0.10000000000E+01 0.  0.
<mgrwt>
<rscale>  0 0.12502689E+03</rscale>
<asrwt>0</asrwt>
<pdfrwt beam="2">  1        4 0.81214196E-02 0.12502689E+03</pdfrwt>
<pdfrwt beam="1">  1       -4 0.30074260E-01 0.12502689E+03</pdfrwt>
<totfact> 0.18391288E+03</totfact>
</mgrwt>
</event>
<event>
 5    1  0.1433395E-002  0.1250027E+03  0.7818608E-02  0.1235065E+00
         -4   -1    0    0    0  501 -0.00000000000E+00  0.00000000000E+00  0.54287210977E+03  0.54287359530E+03  0.12700000000E+01 0.  1.
          4   -1    0    0  501    0  0.00000000000E+00 -0.00000000000E+00 -0.71382950642E+01  0.72503900876E+01  0.12700000000E+01 0.  1.
         25    2    1    2    0    0  0.00000000000E+00  0.00000000000E+00  0.53573381471E+03  0.55012398539E+03  0.12500271626E+03 0.  0.
    9000005    1    3    3    0    0  0.15259356222E+02  0.54392143653E+01  0.22413081899E+01  0.16384641212E+02  0.10000000000E+01 0.  0.
    9000005    1    3    3    0    0 -0.15259356222E+02 -0.54392143653E+01  0.53349250652E+03  0.53373934417E+03  0.10000000000E+01 0.  0.
<mgrwt>
<rscale>  0 0.12500272E+03</rscale>
<asrwt>0</asrwt>
<pdfrwt beam="2">  1        4 0.17987712E-02 0.12500272E+03</pdfrwt>
<pdfrwt beam="1">  1       -4 0.13573223E+00 0.12500272E+03</pdfrwt>
<totfact> 0.80144541E+02</totfact>
</mgrwt>
</event>
<event>
 5    1  0.1433395E-002  0.1250006E+03  0.7818608E-02  0.1235068E+00
          4   -1    0    0  501    0  0.00000000000E+00  0.00000000000E+00  0.64957573580E+02  0.64969987420E+02  0.12700000000E+01 0. -1.
         -4   -1    0    0    0  501 -0.00000000000E+00 -0.00000000000E+00 -0.60111126769E+02  0.60124541257E+02  0.12700000000E+01 0. -1.
         25    2    1    2    0    0  0.00000000000E+00  0.00000000000E+00  0.48464468111E+01  0.12509452868E+03  0.12500061223E+03 0.  0.
    9000005    1    3    3    0    0 -0.33440638139E+02  0.52571570709E+02  0.72478349299E+01  0.62734180772E+02  0.10000000000E+01 0.  0.
    9000005    1    3    3    0    0  0.33440638139E+02 -0.52571570709E+02 -0.24013881188E+01  0.62360347905E+02  0.10000000000E+01 0.  0.
<mgrwt>
<rscale>  0 0.12500061E+03</rscale>
<asrwt>0</asrwt>
<pdfrwt beam="1">  1        4 0.16242622E-01 0.12500061E+03</pdfrwt>
<pdfrwt beam="2">  1       -4 0.15031010E-01 0.12500061E+03</pdfrwt>
<totfact> 0.19829646E+03</totfact>
</mgrwt>
</event>
<event>
 5    1  0.1433395E-002  0.1249969E+03  0.7818608E-02  0.1235074E+00
         -4   -1    0    0    0  501 -0.00000000000E+00  0.00000000000E+00  0.23544932260E+02  0.23579158914E+02  0.12700000000E+01 0.  1.
          4   -1    0    0  501    0  0.00000000000E+00 -0.00000000000E+00 -0.16574083368E+03  0.16574569934E+03  0.12700000000E+01 0.  1.
         25    2    1    2    0    0  0.00000000000E+00  0.00000000000E+00 -0.14219590142E+03  0.18932485825E+03  0.12499691025E+03 0.  0.
    9000005    1    3    3    0    0  0.50704959923E+01  0.61356023040E+02 -0.87325453339E+02  0.10685039211E+03  0.10000000000E+01 0.  0.
    9000005    1    3    3    0    0 -0.50704959923E+01 -0.61356023040E+02 -0.54870448079E+02  0.82474466141E+02  0.10000000000E+01 0.  0.
<mgrwt>
<rscale>  0 0.12499691E+03</rscale>
<asrwt>0</asrwt>
<pdfrwt beam="2">  1        4 0.41440092E-01 0.12499691E+03</pdfrwt>
<pdfrwt beam="1">  1       -4 0.58911201E-02 0.12499691E+03</pdfrwt>
<totfact> 0.16759807E+03</totfact>
</mgrwt>
</event>
<event>
 5    1  0.1433395E-002  0.1249999E+03  0.7818608E-02  0.1235069E+00
          4   -1    0    0  501    0  0.00000000000E+00  0.00000000000E+00  0.97476253483E+02  0.97484526429E+02  0.12700000000E+01 0. -1.
         -4   -1    0    0    0  501 -0.00000000000E+00 -0.00000000000E+00 -0.40053783955E+02  0.40073913074E+02  0.12700000000E+01 0. -1.
         25    2    1    2    0    0  0.00000000000E+00  0.00000000000E+00  0.57422469528E+02  0.13755843950E+03  0.12499993709E+03 0.  0.
    9000005    1    3    3    0    0  0.30141379916E+02  0.10092701284E+00  0.88953525581E+02  0.93926794275E+02  0.10000000000E+01 0.  0.
    9000005    1    3    3    0    0 -0.30141379916E+02 -0.10092701284E+00 -0.31531056053E+02  0.43631645228E+02  0.10000000000E+01 0.  0.
<mgrwt>
<rscale>  0 0.12499994E+03</rscale>
<asrwt>0</asrwt>
<pdfrwt beam="1">  1        4 0.24372614E-01 0.12499994E+03</pdfrwt>
<pdfrwt beam="2">  1       -4 0.10016996E-01 0.12499994E+03</pdfrwt>
<totfact> 0.19165982E+03</totfact>
</mgrwt>
</event>
<event>
 5    1  0.1433395E-002  0.1249936E+03  0.7818608E-02  0.1235079E+00
          4   -1    0    0  501    0  0.00000000000E+00  0.00000000000E+00  0.14668695990E+03  0.14669245755E+03  0.12700000000E+01 0. -1.
         -4   -1    0    0    0  501 -0.00000000000E+00 -0.00000000000E+00 -0.26605988299E+02  0.26636281899E+02  0.12700000000E+01 0. -1.
         25    2    1    2    0    0  0.00000000000E+00  0.00000000000E+00  0.12008097160E+03  0.17332873945E+03  0.12499364856E+03 0.  0.
    9000005    1    3    3    0    0 -0.31147441276E+02  0.24286086684E+02 -0.71089810193E+01  0.40143675911E+02  0.10000000000E+01 0.  0.
    9000005    1    3    3    0    0  0.31147441276E+02 -0.24286086684E+02  0.12718995262E+03  0.13318506354E+03  0.10000000000E+01 0.  0.
<mgrwt>
<rscale>  0 0.12499365E+03</rscale>
<asrwt>0</asrwt>
<pdfrwt beam="1">  1        4 0.36676213E-01 0.12499365E+03</pdfrwt>
<pdfrwt beam="2">  1       -4 0.66559712E-02 0.12499365E+03</pdfrwt>
<totfact> 0.17450515E+03</totfact>
</mgrwt>
</event>
<event>
 5    1  0.1433395E-002  0.1249983E+03  0.7818608E-02  0.1235072E+00
          4   -1    0    0  501    0  0.00000000000E+00  0.00000000000E+00  0.12577354414E+03  0.12577995590E+03  0.12700000000E+01 0.  1.
         -4   -1    0    0    0  501 -0.00000000000E+00 -0.00000000000E+00 -0.31036773486E+02  0.31062746312E+02  0.12700000000E+01 0.  1.
         25    2    1    2    0    0  0.00000000000E+00  0.00000000000E+00  0.94736770657E+02  0.15684270221E+03  0.12499831008E+03 0.  0.
    9000005    1    3    3    0    0  0.34646171122E+02 -0.46266722357E+02  0.77171942211E+02  0.96423417466E+02  0.10000000000E+01 0.  0.
    9000005    1    3    3    0    0 -0.34646171122E+02  0.46266722357E+02  0.17564828445E+02  0.60419284747E+02  0.10000000000E+01 0.  0.
<mgrwt>
<rscale>  0 0.12499831E+03</rscale>
<asrwt>0</asrwt>
<pdfrwt beam="1">  1        4 0.31447434E-01 0.12499831E+03</pdfrwt>
<pdfrwt beam="2">  1       -4 0.77632416E-02 0.12499831E+03</pdfrwt>
<totfact> 0.18208077E+03</totfact>
</mgrwt>
</event>
<event>
 5    1  0.1433395E-002  0.1250035E+03  0.7818608E-02  0.1235064E+00
          4   -1    0    0  501    0  0.00000000000E+00  0.00000000000E+00  0.93503485515E+03  0.93503571763E+03  0.12700000000E+01 0. -1.
         -4   -1    0    0    0  501 -0.00000000000E+00 -0.00000000000E+00 -0.40804837957E+01  0.42735521533E+01  0.12700000000E+01 0. -1.
         25    2    1    2    0    0  0.00000000000E+00  0.00000000000E+00  0.93095437135E+03  0.93930926978E+03  0.12500345099E+03 0.  0.
    9000005    1    3    3    0    0 -0.10133465585E+02 -0.17770096451E+02  0.21753390882E+02  0.29877641599E+02  0.10000000000E+01 0.  0.
    9000005    1    3    3    0    0  0.10133465585E+02  0.17770096451E+02  0.90920098047E+03  0.90943162818E+03  0.10000000000E+01 0.  0.
<mgrwt>
<rscale>  0 0.12500345E+03</rscale>
<asrwt>0</asrwt>
<pdfrwt beam="1">  1        4 0.23378301E+00 0.12500345E+03</pdfrwt>
<pdfrwt beam="2">  1       -4 0.10443621E-02 0.12500345E+03</pdfrwt>
<totfact> 0.41344845E+02</totfact>
</mgrwt>
</event>
<event>
 5    1  0.1433395E-002  0.1249982E+03  0.7818608E-02  0.1235072E+00
         -4   -1    0    0    0  501 -0.00000000000E+00  0.00000000000E+00  0.38667053921E+02  0.38687904555E+02  0.12700000000E+01 0. -1.
          4   -1    0    0  501    0  0.00000000000E+00 -0.00000000000E+00 -0.10096774057E+03  0.10097572746E+03  0.12700000000E+01 0. -1.
         25    2    1    2    0    0  0.00000000000E+00  0.00000000000E+00 -0.62300686653E+02  0.13966363202E+03  0.12499821819E+03 0.  0.
    9000005    1    3    3    0    0 -0.68708992481E+01 -0.59445467821E+02 -0.51267336304E+02  0.78805537068E+02  0.10000000000E+01 0.  0.
    9000005    1    3    3    0    0  0.68708992481E+01  0.59445467821E+02 -0.11033350348E+02  0.60858094949E+02  0.10000000000E+01 0.  0.
<mgrwt>
<rscale>  0 0.12499822E+03</rscale>
<asrwt>0</asrwt>
<pdfrwt beam="2">  1        4 0.25245539E-01 0.12499822E+03</pdfrwt>
<pdfrwt beam="1">  1       -4 0.96703684E-02 0.12499822E+03</pdfrwt>
<totfact> 0.19058355E+03</totfact>
</mgrwt>
</event>
<event>
 5    1  0.1433395E-002  0.1250001E+03  0.7818608E-02  0.1235069E+00
         -4   -1    0    0    0  501 -0.00000000000E+00  0.00000000000E+00  0.26905517879E+02  0.26935474608E+02  0.12700000000E+01 0. -1.
          4   -1    0    0  501    0  0.00000000000E+00 -0.00000000000E+00 -0.14507066911E+03  0.14507622802E+03  0.12700000000E+01 0. -1.
         25    2    1    2    0    0  0.00000000000E+00  0.00000000000E+00 -0.11816515123E+03  0.17201170263E+03  0.12500009150E+03 0.  0.
    9000005    1    3    3    0    0 -0.28846181117E+01  0.20289119656E+02  0.22156859437E+02  0.30197612790E+02  0.10000000000E+01 0.  0.
    9000005    1    3    3    0    0  0.28846181117E+01 -0.20289119656E+02 -0.14032201067E+03  0.14181408984E+03  0.10000000000E+01 0.  0.
<mgrwt>
<rscale>  0 0.12500009E+03</rscale>
<asrwt>0</asrwt>
<pdfrwt beam="2">  1        4 0.36272105E-01 0.12500009E+03</pdfrwt>
<pdfrwt beam="1">  1       -4 0.67308193E-02 0.12500009E+03</pdfrwt>
<totfact> 0.17506654E+03</totfact>
</mgrwt>
</event>
<event>
 5    1  0.1433395E-002  0.1250029E+03  0.7818608E-02  0.1235065E+00
          4   -1    0    0  501    0  0.00000000000E+00  0.00000000000E+00  0.37548747002E+02  0.37570218278E+02  0.12700000000E+01 0.  1.
         -4   -1    0    0    0  501 -0.00000000000E+00 -0.00000000000E+00 -0.10398123113E+03  0.10398898656E+03  0.12700000000E+01 0.  1.
         25    2    1    2    0    0  0.00000000000E+00  0.00000000000E+00 -0.66432484123E+02  0.14155920484E+03  0.12500293408E+03 0.  0.
    9000005    1    3    3    0    0  0.62315813242E+01 -0.54317818878E+02 -0.67493589287E+02  0.86865658625E+02  0.10000000000E+01 0.  0.
    9000005    1    3    3    0    0 -0.62315813242E+01  0.54317818878E+02  0.10611051637E+01  0.54693546216E+02  0.10000000000E+01 0.  0.
<mgrwt>
<rscale>  0 0.12500293E+03</rscale>
<asrwt>0</asrwt>
<pdfrwt beam="1">  1        4 0.93908403E-02 0.12500293E+03</pdfrwt>
<pdfrwt beam="2">  1       -4 0.25998961E-01 0.12500293E+03</pdfrwt>
<totfact> 0.18959561E+03</totfact>
</mgrwt>
</event>
<event>
 5    1  0.1433395E-002  0.1249971E+03  0.7818608E-02  0.1235074E+00
         -4   -1    0    0    0  501 -0.00000000000E+00  0.00000000000E+00  0.76597950676E+01  0.77643647826E+01  0.12700000000E+01 0.  1.
          4   -1    0    0  501    0  0.00000000000E+00 -0.00000000000E+00 -0.50638186850E+03  0.50638346107E+03  0.12700000000E+01 0.  1.
         25    2    1    2    0    0  0.00000000000E+00  0.00000000000E+00 -0.49872207343E+03  0.51414782585E+03  0.12499712117E+03 0.  0.
    9000005    1    3    3    0    0 -0.13385716431E+02 -0.42038420895E+02 -0.67320567766E+02  0.80495124574E+02  0.10000000000E+01 0.  0.
    9000005    1    3    3    0    0  0.13385716431E+02  0.42038420895E+02 -0.43140150566E+03  0.43365270128E+03  0.10000000000E+01 0.  0.
<mgrwt>
<rscale>  0 0.12499712E+03</rscale>
<asrwt>0</asrwt>
<pdfrwt beam="2">  1        4 0.12660863E+00 0.12499712E+03</pdfrwt>
<pdfrwt beam="1">  1       -4 0.19282208E-02 0.12499712E+03</pdfrwt>
<totfact> 0.85405269E+02</totfact>
</mgrwt>
</event>
<event>
 5    1  0.1433395E-002  0.1249976E+03  0.7818608E-02  0.1235073E+00
         -4   -1    0    0    0  501 -0.00000000000E+00  0.00000000000E+00  0.51190951534E+02  0.51206702871E+02  0.12700000000E+01 0. -1.
          4   -1    0    0  501    0  0.00000000000E+00 -0.00000000000E+00 -0.76271670519E+02  0.76282243175E+02  0.12700000000E+01 0. -1.
         25    2    1    2    0    0  0.00000000000E+00  0.00000000000E+00 -0.25080718985E+02  0.12748894605E+03  0.12499755557E+03 0.  0.
    9000005    1    3    3    0    0 -0.35091417964E+02  0.38927350838E+02  0.22172556193E+02  0.56915450504E+02  0.10000000000E+01 0.  0.
    9000005    1    3    3    0    0  0.35091417964E+02 -0.38927350838E+02 -0.47253275178E+02  0.70573495542E+02  0.10000000000E+01 0.  0.
<mgrwt>
<rscale>  0 0.12499756E+03</rscale>
<asrwt>0</asrwt>
<pdfrwt beam="2">  1        4 0.19071208E-01 0.12499756E+03</pdfrwt>
<pdfrwt beam="1">  1       -4 0.12801028E-01 0.12499756E+03</pdfrwt>
<totfact> 0.19701512E+03</totfact>
</mgrwt>
</event>
<event>
 5    1  0.1433395E-002  0.1249965E+03  0.7818608E-02  0.1235075E+00
         -4   -1    0    0    0  501 -0.00000000000E+00  0.00000000000E+00  0.39172329091E+03  0.39172534963E+03  0.12700000000E+01 0.  1.
          4   -1    0    0  501    0  0.00000000000E+00 -0.00000000000E+00 -0.99288679198E+01  0.10009761144E+02  0.12700000000E+01 0.  1.
         25    2    1    2    0    0  0.00000000000E+00  0.00000000000E+00  0.38179442299E+03  0.40173511078E+03  0.12499647116E+03 0.  0.
    9000005    1    3    3    0    0  0.53985088136E+02  0.48111197739E+01  0.90928080645E+02  0.10586053308E+03  0.10000000000E+01 0.  0.
    9000005    1    3    3    0    0 -0.53985088136E+02 -0.48111197739E+01  0.29086634235E+03  0.29587457769E+03  0.10000000000E+01 0.  0.
<mgrwt>
<rscale>  0 0.12499647E+03</rscale>
<asrwt>0</asrwt>
<pdfrwt beam="2">  1        4 0.24925860E-02 0.12499647E+03</pdfrwt>
<pdfrwt beam="1">  1       -4 0.97941190E-01 0.12499647E+03</pdfrwt>
<totfact> 0.10534393E+03</totfact>
</mgrwt>
</event>
<event>
 5    1  0.1433395E-002  0.1249998E+03  0.7818608E-02  0.1235070E+00
          4   -1    0    0  501    0  0.00000000000E+00  0.00000000000E+00  0.67533542598E+02  0.67545483016E+02  0.12700000000E+01 0. -1.
         -4   -1    0    0    0  501 -0.00000000000E+00 -0.00000000000E+00 -0.57817452375E+02  0.57831398904E+02  0.12700000000E+01 0. -1.
         25    2    1    2    0    0  0.00000000000E+00  0.00000000000E+00  0.97160902228E+01  0.12537688192E+03  0.12499984044E+03 0.  0.
    9000005    1    3    3    0    0  0.48068776093E+02 -0.12569429036E+02 -0.33159347063E+02  0.59742280497E+02  0.10000000000E+01 0.  0.
    9000005    1    3    3    0    0 -0.48068776093E+02  0.12569429036E+02  0.42875437286E+02  0.65634601422E+02  0.10000000000E+01 0.  0.
<mgrwt>
<rscale>  0 0.12499984E+03</rscale>
<asrwt>0</asrwt>
<pdfrwt beam="1">  1        4 0.16886621E-01 0.12499984E+03</pdfrwt>
<pdfrwt beam="2">  1       -4 0.14457599E-01 0.12499984E+03</pdfrwt>
<totfact> 0.19814704E+03</totfact>
</mgrwt>
</event>
<event>
 5    1  0.1433395E-002  0.1250070E+03  0.7818608E-02  0.1235058E+00
          4   -1    0    0  501    0  0.00000000000E+00  0.00000000000E+00  0.16443044091E+02  0.16492016219E+02  0.12700000000E+01 0.  1.
         -4   -1    0    0    0  501 -0.00000000000E+00 -0.00000000000E+00 -0.23718519291E+03  0.23718859297E+03  0.12700000000E+01 0.  1.
         25    2    1    2    0    0  0.00000000000E+00  0.00000000000E+00 -0.22074214882E+03  0.25368060919E+03  0.12500702066E+03 0.  0.
    9000005    1    3    3    0    0 -0.48483230522E+02 -0.39274848172E+02 -0.10318155206E+03  0.12058428599E+03  0.10000000000E+01 0.  0.
    9000005    1    3    3    0    0  0.48483230522E+02  0.39274848172E+02 -0.11756059675E+03  0.13309632320E+03  0.10000000000E+01 0.  0.
<mgrwt>
<rscale>  0 0.12500702E+03</rscale>
<asrwt>0</asrwt>
<pdfrwt beam="1">  1        4 0.41173083E-02 0.12500702E+03</pdfrwt>
<pdfrwt beam="2">  1       -4 0.59302834E-01 0.12500702E+03</pdfrwt>
<totfact> 0.14374026E+03</totfact>
</mgrwt>
</event>
<event>
 5    1  0.1433395E-002  0.1250080E+03  0.7818608E-02  0.1235057E+00
          4   -1    0    0  501    0  0.00000000000E+00  0.00000000000E+00  0.10255673854E+03  0.10256460169E+03  0.12700000000E+01 0.  1.
         -4   -1    0    0    0  501 -0.00000000000E+00 -0.00000000000E+00 -0.38073659983E+02  0.38094835404E+02  0.12700000000E+01 0.  1.
         25    2    1    2    0    0  0.00000000000E+00  0.00000000000E+00  0.64483078558E+02  0.14065943710E+03  0.12500803904E+03 0.  0.
    9000005    1    3    3    0    0 -0.27945943113E+02 -0.34213318927E+02 -0.17499891525E+02  0.47526551862E+02  0.10000000000E+01 0.  0.
    9000005    1    3    3    0    0  0.27945943113E+02  0.34213318927E+02  0.81982970083E+02  0.93132885234E+02  0.10000000000E+01 0.  0.
<mgrwt>
<rscale>  0 0.12500804E+03</rscale>
<asrwt>0</asrwt>
<pdfrwt beam="1">  1        4 0.25642814E-01 0.12500804E+03</pdfrwt>
<pdfrwt beam="2">  1       -4 0.95220450E-02 0.12500804E+03</pdfrwt>
<totfact> 0.19003095E+03</totfact>
</mgrwt>
</event>
<event>
 5    1  0.1433395E-002  0.1250020E+03  0.7818608E-02  0.1235066E+00
         -4   -1    0    0    0  501 -0.00000000000E+00  0.00000000000E+00  0.64374689022E+03  0.64374814296E+03  0.12700000000E+01 0.  1.
          4   -1    0    0  501    0  0.00000000000E+00 -0.00000000000E+00 -0.60004680251E+01  0.61333935566E+01  0.12700000000E+01 0.  1.
         25    2    1    2    0    0  0.00000000000E+00  0.00000000000E+00  0.63774642220E+03  0.64988153652E+03  0.12500204993E+03 0.  0.
    9000005    1    3    3    0    0  0.27320314239E+02 -0.43577277293E+02  0.50341819371E+03  0.50603977751E+03  0.10000000000E+01 0.  0.
    9000005    1    3    3    0    0 -0.27320314239E+02  0.43577277293E+02  0.13432822848E+03  0.14384175901E+03  0.10000000000E+01 0.  0.
<mgrwt>
<rscale>  0 0.12500205E+03</rscale>
<asrwt>0</asrwt>
<pdfrwt beam="2">  1        4 0.15168895E-02 0.12500205E+03</pdfrwt>
<pdfrwt beam="1">  1       -4 0.16095347E+00 0.12500205E+03</pdfrwt>
<totfact> 0.67521345E+02</totfact>
</mgrwt>
</event>
<event>
 5    1  0.1433395E-002  0.1249953E+03  0.7818608E-02  0.1235077E+00
         -4   -1    0    0    0  501 -0.00000000000E+00  0.00000000000E+00  0.94712250998E+02  0.94720765353E+02  0.12700000000E+01 0. -1.
          4   -1    0    0  501    0  0.00000000000E+00 -0.00000000000E+00 -0.41220089990E+02  0.41239649838E+02  0.12700000000E+01 0. -1.
         25    2    1    2    0    0  0.00000000000E+00  0.00000000000E+00  0.53492161008E+02  0.13596041519E+03  0.12499529275E+03 0.  0.
    9000005    1    3    3    0    0  0.91729886997E+01  0.52276760122E+02 -0.91315520573E+01  0.53864539481E+02  0.10000000000E+01 0.  0.
    9000005    1    3    3    0    0 -0.91729886997E+01 -0.52276760122E+02  0.62623713065E+02  0.82095875710E+02  0.10000000000E+01 0.  0.
<mgrwt>
<rscale>  0 0.12499529E+03</rscale>
<asrwt>0</asrwt>
<pdfrwt beam="2">  1        4 0.10308532E-01 0.12499529E+03</pdfrwt>
<pdfrwt beam="1">  1       -4 0.23681572E-01 0.12499529E+03</pdfrwt>
<totfact> 0.19251063E+03</totfact>
</mgrwt>
</event>
<event>
 5    1  0.1433395E-002  0.1250033E+03  0.7818608E-02  0.1235064E+00
          4   -1    0    0  501    0  0.00000000000E+00  0.00000000000E+00  0.25485016828E+03  0.25485333266E+03  0.12700000000E+01 0. -1.
         -4   -1    0    0    0  501 -0.00000000000E+00 -0.00000000000E+00 -0.15298880460E+02  0.15351502967E+02  0.12700000000E+01 0. -1.
         25    2    1    2    0    0  0.00000000000E+00  0.00000000000E+00  0.23955128781E+03  0.27020483563E+03  0.12500333477E+03 0.  0.
    9000005    1    3    3    0    0  0.28999805276E+02 -0.50014510686E+02  0.68485628703E+02  0.89631028802E+02  0.10000000000E+01 0.  0.
    9000005    1    3    3    0    0 -0.28999805276E+02  0.50014510686E+02  0.17106565911E+03  0.18057380683E+03  0.10000000000E+01 0.  0.
<mgrwt>
<rscale>  0 0.12500333E+03</rscale>
<asrwt>0</asrwt>
<pdfrwt beam="1">  1        4 0.63719515E-01 0.12500333E+03</pdfrwt>
<pdfrwt beam="2">  1       -4 0.38316935E-02 0.12500333E+03</pdfrwt>
<totfact> 0.13848164E+03</totfact>
</mgrwt>
</event>
<event>
 5    1  0.1433395E-002  0.1249969E+03  0.7818608E-02  0.1235074E+00
         -4   -1    0    0    0  501 -0.00000000000E+00  0.00000000000E+00  0.30017289770E+03  0.30017558431E+03  0.12700000000E+01 0.  1.
          4   -1    0    0  501    0  0.00000000000E+00 -0.00000000000E+00 -0.12978950839E+02  0.13040938037E+02  0.12700000000E+01 0.  1.
         25    2    1    2    0    0  0.00000000000E+00  0.00000000000E+00  0.28719394686E+03  0.31321652235E+03  0.12499690698E+03 0.  0.
    9000005    1    3    3    0    0  0.43096819163E+02  0.20657258877E+02  0.42709625398E+02  0.64102810141E+02  0.10000000000E+01 0.  0.
    9000005    1    3    3    0    0 -0.43096819163E+02 -0.20657258877E+02  0.24448432146E+03  0.24911371220E+03  0.10000000000E+01 0.  0.
<mgrwt>
<rscale>  0 0.12499691E+03</rscale>
<asrwt>0</asrwt>
<pdfrwt beam="2">  1        4 0.32528220E-02 0.12499691E+03</pdfrwt>
<pdfrwt beam="1">  1       -4 0.75051308E-01 0.12499691E+03</pdfrwt>
<totfact> 0.12609452E+03</totfact>
</mgrwt>
</event>
<event>
 5    1  0.1433395E-002  0.1250028E+03  0.7818608E-02  0.1235065E+00
         -4   -1    0    0    0  501 -0.00000000000E+00  0.00000000000E+00  0.37523303226E+02  0.37544789052E+02  0.12700000000E+01 0.  1.
          4   -1    0    0  501    0  0.00000000000E+00 -0.00000000000E+00 -0.10405147385E+03  0.10405922405E+03  0.12700000000E+01 0.  1.
         25    2    1    2    0    0  0.00000000000E+00  0.00000000000E+00 -0.66528170625E+02  0.14160401310E+03  0.12500279613E+03 0.  0.
    9000005    1    3    3    0    0  0.46931729843E+02  0.25884937312E+02  0.31412913252E+01  0.53698090812E+02  0.10000000000E+01 0.  0.
    9000005    1    3    3    0    0 -0.46931729843E+02 -0.25884937312E+02 -0.69669461950E+02  0.87905922293E+02  0.10000000000E+01 0.  0.
<mgrwt>
<rscale>  0 0.12500280E+03</rscale>
<asrwt>0</asrwt>
<pdfrwt beam="2">  1        4 0.26016522E-01 0.12500280E+03</pdfrwt>
<pdfrwt beam="1">  1       -4 0.93844805E-02 0.12500280E+03</pdfrwt>
<totfact> 0.18957346E+03</totfact>
</mgrwt>
</event>
<event>
 5    1  0.1433395E-002  0.1249826E+03  0.7818608E-02  0.1235096E+00
          4   -1    0    0  501    0  0.00000000000E+00  0.00000000000E+00  0.37951369951E+02  0.37972613568E+02  0.12700000000E+01 0.  1.
         -4   -1    0    0    0  501 -0.00000000000E+00 -0.00000000000E+00 -0.10284519514E+03  0.10285303624E+03  0.12700000000E+01 0.  1.
         25    2    1    2    0    0  0.00000000000E+00  0.00000000000E+00 -0.64893825188E+02  0.14082564980E+03  0.12498261917E+03 0.  0.
    9000005    1    3    3    0    0 -0.11189642649E+01  0.12160964336E+02  0.36599071216E+02  0.38595765940E+02  0.10000000000E+01 0.  0.
    9000005    1    3    3    0    0  0.11189642649E+01 -0.12160964336E+02 -0.10149289640E+03  0.10222988386E+03  0.10000000000E+01 0.  0.
<mgrwt>
<rscale>  0 0.12498262E+03</rscale>
<asrwt>0</asrwt>
<pdfrwt beam="1">  1        4 0.94914783E-02 0.12498262E+03</pdfrwt>
<pdfrwt beam="2">  1       -4 0.25714934E-01 0.12498262E+03</pdfrwt>
<totfact> 0.19005884E+03</totfact>
</mgrwt>
</event>
<event>
 5    1  0.1433395E-002  0.1249933E+03  0.7818608E-02  0.1235080E+00
          4   -1    0    0  501    0  0.00000000000E+00  0.00000000000E+00  0.10334755000E+03  0.10335535299E+03  0.12700000000E+01 0. -1.
         -4   -1    0    0    0  501 -0.00000000000E+00 -0.00000000000E+00 -0.37773244757E+02  0.37794588495E+02  0.12700000000E+01 0. -1.
         25    2    1    2    0    0  0.00000000000E+00  0.00000000000E+00  0.65574305247E+02  0.14114994149E+03  0.12499326571E+03 0.  0.
    9000005    1    3    3    0    0  0.16302022741E+02  0.26706389368E+02 -0.28295729119E+02  0.42197576529E+02  0.10000000000E+01 0.  0.
    9000005    1    3    3    0    0 -0.16302022741E+02 -0.26706389368E+02  0.93870034366E+02  0.98952364956E+02  0.10000000000E+01 0.  0.
<mgrwt>
<rscale>  0 0.12499327E+03</rscale>
<asrwt>0</asrwt>
<pdfrwt beam="1">  1        4 0.25840531E-01 0.12499327E+03</pdfrwt>
<pdfrwt beam="2">  1       -4 0.94469546E-02 0.12499327E+03</pdfrwt>
<totfact> 0.18984647E+03</totfact>
</mgrwt>
</event>
<event>
 5    1  0.1433395E-002  0.1250016E+03  0.7818608E-02  0.1235067E+00
          4   -1    0    0  501    0  0.00000000000E+00  0.00000000000E+00  0.73062007182E+01  0.74157581497E+01  0.12700000000E+01 0.  1.
         -4   -1    0    0    0  501 -0.00000000000E+00 -0.00000000000E+00 -0.53057351582E+03  0.53057503578E+03  0.12700000000E+01 0.  1.
         25    2    1    2    0    0  0.00000000000E+00  0.00000000000E+00 -0.52326731510E+03  0.53799079393E+03  0.12500164517E+03 0.  0.
    9000005    1    3    3    0    0  0.36128123123E+02 -0.29324968203E+02 -0.82096878548E+02  0.94372096023E+02  0.10000000000E+01 0.  0.
    9000005    1    3    3    0    0 -0.36128123123E+02  0.29324968203E+02 -0.44117043656E+03  0.44361869791E+03  0.10000000000E+01 0.  0.
<mgrwt>
<rscale>  0 0.12500165E+03</rscale>
<asrwt>0</asrwt>
<pdfrwt beam="1">  1        4 0.18404367E-02 0.12500165E+03</pdfrwt>
<pdfrwt beam="2">  1       -4 0.13265713E+00 0.12500165E+03</pdfrwt>
<totfact> 0.81862319E+02</totfact>
</mgrwt>
</event>
<event>
 5    1  0.1433395E-002  0.1249606E+03  0.7818608E-02  0.1235131E+00
         -4   -1    0    0    0  501 -0.00000000000E+00  0.00000000000E+00  0.20953943517E+03  0.20954328381E+03  0.12700000000E+01 0.  1.
          4   -1    0    0  501    0  0.00000000000E+00 -0.00000000000E+00 -0.18604670789E+02  0.18647967052E+02  0.12700000000E+01 0.  1.
         25    2    1    2    0    0  0.00000000000E+00  0.00000000000E+00  0.19093476438E+03  0.22819125086E+03  0.12496064469E+03 0.  0.
    9000005    1    3    3    0    0  0.36947377204E+01  0.61450886293E+02  0.76061791250E+02  0.97858359894E+02  0.10000000000E+01 0.  0.
    9000005    1    3    3    0    0 -0.36947377204E+01 -0.61450886293E+02  0.11487297313E+03  0.13033289097E+03  0.10000000000E+01 0.  0.
<mgrwt>
<rscale>  0 0.12496064E+03</rscale>
<asrwt>0</asrwt>
<pdfrwt beam="2">  1        4 0.46570608E-02 0.12496064E+03</pdfrwt>
<pdfrwt beam="1">  1       -4 0.52390752E-01 0.12496064E+03</pdfrwt>
<totfact> 0.15266005E+03</totfact>
</mgrwt>
</event>
<event>
 5    1  0.1433395E-002  0.1250025E+03  0.7818608E-02  0.1235065E+00
          4   -1    0    0  501    0  0.00000000000E+00  0.00000000000E+00  0.68433787678E+03  0.68433905522E+03  0.12700000000E+01 0. -1.
         -4   -1    0    0    0  501 -0.00000000000E+00 -0.00000000000E+00 -0.56364601797E+01  0.57777662948E+01  0.12700000000E+01 0. -1.
         25    2    1    2    0    0  0.00000000000E+00  0.00000000000E+00  0.67870141660E+03  0.69011682151E+03  0.12500245773E+03 0.  0.
    9000005    1    3    3    0    0  0.45209028270E+01 -0.77257822829E+01 -0.21059023215E+01  0.92499242614E+01  0.10000000000E+01 0.  0.
    9000005    1    3    3    0    0 -0.45209028270E+01  0.77257822829E+01  0.68080731892E+03  0.68086689725E+03  0.10000000000E+01 0.  0.
<mgrwt>
<rscale>  0 0.12500246E+03</rscale>
<asrwt>0</asrwt>
<pdfrwt beam="1">  1        4 0.17110231E+00 0.12500246E+03</pdfrwt>
<pdfrwt beam="2">  1       -4 0.14269253E-02 0.12500246E+03</pdfrwt>
<totfact> 0.63097290E+02</totfact>
</mgrwt>
</event>
<event>
 5    1  0.1433395E-002  0.1249996E+03  0.7818608E-02  0.1235070E+00
          4   -1    0    0  501    0  0.00000000000E+00  0.00000000000E+00  0.73849371163E+01  0.74933434602E+01  0.12700000000E+01 0.  1.
         -4   -1    0    0    0  501 -0.00000000000E+00 -0.00000000000E+00 -0.52498155721E+03  0.52498309336E+03  0.12700000000E+01 0.  1.
         25    2    1    2    0    0  0.00000000000E+00  0.00000000000E+00 -0.51759662009E+03  0.53247643682E+03  0.12499957853E+03 0.  0.
    9000005    1    3    3    0    0 -0.13990284965E+02 -0.59091808467E+02 -0.32164391765E+03  0.32732763352E+03  0.10000000000E+01 0.  0.
    9000005    1    3    3    0    0  0.13990284965E+02  0.59091808467E+02 -0.19595270244E+03  0.20514880330E+03  0.10000000000E+01 0.  0.
<mgrwt>
<rscale>  0 0.12499958E+03</rscale>
<asrwt>0</asrwt>
<pdfrwt beam="1">  1        4 0.18599789E-02 0.12499958E+03</pdfrwt>
<pdfrwt beam="2">  1       -4 0.13125901E+00 0.12499958E+03</pdfrwt>
<totfact> 0.82663784E+02</totfact>
</mgrwt>
</event>
<event>
 5    1  0.1433395E-002  0.1250002E+03  0.7818608E-02  0.1235069E+00
         -4   -1    0    0    0  501 -0.00000000000E+00  0.00000000000E+00  0.20633153580E+03  0.20633544428E+03  0.12700000000E+01 0. -1.
          4   -1    0    0  501    0  0.00000000000E+00 -0.00000000000E+00 -0.18906571160E+02  0.18949177634E+02  0.12700000000E+01 0. -1.
         25    2    1    2    0    0  0.00000000000E+00  0.00000000000E+00  0.18742496464E+03  0.22528462191E+03  0.12500017400E+03 0.  0.
    9000005    1    3    3    0    0 -0.34198055663E+02  0.50605124689E+02  0.11754583095E+03  0.13247040435E+03  0.10000000000E+01 0.  0.
    9000005    1    3    3    0    0  0.34198055663E+02 -0.50605124689E+02  0.69879133693E+02  0.92814217561E+02  0.10000000000E+01 0.  0.
<mgrwt>
<rscale>  0 0.12500017E+03</rscale>
<asrwt>0</asrwt>
<pdfrwt beam="2">  1        4 0.47324571E-02 0.12500017E+03</pdfrwt>
<pdfrwt beam="1">  1       -4 0.51588698E-01 0.12500017E+03</pdfrwt>
<totfact> 0.15357217E+03</totfact>
</mgrwt>
</event>
<event>
 5    1  0.1433395E-002  0.1249956E+03  0.7818608E-02  0.1235076E+00
         -4   -1    0    0    0  501 -0.00000000000E+00  0.00000000000E+00  0.49226594583E+02  0.49242974263E+02  0.12700000000E+01 0.  1.
          4   -1    0    0  501    0  0.00000000000E+00 -0.00000000000E+00 -0.79312121510E+02  0.79322288913E+02  0.12700000000E+01 0.  1.
         25    2    1    2    0    0  0.00000000000E+00  0.00000000000E+00 -0.30085526927E+02  0.12856526318E+03  0.12499555178E+03 0.  0.
    9000005    1    3    3    0    0 -0.19388931165E+02 -0.11869140296E+02  0.44827525094E+02  0.50272399477E+02  0.10000000000E+01 0.  0.
    9000005    1    3    3    0    0  0.19388931165E+02  0.11869140296E+02 -0.74913052021E+02  0.78292863699E+02  0.10000000000E+01 0.  0.
<mgrwt>
<rscale>  0 0.12499555E+03</rscale>
<asrwt>0</asrwt>
<pdfrwt beam="2">  1        4 0.19831349E-01 0.12499555E+03</pdfrwt>
<pdfrwt beam="1">  1       -4 0.12309967E-01 0.12499555E+03</pdfrwt>
<totfact> 0.19643873E+03</totfact>
</mgrwt>
</event>
<event>
 5    1  0.1433395E-002  0.1250001E+03  0.7818608E-02  0.1235069E+00
          4   -1    0    0  501    0  0.00000000000E+00  0.00000000000E+00  0.15678169941E+03  0.15678684311E+03  0.12700000000E+01 0. -1.
         -4   -1    0    0    0  501 -0.00000000000E+00 -0.00000000000E+00 -0.24893526727E+02  0.24925901647E+02  0.12700000000E+01 0. -1.
         25    2    1    2    0    0  0.00000000000E+00  0.00000000000E+00  0.13188817269E+03  0.18171274475E+03  0.12500012604E+03 0.  0.
    9000005    1    3    3    0    0  0.48260512663E+02 -0.38147336437E+02  0.49955923915E+02  0.79252070597E+02  0.10000000000E+01 0.  0.
    9000005    1    3    3    0    0 -0.48260512663E+02  0.38147336437E+02  0.81932248773E+02  0.10246067416E+03  0.10000000000E+01 0.  0.
<mgrwt>
<rscale>  0 0.12500013E+03</rscale>
<asrwt>0</asrwt>
<pdfrwt beam="1">  1        4 0.39200114E-01 0.12500013E+03</pdfrwt>
<pdfrwt beam="2">  1       -4 0.62280716E-02 0.12500013E+03</pdfrwt>
<totfact> 0.17081286E+03</totfact>
</mgrwt>
</event>
<event>
 5    1  0.1433395E-002  0.1250004E+03  0.7818608E-02  0.1235069E+00
          4   -1    0    0  501    0  0.00000000000E+00  0.00000000000E+00  0.11053900560E+02  0.11126617527E+02  0.12700000000E+01 0. -1.
         -4   -1    0    0    0  501 -0.00000000000E+00 -0.00000000000E+00 -0.35215177331E+03  0.35215406337E+03  0.12700000000E+01 0. -1.
         25    2    1    2    0    0  0.00000000000E+00  0.00000000000E+00 -0.34109787275E+03  0.36328068090E+03  0.12500037726E+03 0.  0.
    9000005    1    3    3    0    0 -0.32975092298E+02  0.53892556088E+01 -0.17071218899E+02  0.37534348306E+02  0.10000000000E+01 0.  0.
    9000005    1    3    3    0    0  0.32975092298E+02 -0.53892556088E+01 -0.32402665385E+03  0.32574633259E+03  0.10000000000E+01 0.  0.
<mgrwt>
<rscale>  0 0.12500038E+03</rscale>
<asrwt>0</asrwt>
<pdfrwt beam="1">  1        4 0.27728522E-02 0.12500038E+03</pdfrwt>
<pdfrwt beam="2">  1       -4 0.88047282E-01 0.12500038E+03</pdfrwt>
<totfact> 0.11366763E+03</totfact>
</mgrwt>
</event>
<event>
 5    1  0.1433395E-002  0.1250061E+03  0.7818608E-02  0.1235060E+00
         -4   -1    0    0    0  501 -0.00000000000E+00  0.00000000000E+00  0.37298692548E+03  0.37298908762E+03  0.12700000000E+01 0. -1.
          4   -1    0    0  501    0  0.00000000000E+00 -0.00000000000E+00 -0.10433218063E+02  0.10510230214E+02  0.12700000000E+01 0. -1.
         25    2    1    2    0    0  0.00000000000E+00  0.00000000000E+00  0.36255370742E+03  0.38349931783E+03  0.12500614390E+03 0.  0.
    9000005    1    3    3    0    0  0.58908053054E+02  0.20826527398E+02  0.18531319099E+03  0.19556554327E+03  0.10000000000E+01 0.  0.
    9000005    1    3    3    0    0 -0.58908053054E+02 -0.20826527398E+02  0.17724051643E+03  0.18793377456E+03  0.10000000000E+01 0.  0.
<mgrwt>
<rscale>  0 0.12500614E+03</rscale>
<asrwt>0</asrwt>
<pdfrwt beam="2">  1        4 0.26182013E-02 0.12500614E+03</pdfrwt>
<pdfrwt beam="1">  1       -4 0.93256628E-01 0.12500614E+03</pdfrwt>
<totfact> 0.10915642E+03</totfact>
</mgrwt>
</event>
<event>
 5    1  0.1433395E-002  0.1250044E+03  0.7818608E-02  0.1235062E+00
         -4   -1    0    0    0  501 -0.00000000000E+00  0.00000000000E+00  0.14559634387E+02  0.14614918867E+02  0.12700000000E+01 0. -1.
          4   -1    0    0  501    0  0.00000000000E+00 -0.00000000000E+00 -0.26774669048E+03  0.26774970246E+03  0.12700000000E+01 0. -1.
         25    2    1    2    0    0  0.00000000000E+00  0.00000000000E+00 -0.25318705610E+03  0.28236462132E+03  0.12500437592E+03 0.  0.
    9000005    1    3    3    0    0  0.17992375862E+02 -0.59602577855E+02 -0.11436016919E+03  0.13021306069E+03  0.10000000000E+01 0.  0.
    9000005    1    3    3    0    0 -0.17992375862E+02  0.59602577855E+02 -0.13882688690E+03  0.15215156063E+03  0.10000000000E+01 0.  0.
<mgrwt>
<rscale>  0 0.12500438E+03</rscale>
<asrwt>0</asrwt>
<pdfrwt beam="2">  1        4 0.66943944E-01 0.12500438E+03</pdfrwt>
<pdfrwt beam="1">  1       -4 0.36471965E-02 0.12500438E+03</pdfrwt>
<totfact> 0.13478772E+03</totfact>
</mgrwt>
</event>
<event>
 5    1  0.1433395E-002  0.1250004E+03  0.7818608E-02  0.1235069E+00
         -4   -1    0    0    0  501 -0.00000000000E+00  0.00000000000E+00  0.28547452590E+02  0.28575688082E+02  0.12700000000E+01 0. -1.
          4   -1    0    0  501    0  0.00000000000E+00 -0.00000000000E+00 -0.13673553974E+03  0.13674143750E+03  0.12700000000E+01 0. -1.
         25    2    1    2    0    0  0.00000000000E+00  0.00000000000E+00 -0.10818808715E+03  0.16531712558E+03  0.12500035923E+03 0.  0.
    9000005    1    3    3    0    0  0.12486312057E+02 -0.61163514666E+02 -0.50263503163E+02  0.80151751479E+02  0.10000000000E+01 0.  0.
    9000005    1    3    3    0    0 -0.12486312057E+02  0.61163514666E+02 -0.57924583990E+02  0.85165374099E+02  0.10000000000E+01 0.  0.
<mgrwt>
<rscale>  0 0.12500036E+03</rscale>
<asrwt>0</asrwt>
<pdfrwt beam="2">  1        4 0.34188150E-01 0.12500036E+03</pdfrwt>
<pdfrwt beam="1">  1       -4 0.71411302E-02 0.12500036E+03</pdfrwt>
<totfact> 0.17810208E+03</totfact>
</mgrwt>
</event>
<event>
 5    1  0.1433395E-002  0.1249989E+03  0.7818608E-02  0.1235071E+00
         -4   -1    0    0    0  501 -0.00000000000E+00  0.00000000000E+00  0.35161381208E+02  0.35184309407E+02  0.12700000000E+01 0.  1.
          4   -1    0    0  501    0  0.00000000000E+00 -0.00000000000E+00 -0.11103011645E+03  0.11103737955E+03  0.12700000000E+01 0.  1.
         25    2    1    2    0    0  0.00000000000E+00  0.00000000000E+00 -0.75868735237E+02  0.14622168896E+03  0.12499886934E+03 0.  0.
    9000005    1    3    3    0    0 -0.59600904228E+02  0.98756675301E+01 -0.56628335079E+02  0.82810415576E+02  0.10000000000E+01 0.  0.
    9000005    1    3    3    0    0  0.59600904228E+02 -0.98756675301E+01 -0.19240400158E+02  0.63411273384E+02  0.10000000000E+01 0.  0.
<mgrwt>
<rscale>  0 0.12499887E+03</rscale>
<asrwt>0</asrwt>
<pdfrwt beam="2">  1        4 0.27761302E-01 0.12499887E+03</pdfrwt>
<pdfrwt beam="1">  1       -4 0.87941195E-02 0.12499887E+03</pdfrwt>
<totfact> 0.18726627E+03</totfact>
</mgrwt>
</event>
<event>
 5    1  0.1433395E-002  0.1249982E+03  0.7818608E-02  0.1235072E+00
         -4   -1    0    0    0  501 -0.00000000000E+00  0.00000000000E+00  0.57757194215E+03  0.57757333842E+03  0.12700000000E+01 0. -1.
          4   -1    0    0  501    0  0.00000000000E+00 -0.00000000000E+00 -0.67019888848E+01  0.68212575829E+01  0.12700000000E+01 0. -1.
         25    2    1    2    0    0  0.00000000000E+00  0.00000000000E+00  0.57086995326E+03  0.58439459601E+03  0.12499816119E+03 0.  0.
    9000005    1    3    3    0    0  0.22489064196E+02  0.45068969106E+01  0.13665400769E+02  0.26717284787E+02  0.10000000000E+01 0.  0.
    9000005    1    3    3    0    0 -0.22489064196E+02 -0.45068969106E+01  0.55720455249E+03  0.55767731122E+03  0.10000000000E+01 0.  0.
<mgrwt>
<rscale>  0 0.12499816E+03</rscale>
<asrwt>0</asrwt>
<pdfrwt beam="2">  1        4 0.16905804E-02 0.12499816E+03</pdfrwt>
<pdfrwt beam="1">  1       -4 0.14440806E+00 0.12499816E+03</pdfrwt>
<totfact> 0.75505294E+02</totfact>
</mgrwt>
</event>
<event>
 5    1  0.1433395E-002  0.1249992E+03  0.7818608E-02  0.1235071E+00
         -4   -1    0    0    0  501 -0.00000000000E+00  0.00000000000E+00  0.72325322067E+03  0.72325433570E+03  0.12700000000E+01 0. -1.
          4   -1    0    0  501    0  0.00000000000E+00 -0.00000000000E+00 -0.53250791813E+01  0.54744285808E+01  0.12700000000E+01 0. -1.
         25    2    1    2    0    0  0.00000000000E+00  0.00000000000E+00  0.71792814149E+03  0.72872876429E+03  0.12499918220E+03 0.  0.
    9000005    1    3    3    0    0 -0.85372306989E+01 -0.43316270738E+02  0.61680084604E+03  0.61837971126E+03  0.10000000000E+01 0.  0.
    9000005    1    3    3    0    0  0.85372306989E+01  0.43316270738E+02  0.10112729545E+03  0.11034905303E+03  0.10000000000E+01 0.  0.
<mgrwt>
<rscale>  0 0.12499918E+03</rscale>
<asrwt>0</asrwt>
<pdfrwt beam="2">  1        4 0.13500779E-02 0.12499918E+03</pdfrwt>
<pdfrwt beam="1">  1       -4 0.18083210E+00 0.12499918E+03</pdfrwt>
<totfact> 0.59141762E+02</totfact>
</mgrwt>
</event>
<event>
 5    1  0.1433395E-002  0.1249995E+03  0.7818608E-02  0.1235070E+00
          4   -1    0    0  501    0  0.00000000000E+00  0.00000000000E+00  0.19198398954E+02  0.19240359207E+02  0.12700000000E+01 0. -1.
         -4   -1    0    0    0  501 -0.00000000000E+00 -0.00000000000E+00 -0.20319996176E+03  0.20320393047E+03  0.12700000000E+01 0. -1.
         25    2    1    2    0    0  0.00000000000E+00  0.00000000000E+00 -0.18400156280E+03  0.22244428968E+03  0.12499954758E+03 0.  0.
    9000005    1    3    3    0    0 -0.13869538876E+02 -0.44573505349E+02 -0.18067361734E+02  0.50065867093E+02  0.10000000000E+01 0.  0.
    9000005    1    3    3    0    0  0.13869538876E+02  0.44573505349E+02 -0.16593420107E+03  0.17237842258E+03  0.10000000000E+01 0.  0.
<mgrwt>
<rscale>  0 0.12499955E+03</rscale>
<asrwt>0</asrwt>
<pdfrwt beam="1">  1        4 0.48053415E-02 0.12499955E+03</pdfrwt>
<pdfrwt beam="2">  1       -4 0.50805725E-01 0.12499955E+03</pdfrwt>
<totfact> 0.15461267E+03</totfact>
</mgrwt>
</event>
<event>
 5    1  0.1433395E-002  0.1249999E+03  0.7818608E-02  0.1235069E+00
         -4   -1    0    0    0  501 -0.00000000000E+00  0.00000000000E+00  0.57627162209E+02  0.57641154779E+02  0.12700000000E+01 0. -1.
          4   -1    0    0  501    0  0.00000000000E+00 -0.00000000000E+00 -0.67756588886E+02  0.67768490004E+02  0.12700000000E+01 0. -1.
         25    2    1    2    0    0  0.00000000000E+00  0.00000000000E+00 -0.10129426677E+02  0.12540964478E+03  0.12499989488E+03 0.  0.
    9000005    1    3    3    0    0 -0.10070759200E+02  0.61544430050E+02 -0.90911429506E+01  0.63030039990E+02  0.10000000000E+01 0.  0.
    9000005    1    3    3    0    0  0.10070759200E+02 -0.61544430050E+02 -0.10382837262E+01  0.62379604793E+02  0.10000000000E+01 0.  0.
<mgrwt>
<rscale>  0 0.12499989E+03</rscale>
<asrwt>0</asrwt>
<pdfrwt beam="2">  1        4 0.16942384E-01 0.12499989E+03</pdfrwt>
<pdfrwt beam="1">  1       -4 0.14410027E-01 0.12499989E+03</pdfrwt>
<totfact> 0.19812904E+03</totfact>
</mgrwt>
</event>
<event>
 5    1  0.1433395E-002  0.1250007E+03  0.7818608E-02  0.1235068E+00
         -4   -1    0    0    0  501 -0.00000000000E+00  0.00000000000E+00  0.93863249447E+02  0.93871840809E+02  0.12700000000E+01 0. -1.
          4   -1    0    0  501    0  0.00000000000E+00 -0.00000000000E+00 -0.41596684757E+02  0.41616067603E+02  0.12700000000E+01 0. -1.
         25    2    1    2    0    0  0.00000000000E+00  0.00000000000E+00  0.52266564690E+02  0.13548790841E+03  0.12500071816E+03 0.  0.
    9000005    1    3    3    0    0 -0.35057804448E+02  0.46351331682E+02  0.51034605744E+02  0.77350026405E+02  0.10000000000E+01 0.  0.
    9000005    1    3    3    0    0  0.35057804448E+02 -0.46351331682E+02  0.12319589465E+01  0.58137882007E+02  0.10000000000E+01 0.  0.
<mgrwt>
<rscale>  0 0.12500072E+03</rscale>
<asrwt>0</asrwt>
<pdfrwt beam="2">  1        4 0.10402668E-01 0.12500072E+03</pdfrwt>
<pdfrwt beam="1">  1       -4 0.23469309E-01 0.12500072E+03</pdfrwt>
<totfact> 0.19273289E+03</totfact>
</mgrwt>
</event>
<event>
 5    1  0.1433395E-002  0.1250006E+03  0.7818608E-02  0.1235068E+00
         -4   -1    0    0    0  501 -0.00000000000E+00  0.00000000000E+00  0.60362303087E+02  0.60375661768E+02  0.12700000000E+01 0.  1.
          4   -1    0    0  501    0  0.00000000000E+00 -0.00000000000E+00 -0.64687275651E+02  0.64699741353E+02  0.12700000000E+01 0.  1.
         25    2    1    2    0    0  0.00000000000E+00  0.00000000000E+00 -0.43249725637E+01  0.12507540312E+03  0.12500060431E+03 0.  0.
    9000005    1    3    3    0    0  0.27384247309E+02 -0.54497322263E+02 -0.15787999944E+02  0.63008857130E+02  0.10000000000E+01 0.  0.
    9000005    1    3    3    0    0 -0.27384247309E+02  0.54497322263E+02  0.11463027381E+02  0.62066545991E+02  0.10000000000E+01 0.  0.
<mgrwt>
<rscale>  0 0.12500060E+03</rscale>
<asrwt>0</asrwt>
<pdfrwt beam="2">  1        4 0.16175047E-01 0.12500060E+03</pdfrwt>
<pdfrwt beam="1">  1       -4 0.15093804E-01 0.12500060E+03</pdfrwt>
<totfact> 0.19830686E+03</totfact>
</mgrwt>
</event>
<event>
 5    1  0.1433395E-002  0.1249975E+03  0.7818608E-02  0.1235073E+00
         -4   -1    0    0    0  501 -0.00000000000E+00  0.00000000000E+00  0.65846703587E+02  0.65858949834E+02  0.12700000000E+01 0. -1.
          4   -1    0    0  501    0  0.00000000000E+00 -0.00000000000E+00 -0.59296497733E+02  0.59310096471E+02  0.12700000000E+01 0. -1.
         25    2    1    2    0    0  0.00000000000E+00  0.00000000000E+00  0.65502058541E+01  0.12516904631E+03  0.12499753980E+03 0.  0.
    9000005    1    3    3    0    0  0.11494428048E+01  0.23961764154E+02 -0.54506833008E+02  0.59560743822E+02  0.10000000000E+01 0.  0.
    9000005    1    3    3    0    0 -0.11494428048E+01 -0.23961764154E+02  0.61057038862E+02  0.65608302483E+02  0.10000000000E+01 0.  0.
<mgrwt>
<rscale>  0 0.12499754E+03</rscale>
<asrwt>0</asrwt>
<pdfrwt beam="2">  1        4 0.14827355E-01 0.12499754E+03</pdfrwt>
<pdfrwt beam="1">  1       -4 0.16464906E-01 0.12499754E+03</pdfrwt>
<totfact> 0.19827032E+03</totfact>
</mgrwt>
</event>
<event>
 5    1  0.1433395E-002  0.1249985E+03  0.7818608E-02  0.1235072E+00
         -4   -1    0    0    0  501 -0.00000000000E+00  0.00000000000E+00  0.27737276989E+02  0.27766336359E+02  0.12700000000E+01 0.  1.
          4   -1    0    0  501    0  0.00000000000E+00 -0.00000000000E+00 -0.14072121901E+03  0.14072694973E+03  0.12700000000E+01 0.  1.
         25    2    1    2    0    0  0.00000000000E+00  0.00000000000E+00 -0.11298394202E+03  0.16849328609E+03  0.12499846520E+03 0.  0.
    9000005    1    3    3    0    0  0.10062301997E+02 -0.48081461938E+02 -0.44236513114E+01  0.49331993620E+02  0.10000000000E+01 0.  0.
    9000005    1    3    3    0    0 -0.10062301997E+02  0.48081461938E+02 -0.10856029071E+03  0.11916129247E+03  0.10000000000E+01 0.  0.
<mgrwt>
<rscale>  0 0.12499847E+03</rscale>
<asrwt>0</asrwt>
<pdfrwt beam="2">  1        4 0.35184652E-01 0.12499847E+03</pdfrwt>
<pdfrwt beam="1">  1       -4 0.69386684E-02 0.12499847E+03</pdfrwt>
<totfact> 0.17665851E+03</totfact>
</mgrwt>
</event>
<event>
 5    1  0.1433395E-002  0.1250008E+03  0.7818608E-02  0.1235068E+00
          4   -1    0    0  501    0  0.00000000000E+00  0.00000000000E+00  0.10214675597E+02  0.10293322960E+02  0.12700000000E+01 0. -1.
         -4   -1    0    0    0  501 -0.00000000000E+00 -0.00000000000E+00 -0.38087413265E+03  0.38087625001E+03  0.12700000000E+01 0. -1.
         25    2    1    2    0    0  0.00000000000E+00  0.00000000000E+00 -0.37065945705E+03  0.39116957297E+03  0.12500080686E+03 0.  0.
    9000005    1    3    3    0    0 -0.38803307056E+02 -0.48401204519E+02 -0.16171885099E+03  0.17321189336E+03  0.10000000000E+01 0.  0.
    9000005    1    3    3    0    0  0.38803307056E+02  0.48401204519E+02 -0.20894060606E+03  0.21795767961E+03  0.10000000000E+01 0.  0.
<mgrwt>
<rscale>  0 0.12500081E+03</rscale>
<asrwt>0</asrwt>
<pdfrwt beam="1">  1        4 0.25637658E-02 0.12500081E+03</pdfrwt>
<pdfrwt beam="2">  1       -4 0.95228581E-01 0.12500081E+03</pdfrwt>
<totfact> 0.10753187E+03</totfact>
</mgrwt>
</event>
<event>
 5    1  0.1433395E-002  0.1250005E+03  0.7818608E-02  0.1235068E+00
         -4   -1    0    0    0  501 -0.00000000000E+00  0.00000000000E+00  0.53315940987E+01  0.54807659714E+01  0.12700000000E+01 0.  1.
          4   -1    0    0  501    0  0.00000000000E+00 -0.00000000000E+00 -0.72240885418E+03  0.72240997051E+03  0.12700000000E+01 0.  1.
         25    2    1    2    0    0  0.00000000000E+00  0.00000000000E+00 -0.71707726008E+03  0.72789073649E+03  0.12500050934E+03 0.  0.
    9000005    1    3    3    0    0 -0.75399448591E+00  0.29068804851E+02 -0.68064187800E+03  0.68126348061E+03  0.10000000000E+01 0.  0.
    9000005    1    3    3    0    0  0.75399448591E+00 -0.29068804851E+02 -0.36435382081E+02  0.46627255876E+02  0.10000000000E+01 0.  0.
<mgrwt>
<rscale>  0 0.12500051E+03</rscale>
<asrwt>0</asrwt>
<pdfrwt beam="2">  1        4 0.18062067E+00 0.12500051E+03</pdfrwt>
<pdfrwt beam="1">  1       -4 0.13516870E-02 0.12500051E+03</pdfrwt>
<totfact> 0.59223308E+02</totfact>
</mgrwt>
</event>
<event>
 5    1  0.1433395E-002  0.1250088E+03  0.7818608E-02  0.1235055E+00
         -4   -1    0    0    0  501 -0.00000000000E+00  0.00000000000E+00  0.26763790226E+02  0.26793905412E+02  0.12700000000E+01 0.  1.
          4   -1    0    0  501    0  0.00000000000E+00 -0.00000000000E+00 -0.14585847189E+03  0.14586400077E+03  0.12700000000E+01 0.  1.
         25    2    1    2    0    0  0.00000000000E+00  0.00000000000E+00 -0.11909468166E+03  0.17265790618E+03  0.12500883716E+03 0.  0.
    9000005    1    3    3    0    0 -0.17481310158E+02 -0.59969178068E+02 -0.62276259486E+02  0.88211286231E+02  0.10000000000E+01 0.  0.
    9000005    1    3    3    0    0  0.17481310158E+02  0.59969178068E+02 -0.56818422175E+02  0.84446619953E+02  0.10000000000E+01 0.  0.
<mgrwt>
<rscale>  0 0.12500884E+03</rscale>
<asrwt>0</asrwt>
<pdfrwt beam="2">  1        4 0.36469071E-01 0.12500884E+03</pdfrwt>
<pdfrwt beam="1">  1       -4 0.66954035E-02 0.12500884E+03</pdfrwt>
<totfact> 0.17474243E+03</totfact>
</mgrwt>
</event>
<event>
 5    1  0.1433395E-002  0.1249998E+03  0.7818608E-02  0.1235070E+00
         -4   -1    0    0    0  501 -0.00000000000E+00  0.00000000000E+00  0.21474324938E+03  0.21474700476E+03  0.12700000000E+01 0.  1.
          4   -1    0    0  501    0  0.00000000000E+00 -0.00000000000E+00 -0.18164177826E+02  0.18208521524E+02  0.12700000000E+01 0.  1.
         25    2    1    2    0    0  0.00000000000E+00  0.00000000000E+00  0.19657907155E+03  0.23295552628E+03  0.12499978341E+03 0.  0.
    9000005    1    3    3    0    0 -0.13947442869E+02 -0.14456304661E+02 -0.11992430243E+02  0.23416538817E+02  0.10000000000E+01 0.  0.
    9000005    1    3    3    0    0  0.13947442869E+02  0.14456304661E+02  0.20857150180E+03  0.20953898747E+03  0.10000000000E+01 0.  0.
<mgrwt>
<rscale>  0 0.12499978E+03</rscale>
<asrwt>0</asrwt>
<pdfrwt beam="2">  1        4 0.45470569E-02 0.12499978E+03</pdfrwt>
<pdfrwt beam="1">  1       -4 0.53691824E-01 0.12499978E+03</pdfrwt>
<totfact> 0.15082351E+03</totfact>
</mgrwt>
</event>
<event>
 5    1  0.1433395E-002  0.1249991E+03  0.7818608E-02  0.1235071E+00
         -4   -1    0    0    0  501 -0.00000000000E+00  0.00000000000E+00  0.20496009465E+02  0.20535318454E+02  0.12700000000E+01 0. -1.
          4   -1    0    0  501    0  0.00000000000E+00 -0.00000000000E+00 -0.19035908364E+03  0.19036332006E+03  0.12700000000E+01 0. -1.
         25    2    1    2    0    0  0.00000000000E+00  0.00000000000E+00 -0.16986307417E+03  0.21089863851E+03  0.12499908703E+03 0.  0.
    9000005    1    3    3    0    0  0.38790198322E+02  0.29771308135E+02 -0.19278311197E+02  0.52570557887E+02  0.10000000000E+01 0.  0.
    9000005    1    3    3    0    0 -0.38790198322E+02 -0.29771308135E+02 -0.15058476297E+03  0.15832808062E+03  0.10000000000E+01 0.  0.
<mgrwt>
<rscale>  0 0.12499909E+03</rscale>
<asrwt>0</asrwt>
<pdfrwt beam="2">  1        4 0.47595209E-01 0.12499909E+03</pdfrwt>
<pdfrwt beam="1">  1       -4 0.51294461E-02 0.12499909E+03</pdfrwt>
<totfact> 0.15895085E+03</totfact>
</mgrwt>
</event>
<event>
 5    1  0.1433395E-002  0.1250007E+03  0.7818608E-02  0.1235068E+00
          4   -1    0    0  501    0  0.00000000000E+00  0.00000000000E+00  0.30044435059E+02  0.30071264989E+02  0.12700000000E+01 0. -1.
         -4   -1    0    0    0  501 -0.00000000000E+00 -0.00000000000E+00 -0.12992930143E+03  0.12993550812E+03  0.12700000000E+01 0. -1.
         25    2    1    2    0    0  0.00000000000E+00  0.00000000000E+00 -0.99884866372E+02  0.16000677311E+03  0.12500072364E+03 0.  0.
    9000005    1    3    3    0    0 -0.60657905123E+02  0.14598512794E+02 -0.45363299933E+02  0.77144844355E+02  0.10000000000E+01 0.  0.
    9000005    1    3    3    0    0  0.60657905123E+02 -0.14598512794E+02 -0.54521566439E+02  0.82861928754E+02  0.10000000000E+01 0.  0.
<mgrwt>
<rscale>  0 0.12500072E+03</rscale>
<asrwt>0</asrwt>
<pdfrwt beam="1">  1        4 0.75152387E-02 0.12500072E+03</pdfrwt>
<pdfrwt beam="2">  1       -4 0.32486453E-01 0.12500072E+03</pdfrwt>
<totfact> 0.18057132E+03</totfact>
</mgrwt>
</event>
<event>
 5    1  0.1433395E-002  0.1250000E+03  0.7818608E-02  0.1235069E+00
          4   -1    0    0  501    0  0.00000000000E+00  0.00000000000E+00  0.17835857555E+02  0.17881015484E+02  0.12700000000E+01 0.  1.
         -4   -1    0    0    0  501 -0.00000000000E+00 -0.00000000000E+00 -0.21868728582E+03  0.21869097348E+03  0.12700000000E+01 0.  1.
         25    2    1    2    0    0  0.00000000000E+00  0.00000000000E+00 -0.20085142827E+03  0.23657198896E+03  0.12500003890E+03 0.  0.
    9000005    1    3    3    0    0 -0.72845084740E+01  0.23247438458E+02 -0.20933918938E+03  0.21075436809E+03  0.10000000000E+01 0.  0.
    9000005    1    3    3    0    0  0.72845084740E+01 -0.23247438458E+02  0.84877611157E+01  0.25817620868E+02  0.10000000000E+01 0.  0.
<mgrwt>
<rscale>  0 0.12500004E+03</rscale>
<asrwt>0</asrwt>
<pdfrwt beam="1">  1        4 0.44650708E-02 0.12500004E+03</pdfrwt>
<pdfrwt beam="2">  1       -4 0.54677919E-01 0.12500004E+03</pdfrwt>
<totfact> 0.14955276E+03</totfact>
</mgrwt>
</event>
<event>
 5    1  0.1433395E-002  0.1250008E+03  0.7818608E-02  0.1235068E+00
          4   -1    0    0  501    0  0.00000000000E+00  0.00000000000E+00  0.31191299710E+02  0.31217143970E+02  0.12700000000E+01 0. -1.
         -4   -1    0    0    0  501 -0.00000000000E+00 -0.00000000000E+00 -0.12515597364E+03  0.12516241703E+03  0.12700000000E+01 0. -1.
         25    2    1    2    0    0  0.00000000000E+00  0.00000000000E+00 -0.93964673928E+02  0.15637956100E+03  0.12500082861E+03 0.  0.
    9000005    1    3    3    0    0 -0.40669643527E+02 -0.15262253419E+02  0.92213561213E+01  0.44418348605E+02  0.10000000000E+01 0.  0.
    9000005    1    3    3    0    0  0.40669643527E+02  0.15262253419E+02 -0.10318603005E+03  0.11196121240E+03  0.10000000000E+01 0.  0.
<mgrwt>
<rscale>  0 0.12500083E+03</rscale>
<asrwt>0</asrwt>
<pdfrwt beam="1">  1        4 0.78018612E-02 0.12500083E+03</pdfrwt>
<pdfrwt beam="2">  1       -4 0.31293028E-01 0.12500083E+03</pdfrwt>
<totfact> 0.18229129E+03</totfact>
</mgrwt>
</event>
<event>
 5    1  0.1433395E-002  0.1250002E+03  0.7818608E-02  0.1235069E+00
          4   -1    0    0  501    0  0.00000000000E+00  0.00000000000E+00  0.78786283163E+02  0.78796518417E+02  0.12700000000E+01 0. -1.
         -4   -1    0    0    0  501 -0.00000000000E+00 -0.00000000000E+00 -0.49558889173E+02  0.49575159062E+02  0.12700000000E+01 0. -1.
         25    2    1    2    0    0  0.00000000000E+00  0.00000000000E+00  0.29227393990E+02  0.12837167748E+03  0.12500018808E+03 0.  0.
    9000005    1    3    3    0    0  0.38305196814E+02 -0.48774350416E+02  0.67229438148E+01  0.62389288624E+02  0.10000000000E+01 0.  0.
    9000005    1    3    3    0    0 -0.38305196814E+02  0.48774350416E+02  0.22504450175E+02  0.65982388856E+02  0.10000000000E+01 0.  0.
<mgrwt>
<rscale>  0 0.12500019E+03</rscale>
<asrwt>0</asrwt>
<pdfrwt beam="1">  1        4 0.19699884E-01 0.12500019E+03</pdfrwt>
<pdfrwt beam="2">  1       -4 0.12393036E-01 0.12500019E+03</pdfrwt>
<totfact> 0.19652249E+03</totfact>
</mgrwt>
</event>
<event>
 5    1  0.1433395E-002  0.1249996E+03  0.7818608E-02  0.1235070E+00
          4   -1    0    0  501    0  0.00000000000E+00  0.00000000000E+00  0.32090830454E+03  0.32091081756E+03  0.12700000000E+01 0. -1.
         -4   -1    0    0    0  501 -0.00000000000E+00 -0.00000000000E+00 -0.12136711963E+02  0.12202978213E+02  0.12700000000E+01 0. -1.
         25    2    1    2    0    0  0.00000000000E+00  0.00000000000E+00  0.30877159258E+03  0.33311379577E+03  0.12499961819E+03 0.  0.
    9000005    1    3    3    0    0  0.25527051317E+02  0.44636809964E+02  0.24902421481E+03  0.25427963881E+03  0.10000000000E+01 0.  0.
    9000005    1    3    3    0    0 -0.25527051317E+02 -0.44636809964E+02  0.59747377769E+02  0.78834156956E+02  0.10000000000E+01 0.  0.
<mgrwt>
<rscale>  0 0.12499962E+03</rscale>
<asrwt>0</asrwt>
<pdfrwt beam="1">  1        4 0.80235667E-01 0.12499962E+03</pdfrwt>
<pdfrwt beam="2">  1       -4 0.30427756E-02 0.12499962E+03</pdfrwt>
<totfact> 0.12091337E+03</totfact>
</mgrwt>
</event>
<event>
 5    1  0.1433395E-002  0.1250056E+03  0.7818608E-02  0.1235060E+00
         -4   -1    0    0    0  501 -0.00000000000E+00  0.00000000000E+00  0.22153199640E+03  0.22153563670E+03  0.12700000000E+01 0.  1.
          4   -1    0    0  501    0  0.00000000000E+00 -0.00000000000E+00 -0.17607826221E+02  0.17653567465E+02  0.12700000000E+01 0.  1.
         25    2    1    2    0    0  0.00000000000E+00  0.00000000000E+00  0.20392417018E+03  0.23918920416E+03  0.12500563270E+03 0.  0.
    9000005    1    3    3    0    0 -0.35531293869E+01  0.28301768148E+02  0.20835944162E+03  0.21030518710E+03  0.10000000000E+01 0.  0.
    9000005    1    3    3    0    0  0.35531293869E+01 -0.28301768148E+02 -0.44352714475E+01  0.28884017061E+02  0.10000000000E+01 0.  0.
<mgrwt>
<rscale>  0 0.12500563E+03</rscale>
<asrwt>0</asrwt>
<pdfrwt beam="2">  1        4 0.44081291E-02 0.12500563E+03</pdfrwt>
<pdfrwt beam="1">  1       -4 0.55389173E-01 0.12500563E+03</pdfrwt>
<totfact> 0.14862497E+03</totfact>
</mgrwt>
</event>
<event>
 5    1  0.1433395E-002  0.1250393E+03  0.7818608E-02  0.1235008E+00
          4   -1    0    0  501    0  0.00000000000E+00  0.00000000000E+00  0.90346415355E+02  0.90355341112E+02  0.12700000000E+01 0.  1.
         -4   -1    0    0    0  501 -0.00000000000E+00 -0.00000000000E+00 -0.43243179091E+02  0.43261824255E+02  0.12700000000E+01 0.  1.
         25    2    1    2    0    0  0.00000000000E+00  0.00000000000E+00  0.47103236264E+02  0.13361716537E+03  0.12503932187E+03 0.  0.
    9000005    1    3    3    0    0  0.60929069367E+02 -0.95826763033E+01  0.12678695801E+02  0.62975618348E+02  0.10000000000E+01 0.  0.
    9000005    1    3    3    0    0 -0.60929069367E+02  0.95826763033E+01  0.34424540463E+02  0.70641547019E+02  0.10000000000E+01 0.  0.
<mgrwt>
<rscale>  0 0.12503932E+03</rscale>
<asrwt>0</asrwt>
<pdfrwt beam="1">  1        4 0.22590050E-01 0.12503932E+03</pdfrwt>
<pdfrwt beam="2">  1       -4 0.10814241E-01 0.12503932E+03</pdfrwt>
<totfact> 0.19354050E+03</totfact>
</mgrwt>
</event>
<event>
 5    1  0.1433395E-002  0.1249994E+03  0.7818608E-02  0.1235070E+00
          4   -1    0    0  501    0  0.00000000000E+00  0.00000000000E+00  0.14714097177E+02  0.14768803463E+02  0.12700000000E+01 0.  1.
         -4   -1    0    0    0  501 -0.00000000000E+00 -0.00000000000E+00 -0.26492532980E+03  0.26492837385E+03  0.12700000000E+01 0.  1.
         25    2    1    2    0    0  0.00000000000E+00  0.00000000000E+00 -0.25021123263E+03  0.27969717731E+03  0.12499940026E+03 0.  0.
    9000005    1    3    3    0    0  0.36348537034E+02  0.32104490771E+02 -0.21329322207E+03  0.21873937244E+03  0.10000000000E+01 0.  0.
    9000005    1    3    3    0    0 -0.36348537034E+02 -0.32104490771E+02 -0.36918010555E+02  0.60957804878E+02  0.10000000000E+01 0.  0.
<mgrwt>
<rscale>  0 0.12499940E+03</rscale>
<asrwt>0</asrwt>
<pdfrwt beam="1">  1        4 0.36857439E-02 0.12499940E+03</pdfrwt>
<pdfrwt beam="2">  1       -4 0.66238536E-01 0.12499940E+03</pdfrwt>
<totfact> 0.13559973E+03</totfact>
</mgrwt>
</event>
<event>
 5    1  0.1433395E-002  0.1250002E+03  0.7818608E-02  0.1235069E+00
          4   -1    0    0  501    0  0.00000000000E+00  0.00000000000E+00  0.87436618385E+03  0.87436710617E+03  0.12700000000E+01 0.  1.
         -4   -1    0    0    0  501 -0.00000000000E+00 -0.00000000000E+00 -0.43763385560E+01  0.45568891974E+01  0.12700000000E+01 0.  1.
         25    2    1    2    0    0  0.00000000000E+00  0.00000000000E+00  0.86998984529E+03  0.87892399537E+03  0.12500023490E+03 0.  0.
    9000005    1    3    3    0    0  0.18076916362E+02 -0.12079709570E+02  0.23039505419E+02  0.31694054623E+02  0.10000000000E+01 0.  0.
    9000005    1    3    3    0    0 -0.18076916362E+02  0.12079709570E+02  0.84695033987E+03  0.84722994075E+03  0.10000000000E+01 0.  0.
<mgrwt>
<rscale>  0 0.12500023E+03</rscale>
<asrwt>0</asrwt>
<pdfrwt beam="1">  1        4 0.21861429E+00 0.12500023E+03</pdfrwt>
<pdfrwt beam="2">  1       -4 0.11167685E-02 0.12500023E+03</pdfrwt>
<totfact> 0.45907213E+02</totfact>
</mgrwt>
</event>
<event>
 5    1  0.1433395E-002  0.1249868E+03  0.7818608E-02  0.1235090E+00
          4   -1    0    0  501    0  0.00000000000E+00  0.00000000000E+00  0.33261260759E+01  0.35603391232E+01  0.12700000000E+01 0. -1.
         -4   -1    0    0    0  501 -0.00000000000E+00 -0.00000000000E+00 -0.11339972227E+04  0.11339979339E+04  0.12700000000E+01 0. -1.
         25    2    1    2    0    0  0.00000000000E+00  0.00000000000E+00 -0.11306710966E+04  0.11375582730E+04  0.12498678204E+03 0.  0.
    9000005    1    3    3    0    0  0.59151351067E+02  0.18138672974E+02 -0.48571488450E+03  0.48964052408E+03  0.10000000000E+01 0.  0.
    9000005    1    3    3    0    0 -0.59151351067E+02 -0.18138672974E+02 -0.64495621212E+03  0.64791774890E+03  0.10000000000E+01 0.  0.
<mgrwt>
<rscale>  0 0.12498678E+03</rscale>
<asrwt>0</asrwt>
<pdfrwt beam="1">  1        4 0.86090093E-03 0.12498678E+03</pdfrwt>
<pdfrwt beam="2">  1       -4 0.28352739E+00 0.12498678E+03</pdfrwt>
<totfact> 0.28612954E+02</totfact>
</mgrwt>
</event>
<event>
 5    1  0.1433395E-002  0.1249980E+03  0.7818608E-02  0.1235072E+00
          4   -1    0    0  501    0  0.00000000000E+00  0.00000000000E+00  0.27771913781E+02  0.27800936946E+02  0.12700000000E+01 0. -1.
         -4   -1    0    0    0  501 -0.00000000000E+00 -0.00000000000E+00 -0.14054490283E+03  0.14055064074E+03  0.12700000000E+01 0. -1.
         25    2    1    2    0    0  0.00000000000E+00  0.00000000000E+00 -0.11277298905E+03  0.16835157769E+03  0.12499802658E+03 0.  0.
    9000005    1    3    3    0    0  0.47925128926E+02  0.13527224028E+02 -0.55388705417E+01  0.50114697039E+02  0.10000000000E+01 0.  0.
    9000005    1    3    3    0    0 -0.47925128926E+02 -0.13527224028E+02 -0.10723411851E+03  0.11823688065E+03  0.10000000000E+01 0.  0.
<mgrwt>
<rscale>  0 0.12499803E+03</rscale>
<asrwt>0</asrwt>
<pdfrwt beam="1">  1        4 0.69473240E-02 0.12499803E+03</pdfrwt>
<pdfrwt beam="2">  1       -4 0.35140569E-01 0.12499803E+03</pdfrwt>
<totfact> 0.17672465E+03</totfact>
</mgrwt>
</event>
<event>
 5    1  0.1433395E-002  0.1249986E+03  0.7818608E-02  0.1235071E+00
          4   -1    0    0  501    0  0.00000000000E+00  0.00000000000E+00  0.44763942460E+02  0.44781954453E+02  0.12700000000E+01 0.  1.
         -4   -1    0    0    0  501 -0.00000000000E+00 -0.00000000000E+00 -0.87221188507E+02  0.87230434050E+02  0.12700000000E+01 0.  1.
         25    2    1    2    0    0  0.00000000000E+00  0.00000000000E+00 -0.42457246046E+02  0.13201238850E+03  0.12499861190E+03 0.  0.
    9000005    1    3    3    0    0  0.44324785652E+02 -0.43029247165E+01  0.25071467057E+02  0.51115362120E+02  0.10000000000E+01 0.  0.
    9000005    1    3    3    0    0 -0.44324785652E+02  0.43029247165E+01 -0.67528713104E+02  0.80897026383E+02  0.10000000000E+01 0.  0.
<mgrwt>
<rscale>  0 0.12499861E+03</rscale>
<asrwt>0</asrwt>
<pdfrwt beam="1">  1        4 0.11194393E-01 0.12499861E+03</pdfrwt>
<pdfrwt beam="2">  1       -4 0.21808704E-01 0.12499861E+03</pdfrwt>
<totfact> 0.19457426E+03</totfact>
</mgrwt>
</event>
<event>
 5    1  0.1433395E-002  0.1249997E+03  0.7818608E-02  0.1235070E+00
          4   -1    0    0  501    0  0.00000000000E+00  0.00000000000E+00  0.16840461237E+02  0.16888280986E+02  0.12700000000E+01 0. -1.
         -4   -1    0    0    0  501 -0.00000000000E+00 -0.00000000000E+00 -0.23157651690E+03  0.23157999931E+03  0.12700000000E+01 0. -1.
         25    2    1    2    0    0  0.00000000000E+00  0.00000000000E+00 -0.21473605566E+03  0.24846828029E+03  0.12499965084E+03 0.  0.
    9000005    1    3    3    0    0 -0.33795589434E+02 -0.27551929736E+02 -0.19635134112E+03  0.20113701762E+03  0.10000000000E+01 0.  0.
    9000005    1    3    3    0    0  0.33795589434E+02  0.27551929736E+02 -0.18384714540E+02  0.47331262671E+02  0.10000000000E+01 0.  0.
<mgrwt>
<rscale>  0 0.12499965E+03</rscale>
<asrwt>0</asrwt>
<pdfrwt beam="1">  1        4 0.42165288E-02 0.12499965E+03</pdfrwt>
<pdfrwt beam="2">  1       -4 0.57900532E-01 0.12499965E+03</pdfrwt>
<totfact> 0.14549199E+03</totfact>
</mgrwt>
</event>
<event>
 5    1  0.1433395E-002  0.1249996E+03  0.7818608E-02  0.1235070E+00
         -4   -1    0    0    0  501 -0.00000000000E+00  0.00000000000E+00  0.16501951944E+03  0.16502440637E+03  0.12700000000E+01 0.  1.
          4   -1    0    0  501    0  0.00000000000E+00 -0.00000000000E+00 -0.23649010163E+02  0.23683086406E+02  0.12700000000E+01 0.  1.
         25    2    1    2    0    0  0.00000000000E+00  0.00000000000E+00  0.14137050928E+03  0.18870749277E+03  0.12499958774E+03 0.  0.
    9000005    1    3    3    0    0 -0.42413886852E+01 -0.78898176168E+01 -0.22682188962E+02  0.24407382000E+02  0.10000000000E+01 0.  0.
    9000005    1    3    3    0    0  0.42413886852E+01  0.78898176168E+01  0.16405269824E+03  0.16430011077E+03  0.10000000000E+01 0.  0.
<mgrwt>
<rscale>  0 0.12499959E+03</rscale>
<asrwt>0</asrwt>
<pdfrwt beam="2">  1        4 0.59171231E-02 0.12499959E+03</pdfrwt>
<pdfrwt beam="1">  1       -4 0.41259749E-01 0.12499959E+03</pdfrwt>
<totfact> 0.16784586E+03</totfact>
</mgrwt>
</event>
<event>
 5    1  0.1433395E-002  0.1250021E+03  0.7818608E-02  0.1235066E+00
         -4   -1    0    0    0  501 -0.00000000000E+00  0.00000000000E+00  0.40283006692E+02  0.40303021328E+02  0.12700000000E+01 0. -1.
          4   -1    0    0  501    0  0.00000000000E+00 -0.00000000000E+00 -0.96925180577E+02  0.96933500556E+02  0.12700000000E+01 0. -1.
         25    2    1    2    0    0  0.00000000000E+00  0.00000000000E+00 -0.56642173885E+02  0.13723652188E+03  0.12500210829E+03 0.  0.
    9000005    1    3    3    0    0  0.57163867453E+02 -0.14649074595E+02 -0.50903113557E+02  0.77938630335E+02  0.10000000000E+01 0.  0.
    9000005    1    3    3    0    0 -0.57163867453E+02  0.14649074595E+02 -0.57390603279E+01  0.59297891548E+02  0.10000000000E+01 0.  0.
<mgrwt>
<rscale>  0 0.12500211E+03</rscale>
<asrwt>0</asrwt>
<pdfrwt beam="2">  1        4 0.24234837E-01 0.12500211E+03</pdfrwt>
<pdfrwt beam="1">  1       -4 0.10074294E-01 0.12500211E+03</pdfrwt>
<totfact> 0.19181679E+03</totfact>
</mgrwt>
</event>
<event>
 5    1  0.1433395E-002  0.1249994E+03  0.7818608E-02  0.1235070E+00
          4   -1    0    0  501    0  0.00000000000E+00  0.00000000000E+00  0.28422069187E+03  0.28422352926E+03  0.12700000000E+01 0. -1.
         -4   -1    0    0    0  501 -0.00000000000E+00 -0.00000000000E+00 -0.13711332977E+02  0.13770023675E+02  0.12700000000E+01 0. -1.
         25    2    1    2    0    0  0.00000000000E+00  0.00000000000E+00  0.27050935889E+03  0.29799355294E+03  0.12499937738E+03 0.  0.
    9000005    1    3    3    0    0  0.29613354638E+02  0.54938053459E+02  0.14281998708E+03  0.15586432947E+03  0.10000000000E+01 0.  0.
    9000005    1    3    3    0    0 -0.29613354638E+02 -0.54938053459E+02  0.12768937181E+03  0.14212922347E+03  0.10000000000E+01 0.  0.
<mgrwt>
<rscale>  0 0.12499938E+03</rscale>
<asrwt>0</asrwt>
<pdfrwt beam="1">  1        4 0.71062866E-01 0.12499938E+03</pdfrwt>
<pdfrwt beam="2">  1       -4 0.34355242E-02 0.12499938E+03</pdfrwt>
<totfact> 0.13027663E+03</totfact>
</mgrwt>
</event>
<event>
 5    1  0.1433395E-002  0.1249984E+03  0.7818608E-02  0.1235072E+00
         -4   -1    0    0    0  501 -0.00000000000E+00  0.00000000000E+00  0.20771001486E+03  0.20771389740E+03  0.12700000000E+01 0.  1.
          4   -1    0    0  501    0  0.00000000000E+00 -0.00000000000E+00 -0.18780291983E+02  0.18823184294E+02  0.12700000000E+01 0.  1.
         25    2    1    2    0    0  0.00000000000E+00  0.00000000000E+00  0.18892972288E+03  0.22653708170E+03  0.12499843678E+03 0.  0.
    9000005    1    3    3    0    0 -0.24356349626E+02 -0.15958921772E+02 -0.57423585496E+01  0.29696693974E+02  0.10000000000E+01 0.  0.
    9000005    1    3    3    0    0  0.24356349626E+02  0.15958921772E+02  0.19467208143E+03  0.19684038772E+03  0.10000000000E+01 0.  0.
<mgrwt>
<rscale>  0 0.12499844E+03</rscale>
<asrwt>0</asrwt>
<pdfrwt beam="2">  1        4 0.47009198E-02 0.12499844E+03</pdfrwt>
<pdfrwt beam="1">  1       -4 0.51933352E-01 0.12499844E+03</pdfrwt>
<totfact> 0.15312395E+03</totfact>
</mgrwt>
</event>
<event>
 5    1  0.1433395E-002  0.1249979E+03  0.7818608E-02  0.1235073E+00
         -4   -1    0    0    0  501 -0.00000000000E+00  0.00000000000E+00  0.10075008655E+02  0.10154737781E+02  0.12700000000E+01 0.  1.
          4   -1    0    0  501    0  0.00000000000E+00 -0.00000000000E+00 -0.38609481233E+03  0.38609690106E+03  0.12700000000E+01 0.  1.
         25    2    1    2    0    0  0.00000000000E+00  0.00000000000E+00 -0.37601980368E+03  0.39625163884E+03  0.12499787410E+03 0.  0.
    9000005    1    3    3    0    0 -0.38737127930E+02 -0.44496623345E+02 -0.12268786019E+03  0.13613899371E+03  0.10000000000E+01 0.  0.
    9000005    1    3    3    0    0  0.38737127930E+02  0.44496623345E+02 -0.25333194348E+03  0.26011264513E+03  0.10000000000E+01 0.  0.
<mgrwt>
<rscale>  0 0.12499787E+03</rscale>
<asrwt>0</asrwt>
<pdfrwt beam="2">  1        4 0.96533881E-01 0.12499787E+03</pdfrwt>
<pdfrwt beam="1">  1       -4 0.25289807E-02 0.12499787E+03</pdfrwt>
<totfact> 0.10647338E+03</totfact>
</mgrwt>
</event>
<event>
 5    1  0.1433395E-002  0.1250001E+03  0.7818608E-02  0.1235069E+00
         -4   -1    0    0    0  501 -0.00000000000E+00  0.00000000000E+00  0.99617301175E+03  0.99617382130E+03  0.12700000000E+01 0. -1.
          4   -1    0    0  501    0  0.00000000000E+00 -0.00000000000E+00 -0.38175978492E+01  0.40233012985E+01  0.12700000000E+01 0. -1.
         25    2    1    2    0    0  0.00000000000E+00  0.00000000000E+00  0.99235541390E+03  0.10001971226E+04  0.12500006621E+03 0.  0.
    9000005    1    3    3    0    0 -0.43667948737E+02 -0.40929432060E+02  0.35233934186E+03  0.35738791246E+03  0.10000000000E+01 0.  0.
    9000005    1    3    3    0    0  0.43667948737E+02  0.40929432060E+02  0.64001607205E+03  0.64280921013E+03  0.10000000000E+01 0.  0.
<mgrwt>
<rscale>  0 0.12500007E+03</rscale>
<asrwt>0</asrwt>
<pdfrwt beam="2">  1        4 0.98021369E-03 0.12500007E+03</pdfrwt>
<pdfrwt beam="1">  1       -4 0.24906904E+00 0.12500007E+03</pdfrwt>
<totfact> 0.37096055E+02</totfact>
</mgrwt>
</event>
<event>
 5    1  0.1433395E-002  0.1250019E+03  0.7818608E-02  0.1235066E+00
          4   -1    0    0  501    0  0.00000000000E+00  0.00000000000E+00  0.14589376868E+02  0.14644549068E+02  0.12700000000E+01 0. -1.
         -4   -1    0    0    0  501 -0.00000000000E+00 -0.00000000000E+00 -0.26719241417E+03  0.26719543239E+03  0.12700000000E+01 0. -1.
         25    2    1    2    0    0  0.00000000000E+00  0.00000000000E+00 -0.25260303730E+03  0.28183998146E+03  0.12500192276E+03 0.  0.
    9000005    1    3    3    0    0 -0.48777925168E+01 -0.50106897436E+02 -0.42821023264E+02  0.66099425594E+02  0.10000000000E+01 0.  0.
    9000005    1    3    3    0    0  0.48777925168E+01  0.50106897436E+02 -0.20978201404E+03  0.21574055586E+03  0.10000000000E+01 0.  0.
<mgrwt>
<rscale>  0 0.12500192E+03</rscale>
<asrwt>0</asrwt>
<pdfrwt beam="1">  1        4 0.36546189E-02 0.12500192E+03</pdfrwt>
<pdfrwt beam="2">  1       -4 0.66805362E-01 0.12500192E+03</pdfrwt>
<totfact> 0.13495141E+03</totfact>
</mgrwt>
</event>
<event>
 5    1  0.1433395E-002  0.1250003E+03  0.7818608E-02  0.1235069E+00
         -4   -1    0    0    0  501 -0.00000000000E+00  0.00000000000E+00  0.28230534960E+02  0.28259087107E+02  0.12700000000E+01 0. -1.
          4   -1    0    0  501    0  0.00000000000E+00 -0.00000000000E+00 -0.13826889474E+03  0.13827472709E+03  0.12700000000E+01 0. -1.
         25    2    1    2    0    0  0.00000000000E+00  0.00000000000E+00 -0.11003835978E+03  0.16653381420E+03  0.12500028260E+03 0.  0.
    9000005    1    3    3    0    0 -0.43445002845E+01 -0.18909784478E+01 -0.13803577279E+03  0.13812069017E+03  0.10000000000E+01 0.  0.
    9000005    1    3    3    0    0  0.43445002845E+01  0.18909784478E+01  0.27997413010E+02  0.28413124035E+02  0.10000000000E+01 0.  0.
<mgrwt>
<rscale>  0 0.12500028E+03</rscale>
<asrwt>0</asrwt>
<pdfrwt beam="2">  1        4 0.34571520E-01 0.12500028E+03</pdfrwt>
<pdfrwt beam="1">  1       -4 0.70619322E-02 0.12500028E+03</pdfrwt>
<totfact> 0.17754413E+03</totfact>
</mgrwt>
</event>
<event>
 5    1  0.1433395E-002  0.1249992E+03  0.7818608E-02  0.1235071E+00
          4   -1    0    0  501    0  0.00000000000E+00  0.00000000000E+00  0.32276462396E+02  0.32301438432E+02  0.12700000000E+01 0.  1.
         -4   -1    0    0    0  501 -0.00000000000E+00 -0.00000000000E+00 -0.12094807725E+03  0.12095474481E+03  0.12700000000E+01 0.  1.
         25    2    1    2    0    0  0.00000000000E+00  0.00000000000E+00 -0.88671614858E+02  0.15325618324E+03  0.12499920968E+03 0.  0.
    9000005    1    3    3    0    0  0.61415944828E+02  0.10804612653E+02 -0.39349103802E+02  0.73742863409E+02  0.10000000000E+01 0.  0.
    9000005    1    3    3    0    0 -0.61415944828E+02 -0.10804612653E+02 -0.49322511055E+02  0.79513319831E+02  0.10000000000E+01 0.  0.
<mgrwt>
<rscale>  0 0.12499921E+03</rscale>
<asrwt>0</asrwt>
<pdfrwt beam="1">  1        4 0.80730713E-02 0.12499921E+03</pdfrwt>
<pdfrwt beam="2">  1       -4 0.30240974E-01 0.12499921E+03</pdfrwt>
<totfact> 0.18380163E+03</totfact>
</mgrwt>
</event>
<event>
 5    1  0.1433395E-002  0.1249975E+03  0.7818608E-02  0.1235073E+00
          4   -1    0    0  501    0  0.00000000000E+00  0.00000000000E+00  0.59501518135E+03  0.59501653669E+03  0.12700000000E+01 0. -1.
         -4   -1    0    0    0  501 -0.00000000000E+00 -0.00000000000E+00 -0.65019009100E+01  0.66247728597E+01  0.12700000000E+01 0. -1.
         25    2    1    2    0    0  0.00000000000E+00  0.00000000000E+00  0.58851328044E+03  0.60164130955E+03  0.12499753639E+03 0.  0.
    9000005    1    3    3    0    0  0.36081857801E+02  0.37605518061E+02  0.46022713142E+03  0.46316961035E+03  0.10000000000E+01 0.  0.
    9000005    1    3    3    0    0 -0.36081857801E+02 -0.37605518061E+02  0.12828614901E+03  0.13847169920E+03  0.10000000000E+01 0.  0.
<mgrwt>
<rscale>  0 0.12499754E+03</rscale>
<asrwt>0</asrwt>
<pdfrwt beam="1">  1        4 0.14876930E+00 0.12499754E+03</pdfrwt>
<pdfrwt beam="2">  1       -4 0.16410039E-02 0.12499754E+03</pdfrwt>
<totfact> 0.73300862E+02</totfact>
</mgrwt>
</event>
<event>
 5    1  0.1433395E-002  0.1250004E+03  0.7818608E-02  0.1235069E+00
          4   -1    0    0  501    0  0.00000000000E+00  0.00000000000E+00  0.15233634413E+03  0.15234163792E+03  0.12700000000E+01 0.  1.
         -4   -1    0    0    0  501 -0.00000000000E+00 -0.00000000000E+00 -0.25620954011E+02  0.25652410889E+02  0.12700000000E+01 0.  1.
         25    2    1    2    0    0  0.00000000000E+00  0.00000000000E+00  0.12671539012E+03  0.17799404881E+03  0.12500036527E+03 0.  0.
    9000005    1    3    3    0    0  0.23721662006E+02 -0.57804946382E+02  0.64880557478E+02  0.90081162366E+02  0.10000000000E+01 0.  0.
    9000005    1    3    3    0    0 -0.23721662006E+02  0.57804946382E+02  0.61834832645E+02  0.87912886444E+02  0.10000000000E+01 0.  0.
<mgrwt>
<rscale>  0 0.12500037E+03</rscale>
<asrwt>0</asrwt>
<pdfrwt beam="1">  1        4 0.38088680E-01 0.12500037E+03</pdfrwt>
<pdfrwt beam="2">  1       -4 0.64098324E-02 0.12500037E+03</pdfrwt>
<totfact> 0.17242248E+03</totfact>
</mgrwt>
</event>
<event>
 5    1  0.1433395E-002  0.1249991E+03  0.7818608E-02  0.1235071E+00
          4   -1    0    0  501    0  0.00000000000E+00  0.00000000000E+00  0.46231528211E+02  0.46248968645E+02  0.12700000000E+01 0.  1.
         -4   -1    0    0    0  501 -0.00000000000E+00 -0.00000000000E+00 -0.84453864859E+02  0.84463413320E+02  0.12700000000E+01 0.  1.
         25    2    1    2    0    0  0.00000000000E+00  0.00000000000E+00 -0.38222336648E+02  0.13071238196E+03  0.12499911912E+03 0.  0.
    9000005    1    3    3    0    0 -0.10074420886E+02  0.43545828096E+02 -0.64781872308E+02  0.78711016259E+02  0.10000000000E+01 0.  0.
    9000005    1    3    3    0    0  0.10074420886E+02 -0.43545828096E+02  0.26559535660E+02  0.52001365706E+02  0.10000000000E+01 0.  0.
<mgrwt>
<rscale>  0 0.12499912E+03</rscale>
<asrwt>0</asrwt>
<pdfrwt beam="1">  1        4 0.11561256E-01 0.12499912E+03</pdfrwt>
<pdfrwt beam="2">  1       -4 0.21116840E-01 0.12499912E+03</pdfrwt>
<totfact> 0.19526564E+03</totfact>
</mgrwt>
</event>
<event>
 5    1  0.1433395E-002  0.1250001E+03  0.7818608E-02  0.1235069E+00
          4   -1    0    0  501    0  0.00000000000E+00  0.00000000000E+00  0.53494620243E+02  0.53509693467E+02  0.12700000000E+01 0. -1.
         -4   -1    0    0    0  501 -0.00000000000E+00 -0.00000000000E+00 -0.72990629127E+02  0.73001676969E+02  0.12700000000E+01 0. -1.
         25    2    1    2    0    0  0.00000000000E+00  0.00000000000E+00 -0.19496008884E+02  0.12651137044E+03  0.12500012995E+03 0.  0.
    9000005    1    3    3    0    0  0.10055347462E+02 -0.16381075961E+02 -0.69929567199E+02  0.72529952646E+02  0.10000000000E+01 0.  0.
    9000005    1    3    3    0    0 -0.10055347462E+02  0.16381075961E+02  0.50433558315E+02  0.53981417789E+02  0.10000000000E+01 0.  0.
<mgrwt>
<rscale>  0 0.12500013E+03</rscale>
<asrwt>0</asrwt>
<pdfrwt beam="1">  1        4 0.13376920E-01 0.12500013E+03</pdfrwt>
<pdfrwt beam="2">  1       -4 0.18250922E-01 0.12500013E+03</pdfrwt>
<totfact> 0.19753251E+03</totfact>
</mgrwt>
</event>
<event>
 5    1  0.1433395E-002  0.1249943E+03  0.7818608E-02  0.1235078E+00
         -4   -1    0    0    0  501 -0.00000000000E+00  0.00000000000E+00  0.22128100245E+02  0.22164514893E+02  0.12700000000E+01 0. -1.
          4   -1    0    0  501    0  0.00000000000E+00 -0.00000000000E+00 -0.17632891978E+03  0.17633349328E+03  0.12700000000E+01 0. -1.
         25    2    1    2    0    0  0.00000000000E+00  0.00000000000E+00 -0.15420081954E+03  0.19849800817E+03  0.12499426588E+03 0.  0.
    9000005    1    3    3    0    0 -0.70055404216E+01 -0.60408090908E+02 -0.99930713957E+02  0.11698445468E+03  0.10000000000E+01 0.  0.
    9000005    1    3    3    0    0  0.70055404216E+01  0.60408090908E+02 -0.54270105583E+02  0.81513553497E+02  0.10000000000E+01 0.  0.
<mgrwt>
<rscale>  0 0.12499427E+03</rscale>
<asrwt>0</asrwt>
<pdfrwt beam="2">  1        4 0.44087349E-01 0.12499427E+03</pdfrwt>
<pdfrwt beam="1">  1       -4 0.55371491E-02 0.12499427E+03</pdfrwt>
<totfact> 0.16384533E+03</totfact>
</mgrwt>
</event>
<event>
 5    1  0.1433395E-002  0.1250015E+03  0.7818608E-02  0.1235067E+00
         -4   -1    0    0    0  501 -0.00000000000E+00  0.00000000000E+00  0.13115962462E+02  0.13177305161E+02  0.12700000000E+01 0. -1.
          4   -1    0    0  501    0  0.00000000000E+00 -0.00000000000E+00 -0.29707376945E+03  0.29707648409E+03  0.12700000000E+01 0. -1.
         25    2    1    2    0    0  0.00000000000E+00  0.00000000000E+00 -0.28395780699E+03  0.31025378925E+03  0.12500151036E+03 0.  0.
    9000005    1    3    3    0    0 -0.25551206065E+02 -0.43719949000E+02 -0.23287049841E+03  0.23831484868E+03  0.10000000000E+01 0.  0.
    9000005    1    3    3    0    0  0.25551206065E+02  0.43719949000E+02 -0.51087308583E+02  0.71938940569E+02  0.10000000000E+01 0.  0.
<mgrwt>
<rscale>  0 0.12500151E+03</rscale>
<asrwt>0</asrwt>
<pdfrwt beam="2">  1        4 0.74276428E-01 0.12500151E+03</pdfrwt>
<pdfrwt beam="1">  1       -4 0.32869988E-02 0.12500151E+03</pdfrwt>
<totfact> 0.12688027E+03</totfact>
</mgrwt>
</event>
<event>
 5    1  0.1433395E-002  0.1250004E+03  0.7818608E-02  0.1235069E+00
          4   -1    0    0  501    0  0.00000000000E+00  0.00000000000E+00  0.25077910518E+02  0.25110047709E+02  0.12700000000E+01 0.  1.
         -4   -1    0    0    0  501 -0.00000000000E+00 -0.00000000000E+00 -0.15563108837E+03  0.15563627009E+03  0.12700000000E+01 0.  1.
         25    2    1    2    0    0  0.00000000000E+00  0.00000000000E+00 -0.13055317785E+03  0.18074631779E+03  0.12500039660E+03 0.  0.
    9000005    1    3    3    0    0 -0.24246533710E+02  0.55512349401E+02 -0.87478615935E+02  0.10640969683E+03  0.10000000000E+01 0.  0.
    9000005    1    3    3    0    0  0.24246533710E+02 -0.55512349401E+02 -0.43074561913E+02  0.74336620968E+02  0.10000000000E+01 0.  0.
<mgrwt>
<rscale>  0 0.12500040E+03</rscale>
<asrwt>0</asrwt>
<pdfrwt beam="1">  1        4 0.62741429E-02 0.12500040E+03</pdfrwt>
<pdfrwt beam="2">  1       -4 0.38912434E-01 0.12500040E+03</pdfrwt>
<totfact> 0.17122802E+03</totfact>
</mgrwt>
</event>
<event>
 5    1  0.1433395E-002  0.1250006E+03  0.7818608E-02  0.1235068E+00
          4   -1    0    0  501    0  0.00000000000E+00  0.00000000000E+00  0.34643006982E+01  0.36897532882E+01  0.12700000000E+01 0.  1.
         -4   -1    0    0    0  501 -0.00000000000E+00 -0.00000000000E+00 -0.10918227860E+04  0.10918235246E+04  0.12700000000E+01 0.  1.
         25    2    1    2    0    0  0.00000000000E+00  0.00000000000E+00 -0.10883584853E+04  0.10955132779E+04  0.12500059824E+03 0.  0.
    9000005    1    3    3    0    0 -0.38101550567E+02 -0.46567827660E+02 -0.39622567549E+03  0.40076935592E+03  0.10000000000E+01 0.  0.
    9000005    1    3    3    0    0  0.38101550567E+02  0.46567827660E+02 -0.69213280980E+03  0.69474392198E+03  0.10000000000E+01 0.  0.
<mgrwt>
<rscale>  0 0.12500060E+03</rscale>
<asrwt>0</asrwt>
<pdfrwt beam="1">  1        4 0.89435282E-03 0.12500060E+03</pdfrwt>
<pdfrwt beam="2">  1       -4 0.27298283E+00 0.12500060E+03</pdfrwt>
<totfact> 0.31050158E+02</totfact>
</mgrwt>
</event>
<event>
 5    1  0.1433395E-002  0.1250055E+03  0.7818608E-02  0.1235061E+00
          4   -1    0    0  501    0  0.00000000000E+00  0.00000000000E+00  0.33944615189E+02  0.33968364699E+02  0.12700000000E+01 0. -1.
         -4   -1    0    0    0  501 -0.00000000000E+00 -0.00000000000E+00 -0.11501974099E+03  0.11502675218E+03  0.12700000000E+01 0. -1.
         25    2    1    2    0    0  0.00000000000E+00  0.00000000000E+00 -0.81075125798E+02  0.14899511688E+03  0.12500547520E+03 0.  0.
    9000005    1    3    3    0    0 -0.56472212569E+02  0.75396145639E+01 -0.71149798834E+02  0.91155090117E+02  0.10000000000E+01 0.  0.
    9000005    1    3    3    0    0  0.56472212569E+02 -0.75396145639E+01 -0.99253269644E+01  0.57840026760E+02  0.10000000000E+01 0.  0.
<mgrwt>
<rscale>  0 0.12500548E+03</rscale>
<asrwt>0</asrwt>
<pdfrwt beam="1">  1        4 0.84899992E-02 0.12500548E+03</pdfrwt>
<pdfrwt beam="2">  1       -4 0.28758779E-01 0.12500548E+03</pdfrwt>
<totfact> 0.18585933E+03</totfact>
</mgrwt>
</event>
<event>
 5    1  0.1433395E-002  0.1250029E+03  0.7818608E-02  0.1235065E+00
         -4   -1    0    0    0  501 -0.00000000000E+00  0.00000000000E+00  0.13693127854E+02  0.13751896249E+02  0.12700000000E+01 0.  1.
          4   -1    0    0  501    0  0.00000000000E+00 -0.00000000000E+00 -0.28461294412E+03  0.28461577761E+03  0.12700000000E+01 0.  1.
         25    2    1    2    0    0  0.00000000000E+00  0.00000000000E+00 -0.27091981627E+03  0.29836767385E+03  0.12500288778E+03 0.  0.
    9000005    1    3    3    0    0 -0.53932466222E+02  0.31509918777E+02 -0.13077978808E+03  0.14493425705E+03  0.10000000000E+01 0.  0.
    9000005    1    3    3    0    0  0.53932466222E+02 -0.31509918777E+02 -0.14014002818E+03  0.15343341681E+03  0.10000000000E+01 0.  0.
<mgrwt>
<rscale>  0 0.12500289E+03</rscale>
<asrwt>0</asrwt>
<pdfrwt beam="2">  1        4 0.71160917E-01 0.12500289E+03</pdfrwt>
<pdfrwt beam="1">  1       -4 0.34309831E-02 0.12500289E+03</pdfrwt>
<totfact> 0.13016069E+03</totfact>
</mgrwt>
</event>
<event>
 4    1  0.1433395E-002  0.1252529E+03  0.7818608E-02  0.1234675E+00
         -4   -1    0    0    0  501 -0.00000000000E+00  0.00000000000E+00  0.27983124360E+01  0.30730200926E+01  0.12700000000E+01 0. -1.
          4   -1    0    0  501    0  0.00000000000E+00 -0.00000000000E+00 -0.13357332588E+04  0.13357338626E+04  0.12700000000E+01 0. -1.
    9000005    1    1    2    0    0  0.37431826706E+02  0.50194337771E+02 -0.67372682236E+03  0.67663095138E+03  0.10000000000E+01 0.  0.
    9000005    1    1    2    0    0 -0.37431826706E+02 -0.50194337771E+02 -0.65920812402E+03  0.66217593128E+03  0.10000000000E+01 0.  0.
<mgrwt>
<rscale>  0 0.12525294E+03</rscale>
<asrwt>0</asrwt>
<pdfrwt beam="2">  1        4 0.33396564E+00 0.12525294E+03</pdfrwt>
<pdfrwt beam="1">  1       -4 0.73399661E-03 0.12525294E+03</pdfrwt>
<totfact> 0.18492559E+02</totfact>
</mgrwt>
</event>
<event>
 5    1  0.1433395E-002  0.1250003E+03  0.7818608E-02  0.1235069E+00
         -4   -1    0    0    0  501 -0.00000000000E+00  0.00000000000E+00  0.75850411955E+03  0.75850518277E+03  0.12700000000E+01 0.  1.
          4   -1    0    0  501    0  0.00000000000E+00 -0.00000000000E+00 -0.50705838085E+01  0.52272095959E+01  0.12700000000E+01 0.  1.
         25    2    1    2    0    0  0.00000000000E+00  0.00000000000E+00  0.75343353575E+03  0.76373239236E+03  0.12500029742E+03 0.  0.
    9000005    1    3    3    0    0  0.11055243664E+02 -0.17429767519E+02  0.16326384804E+02  0.26335642180E+02  0.10000000000E+01 0.  0.
    9000005    1    3    3    0    0 -0.11055243664E+02  0.17429767519E+02  0.73710715094E+03  0.73739675018E+03  0.10000000000E+01 0.  0.
<mgrwt>
<rscale>  0 0.12500030E+03</rscale>
<asrwt>0</asrwt>
<pdfrwt beam="2">  1        4 0.12873570E-02 0.12500030E+03</pdfrwt>
<pdfrwt beam="1">  1       -4 0.18964575E+00 0.12500030E+03</pdfrwt>
<totfact> 0.55773850E+02</totfact>
</mgrwt>
</event>
<event>
 5    1  0.1433395E-002  0.1249984E+03  0.7818608E-02  0.1235072E+00
         -4   -1    0    0    0  501 -0.00000000000E+00  0.00000000000E+00  0.75596645081E+02  0.75607312130E+02  0.12700000000E+01 0. -1.
          4   -1    0    0  501    0  0.00000000000E+00 -0.00000000000E+00 -0.51648840148E+02  0.51664451886E+02  0.12700000000E+01 0. -1.
         25    2    1    2    0    0  0.00000000000E+00  0.00000000000E+00  0.23947804933E+02  0.12727176402E+03  0.12499841821E+03 0.  0.
    9000005    1    3    3    0    0  0.17329583699E+02 -0.49163208705E+02 -0.23117607377E+02  0.57032967064E+02  0.10000000000E+01 0.  0.
    9000005    1    3    3    0    0 -0.17329583699E+02  0.49163208705E+02  0.47065412309E+02  0.70238796951E+02  0.10000000000E+01 0.  0.
<mgrwt>
<rscale>  0 0.12499842E+03</rscale>
<asrwt>0</asrwt>
<pdfrwt beam="2">  1        4 0.12915495E-01 0.12499842E+03</pdfrwt>
<pdfrwt beam="1">  1       -4 0.18902446E-01 0.12499842E+03</pdfrwt>
<totfact> 0.19712982E+03</totfact>
</mgrwt>
</event>
<event>
 5    1  0.1433395E-002  0.1249971E+03  0.7818608E-02  0.1235074E+00
          4   -1    0    0  501    0  0.00000000000E+00  0.00000000000E+00  0.71865790680E+01  0.72979324950E+01  0.12700000000E+01 0. -1.
         -4   -1    0    0    0  501 -0.00000000000E+00 -0.00000000000E+00 -0.53923223560E+03  0.53923373115E+03  0.12700000000E+01 0. -1.
         25    2    1    2    0    0  0.00000000000E+00  0.00000000000E+00 -0.53204565653E+03  0.54653166365E+03  0.12499711490E+03 0.  0.
    9000005    1    3    3    0    0 -0.33255647291E+02  0.32315316822E+02 -0.82860744850E+02  0.94958521551E+02  0.10000000000E+01 0.  0.
    9000005    1    3    3    0    0  0.33255647291E+02 -0.32315316822E+02 -0.44918491168E+03  0.45157314209E+03  0.10000000000E+01 0.  0.
<mgrwt>
<rscale>  0 0.12499711E+03</rscale>
<asrwt>0</asrwt>
<pdfrwt beam="1">  1        4 0.18107527E-02 0.12499711E+03</pdfrwt>
<pdfrwt beam="2">  1       -4 0.13482203E+00 0.12499711E+03</pdfrwt>
<totfact> 0.80657391E+02</totfact>
</mgrwt>
</event>
<event>
 5    1  0.1433395E-002  0.1249988E+03  0.7818608E-02  0.1235071E+00
          4   -1    0    0  501    0  0.00000000000E+00  0.00000000000E+00  0.29261349891E+01  0.31898535976E+01  0.12700000000E+01 0.  1.
         -4   -1    0    0    0  501 -0.00000000000E+00 -0.00000000000E+00 -0.12771016061E+04  0.12771022375E+04  0.12700000000E+01 0.  1.
         25    2    1    2    0    0  0.00000000000E+00  0.00000000000E+00 -0.12741754711E+04  0.12802920911E+04  0.12499883008E+03 0.  0.
    9000005    1    3    3    0    0  0.20296014807E+02  0.25241203613E+01 -0.32274260932E+02  0.38222078951E+02  0.10000000000E+01 0.  0.
    9000005    1    3    3    0    0 -0.20296014807E+02 -0.25241203613E+01 -0.12419012101E+04  0.12420700122E+04  0.10000000000E+01 0.  0.
<mgrwt>
<rscale>  0 0.12499883E+03</rscale>
<asrwt>0</asrwt>
<pdfrwt beam="1">  1        4 0.76458189E-03 0.12499883E+03</pdfrwt>
<pdfrwt beam="2">  1       -4 0.31930662E+00 0.12499883E+03</pdfrwt>
<totfact> 0.21227198E+02</totfact>
</mgrwt>
</event>
<event>
 5    1  0.1433395E-002  0.1249985E+03  0.7818608E-02  0.1235072E+00
         -4   -1    0    0    0  501 -0.00000000000E+00  0.00000000000E+00  0.76954711284E+02  0.76965190111E+02  0.12700000000E+01 0.  1.
          4   -1    0    0  501    0  0.00000000000E+00 -0.00000000000E+00 -0.50737271777E+02  0.50753163915E+02  0.12700000000E+01 0.  1.
         25    2    1    2    0    0  0.00000000000E+00  0.00000000000E+00  0.26217439507E+02  0.12771835403E+03  0.12499849527E+03 0.  0.
    9000005    1    3    3    0    0 -0.16499249493E+02  0.38868241543E+02 -0.33960902508E+02  0.54196940260E+02  0.10000000000E+01 0.  0.
    9000005    1    3    3    0    0  0.16499249493E+02 -0.38868241543E+02  0.60178342015E+02  0.73521413766E+02  0.10000000000E+01 0.  0.
<mgrwt>
<rscale>  0 0.12499850E+03</rscale>
<asrwt>0</asrwt>
<pdfrwt beam="2">  1        4 0.12687614E-01 0.12499850E+03</pdfrwt>
<pdfrwt beam="1">  1       -4 0.19241974E-01 0.12499850E+03</pdfrwt>
<totfact> 0.19688564E+03</totfact>
</mgrwt>
</event>
<event>
 5    1  0.1433395E-002  0.1249994E+03  0.7818608E-02  0.1235070E+00
         -4   -1    0    0    0  501 -0.00000000000E+00  0.00000000000E+00  0.22533145606E+03  0.22533503498E+03  0.12700000000E+01 0.  1.
          4   -1    0    0  501    0  0.00000000000E+00 -0.00000000000E+00 -0.17308437506E+02  0.17354967845E+02  0.12700000000E+01 0.  1.
         25    2    1    2    0    0  0.00000000000E+00  0.00000000000E+00  0.20802301856E+03  0.24269000283E+03  0.12499944489E+03 0.  0.
    9000005    1    3    3    0    0  0.56814516816E+02 -0.22527221851E+02  0.12931479450E+03  0.14303384607E+03  0.10000000000E+01 0.  0.
    9000005    1    3    3    0    0 -0.56814516816E+02  0.22527221851E+02  0.78708224053E+02  0.99656156754E+02  0.10000000000E+01 0.  0.
<mgrwt>
<rscale>  0 0.12499944E+03</rscale>
<asrwt>0</asrwt>
<pdfrwt beam="2">  1        4 0.43333730E-02 0.12499944E+03</pdfrwt>
<pdfrwt beam="1">  1       -4 0.56339128E-01 0.12499944E+03</pdfrwt>
<totfact> 0.14744413E+03</totfact>
</mgrwt>
</event>
<event>
 5    1  0.1433395E-002  0.1249968E+03  0.7818608E-02  0.1235074E+00
         -4   -1    0    0    0  501 -0.00000000000E+00  0.00000000000E+00  0.12034370696E+03  0.12035040799E+03  0.12700000000E+01 0. -1.
          4   -1    0    0  501    0  0.00000000000E+00 -0.00000000000E+00 -0.32437413848E+02  0.32462266051E+02  0.12700000000E+01 0. -1.
         25    2    1    2    0    0  0.00000000000E+00  0.00000000000E+00  0.87906293110E+02  0.15281267404E+03  0.12499678788E+03 0.  0.
    9000005    1    3    3    0    0  0.41143639098E+02  0.44789109840E+02  0.61507706528E+02  0.86504689820E+02  0.10000000000E+01 0.  0.
    9000005    1    3    3    0    0 -0.41143639098E+02 -0.44789109840E+02  0.26398586582E+02  0.66307984225E+02  0.10000000000E+01 0.  0.
<mgrwt>
<rscale>  0 0.12499679E+03</rscale>
<asrwt>0</asrwt>
<pdfrwt beam="2">  1        4 0.81132977E-02 0.12499679E+03</pdfrwt>
<pdfrwt beam="1">  1       -4 0.30089871E-01 0.12499679E+03</pdfrwt>
<totfact> 0.18402716E+03</totfact>
</mgrwt>
</event>
<event>
 5    1  0.1433395E-002  0.1250002E+03  0.7818608E-02  0.1235069E+00
         -4   -1    0    0    0  501 -0.00000000000E+00  0.00000000000E+00  0.21577376623E+03  0.21577750368E+03  0.12700000000E+01 0.  1.
          4   -1    0    0  501    0  0.00000000000E+00 -0.00000000000E+00 -0.18077324903E+02  0.18121881129E+02  0.12700000000E+01 0.  1.
         25    2    1    2    0    0  0.00000000000E+00  0.00000000000E+00  0.19769644133E+03  0.23389938481E+03  0.12500015720E+03 0.  0.
    9000005    1    3    3    0    0  0.36527806389E+02  0.44979839886E+02  0.14264345299E+03  0.15396629929E+03  0.10000000000E+01 0.  0.
    9000005    1    3    3    0    0 -0.36527806389E+02 -0.44979839886E+02  0.55052988341E+02  0.79933085522E+02  0.10000000000E+01 0.  0.
<mgrwt>
<rscale>  0 0.12500016E+03</rscale>
<asrwt>0</asrwt>
<pdfrwt beam="2">  1        4 0.45253680E-02 0.12500016E+03</pdfrwt>
<pdfrwt beam="1">  1       -4 0.53949478E-01 0.12500016E+03</pdfrwt>
<totfact> 0.15048917E+03</totfact>
</mgrwt>
</event>
<event>
 5    1  0.1433395E-002  0.1249997E+03  0.7818608E-02  0.1235070E+00
          4   -1    0    0  501    0  0.00000000000E+00  0.00000000000E+00  0.22951321144E+03  0.22951672515E+03  0.12700000000E+01 0.  1.
         -4   -1    0    0    0  501 -0.00000000000E+00 -0.00000000000E+00 -0.16992290559E+02  0.17039684224E+02  0.12700000000E+01 0.  1.
         25    2    1    2    0    0  0.00000000000E+00  0.00000000000E+00  0.21252092088E+03  0.24655640938E+03  0.12499968477E+03 0.  0.
    9000005    1    3    3    0    0  0.41671258740E+02 -0.43776070339E+02  0.13759658669E+03  0.15028858509E+03  0.10000000000E+01 0.  0.
    9000005    1    3    3    0    0 -0.41671258740E+02  0.43776070339E+02  0.74924334187E+02  0.96267824285E+02  0.10000000000E+01 0.  0.
<mgrwt>
<rscale>  0 0.12499968E+03</rscale>
<asrwt>0</asrwt>
<pdfrwt beam="1">  1        4 0.57384665E-01 0.12499968E+03</pdfrwt>
<pdfrwt beam="2">  1       -4 0.42544362E-02 0.12499968E+03</pdfrwt>
<totfact> 0.14613322E+03</totfact>
</mgrwt>
</event>
<event>
 5    1  0.1433395E-002  0.1249967E+03  0.7818608E-02  0.1235074E+00
         -4   -1    0    0    0  501 -0.00000000000E+00  0.00000000000E+00  0.72896127207E+02  0.72907189369E+02  0.12700000000E+01 0. -1.
          4   -1    0    0  501    0  0.00000000000E+00 -0.00000000000E+00 -0.53561055258E+02  0.53576109791E+02  0.12700000000E+01 0. -1.
         25    2    1    2    0    0  0.00000000000E+00  0.00000000000E+00  0.19335071949E+02  0.12648329916E+03  0.12499671979E+03 0.  0.
    9000005    1    3    3    0    0 -0.55242469930E+02  0.17302376568E+02 -0.14148354391E+02  0.59600995385E+02  0.10000000000E+01 0.  0.
    9000005    1    3    3    0    0  0.55242469930E+02 -0.17302376568E+02  0.33483426340E+02  0.66882303775E+02  0.10000000000E+01 0.  0.
<mgrwt>
<rscale>  0 0.12499672E+03</rscale>
<asrwt>0</asrwt>
<pdfrwt beam="2">  1        4 0.13393528E-01 0.12499672E+03</pdfrwt>
<pdfrwt beam="1">  1       -4 0.18227296E-01 0.12499672E+03</pdfrwt>
<totfact> 0.19756341E+03</totfact>
</mgrwt>
</event>
<event>
 5    1  0.1433395E-002  0.1250010E+03  0.7818608E-02  0.1235068E+00
         -4   -1    0    0    0  501 -0.00000000000E+00  0.00000000000E+00  0.48715920379E+02  0.48732471704E+02  0.12700000000E+01 0. -1.
          4   -1    0    0  501    0  0.00000000000E+00 -0.00000000000E+00 -0.80150391547E+02  0.80160452625E+02  0.12700000000E+01 0. -1.
         25    2    1    2    0    0  0.00000000000E+00  0.00000000000E+00 -0.31434471168E+02  0.12889292433E+03  0.12500103985E+03 0.  0.
    9000005    1    3    3    0    0  0.18414062529E+02 -0.42981392153E+02  0.27032440272E+02  0.54020649730E+02  0.10000000000E+01 0.  0.
    9000005    1    3    3    0    0 -0.18414062529E+02  0.42981392153E+02 -0.58466911440E+02  0.74872274599E+02  0.10000000000E+01 0.  0.
<mgrwt>
<rscale>  0 0.12500104E+03</rscale>
<asrwt>0</asrwt>
<pdfrwt beam="2">  1        4 0.20040924E-01 0.12500104E+03</pdfrwt>
<pdfrwt beam="1">  1       -4 0.12182307E-01 0.12500104E+03</pdfrwt>
<totfact> 0.19623611E+03</totfact>
</mgrwt>
</event>
<event>
 5    1  0.1433395E-002  0.1249853E+03  0.7818608E-02  0.1235092E+00
         -4   -1    0    0    0  501 -0.00000000000E+00  0.00000000000E+00  0.19594667795E+03  0.19595079357E+03  0.12700000000E+01 0. -1.
          4   -1    0    0  501    0  0.00000000000E+00 -0.00000000000E+00 -0.19906017068E+02  0.19946488802E+02  0.12700000000E+01 0. -1.
         25    2    1    2    0    0  0.00000000000E+00  0.00000000000E+00  0.17604066088E+03  0.21589728237E+03  0.12498528814E+03 0.  0.
    9000005    1    3    3    0    0  0.34031251994E+02 -0.51137068162E+02  0.68234103183E+02  0.91815133227E+02  0.10000000000E+01 0.  0.
    9000005    1    3    3    0    0 -0.34031251994E+02  0.51137068162E+02  0.10780655770E+03  0.12408214914E+03  0.10000000000E+01 0.  0.
<mgrwt>
<rscale>  0 0.12498529E+03</rscale>
<asrwt>0</asrwt>
<pdfrwt beam="2">  1        4 0.49820778E-02 0.12498529E+03</pdfrwt>
<pdfrwt beam="1">  1       -4 0.48992242E-01 0.12498529E+03</pdfrwt>
<totfact> 0.15710012E+03</totfact>
</mgrwt>
</event>
<event>
 5    1  0.1433395E-002  0.1250001E+03  0.7818608E-02  0.1235069E+00
         -4   -1    0    0    0  501 -0.00000000000E+00  0.00000000000E+00  0.11405371270E+03  0.11406078327E+03  0.12700000000E+01 0.  1.
          4   -1    0    0  501    0  0.00000000000E+00 -0.00000000000E+00 -0.34229348889E+02  0.34252900977E+02  0.12700000000E+01 0.  1.
         25    2    1    2    0    0  0.00000000000E+00  0.00000000000E+00  0.79824363812E+02  0.14831368425E+03  0.12500007951E+03 0.  0.
    9000005    1    3    3    0    0  0.14223583283E+02  0.60197700244E+02  0.29354151994E+02  0.68474372398E+02  0.10000000000E+01 0.  0.
    9000005    1    3    3    0    0 -0.14223583283E+02 -0.60197700244E+02  0.50470211818E+02  0.79839311852E+02  0.10000000000E+01 0.  0.
<mgrwt>
<rscale>  0 0.12500008E+03</rscale>
<asrwt>0</asrwt>
<pdfrwt beam="2">  1        4 0.85611651E-02 0.12500008E+03</pdfrwt>
<pdfrwt beam="1">  1       -4 0.28517256E-01 0.12500008E+03</pdfrwt>
<totfact> 0.18621975E+03</totfact>
</mgrwt>
</event>
<event>
 5    1  0.1433395E-002  0.1250223E+03  0.7818608E-02  0.1235034E+00
          4   -1    0    0  501    0  0.00000000000E+00  0.00000000000E+00  0.49992805247E+03  0.49992966560E+03  0.12700000000E+01 0.  1.
         -4   -1    0    0    0  501 -0.00000000000E+00 -0.00000000000E+00 -0.77631942544E+01  0.78663895804E+01  0.12700000000E+01 0.  1.
         25    2    1    2    0    0  0.00000000000E+00  0.00000000000E+00  0.49216485821E+03  0.50779605518E+03  0.12502234198E+03 0.  0.
    9000005    1    3    3    0    0 -0.54021406541E+02  0.49568707341E+01  0.11999059995E+03  0.13168761145E+03  0.10000000000E+01 0.  0.
    9000005    1    3    3    0    0  0.54021406541E+02 -0.49568707341E+01  0.37217425826E+03  0.37610844373E+03  0.10000000000E+01 0.  0.
<mgrwt>
<rscale>  0 0.12502234E+03</rscale>
<asrwt>0</asrwt>
<pdfrwt beam="1">  1        4 0.12499511E+00 0.12502234E+03</pdfrwt>
<pdfrwt beam="2">  1       -4 0.19538997E-02 0.12502234E+03</pdfrwt>
<totfact> 0.86336372E+02</totfact>
</mgrwt>
</event>
<event>
 5    1  0.1433395E-002  0.1250060E+03  0.7818608E-02  0.1235060E+00
         -4   -1    0    0    0  501 -0.00000000000E+00  0.00000000000E+00  0.24551034239E+02  0.24583860198E+02  0.12700000000E+01 0.  1.
          4   -1    0    0  501    0  0.00000000000E+00 -0.00000000000E+00 -0.15898094500E+03  0.15898601754E+03  0.12700000000E+01 0.  1.
         25    2    1    2    0    0  0.00000000000E+00  0.00000000000E+00 -0.13442991076E+03  0.18356987773E+03  0.12500599628E+03 0.  0.
    9000005    1    3    3    0    0 -0.22025903630E+02  0.21747762272E+02  0.12510845935E+02  0.33401000892E+02  0.10000000000E+01 0.  0.
    9000005    1    3    3    0    0  0.22025903630E+02 -0.21747762272E+02 -0.14694075669E+03  0.15016887684E+03  0.10000000000E+01 0.  0.
<mgrwt>
<rscale>  0 0.12500600E+03</rscale>
<asrwt>0</asrwt>
<pdfrwt beam="2">  1        4 0.39749971E-01 0.12500600E+03</pdfrwt>
<pdfrwt beam="1">  1       -4 0.61424963E-02 0.12500600E+03</pdfrwt>
<totfact> 0.16999411E+03</totfact>
</mgrwt>
</event>
<event>
 5    1  0.1433395E-002  0.1249980E+03  0.7818608E-02  0.1235072E+00
          4   -1    0    0  501    0  0.00000000000E+00  0.00000000000E+00  0.45232364019E+03  0.45232542310E+03  0.12700000000E+01 0. -1.
         -4   -1    0    0    0  501 -0.00000000000E+00 -0.00000000000E+00 -0.85871798091E+01  0.86805850652E+01  0.12700000000E+01 0. -1.
         25    2    1    2    0    0  0.00000000000E+00  0.00000000000E+00  0.44373646039E+03  0.46100600816E+03  0.12499797312E+03 0.  0.
    9000005    1    3    3    0    0  0.28291670970E+02 -0.48523032521E+02  0.32288603589E+03  0.32773662521E+03  0.10000000000E+01 0.  0.
    9000005    1    3    3    0    0 -0.28291670970E+02  0.48523032521E+02  0.12085042449E+03  0.13326938295E+03  0.10000000000E+01 0.  0.
<mgrwt>
<rscale>  0 0.12499797E+03</rscale>
<asrwt>0</asrwt>
<pdfrwt beam="1">  1        4 0.11309280E+00 0.12499797E+03</pdfrwt>
<pdfrwt beam="2">  1       -4 0.21586937E-02 0.12499797E+03</pdfrwt>
<totfact> 0.94078406E+02</totfact>
</mgrwt>
</event>
<event>
 5    1  0.1433395E-002  0.1249978E+03  0.7818608E-02  0.1235073E+00
         -4   -1    0    0    0  501 -0.00000000000E+00  0.00000000000E+00  0.12301636325E+02  0.12367018892E+02  0.12700000000E+01 0.  1.
          4   -1    0    0  501    0  0.00000000000E+00 -0.00000000000E+00 -0.31661973198E+03  0.31662227904E+03  0.12700000000E+01 0.  1.
         25    2    1    2    0    0  0.00000000000E+00  0.00000000000E+00 -0.30431809566E+03  0.32898929793E+03  0.12499781920E+03 0.  0.
    9000005    1    3    3    0    0  0.11625586727E+01 -0.56800385253E+02 -0.22066480315E+03  0.22786309630E+03  0.10000000000E+01 0.  0.
    9000005    1    3    3    0    0 -0.11625586727E+01  0.56800385253E+02 -0.83653292512E+02  0.10112620163E+03  0.10000000000E+01 0.  0.
<mgrwt>
<rscale>  0 0.12499782E+03</rscale>
<asrwt>0</asrwt>
<pdfrwt beam="2">  1        4 0.79163398E-01 0.12499782E+03</pdfrwt>
<pdfrwt beam="1">  1       -4 0.30839013E-02 0.12499782E+03</pdfrwt>
<totfact> 0.12196395E+03</totfact>
</mgrwt>
</event>
<event>
 5    1  0.1433395E-002  0.1249998E+03  0.7818608E-02  0.1235070E+00
          4   -1    0    0  501    0  0.00000000000E+00  0.00000000000E+00  0.80261067346E+01  0.81259639007E+01  0.12700000000E+01 0.  1.
         -4   -1    0    0    0  501 -0.00000000000E+00 -0.00000000000E+00 -0.48358201288E+03  0.48358368053E+03  0.12700000000E+01 0.  1.
         25    2    1    2    0    0  0.00000000000E+00  0.00000000000E+00 -0.47555590614E+03  0.49170964443E+03  0.12499981825E+03 0.  0.
    9000005    1    3    3    0    0 -0.13996651998E+02  0.80537557593E+01 -0.47525218882E+03  0.47552750943E+03  0.10000000000E+01 0.  0.
    9000005    1    3    3    0    0  0.13996651998E+02 -0.80537557593E+01 -0.30371732255E+00  0.16182135002E+02  0.10000000000E+01 0.  0.
<mgrwt>
<rscale>  0 0.12499982E+03</rscale>
<asrwt>0</asrwt>
<pdfrwt beam="1">  1        4 0.20192189E-02 0.12499982E+03</pdfrwt>
<pdfrwt beam="2">  1       -4 0.12090810E+00 0.12499982E+03</pdfrwt>
<totfact> 0.88940750E+02</totfact>
</mgrwt>
</event>
<event>
 5    1  0.1433395E-002  0.1250000E+03  0.7818608E-02  0.1235069E+00
         -4   -1    0    0    0  501 -0.00000000000E+00  0.00000000000E+00  0.72952605831E+02  0.72963659431E+02  0.12700000000E+01 0. -1.
          4   -1    0    0  501    0  0.00000000000E+00 -0.00000000000E+00 -0.53522423310E+02  0.53537488706E+02  0.12700000000E+01 0. -1.
         25    2    1    2    0    0  0.00000000000E+00  0.00000000000E+00  0.19430182521E+02  0.12650114814E+03  0.12500003395E+03 0.  0.
    9000005    1    3    3    0    0 -0.15521506959E+02  0.45920833212E+02  0.49629985371E+02  0.69381377538E+02  0.10000000000E+01 0.  0.
    9000005    1    3    3    0    0  0.15521506959E+02 -0.45920833212E+02 -0.30199802850E+02  0.57119770599E+02  0.10000000000E+01 0.  0.
<mgrwt>
<rscale>  0 0.12500003E+03</rscale>
<asrwt>0</asrwt>
<pdfrwt beam="2">  1        4 0.13383871E-01 0.12500003E+03</pdfrwt>
<pdfrwt beam="1">  1       -4 0.18241416E-01 0.12500003E+03</pdfrwt>
<totfact> 0.19753847E+03</totfact>
</mgrwt>
</event>
<event>
 4    1  0.1433395E-002  0.1250670E+03  0.7818608E-02  0.1234965E+00
          4   -1    0    0  501    0  0.00000000000E+00  0.00000000000E+00  0.27151778262E+02  0.27181463588E+02  0.12700000000E+01 0.  1.
         -4   -1    0    0    0  501 -0.00000000000E+00 -0.00000000000E+00 -0.14391022907E+03  0.14391583280E+03  0.12700000000E+01 0.  1.
    9000005    1    1    2    0    0 -0.38818065620E+02  0.18646309835E+01  0.86287215508E+01  0.39821776740E+02  0.10000000000E+01 0.  0.
    9000005    1    1    2    0    0  0.38818065620E+02 -0.18646309835E+01 -0.12538717235E+03  0.13127551965E+03  0.10000000000E+01 0.  0.
<mgrwt>
<rscale>  0 0.12506698E+03</rscale>
<asrwt>0</asrwt>
<pdfrwt beam="1">  1        4 0.67923561E-02 0.12506698E+03</pdfrwt>
<pdfrwt beam="2">  1       -4 0.35981966E-01 0.12506698E+03</pdfrwt>
<totfact> 0.17520417E+03</totfact>
</mgrwt>
</event>
<event>
 5    1  0.1433395E-002  0.1249943E+03  0.7818608E-02  0.1235078E+00
          4   -1    0    0  501    0  0.00000000000E+00  0.00000000000E+00  0.10188269174E+02  0.10267118815E+02  0.12700000000E+01 0. -1.
         -4   -1    0    0    0  501 -0.00000000000E+00 -0.00000000000E+00 -0.38181423752E+03  0.38181634966E+03  0.12700000000E+01 0. -1.
         25    2    1    2    0    0  0.00000000000E+00  0.00000000000E+00 -0.37162596834E+03  0.39208346848E+03  0.12499434350E+03 0.  0.
    9000005    1    3    3    0    0 -0.37373166847E+02  0.26558294207E+02 -0.31900001355E+03  0.32227954517E+03  0.10000000000E+01 0.  0.
    9000005    1    3    3    0    0  0.37373166847E+02 -0.26558294207E+02 -0.52625954795E+02  0.69803923309E+02  0.10000000000E+01 0.  0.
<mgrwt>
<rscale>  0 0.12499434E+03</rscale>
<asrwt>0</asrwt>
<pdfrwt beam="1">  1        4 0.25571888E-02 0.12499434E+03</pdfrwt>
<pdfrwt beam="2">  1       -4 0.95463632E-01 0.12499434E+03</pdfrwt>
<totfact> 0.10735491E+03</totfact>
</mgrwt>
</event>
<event>
 5    1  0.1433395E-002  0.1249931E+03  0.7818608E-02  0.1235080E+00
          4   -1    0    0  501    0  0.00000000000E+00  0.00000000000E+00  0.49354750805E+02  0.49371087967E+02  0.12700000000E+01 0. -1.
         -4   -1    0    0    0  501 -0.00000000000E+00 -0.00000000000E+00 -0.79103144409E+02  0.79113338669E+02  0.12700000000E+01 0. -1.
         25    2    1    2    0    0  0.00000000000E+00  0.00000000000E+00 -0.29748393604E+02  0.12848442664E+03  0.12499312367E+03 0.  0.
    9000005    1    3    3    0    0  0.12521851532E+02  0.56654653210E+02 -0.38722965851E+02  0.69763992005E+02  0.10000000000E+01 0.  0.
    9000005    1    3    3    0    0 -0.12521851532E+02 -0.56654653210E+02  0.89745722471E+01  0.58720434631E+02  0.10000000000E+01 0.  0.
<mgrwt>
<rscale>  0 0.12499312E+03</rscale>
<asrwt>0</asrwt>
<pdfrwt beam="1">  1        4 0.12342004E-01 0.12499312E+03</pdfrwt>
<pdfrwt beam="2">  1       -4 0.19779102E-01 0.12499312E+03</pdfrwt>
<totfact> 0.19649371E+03</totfact>
</mgrwt>
</event>
<event>
 5    1  0.1433395E-002  0.1250017E+03  0.7818608E-02  0.1235067E+00
         -4   -1    0    0    0  501 -0.00000000000E+00  0.00000000000E+00  0.16462886180E+03  0.16463376032E+03  0.12700000000E+01 0. -1.
          4   -1    0    0  501    0  0.00000000000E+00 -0.00000000000E+00 -0.23706012115E+02  0.23740006538E+02  0.12700000000E+01 0. -1.
         25    2    1    2    0    0  0.00000000000E+00  0.00000000000E+00  0.14092284969E+03  0.18837376686E+03  0.12500170590E+03 0.  0.
    9000005    1    3    3    0    0  0.44015679488E+02 -0.44282702752E+02  0.66469003208E+02  0.91200143592E+02  0.10000000000E+01 0.  0.
    9000005    1    3    3    0    0 -0.44015679488E+02  0.44282702752E+02  0.74453846480E+02  0.97173623270E+02  0.10000000000E+01 0.  0.
<mgrwt>
<rscale>  0 0.12500171E+03</rscale>
<asrwt>0</asrwt>
<pdfrwt beam="2">  1        4 0.59313648E-02 0.12500171E+03</pdfrwt>
<pdfrwt beam="1">  1       -4 0.41162076E-01 0.12500171E+03</pdfrwt>
<totfact> 0.16797745E+03</totfact>
</mgrwt>
</event>
<event>
 5    1  0.1433395E-002  0.1250003E+03  0.7818608E-02  0.1235069E+00
          4   -1    0    0  501    0  0.00000000000E+00  0.00000000000E+00  0.10219281429E+02  0.10297893616E+02  0.12700000000E+01 0.  1.
         -4   -1    0    0    0  501 -0.00000000000E+00 -0.00000000000E+00 -0.38070062048E+03  0.38070273881E+03  0.12700000000E+01 0.  1.
         25    2    1    2    0    0  0.00000000000E+00  0.00000000000E+00 -0.37048133905E+03  0.39100063242E+03  0.12500028788E+03 0.  0.
    9000005    1    3    3    0    0  0.50179923590E+02 -0.11666200709E+02 -0.74598692957E+02  0.90664711775E+02  0.10000000000E+01 0.  0.
    9000005    1    3    3    0    0 -0.50179923590E+02  0.11666200709E+02 -0.29588264610E+03  0.30033592065E+03  0.10000000000E+01 0.  0.
<mgrwt>
<rscale>  0 0.12500029E+03</rscale>
<asrwt>0</asrwt>
<pdfrwt beam="1">  1        4 0.25649129E-02 0.12500029E+03</pdfrwt>
<pdfrwt beam="2">  1       -4 0.95185199E-01 0.12500029E+03</pdfrwt>
<totfact> 0.10756883E+03</totfact>
</mgrwt>
</event>
<event>
 5    1  0.1433395E-002  0.1249853E+03  0.7818608E-02  0.1235092E+00
         -4   -1    0    0    0  501 -0.00000000000E+00  0.00000000000E+00  0.58227939688E+01  0.59596836831E+01  0.12700000000E+01 0. -1.
          4   -1    0    0  501    0  0.00000000000E+00 -0.00000000000E+00 -0.66276723758E+03  0.66276845437E+03  0.12700000000E+01 0. -1.
         25    2    1    2    0    0  0.00000000000E+00  0.00000000000E+00 -0.65694444361E+03  0.66872813805E+03  0.12498528167E+03 0.  0.
    9000005    1    3    3    0    0 -0.43537629995E+02  0.26903777293E+02 -0.13667563008E+03  0.14594713535E+03  0.10000000000E+01 0.  0.
    9000005    1    3    3    0    0  0.43537629995E+02 -0.26903777293E+02 -0.52026881353E+03  0.52278100271E+03  0.10000000000E+01 0.  0.
<mgrwt>
<rscale>  0 0.12498528E+03</rscale>
<asrwt>0</asrwt>
<pdfrwt beam="2">  1        4 0.16570882E+00 0.12498528E+03</pdfrwt>
<pdfrwt beam="1">  1       -4 0.14729641E-02 0.12498528E+03</pdfrwt>
<totfact> 0.65430061E+02</totfact>
</mgrwt>
</event>
<event>
 5    1  0.1433395E-002  0.1250040E+03  0.7818608E-02  0.1235063E+00
          4   -1    0    0  501    0  0.00000000000E+00  0.00000000000E+00  0.20784428067E+03  0.20784816070E+03  0.12700000000E+01 0.  1.
         -4   -1    0    0    0  501 -0.00000000000E+00 -0.00000000000E+00 -0.18769809291E+02  0.18812725502E+02  0.12700000000E+01 0.  1.
         25    2    1    2    0    0  0.00000000000E+00  0.00000000000E+00  0.18907447138E+03  0.22666088620E+03  0.12500400636E+03 0.  0.
    9000005    1    3    3    0    0 -0.33799850824E+02 -0.52551924658E+02  0.96656233121E+02  0.11509805429E+03  0.10000000000E+01 0.  0.
    9000005    1    3    3    0    0  0.33799850824E+02  0.52551924658E+02  0.92418238256E+02  0.11156283191E+03  0.10000000000E+01 0.  0.
<mgrwt>
<rscale>  0 0.12500401E+03</rscale>
<asrwt>0</asrwt>
<pdfrwt beam="1">  1        4 0.51966919E-01 0.12500401E+03</pdfrwt>
<pdfrwt beam="2">  1       -4 0.46983019E-02 0.12500401E+03</pdfrwt>
<totfact> 0.15305950E+03</totfact>
</mgrwt>
</event>
<event>
 5    1  0.1433395E-002  0.1249915E+03  0.7818608E-02  0.1235083E+00
         -4   -1    0    0    0  501 -0.00000000000E+00  0.00000000000E+00  0.12215310272E+02  0.12281152431E+02  0.12700000000E+01 0. -1.
          4   -1    0    0  501    0  0.00000000000E+00 -0.00000000000E+00 -0.31881302429E+03  0.31881555382E+03  0.12700000000E+01 0. -1.
         25    2    1    2    0    0  0.00000000000E+00  0.00000000000E+00 -0.30659771402E+03  0.33109670625E+03  0.12499148231E+03 0.  0.
    9000005    1    3    3    0    0 -0.42870190362E+01  0.15945510776E+02 -0.31294268532E+03  0.31337958157E+03  0.10000000000E+01 0.  0.
    9000005    1    3    3    0    0  0.42870190362E+01 -0.15945510776E+02  0.63449713061E+01  0.17717124682E+02  0.10000000000E+01 0.  0.
<mgrwt>
<rscale>  0 0.12499148E+03</rscale>
<asrwt>0</asrwt>
<pdfrwt beam="2">  1        4 0.79711775E-01 0.12499148E+03</pdfrwt>
<pdfrwt beam="1">  1       -4 0.30623751E-02 0.12499148E+03</pdfrwt>
<totfact> 0.12144559E+03</totfact>
</mgrwt>
</event>
<event>
 5    1  0.1433395E-002  0.1249989E+03  0.7818608E-02  0.1235071E+00
          4   -1    0    0  501    0  0.00000000000E+00  0.00000000000E+00  0.67547449439E+02  0.67559387399E+02  0.12700000000E+01 0. -1.
         -4   -1    0    0    0  501 -0.00000000000E+00 -0.00000000000E+00 -0.57804639621E+02  0.57818589241E+02  0.12700000000E+01 0. -1.
         25    2    1    2    0    0  0.00000000000E+00  0.00000000000E+00  0.97428098176E+01  0.12537797664E+03  0.12499885873E+03 0.  0.
    9000005    1    3    3    0    0  0.62343053250E+02  0.62124986465E+00  0.91430102497E+01  0.63020924116E+02  0.10000000000E+01 0.  0.
    9000005    1    3    3    0    0 -0.62343053250E+02 -0.62124986465E+00  0.59979956796E+00  0.62357052524E+02  0.10000000000E+01 0.  0.
<mgrwt>
<rscale>  0 0.12499886E+03</rscale>
<asrwt>0</asrwt>
<pdfrwt beam="1">  1        4 0.16890098E-01 0.12499886E+03</pdfrwt>
<pdfrwt beam="2">  1       -4 0.14454396E-01 0.12499886E+03</pdfrwt>
<totfact> 0.19815100E+03</totfact>
</mgrwt>
</event>
<event>
 5    1  0.1433395E-002  0.1250016E+03  0.7818608E-02  0.1235067E+00
         -4   -1    0    0    0  501 -0.00000000000E+00  0.00000000000E+00  0.39382007508E+03  0.39382212283E+03  0.12700000000E+01 0.  1.
          4   -1    0    0  501    0  0.00000000000E+00 -0.00000000000E+00 -0.98763831870E+01  0.99577027902E+01  0.12700000000E+01 0.  1.
         25    2    1    2    0    0  0.00000000000E+00  0.00000000000E+00  0.38394369189E+03  0.40377982562E+03  0.12500155615E+03 0.  0.
    9000005    1    3    3    0    0  0.15006740449E+02 -0.46899478182E+02  0.67679119479E+02  0.83703204993E+02  0.10000000000E+01 0.  0.
    9000005    1    3    3    0    0 -0.15006740449E+02  0.46899478182E+02  0.31626457241E+03  0.32007662063E+03  0.10000000000E+01 0.  0.
<mgrwt>
<rscale>  0 0.12500156E+03</rscale>
<asrwt>0</asrwt>
<pdfrwt beam="2">  1        4 0.24795168E-02 0.12500156E+03</pdfrwt>
<pdfrwt beam="1">  1       -4 0.98465438E-01 0.12500156E+03</pdfrwt>
<totfact> 0.10491382E+03</totfact>
</mgrwt>
</event>
<event>
 5    1  0.1433395E-002  0.1249986E+03  0.7818608E-02  0.1235072E+00
          4   -1    0    0  501    0  0.00000000000E+00  0.00000000000E+00  0.36378706516E+03  0.36378928197E+03  0.12700000000E+01 0.  1.
         -4   -1    0    0    0  501 -0.00000000000E+00 -0.00000000000E+00 -0.10697678377E+02  0.10772800131E+02  0.12700000000E+01 0.  1.
         25    2    1    2    0    0  0.00000000000E+00  0.00000000000E+00  0.35308938679E+03  0.37456208211E+03  0.12499855315E+03 0.  0.
    9000005    1    3    3    0    0  0.44761193437E+02 -0.41791183834E+02  0.21386228833E+03  0.22245931281E+03  0.10000000000E+01 0.  0.
    9000005    1    3    3    0    0 -0.44761193437E+02  0.41791183834E+02  0.13922709845E+03  0.15210276930E+03  0.10000000000E+01 0.  0.
<mgrwt>
<rscale>  0 0.12499855E+03</rscale>
<asrwt>0</asrwt>
<pdfrwt beam="1">  1        4 0.90956426E-01 0.12499855E+03</pdfrwt>
<pdfrwt beam="2">  1       -4 0.26840871E-02 0.12499855E+03</pdfrwt>
<totfact> 0.11113023E+03</totfact>
</mgrwt>
</event>
<event>
 5    1  0.1433395E-002  0.1249977E+03  0.7818608E-02  0.1235073E+00
         -4   -1    0    0    0  501 -0.00000000000E+00  0.00000000000E+00  0.91551836270E+01  0.92428506017E+01  0.12700000000E+01 0. -1.
          4   -1    0    0  501    0  0.00000000000E+00 -0.00000000000E+00 -0.42453351868E+03  0.42453541829E+03  0.12700000000E+01 0. -1.
         25    2    1    2    0    0  0.00000000000E+00  0.00000000000E+00 -0.41537833505E+03  0.43377826889E+03  0.12499770130E+03 0.  0.
    9000005    1    3    3    0    0 -0.29191928859E+01  0.42103099526E+02 -0.36762073489E+03  0.37003675141E+03  0.10000000000E+01 0.  0.
    9000005    1    3    3    0    0  0.29191928859E+01 -0.42103099526E+02 -0.47757600160E+02  0.63741517474E+02  0.10000000000E+01 0.  0.
<mgrwt>
<rscale>  0 0.12499770E+03</rscale>
<asrwt>0</asrwt>
<pdfrwt beam="2">  1        4 0.10614451E+00 0.12499770E+03</pdfrwt>
<pdfrwt beam="1">  1       -4 0.22999932E-02 0.12499770E+03</pdfrwt>
<totfact> 0.99009187E+02</totfact>
</mgrwt>
</event>
<event>
 5    1  0.1433395E-002  0.1249996E+03  0.7818608E-02  0.1235070E+00
         -4   -1    0    0    0  501 -0.00000000000E+00  0.00000000000E+00  0.58583495292E+03  0.58583632950E+03  0.12700000000E+01 0.  1.
          4   -1    0    0  501    0  0.00000000000E+00 -0.00000000000E+00 -0.66059212529E+01  0.67268934583E+01  0.12700000000E+01 0.  1.
         25    2    1    2    0    0  0.00000000000E+00  0.00000000000E+00  0.57922903166E+03  0.59256322296E+03  0.12499960831E+03 0.  0.
    9000005    1    3    3    0    0  0.55022607857E+01 -0.33825016371E+02  0.41888001066E+02  0.54129578232E+02  0.10000000000E+01 0.  0.
    9000005    1    3    3    0    0 -0.55022607857E+01  0.33825016371E+02  0.53734103060E+03  0.53843364472E+03  0.10000000000E+01 0.  0.
<mgrwt>
<rscale>  0 0.12499961E+03</rscale>
<asrwt>0</asrwt>
<pdfrwt beam="2">  1        4 0.16667739E-02 0.12499961E+03</pdfrwt>
<pdfrwt beam="1">  1       -4 0.14647404E+00 0.12499961E+03</pdfrwt>
<totfact> 0.74447281E+02</totfact>
</mgrwt>
</event>
<event>
 5    1  0.1433395E-002  0.1250016E+03  0.7818608E-02  0.1235067E+00
          4   -1    0    0  501    0  0.00000000000E+00  0.00000000000E+00  0.52960076113E+02  0.52975301433E+02  0.12700000000E+01 0. -1.
         -4   -1    0    0    0  501 -0.00000000000E+00 -0.00000000000E+00 -0.73728967569E+02  0.73739904793E+02  0.12700000000E+01 0. -1.
         25    2    1    2    0    0  0.00000000000E+00  0.00000000000E+00 -0.20768891456E+02  0.12671520623E+03  0.12500158654E+03 0.  0.
    9000005    1    3    3    0    0 -0.21038872588E+02  0.14246393672E+02 -0.68261405164E+02  0.72843759701E+02  0.10000000000E+01 0.  0.
    9000005    1    3    3    0    0  0.21038872588E+02 -0.14246393672E+02  0.47492513708E+02  0.53871446525E+02  0.10000000000E+01 0.  0.
<mgrwt>
<rscale>  0 0.12500159E+03</rscale>
<asrwt>0</asrwt>
<pdfrwt beam="1">  1        4 0.13243289E-01 0.12500159E+03</pdfrwt>
<pdfrwt beam="2">  1       -4 0.18435512E-01 0.12500159E+03</pdfrwt>
<totfact> 0.19741588E+03</totfact>
</mgrwt>
</event>
<event>
 5    1  0.1433395E-002  0.1250041E+03  0.7818608E-02  0.1235063E+00
         -4   -1    0    0    0  501 -0.00000000000E+00  0.00000000000E+00  0.13270863782E+02  0.13331493747E+02  0.12700000000E+01 0. -1.
          4   -1    0    0  501    0  0.00000000000E+00 -0.00000000000E+00 -0.29363402097E+03  0.29363676740E+03  0.12700000000E+01 0. -1.
         25    2    1    2    0    0  0.00000000000E+00  0.00000000000E+00 -0.28036315719E+03  0.30696826115E+03  0.12500405371E+03 0.  0.
    9000005    1    3    3    0    0 -0.29572050780E+02 -0.46274914985E+02 -0.21342589749E+03  0.22038032504E+03  0.10000000000E+01 0.  0.
    9000005    1    3    3    0    0  0.29572050780E+02  0.46274914985E+02 -0.66937259693E+02  0.86587936108E+02  0.10000000000E+01 0.  0.
<mgrwt>
<rscale>  0 0.12500405E+03</rscale>
<asrwt>0</asrwt>
<pdfrwt beam="2">  1        4 0.73416406E-01 0.12500405E+03</pdfrwt>
<pdfrwt beam="1">  1       -4 0.33256390E-02 0.12500405E+03</pdfrwt>
<totfact> 0.12776797E+03</totfact>
</mgrwt>
</event>
<event>
 5    1  0.1433395E-002  0.1249927E+03  0.7818608E-02  0.1235081E+00
         -4   -1    0    0    0  501 -0.00000000000E+00  0.00000000000E+00  0.45717997905E+01  0.47449186847E+01  0.12700000000E+01 0. -1.
          4   -1    0    0  501    0  0.00000000000E+00 -0.00000000000E+00 -0.83827438287E+03  0.83827534490E+03  0.12700000000E+01 0. -1.
         25    2    1    2    0    0  0.00000000000E+00  0.00000000000E+00 -0.83370258308E+03  0.84302026359E+03  0.12499267094E+03 0.  0.
    9000005    1    3    3    0    0 -0.29263484962E+02  0.25128804783E+02 -0.74843280846E+03  0.74942676571E+03  0.10000000000E+01 0.  0.
    9000005    1    3    3    0    0  0.29263484962E+02 -0.25128804783E+02 -0.85269774620E+02  0.93593497882E+02  0.10000000000E+01 0.  0.
<mgrwt>
<rscale>  0 0.12499267E+03</rscale>
<asrwt>0</asrwt>
<pdfrwt beam="2">  1        4 0.20958984E+00 0.12499267E+03</pdfrwt>
<pdfrwt beam="1">  1       -4 0.11647129E-02 0.12499267E+03</pdfrwt>
<totfact> 0.48813833E+02</totfact>
</mgrwt>
</event>
<event>
 5    1  0.1433395E-002  0.1250015E+03  0.7818608E-02  0.1235067E+00
         -4   -1    0    0    0  501 -0.00000000000E+00  0.00000000000E+00  0.95911412271E+02  0.95919820183E+02  0.12700000000E+01 0. -1.
          4   -1    0    0  501    0  0.00000000000E+00 -0.00000000000E+00 -0.40708560431E+02  0.40728365943E+02  0.12700000000E+01 0. -1.
         25    2    1    2    0    0  0.00000000000E+00  0.00000000000E+00  0.55202851840E+02  0.13664818613E+03  0.12500148767E+03 0.  0.
    9000005    1    3    3    0    0  0.56509932157E+02  0.16068402731E+02  0.50888231666E+02  0.77731448725E+02  0.10000000000E+01 0.  0.
    9000005    1    3    3    0    0 -0.56509932157E+02 -0.16068402731E+02  0.43146201735E+01  0.58916737401E+02  0.10000000000E+01 0.  0.
<mgrwt>
<rscale>  0 0.12500149E+03</rscale>
<asrwt>0</asrwt>
<pdfrwt beam="2">  1        4 0.10180667E-01 0.12500149E+03</pdfrwt>
<pdfrwt beam="1">  1       -4 0.23981379E-01 0.12500149E+03</pdfrwt>
<totfact> 0.19212485E+03</totfact>
</mgrwt>
</event>
<event>
 5    1  0.1433395E-002  0.1250013E+03  0.7818608E-02  0.1235067E+00
         -4   -1    0    0    0  501 -0.00000000000E+00  0.00000000000E+00  0.72795584292E+02  0.72806661731E+02  0.12700000000E+01 0. -1.
          4   -1    0    0  501    0  0.00000000000E+00 -0.00000000000E+00 -0.53638964353E+02  0.53653997026E+02  0.12700000000E+01 0. -1.
         25    2    1    2    0    0  0.00000000000E+00  0.00000000000E+00  0.19156619938E+02  0.12646065876E+03  0.12500128850E+03 0.  0.
    9000005    1    3    3    0    0 -0.58027696874E+02 -0.21385951400E+02  0.48684742908E+00  0.61853128799E+02  0.10000000000E+01 0.  0.
    9000005    1    3    3    0    0  0.58027696874E+02  0.21385951400E+02  0.18669772509E+02  0.64607529958E+02  0.10000000000E+01 0.  0.
<mgrwt>
<rscale>  0 0.12500129E+03</rscale>
<asrwt>0</asrwt>
<pdfrwt beam="2">  1        4 0.13413005E-01 0.12500129E+03</pdfrwt>
<pdfrwt beam="1">  1       -4 0.18202160E-01 0.12500129E+03</pdfrwt>
<totfact> 0.19755452E+03</totfact>
</mgrwt>
</event>
<event>
 5    1  0.1433395E-002  0.1249999E+03  0.7818608E-02  0.1235069E+00
         -4   -1    0    0    0  501 -0.00000000000E+00  0.00000000000E+00  0.14108907679E+02  0.14165951288E+02  0.12700000000E+01 0.  1.
          4   -1    0    0  501    0  0.00000000000E+00 -0.00000000000E+00 -0.27624651157E+03  0.27624943087E+03  0.12700000000E+01 0.  1.
         25    2    1    2    0    0  0.00000000000E+00  0.00000000000E+00 -0.26213760389E+03  0.29041538215E+03  0.12499988327E+03 0.  0.
    9000005    1    3    3    0    0 -0.43999952587E+02 -0.43839198250E+02 -0.11507804899E+03  0.13077395952E+03  0.10000000000E+01 0.  0.
    9000005    1    3    3    0    0  0.43999952587E+02  0.43839198250E+02 -0.14705955490E+03  0.15964142263E+03  0.10000000000E+01 0.  0.
<mgrwt>
<rscale>  0 0.12499988E+03</rscale>
<asrwt>0</asrwt>
<pdfrwt beam="2">  1        4 0.69069106E-01 0.12499988E+03</pdfrwt>
<pdfrwt beam="1">  1       -4 0.35347232E-02 0.12499988E+03</pdfrwt>
<totfact> 0.13244036E+03</totfact>
</mgrwt>
</event>
<event>
 5    1  0.1433395E-002  0.1250056E+03  0.7818608E-02  0.1235061E+00
          4   -1    0    0  501    0  0.00000000000E+00  0.00000000000E+00  0.42092835393E+02  0.42111989877E+02  0.12700000000E+01 0.  1.
         -4   -1    0    0    0  501 -0.00000000000E+00 -0.00000000000E+00 -0.92764521299E+02  0.92773214409E+02  0.12700000000E+01 0.  1.
         25    2    1    2    0    0  0.00000000000E+00  0.00000000000E+00 -0.50671685906E+02  0.13488520429E+03  0.12500559421E+03 0.  0.
    9000005    1    3    3    0    0 -0.25278865232E+02  0.44668640269E+02  0.13137275062E+02  0.52989588099E+02  0.10000000000E+01 0.  0.
    9000005    1    3    3    0    0  0.25278865232E+02 -0.44668640269E+02 -0.63808960968E+02  0.81895616187E+02  0.10000000000E+01 0.  0.
<mgrwt>
<rscale>  0 0.12500559E+03</rscale>
<asrwt>0</asrwt>
<pdfrwt beam="1">  1        4 0.10526690E-01 0.12500559E+03</pdfrwt>
<pdfrwt beam="2">  1       -4 0.23194611E-01 0.12500559E+03</pdfrwt>
<totfact> 0.19302632E+03</totfact>
</mgrwt>
</event>
<event>
 5    1  0.1433395E-002  0.1249991E+03  0.7818608E-02  0.1235071E+00
         -4   -1    0    0    0  501 -0.00000000000E+00  0.00000000000E+00  0.74161292681E+02  0.74172166155E+02  0.12700000000E+01 0.  1.
          4   -1    0    0  501    0  0.00000000000E+00 -0.00000000000E+00 -0.52649221067E+02  0.52664536255E+02  0.12700000000E+01 0.  1.
         25    2    1    2    0    0  0.00000000000E+00  0.00000000000E+00  0.21512071614E+02  0.12683670241E+03  0.12499911941E+03 0.  0.
    9000005    1    3    3    0    0 -0.34420902794E+02 -0.31424833637E+02 -0.31483755423E+02  0.56254293826E+02  0.10000000000E+01 0.  0.
    9000005    1    3    3    0    0  0.34420902794E+02  0.31424833637E+02  0.52995827036E+02  0.70582408584E+02  0.10000000000E+01 0.  0.
<mgrwt>
<rscale>  0 0.12499912E+03</rscale>
<asrwt>0</asrwt>
<pdfrwt beam="2">  1        4 0.13165579E-01 0.12499912E+03</pdfrwt>
<pdfrwt beam="1">  1       -4 0.18543597E-01 0.12499912E+03</pdfrwt>
<totfact> 0.19736180E+03</totfact>
</mgrwt>
</event>
<event>
 5    1  0.1433395E-002  0.1249996E+03  0.7818608E-02  0.1235070E+00
         -4   -1    0    0    0  501 -0.00000000000E+00  0.00000000000E+00  0.11549920367E+02  0.11619533574E+02  0.12700000000E+01 0.  1.
          4   -1    0    0  501    0  0.00000000000E+00 -0.00000000000E+00 -0.33711680767E+03  0.33711919986E+03  0.12700000000E+01 0.  1.
         25    2    1    2    0    0  0.00000000000E+00  0.00000000000E+00 -0.32556688730E+03  0.34873873343E+03  0.12499962435E+03 0.  0.
    9000005    1    3    3    0    0  0.49150006308E+02 -0.23748467485E+02 -0.77907834821E+02  0.95133293617E+02  0.10000000000E+01 0.  0.
    9000005    1    3    3    0    0 -0.49150006308E+02  0.23748467485E+02 -0.24765905248E+03  0.25360543982E+03  0.10000000000E+01 0.  0.
<mgrwt>
<rscale>  0 0.12499962E+03</rscale>
<asrwt>0</asrwt>
<pdfrwt beam="2">  1        4 0.84288170E-01 0.12499962E+03</pdfrwt>
<pdfrwt beam="1">  1       -4 0.28964819E-02 0.12499962E+03</pdfrwt>
<totfact> 0.11707564E+03</totfact>
</mgrwt>
</event>
<event>
 4    1  0.1433395E-002  0.1247282E+03  0.7818608E-02  0.1235495E+00
          4   -1    0    0  501    0  0.00000000000E+00  0.00000000000E+00  0.13042811393E+04  0.13042817576E+04  0.12700000000E+01 0. -1.
         -4   -1    0    0    0  501 -0.00000000000E+00 -0.00000000000E+00 -0.28460658698E+01  0.31165671716E+01  0.12700000000E+01 0. -1.
    9000005    1    1    2    0    0  0.39110812896E+02  0.14507138004E+02  0.11365398696E+04  0.11373055825E+04  0.10000000000E+01 0.  0.
    9000005    1    1    2    0    0 -0.39110812896E+02 -0.14507138004E+02  0.16489520377E+03  0.17009274224E+03  0.10000000000E+01 0.  0.
<mgrwt>
<rscale>  0 0.12472822E+03</rscale>
<asrwt>0</asrwt>
<pdfrwt beam="1">  1        4 0.32610383E+00 0.12472822E+03</pdfrwt>
<pdfrwt beam="2">  1       -4 0.74540721E-03 0.12472822E+03</pdfrwt>
<totfact> 0.20105206E+02</totfact>
</mgrwt>
</event>
<event>
 4    1  0.1433395E-002  0.1249144E+03  0.7818608E-02  0.1235203E+00
          4   -1    0    0  501    0  0.00000000000E+00  0.00000000000E+00  0.26653990238E+02  0.26684229343E+02  0.12700000000E+01 0. -1.
         -4   -1    0    0    0  501 -0.00000000000E+00 -0.00000000000E+00 -0.14623749056E+03  0.14624300512E+03  0.12700000000E+01 0. -1.
    9000005    1    1    2    0    0  0.46255811213E+02 -0.49750080692E+01 -0.21191253252E+01  0.46581557170E+02  0.10000000000E+01 0.  0.
    9000005    1    1    2    0    0 -0.46255811213E+02  0.49750080692E+01 -0.11746437500E+03  0.12634567729E+03  0.10000000000E+01 0.  0.
<mgrwt>
<rscale>  0 0.12491443E+03</rscale>
<asrwt>0</asrwt>
<pdfrwt beam="1">  1        4 0.66679672E-02 0.12491443E+03</pdfrwt>
<pdfrwt beam="2">  1       -4 0.36563840E-01 0.12491443E+03</pdfrwt>
<totfact> 0.17500544E+03</totfact>
</mgrwt>
</event>
<event>
 5    1  0.1433395E-002  0.1249742E+03  0.7818608E-02  0.1235110E+00
         -4   -1    0    0    0  501 -0.00000000000E+00  0.00000000000E+00  0.45089366784E+02  0.45107248830E+02  0.12700000000E+01 0.  1.
          4   -1    0    0  501    0  0.00000000000E+00 -0.00000000000E+00 -0.86558085474E+02  0.86567401838E+02  0.12700000000E+01 0.  1.
         25    2    1    2    0    0  0.00000000000E+00  0.00000000000E+00 -0.41468718690E+02  0.13167465067E+03  0.12497423334E+03 0.  0.
    9000005    1    3    3    0    0 -0.62194456649E+02  0.39627923784E+01 -0.16047777805E+02  0.64361365227E+02  0.10000000000E+01 0.  0.
    9000005    1    3    3    0    0  0.62194456649E+02 -0.39627923784E+01 -0.25420940885E+02  0.67313285441E+02  0.10000000000E+01 0.  0.
<mgrwt>
<rscale>  0 0.12497423E+03</rscale>
<asrwt>0</asrwt>
<pdfrwt beam="2">  1        4 0.21642921E-01 0.12497423E+03</pdfrwt>
<pdfrwt beam="1">  1       -4 0.11275742E-01 0.12497423E+03</pdfrwt>
<totfact> 0.19486487E+03</totfact>
</mgrwt>
</event>
<event>
 5    1  0.1433395E-002  0.1250054E+03  0.7818608E-02  0.1235061E+00
         -4   -1    0    0    0  501 -0.00000000000E+00  0.00000000000E+00  0.77320539319E+02  0.77330968574E+02  0.12700000000E+01 0. -1.
          4   -1    0    0  501    0  0.00000000000E+00 -0.00000000000E+00 -0.50502776640E+02  0.50518742545E+02  0.12700000000E+01 0. -1.
         25    2    1    2    0    0  0.00000000000E+00  0.00000000000E+00  0.26817762679E+02  0.12784971112E+03  0.12500542483E+03 0.  0.
    9000005    1    3    3    0    0 -0.85491167160E+01 -0.61898267168E+02  0.14484565240E+02  0.64150491076E+02  0.10000000000E+01 0.  0.
    9000005    1    3    3    0    0  0.85491167160E+01  0.61898267168E+02  0.12333197439E+02  0.63699220043E+02  0.10000000000E+01 0.  0.
<mgrwt>
<rscale>  0 0.12500542E+03</rscale>
<asrwt>0</asrwt>
<pdfrwt beam="2">  1        4 0.12628994E-01 0.12500542E+03</pdfrwt>
<pdfrwt beam="1">  1       -4 0.19333434E-01 0.12500542E+03</pdfrwt>
<totfact> 0.19678224E+03</totfact>
</mgrwt>
</event>
<event>
 5    1  0.1433395E-002  0.1249912E+03  0.7818608E-02  0.1235083E+00
         -4   -1    0    0    0  501 -0.00000000000E+00  0.00000000000E+00  0.22942471716E+03  0.22942823223E+03  0.12700000000E+01 0. -1.
          4   -1    0    0  501    0  0.00000000000E+00 -0.00000000000E+00 -0.16996547666E+02  0.17043929493E+02  0.12700000000E+01 0. -1.
         25    2    1    2    0    0  0.00000000000E+00  0.00000000000E+00  0.21242816949E+03  0.24647216172E+03  0.12499119693E+03 0.  0.
    9000005    1    3    3    0    0 -0.14273631245E+02 -0.60834885148E+02  0.10677192279E+03  0.12371686747E+03  0.10000000000E+01 0.  0.
    9000005    1    3    3    0    0  0.14273631245E+02  0.60834885148E+02  0.10565624670E+03  0.12275529425E+03  0.10000000000E+01 0.  0.
<mgrwt>
<rscale>  0 0.12499120E+03</rscale>
<asrwt>0</asrwt>
<pdfrwt beam="2">  1        4 0.42554990E-02 0.12499120E+03</pdfrwt>
<pdfrwt beam="1">  1       -4 0.57362542E-01 0.12499120E+03</pdfrwt>
<totfact> 0.14619013E+03</totfact>
</mgrwt>
</event>
<event>
 5    1  0.1433395E-002  0.1249996E+03  0.7818608E-02  0.1235070E+00
          4   -1    0    0  501    0  0.00000000000E+00  0.00000000000E+00  0.51444785485E+03  0.51444942245E+03  0.12700000000E+01 0.  1.
         -4   -1    0    0    0  501 -0.00000000000E+00 -0.00000000000E+00 -0.75383427854E+01  0.76445740201E+01  0.12700000000E+01 0.  1.
         25    2    1    2    0    0  0.00000000000E+00  0.00000000000E+00  0.50690951206E+03  0.52209399647E+03  0.12499955092E+03 0.  0.
    9000005    1    3    3    0    0 -0.29115829766E+02 -0.20922753533E+01  0.22667581798E+02  0.36971995127E+02  0.10000000000E+01 0.  0.
    9000005    1    3    3    0    0  0.29115829766E+02  0.20922753533E+01  0.48424193026E+03  0.48512200134E+03  0.10000000000E+01 0.  0.
<mgrwt>
<rscale>  0 0.12499955E+03</rscale>
<asrwt>0</asrwt>
<pdfrwt beam="1">  1        4 0.12862545E+00 0.12499955E+03</pdfrwt>
<pdfrwt beam="2">  1       -4 0.18980603E-02 0.12499955E+03</pdfrwt>
<totfact> 0.84197442E+02</totfact>
</mgrwt>
</event>
<event>
 5    1  0.1433395E-002  0.1249989E+03  0.7818608E-02  0.1235071E+00
         -4   -1    0    0    0  501 -0.00000000000E+00  0.00000000000E+00  0.33219984905E+03  0.33220227664E+03  0.12700000000E+01 0.  1.
          4   -1    0    0  501    0  0.00000000000E+00 -0.00000000000E+00 -0.11721767412E+02  0.11790366036E+02  0.12700000000E+01 0.  1.
         25    2    1    2    0    0  0.00000000000E+00  0.00000000000E+00  0.32047808163E+03  0.34399264268E+03  0.12499894963E+03 0.  0.
    9000005    1    3    3    0    0 -0.35805324810E+02 -0.48360464639E+02  0.20665094284E+03  0.21523561044E+03  0.10000000000E+01 0.  0.
    9000005    1    3    3    0    0  0.35805324810E+02  0.48360464639E+02  0.11382713879E+03  0.12875703224E+03  0.10000000000E+01 0.  0.
<mgrwt>
<rscale>  0 0.12499895E+03</rscale>
<asrwt>0</asrwt>
<pdfrwt beam="2">  1        4 0.29393201E-02 0.12499895E+03</pdfrwt>
<pdfrwt beam="1">  1       -4 0.83058841E-01 0.12499895E+03</pdfrwt>
<totfact> 0.11822185E+03</totfact>
</mgrwt>
</event>
<event>
 5    1  0.1433395E-002  0.1249970E+03  0.7818608E-02  0.1235074E+00
         -4   -1    0    0    0  501 -0.00000000000E+00  0.00000000000E+00  0.46415038406E+02  0.46432409912E+02  0.12700000000E+01 0.  1.
          4   -1    0    0  501    0  0.00000000000E+00 -0.00000000000E+00 -0.84117142498E+02  0.84126729177E+02  0.12700000000E+01 0.  1.
         25    2    1    2    0    0  0.00000000000E+00  0.00000000000E+00 -0.37702104092E+02  0.13055913909E+03  0.12499696055E+03 0.  0.
    9000005    1    3    3    0    0 -0.53655610046E+02  0.97852454717E+01 -0.50710559875E+02  0.74479771759E+02  0.10000000000E+01 0.  0.
    9000005    1    3    3    0    0  0.53655610046E+02 -0.97852454717E+01  0.13008455783E+02  0.56079367331E+02  0.10000000000E+01 0.  0.
<mgrwt>
<rscale>  0 0.12499696E+03</rscale>
<asrwt>0</asrwt>
<pdfrwt beam="2">  1        4 0.21032655E-01 0.12499696E+03</pdfrwt>
<pdfrwt beam="1">  1       -4 0.11607130E-01 0.12499696E+03</pdfrwt>
<totfact> 0.19535757E+03</totfact>
</mgrwt>
</event>
<event>
 5    1  0.1433395E-002  0.1250006E+03  0.7818608E-02  0.1235068E+00
         -4   -1    0    0    0  501 -0.00000000000E+00  0.00000000000E+00  0.25960779796E+02  0.25991825400E+02  0.12700000000E+01 0.  1.
          4   -1    0    0  501    0  0.00000000000E+00 -0.00000000000E+00 -0.15034515468E+03  0.15035051858E+03  0.12700000000E+01 0.  1.
         25    2    1    2    0    0  0.00000000000E+00  0.00000000000E+00 -0.12438437488E+03  0.17634234398E+03  0.12500059825E+03 0.  0.
    9000005    1    3    3    0    0 -0.33690342711E+01  0.87757313178E+01 -0.14934898166E+03  0.14964786058E+03  0.10000000000E+01 0.  0.
    9000005    1    3    3    0    0  0.33690342711E+01 -0.87757313178E+01  0.24964606780E+02  0.26694483396E+02  0.10000000000E+01 0.  0.
<mgrwt>
<rscale>  0 0.12500060E+03</rscale>
<asrwt>0</asrwt>
<pdfrwt beam="2">  1        4 0.37590837E-01 0.12500060E+03</pdfrwt>
<pdfrwt beam="1">  1       -4 0.64947466E-02 0.12500060E+03</pdfrwt>
<totfact> 0.17314477E+03</totfact>
</mgrwt>
</event>
<event>
 5    1  0.1433395E-002  0.1249979E+03  0.7818608E-02  0.1235073E+00
         -4   -1    0    0    0  501 -0.00000000000E+00  0.00000000000E+00  0.67443125313E+02  0.67455081736E+02  0.12700000000E+01 0. -1.
          4   -1    0    0  501    0  0.00000000000E+00 -0.00000000000E+00 -0.57893167675E+02  0.57907095968E+02  0.12700000000E+01 0. -1.
         25    2    1    2    0    0  0.00000000000E+00  0.00000000000E+00  0.95499576381E+01  0.12536217770E+03  0.12499789561E+03 0.  0.
    9000005    1    3    3    0    0  0.34367999868E+02 -0.24492971657E+02  0.50996745592E+02  0.66202213985E+02  0.10000000000E+01 0.  0.
    9000005    1    3    3    0    0 -0.34367999868E+02  0.24492971657E+02 -0.41446787954E+02  0.59159963719E+02  0.10000000000E+01 0.  0.
<mgrwt>
<rscale>  0 0.12499790E+03</rscale>
<asrwt>0</asrwt>
<pdfrwt beam="2">  1        4 0.14476528E-01 0.12499790E+03</pdfrwt>
<pdfrwt beam="1">  1       -4 0.16864017E-01 0.12499790E+03</pdfrwt>
<totfact> 0.19816402E+03</totfact>
</mgrwt>
</event>
<event>
 5    1  0.1433395E-002  0.1249976E+03  0.7818608E-02  0.1235073E+00
          4   -1    0    0  501    0  0.00000000000E+00  0.00000000000E+00  0.14089800868E+02  0.14146921520E+02  0.12700000000E+01 0. -1.
         -4   -1    0    0    0  501 -0.00000000000E+00 -0.00000000000E+00 -0.27660970063E+03  0.27661261609E+03  0.12700000000E+01 0. -1.
         25    2    1    2    0    0  0.00000000000E+00  0.00000000000E+00 -0.26251989976E+03  0.29075953761E+03  0.12499764375E+03 0.  0.
    9000005    1    3    3    0    0  0.20472676348E+02  0.57914213188E+02 -0.15797654809E+03  0.16950155254E+03  0.10000000000E+01 0.  0.
    9000005    1    3    3    0    0 -0.20472676348E+02 -0.57914213188E+02 -0.10454335167E+03  0.12125798508E+03  0.10000000000E+01 0.  0.
<mgrwt>
<rscale>  0 0.12499764E+03</rscale>
<asrwt>0</asrwt>
<pdfrwt beam="1">  1        4 0.35299556E-02 0.12499764E+03</pdfrwt>
<pdfrwt beam="2">  1       -4 0.69159912E-01 0.12499764E+03</pdfrwt>
<totfact> 0.13234763E+03</totfact>
</mgrwt>
</event>
<event>
 5    1  0.1433395E-002  0.1250017E+03  0.7818608E-02  0.1235067E+00
          4   -1    0    0  501    0  0.00000000000E+00  0.00000000000E+00  0.43763172439E+02  0.43781596156E+02  0.12700000000E+01 0.  1.
         -4   -1    0    0    0  501 -0.00000000000E+00 -0.00000000000E+00 -0.89219566240E+02  0.89228604719E+02  0.12700000000E+01 0.  1.
         25    2    1    2    0    0  0.00000000000E+00  0.00000000000E+00 -0.45456393801E+02  0.13301020087E+03  0.12500171919E+03 0.  0.
    9000005    1    3    3    0    0  0.58928123379E+02  0.20803030670E+02 -0.22451458006E+02  0.66410524592E+02  0.10000000000E+01 0.  0.
    9000005    1    3    3    0    0 -0.58928123379E+02 -0.20803030670E+02 -0.23004935794E+02  0.66599676282E+02  0.10000000000E+01 0.  0.
<mgrwt>
<rscale>  0 0.12500172E+03</rscale>
<asrwt>0</asrwt>
<pdfrwt beam="1">  1        4 0.10944226E-01 0.12500172E+03</pdfrwt>
<pdfrwt beam="2">  1       -4 0.22308324E-01 0.12500172E+03</pdfrwt>
<totfact> 0.19403096E+03</totfact>
</mgrwt>
</event>
<event>
 5    1  0.1433395E-002  0.1250042E+03  0.7818608E-02  0.1235063E+00
         -4   -1    0    0    0  501 -0.00000000000E+00  0.00000000000E+00  0.31906004264E+02  0.31931270067E+02  0.12700000000E+01 0.  1.
          4   -1    0    0  501    0  0.00000000000E+00 -0.00000000000E+00 -0.12236122644E+03  0.12236781700E+03  0.12700000000E+01 0.  1.
         25    2    1    2    0    0  0.00000000000E+00  0.00000000000E+00 -0.90455222180E+02  0.15429908707E+03  0.12500424413E+03 0.  0.
    9000005    1    3    3    0    0  0.10766406490E+02 -0.55713541083E+02 -0.77547834120E+02  0.96096725987E+02  0.10000000000E+01 0.  0.
    9000005    1    3    3    0    0 -0.10766406490E+02  0.55713541083E+02 -0.12907388060E+02  0.58202361079E+02  0.10000000000E+01 0.  0.
<mgrwt>
<rscale>  0 0.12500424E+03</rscale>
<asrwt>0</asrwt>
<pdfrwt beam="2">  1        4 0.30594288E-01 0.12500424E+03</pdfrwt>
<pdfrwt beam="1">  1       -4 0.79804834E-02 0.12500424E+03</pdfrwt>
<totfact> 0.18327586E+03</totfact>
</mgrwt>
</event>
<event>
 5    1  0.1433395E-002  0.1250063E+03  0.7818608E-02  0.1235059E+00
         -4   -1    0    0    0  501 -0.00000000000E+00  0.00000000000E+00  0.62811967964E+03  0.62812096355E+03  0.12700000000E+01 0.  1.
          4   -1    0    0  501    0  0.00000000000E+00 -0.00000000000E+00 -0.61534522287E+01  0.62831420747E+01  0.12700000000E+01 0.  1.
         25    2    1    2    0    0  0.00000000000E+00  0.00000000000E+00  0.62196622741E+03  0.63440410563E+03  0.12500632461E+03 0.  0.
    9000005    1    3    3    0    0 -0.51037619164E+02  0.30707676016E+02  0.21498080110E+03  0.22308192391E+03  0.10000000000E+01 0.  0.
    9000005    1    3    3    0    0  0.51037619164E+02 -0.30707676016E+02  0.40698542632E+03  0.41132218172E+03  0.10000000000E+01 0.  0.
<mgrwt>
<rscale>  0 0.12500632E+03</rscale>
<asrwt>0</asrwt>
<pdfrwt beam="2">  1        4 0.15547348E-02 0.12500632E+03</pdfrwt>
<pdfrwt beam="1">  1       -4 0.15704629E+00 0.12500632E+03</pdfrwt>
<totfact> 0.69314238E+02</totfact>
</mgrwt>
</event>
<event>
 4    1  0.1433395E-002  0.1262530E+03  0.7818608E-02  0.1233124E+00
          4   -1    0    0  501    0  0.00000000000E+00  0.00000000000E+00  0.82761236309E+02  0.82770980031E+02  0.12700000000E+01 0.  1.
         -4   -1    0    0    0  501 -0.00000000000E+00 -0.00000000000E+00 -0.48129061439E+02  0.48145814511E+02  0.12700000000E+01 0.  1.
    9000005    1    1    2    0    0 -0.31306442946E+02  0.50354935258E+02 -0.51221558542E+01  0.59522679336E+02  0.10000000000E+01 0.  0.
    9000005    1    1    2    0    0  0.31306442946E+02 -0.50354935258E+02  0.39754330724E+02  0.71394115206E+02  0.10000000000E+01 0.  0.
<mgrwt>
<rscale>  0 0.12625300E+03</rscale>
<asrwt>0</asrwt>
<pdfrwt beam="1">  1        4 0.20693621E-01 0.12625300E+03</pdfrwt>
<pdfrwt beam="2">  1       -4 0.12035578E-01 0.12625300E+03</pdfrwt>
<totfact> 0.18955210E+03</totfact>
</mgrwt>
</event>
<event>
 5    1  0.1433395E-002  0.1250051E+03  0.7818608E-02  0.1235061E+00
          4   -1    0    0  501    0  0.00000000000E+00  0.00000000000E+00  0.96603646539E+01  0.97434873246E+01  0.12700000000E+01 0. -1.
         -4   -1    0    0    0  501 -0.00000000000E+00 -0.00000000000E+00 -0.40257495455E+03  0.40257695778E+03  0.12700000000E+01 0. -1.
         25    2    1    2    0    0  0.00000000000E+00  0.00000000000E+00 -0.39291458990E+03  0.41232044510E+03  0.12500509787E+03 0.  0.
    9000005    1    3    3    0    0 -0.44967931201E+02 -0.43275590196E+02 -0.18567941367E+03  0.19588960208E+03  0.10000000000E+01 0.  0.
    9000005    1    3    3    0    0  0.44967931201E+02  0.43275590196E+02 -0.20723517623E+03  0.21643084302E+03  0.10000000000E+01 0.  0.
<mgrwt>
<rscale>  0 0.12500510E+03</rscale>
<asrwt>0</asrwt>
<pdfrwt beam="1">  1        4 0.24257332E-02 0.12500510E+03</pdfrwt>
<pdfrwt beam="2">  1       -4 0.10065432E+00 0.12500510E+03</pdfrwt>
<totfact> 0.10317911E+03</totfact>
</mgrwt>
</event>
<event>
 5    1  0.1433395E-002  0.1249954E+03  0.7818608E-02  0.1235076E+00
          4   -1    0    0  501    0  0.00000000000E+00  0.00000000000E+00  0.29322440206E+02  0.29349930147E+02  0.12700000000E+01 0. -1.
         -4   -1    0    0    0  501 -0.00000000000E+00 -0.00000000000E+00 -0.13311435434E+03  0.13312041253E+03  0.12700000000E+01 0. -1.
         25    2    1    2    0    0  0.00000000000E+00  0.00000000000E+00 -0.10379191414E+03  0.16247034268E+03  0.12499540315E+03 0.  0.
    9000005    1    3    3    0    0 -0.22448297464E+02  0.10511618428E+02  0.22665400786E+02  0.33602687003E+02  0.10000000000E+01 0.  0.
    9000005    1    3    3    0    0  0.22448297464E+02 -0.10511618428E+02 -0.12645731492E+03  0.12886765567E+03  0.10000000000E+01 0.  0.
<mgrwt>
<rscale>  0 0.12499540E+03</rscale>
<asrwt>0</asrwt>
<pdfrwt beam="1">  1        4 0.73348039E-02 0.12499540E+03</pdfrwt>
<pdfrwt beam="2">  1       -4 0.33282781E-01 0.12499540E+03</pdfrwt>
<totfact> 0.17944029E+03</totfact>
</mgrwt>
</event>
<event>
 5    1  0.1433395E-002  0.1249981E+03  0.7818608E-02  0.1235072E+00
          4   -1    0    0  501    0  0.00000000000E+00  0.00000000000E+00  0.71554841781E+02  0.71566111270E+02  0.12700000000E+01 0. -1.
         -4   -1    0    0    0  501 -0.00000000000E+00 -0.00000000000E+00 -0.54566336407E+02  0.54581113665E+02  0.12700000000E+01 0. -1.
         25    2    1    2    0    0  0.00000000000E+00  0.00000000000E+00  0.16988505374E+02  0.12614722494E+03  0.12499805216E+03 0.  0.
    9000005    1    3    3    0    0  0.25613034083E+02  0.56931519763E+02  0.11331290002E+02  0.63455682099E+02  0.10000000000E+01 0.  0.
    9000005    1    3    3    0    0 -0.25613034083E+02 -0.56931519763E+02  0.56572153716E+01  0.62691542837E+02  0.10000000000E+01 0.  0.
<mgrwt>
<rscale>  0 0.12499805E+03</rscale>
<asrwt>0</asrwt>
<pdfrwt beam="1">  1        4 0.17891966E-01 0.12499805E+03</pdfrwt>
<pdfrwt beam="2">  1       -4 0.13644840E-01 0.12499805E+03</pdfrwt>
<totfact> 0.19773867E+03</totfact>
</mgrwt>
</event>
<event>
 5    1  0.1433395E-002  0.1250018E+03  0.7818608E-02  0.1235066E+00
         -4   -1    0    0    0  501 -0.00000000000E+00  0.00000000000E+00  0.18367126454E+02  0.18410981347E+02  0.12700000000E+01 0. -1.
          4   -1    0    0  501    0  0.00000000000E+00 -0.00000000000E+00 -0.21238308013E+03  0.21238687725E+03  0.12700000000E+01 0. -1.
         25    2    1    2    0    0  0.00000000000E+00  0.00000000000E+00 -0.19401595368E+03  0.23079785859E+03  0.12500184498E+03 0.  0.
    9000005    1    3    3    0    0 -0.90391496624E+01  0.54760816524E+02 -0.15003767781E+03  0.15997736720E+03  0.10000000000E+01 0.  0.
    9000005    1    3    3    0    0  0.90391496624E+01 -0.54760816524E+02 -0.43978275868E+02  0.70820491395E+02  0.10000000000E+01 0.  0.
<mgrwt>
<rscale>  0 0.12500184E+03</rscale>
<asrwt>0</asrwt>
<pdfrwt beam="2">  1        4 0.53101719E-01 0.12500184E+03</pdfrwt>
<pdfrwt beam="1">  1       -4 0.45977388E-02 0.12500184E+03</pdfrwt>
<totfact> 0.15158201E+03</totfact>
</mgrwt>
</event>
<event>
 5    1  0.1433395E-002  0.1249970E+03  0.7818608E-02  0.1235074E+00
         -4   -1    0    0    0  501 -0.00000000000E+00  0.00000000000E+00  0.12411508053E+03  0.12412157796E+03  0.12700000000E+01 0.  1.
          4   -1    0    0  501    0  0.00000000000E+00 -0.00000000000E+00 -0.31451135442E+02  0.31476766362E+02  0.12700000000E+01 0.  1.
         25    2    1    2    0    0  0.00000000000E+00  0.00000000000E+00  0.92663945088E+02  0.15559834432E+03  0.12499695211E+03 0.  0.
    9000005    1    3    3    0    0 -0.15931291504E+01 -0.27429530770E+02  0.11619873734E+03  0.11940713454E+03  0.10000000000E+01 0.  0.
    9000005    1    3    3    0    0  0.15931291504E+01  0.27429530770E+02 -0.23534792256E+02  0.36191209780E+02  0.10000000000E+01 0.  0.
<mgrwt>
<rscale>  0 0.12499695E+03</rscale>
<asrwt>0</asrwt>
<pdfrwt beam="2">  1        4 0.78668000E-02 0.12499695E+03</pdfrwt>
<pdfrwt beam="1">  1       -4 0.31032786E-01 0.12499695E+03</pdfrwt>
<totfact> 0.18268186E+03</totfact>
</mgrwt>
</event>
<event>
 5    1  0.1433395E-002  0.1250130E+03  0.7818608E-02  0.1235049E+00
         -4   -1    0    0    0  501 -0.00000000000E+00  0.00000000000E+00  0.94218669141E+01  0.95070750574E+01  0.12700000000E+01 0.  1.
          4   -1    0    0  501    0  0.00000000000E+00 -0.00000000000E+00 -0.41272710230E+03  0.41272905625E+03  0.12700000000E+01 0.  1.
         25    2    1    2    0    0  0.00000000000E+00  0.00000000000E+00 -0.40330523539E+03  0.42223613131E+03  0.12501295010E+03 0.  0.
    9000005    1    3    3    0    0  0.60427612150E+02  0.50348842651E+00 -0.25551453113E+03  0.26256508799E+03  0.10000000000E+01 0.  0.
    9000005    1    3    3    0    0 -0.60427612150E+02 -0.50348842651E+00 -0.14779070426E+03  0.15967104332E+03  0.10000000000E+01 0.  0.
<mgrwt>
<rscale>  0 0.12501295E+03</rscale>
<asrwt>0</asrwt>
<pdfrwt beam="2">  1        4 0.10319261E+00 0.12501295E+03</pdfrwt>
<pdfrwt beam="1">  1       -4 0.23663634E-02 0.12501295E+03</pdfrwt>
<totfact> 0.10119260E+03</totfact>
</mgrwt>
</event>
<event>
 5    1  0.1433395E-002  0.1250014E+03  0.7818608E-02  0.1235067E+00
          4   -1    0    0  501    0  0.00000000000E+00  0.00000000000E+00  0.77017536312E+01  0.78057612694E+01  0.12700000000E+01 0.  1.
         -4   -1    0    0    0  501 -0.00000000000E+00 -0.00000000000E+00 -0.50369419276E+03  0.50369579382E+03  0.12700000000E+01 0.  1.
         25    2    1    2    0    0  0.00000000000E+00  0.00000000000E+00 -0.49599243912E+03  0.51150155509E+03  0.12500136477E+03 0.  0.
    9000005    1    3    3    0    0  0.12976163574E+02  0.58909057189E+02 -0.31481912544E+03  0.32054756212E+03  0.10000000000E+01 0.  0.
    9000005    1    3    3    0    0 -0.12976163574E+02 -0.58909057189E+02 -0.18117331369E+03  0.19095399298E+03  0.10000000000E+01 0.  0.
<mgrwt>
<rscale>  0 0.12500136E+03</rscale>
<asrwt>0</asrwt>
<pdfrwt beam="1">  1        4 0.19386412E-02 0.12500136E+03</pdfrwt>
<pdfrwt beam="2">  1       -4 0.12593664E+00 0.12500136E+03</pdfrwt>
<totfact> 0.85803470E+02</totfact>
</mgrwt>
</event>
<event>
 5    1  0.1433395E-002  0.1250021E+03  0.7818608E-02  0.1235066E+00
         -4   -1    0    0    0  501 -0.00000000000E+00  0.00000000000E+00  0.10439975630E+03  0.10440748065E+03  0.12700000000E+01 0.  1.
          4   -1    0    0  501    0  0.00000000000E+00 -0.00000000000E+00 -0.37397622279E+02  0.37419180271E+02  0.12700000000E+01 0.  1.
         25    2    1    2    0    0  0.00000000000E+00  0.00000000000E+00  0.67002134017E+02  0.14182666092E+03  0.12500206312E+03 0.  0.
    9000005    1    3    3    0    0  0.41342588792E+02 -0.20180469913E+02  0.81489426767E+02  0.93584120922E+02  0.10000000000E+01 0.  0.
    9000005    1    3    3    0    0 -0.41342588792E+02  0.20180469913E+02 -0.14487292750E+02  0.48242539995E+02  0.10000000000E+01 0.  0.
<mgrwt>
<rscale>  0 0.12500206E+03</rscale>
<asrwt>0</asrwt>
<pdfrwt beam="2">  1        4 0.93530659E-02 0.12500206E+03</pdfrwt>
<pdfrwt beam="1">  1       -4 0.26103599E-01 0.12500206E+03</pdfrwt>
<totfact> 0.18946369E+03</totfact>
</mgrwt>
</event>
<event>
 5    1  0.1433395E-002  0.1249955E+03  0.7818608E-02  0.1235076E+00
         -4   -1    0    0    0  501 -0.00000000000E+00  0.00000000000E+00  0.17614656300E+02  0.17660379853E+02  0.12700000000E+01 0. -1.
          4   -1    0    0  501    0  0.00000000000E+00 -0.00000000000E+00 -0.22141049231E+03  0.22141413461E+03  0.12700000000E+01 0. -1.
         25    2    1    2    0    0  0.00000000000E+00  0.00000000000E+00 -0.20379583601E+03  0.23907451446E+03  0.12499552268E+03 0.  0.
    9000005    1    3    3    0    0 -0.72457423267E+01  0.38450903792E+02 -0.87058511247E+01  0.40096940383E+02  0.10000000000E+01 0.  0.
    9000005    1    3    3    0    0  0.72457423267E+01 -0.38450903792E+02 -0.19508998488E+03  0.19897757408E+03  0.10000000000E+01 0.  0.
<mgrwt>
<rscale>  0 0.12499552E+03</rscale>
<asrwt>0</asrwt>
<pdfrwt beam="2">  1        4 0.55358785E-01 0.12499552E+03</pdfrwt>
<pdfrwt beam="1">  1       -4 0.44098355E-02 0.12499552E+03</pdfrwt>
<totfact> 0.14869924E+03</totfact>
</mgrwt>
</event>
<event>
 5    1  0.1433395E-002  0.1249861E+03  0.7818608E-02  0.1235091E+00
          4   -1    0    0  501    0  0.00000000000E+00  0.00000000000E+00  0.19034257980E+02  0.19076579276E+02  0.12700000000E+01 0.  1.
         -4   -1    0    0    0  501 -0.00000000000E+00 -0.00000000000E+00 -0.20490438229E+03  0.20490831799E+03  0.12700000000E+01 0.  1.
         25    2    1    2    0    0  0.00000000000E+00  0.00000000000E+00 -0.18587012431E+03  0.22398489726E+03  0.12498612360E+03 0.  0.
    9000005    1    3    3    0    0  0.21777525996E+02  0.56577522535E+02 -0.65809718880E+02  0.89482935768E+02  0.10000000000E+01 0.  0.
    9000005    1    3    3    0    0 -0.21777525996E+02 -0.56577522535E+02 -0.12006040543E+03  0.13450196150E+03  0.10000000000E+01 0.  0.
<mgrwt>
<rscale>  0 0.12498612E+03</rscale>
<asrwt>0</asrwt>
<pdfrwt beam="1">  1        4 0.47643473E-02 0.12498612E+03</pdfrwt>
<pdfrwt beam="2">  1       -4 0.51231871E-01 0.12498612E+03</pdfrwt>
<totfact> 0.15409585E+03</totfact>
</mgrwt>
</event>
<event>
 5    1  0.1433395E-002  0.1249993E+03  0.7818608E-02  0.1235070E+00
          4   -1    0    0  501    0  0.00000000000E+00  0.00000000000E+00  0.22132756621E+02  0.22169163621E+02  0.12700000000E+01 0. -1.
         -4   -1    0    0    0  501 -0.00000000000E+00 -0.00000000000E+00 -0.17630616966E+03  0.17631074374E+03  0.12700000000E+01 0. -1.
         25    2    1    2    0    0  0.00000000000E+00  0.00000000000E+00 -0.15417341304E+03  0.19847990737E+03  0.12499932936E+03 0.  0.
    9000005    1    3    3    0    0 -0.20093884832E+02 -0.26509170501E+01  0.16776675921E+02  0.26329611159E+02  0.10000000000E+01 0.  0.
    9000005    1    3    3    0    0  0.20093884832E+02  0.26509170501E+01 -0.17095008896E+03  0.17215029621E+03  0.10000000000E+01 0.  0.
<mgrwt>
<rscale>  0 0.12499933E+03</rscale>
<asrwt>0</asrwt>
<pdfrwt beam="1">  1        4 0.55383123E-02 0.12499933E+03</pdfrwt>
<pdfrwt beam="2">  1       -4 0.44081661E-01 0.12499933E+03</pdfrwt>
<totfact> 0.16383344E+03</totfact>
</mgrwt>
</event>
<event>
 5    1  0.1433395E-002  0.1250008E+03  0.7818608E-02  0.1235068E+00
         -4   -1    0    0    0  501 -0.00000000000E+00  0.00000000000E+00  0.93370578669E+01  0.94230329306E+01  0.12700000000E+01 0.  1.
          4   -1    0    0  501    0  0.00000000000E+00 -0.00000000000E+00 -0.41636090429E+03  0.41636284119E+03  0.12700000000E+01 0.  1.
         25    2    1    2    0    0  0.00000000000E+00  0.00000000000E+00 -0.40702384642E+03  0.42578587412E+03  0.12500079616E+03 0.  0.
    9000005    1    3    3    0    0  0.40264315086E+02  0.40086864330E+02 -0.11487516658E+03  0.12816191189E+03  0.10000000000E+01 0.  0.
    9000005    1    3    3    0    0 -0.40264315086E+02 -0.40086864330E+02 -0.29214867984E+03  0.29762396223E+03  0.10000000000E+01 0.  0.
<mgrwt>
<rscale>  0 0.12500080E+03</rscale>
<asrwt>0</asrwt>
<pdfrwt beam="2">  1        4 0.10410115E+00 0.12500080E+03</pdfrwt>
<pdfrwt beam="1">  1       -4 0.23452549E-02 0.12500080E+03</pdfrwt>
<totfact> 0.10052997E+03</totfact>
</mgrwt>
</event>
<event>
 5    1  0.1433395E-002  0.1249994E+03  0.7818608E-02  0.1235070E+00
          4   -1    0    0  501    0  0.00000000000E+00  0.00000000000E+00  0.25360216546E+03  0.25360534542E+03  0.12700000000E+01 0. -1.
         -4   -1    0    0    0  501 -0.00000000000E+00 -0.00000000000E+00 -0.15373441852E+02  0.15425810007E+02  0.12700000000E+01 0. -1.
         25    2    1    2    0    0  0.00000000000E+00  0.00000000000E+00  0.23822872360E+03  0.26903115542E+03  0.12499935135E+03 0.  0.
    9000005    1    3    3    0    0  0.58354856843E+02 -0.37019488982E+00  0.16722992791E+03  0.17712220401E+03  0.10000000000E+01 0.  0.
    9000005    1    3    3    0    0 -0.58354856843E+02  0.37019488982E+00  0.70998795690E+02  0.91908951418E+02  0.10000000000E+01 0.  0.
<mgrwt>
<rscale>  0 0.12499935E+03</rscale>
<asrwt>0</asrwt>
<pdfrwt beam="1">  1        4 0.63407485E-01 0.12499935E+03</pdfrwt>
<pdfrwt beam="2">  1       -4 0.38503040E-02 0.12499935E+03</pdfrwt>
<totfact> 0.13885879E+03</totfact>
</mgrwt>
</event>
<event>
 5    1  0.1433395E-002  0.1250009E+03  0.7818608E-02  0.1235068E+00
         -4   -1    0    0    0  501 -0.00000000000E+00  0.00000000000E+00  0.76428810826E+02  0.76439361747E+02  0.12700000000E+01 0. -1.
          4   -1    0    0  501    0  0.00000000000E+00 -0.00000000000E+00 -0.51088443400E+02  0.51104226333E+02  0.12700000000E+01 0. -1.
         25    2    1    2    0    0  0.00000000000E+00  0.00000000000E+00  0.25340367426E+02  0.12754358808E+03  0.12500093055E+03 0.  0.
    9000005    1    3    3    0    0 -0.21440900087E+02  0.31124757730E+02 -0.38110066434E+02  0.53682771016E+02  0.10000000000E+01 0.  0.
    9000005    1    3    3    0    0  0.21440900087E+02 -0.31124757730E+02  0.63450433860E+02  0.73860817064E+02  0.10000000000E+01 0.  0.
<mgrwt>
<rscale>  0 0.12500093E+03</rscale>
<asrwt>0</asrwt>
<pdfrwt beam="2">  1        4 0.12775403E-01 0.12500093E+03</pdfrwt>
<pdfrwt beam="1">  1       -4 0.19110494E-01 0.12500093E+03</pdfrwt>
<totfact> 0.19696977E+03</totfact>
</mgrwt>
</event>
<event>
 5    1  0.1433395E-002  0.1249995E+03  0.7818608E-02  0.1235070E+00
          4   -1    0    0  501    0  0.00000000000E+00  0.00000000000E+00  0.25935550578E+02  0.25966626346E+02  0.12700000000E+01 0. -1.
         -4   -1    0    0    0  501 -0.00000000000E+00 -0.00000000000E+00 -0.15048851170E+03  0.15049387049E+03  0.12700000000E+01 0. -1.
         25    2    1    2    0    0  0.00000000000E+00  0.00000000000E+00 -0.12455296112E+03  0.17646049683E+03  0.12499946727E+03 0.  0.
    9000005    1    3    3    0    0  0.17632217433E+02  0.65893299059E+01 -0.14639830825E+03  0.14760683933E+03  0.10000000000E+01 0.  0.
    9000005    1    3    3    0    0 -0.17632217433E+02 -0.65893299059E+01  0.21845347123E+02  0.28853657500E+02  0.10000000000E+01 0.  0.
<mgrwt>
<rscale>  0 0.12499947E+03</rscale>
<asrwt>0</asrwt>
<pdfrwt beam="1">  1        4 0.64884424E-02 0.12499947E+03</pdfrwt>
<pdfrwt beam="2">  1       -4 0.37626680E-01 0.12499947E+03</pdfrwt>
<totfact> 0.17309741E+03</totfact>
</mgrwt>
</event>
<event>
 5    1  0.1433395E-002  0.1250011E+03  0.7818608E-02  0.1235068E+00
          4   -1    0    0  501    0  0.00000000000E+00  0.00000000000E+00  0.12974519749E+03  0.12975141299E+03  0.12700000000E+01 0.  1.
         -4   -1    0    0    0  501 -0.00000000000E+00 -0.00000000000E+00 -0.30087276475E+02  0.30114068235E+02  0.12700000000E+01 0.  1.
         25    2    1    2    0    0  0.00000000000E+00  0.00000000000E+00  0.99657921017E+02  0.15986548122E+03  0.12500108346E+03 0.  0.
    9000005    1    3    3    0    0 -0.23084183940E+02  0.68690712816E+01  0.12357748507E+03  0.12590654671E+03  0.10000000000E+01 0.  0.
    9000005    1    3    3    0    0  0.23084183940E+02 -0.68690712816E+01 -0.23919564055E+02  0.33958934510E+02  0.10000000000E+01 0.  0.
<mgrwt>
<rscale>  0 0.12500108E+03</rscale>
<asrwt>0</asrwt>
<pdfrwt beam="1">  1        4 0.32440425E-01 0.12500108E+03</pdfrwt>
<pdfrwt beam="2">  1       -4 0.75259451E-02 0.12500108E+03</pdfrwt>
<totfact> 0.18063632E+03</totfact>
</mgrwt>
</event>
<event>
 5    1  0.1433395E-002  0.1249916E+03  0.7818608E-02  0.1235082E+00
         -4   -1    0    0    0  501 -0.00000000000E+00  0.00000000000E+00  0.12140730472E+03  0.12141394706E+03  0.12700000000E+01 0.  1.
          4   -1    0    0  501    0  0.00000000000E+00 -0.00000000000E+00 -0.32150362165E+02  0.32175436086E+02  0.12700000000E+01 0.  1.
         25    2    1    2    0    0  0.00000000000E+00  0.00000000000E+00  0.89256942557E+02  0.15358938314E+03  0.12499158699E+03 0.  0.
    9000005    1    3    3    0    0  0.26733475898E+02 -0.54301318220E+02  0.63720853515E+02  0.87890039633E+02  0.10000000000E+01 0.  0.
    9000005    1    3    3    0    0 -0.26733475898E+02  0.54301318220E+02  0.25536089042E+02  0.65699343509E+02  0.10000000000E+01 0.  0.
<mgrwt>
<rscale>  0 0.12499159E+03</rscale>
<asrwt>0</asrwt>
<pdfrwt beam="2">  1        4 0.80415552E-02 0.12499159E+03</pdfrwt>
<pdfrwt beam="1">  1       -4 0.30355790E-01 0.12499159E+03</pdfrwt>
<totfact> 0.18367282E+03</totfact>
</mgrwt>
</event>
<event>
 5    1  0.1433395E-002  0.1250021E+03  0.7818608E-02  0.1235066E+00
          4   -1    0    0  501    0  0.00000000000E+00  0.00000000000E+00  0.76842231743E+02  0.76852725907E+02  0.12700000000E+01 0. -1.
         -4   -1    0    0    0  501 -0.00000000000E+00 -0.00000000000E+00 -0.50814451921E+02  0.50830319928E+02  0.12700000000E+01 0. -1.
         25    2    1    2    0    0  0.00000000000E+00  0.00000000000E+00  0.26027779822E+02  0.12768304584E+03  0.12500205947E+03 0.  0.
    9000005    1    3    3    0    0 -0.35906349100E+02 -0.29064311653E+02 -0.29976537478E+02  0.55078062027E+02  0.10000000000E+01 0.  0.
    9000005    1    3    3    0    0  0.35906349100E+02  0.29064311653E+02  0.56004317300E+02  0.72604983808E+02  0.10000000000E+01 0.  0.
<mgrwt>
<rscale>  0 0.12500206E+03</rscale>
<asrwt>0</asrwt>
<pdfrwt beam="1">  1        4 0.19213853E-01 0.12500206E+03</pdfrwt>
<pdfrwt beam="2">  1       -4 0.12706908E-01 0.12500206E+03</pdfrwt>
<totfact> 0.19688851E+03</totfact>
</mgrwt>
</event>
<event>
 5    1  0.1433395E-002  0.1250013E+03  0.7818608E-02  0.1235067E+00
          4   -1    0    0  501    0  0.00000000000E+00  0.00000000000E+00  0.50044983386E+02  0.50061095295E+02  0.12700000000E+01 0.  1.
         -4   -1    0    0    0  501 -0.00000000000E+00 -0.00000000000E+00 -0.78022528868E+02  0.78032864301E+02  0.12700000000E+01 0.  1.
         25    2    1    2    0    0  0.00000000000E+00  0.00000000000E+00 -0.27977545482E+02  0.12809395960E+03  0.12500127773E+03 0.  0.
    9000005    1    3    3    0    0  0.30108736969E+02 -0.52904742409E+02  0.49898224930E+00  0.60882647729E+02  0.10000000000E+01 0.  0.
    9000005    1    3    3    0    0 -0.30108736969E+02  0.52904742409E+02 -0.28476527732E+02  0.67211311867E+02  0.10000000000E+01 0.  0.
<mgrwt>
<rscale>  0 0.12500128E+03</rscale>
<asrwt>0</asrwt>
<pdfrwt beam="1">  1        4 0.12514552E-01 0.12500128E+03</pdfrwt>
<pdfrwt beam="2">  1       -4 0.19508938E-01 0.12500128E+03</pdfrwt>
<totfact> 0.19666837E+03</totfact>
</mgrwt>
</event>
<event>
 5    1  0.1433395E-002  0.1250120E+03  0.7818608E-02  0.1235050E+00
         -4   -1    0    0    0  501 -0.00000000000E+00  0.00000000000E+00  0.28903551085E+03  0.28903830098E+03  0.12700000000E+01 0.  1.
          4   -1    0    0  501    0  0.00000000000E+00 -0.00000000000E+00 -0.13484685275E+02  0.13544358123E+02  0.12700000000E+01 0.  1.
         25    2    1    2    0    0  0.00000000000E+00  0.00000000000E+00  0.27555082558E+03  0.30258265910E+03  0.12501203187E+03 0.  0.
    9000005    1    3    3    0    0  0.51142159679E+02  0.22392056652E+02  0.69784322654E+02  0.89374360899E+02  0.10000000000E+01 0.  0.
    9000005    1    3    3    0    0 -0.51142159679E+02 -0.22392056652E+02  0.20576650292E+03  0.21320829820E+03  0.10000000000E+01 0.  0.
<mgrwt>
<rscale>  0 0.12501203E+03</rscale>
<asrwt>0</asrwt>
<pdfrwt beam="2">  1        4 0.33789794E-02 0.12501203E+03</pdfrwt>
<pdfrwt beam="1">  1       -4 0.72266681E-01 0.12501203E+03</pdfrwt>
<totfact> 0.12895426E+03</totfact>
</mgrwt>
</event>
<event>
 5    1  0.1433395E-002  0.1250000E+03  0.7818608E-02  0.1235069E+00
         -4   -1    0    0    0  501 -0.00000000000E+00  0.00000000000E+00  0.66084131491E+01  0.67293405583E+01  0.12700000000E+01 0. -1.
          4   -1    0    0  501    0  0.00000000000E+00 -0.00000000000E+00 -0.58562143356E+03  0.58562281064E+03  0.12700000000E+01 0. -1.
         25    2    1    2    0    0  0.00000000000E+00  0.00000000000E+00 -0.57901302041E+03  0.59235215120E+03  0.12499997291E+03 0.  0.
    9000005    1    3    3    0    0  0.40466922180E+01  0.56285808625E+02 -0.16228178657E+03  0.17181631536E+03  0.10000000000E+01 0.  0.
    9000005    1    3    3    0    0 -0.40466922180E+01 -0.56285808625E+02 -0.41673123383E+03  0.42053583584E+03  0.10000000000E+01 0.  0.
<mgrwt>
<rscale>  0 0.12499997E+03</rscale>
<asrwt>0</asrwt>
<pdfrwt beam="2">  1        4 0.14642047E+00 0.12499997E+03</pdfrwt>
<pdfrwt beam="1">  1       -4 0.16673933E-02 0.12499997E+03</pdfrwt>
<totfact> 0.74473780E+02</totfact>
</mgrwt>
</event>
<event>
 5    1  0.1433395E-002  0.1250027E+03  0.7818608E-02  0.1235065E+00
          4   -1    0    0  501    0  0.00000000000E+00  0.00000000000E+00  0.16437138826E+02  0.16486128496E+02  0.12700000000E+01 0. -1.
         -4   -1    0    0    0  501 -0.00000000000E+00 -0.00000000000E+00 -0.23725368785E+03  0.23725708693E+03  0.12700000000E+01 0. -1.
         25    2    1    2    0    0  0.00000000000E+00  0.00000000000E+00 -0.22081654903E+03  0.25374321543E+03  0.12500268418E+03 0.  0.
    9000005    1    3    3    0    0 -0.19209526012E+02  0.26338483911E+01 -0.23100350664E+03  0.23181795255E+03  0.10000000000E+01 0.  0.
    9000005    1    3    3    0    0  0.19209526012E+02 -0.26338483911E+01  0.10186957608E+02  0.21925262878E+02  0.10000000000E+01 0.  0.
<mgrwt>
<rscale>  0 0.12500268E+03</rscale>
<asrwt>0</asrwt>
<pdfrwt beam="1">  1        4 0.41158341E-02 0.12500268E+03</pdfrwt>
<pdfrwt beam="2">  1       -4 0.59319960E-01 0.12500268E+03</pdfrwt>
<totfact> 0.14373404E+03</totfact>
</mgrwt>
</event>
<event>
 5    1  0.1433395E-002  0.1250030E+03  0.7818608E-02  0.1235065E+00
         -4   -1    0    0    0  501 -0.00000000000E+00  0.00000000000E+00  0.14085381535E+03  0.14085954067E+03  0.12700000000E+01 0. -1.
          4   -1    0    0  501    0  0.00000000000E+00 -0.00000000000E+00 -0.27713137043E+02  0.27742221699E+02  0.12700000000E+01 0. -1.
         25    2    1    2    0    0  0.00000000000E+00  0.00000000000E+00  0.11314067831E+03  0.16860176237E+03  0.12500296471E+03 0.  0.
    9000005    1    3    3    0    0  0.95434604360E+01 -0.61397808646E+02  0.47555998029E+02  0.78251782678E+02  0.10000000000E+01 0.  0.
    9000005    1    3    3    0    0 -0.95434604360E+01  0.61397808646E+02  0.65584680279E+02  0.90349979695E+02  0.10000000000E+01 0.  0.
<mgrwt>
<rscale>  0 0.12500296E+03</rscale>
<asrwt>0</asrwt>
<pdfrwt beam="2">  1        4 0.69326356E-02 0.12500296E+03</pdfrwt>
<pdfrwt beam="1">  1       -4 0.35217805E-01 0.12500296E+03</pdfrwt>
<totfact> 0.17659083E+03</totfact>
</mgrwt>
</event>
<event>
 5    1  0.1433395E-002  0.1249762E+03  0.7818608E-02  0.1235106E+00
         -4   -1    0    0    0  501 -0.00000000000E+00  0.00000000000E+00  0.24072693954E+02  0.24106171289E+02  0.12700000000E+01 0. -1.
          4   -1    0    0  501    0  0.00000000000E+00 -0.00000000000E+00 -0.16205853666E+03  0.16206351287E+03  0.12700000000E+01 0. -1.
         25    2    1    2    0    0  0.00000000000E+00  0.00000000000E+00 -0.13798584270E+03  0.18616968416E+03  0.12497623179E+03 0.  0.
    9000005    1    3    3    0    0 -0.29111553984E+02 -0.29010593868E+02  0.11099492326E+01  0.41125771959E+02  0.10000000000E+01 0.  0.
    9000005    1    3    3    0    0  0.29111553984E+02  0.29010593868E+02 -0.13909579194E+03  0.14504391220E+03  0.10000000000E+01 0.  0.
<mgrwt>
<rscale>  0 0.12497623E+03</rscale>
<asrwt>0</asrwt>
<pdfrwt beam="2">  1        4 0.40519438E-01 0.12497623E+03</pdfrwt>
<pdfrwt beam="1">  1       -4 0.60229806E-02 0.12497623E+03</pdfrwt>
<totfact> 0.16900531E+03</totfact>
</mgrwt>
</event>
<event>
 5    1  0.1433395E-002  0.1250046E+03  0.7818608E-02  0.1235062E+00
          4   -1    0    0  501    0  0.00000000000E+00  0.00000000000E+00  0.64264127653E+02  0.64276675420E+02  0.12700000000E+01 0. -1.
         -4   -1    0    0    0  501 -0.00000000000E+00 -0.00000000000E+00 -0.60763661606E+02  0.60776932069E+02  0.12700000000E+01 0. -1.
         25    2    1    2    0    0  0.00000000000E+00  0.00000000000E+00  0.35004660474E+01  0.12505360749E+03  0.12500460585E+03 0.  0.
    9000005    1    3    3    0    0  0.57468051534E+02 -0.37870132760E+01  0.26021224367E+02  0.63206190632E+02  0.10000000000E+01 0.  0.
    9000005    1    3    3    0    0 -0.57468051534E+02  0.37870132760E+01 -0.22520758319E+02  0.61847416857E+02  0.10000000000E+01 0.  0.
<mgrwt>
<rscale>  0 0.12500461E+03</rscale>
<asrwt>0</asrwt>
<pdfrwt beam="1">  1        4 0.16069259E-01 0.12500461E+03</pdfrwt>
<pdfrwt beam="2">  1       -4 0.15194143E-01 0.12500461E+03</pdfrwt>
<totfact> 0.19830011E+03</totfact>
</mgrwt>
</event>
<event>
 5    1  0.1433395E-002  0.1249980E+03  0.7818608E-02  0.1235072E+00
         -4   -1    0    0    0  501 -0.00000000000E+00  0.00000000000E+00  0.83575260967E+03  0.83575357461E+03  0.12700000000E+01 0. -1.
          4   -1    0    0  501    0  0.00000000000E+00 -0.00000000000E+00 -0.45865187367E+01  0.47591022391E+01  0.12700000000E+01 0. -1.
         25    2    1    2    0    0  0.00000000000E+00  0.00000000000E+00  0.83116609094E+03  0.84051267685E+03  0.12499795688E+03 0.  0.
    9000005    1    3    3    0    0  0.37650156719E+01  0.35082775191E+02  0.68771076055E+02  0.77300953163E+02  0.10000000000E+01 0.  0.
    9000005    1    3    3    0    0 -0.37650156719E+01 -0.35082775191E+02  0.76239501488E+03  0.76321172369E+03  0.10000000000E+01 0.  0.
<mgrwt>
<rscale>  0 0.12499796E+03</rscale>
<asrwt>0</asrwt>
<pdfrwt beam="2">  1        4 0.11683233E-02 0.12499796E+03</pdfrwt>
<pdfrwt beam="1">  1       -4 0.20895983E+00 0.12499796E+03</pdfrwt>
<totfact> 0.49015268E+02</totfact>
</mgrwt>
</event>
<event>
 5    1  0.1433395E-002  0.1250065E+03  0.7818608E-02  0.1235059E+00
          4   -1    0    0  501    0  0.00000000000E+00  0.00000000000E+00  0.29397544971E+03  0.29397819295E+03  0.12700000000E+01 0. -1.
         -4   -1    0    0    0  501 -0.00000000000E+00 -0.00000000000E+00 -0.13255905027E+02  0.13316603099E+02  0.12700000000E+01 0. -1.
         25    2    1    2    0    0  0.00000000000E+00  0.00000000000E+00  0.28071954468E+03  0.30729479605E+03  0.12500651548E+03 0.  0.
    9000005    1    3    3    0    0  0.85005164636E+00  0.61415018331E+01 -0.12510065376E+02  0.13997941573E+02  0.10000000000E+01 0.  0.
    9000005    1    3    3    0    0 -0.85005164636E+00 -0.61415018331E+01  0.29322961006E+03  0.29329685448E+03  0.10000000000E+01 0.  0.
<mgrwt>
<rscale>  0 0.12500652E+03</rscale>
<asrwt>0</asrwt>
<pdfrwt beam="1">  1        4 0.73501792E-01 0.12500652E+03</pdfrwt>
<pdfrwt beam="2">  1       -4 0.33219064E-02 0.12500652E+03</pdfrwt>
<totfact> 0.12767136E+03</totfact>
</mgrwt>
</event>
<event>
 5    1  0.1433395E-002  0.1250016E+03  0.7818608E-02  0.1235067E+00
          4   -1    0    0  501    0  0.00000000000E+00  0.00000000000E+00  0.72513710641E+02  0.72524831133E+02  0.12700000000E+01 0. -1.
         -4   -1    0    0    0  501 -0.00000000000E+00 -0.00000000000E+00 -0.53847762425E+02  0.53862736824E+02  0.12700000000E+01 0. -1.
         25    2    1    2    0    0  0.00000000000E+00  0.00000000000E+00  0.18665948216E+02  0.12638756796E+03  0.12500159884E+03 0.  0.
    9000005    1    3    3    0    0  0.54312754774E+02  0.30531398288E+02  0.44515759714E+01  0.62472859237E+02  0.10000000000E+01 0.  0.
    9000005    1    3    3    0    0 -0.54312754774E+02 -0.30531398288E+02  0.14214372244E+02  0.63914708721E+02  0.10000000000E+01 0.  0.
<mgrwt>
<rscale>  0 0.12500160E+03</rscale>
<asrwt>0</asrwt>
<pdfrwt beam="1">  1        4 0.18131689E-01 0.12500160E+03</pdfrwt>
<pdfrwt beam="2">  1       -4 0.13465202E-01 0.12500160E+03</pdfrwt>
<totfact> 0.19759252E+03</totfact>
</mgrwt>
</event>
<event>
 5    1  0.1433395E-002  0.1249975E+03  0.7818608E-02  0.1235073E+00
         -4   -1    0    0    0  501 -0.00000000000E+00  0.00000000000E+00  0.53840634852E+02  0.53855611233E+02  0.12700000000E+01 0.  1.
          4   -1    0    0  501    0  0.00000000000E+00 -0.00000000000E+00 -0.72518577813E+02  0.72529697560E+02  0.12700000000E+01 0.  1.
         25    2    1    2    0    0  0.00000000000E+00  0.00000000000E+00 -0.18677942961E+02  0.12638530879E+03  0.12499752288E+03 0.  0.
    9000005    1    3    3    0    0 -0.29402364108E+02 -0.39467040587E+02  0.29597651020E+02  0.57438377882E+02  0.10000000000E+01 0.  0.
    9000005    1    3    3    0    0  0.29402364108E+02  0.39467040587E+02 -0.48275593981E+02  0.68946930911E+02  0.10000000000E+01 0.  0.
<mgrwt>
<rscale>  0 0.12499752E+03</rscale>
<asrwt>0</asrwt>
<pdfrwt beam="2">  1        4 0.18132906E-01 0.12499752E+03</pdfrwt>
<pdfrwt beam="1">  1       -4 0.13463421E-01 0.12499752E+03</pdfrwt>
<totfact> 0.19761258E+03</totfact>
</mgrwt>
</event>
<event>
 5    1  0.1433395E-002  0.1250042E+03  0.7818608E-02  0.1235063E+00
          4   -1    0    0  501    0  0.00000000000E+00  0.00000000000E+00  0.10803655411E+03  0.10804401846E+03  0.12700000000E+01 0. -1.
         -4   -1    0    0    0  501 -0.00000000000E+00 -0.00000000000E+00 -0.36139326193E+02  0.36161634333E+02  0.12700000000E+01 0. -1.
         25    2    1    2    0    0  0.00000000000E+00  0.00000000000E+00  0.71897227922E+02  0.14420565279E+03  0.12500423559E+03 0.  0.
    9000005    1    3    3    0    0  0.54181474067E+02  0.12515081886E+01  0.50950415372E-01  0.54205175037E+02  0.10000000000E+01 0.  0.
    9000005    1    3    3    0    0 -0.54181474067E+02 -0.12515081886E+01  0.71846277507E+02  0.90000477756E+02  0.10000000000E+01 0.  0.
<mgrwt>
<rscale>  0 0.12500424E+03</rscale>
<asrwt>0</asrwt>
<pdfrwt beam="1">  1        4 0.27012860E-01 0.12500424E+03</pdfrwt>
<pdfrwt beam="2">  1       -4 0.90385532E-02 0.12500424E+03</pdfrwt>
<totfact> 0.18825356E+03</totfact>
</mgrwt>
</event>
<event>
 5    1  0.1433395E-002  0.1249855E+03  0.7818608E-02  0.1235092E+00
          4   -1    0    0  501    0  0.00000000000E+00  0.00000000000E+00  0.12469529180E+02  0.12534035981E+02  0.12700000000E+01 0. -1.
         -4   -1    0    0    0  501 -0.00000000000E+00 -0.00000000000E+00 -0.31231726473E+03  0.31231984687E+03  0.12700000000E+01 0. -1.
         25    2    1    2    0    0  0.00000000000E+00  0.00000000000E+00 -0.29984773555E+03  0.32485388285E+03  0.12498552192E+03 0.  0.
    9000005    1    3    3    0    0  0.24371887106E+02 -0.36516884477E+02 -0.26548659627E+03  0.26909404402E+03  0.10000000000E+01 0.  0.
    9000005    1    3    3    0    0 -0.24371887106E+02  0.36516884477E+02 -0.34361139286E+02  0.55759838827E+02  0.10000000000E+01 0.  0.
<mgrwt>
<rscale>  0 0.12498552E+03</rscale>
<asrwt>0</asrwt>
<pdfrwt beam="1">  1        4 0.31257694E-02 0.12498552E+03</pdfrwt>
<pdfrwt beam="2">  1       -4 0.78087677E-01 0.12498552E+03</pdfrwt>
<totfact> 0.12306075E+03</totfact>
</mgrwt>
</event>
<event>
 5    1  0.1433395E-002  0.1249985E+03  0.7818608E-02  0.1235072E+00
          4   -1    0    0  501    0  0.00000000000E+00  0.00000000000E+00  0.88371779374E+02  0.88380904553E+02  0.12700000000E+01 0. -1.
         -4   -1    0    0    0  501 -0.00000000000E+00 -0.00000000000E+00 -0.44180882218E+02  0.44199131819E+02  0.12700000000E+01 0. -1.
         25    2    1    2    0    0  0.00000000000E+00  0.00000000000E+00  0.44190897156E+02  0.13258003637E+03  0.12499852260E+03 0.  0.
    9000005    1    3    3    0    0 -0.61029131754E+02  0.89372471147E+01  0.11450363816E+02  0.62741853177E+02  0.10000000000E+01 0.  0.
    9000005    1    3    3    0    0  0.61029131754E+02 -0.89372471147E+01  0.32740533340E+02  0.69838183195E+02  0.10000000000E+01 0.  0.
<mgrwt>
<rscale>  0 0.12499852E+03</rscale>
<asrwt>0</asrwt>
<pdfrwt beam="1">  1        4 0.22096366E-01 0.12499852E+03</pdfrwt>
<pdfrwt beam="2">  1       -4 0.11048643E-01 0.12499852E+03</pdfrwt>
<totfact> 0.19427326E+03</totfact>
</mgrwt>
</event>
<event>
 5    1  0.1433395E-002  0.1249958E+03  0.7818608E-02  0.1235076E+00
         -4   -1    0    0    0  501 -0.00000000000E+00  0.00000000000E+00  0.77409868489E+03  0.77409972668E+03  0.12700000000E+01 0.  1.
          4   -1    0    0  501    0  0.00000000000E+00 -0.00000000000E+00 -0.49648794752E+01  0.51247368911E+01  0.12700000000E+01 0.  1.
         25    2    1    2    0    0  0.00000000000E+00  0.00000000000E+00  0.76913380542E+03  0.77922446358E+03  0.12499581592E+03 0.  0.
    9000005    1    3    3    0    0 -0.46193834359E+02  0.93290883583E+00  0.12227544883E+03  0.13071735171E+03  0.10000000000E+01 0.  0.
    9000005    1    3    3    0    0  0.46193834359E+02 -0.93290883583E+00  0.64685835659E+03  0.64850711187E+03  0.10000000000E+01 0.  0.
<mgrwt>
<rscale>  0 0.12499582E+03</rscale>
<asrwt>0</asrwt>
<pdfrwt beam="2">  1        4 0.12613322E-02 0.12499582E+03</pdfrwt>
<pdfrwt beam="1">  1       -4 0.19354480E+00 0.12499582E+03</pdfrwt>
<totfact> 0.54349788E+02</totfact>
</mgrwt>
</event>
<event>
 5    1  0.1433395E-002  0.1250006E+03  0.7818608E-02  0.1235068E+00
         -4   -1    0    0    0  501 -0.00000000000E+00  0.00000000000E+00  0.19514723224E+03  0.19515136472E+03  0.12700000000E+01 0.  1.
          4   -1    0    0  501    0  0.00000000000E+00 -0.00000000000E+00 -0.19992638699E+02  0.20032935435E+02  0.12700000000E+01 0.  1.
         25    2    1    2    0    0  0.00000000000E+00  0.00000000000E+00  0.17515459354E+03  0.21518430016E+03  0.12500060557E+03 0.  0.
    9000005    1    3    3    0    0 -0.86184005701E+01 -0.23980466985E+02 -0.10651134892E+02  0.27636683949E+02  0.10000000000E+01 0.  0.
    9000005    1    3    3    0    0  0.86184005701E+01  0.23980466985E+02  0.18580572844E+03  0.18754761621E+03  0.10000000000E+01 0.  0.
<mgrwt>
<rscale>  0 0.12500061E+03</rscale>
<asrwt>0</asrwt>
<pdfrwt beam="2">  1        4 0.50037133E-02 0.12500061E+03</pdfrwt>
<pdfrwt beam="1">  1       -4 0.48792362E-01 0.12500061E+03</pdfrwt>
<totfact> 0.15731348E+03</totfact>
</mgrwt>
</event>
<event>
 5    1  0.1433395E-002  0.1250014E+03  0.7818608E-02  0.1235067E+00
          4   -1    0    0  501    0  0.00000000000E+00  0.00000000000E+00  0.14615983749E+02  0.14671055890E+02  0.12700000000E+01 0.  1.
         -4   -1    0    0    0  501 -0.00000000000E+00 -0.00000000000E+00 -0.26670543582E+03  0.26670845956E+03  0.12700000000E+01 0.  1.
         25    2    1    2    0    0  0.00000000000E+00  0.00000000000E+00 -0.25208945208E+03  0.28137951545E+03  0.12500135945E+03 0.  0.
    9000005    1    3    3    0    0  0.41619567983E+02  0.67318636040E+01 -0.22988027326E+03  0.23371659432E+03  0.10000000000E+01 0.  0.
    9000005    1    3    3    0    0 -0.41619567983E+02 -0.67318636040E+01 -0.22209178819E+02  0.47662921128E+02  0.10000000000E+01 0.  0.
<mgrwt>
<rscale>  0 0.12500136E+03</rscale>
<asrwt>0</asrwt>
<pdfrwt beam="1">  1        4 0.36612588E-02 0.12500136E+03</pdfrwt>
<pdfrwt beam="2">  1       -4 0.66683605E-01 0.12500136E+03</pdfrwt>
<totfact> 0.13509039E+03</totfact>
</mgrwt>
</event>
<event>
 5    1  0.1433395E-002  0.1250390E+03  0.7818608E-02  0.1235008E+00
          4   -1    0    0  501    0  0.00000000000E+00  0.00000000000E+00  0.11972085227E+03  0.11972758817E+03  0.12700000000E+01 0.  1.
         -4   -1    0    0    0  501 -0.00000000000E+00 -0.00000000000E+00 -0.32628330176E+02  0.32653037073E+02  0.12700000000E+01 0.  1.
         25    2    1    2    0    0  0.00000000000E+00  0.00000000000E+00  0.87092522094E+02  0.15238062524E+03  0.12503898410E+03 0.  0.
    9000005    1    3    3    0    0  0.48075493900E+02 -0.15649624864E+02  0.88348120299E+02  0.10179663173E+03  0.10000000000E+01 0.  0.
    9000005    1    3    3    0    0 -0.48075493900E+02  0.15649624864E+02 -0.12555982049E+01  0.50583993506E+02  0.10000000000E+01 0.  0.
<mgrwt>
<rscale>  0 0.12503898E+03</rscale>
<asrwt>0</asrwt>
<pdfrwt beam="1">  1        4 0.29934143E-01 0.12503898E+03</pdfrwt>
<pdfrwt beam="2">  1       -4 0.81610130E-02 0.12503898E+03</pdfrwt>
<totfact> 0.18405644E+03</totfact>
</mgrwt>
</event>
<event>
 5    1  0.1433395E-002  0.1250007E+03  0.7818608E-02  0.1235068E+00
          4   -1    0    0  501    0  0.00000000000E+00  0.00000000000E+00  0.85960822745E+02  0.85970203833E+02  0.12700000000E+01 0.  1.
         -4   -1    0    0    0  501 -0.00000000000E+00 -0.00000000000E+00 -0.45421976498E+02  0.45439727651E+02  0.12700000000E+01 0.  1.
         25    2    1    2    0    0  0.00000000000E+00  0.00000000000E+00  0.40538846247E+02  0.13140993148E+03  0.12500068815E+03 0.  0.
    9000005    1    3    3    0    0  0.26047761195E+02 -0.28504902732E+02  0.71924069581E+02  0.81639984861E+02  0.10000000000E+01 0.  0.
    9000005    1    3    3    0    0 -0.26047761195E+02  0.28504902732E+02 -0.31385223334E+02  0.49769946622E+02  0.10000000000E+01 0.  0.
<mgrwt>
<rscale>  0 0.12500069E+03</rscale>
<asrwt>0</asrwt>
<pdfrwt beam="1">  1        4 0.21493597E-01 0.12500069E+03</pdfrwt>
<pdfrwt beam="2">  1       -4 0.11358886E-01 0.12500069E+03</pdfrwt>
<totfact> 0.19488569E+03</totfact>
</mgrwt>
</event>
<event>
 5    1  0.1433395E-002  0.1249990E+03  0.7818608E-02  0.1235071E+00
          4   -1    0    0  501    0  0.00000000000E+00  0.00000000000E+00  0.68253389383E+02  0.68265203891E+02  0.12700000000E+01 0.  1.
         -4   -1    0    0    0  501 -0.00000000000E+00 -0.00000000000E+00 -0.57206878021E+02  0.57220973366E+02  0.12700000000E+01 0.  1.
         25    2    1    2    0    0  0.00000000000E+00  0.00000000000E+00  0.11046511362E+02  0.12548617726E+03  0.12499902107E+03 0.  0.
    9000005    1    3    3    0    0  0.32381462199E+02  0.65014063672E+01 -0.47734052683E+02  0.58054863400E+02  0.10000000000E+01 0.  0.
    9000005    1    3    3    0    0 -0.32381462199E+02 -0.65014063672E+01  0.58780564045E+02  0.67431313856E+02  0.10000000000E+01 0.  0.
<mgrwt>
<rscale>  0 0.12499902E+03</rscale>
<asrwt>0</asrwt>
<pdfrwt beam="1">  1        4 0.17066586E-01 0.12499902E+03</pdfrwt>
<pdfrwt beam="2">  1       -4 0.14304958E-01 0.12499902E+03</pdfrwt>
<totfact> 0.19809165E+03</totfact>
</mgrwt>
</event>
<event>
 4    1  0.1433395E-002  0.1249268E+03  0.7818608E-02  0.1235184E+00
         -4   -1    0    0    0  501 -0.00000000000E+00  0.00000000000E+00  0.13847021706E+03  0.13847604093E+03  0.12700000000E+01 0. -1.
          4   -1    0    0  501    0  0.00000000000E+00 -0.00000000000E+00 -0.28156297231E+02  0.28184924583E+02  0.12700000000E+01 0. -1.
    9000005    1    1    2    0    0 -0.13996267720E+02  0.85628879818E+00  0.13634958173E+03  0.13707237934E+03  0.10000000000E+01 0.  0.
    9000005    1    1    2    0    0  0.13996267720E+02 -0.85628879818E+00 -0.26035661906E+02  0.29588586169E+02  0.10000000000E+01 0.  0.
<mgrwt>
<rscale>  0 0.12492684E+03</rscale>
<asrwt>0</asrwt>
<pdfrwt beam="2">  1        4 0.70433809E-02 0.12492684E+03</pdfrwt>
<pdfrwt beam="1">  1       -4 0.34621860E-01 0.12492684E+03</pdfrwt>
<totfact> 0.17778898E+03</totfact>
</mgrwt>
</event>
<event>
 5    1  0.1433395E-002  0.1250090E+03  0.7818608E-02  0.1235055E+00
         -4   -1    0    0    0  501 -0.00000000000E+00  0.00000000000E+00  0.28485584961E+03  0.28485868068E+03  0.12700000000E+01 0. -1.
          4   -1    0    0  501    0  0.00000000000E+00 -0.00000000000E+00 -0.13682745429E+02  0.13741558225E+02  0.12700000000E+01 0. -1.
         25    2    1    2    0    0  0.00000000000E+00  0.00000000000E+00  0.27117310418E+03  0.29860023890E+03  0.12500900064E+03 0.  0.
    9000005    1    3    3    0    0  0.30609604249E+02 -0.17031250877E+02  0.11957907329E+02  0.37027056680E+02  0.10000000000E+01 0.  0.
    9000005    1    3    3    0    0 -0.30609604249E+02  0.17031250877E+02  0.25921519685E+03  0.26157318222E+03  0.10000000000E+01 0.  0.
<mgrwt>
<rscale>  0 0.12500900E+03</rscale>
<asrwt>0</asrwt>
<pdfrwt beam="2">  1        4 0.34283917E-02 0.12500900E+03</pdfrwt>
<pdfrwt beam="1">  1       -4 0.71221671E-01 0.12500900E+03</pdfrwt>
<totfact> 0.13007695E+03</totfact>
</mgrwt>
</event>
<event>
 5    1  0.1433395E-002  0.1249990E+03  0.7818608E-02  0.1235071E+00
          4   -1    0    0  501    0  0.00000000000E+00  0.00000000000E+00  0.64083731834E+02  0.64096314916E+02  0.12700000000E+01 0. -1.
         -4   -1    0    0    0  501 -0.00000000000E+00 -0.00000000000E+00 -0.60929213723E+02  0.60942448137E+02  0.12700000000E+01 0. -1.
         25    2    1    2    0    0  0.00000000000E+00  0.00000000000E+00  0.31545181110E+01  0.12503876305E+03  0.12499896512E+03 0.  0.
    9000005    1    3    3    0    0 -0.54439679333E+02  0.28749677454E+02  0.12302737947E+02  0.62789967356E+02  0.10000000000E+01 0.  0.
    9000005    1    3    3    0    0  0.54439679333E+02 -0.28749677454E+02 -0.91482198359E+01  0.62248795697E+02  0.10000000000E+01 0.  0.
<mgrwt>
<rscale>  0 0.12499897E+03</rscale>
<asrwt>0</asrwt>
<pdfrwt beam="1">  1        4 0.16024160E-01 0.12499897E+03</pdfrwt>
<pdfrwt beam="2">  1       -4 0.15235531E-01 0.12499897E+03</pdfrwt>
<totfact> 0.19833434E+03</totfact>
</mgrwt>
</event>
<event>
 5    1  0.1433395E-002  0.1250033E+03  0.7818608E-02  0.1235064E+00
          4   -1    0    0  501    0  0.00000000000E+00  0.00000000000E+00  0.37585047552E+03  0.37585262118E+03  0.12700000000E+01 0. -1.
         -4   -1    0    0    0  501 -0.00000000000E+00 -0.00000000000E+00 -0.10352658418E+02  0.10430265400E+02  0.12700000000E+01 0. -1.
         25    2    1    2    0    0  0.00000000000E+00  0.00000000000E+00  0.36549781710E+03  0.38628288658E+03  0.12500325660E+03 0.  0.
    9000005    1    3    3    0    0 -0.15147316178E+02  0.25719588716E+02  0.35241414751E+03  0.35367735268E+03  0.10000000000E+01 0.  0.
    9000005    1    3    3    0    0  0.15147316178E+02 -0.25719588716E+02  0.13083669589E+02  0.32605533902E+02  0.10000000000E+01 0.  0.
<mgrwt>
<rscale>  0 0.12500326E+03</rscale>
<asrwt>0</asrwt>
<pdfrwt beam="1">  1        4 0.93972580E-01 0.12500326E+03</pdfrwt>
<pdfrwt beam="2">  1       -4 0.25981339E-02 0.12500326E+03</pdfrwt>
<totfact> 0.10856508E+03</totfact>
</mgrwt>
</event>
<event>
 5    1  0.1433395E-002  0.1249920E+03  0.7818608E-02  0.1235082E+00
          4   -1    0    0  501    0  0.00000000000E+00  0.00000000000E+00  0.39505514889E+02  0.39525923223E+02  0.12700000000E+01 0. -1.
         -4   -1    0    0    0  501 -0.00000000000E+00 -0.00000000000E+00 -0.98815900390E+02  0.98824061189E+02  0.12700000000E+01 0. -1.
         25    2    1    2    0    0  0.00000000000E+00  0.00000000000E+00 -0.59310385501E+02  0.13834998441E+03  0.12499198518E+03 0.  0.
    9000005    1    3    3    0    0 -0.41260440755E+02 -0.32141046096E+02  0.81939361757E+01  0.52949139799E+02  0.10000000000E+01 0.  0.
    9000005    1    3    3    0    0  0.41260440755E+02  0.32141046096E+02 -0.67504321677E+02  0.85400844612E+02  0.10000000000E+01 0.  0.
<mgrwt>
<rscale>  0 0.12499199E+03</rscale>
<asrwt>0</asrwt>
<pdfrwt beam="1">  1        4 0.98799501E-02 0.12499199E+03</pdfrwt>
<pdfrwt beam="2">  1       -4 0.24707546E-01 0.12499199E+03</pdfrwt>
<totfact> 0.19128650E+03</totfact>
</mgrwt>
</event>
<event>
 5    1  0.1433395E-002  0.1250048E+03  0.7818608E-02  0.1235062E+00
          4   -1    0    0  501    0  0.00000000000E+00  0.00000000000E+00  0.17931769689E+02  0.17976686685E+02  0.12700000000E+01 0. -1.
         -4   -1    0    0    0  501 -0.00000000000E+00 -0.00000000000E+00 -0.21753716160E+03  0.21754086875E+03  0.12700000000E+01 0. -1.
         25    2    1    2    0    0  0.00000000000E+00  0.00000000000E+00 -0.19960539191E+03  0.23551755543E+03  0.12500482566E+03 0.  0.
    9000005    1    3    3    0    0 -0.41049875917E+02 -0.24352593333E+02 -0.17580820330E+03  0.18217482115E+03  0.10000000000E+01 0.  0.
    9000005    1    3    3    0    0  0.41049875917E+02  0.24352593333E+02 -0.23797188609E+02  0.53342734280E+02  0.10000000000E+01 0.  0.
<mgrwt>
<rscale>  0 0.12500483E+03</rscale>
<asrwt>0</asrwt>
<pdfrwt beam="1">  1        4 0.44890211E-02 0.12500483E+03</pdfrwt>
<pdfrwt beam="2">  1       -4 0.54390360E-01 0.12500483E+03</pdfrwt>
<totfact> 0.14990475E+03</totfact>
</mgrwt>
</event>
<event>
 5    1  0.1433395E-002  0.1249984E+03  0.7818608E-02  0.1235072E+00
          4   -1    0    0  501    0  0.00000000000E+00  0.00000000000E+00  0.37884509093E+03  0.37884721963E+03  0.12700000000E+01 0. -1.
         -4   -1    0    0    0  501 -0.00000000000E+00 -0.00000000000E+00 -0.10269402417E+02  0.10347633836E+02  0.12700000000E+01 0. -1.
         25    2    1    2    0    0  0.00000000000E+00  0.00000000000E+00  0.36857568851E+03  0.38919485347E+03  0.12499838320E+03 0.  0.
    9000005    1    3    3    0    0 -0.56715744776E+02 -0.59890648942E-01  0.26598465362E+03  0.27196601856E+03  0.10000000000E+01 0.  0.
    9000005    1    3    3    0    0  0.56715744776E+02  0.59890648942E-01  0.10259103489E+03  0.11722883490E+03  0.10000000000E+01 0.  0.
<mgrwt>
<rscale>  0 0.12499838E+03</rscale>
<asrwt>0</asrwt>
<pdfrwt beam="1">  1        4 0.94721322E-01 0.12499838E+03</pdfrwt>
<pdfrwt beam="2">  1       -4 0.25773955E-02 0.12499838E+03</pdfrwt>
<totfact> 0.10795602E+03</totfact>
</mgrwt>
</event>
<event>
 5    1  0.1433395E-002  0.1249950E+03  0.7818608E-02  0.1235077E+00
         -4   -1    0    0    0  501 -0.00000000000E+00  0.00000000000E+00  0.46068371360E+02  0.46085873538E+02  0.12700000000E+01 0.  1.
          4   -1    0    0  501    0  0.00000000000E+00 -0.00000000000E+00 -0.84747365344E+02  0.84756880739E+02  0.12700000000E+01 0.  1.
         25    2    1    2    0    0  0.00000000000E+00  0.00000000000E+00 -0.38678993983E+02  0.13084275428E+03  0.12499504699E+03 0.  0.
    9000005    1    3    3    0    0  0.23397498789E+01  0.56456366063E+02 -0.47274003930E+02  0.73679217871E+02  0.10000000000E+01 0.  0.
    9000005    1    3    3    0    0 -0.23397498789E+01 -0.56456366063E+02  0.85950099468E+01  0.57163536407E+02  0.10000000000E+01 0.  0.
<mgrwt>
<rscale>  0 0.12499505E+03</rscale>
<asrwt>0</asrwt>
<pdfrwt beam="2">  1        4 0.21190218E-01 0.12499505E+03</pdfrwt>
<pdfrwt beam="1">  1       -4 0.11520470E-01 0.12499505E+03</pdfrwt>
<totfact> 0.19521440E+03</totfact>
</mgrwt>
</event>
<event>
 5    1  0.1433395E-002  0.1249999E+03  0.7818608E-02  0.1235069E+00
          4   -1    0    0  501    0  0.00000000000E+00  0.00000000000E+00  0.76066937364E+02  0.76077538472E+02  0.12700000000E+01 0. -1.
         -4   -1    0    0    0  501 -0.00000000000E+00 -0.00000000000E+00 -0.51330718486E+02  0.51346426948E+02  0.12700000000E+01 0. -1.
         25    2    1    2    0    0  0.00000000000E+00  0.00000000000E+00  0.24736218878E+02  0.12742396542E+03  0.12499994576E+03 0.  0.
    9000005    1    3    3    0    0  0.34487893321E+02  0.47774752174E+02 -0.88539823947E+01  0.59592237206E+02  0.10000000000E+01 0.  0.
    9000005    1    3    3    0    0 -0.34487893321E+02 -0.47774752174E+02  0.33590201273E+02  0.67831728214E+02  0.10000000000E+01 0.  0.
<mgrwt>
<rscale>  0 0.12499995E+03</rscale>
<asrwt>0</asrwt>
<pdfrwt beam="1">  1        4 0.19020023E-01 0.12499995E+03</pdfrwt>
<pdfrwt beam="2">  1       -4 0.12835968E-01 0.12499995E+03</pdfrwt>
<totfact> 0.19703962E+03</totfact>
</mgrwt>
</event>
<event>
 5    1  0.1433395E-002  0.1249924E+03  0.7818608E-02  0.1235081E+00
         -4   -1    0    0    0  501 -0.00000000000E+00  0.00000000000E+00  0.11172187906E+02  0.11244139923E+02  0.12700000000E+01 0. -1.
          4   -1    0    0  501    0  0.00000000000E+00 -0.00000000000E+00 -0.34840273609E+03  0.34840505079E+03  0.12700000000E+01 0. -1.
         25    2    1    2    0    0  0.00000000000E+00  0.00000000000E+00 -0.33723054818E+03  0.35964919071E+03  0.12499239077E+03 0.  0.
    9000005    1    3    3    0    0  0.28122725594E+02 -0.54984051300E+02 -0.19600940244E+03  0.20551111755E+03  0.10000000000E+01 0.  0.
    9000005    1    3    3    0    0 -0.28122725594E+02  0.54984051300E+02 -0.14122114574E+03  0.15413807316E+03  0.10000000000E+01 0.  0.
<mgrwt>
<rscale>  0 0.12499239E+03</rscale>
<asrwt>0</asrwt>
<pdfrwt beam="2">  1        4 0.87109931E-01 0.12499239E+03</pdfrwt>
<pdfrwt beam="1">  1       -4 0.28023315E-02 0.12499239E+03</pdfrwt>
<totfact> 0.11452510E+03</totfact>
</mgrwt>
</event>
<event>
 5    1  0.1433395E-002  0.1249973E+03  0.7818608E-02  0.1235074E+00
          4   -1    0    0  501    0  0.00000000000E+00  0.00000000000E+00  0.11409393497E+03  0.11410100305E+03  0.12700000000E+01 0.  1.
         -4   -1    0    0    0  501 -0.00000000000E+00 -0.00000000000E+00 -0.34215742341E+02  0.34239303788E+02  0.12700000000E+01 0.  1.
         25    2    1    2    0    0  0.00000000000E+00  0.00000000000E+00  0.79878192632E+02  0.14834030684E+03  0.12499728387E+03 0.  0.
    9000005    1    3    3    0    0  0.36158459409E+02 -0.18571227156E+02 -0.16387775634E+02  0.43839295788E+02  0.10000000000E+01 0.  0.
    9000005    1    3    3    0    0 -0.36158459409E+02  0.18571227156E+02  0.96265968266E+02  0.10450101105E+03  0.10000000000E+01 0.  0.
<mgrwt>
<rscale>  0 0.12499728E+03</rscale>
<asrwt>0</asrwt>
<pdfrwt beam="1">  1        4 0.28527312E-01 0.12499728E+03</pdfrwt>
<pdfrwt beam="2">  1       -4 0.85577644E-02 0.12499728E+03</pdfrwt>
<totfact> 0.18621867E+03</totfact>
</mgrwt>
</event>
<event>
 5    1  0.1433395E-002  0.1249974E+03  0.7818608E-02  0.1235073E+00
         -4   -1    0    0    0  501 -0.00000000000E+00  0.00000000000E+00  0.18618014098E+02  0.18661279403E+02  0.12700000000E+01 0. -1.
          4   -1    0    0  501    0  0.00000000000E+00 -0.00000000000E+00 -0.20951285853E+03  0.20951670766E+03  0.12700000000E+01 0. -1.
         25    2    1    2    0    0  0.00000000000E+00  0.00000000000E+00 -0.19089484443E+03  0.22817798706E+03  0.12499740857E+03 0.  0.
    9000005    1    3    3    0    0 -0.24168047221E+02 -0.47266607335E+02 -0.15562847905E+03  0.16443676647E+03  0.10000000000E+01 0.  0.
    9000005    1    3    3    0    0  0.24168047221E+02  0.47266607335E+02 -0.35266365376E+02  0.63741220590E+02  0.10000000000E+01 0.  0.
<mgrwt>
<rscale>  0 0.12499741E+03</rscale>
<asrwt>0</asrwt>
<pdfrwt beam="2">  1        4 0.52384097E-01 0.12499741E+03</pdfrwt>
<pdfrwt beam="1">  1       -4 0.46603935E-02 0.12499741E+03</pdfrwt>
<totfact> 0.15253548E+03</totfact>
</mgrwt>
</event>
<event>
 5    1  0.1433395E-002  0.1250010E+03  0.7818608E-02  0.1235068E+00
          4   -1    0    0  501    0  0.00000000000E+00  0.00000000000E+00  0.27422987215E+02  0.27452379274E+02  0.12700000000E+01 0. -1.
         -4   -1    0    0    0  501 -0.00000000000E+00 -0.00000000000E+00 -0.14233811856E+03  0.14234378419E+03  0.12700000000E+01 0. -1.
         25    2    1    2    0    0  0.00000000000E+00  0.00000000000E+00 -0.11491513135E+03  0.16979616346E+03  0.12500099885E+03 0.  0.
    9000005    1    3    3    0    0  0.28226584591E+00  0.57004298027E+02 -0.92241695407E+02  0.10843938417E+03  0.10000000000E+01 0.  0.
    9000005    1    3    3    0    0 -0.28226584591E+00 -0.57004298027E+02 -0.22673435943E+02  0.61356779291E+02  0.10000000000E+01 0.  0.
<mgrwt>
<rscale>  0 0.12500100E+03</rscale>
<asrwt>0</asrwt>
<pdfrwt beam="1">  1        4 0.68601294E-02 0.12500100E+03</pdfrwt>
<pdfrwt beam="2">  1       -4 0.35588910E-01 0.12500100E+03</pdfrwt>
<totfact> 0.17605837E+03</totfact>
</mgrwt>
</event>
<event>
 5    1  0.1433395E-002  0.1249999E+03  0.7818608E-02  0.1235069E+00
          4   -1    0    0  501    0  0.00000000000E+00  0.00000000000E+00  0.83720830423E+02  0.83730462478E+02  0.12700000000E+01 0. -1.
         -4   -1    0    0    0  501 -0.00000000000E+00 -0.00000000000E+00 -0.46637019922E+02  0.46654308774E+02  0.12700000000E+01 0. -1.
         25    2    1    2    0    0  0.00000000000E+00  0.00000000000E+00  0.37083810501E+02  0.13038477125E+03  0.12499991829E+03 0.  0.
    9000005    1    3    3    0    0  0.53636959766E+02 -0.28274461107E+02  0.34322288349E+02  0.69680614818E+02  0.10000000000E+01 0.  0.
    9000005    1    3    3    0    0 -0.53636959766E+02  0.28274461107E+02  0.27615221523E+01  0.60704156435E+02  0.10000000000E+01 0.  0.
<mgrwt>
<rscale>  0 0.12499992E+03</rscale>
<asrwt>0</asrwt>
<pdfrwt beam="1">  1        4 0.20933573E-01 0.12499992E+03</pdfrwt>
<pdfrwt beam="2">  1       -4 0.11662620E-01 0.12499992E+03</pdfrwt>
<totfact> 0.19543757E+03</totfact>
</mgrwt>
</event>
<event>
 5    1  0.1433395E-002  0.1250005E+03  0.7818608E-02  0.1235068E+00
          4   -1    0    0  501    0  0.00000000000E+00  0.00000000000E+00  0.37646611461E+02  0.37668026953E+02  0.12700000000E+01 0.  1.
         -4   -1    0    0    0  501 -0.00000000000E+00 -0.00000000000E+00 -0.10370703164E+03  0.10371480758E+03  0.12700000000E+01 0.  1.
         25    2    1    2    0    0  0.00000000000E+00  0.00000000000E+00 -0.66060420181E+02  0.14138283454E+03  0.12500050715E+03 0.  0.
    9000005    1    3    3    0    0 -0.24560391437E+02  0.55378937721E+02 -0.15682487950E+02  0.62585781124E+02  0.10000000000E+01 0.  0.
    9000005    1    3    3    0    0  0.24560391437E+02 -0.55378937721E+02 -0.50377932231E+02  0.78797053412E+02  0.10000000000E+01 0.  0.
<mgrwt>
<rscale>  0 0.12500051E+03</rscale>
<asrwt>0</asrwt>
<pdfrwt beam="1">  1        4 0.94153020E-02 0.12500051E+03</pdfrwt>
<pdfrwt beam="2">  1       -4 0.25930406E-01 0.12500051E+03</pdfrwt>
<totfact> 0.18969597E+03</totfact>
</mgrwt>
</event>
<event>
 5    1  0.1433395E-002  0.1249968E+03  0.7818608E-02  0.1235074E+00
          4   -1    0    0  501    0  0.00000000000E+00  0.00000000000E+00  0.11321785577E+03  0.11322497854E+03  0.12700000000E+01 0.  1.
         -4   -1    0    0    0  501 -0.00000000000E+00 -0.00000000000E+00 -0.34480397996E+02  0.34503778720E+02  0.12700000000E+01 0.  1.
         25    2    1    2    0    0  0.00000000000E+00  0.00000000000E+00  0.78737457777E+02  0.14772875726E+03  0.12499679382E+03 0.  0.
    9000005    1    3    3    0    0  0.20727991209E+01  0.44546444244E+02  0.91106243372E+02  0.10143978397E+03  0.10000000000E+01 0.  0.
    9000005    1    3    3    0    0 -0.20727991209E+01 -0.44546444244E+02 -0.12368785595E+02  0.46288973288E+02  0.10000000000E+01 0.  0.
<mgrwt>
<rscale>  0 0.12499679E+03</rscale>
<asrwt>0</asrwt>
<pdfrwt beam="1">  1        4 0.28308276E-01 0.12499679E+03</pdfrwt>
<pdfrwt beam="2">  1       -4 0.86239126E-02 0.12499679E+03</pdfrwt>
<totfact> 0.18652417E+03</totfact>
</mgrwt>
</event>
<event>
 5    1  0.1433395E-002  0.1250063E+03  0.7818608E-02  0.1235059E+00
          4   -1    0    0  501    0  0.00000000000E+00  0.00000000000E+00  0.76479133615E+01  0.77526433417E+01  0.12700000000E+01 0. -1.
         -4   -1    0    0    0  501 -0.00000000000E+00 -0.00000000000E+00 -0.50723216358E+03  0.50723375348E+03  0.12700000000E+01 0. -1.
         25    2    1    2    0    0  0.00000000000E+00  0.00000000000E+00 -0.49958425022E+03  0.51498639682E+03  0.12500626323E+03 0.  0.
    9000005    1    3    3    0    0  0.18994786019E+02  0.30908382914E+02 -0.40152728719E+02  0.54123669996E+02  0.10000000000E+01 0.  0.
    9000005    1    3    3    0    0 -0.18994786019E+02 -0.30908382914E+02 -0.45943152150E+03  0.46086272682E+03  0.10000000000E+01 0.  0.
<mgrwt>
<rscale>  0 0.12500626E+03</rscale>
<asrwt>0</asrwt>
<pdfrwt beam="1">  1        4 0.19252700E-02 0.12500626E+03</pdfrwt>
<pdfrwt beam="2">  1       -4 0.12682122E+00 0.12500626E+03</pdfrwt>
<totfact> 0.85259405E+02</totfact>
</mgrwt>
</event>
<event>
 5    1  0.1433395E-002  0.1250016E+03  0.7818608E-02  0.1235067E+00
         -4   -1    0    0    0  501 -0.00000000000E+00  0.00000000000E+00  0.65082977301E+01  0.66310511492E+01  0.12700000000E+01 0.  1.
          4   -1    0    0  501    0  0.00000000000E+00 -0.00000000000E+00 -0.59447973693E+03  0.59448109350E+03  0.12700000000E+01 0.  1.
         25    2    1    2    0    0  0.00000000000E+00  0.00000000000E+00 -0.58797143920E+03  0.60111214464E+03  0.12500158848E+03 0.  0.
    9000005    1    3    3    0    0 -0.17682807080E+02 -0.34542664634E+02 -0.52954369217E+03  0.53096459323E+03  0.10000000000E+01 0.  0.
    9000005    1    3    3    0    0  0.17682807080E+02  0.34542664634E+02 -0.58427747033E+02  0.70147551415E+02  0.10000000000E+01 0.  0.
<mgrwt>
<rscale>  0 0.12500159E+03</rscale>
<asrwt>0</asrwt>
<pdfrwt beam="2">  1        4 0.14863527E+00 0.12500159E+03</pdfrwt>
<pdfrwt beam="1">  1       -4 0.16425902E-02 0.12500159E+03</pdfrwt>
<totfact> 0.73360589E+02</totfact>
</mgrwt>
</event>
<event>
 5    1  0.1433395E-002  0.1249979E+03  0.7818608E-02  0.1235073E+00
         -4   -1    0    0    0  501 -0.00000000000E+00  0.00000000000E+00  0.16260440892E+04  0.16260445851E+04  0.12700000000E+01 0.  1.
          4   -1    0    0  501    0  0.00000000000E+00 -0.00000000000E+00 -0.22338371602E+01  0.25696164030E+01  0.12700000000E+01 0.  1.
         25    2    1    2    0    0  0.00000000000E+00  0.00000000000E+00  0.16238102520E+04  0.16286142015E+04  0.12499793157E+03 0.  0.
    9000005    1    3    3    0    0 -0.35622457846E+02  0.49890018387E+02  0.96995404152E+03  0.97188981685E+03  0.10000000000E+01 0.  0.
    9000005    1    3    3    0    0  0.35622457846E+02 -0.49890018387E+02  0.65385621049E+03  0.65672438468E+03  0.10000000000E+01 0.  0.
<mgrwt>
<rscale>  0 0.12499793E+03</rscale>
<asrwt>0</asrwt>
<pdfrwt beam="2">  1        4 0.60049367E-03 0.12499793E+03</pdfrwt>
<pdfrwt beam="1">  1       -4 0.40655307E+00 0.12499793E+03</pdfrwt>
<totfact> 0.87513767E+01</totfact>
</mgrwt>
</event>
<event>
 5    1  0.1433395E-002  0.1250018E+03  0.7818608E-02  0.1235066E+00
          4   -1    0    0  501    0  0.00000000000E+00  0.00000000000E+00  0.44595902629E+02  0.44613982464E+02  0.12700000000E+01 0.  1.
         -4   -1    0    0    0  501 -0.00000000000E+00 -0.00000000000E+00 -0.87554198713E+02  0.87563409095E+02  0.12700000000E+01 0.  1.
         25    2    1    2    0    0  0.00000000000E+00  0.00000000000E+00 -0.42958296084E+02  0.13217739156E+03  0.12500179053E+03 0.  0.
    9000005    1    3    3    0    0 -0.36975317526E+02 -0.44082627802E+02 -0.47270046932E+02  0.74470863544E+02  0.10000000000E+01 0.  0.
    9000005    1    3    3    0    0  0.36975317526E+02  0.44082627802E+02  0.43117508475E+01  0.57706528015E+02  0.10000000000E+01 0.  0.
<mgrwt>
<rscale>  0 0.12500179E+03</rscale>
<asrwt>0</asrwt>
<pdfrwt beam="1">  1        4 0.11152387E-01 0.12500179E+03</pdfrwt>
<pdfrwt beam="2">  1       -4 0.21891961E-01 0.12500179E+03</pdfrwt>
<totfact> 0.19447213E+03</totfact>
</mgrwt>
</event>
<event>
 5    1  0.1433395E-002  0.1250029E+03  0.7818608E-02  0.1235065E+00
         -4   -1    0    0    0  501 -0.00000000000E+00  0.00000000000E+00  0.28430426691E+02  0.28458778291E+02  0.12700000000E+01 0. -1.
          4   -1    0    0  501    0  0.00000000000E+00 -0.00000000000E+00 -0.13730351882E+03  0.13730939218E+03  0.12700000000E+01 0. -1.
         25    2    1    2    0    0  0.00000000000E+00  0.00000000000E+00 -0.10887309213E+03  0.16576817047E+03  0.12500294457E+03 0.  0.
    9000005    1    3    3    0    0 -0.56621289548E+02  0.16239426327E+02 -0.26754580258E+02  0.64703144918E+02  0.10000000000E+01 0.  0.
    9000005    1    3    3    0    0  0.56621289548E+02 -0.16239426327E+02 -0.82118511870E+02  0.10106502555E+03  0.10000000000E+01 0.  0.
<mgrwt>
<rscale>  0 0.12500294E+03</rscale>
<asrwt>0</asrwt>
<pdfrwt beam="2">  1        4 0.34330156E-01 0.12500294E+03</pdfrwt>
<pdfrwt beam="1">  1       -4 0.71118852E-02 0.12500294E+03</pdfrwt>
<totfact> 0.17788410E+03</totfact>
</mgrwt>
</event>
<event>
 5    1  0.1433395E-002  0.1249994E+03  0.7818608E-02  0.1235070E+00
         -4   -1    0    0    0  501 -0.00000000000E+00  0.00000000000E+00  0.93659335940E+01  0.94516459989E+01  0.12700000000E+01 0.  1.
          4   -1    0    0  501    0  0.00000000000E+00 -0.00000000000E+00 -0.41507982652E+03  0.41508176940E+03  0.12700000000E+01 0.  1.
         25    2    1    2    0    0  0.00000000000E+00  0.00000000000E+00 -0.40571389293E+03  0.42453341539E+03  0.12499943149E+03 0.  0.
    9000005    1    3    3    0    0  0.61352715027E+02  0.92337262845E+01 -0.17748757216E+03  0.18802195514E+03  0.10000000000E+01 0.  0.
    9000005    1    3    3    0    0 -0.61352715027E+02 -0.92337262845E+01 -0.22822632077E+03  0.23651146026E+03  0.10000000000E+01 0.  0.
<mgrwt>
<rscale>  0 0.12499943E+03</rscale>
<asrwt>0</asrwt>
<pdfrwt beam="2">  1        4 0.10378085E+00 0.12499943E+03</pdfrwt>
<pdfrwt beam="1">  1       -4 0.23524417E-02 0.12499943E+03</pdfrwt>
<totfact> 0.10077591E+03</totfact>
</mgrwt>
</event>
<event>
 5    1  0.1433395E-002  0.1249990E+03  0.7818608E-02  0.1235071E+00
          4   -1    0    0  501    0  0.00000000000E+00  0.00000000000E+00  0.16379685625E+03  0.16380177966E+03  0.12700000000E+01 0.  1.
         -4   -1    0    0    0  501 -0.00000000000E+00 -0.00000000000E+00 -0.23825543678E+02  0.23859367795E+02  0.12700000000E+01 0.  1.
         25    2    1    2    0    0  0.00000000000E+00  0.00000000000E+00  0.13997131258E+03  0.18766114745E+03  0.12499895167E+03 0.  0.
    9000005    1    3    3    0    0 -0.16162781028E+02 -0.60259913795E+02  0.75334122277E+02  0.97819848090E+02  0.10000000000E+01 0.  0.
    9000005    1    3    3    0    0  0.16162781028E+02  0.60259913795E+02  0.64637190298E+02  0.89841299360E+02  0.10000000000E+01 0.  0.
<mgrwt>
<rscale>  0 0.12499895E+03</rscale>
<asrwt>0</asrwt>
<pdfrwt beam="1">  1        4 0.40954058E-01 0.12499895E+03</pdfrwt>
<pdfrwt beam="2">  1       -4 0.59612294E-02 0.12499895E+03</pdfrwt>
<totfact> 0.16828738E+03</totfact>
</mgrwt>
</event>
<event>
 5    1  0.1433395E-002  0.1250002E+03  0.7818608E-02  0.1235069E+00
         -4   -1    0    0    0  501 -0.00000000000E+00  0.00000000000E+00  0.46268235195E+03  0.46268409494E+03  0.12700000000E+01 0.  1.
          4   -1    0    0  501    0  0.00000000000E+00 -0.00000000000E+00 -0.83931165125E+01  0.84886574199E+01  0.12700000000E+01 0.  1.
         25    2    1    2    0    0  0.00000000000E+00  0.00000000000E+00  0.45428923544E+03  0.47117275236E+03  0.12500021251E+03 0.  0.
    9000005    1    3    3    0    0  0.19543418385E+02 -0.13638068855E+02  0.93894767439E+01  0.25634047628E+02  0.10000000000E+01 0.  0.
    9000005    1    3    3    0    0 -0.19543418385E+02  0.13638068855E+02  0.44489975870E+03  0.44553870473E+03  0.10000000000E+01 0.  0.
<mgrwt>
<rscale>  0 0.12500021E+03</rscale>
<asrwt>0</asrwt>
<pdfrwt beam="2">  1        4 0.21104397E-02 0.12500021E+03</pdfrwt>
<pdfrwt beam="1">  1       -4 0.11568274E+00 0.12500021E+03</pdfrwt>
<totfact> 0.92335597E+02</totfact>
</mgrwt>
</event>
<event>
 5    1  0.1433395E-002  0.1250096E+03  0.7818608E-02  0.1235054E+00
         -4   -1    0    0    0  501 -0.00000000000E+00  0.00000000000E+00  0.29127235771E+02  0.29154909769E+02  0.12700000000E+01 0. -1.
          4   -1    0    0  501    0  0.00000000000E+00 -0.00000000000E+00 -0.13403606430E+03  0.13404208082E+03  0.12700000000E+01 0. -1.
         25    2    1    2    0    0  0.00000000000E+00  0.00000000000E+00 -0.10490882852E+03  0.16319699059E+03  0.12500958138E+03 0.  0.
    9000005    1    3    3    0    0 -0.24130338732E+02  0.44184947390E+02 -0.41118475986E+01  0.50522174477E+02  0.10000000000E+01 0.  0.
    9000005    1    3    3    0    0  0.24130338732E+02 -0.44184947390E+02 -0.10079698093E+03  0.11267481612E+03  0.10000000000E+01 0.  0.
<mgrwt>
<rscale>  0 0.12500958E+03</rscale>
<asrwt>0</asrwt>
<pdfrwt beam="2">  1        4 0.33513226E-01 0.12500958E+03</pdfrwt>
<pdfrwt beam="1">  1       -4 0.72860206E-02 0.12500958E+03</pdfrwt>
<totfact> 0.17904343E+03</totfact>
</mgrwt>
</event>
<event>
 5    1  0.1433395E-002  0.1249998E+03  0.7818608E-02  0.1235070E+00
         -4   -1    0    0    0  501 -0.00000000000E+00  0.00000000000E+00  0.57025163404E+02  0.57039303653E+02  0.12700000000E+01 0.  1.
          4   -1    0    0  501    0  0.00000000000E+00 -0.00000000000E+00 -0.68471683605E+02  0.68483460454E+02  0.12700000000E+01 0.  1.
         25    2    1    2    0    0  0.00000000000E+00  0.00000000000E+00 -0.11446520201E+02  0.12552276411E+03  0.12499976594E+03 0.  0.
    9000005    1    3    3    0    0 -0.37844051814E+02  0.38294610755E+02  0.26136222298E+02  0.59856090639E+02  0.10000000000E+01 0.  0.
    9000005    1    3    3    0    0  0.37844051814E+02 -0.38294610755E+02 -0.37582742499E+02  0.65666673468E+02  0.10000000000E+01 0.  0.
<mgrwt>
<rscale>  0 0.12499977E+03</rscale>
<asrwt>0</asrwt>
<pdfrwt beam="2">  1        4 0.17121161E-01 0.12499977E+03</pdfrwt>
<pdfrwt beam="1">  1       -4 0.14259530E-01 0.12499977E+03</pdfrwt>
<totfact> 0.19806840E+03</totfact>
</mgrwt>
</event>
<event>
 5    1  0.1433395E-002  0.1249987E+03  0.7818608E-02  0.1235071E+00
          4   -1    0    0  501    0  0.00000000000E+00  0.00000000000E+00  0.28396020021E+02  0.28424405940E+02  0.12700000000E+01 0. -1.
         -4   -1    0    0    0  501 -0.00000000000E+00 -0.00000000000E+00 -0.13746041237E+03  0.13746627902E+03  0.12700000000E+01 0. -1.
         25    2    1    2    0    0  0.00000000000E+00  0.00000000000E+00 -0.10906439235E+03  0.16589068496E+03  0.12499871071E+03 0.  0.
    9000005    1    3    3    0    0 -0.52083202673E+02  0.27743680492E+02 -0.81820888806E+02  0.10088622132E+03  0.10000000000E+01 0.  0.
    9000005    1    3    3    0    0  0.52083202673E+02 -0.27743680492E+02 -0.27243503540E+02  0.65004463639E+02  0.10000000000E+01 0.  0.
<mgrwt>
<rscale>  0 0.12499871E+03</rscale>
<asrwt>0</asrwt>
<pdfrwt beam="1">  1        4 0.71032869E-02 0.12499871E+03</pdfrwt>
<pdfrwt beam="2">  1       -4 0.34369383E-01 0.12499871E+03</pdfrwt>
<totfact> 0.17784536E+03</totfact>
</mgrwt>
</event>
<event>
 5    1  0.1433395E-002  0.1250003E+03  0.7818608E-02  0.1235069E+00
          4   -1    0    0  501    0  0.00000000000E+00  0.00000000000E+00  0.67477564116E+02  0.67489514438E+02  0.12700000000E+01 0.  1.
         -4   -1    0    0    0  501 -0.00000000000E+00 -0.00000000000E+00 -0.57865808827E+02  0.57879743703E+02  0.12700000000E+01 0.  1.
         25    2    1    2    0    0  0.00000000000E+00  0.00000000000E+00  0.96117552893E+01  0.12536925814E+03  0.12500026019E+03 0.  0.
    9000005    1    3    3    0    0 -0.49522106776E+02 -0.23743194185E+02 -0.25099720742E+02  0.60391839772E+02  0.10000000000E+01 0.  0.
    9000005    1    3    3    0    0  0.49522106776E+02  0.23743194185E+02  0.34711476031E+02  0.64977418369E+02  0.10000000000E+01 0.  0.
<mgrwt>
<rscale>  0 0.12500026E+03</rscale>
<asrwt>0</asrwt>
<pdfrwt beam="1">  1        4 0.16872627E-01 0.12500026E+03</pdfrwt>
<pdfrwt beam="2">  1       -4 0.14469688E-01 0.12500026E+03</pdfrwt>
<totfact> 0.19814922E+03</totfact>
</mgrwt>
</event>
<event>
 5    1  0.1433395E-002  0.1250396E+03  0.7818608E-02  0.1235007E+00
          4   -1    0    0  501    0  0.00000000000E+00  0.00000000000E+00  0.43417760381E+02  0.43436330606E+02  0.12700000000E+01 0.  1.
         -4   -1    0    0    0  501 -0.00000000000E+00 -0.00000000000E+00 -0.89983709171E+02  0.89992670903E+02  0.12700000000E+01 0.  1.
         25    2    1    2    0    0  0.00000000000E+00  0.00000000000E+00 -0.46565948790E+02  0.13342900151E+03  0.12503963714E+03 0.  0.
    9000005    1    3    3    0    0  0.92372699326E+01 -0.54901537060E+02  0.70536886660E+01  0.56127181037E+02  0.10000000000E+01 0.  0.
    9000005    1    3    3    0    0 -0.92372699326E+01  0.54901537060E+02 -0.53619637456E+02  0.77301820472E+02  0.10000000000E+01 0.  0.
<mgrwt>
<rscale>  0 0.12503964E+03</rscale>
<asrwt>0</asrwt>
<pdfrwt beam="1">  1        4 0.10857882E-01 0.12503964E+03</pdfrwt>
<pdfrwt beam="2">  1       -4 0.22499368E-01 0.12503964E+03</pdfrwt>
<totfact> 0.19363827E+03</totfact>
</mgrwt>
</event>
<event>
 5    1  0.1433395E-002  0.1250014E+03  0.7818608E-02  0.1235067E+00
          4   -1    0    0  501    0  0.00000000000E+00  0.00000000000E+00  0.27951505216E+03  0.27951793732E+03  0.12700000000E+01 0.  1.
         -4   -1    0    0    0  501 -0.00000000000E+00 -0.00000000000E+00 -0.13943595659E+02  0.14001312793E+02  0.12700000000E+01 0.  1.
         25    2    1    2    0    0  0.00000000000E+00  0.00000000000E+00  0.26557145650E+03  0.29351925011E+03  0.12500140671E+03 0.  0.
    9000005    1    3    3    0    0  0.59410823051E+02  0.17841736744E+02  0.15057028811E+03  0.16285080634E+03  0.10000000000E+01 0.  0.
    9000005    1    3    3    0    0 -0.59410823051E+02 -0.17841736744E+02  0.11500116839E+03  0.13066844377E+03  0.10000000000E+01 0.  0.
<mgrwt>
<rscale>  0 0.12500141E+03</rscale>
<asrwt>0</asrwt>
<pdfrwt beam="1">  1        4 0.69886341E-01 0.12500141E+03</pdfrwt>
<pdfrwt beam="2">  1       -4 0.34934741E-02 0.12500141E+03</pdfrwt>
<totfact> 0.13154230E+03</totfact>
</mgrwt>
</event>
