<event>
 5    1  0.3261711E-002  0.1250034E+03  0.7818608E-02  0.1235064E+00
         -4   -1    0    0    0  501 -0.00000000000E+00  0.00000000000E+00  0.28449112772E+03  0.28449396241E+03  0.12700000000E+01 0.  1.
          4   -1    0    0  501    0  0.00000000000E+00 -0.00000000000E+00 -0.13699123147E+02  0.13757865932E+02  0.12700000000E+01 0.  1.
         25    2    1    2    0    0  0.00000000000E+00  0.00000000000E+00  0.27079200457E+03  0.29825182834E+03  0.12500337344E+03 0.  0.
    9000005    1    3    3    0    0 -0.39418469802E+01  0.48475199112E+02  0.41762190114E+02  0.64112897374E+02  0.10000000000E+01 0.  0.
    9000005    1    3    3    0    0  0.39418469802E+01 -0.48475199112E+02  0.22902981446E+03  0.23413893097E+03  0.10000000000E+01 0.  0.
<mgrwt>
<rscale>  0 0.12500337E+03</rscale>
<asrwt>0</asrwt>
<pdfrwt beam="2">  1        4 0.21122940E-02 0.12500337E+03</pdfrwt>
<pdfrwt beam="1">  1       -4 0.43772605E-01 0.12500337E+03</pdfrwt>
<totfact> 0.75812969E+03</totfact>
</mgrwt>
</event>
<event>
 5    1  0.3261711E-002  0.1249992E+03  0.7818608E-02  0.1235071E+00
         -4   -1    0    0    0  501 -0.00000000000E+00  0.00000000000E+00  0.40388089082E+02  0.40408051669E+02  0.12700000000E+01 0.  1.
          4   -1    0    0  501    0  0.00000000000E+00 -0.00000000000E+00 -0.96668605535E+02  0.96676947594E+02  0.12700000000E+01 0.  1.
         25    2    1    2    0    0  0.00000000000E+00  0.00000000000E+00 -0.56280516453E+02  0.13708499926E+03  0.12499920196E+03 0.  0.
    9000005    1    3    3    0    0 -0.24613358251E+02  0.56872482965E+02 -0.19305057583E+02  0.64915190605E+02  0.10000000000E+01 0.  0.
    9000005    1    3    3    0    0  0.24613358251E+02 -0.56872482965E+02 -0.36975458870E+02  0.72169808658E+02  0.10000000000E+01 0.  0.
<mgrwt>
<rscale>  0 0.12499920E+03</rscale>
<asrwt>0</asrwt>
<pdfrwt beam="2">  1        4 0.14874270E-01 0.12499920E+03</pdfrwt>
<pdfrwt beam="1">  1       -4 0.62157295E-02 0.12499920E+03</pdfrwt>
<totfact> 0.10194492E+04</totfact>
</mgrwt>
</event>
<event>
 5    1  0.3261711E-002  0.1249968E+03  0.7818608E-02  0.1235074E+00
          4   -1    0    0  501    0  0.00000000000E+00  0.00000000000E+00  0.24637445604E+03  0.24637772929E+03  0.12700000000E+01 0.  1.
         -4   -1    0    0    0  501 -0.00000000000E+00 -0.00000000000E+00 -0.15825297981E+02  0.15876175742E+02  0.12700000000E+01 0.  1.
         25    2    1    2    0    0  0.00000000000E+00  0.00000000000E+00  0.23054915806E+03  0.26225390503E+03  0.12499678564E+03 0.  0.
    9000005    1    3    3    0    0 -0.57904216428E+02  0.23302713637E+02  0.10893351355E+03  0.12555247954E+03  0.10000000000E+01 0.  0.
    9000005    1    3    3    0    0  0.57904216428E+02 -0.23302713637E+02  0.12161564451E+03  0.13670142550E+03  0.10000000000E+01 0.  0.
<mgrwt>
<rscale>  0 0.12499679E+03</rscale>
<asrwt>0</asrwt>
<pdfrwt beam="1">  1        4 0.37907929E-01 0.12499679E+03</pdfrwt>
<pdfrwt beam="2">  1       -4 0.24388266E-02 0.12499679E+03</pdfrwt>
<totfact> 0.80596558E+03</totfact>
</mgrwt>
</event>
<event>
 5    1  0.3261711E-002  0.1249946E+03  0.7818608E-02  0.1235078E+00
          4   -1    0    0  501    0  0.00000000000E+00  0.00000000000E+00  0.68229269318E+01  0.69401175723E+01  0.12700000000E+01 0.  1.
         -4   -1    0    0    0  501 -0.00000000000E+00 -0.00000000000E+00 -0.56747600849E+03  0.56747742960E+03  0.12700000000E+01 0.  1.
         25    2    1    2    0    0  0.00000000000E+00  0.00000000000E+00 -0.56065308156E+03  0.57441754718E+03  0.12499456246E+03 0.  0.
    9000005    1    3    3    0    0 -0.40592247120E+02  0.25021322079E+02 -0.94726267122E+02  0.10605594169E+03  0.10000000000E+01 0.  0.
    9000005    1    3    3    0    0  0.40592247120E+02 -0.25021322079E+02 -0.46592681444E+03  0.46836160549E+03  0.10000000000E+01 0.  0.
<mgrwt>
<rscale>  0 0.12499456E+03</rscale>
<asrwt>0</asrwt>
<pdfrwt beam="1">  1        4 0.10588055E-02 0.12499456E+03</pdfrwt>
<pdfrwt beam="2">  1       -4 0.87313088E-01 0.12499456E+03</pdfrwt>
<totfact> 0.50529362E+03</totfact>
</mgrwt>
</event>
<event>
 5    1  0.3261711E-002  0.1250323E+03  0.7818608E-02  0.1235019E+00
         -4   -1    0    0    0  501 -0.00000000000E+00  0.00000000000E+00  0.24612306102E+03  0.24612633761E+03  0.12700000000E+01 0. -1.
          4   -1    0    0  501    0  0.00000000000E+00 -0.00000000000E+00 -0.15850535392E+02  0.15901332403E+02  0.12700000000E+01 0. -1.
         25    2    1    2    0    0  0.00000000000E+00  0.00000000000E+00  0.23027252563E+03  0.26202767002E+03  0.12503225102E+03 0.  0.
    9000005    1    3    3    0    0  0.24158192437E+01  0.67313382760E+01 -0.15000593237E+02  0.16648270032E+02  0.10000000000E+01 0.  0.
    9000005    1    3    3    0    0 -0.24158192437E+01 -0.67313382760E+01  0.24527311887E+03  0.24537939998E+03  0.10000000000E+01 0.  0.
<mgrwt>
<rscale>  0 0.12503225E+03</rscale>
<asrwt>0</asrwt>
<pdfrwt beam="2">  1        4 0.24427036E-02 0.12503225E+03</pdfrwt>
<pdfrwt beam="1">  1       -4 0.37869243E-01 0.12503225E+03</pdfrwt>
<totfact> 0.80564504E+03</totfact>
</mgrwt>
</event>
<event>
 5    1  0.3261711E-002  0.1250134E+03  0.7818608E-02  0.1235048E+00
         -4   -1    0    0    0  501 -0.00000000000E+00  0.00000000000E+00  0.12881391610E+02  0.12943846021E+02  0.12700000000E+01 0.  1.
          4   -1    0    0  501    0  0.00000000000E+00 -0.00000000000E+00 -0.30251526879E+03  0.30251793459E+03  0.12700000000E+01 0.  1.
         25    2    1    2    0    0  0.00000000000E+00  0.00000000000E+00 -0.28963387718E+03  0.31546178061E+03  0.12501340815E+03 0.  0.
    9000005    1    3    3    0    0  0.61290946757E+02 -0.97328768773E+01 -0.12614036357E+03  0.14058342850E+03  0.10000000000E+01 0.  0.
    9000005    1    3    3    0    0 -0.61290946757E+02  0.97328768773E+01 -0.16349351361E+03  0.17487835211E+03  0.10000000000E+01 0.  0.
<mgrwt>
<rscale>  0 0.12501341E+03</rscale>
<asrwt>0</asrwt>
<pdfrwt beam="2">  1        4 0.46545815E-01 0.12501341E+03</pdfrwt>
<pdfrwt beam="1">  1       -4 0.19867620E-02 0.12501341E+03</pdfrwt>
<totfact> 0.73677252E+03</totfact>
</mgrwt>
</event>
<event>
 5    1  0.3261711E-002  0.1249982E+03  0.7818608E-02  0.1235072E+00
         -4   -1    0    0    0  501 -0.00000000000E+00  0.00000000000E+00  0.55121571876E+03  0.55121718179E+03  0.12700000000E+01 0.  1.
          4   -1    0    0  501    0  0.00000000000E+00 -0.00000000000E+00 -0.70280239776E+01  0.71418499725E+01  0.12700000000E+01 0.  1.
         25    2    1    2    0    0  0.00000000000E+00  0.00000000000E+00  0.54418769478E+03  0.55835903176E+03  0.12499824481E+03 0.  0.
    9000005    1    3    3    0    0  0.98260146863E+01  0.50910916219E+02  0.11628370109E+03  0.12732388265E+03  0.10000000000E+01 0.  0.
    9000005    1    3    3    0    0 -0.98260146863E+01 -0.50910916219E+02  0.42790399369E+03  0.43103514912E+03  0.10000000000E+01 0.  0.
<mgrwt>
<rscale>  0 0.12499824E+03</rscale>
<asrwt>0</asrwt>
<pdfrwt beam="2">  1        4 0.10901029E-02 0.12499824E+03</pdfrwt>
<pdfrwt beam="1">  1       -4 0.84811281E-01 0.12499824E+03</pdfrwt>
<totfact> 0.51608214E+03</totfact>
</mgrwt>
</event>
<event>
 5    1  0.3261711E-002  0.1249982E+03  0.7818608E-02  0.1235072E+00
          4   -1    0    0  501    0  0.00000000000E+00  0.00000000000E+00  0.37255098585E+01  0.39360289259E+01  0.12700000000E+01 0.  1.
         -4   -1    0    0    0  501 -0.00000000000E+00 -0.00000000000E+00 -0.10194634940E+04  0.10194642851E+04  0.12700000000E+01 0.  1.
         25    2    1    2    0    0  0.00000000000E+00  0.00000000000E+00 -0.10157379841E+04  0.10234003140E+04  0.12499820088E+03 0.  0.
    9000005    1    3    3    0    0  0.33918167434E+02 -0.51423537722E+02 -0.42187669604E+03  0.42635169634E+03  0.10000000000E+01 0.  0.
    9000005    1    3    3    0    0 -0.33918167434E+02  0.51423537722E+02 -0.59386128810E+03  0.59704861764E+03  0.10000000000E+01 0.  0.
<mgrwt>
<rscale>  0 0.12499820E+03</rscale>
<asrwt>0</asrwt>
<pdfrwt beam="1">  1        4 0.58941080E-03 0.12499820E+03</pdfrwt>
<pdfrwt beam="2">  1       -4 0.15685658E+00 0.12499820E+03</pdfrwt>
<totfact> 0.29841271E+03</totfact>
</mgrwt>
</event>
<event>
 5    1  0.3261711E-002  0.1249978E+03  0.7818608E-02  0.1235073E+00
         -4   -1    0    0    0  501 -0.00000000000E+00  0.00000000000E+00  0.53527226351E+01  0.55013216238E+01  0.12700000000E+01 0.  1.
          4   -1    0    0  501    0  0.00000000000E+00 -0.00000000000E+00 -0.71960277074E+03  0.71960389143E+03  0.12700000000E+01 0.  1.
         25    2    1    2    0    0  0.00000000000E+00  0.00000000000E+00 -0.71425004811E+03  0.72510521305E+03  0.12499775508E+03 0.  0.
    9000005    1    3    3    0    0  0.76040629537E+00  0.37786528877E+02 -0.68431948195E+02  0.78181401344E+02  0.10000000000E+01 0.  0.
    9000005    1    3    3    0    0 -0.76040629537E+00 -0.37786528877E+02 -0.64581809991E+03  0.64692381171E+03  0.10000000000E+01 0.  0.
<mgrwt>
<rscale>  0 0.12499776E+03</rscale>
<asrwt>0</asrwt>
<pdfrwt beam="2">  1        4 0.11071956E+00 0.12499776E+03</pdfrwt>
<pdfrwt beam="1">  1       -4 0.83501326E-03 0.12499776E+03</pdfrwt>
<totfact> 0.41796153E+03</totfact>
</mgrwt>
</event>
<event>
 5    1  0.3261711E-002  0.1249988E+03  0.7818608E-02  0.1235071E+00
          4   -1    0    0  501    0  0.00000000000E+00  0.00000000000E+00  0.49096478067E+01  0.50712465515E+01  0.12700000000E+01 0.  1.
         -4   -1    0    0    0  501 -0.00000000000E+00 -0.00000000000E+00 -0.78256843079E+03  0.78256946131E+03  0.12700000000E+01 0.  1.
         25    2    1    2    0    0  0.00000000000E+00  0.00000000000E+00 -0.77765878299E+03  0.78764070786E+03  0.12499880769E+03 0.  0.
    9000005    1    3    3    0    0 -0.51645216502E+02 -0.30258582653E+02 -0.50196424173E+03  0.50552142406E+03  0.10000000000E+01 0.  0.
    9000005    1    3    3    0    0  0.51645216502E+02  0.30258582653E+02 -0.27569454126E+03  0.28211928380E+03  0.10000000000E+01 0.  0.
<mgrwt>
<rscale>  0 0.12499881E+03</rscale>
<asrwt>0</asrwt>
<pdfrwt beam="1">  1        4 0.76784100E-03 0.12499881E+03</pdfrwt>
<pdfrwt beam="2">  1       -4 0.12040756E+00 0.12499881E+03</pdfrwt>
<totfact> 0.38823509E+03</totfact>
</mgrwt>
</event>
<event>
 5    1  0.3261711E-002  0.1250010E+03  0.7818608E-02  0.1235068E+00
         -4   -1    0    0    0  501 -0.00000000000E+00  0.00000000000E+00  0.65215508259E+02  0.65227873011E+02  0.12700000000E+01 0.  1.
          4   -1    0    0  501    0  0.00000000000E+00 -0.00000000000E+00 -0.59873734399E+02  0.59887202063E+02  0.12700000000E+01 0.  1.
         25    2    1    2    0    0  0.00000000000E+00  0.00000000000E+00  0.53417738602E+01  0.12511507507E+03  0.12500098985E+03 0.  0.
    9000005    1    3    3    0    0 -0.16309552371E+02 -0.51492948045E+02  0.34128645070E+02  0.63900622933E+02  0.10000000000E+01 0.  0.
    9000005    1    3    3    0    0  0.16309552371E+02  0.51492948045E+02 -0.28786871209E+02  0.61214452141E+02  0.10000000000E+01 0.  0.
<mgrwt>
<rscale>  0 0.12500099E+03</rscale>
<asrwt>0</asrwt>
<pdfrwt beam="2">  1        4 0.92133309E-02 0.12500099E+03</pdfrwt>
<pdfrwt beam="1">  1       -4 0.10035142E-01 0.12500099E+03</pdfrwt>
<totfact> 0.10450130E+04</totfact>
</mgrwt>
</event>
<event>
 5    1  0.3261711E-002  0.1249998E+03  0.7818608E-02  0.1235070E+00
          4   -1    0    0  501    0  0.00000000000E+00  0.00000000000E+00  0.47484311372E+02  0.47501291840E+02  0.12700000000E+01 0.  1.
         -4   -1    0    0    0  501 -0.00000000000E+00 -0.00000000000E+00 -0.82227148760E+02  0.82236955763E+02  0.12700000000E+01 0.  1.
         25    2    1    2    0    0  0.00000000000E+00  0.00000000000E+00 -0.34742837388E+02  0.12973824760E+03  0.12499979257E+03 0.  0.
    9000005    1    3    3    0    0 -0.51985047216E+02  0.30364025928E+02 -0.34764281663E+02  0.69526789687E+02  0.10000000000E+01 0.  0.
    9000005    1    3    3    0    0  0.51985047216E+02 -0.30364025928E+02  0.21444275065E-01  0.60211457917E+02  0.10000000000E+01 0.  0.
<mgrwt>
<rscale>  0 0.12499979E+03</rscale>
<asrwt>0</asrwt>
<pdfrwt beam="1">  1        4 0.73073392E-02 0.12499979E+03</pdfrwt>
<pdfrwt beam="2">  1       -4 0.12652391E-01 0.12499979E+03</pdfrwt>
<totfact> 0.10350159E+04</totfact>
</mgrwt>
</event>
<event>
 5    1  0.3261711E-002  0.1249963E+03  0.7818608E-02  0.1235075E+00
         -4   -1    0    0    0  501 -0.00000000000E+00  0.00000000000E+00  0.45744664023E+02  0.45762290006E+02  0.12700000000E+01 0. -1.
          4   -1    0    0  501    0  0.00000000000E+00 -0.00000000000E+00 -0.85348565124E+02  0.85358013500E+02  0.12700000000E+01 0. -1.
         25    2    1    2    0    0  0.00000000000E+00  0.00000000000E+00 -0.39603901101E+02  0.13112030351E+03  0.12499625998E+03 0.  0.
    9000005    1    3    3    0    0  0.39194851669E+02 -0.97223353636E+01  0.30223684043E+02  0.50450285226E+02  0.10000000000E+01 0.  0.
    9000005    1    3    3    0    0 -0.39194851669E+02  0.97223353636E+01 -0.69827585144E+02  0.80670018280E+02  0.10000000000E+01 0.  0.
<mgrwt>
<rscale>  0 0.12499626E+03</rscale>
<asrwt>0</asrwt>
<pdfrwt beam="2">  1        4 0.13132631E-01 0.12499626E+03</pdfrwt>
<pdfrwt beam="1">  1       -4 0.70397232E-02 0.12499626E+03</pdfrwt>
<totfact> 0.10321382E+04</totfact>
</mgrwt>
</event>
<event>
 5    1  0.3261711E-002  0.1249966E+03  0.7818608E-02  0.1235075E+00
          4   -1    0    0  501    0  0.00000000000E+00  0.00000000000E+00  0.42782612638E+02  0.42801458435E+02  0.12700000000E+01 0.  1.
         -4   -1    0    0    0  501 -0.00000000000E+00 -0.00000000000E+00 -0.91256300154E+02  0.91265136924E+02  0.12700000000E+01 0.  1.
         25    2    1    2    0    0  0.00000000000E+00  0.00000000000E+00 -0.48473687516E+02  0.13406659536E+03  0.12499661439E+03 0.  0.
    9000005    1    3    3    0    0  0.52749410760E+02 -0.32910933223E+02 -0.17503705833E+02  0.64598835740E+02  0.10000000000E+01 0.  0.
    9000005    1    3    3    0    0 -0.52749410760E+02  0.32910933223E+02 -0.30969981683E+02  0.69467759619E+02  0.10000000000E+01 0.  0.
<mgrwt>
<rscale>  0 0.12499661E+03</rscale>
<asrwt>0</asrwt>
<pdfrwt beam="1">  1        4 0.65840698E-02 0.12499661E+03</pdfrwt>
<pdfrwt beam="2">  1       -4 0.14041560E-01 0.12499661E+03</pdfrwt>
<totfact> 0.10258566E+04</totfact>
</mgrwt>
</event>
<event>
 5    1  0.3261711E-002  0.1249944E+03  0.7818608E-02  0.1235078E+00
         -4   -1    0    0    0  501 -0.00000000000E+00  0.00000000000E+00  0.80286387460E+03  0.80286487906E+03  0.12700000000E+01 0.  1.
          4   -1    0    0  501    0  0.00000000000E+00 -0.00000000000E+00 -0.47810491547E+01  0.49468506163E+01  0.12700000000E+01 0.  1.
         25    2    1    2    0    0  0.00000000000E+00  0.00000000000E+00  0.79808282544E+03  0.80781172968E+03  0.12499437724E+03 0.  0.
    9000005    1    3    3    0    0  0.56654310038E+02 -0.82019502085E+01  0.56098746544E+03  0.56390151553E+03  0.10000000000E+01 0.  0.
    9000005    1    3    3    0    0 -0.56654310038E+02  0.82019502085E+01  0.23709536000E+03  0.24391021415E+03  0.10000000000E+01 0.  0.
<mgrwt>
<rscale>  0 0.12499438E+03</rscale>
<asrwt>0</asrwt>
<pdfrwt beam="2">  1        4 0.74837753E-03 0.12499438E+03</pdfrwt>
<pdfrwt beam="1">  1       -4 0.12353030E+00 0.12499438E+03</pdfrwt>
<totfact> 0.37923030E+03</totfact>
</mgrwt>
</event>
<event>
 5    1  0.3261711E-002  0.1249998E+03  0.7818608E-02  0.1235070E+00
          4   -1    0    0  501    0  0.00000000000E+00  0.00000000000E+00  0.74480460573E+03  0.74480568850E+03  0.12700000000E+01 0.  1.
         -4   -1    0    0    0  501 -0.00000000000E+00 -0.00000000000E+00 -0.51666600095E+01  0.53204582184E+01  0.12700000000E+01 0.  1.
         25    2    1    2    0    0  0.00000000000E+00  0.00000000000E+00  0.73963794573E+03  0.75012614672E+03  0.12499978094E+03 0.  0.
    9000005    1    3    3    0    0  0.58938590147E+02 -0.15911147125E+01  0.49410634280E+03  0.49761266769E+03  0.10000000000E+01 0.  0.
    9000005    1    3    3    0    0 -0.58938590147E+02  0.15911147125E+01  0.24553160293E+03  0.25251347903E+03  0.10000000000E+01 0.  0.
<mgrwt>
<rscale>  0 0.12499978E+03</rscale>
<asrwt>0</asrwt>
<pdfrwt beam="1">  1        4 0.11459726E+00 0.12499978E+03</pdfrwt>
<pdfrwt beam="2">  1       -4 0.80678455E-03 0.12499978E+03</pdfrwt>
<totfact> 0.40568289E+03</totfact>
</mgrwt>
</event>
<event>
 5    1  0.3261711E-002  0.1250025E+03  0.7818608E-02  0.1235065E+00
         -4   -1    0    0    0  501 -0.00000000000E+00  0.00000000000E+00  0.15136940357E+03  0.15137473118E+03  0.12700000000E+01 0.  1.
          4   -1    0    0  501    0  0.00000000000E+00 -0.00000000000E+00 -0.25785676677E+02  0.25816932849E+02  0.12700000000E+01 0.  1.
         25    2    1    2    0    0  0.00000000000E+00  0.00000000000E+00  0.12558372690E+03  0.17719166402E+03  0.12500245333E+03 0.  0.
    9000005    1    3    3    0    0 -0.27048985488E+02 -0.22275758155E+02  0.13614070280E+03  0.14058146384E+03  0.10000000000E+01 0.  0.
    9000005    1    3    3    0    0  0.27048985488E+02  0.22275758155E+02 -0.10556975901E+02  0.36610200183E+02  0.10000000000E+01 0.  0.
<mgrwt>
<rscale>  0 0.12500245E+03</rscale>
<asrwt>0</asrwt>
<pdfrwt beam="2">  1        4 0.39698413E-02 0.12500245E+03</pdfrwt>
<pdfrwt beam="1">  1       -4 0.23290415E-01 0.12500245E+03</pdfrwt>
<totfact> 0.94119790E+03</totfact>
</mgrwt>
</event>
<event>
 5    1  0.3261711E-002  0.1249909E+03  0.7818608E-02  0.1235083E+00
          4   -1    0    0  501    0  0.00000000000E+00  0.00000000000E+00  0.51533800028E+02  0.51549446605E+02  0.12700000000E+01 0.  1.
         -4   -1    0    0    0  501 -0.00000000000E+00 -0.00000000000E+00 -0.75756287204E+02  0.75766931777E+02  0.12700000000E+01 0.  1.
         25    2    1    2    0    0  0.00000000000E+00  0.00000000000E+00 -0.24222487176E+02  0.12731637838E+03  0.12499092495E+03 0.  0.
    9000005    1    3    3    0    0  0.88376981720E+01 -0.38787314909E+02  0.36973702958E+02  0.54319567536E+02  0.10000000000E+01 0.  0.
    9000005    1    3    3    0    0 -0.88376981720E+01  0.38787314909E+02 -0.61196190134E+02  0.72996810846E+02  0.10000000000E+01 0.  0.
<mgrwt>
<rscale>  0 0.12499092E+03</rscale>
<asrwt>0</asrwt>
<pdfrwt beam="1">  1        4 0.79302993E-02 0.12499092E+03</pdfrwt>
<pdfrwt beam="2">  1       -4 0.11656836E-01 0.12499092E+03</pdfrwt>
<totfact> 0.10404411E+04</totfact>
</mgrwt>
</event>
<event>
 5    1  0.3261711E-002  0.1249996E+03  0.7818608E-02  0.1235070E+00
         -4   -1    0    0    0  501 -0.00000000000E+00  0.00000000000E+00  0.25458760277E+03  0.25459077042E+03  0.12700000000E+01 0. -1.
          4   -1    0    0  501    0  0.00000000000E+00 -0.00000000000E+00 -0.15313803286E+02  0.15366374689E+02  0.12700000000E+01 0. -1.
         25    2    1    2    0    0  0.00000000000E+00  0.00000000000E+00  0.23927379948E+03  0.26995714511E+03  0.12499963631E+03 0.  0.
    9000005    1    3    3    0    0  0.56443865260E+02  0.94315775258E+01  0.65414176302E+02  0.86918807179E+02  0.10000000000E+01 0.  0.
    9000005    1    3    3    0    0 -0.56443865260E+02 -0.94315775258E+01  0.17385962318E+03  0.18303833793E+03  0.10000000000E+01 0.  0.
<mgrwt>
<rscale>  0 0.12499964E+03</rscale>
<asrwt>0</asrwt>
<pdfrwt beam="2">  1        4 0.23602575E-02 0.12499964E+03</pdfrwt>
<pdfrwt beam="1">  1       -4 0.39171609E-01 0.12499964E+03</pdfrwt>
<totfact> 0.79529354E+03</totfact>
</mgrwt>
</event>
<event>
 5    1  0.3261711E-002  0.1249963E+03  0.7818608E-02  0.1235075E+00
         -4   -1    0    0    0  501 -0.00000000000E+00  0.00000000000E+00  0.34717256368E+02  0.34740477684E+02  0.12700000000E+01 0.  1.
          4   -1    0    0  501    0  0.00000000000E+00 -0.00000000000E+00 -0.11244505458E+03  0.11245222630E+03  0.12700000000E+01 0.  1.
         25    2    1    2    0    0  0.00000000000E+00  0.00000000000E+00 -0.77727798210E+02  0.14719270398E+03  0.12499632591E+03 0.  0.
    9000005    1    3    3    0    0  0.70825883749E+01 -0.61348783498E+02 -0.27619181816E+02  0.67658373458E+02  0.10000000000E+01 0.  0.
    9000005    1    3    3    0    0 -0.70825883749E+01  0.61348783498E+02 -0.50108616394E+02  0.79534330523E+02  0.10000000000E+01 0.  0.
<mgrwt>
<rscale>  0 0.12499633E+03</rscale>
<asrwt>0</asrwt>
<pdfrwt beam="2">  1        4 0.17301577E-01 0.12499633E+03</pdfrwt>
<pdfrwt beam="1">  1       -4 0.53434544E-02 0.12499633E+03</pdfrwt>
<totfact> 0.99874524E+03</totfact>
</mgrwt>
</event>
<event>
 5    1  0.3261711E-002  0.1249493E+03  0.7818608E-02  0.1235149E+00
          4   -1    0    0  501    0  0.00000000000E+00  0.00000000000E+00  0.31298493425E+03  0.31298751088E+03  0.12700000000E+01 0.  1.
         -4   -1    0    0    0  501 -0.00000000000E+00 -0.00000000000E+00 -0.12435544543E+02  0.12500226721E+02  0.12700000000E+01 0.  1.
         25    2    1    2    0    0  0.00000000000E+00  0.00000000000E+00  0.30054938970E+03  0.32548773760E+03  0.12494931643E+03 0.  0.
    9000005    1    3    3    0    0  0.49122674440E+02  0.38092999035E+02  0.16632622602E+03  0.17756555742E+03  0.10000000000E+01 0.  0.
    9000005    1    3    3    0    0 -0.49122674440E+02 -0.38092999035E+02  0.13422316369E+03  0.14792218018E+03  0.10000000000E+01 0.  0.
<mgrwt>
<rscale>  0 0.12494932E+03</rscale>
<asrwt>0</asrwt>
<pdfrwt beam="1">  1        4 0.48156700E-01 0.12494932E+03</pdfrwt>
<pdfrwt beam="2">  1       -4 0.19183345E-02 0.12494932E+03</pdfrwt>
<totfact> 0.72589649E+03</totfact>
</mgrwt>
</event>
<event>
 5    1  0.3261711E-002  0.1250089E+03  0.7818608E-02  0.1235055E+00
         -4   -1    0    0    0  501 -0.00000000000E+00  0.00000000000E+00  0.16289625995E+03  0.16290121058E+03  0.12700000000E+01 0. -1.
          4   -1    0    0  501    0  0.00000000000E+00 -0.00000000000E+00 -0.23961257263E+02  0.23994890073E+02  0.12700000000E+01 0. -1.
         25    2    1    2    0    0  0.00000000000E+00  0.00000000000E+00  0.13893500269E+03  0.18689610065E+03  0.12500886955E+03 0.  0.
    9000005    1    3    3    0    0  0.59537992694E+02  0.38862593049E+01  0.41660589456E+02  0.72776921473E+02  0.10000000000E+01 0.  0.
    9000005    1    3    3    0    0 -0.59537992694E+02 -0.38862593049E+01  0.97274413235E+02  0.11411917917E+03  0.10000000000E+01 0.  0.
<mgrwt>
<rscale>  0 0.12500887E+03</rscale>
<asrwt>0</asrwt>
<pdfrwt beam="2">  1        4 0.36893154E-02 0.12500887E+03</pdfrwt>
<pdfrwt beam="1">  1       -4 0.25063930E-01 0.12500887E+03</pdfrwt>
<totfact> 0.92371847E+03</totfact>
</mgrwt>
</event>
<event>
 5    1  0.3261711E-002  0.1250011E+03  0.7818608E-02  0.1235068E+00
         -4   -1    0    0    0  501 -0.00000000000E+00  0.00000000000E+00  0.13888240544E+02  0.13946186770E+02  0.12700000000E+01 0.  1.
          4   -1    0    0  501    0  0.00000000000E+00 -0.00000000000E+00 -0.28062308128E+03  0.28062595505E+03  0.12700000000E+01 0.  1.
         25    2    1    2    0    0  0.00000000000E+00  0.00000000000E+00 -0.26673484074E+03  0.29457214182E+03  0.12500108589E+03 0.  0.
    9000005    1    3    3    0    0  0.36768938004E+02 -0.37809829407E+02 -0.21236585947E+03  0.21881909484E+03  0.10000000000E+01 0.  0.
    9000005    1    3    3    0    0 -0.36768938004E+02  0.37809829407E+02 -0.54368981275E+02  0.75753046979E+02  0.10000000000E+01 0.  0.
<mgrwt>
<rscale>  0 0.12500109E+03</rscale>
<asrwt>0</asrwt>
<pdfrwt beam="2">  1        4 0.43177456E-01 0.12500109E+03</pdfrwt>
<pdfrwt beam="1">  1       -4 0.21413311E-02 0.12500109E+03</pdfrwt>
<totfact> 0.76282945E+03</totfact>
</mgrwt>
</event>
<event>
 5    1  0.3261711E-002  0.1250115E+03  0.7818608E-02  0.1235051E+00
         -4   -1    0    0    0  501 -0.00000000000E+00  0.00000000000E+00  0.14492267880E+02  0.14547808368E+02  0.12700000000E+01 0.  1.
          4   -1    0    0  501    0  0.00000000000E+00 -0.00000000000E+00 -0.26901730801E+03  0.26902030576E+03  0.12700000000E+01 0.  1.
         25    2    1    2    0    0  0.00000000000E+00  0.00000000000E+00 -0.25452504013E+03  0.28356811412E+03  0.12501151665E+03 0.  0.
    9000005    1    3    3    0    0 -0.18651082978E+02 -0.43972623884E+02 -0.21868842562E+03  0.22384611242E+03  0.10000000000E+01 0.  0.
    9000005    1    3    3    0    0  0.18651082978E+02  0.43972623884E+02 -0.35836614511E+02  0.59722001701E+02  0.10000000000E+01 0.  0.
<mgrwt>
<rscale>  0 0.12501152E+03</rscale>
<asrwt>0</asrwt>
<pdfrwt beam="2">  1        4 0.41391777E-01 0.12501152E+03</pdfrwt>
<pdfrwt beam="1">  1       -4 0.22340828E-02 0.12501152E+03</pdfrwt>
<totfact> 0.77687483E+03</totfact>
</mgrwt>
</event>
<event>
 5    1  0.3261711E-002  0.1250021E+03  0.7818608E-02  0.1235066E+00
          4   -1    0    0  501    0  0.00000000000E+00  0.00000000000E+00  0.63545830428E+03  0.63545957337E+03  0.12700000000E+01 0.  1.
         -4   -1    0    0    0  501 -0.00000000000E+00 -0.00000000000E+00 -0.60804598392E+01  0.62116738369E+01  0.12700000000E+01 0.  1.
         25    2    1    2    0    0  0.00000000000E+00  0.00000000000E+00  0.62937784444E+03  0.64167124720E+03  0.12500207362E+03 0.  0.
    9000005    1    3    3    0    0  0.50635489548E+02 -0.35490223813E+02  0.26824168170E+03  0.27527823850E+03  0.10000000000E+01 0.  0.
    9000005    1    3    3    0    0 -0.50635489548E+02  0.35490223813E+02  0.36113616274E+03  0.36639300871E+03  0.10000000000E+01 0.  0.
<mgrwt>
<rscale>  0 0.12500207E+03</rscale>
<asrwt>0</asrwt>
<pdfrwt beam="1">  1        4 0.97773007E-01 0.12500207E+03</pdfrwt>
<pdfrwt beam="2">  1       -4 0.94564637E-03 0.12500207E+03</pdfrwt>
<totfact> 0.46336416E+03</totfact>
</mgrwt>
</event>
<event>
 5    1  0.3261711E-002  0.1250071E+03  0.7818608E-02  0.1235058E+00
          4   -1    0    0  501    0  0.00000000000E+00  0.00000000000E+00  0.13958856165E+02  0.14016510459E+02  0.12700000000E+01 0.  1.
         -4   -1    0    0    0  501 -0.00000000000E+00 -0.00000000000E+00 -0.27923600355E+03  0.27923889160E+03  0.12700000000E+01 0.  1.
         25    2    1    2    0    0  0.00000000000E+00  0.00000000000E+00 -0.26527714739E+03  0.29325540206E+03  0.12500706344E+03 0.  0.
    9000005    1    3    3    0    0 -0.43185844509E+02 -0.51119030814E+01 -0.27345522090E+02  0.51380213093E+02  0.10000000000E+01 0.  0.
    9000005    1    3    3    0    0  0.43185844509E+02  0.51119030814E+01 -0.23793162530E+03  0.24187518896E+03  0.10000000000E+01 0.  0.
<mgrwt>
<rscale>  0 0.12500706E+03</rscale>
<asrwt>0</asrwt>
<pdfrwt beam="1">  1        4 0.21521736E-02 0.12500706E+03</pdfrwt>
<pdfrwt beam="2">  1       -4 0.42964038E-01 0.12500706E+03</pdfrwt>
<totfact> 0.76440742E+03</totfact>
</mgrwt>
</event>
<event>
 5    1  0.3261711E-002  0.1250008E+03  0.7818608E-02  0.1235068E+00
         -4   -1    0    0    0  501 -0.00000000000E+00  0.00000000000E+00  0.14525956053E+02  0.14581368223E+02  0.12700000000E+01 0. -1.
          4   -1    0    0  501    0  0.00000000000E+00 -0.00000000000E+00 -0.26834959605E+03  0.26835260126E+03  0.12700000000E+01 0. -1.
         25    2    1    2    0    0  0.00000000000E+00  0.00000000000E+00 -0.25382364000E+03  0.28293396948E+03  0.12500076345E+03 0.  0.
    9000005    1    3    3    0    0 -0.92244901792E+01  0.61213230208E+02 -0.14627026733E+03  0.15883369251E+03  0.10000000000E+01 0.  0.
    9000005    1    3    3    0    0  0.92244901792E+01 -0.61213230208E+02 -0.10755337266E+03  0.12410027697E+03  0.10000000000E+01 0.  0.
<mgrwt>
<rscale>  0 0.12500076E+03</rscale>
<asrwt>0</asrwt>
<pdfrwt beam="2">  1        4 0.41289043E-01 0.12500076E+03</pdfrwt>
<pdfrwt beam="1">  1       -4 0.22392563E-02 0.12500076E+03</pdfrwt>
<totfact> 0.77789365E+03</totfact>
</mgrwt>
</event>
<event>
 5    1  0.3261711E-002  0.1250014E+03  0.7818608E-02  0.1235067E+00
         -4   -1    0    0    0  501 -0.00000000000E+00  0.00000000000E+00  0.11629816031E+02  0.11698953839E+02  0.12700000000E+01 0. -1.
          4   -1    0    0  501    0  0.00000000000E+00 -0.00000000000E+00 -0.33482433529E+03  0.33482674386E+03  0.12700000000E+01 0. -1.
         25    2    1    2    0    0  0.00000000000E+00  0.00000000000E+00 -0.32319451926E+03  0.34652569770E+03  0.12500144753E+03 0.  0.
    9000005    1    3    3    0    0 -0.32111149257E+02  0.13424084921E+02 -0.30548370573E+03  0.30746158529E+03  0.10000000000E+01 0.  0.
    9000005    1    3    3    0    0  0.32111149257E+02 -0.13424084921E+02 -0.17710813536E+02  0.39064112414E+02  0.10000000000E+01 0.  0.
<mgrwt>
<rscale>  0 0.12500145E+03</rscale>
<asrwt>0</asrwt>
<pdfrwt beam="2">  1        4 0.51516932E-01 0.12500145E+03</pdfrwt>
<pdfrwt beam="1">  1       -4 0.17947063E-02 0.12500145E+03</pdfrwt>
<totfact> 0.70106227E+03</totfact>
</mgrwt>
</event>
<event>
 5    1  0.3261711E-002  0.1250021E+03  0.7818608E-02  0.1235066E+00
          4   -1    0    0  501    0  0.00000000000E+00  0.00000000000E+00  0.23012988720E+03  0.23013339150E+03  0.12700000000E+01 0.  1.
         -4   -1    0    0    0  501 -0.00000000000E+00 -0.00000000000E+00 -0.16947290836E+02  0.16994809993E+02  0.12700000000E+01 0.  1.
         25    2    1    2    0    0  0.00000000000E+00  0.00000000000E+00  0.21318259637E+03  0.24712820150E+03  0.12500211430E+03 0.  0.
    9000005    1    3    3    0    0  0.54348759670E+01 -0.21328900954E+02  0.22222290264E+03  0.22331251275E+03  0.10000000000E+01 0.  0.
    9000005    1    3    3    0    0 -0.54348759670E+01  0.21328900954E+02 -0.90403062764E+01  0.23815688742E+02  0.10000000000E+01 0.  0.
<mgrwt>
<rscale>  0 0.12500211E+03</rscale>
<asrwt>0</asrwt>
<pdfrwt beam="1">  1        4 0.35408521E-01 0.12500211E+03</pdfrwt>
<pdfrwt beam="2">  1       -4 0.26112005E-02 0.12500211E+03</pdfrwt>
<totfact> 0.82743174E+03</totfact>
</mgrwt>
</event>
<event>
 5    1  0.3261711E-002  0.1250016E+03  0.7818608E-02  0.1235067E+00
          4   -1    0    0  501    0  0.00000000000E+00  0.00000000000E+00  0.16632056765E+03  0.16632541635E+03  0.12700000000E+01 0. -1.
         -4   -1    0    0    0  501 -0.00000000000E+00 -0.00000000000E+00 -0.23464507952E+02  0.23498851747E+02  0.12700000000E+01 0. -1.
         25    2    1    2    0    0  0.00000000000E+00  0.00000000000E+00  0.14285605970E+03  0.18982426809E+03  0.12500159585E+03 0.  0.
    9000005    1    3    3    0    0  0.50130167940E+02 -0.74930480918E+01  0.12693749884E+03  0.13668689813E+03  0.10000000000E+01 0.  0.
    9000005    1    3    3    0    0 -0.50130167940E+02  0.74930480918E+01  0.15918560856E+02  0.53137369968E+02  0.10000000000E+01 0.  0.
<mgrwt>
<rscale>  0 0.12500160E+03</rscale>
<asrwt>0</asrwt>
<pdfrwt beam="1">  1        4 0.25590794E-01 0.12500160E+03</pdfrwt>
<pdfrwt beam="2">  1       -4 0.36129392E-02 0.12500160E+03</pdfrwt>
<totfact> 0.91874616E+03</totfact>
</mgrwt>
</event>
<event>
 5    1  0.3261711E-002  0.1250052E+03  0.7818608E-02  0.1235061E+00
          4   -1    0    0  501    0  0.00000000000E+00  0.00000000000E+00  0.45138803030E+01  0.46891380221E+01  0.12700000000E+01 0.  1.
         -4   -1    0    0    0  501 -0.00000000000E+00 -0.00000000000E+00 -0.84880144634E+03  0.84880239645E+03  0.12700000000E+01 0.  1.
         25    2    1    2    0    0  0.00000000000E+00  0.00000000000E+00 -0.84428756604E+03  0.85349153447E+03  0.12500522085E+03 0.  0.
    9000005    1    3    3    0    0 -0.16218724632E+02 -0.12005396318E+01 -0.83413376231E+03  0.83429288727E+03  0.10000000000E+01 0.  0.
    9000005    1    3    3    0    0  0.16218724632E+02  0.12005396318E+01 -0.10153803731E+02  0.19198647200E+02  0.10000000000E+01 0.  0.
<mgrwt>
<rscale>  0 0.12500522E+03</rscale>
<asrwt>0</asrwt>
<pdfrwt beam="1">  1        4 0.70799824E-03 0.12500522E+03</pdfrwt>
<pdfrwt beam="2">  1       -4 0.13059827E+00 0.12500522E+03</pdfrwt>
<totfact> 0.35980800E+03</totfact>
</mgrwt>
</event>
<event>
 5    1  0.3261711E-002  0.1250014E+03  0.7818608E-02  0.1235067E+00
          4   -1    0    0  501    0  0.00000000000E+00  0.00000000000E+00  0.52977805437E+01  0.54478783659E+01  0.12700000000E+01 0. -1.
         -4   -1    0    0    0  501 -0.00000000000E+00 -0.00000000000E+00 -0.72690364447E+03  0.72690475390E+03  0.12700000000E+01 0. -1.
         25    2    1    2    0    0  0.00000000000E+00  0.00000000000E+00 -0.72160586393E+03  0.73235263227E+03  0.12500142053E+03 0.  0.
    9000005    1    3    3    0    0  0.37988357936E+02 -0.35101014305E+02 -0.15531658852E+03  0.16370534265E+03  0.10000000000E+01 0.  0.
    9000005    1    3    3    0    0 -0.37988357936E+02  0.35101014305E+02 -0.56628927541E+03  0.56864728962E+03  0.10000000000E+01 0.  0.
<mgrwt>
<rscale>  0 0.12500142E+03</rscale>
<asrwt>0</asrwt>
<pdfrwt beam="1">  1        4 0.82667506E-03 0.12500142E+03</pdfrwt>
<pdfrwt beam="2">  1       -4 0.11184288E+00 0.12500142E+03</pdfrwt>
<totfact> 0.41431505E+03</totfact>
</mgrwt>
</event>
<event>
 5    1  0.3261711E-002  0.1250001E+03  0.7818608E-02  0.1235069E+00
         -4   -1    0    0    0  501 -0.00000000000E+00  0.00000000000E+00  0.17065961852E+02  0.17113151491E+02  0.12700000000E+01 0.  1.
          4   -1    0    0  501    0  0.00000000000E+00 -0.00000000000E+00 -0.22852654612E+03  0.22853007500E+03  0.12700000000E+01 0.  1.
         25    2    1    2    0    0  0.00000000000E+00  0.00000000000E+00 -0.21146058426E+03  0.24564322649E+03  0.12500006409E+03 0.  0.
    9000005    1    3    3    0    0  0.46464703705E+02  0.40056097729E+02 -0.12913073199E+03  0.14296574974E+03  0.10000000000E+01 0.  0.
    9000005    1    3    3    0    0 -0.46464703705E+02 -0.40056097729E+02 -0.82329852274E+02  0.10267747675E+03  0.10000000000E+01 0.  0.
<mgrwt>
<rscale>  0 0.12500006E+03</rscale>
<asrwt>0</asrwt>
<pdfrwt beam="2">  1        4 0.35161829E-01 0.12500006E+03</pdfrwt>
<pdfrwt beam="1">  1       -4 0.26294342E-02 0.12500006E+03</pdfrwt>
<totfact> 0.82963905E+03</totfact>
</mgrwt>
</event>
<event>
 5    1  0.3261711E-002  0.1249947E+03  0.7818608E-02  0.1235078E+00
          4   -1    0    0  501    0  0.00000000000E+00  0.00000000000E+00  0.66683468972E+02  0.66695561578E+02  0.12700000000E+01 0. -1.
         -4   -1    0    0    0  501 -0.00000000000E+00 -0.00000000000E+00 -0.58549727814E+02  0.58563499956E+02  0.12700000000E+01 0. -1.
         25    2    1    2    0    0  0.00000000000E+00  0.00000000000E+00  0.81337411585E+01  0.12525906153E+03  0.12499469889E+03 0.  0.
    9000005    1    3    3    0    0 -0.29000382990E+02 -0.55157575002E+02  0.87176336869E+01  0.62931529703E+02  0.10000000000E+01 0.  0.
    9000005    1    3    3    0    0  0.29000382990E+02  0.55157575002E+02 -0.58389252840E+00  0.62327531831E+02  0.10000000000E+01 0.  0.
<mgrwt>
<rscale>  0 0.12499470E+03</rscale>
<asrwt>0</asrwt>
<pdfrwt beam="1">  1        4 0.10260985E-01 0.12499470E+03</pdfrwt>
<pdfrwt beam="2">  1       -4 0.90096401E-02 0.12499470E+03</pdfrwt>
<totfact> 0.10448490E+04</totfact>
</mgrwt>
</event>
<event>
 5    1  0.3261711E-002  0.1249781E+03  0.7818608E-02  0.1235104E+00
         -4   -1    0    0    0  501 -0.00000000000E+00  0.00000000000E+00  0.83613919057E+02  0.83623563426E+02  0.12700000000E+01 0.  1.
          4   -1    0    0  501    0  0.00000000000E+00 -0.00000000000E+00 -0.46680359102E+02  0.46697631908E+02  0.12700000000E+01 0.  1.
         25    2    1    2    0    0  0.00000000000E+00  0.00000000000E+00  0.36933559955E+02  0.13032119533E+03  0.12497810249E+03 0.  0.
    9000005    1    3    3    0    0 -0.29851401524E+02  0.54584307385E+02  0.12446861977E+02  0.63454528276E+02  0.10000000000E+01 0.  0.
    9000005    1    3    3    0    0  0.29851401524E+02 -0.54584307385E+02  0.24486697978E+02  0.66866667058E+02  0.10000000000E+01 0.  0.
<mgrwt>
<rscale>  0 0.12497810E+03</rscale>
<asrwt>0</asrwt>
<pdfrwt beam="2">  1        4 0.71836643E-02 0.12497810E+03</pdfrwt>
<pdfrwt beam="1">  1       -4 0.12865750E-01 0.12497810E+03</pdfrwt>
<totfact> 0.10342753E+04</totfact>
</mgrwt>
</event>
<event>
 5    1  0.3261711E-002  0.1250052E+03  0.7818608E-02  0.1235061E+00
         -4   -1    0    0    0  501 -0.00000000000E+00  0.00000000000E+00  0.55869178839E+03  0.55869323185E+03  0.12700000000E+01 0.  1.
          4   -1    0    0  501    0  0.00000000000E+00 -0.00000000000E+00 -0.69332288546E+01  0.70485858404E+01  0.12700000000E+01 0.  1.
         25    2    1    2    0    0  0.00000000000E+00  0.00000000000E+00  0.55175855953E+03  0.56574181769E+03  0.12500518494E+03 0.  0.
    9000005    1    3    3    0    0  0.56554298734E+01  0.40054916712E+02  0.49146800826E+03  0.49313100022E+03  0.10000000000E+01 0.  0.
    9000005    1    3    3    0    0 -0.56554298734E+01 -0.40054916712E+02  0.60290551275E+02  0.72610817464E+02  0.10000000000E+01 0.  0.
<mgrwt>
<rscale>  0 0.12500518E+03</rscale>
<asrwt>0</asrwt>
<pdfrwt beam="2">  1        4 0.10756351E-02 0.12500518E+03</pdfrwt>
<pdfrwt beam="1">  1       -4 0.85961580E-01 0.12500518E+03</pdfrwt>
<totfact> 0.51098221E+03</totfact>
</mgrwt>
</event>
<event>
 5    1  0.3261711E-002  0.1249990E+03  0.7818608E-02  0.1235071E+00
         -4   -1    0    0    0  501 -0.00000000000E+00  0.00000000000E+00  0.11384949384E+03  0.11385657709E+03  0.12700000000E+01 0.  1.
          4   -1    0    0  501    0  0.00000000000E+00 -0.00000000000E+00 -0.34290194703E+02  0.34313705028E+02  0.12700000000E+01 0.  1.
         25    2    1    2    0    0  0.00000000000E+00  0.00000000000E+00  0.79559299136E+02  0.14817028212E+03  0.12499900170E+03 0.  0.
    9000005    1    3    3    0    0 -0.37054550413E+01 -0.44475676424E+02 -0.12071000315E+02  0.46244191409E+02  0.10000000000E+01 0.  0.
    9000005    1    3    3    0    0  0.37054550413E+01  0.44475676424E+02  0.91630299452E+02  0.10192609071E+03  0.10000000000E+01 0.  0.
<mgrwt>
<rscale>  0 0.12499900E+03</rscale>
<asrwt>0</asrwt>
<pdfrwt beam="2">  1        4 0.52777679E-02 0.12499900E+03</pdfrwt>
<pdfrwt beam="1">  1       -4 0.17517660E-01 0.12499900E+03</pdfrwt>
<totfact> 0.99671922E+03</totfact>
</mgrwt>
</event>
<event>
 5    1  0.3261711E-002  0.1250025E+03  0.7818608E-02  0.1235065E+00
         -4   -1    0    0    0  501 -0.00000000000E+00  0.00000000000E+00  0.32945391631E+02  0.32969860929E+02  0.12700000000E+01 0.  1.
          4   -1    0    0  501    0  0.00000000000E+00 -0.00000000000E+00 -0.11850025791E+03  0.11850706319E+03  0.12700000000E+01 0.  1.
         25    2    1    2    0    0  0.00000000000E+00  0.00000000000E+00 -0.85554866282E+02  0.15147692412E+03  0.12500249356E+03 0.  0.
    9000005    1    3    3    0    0 -0.22754187385E+02 -0.20286576555E+02  0.23330277433E+02  0.38400521832E+02  0.10000000000E+01 0.  0.
    9000005    1    3    3    0    0  0.22754187385E+02  0.20286576555E+02 -0.10888514372E+03  0.11307640229E+03  0.10000000000E+01 0.  0.
<mgrwt>
<rscale>  0 0.12500249E+03</rscale>
<asrwt>0</asrwt>
<pdfrwt beam="2">  1        4 0.18233214E-01 0.12500249E+03</pdfrwt>
<pdfrwt beam="1">  1       -4 0.50709276E-02 0.12500249E+03</pdfrwt>
<totfact> 0.99004551E+03</totfact>
</mgrwt>
</event>
<event>
 5    1  0.3261711E-002  0.1249995E+03  0.7818608E-02  0.1235070E+00
          4   -1    0    0  501    0  0.00000000000E+00  0.00000000000E+00  0.65278977343E+02  0.65291330075E+02  0.12700000000E+01 0.  1.
         -4   -1    0    0    0  501 -0.00000000000E+00 -0.00000000000E+00 -0.59814115419E+02  0.59827596503E+02  0.12700000000E+01 0.  1.
         25    2    1    2    0    0  0.00000000000E+00  0.00000000000E+00  0.54648619245E+01  0.12511892658E+03  0.12499952429E+03 0.  0.
    9000005    1    3    3    0    0 -0.36045402132E+02 -0.29984051510E+02 -0.38621751580E+02  0.60753222589E+02  0.10000000000E+01 0.  0.
    9000005    1    3    3    0    0  0.36045402132E+02  0.29984051510E+02  0.44086613504E+02  0.64365703990E+02  0.10000000000E+01 0.  0.
<mgrwt>
<rscale>  0 0.12499952E+03</rscale>
<asrwt>0</asrwt>
<pdfrwt beam="1">  1        4 0.10044907E-01 0.12499952E+03</pdfrwt>
<pdfrwt beam="2">  1       -4 0.92041589E-02 0.12499952E+03</pdfrwt>
<totfact> 0.10450392E+04</totfact>
</mgrwt>
</event>
<event>
 5    1  0.3261711E-002  0.1249946E+03  0.7818608E-02  0.1235078E+00
         -4   -1    0    0    0  501 -0.00000000000E+00  0.00000000000E+00  0.10855634767E+03  0.10856377627E+03  0.12700000000E+01 0.  1.
          4   -1    0    0  501    0  0.00000000000E+00 -0.00000000000E+00 -0.35960630660E+02  0.35983049586E+02  0.12700000000E+01 0.  1.
         25    2    1    2    0    0  0.00000000000E+00  0.00000000000E+00  0.72595717008E+02  0.14454682586E+03  0.12499458684E+03 0.  0.
    9000005    1    3    3    0    0 -0.41197991720E+02  0.46888956936E+02  0.32816486146E+02  0.70524964142E+02  0.10000000000E+01 0.  0.
    9000005    1    3    3    0    0  0.41197991720E+02 -0.46888956936E+02  0.39779230862E+02  0.74021861718E+02  0.10000000000E+01 0.  0.
<mgrwt>
<rscale>  0 0.12499459E+03</rscale>
<asrwt>0</asrwt>
<pdfrwt beam="2">  1        4 0.55347008E-02 0.12499459E+03</pdfrwt>
<pdfrwt beam="1">  1       -4 0.16703272E-01 0.12499459E+03</pdfrwt>
<totfact> 0.10041428E+04</totfact>
</mgrwt>
</event>
<event>
 5    1  0.3261711E-002  0.1249537E+03  0.7818608E-02  0.1235142E+00
         -4   -1    0    0    0  501 -0.00000000000E+00  0.00000000000E+00  0.25051819102E+03  0.25052141013E+03  0.12700000000E+01 0. -1.
          4   -1    0    0  501    0  0.00000000000E+00 -0.00000000000E+00 -0.15551923894E+02  0.15603693050E+02  0.12700000000E+01 0. -1.
         25    2    1    2    0    0  0.00000000000E+00  0.00000000000E+00  0.23496626713E+03  0.26612510318E+03  0.12495368684E+03 0.  0.
    9000005    1    3    3    0    0  0.14154486163E+01 -0.31393242246E+02  0.23246845425E+03  0.23458499819E+03  0.10000000000E+01 0.  0.
    9000005    1    3    3    0    0 -0.14154486163E+01  0.31393242246E+02  0.24978128754E+01  0.31540104989E+02  0.10000000000E+01 0.  0.
<mgrwt>
<rscale>  0 0.12495369E+03</rscale>
<asrwt>0</asrwt>
<pdfrwt beam="2">  1        4 0.23968338E-02 0.12495369E+03</pdfrwt>
<pdfrwt beam="1">  1       -4 0.38545485E-01 0.12495369E+03</pdfrwt>
<totfact> 0.80136653E+03</totfact>
</mgrwt>
</event>
<event>
 5    1  0.3261711E-002  0.1249890E+03  0.7818608E-02  0.1235087E+00
         -4   -1    0    0    0  501 -0.00000000000E+00  0.00000000000E+00  0.45626810511E+01  0.47361332724E+01  0.12700000000E+01 0. -1.
          4   -1    0    0  501    0  0.00000000000E+00 -0.00000000000E+00 -0.83983875723E+03  0.83983971748E+03  0.12700000000E+01 0. -1.
         25    2    1    2    0    0  0.00000000000E+00  0.00000000000E+00 -0.83527607618E+03  0.84457585075E+03  0.12498897642E+03 0.  0.
    9000005    1    3    3    0    0  0.22784160402E+02  0.57799166575E+02 -0.46281509784E+03  0.46696753250E+03  0.10000000000E+01 0.  0.
    9000005    1    3    3    0    0 -0.22784160402E+02 -0.57799166575E+02 -0.37246097834E+03  0.37760831825E+03  0.10000000000E+01 0.  0.
<mgrwt>
<rscale>  0 0.12498898E+03</rscale>
<asrwt>0</asrwt>
<pdfrwt beam="2">  1        4 0.12921926E+00 0.12498898E+03</pdfrwt>
<pdfrwt beam="1">  1       -4 0.71536794E-03 0.12498898E+03</pdfrwt>
<totfact> 0.36359102E+03</totfact>
</mgrwt>
</event>
<event>
 5    1  0.3261711E-002  0.1250001E+03  0.7818608E-02  0.1235069E+00
          4   -1    0    0  501    0  0.00000000000E+00  0.00000000000E+00  0.15293803081E+03  0.15294330377E+03  0.12700000000E+01 0.  1.
         -4   -1    0    0    0  501 -0.00000000000E+00 -0.00000000000E+00 -0.25519936067E+02  0.25551517310E+02  0.12700000000E+01 0.  1.
         25    2    1    2    0    0  0.00000000000E+00  0.00000000000E+00  0.12741809475E+03  0.17849482108E+03  0.12500012114E+03 0.  0.
    9000005    1    3    3    0    0  0.34296464052E+02  0.71692912845E+00  0.13829840339E+03  0.14249284128E+03  0.10000000000E+01 0.  0.
    9000005    1    3    3    0    0 -0.34296464052E+02 -0.71692912845E+00 -0.10880308646E+02  0.36001979808E+02  0.10000000000E+01 0.  0.
<mgrwt>
<rscale>  0 0.12500012E+03</rscale>
<asrwt>0</asrwt>
<pdfrwt beam="1">  1        4 0.23531763E-01 0.12500012E+03</pdfrwt>
<pdfrwt beam="2">  1       -4 0.39289789E-02 0.12500012E+03</pdfrwt>
<totfact> 0.93888388E+03</totfact>
</mgrwt>
</event>
<event>
 5    1  0.3261711E-002  0.1249936E+03  0.7818608E-02  0.1235079E+00
         -4   -1    0    0    0  501 -0.00000000000E+00  0.00000000000E+00  0.37106603476E+02  0.37128330443E+02  0.12700000000E+01 0.  1.
          4   -1    0    0  501    0  0.00000000000E+00 -0.00000000000E+00 -0.10520389589E+03  0.10521156120E+03  0.12700000000E+01 0.  1.
         25    2    1    2    0    0  0.00000000000E+00  0.00000000000E+00 -0.68097292413E+02  0.14233989164E+03  0.12499361391E+03 0.  0.
    9000005    1    3    3    0    0  0.45044288954E+01  0.50071410504E+02 -0.76312703503E+02  0.91389631498E+02  0.10000000000E+01 0.  0.
    9000005    1    3    3    0    0 -0.45044288954E+01 -0.50071410504E+02  0.82154110893E+01  0.50950260145E+02  0.10000000000E+01 0.  0.
<mgrwt>
<rscale>  0 0.12499361E+03</rscale>
<asrwt>0</asrwt>
<pdfrwt beam="2">  1        4 0.16187476E-01 0.12499361E+03</pdfrwt>
<pdfrwt beam="1">  1       -4 0.57109692E-02 0.12499361E+03</pdfrwt>
<totfact> 0.10086769E+04</totfact>
</mgrwt>
</event>
<event>
 5    1  0.3261711E-002  0.1249997E+03  0.7818608E-02  0.1235070E+00
          4   -1    0    0  501    0  0.00000000000E+00  0.00000000000E+00  0.53012148483E+02  0.53027358852E+02  0.12700000000E+01 0.  1.
         -4   -1    0    0    0  501 -0.00000000000E+00 -0.00000000000E+00 -0.73654381530E+02  0.73665329827E+02  0.12700000000E+01 0.  1.
         25    2    1    2    0    0  0.00000000000E+00  0.00000000000E+00 -0.20642233047E+02  0.12669268868E+03  0.12499974232E+03 0.  0.
    9000005    1    3    3    0    0  0.51006805744E+02 -0.19224114592E+02 -0.41295995248E+02  0.68393128585E+02  0.10000000000E+01 0.  0.
    9000005    1    3    3    0    0 -0.51006805744E+02  0.19224114592E+02  0.20653762201E+02  0.58299560094E+02  0.10000000000E+01 0.  0.
<mgrwt>
<rscale>  0 0.12499974E+03</rscale>
<asrwt>0</asrwt>
<pdfrwt beam="1">  1        4 0.81577274E-02 0.12499974E+03</pdfrwt>
<pdfrwt beam="2">  1       -4 0.11333455E-01 0.12499974E+03</pdfrwt>
<totfact> 0.10415890E+04</totfact>
</mgrwt>
</event>
<event>
 5    1  0.3261711E-002  0.1250284E+03  0.7818608E-02  0.1235025E+00
          4   -1    0    0  501    0  0.00000000000E+00  0.00000000000E+00  0.68104470471E+02  0.68116310808E+02  0.12700000000E+01 0. -1.
         -4   -1    0    0    0  501 -0.00000000000E+00 -0.00000000000E+00 -0.57358915564E+02  0.57372973556E+02  0.12700000000E+01 0. -1.
         25    2    1    2    0    0  0.00000000000E+00  0.00000000000E+00  0.10745554907E+02  0.12548928436E+03  0.12502837094E+03 0.  0.
    9000005    1    3    3    0    0 -0.49329208304E+02  0.37281710074E+02 -0.38111833970E+01  0.61958226385E+02  0.10000000000E+01 0.  0.
    9000005    1    3    3    0    0  0.49329208304E+02 -0.37281710074E+02  0.14556738304E+02  0.63531057979E+02  0.10000000000E+01 0.  0.
<mgrwt>
<rscale>  0 0.12502837E+03</rscale>
<asrwt>0</asrwt>
<pdfrwt beam="1">  1        4 0.10479603E-01 0.12502837E+03</pdfrwt>
<pdfrwt beam="2">  1       -4 0.88264408E-02 0.12502837E+03</pdfrwt>
<totfact> 0.10435512E+04</totfact>
</mgrwt>
</event>
<event>
 5    1  0.3261711E-002  0.1249987E+03  0.7818608E-02  0.1235071E+00
          4   -1    0    0  501    0  0.00000000000E+00  0.00000000000E+00  0.34632419419E+01  0.36887592424E+01  0.12700000000E+01 0.  1.
         -4   -1    0    0    0  501 -0.00000000000E+00 -0.00000000000E+00 -0.10921028316E+04  0.10921035701E+04  0.12700000000E+01 0.  1.
         25    2    1    2    0    0  0.00000000000E+00  0.00000000000E+00 -0.10886395897E+04  0.10957923293E+04  0.12499869095E+03 0.  0.
    9000005    1    3    3    0    0  0.30688002366E+02 -0.41714130711E+02 -0.23770193834E+03  0.24327974367E+03  0.10000000000E+01 0.  0.
    9000005    1    3    3    0    0 -0.30688002366E+02  0.41714130711E+02 -0.85093765136E+03  0.85251258565E+03  0.10000000000E+01 0.  0.
<mgrwt>
<rscale>  0 0.12499869E+03</rscale>
<asrwt>0</asrwt>
<pdfrwt beam="1">  1        4 0.55021161E-03 0.12499869E+03</pdfrwt>
<pdfrwt beam="2">  1       -4 0.16803296E+00 0.12499869E+03</pdfrwt>
<totfact> 0.27607698E+03</totfact>
</mgrwt>
</event>
<event>
 5    1  0.3261711E-002  0.1250042E+03  0.7818608E-02  0.1235063E+00
          4   -1    0    0  501    0  0.00000000000E+00  0.00000000000E+00  0.22279221046E+02  0.22315389094E+02  0.12700000000E+01 0.  1.
         -4   -1    0    0    0  501 -0.00000000000E+00 -0.00000000000E+00 -0.17516253922E+03  0.17516714317E+03  0.12700000000E+01 0.  1.
         25    2    1    2    0    0  0.00000000000E+00  0.00000000000E+00 -0.15288331817E+03  0.19748253226E+03  0.12500416622E+03 0.  0.
    9000005    1    3    3    0    0 -0.17278273083E+02 -0.39009653422E+02 -0.43010182197E+01  0.42892779562E+02  0.10000000000E+01 0.  0.
    9000005    1    3    3    0    0  0.17278273083E+02  0.39009653422E+02 -0.14858229995E+03  0.15458975270E+03  0.10000000000E+01 0.  0.
<mgrwt>
<rscale>  0 0.12500417E+03</rscale>
<asrwt>0</asrwt>
<pdfrwt beam="1">  1        4 0.34307089E-02 0.12500417E+03</pdfrwt>
<pdfrwt beam="2">  1       -4 0.26951218E-01 0.12500417E+03</pdfrwt>
<totfact> 0.90552987E+03</totfact>
</mgrwt>
</event>
<event>
 5    1  0.3261711E-002  0.1249978E+03  0.7818608E-02  0.1235073E+00
         -4   -1    0    0    0  501 -0.00000000000E+00  0.00000000000E+00  0.25040863104E+02  0.25073047780E+02  0.12700000000E+01 0.  1.
          4   -1    0    0  501    0  0.00000000000E+00 -0.00000000000E+00 -0.15585452032E+03  0.15585969461E+03  0.12700000000E+01 0.  1.
         25    2    1    2    0    0  0.00000000000E+00  0.00000000000E+00 -0.13081365721E+03  0.18093274239E+03  0.12499777740E+03 0.  0.
    9000005    1    3    3    0    0 -0.44990761936E+02 -0.26144028434E+02 -0.11549559575E+03  0.12668035176E+03  0.10000000000E+01 0.  0.
    9000005    1    3    3    0    0  0.44990761936E+02  0.26144028434E+02 -0.15318061459E+02  0.54252390631E+02  0.10000000000E+01 0.  0.
<mgrwt>
<rscale>  0 0.12499778E+03</rscale>
<asrwt>0</asrwt>
<pdfrwt beam="2">  1        4 0.23980491E-01 0.12499778E+03</pdfrwt>
<pdfrwt beam="1">  1       -4 0.38553144E-02 0.12499778E+03</pdfrwt>
<totfact> 0.93454033E+03</totfact>
</mgrwt>
</event>
<event>
 5    1  0.3261711E-002  0.1249984E+03  0.7818608E-02  0.1235072E+00
         -4   -1    0    0    0  501 -0.00000000000E+00  0.00000000000E+00  0.11613481656E+02  0.11682716130E+02  0.12700000000E+01 0.  1.
          4   -1    0    0  501    0  0.00000000000E+00 -0.00000000000E+00 -0.33527638532E+03  0.33527879064E+03  0.12700000000E+01 0.  1.
         25    2    1    2    0    0  0.00000000000E+00  0.00000000000E+00 -0.32366290366E+03  0.34696150677E+03  0.12499844788E+03 0.  0.
    9000005    1    3    3    0    0 -0.42779462969E+02 -0.45404135790E+02 -0.17204333212E+03  0.18300690185E+03  0.10000000000E+01 0.  0.
    9000005    1    3    3    0    0  0.42779462969E+02  0.45404135790E+02 -0.15161957155E+03  0.16395460492E+03  0.10000000000E+01 0.  0.
<mgrwt>
<rscale>  0 0.12499845E+03</rscale>
<asrwt>0</asrwt>
<pdfrwt beam="2">  1        4 0.51586486E-01 0.12499845E+03</pdfrwt>
<pdfrwt beam="1">  1       -4 0.17922005E-02 0.12499845E+03</pdfrwt>
<totfact> 0.70062536E+03</totfact>
</mgrwt>
</event>
<event>
 5    1  0.3261711E-002  0.1249999E+03  0.7818608E-02  0.1235069E+00
          4   -1    0    0  501    0  0.00000000000E+00  0.00000000000E+00  0.31705782376E+03  0.31706036730E+03  0.12700000000E+01 0.  1.
         -4   -1    0    0    0  501 -0.00000000000E+00 -0.00000000000E+00 -0.12284969096E+02  0.12350439899E+02  0.12700000000E+01 0.  1.
         25    2    1    2    0    0  0.00000000000E+00  0.00000000000E+00  0.30477285467E+03  0.32941080719E+03  0.12499994782E+03 0.  0.
    9000005    1    3    3    0    0  0.45768087175E+02  0.30026192326E+02  0.72935382764E+02  0.91196820603E+02  0.10000000000E+01 0.  0.
    9000005    1    3    3    0    0 -0.45768087175E+02 -0.30026192326E+02  0.23183747190E+03  0.23821398659E+03  0.10000000000E+01 0.  0.
<mgrwt>
<rscale>  0 0.12499995E+03</rscale>
<asrwt>0</asrwt>
<pdfrwt beam="1">  1        4 0.48783352E-01 0.12499995E+03</pdfrwt>
<pdfrwt beam="2">  1       -4 0.18952274E-02 0.12499995E+03</pdfrwt>
<totfact> 0.72050726E+03</totfact>
</mgrwt>
</event>
<event>
 5    1  0.3261711E-002  0.1250005E+03  0.7818608E-02  0.1235068E+00
         -4   -1    0    0    0  501 -0.00000000000E+00  0.00000000000E+00  0.47339083122E+03  0.47339253478E+03  0.12700000000E+01 0.  1.
          4   -1    0    0  501    0  0.00000000000E+00 -0.00000000000E+00 -0.82011108263E+01  0.82988624994E+01  0.12700000000E+01 0.  1.
         25    2    1    2    0    0  0.00000000000E+00  0.00000000000E+00  0.46518972039E+03  0.48169139728E+03  0.12500050500E+03 0.  0.
    9000005    1    3    3    0    0 -0.35702716114E+02  0.51050466187E+02  0.25164835248E+03  0.25924646061E+03  0.10000000000E+01 0.  0.
    9000005    1    3    3    0    0  0.35702716114E+02 -0.51050466187E+02  0.21354136792E+03  0.22244493666E+03  0.10000000000E+01 0.  0.
<mgrwt>
<rscale>  0 0.12500051E+03</rscale>
<asrwt>0</asrwt>
<pdfrwt beam="2">  1        4 0.12693598E-02 0.12500051E+03</pdfrwt>
<pdfrwt beam="1">  1       -4 0.72837005E-01 0.12500051E+03</pdfrwt>
<totfact> 0.57312770E+03</totfact>
</mgrwt>
</event>
<event>
 5    1  0.3261711E-002  0.1250208E+03  0.7818608E-02  0.1235037E+00
         -4   -1    0    0    0  501 -0.00000000000E+00  0.00000000000E+00  0.65612917127E+02  0.65625207001E+02  0.12700000000E+01 0. -1.
          4   -1    0    0  501    0  0.00000000000E+00 -0.00000000000E+00 -0.59529918478E+02  0.59543463906E+02  0.12700000000E+01 0. -1.
         25    2    1    2    0    0  0.00000000000E+00  0.00000000000E+00  0.60829986497E+01  0.12516867091E+03  0.12502077149E+03 0.  0.
    9000005    1    3    3    0    0 -0.54797941446E+02 -0.15191495485E+02 -0.22930515416E+02  0.61322136779E+02  0.10000000000E+01 0.  0.
    9000005    1    3    3    0    0  0.54797941446E+02  0.15191495485E+02  0.29013514066E+02  0.63846534129E+02  0.10000000000E+01 0.  0.
<mgrwt>
<rscale>  0 0.12502077E+03</rscale>
<asrwt>0</asrwt>
<pdfrwt beam="2">  1        4 0.91604363E-02 0.12502077E+03</pdfrwt>
<pdfrwt beam="1">  1       -4 0.10096282E-01 0.12502077E+03</pdfrwt>
<totfact> 0.10444297E+04</totfact>
</mgrwt>
</event>
<event>
 5    1  0.3261711E-002  0.1249980E+03  0.7818608E-02  0.1235072E+00
          4   -1    0    0  501    0  0.00000000000E+00  0.00000000000E+00  0.25787760016E+02  0.25819013665E+02  0.12700000000E+01 0. -1.
         -4   -1    0    0    0  501 -0.00000000000E+00 -0.00000000000E+00 -0.15134646411E+03  0.15135179252E+03  0.12700000000E+01 0. -1.
         25    2    1    2    0    0  0.00000000000E+00  0.00000000000E+00 -0.12555870409E+03  0.17717080618E+03  0.12499802554E+03 0.  0.
    9000005    1    3    3    0    0 -0.34164581665E+02  0.33534209463E+02 -0.58475027985E+01  0.48238523336E+02  0.10000000000E+01 0.  0.
    9000005    1    3    3    0    0  0.34164581665E+02 -0.33534209463E+02 -0.11971120129E+03  0.12893228285E+03  0.10000000000E+01 0.  0.
<mgrwt>
<rscale>  0 0.12499803E+03</rscale>
<asrwt>0</asrwt>
<pdfrwt beam="1">  1        4 0.39701618E-02 0.12499803E+03</pdfrwt>
<pdfrwt beam="2">  1       -4 0.23286885E-01 0.12499803E+03</pdfrwt>
<totfact> 0.94132929E+03</totfact>
</mgrwt>
</event>
<event>
 5    1  0.3261711E-002  0.1249984E+03  0.7818608E-02  0.1235072E+00
          4   -1    0    0  501    0  0.00000000000E+00  0.00000000000E+00  0.11126319580E+03  0.11127044370E+03  0.12700000000E+01 0.  1.
         -4   -1    0    0    0  501 -0.00000000000E+00 -0.00000000000E+00 -0.35087413162E+02  0.35110389664E+02  0.12700000000E+01 0.  1.
         25    2    1    2    0    0  0.00000000000E+00  0.00000000000E+00  0.76175782641E+02  0.14638083336E+03  0.12499839405E+03 0.  0.
    9000005    1    3    3    0    0 -0.66441744459E+01  0.11734526050E+02  0.10954478227E+03  0.11037619072E+03  0.10000000000E+01 0.  0.
    9000005    1    3    3    0    0  0.66441744459E+01 -0.11734526050E+02 -0.33368999626E+02  0.36004642641E+02  0.10000000000E+01 0.  0.
<mgrwt>
<rscale>  0 0.12499839E+03</rscale>
<asrwt>0</asrwt>
<pdfrwt beam="1">  1        4 0.17119740E-01 0.12499839E+03</pdfrwt>
<pdfrwt beam="2">  1       -4 0.54003885E-02 0.12499839E+03</pdfrwt>
<totfact> 0.10003370E+04</totfact>
</mgrwt>
</event>
<event>
 5    1  0.3261711E-002  0.1249989E+03  0.7818608E-02  0.1235071E+00
          4   -1    0    0  501    0  0.00000000000E+00  0.00000000000E+00  0.47426924019E+02  0.47443925027E+02  0.12700000000E+01 0. -1.
         -4   -1    0    0    0  501 -0.00000000000E+00 -0.00000000000E+00 -0.82325489248E+02  0.82335284537E+02  0.12700000000E+01 0. -1.
         25    2    1    2    0    0  0.00000000000E+00  0.00000000000E+00 -0.34898565228E+02  0.12977920956E+03  0.12499893352E+03 0.  0.
    9000005    1    3    3    0    0  0.34740153905E+02 -0.48573656858E+02  0.16641085624E+01  0.59749876077E+02  0.10000000000E+01 0.  0.
    9000005    1    3    3    0    0 -0.34740153905E+02  0.48573656858E+02 -0.36562673791E+02  0.70029333487E+02  0.10000000000E+01 0.  0.
<mgrwt>
<rscale>  0 0.12499893E+03</rscale>
<asrwt>0</asrwt>
<pdfrwt beam="1">  1        4 0.72985111E-02 0.12499893E+03</pdfrwt>
<pdfrwt beam="2">  1       -4 0.12667521E-01 0.12499893E+03</pdfrwt>
<totfact> 0.10349482E+04</totfact>
</mgrwt>
</event>
<event>
 5    1  0.3261711E-002  0.1250019E+03  0.7818608E-02  0.1235066E+00
          4   -1    0    0  501    0  0.00000000000E+00  0.00000000000E+00  0.13387482040E+02  0.13447586229E+02  0.12700000000E+01 0. -1.
         -4   -1    0    0    0  501 -0.00000000000E+00 -0.00000000000E+00 -0.29107783232E+03  0.29108060287E+03  0.12700000000E+01 0. -1.
         25    2    1    2    0    0  0.00000000000E+00  0.00000000000E+00 -0.27769035028E+03  0.30452818910E+03  0.12500194926E+03 0.  0.
    9000005    1    3    3    0    0 -0.46216834532E+01  0.49955970219E+02 -0.22962096497E+03  0.23503988273E+03  0.10000000000E+01 0.  0.
    9000005    1    3    3    0    0  0.46216834532E+01 -0.49955970219E+02 -0.48069385307E+02  0.69488306370E+02  0.10000000000E+01 0.  0.
<mgrwt>
<rscale>  0 0.12500195E+03</rscale>
<asrwt>0</asrwt>
<pdfrwt beam="1">  1        4 0.20644494E-02 0.12500195E+03</pdfrwt>
<pdfrwt beam="2">  1       -4 0.44786037E-01 0.12500195E+03</pdfrwt>
<totfact> 0.75031075E+03</totfact>
</mgrwt>
</event>
<event>
 5    1  0.3261711E-002  0.1250003E+03  0.7818608E-02  0.1235069E+00
          4   -1    0    0  501    0  0.00000000000E+00  0.00000000000E+00  0.48501702718E+03  0.48501868991E+03  0.12700000000E+01 0. -1.
         -4   -1    0    0    0  501 -0.00000000000E+00 -0.00000000000E+00 -0.80021240271E+01  0.81022767754E+01  0.12700000000E+01 0. -1.
         25    2    1    2    0    0  0.00000000000E+00  0.00000000000E+00  0.47701490316E+03  0.49312096668E+03  0.12500027979E+03 0.  0.
    9000005    1    3    3    0    0  0.55502222388E+02  0.17917022549E+02  0.32704968793E+03  0.33221079869E+03  0.10000000000E+01 0.  0.
    9000005    1    3    3    0    0 -0.55502222388E+02 -0.17917022549E+02  0.14996521522E+03  0.16091016799E+03  0.10000000000E+01 0.  0.
<mgrwt>
<rscale>  0 0.12500028E+03</rscale>
<asrwt>0</asrwt>
<pdfrwt beam="1">  1        4 0.74625857E-01 0.12500028E+03</pdfrwt>
<pdfrwt beam="2">  1       -4 0.12389276E-02 0.12500028E+03</pdfrwt>
<totfact> 0.56401714E+03</totfact>
</mgrwt>
</event>
<event>
 5    1  0.3261711E-002  0.1249928E+03  0.7818608E-02  0.1235080E+00
         -4   -1    0    0    0  501 -0.00000000000E+00  0.00000000000E+00  0.10661750205E+03  0.10662506574E+03  0.12700000000E+01 0.  1.
          4   -1    0    0  501    0  0.00000000000E+00 -0.00000000000E+00 -0.36613907322E+02  0.36635926485E+02  0.12700000000E+01 0.  1.
         25    2    1    2    0    0  0.00000000000E+00  0.00000000000E+00  0.70003594728E+02  0.14326099222E+03  0.12499283426E+03 0.  0.
    9000005    1    3    3    0    0 -0.52359210730E+02  0.31681007183E+02  0.20520791757E+02  0.64554442594E+02  0.10000000000E+01 0.  0.
    9000005    1    3    3    0    0  0.52359210730E+02 -0.31681007183E+02  0.49482802971E+02  0.78706549627E+02  0.10000000000E+01 0.  0.
<mgrwt>
<rscale>  0 0.12499283E+03</rscale>
<asrwt>0</asrwt>
<pdfrwt beam="2">  1        4 0.56351845E-02 0.12499283E+03</pdfrwt>
<pdfrwt beam="1">  1       -4 0.16404968E-01 0.12499283E+03</pdfrwt>
<totfact> 0.10068066E+04</totfact>
</mgrwt>
</event>
<event>
 5    1  0.3261711E-002  0.1250007E+03  0.7818608E-02  0.1235068E+00
          4   -1    0    0  501    0  0.00000000000E+00  0.00000000000E+00  0.75771846927E+02  0.75782489315E+02  0.12700000000E+01 0.  1.
         -4   -1    0    0    0  501 -0.00000000000E+00 -0.00000000000E+00 -0.51531251209E+02  0.51546898560E+02  0.12700000000E+01 0.  1.
         25    2    1    2    0    0  0.00000000000E+00  0.00000000000E+00  0.24240595718E+02  0.12732938788E+03  0.12500066614E+03 0.  0.
    9000005    1    3    3    0    0  0.20640105794E+02  0.33943756224E+02  0.61259008989E+02  0.73019577759E+02  0.10000000000E+01 0.  0.
    9000005    1    3    3    0    0 -0.20640105794E+02 -0.33943756224E+02 -0.37018413271E+02  0.54309810116E+02  0.10000000000E+01 0.  0.
<mgrwt>
<rscale>  0 0.12500067E+03</rscale>
<asrwt>0</asrwt>
<pdfrwt beam="1">  1        4 0.11659229E-01 0.12500067E+03</pdfrwt>
<pdfrwt beam="2">  1       -4 0.79299072E-02 0.12500067E+03</pdfrwt>
<totfact> 0.10401841E+04</totfact>
</mgrwt>
</event>
<event>
 5    1  0.3261711E-002  0.1249724E+03  0.7818608E-02  0.1235112E+00
         -4   -1    0    0    0  501 -0.00000000000E+00  0.00000000000E+00  0.18499351192E+02  0.18542893369E+02  0.12700000000E+01 0.  1.
          4   -1    0    0  501    0  0.00000000000E+00 -0.00000000000E+00 -0.21076942299E+03  0.21077324918E+03  0.12700000000E+01 0.  1.
         25    2    1    2    0    0  0.00000000000E+00  0.00000000000E+00 -0.19227007180E+03  0.22931614255E+03  0.12497244785E+03 0.  0.
    9000005    1    3    3    0    0 -0.55632134141E+02 -0.17948561212E+02 -0.13660532643E+03  0.14859037791E+03  0.10000000000E+01 0.  0.
    9000005    1    3    3    0    0  0.55632134141E+02  0.17948561212E+02 -0.55664745368E+02  0.80725764633E+02  0.10000000000E+01 0.  0.
<mgrwt>
<rscale>  0 0.12497245E+03</rscale>
<asrwt>0</asrwt>
<pdfrwt beam="2">  1        4 0.32429707E-01 0.12497245E+03</pdfrwt>
<pdfrwt beam="1">  1       -4 0.28496979E-02 0.12497245E+03</pdfrwt>
<totfact> 0.85467247E+03</totfact>
</mgrwt>
</event>
<event>
 5    1  0.3261711E-002  0.1249902E+03  0.7818608E-02  0.1235085E+00
         -4   -1    0    0    0  501 -0.00000000000E+00  0.00000000000E+00  0.12561821950E+03  0.12562463919E+03  0.12700000000E+01 0.  1.
          4   -1    0    0  501    0  0.00000000000E+00 -0.00000000000E+00 -0.31071161271E+02  0.31097105375E+02  0.12700000000E+01 0.  1.
         25    2    1    2    0    0  0.00000000000E+00  0.00000000000E+00  0.94547058233E+02  0.15672174456E+03  0.12499023561E+03 0.  0.
    9000005    1    3    3    0    0  0.73382922520E+01  0.32658332986E+02  0.11343499826E+03  0.11827474826E+03  0.10000000000E+01 0.  0.
    9000005    1    3    3    0    0 -0.73382922520E+01 -0.32658332986E+02 -0.18887940022E+02  0.38446996305E+02  0.10000000000E+01 0.  0.
<mgrwt>
<rscale>  0 0.12499024E+03</rscale>
<asrwt>0</asrwt>
<pdfrwt beam="2">  1        4 0.47826682E-02 0.12499024E+03</pdfrwt>
<pdfrwt beam="1">  1       -4 0.19328369E-01 0.12499024E+03</pdfrwt>
<totfact> 0.98000071E+03</totfact>
</mgrwt>
</event>
<event>
 5    1  0.3261711E-002  0.1249986E+03  0.7818608E-02  0.1235071E+00
          4   -1    0    0  501    0  0.00000000000E+00  0.00000000000E+00  0.16135103910E+04  0.16135108908E+04  0.12700000000E+01 0.  1.
         -4   -1    0    0    0  501 -0.00000000000E+00 -0.00000000000E+00 -0.22538168167E+01  0.25870041058E+01  0.12700000000E+01 0.  1.
         25    2    1    2    0    0  0.00000000000E+00  0.00000000000E+00  0.16112565742E+04  0.16160978949E+04  0.12499863241E+03 0.  0.
    9000005    1    3    3    0    0  0.38562956029E+02  0.40790012019E+02  0.45055616992E+03  0.45404051461E+03  0.10000000000E+01 0.  0.
    9000005    1    3    3    0    0 -0.38562956029E+02 -0.40790012019E+02  0.11607004043E+04  0.11620573803E+04  0.10000000000E+01 0.  0.
<mgrwt>
<rscale>  0 0.12499863E+03</rscale>
<asrwt>0</asrwt>
<pdfrwt beam="1">  1        4 0.24825759E+00 0.12499863E+03</pdfrwt>
<pdfrwt beam="2">  1       -4 0.37240996E-03 0.12499863E+03</pdfrwt>
<totfact> 0.15757436E+03</totfact>
</mgrwt>
</event>
<event>
 5    1  0.3261711E-002  0.1250043E+03  0.7818608E-02  0.1235063E+00
         -4   -1    0    0    0  501 -0.00000000000E+00  0.00000000000E+00  0.29830628843E+02  0.29857650899E+02  0.12700000000E+01 0.  1.
          4   -1    0    0  501    0  0.00000000000E+00 -0.00000000000E+00 -0.13086715523E+03  0.13087331744E+03  0.12700000000E+01 0.  1.
         25    2    1    2    0    0  0.00000000000E+00  0.00000000000E+00 -0.10103652639E+03  0.16073096834E+03  0.12500425801E+03 0.  0.
    9000005    1    3    3    0    0 -0.44468451851E+02 -0.26650307125E+02 -0.56469467809E+01  0.52159084423E+02  0.10000000000E+01 0.  0.
    9000005    1    3    3    0    0  0.44468451851E+02  0.26650307125E+02 -0.95389579608E+02  0.10857188392E+03  0.10000000000E+01 0.  0.
<mgrwt>
<rscale>  0 0.12500426E+03</rscale>
<asrwt>0</asrwt>
<pdfrwt beam="2">  1        4 0.20135961E-01 0.12500426E+03</pdfrwt>
<pdfrwt beam="1">  1       -4 0.45918802E-02 0.12500426E+03</pdfrwt>
<totfact> 0.97192743E+03</totfact>
</mgrwt>
</event>
<event>
 5    1  0.3261711E-002  0.1249947E+03  0.7818608E-02  0.1235078E+00
          4   -1    0    0  501    0  0.00000000000E+00  0.00000000000E+00  0.38632416736E+01  0.40666369679E+01  0.12700000000E+01 0. -1.
         -4   -1    0    0    0  501 -0.00000000000E+00 -0.00000000000E+00 -0.98491080686E+03  0.98491162566E+03  0.12700000000E+01 0. -1.
         25    2    1    2    0    0  0.00000000000E+00  0.00000000000E+00 -0.98104756519E+03  0.98897826263E+03  0.12499471509E+03 0.  0.
    9000005    1    3    3    0    0 -0.56269775144E+02  0.10471060402E+02 -0.68895802627E+03  0.69133211459E+03  0.10000000000E+01 0.  0.
    9000005    1    3    3    0    0  0.56269775144E+02 -0.10471060402E+02 -0.29208953892E+03  0.29764614805E+03  0.10000000000E+01 0.  0.
<mgrwt>
<rscale>  0 0.12499472E+03</rscale>
<asrwt>0</asrwt>
<pdfrwt beam="1">  1        4 0.61005444E-03 0.12499472E+03</pdfrwt>
<pdfrwt beam="2">  1       -4 0.15154025E+00 0.12499472E+03</pdfrwt>
<totfact> 0.30974828E+03</totfact>
</mgrwt>
</event>
<event>
 5    1  0.3261711E-002  0.1249965E+03  0.7818608E-02  0.1235075E+00
          4   -1    0    0  501    0  0.00000000000E+00  0.00000000000E+00  0.66623277570E+02  0.66635381099E+02  0.12700000000E+01 0.  1.
         -4   -1    0    0    0  501 -0.00000000000E+00 -0.00000000000E+00 -0.58604332012E+02  0.58618091325E+02  0.12700000000E+01 0.  1.
         25    2    1    2    0    0  0.00000000000E+00  0.00000000000E+00  0.80189455583E+01  0.12525347242E+03  0.12499651542E+03 0.  0.
    9000005    1    3    3    0    0 -0.42381638498E+02  0.24044189225E+02  0.43214137721E+02  0.65136687176E+02  0.10000000000E+01 0.  0.
    9000005    1    3    3    0    0  0.42381638498E+02 -0.24044189225E+02 -0.35195192162E+02  0.60116785249E+02  0.10000000000E+01 0.  0.
<mgrwt>
<rscale>  0 0.12499652E+03</rscale>
<asrwt>0</asrwt>
<pdfrwt beam="1">  1        4 0.10251725E-01 0.12499652E+03</pdfrwt>
<pdfrwt beam="2">  1       -4 0.90180405E-02 0.12499652E+03</pdfrwt>
<totfact> 0.10448182E+04</totfact>
</mgrwt>
</event>
<event>
 5    1  0.3261711E-002  0.1250001E+03  0.7818608E-02  0.1235069E+00
         -4   -1    0    0    0  501 -0.00000000000E+00  0.00000000000E+00  0.30776187068E+02  0.30802379623E+02  0.12700000000E+01 0.  1.
          4   -1    0    0  501    0  0.00000000000E+00 -0.00000000000E+00 -0.12684117637E+03  0.12684753416E+03  0.12700000000E+01 0.  1.
         25    2    1    2    0    0  0.00000000000E+00  0.00000000000E+00 -0.96064989304E+02  0.15764991379E+03  0.12500005259E+03 0.  0.
    9000005    1    3    3    0    0 -0.47620981368E+02  0.37615317516E+02 -0.66848604452E+02  0.90290674465E+02  0.10000000000E+01 0.  0.
    9000005    1    3    3    0    0  0.47620981368E+02 -0.37615317516E+02 -0.29216384852E+02  0.67359239322E+02  0.10000000000E+01 0.  0.
<mgrwt>
<rscale>  0 0.12500005E+03</rscale>
<asrwt>0</asrwt>
<pdfrwt beam="2">  1        4 0.19516531E-01 0.12500005E+03</pdfrwt>
<pdfrwt beam="1">  1       -4 0.47373019E-02 0.12500005E+03</pdfrwt>
<totfact> 0.97797670E+03</totfact>
</mgrwt>
</event>
<event>
 5    1  0.3261711E-002  0.1249990E+03  0.7818608E-02  0.1235071E+00
         -4   -1    0    0    0  501 -0.00000000000E+00  0.00000000000E+00  0.26567139633E+03  0.26567443183E+03  0.12700000000E+01 0. -1.
          4   -1    0    0  501    0  0.00000000000E+00 -0.00000000000E+00 -0.14672518726E+02  0.14727379460E+02  0.12700000000E+01 0. -1.
         25    2    1    2    0    0  0.00000000000E+00  0.00000000000E+00  0.25099887761E+03  0.28040181129E+03  0.12499895686E+03 0.  0.
    9000005    1    3    3    0    0 -0.45443075138E+02 -0.21802083061E+02  0.42627806345E+02  0.66019192494E+02  0.10000000000E+01 0.  0.
    9000005    1    3    3    0    0  0.45443075138E+02  0.21802083061E+02  0.20837107126E+03  0.21438261880E+03  0.10000000000E+01 0.  0.
<mgrwt>
<rscale>  0 0.12499896E+03</rscale>
<asrwt>0</asrwt>
<pdfrwt beam="2">  1        4 0.22617641E-02 0.12499896E+03</pdfrwt>
<pdfrwt beam="1">  1       -4 0.40876977E-01 0.12499896E+03</pdfrwt>
<totfact> 0.78126668E+03</totfact>
</mgrwt>
</event>
<event>
 5    1  0.3261711E-002  0.1249995E+03  0.7818608E-02  0.1235070E+00
          4   -1    0    0  501    0  0.00000000000E+00  0.00000000000E+00  0.18109166784E+03  0.18109612106E+03  0.12700000000E+01 0. -1.
         -4   -1    0    0    0  501 -0.00000000000E+00 -0.00000000000E+00 -0.21546975410E+02  0.21584370487E+02  0.12700000000E+01 0. -1.
         25    2    1    2    0    0  0.00000000000E+00  0.00000000000E+00  0.15954469243E+03  0.20268049154E+03  0.12499949107E+03 0.  0.
    9000005    1    3    3    0    0  0.18549249255E+02 -0.57886773034E+02  0.10328422053E+03  0.11984816791E+03  0.10000000000E+01 0.  0.
    9000005    1    3    3    0    0 -0.18549249255E+02  0.57886773034E+02  0.56260471900E+02  0.82832323634E+02  0.10000000000E+01 0.  0.
<mgrwt>
<rscale>  0 0.12499949E+03</rscale>
<asrwt>0</asrwt>
<pdfrwt beam="1">  1        4 0.27863476E-01 0.12499949E+03</pdfrwt>
<pdfrwt beam="2">  1       -4 0.33181383E-02 0.12499949E+03</pdfrwt>
<totfact> 0.89686401E+03</totfact>
</mgrwt>
</event>
<event>
 5    1  0.3261711E-002  0.1249907E+03  0.7818608E-02  0.1235084E+00
         -4   -1    0    0    0  501 -0.00000000000E+00  0.00000000000E+00  0.14849262354E+03  0.14849805435E+03  0.12700000000E+01 0. -1.
          4   -1    0    0  501    0  0.00000000000E+00 -0.00000000000E+00 -0.26280873687E+02  0.26311541607E+02  0.12700000000E+01 0. -1.
         25    2    1    2    0    0  0.00000000000E+00  0.00000000000E+00  0.12221174985E+03  0.17480959596E+03  0.12499073180E+03 0.  0.
    9000005    1    3    3    0    0  0.54898153655E+02  0.29225426029E+02  0.69582929193E+02  0.93331221124E+02  0.10000000000E+01 0.  0.
    9000005    1    3    3    0    0 -0.54898153655E+02 -0.29225426029E+02  0.52628820658E+02  0.81478374832E+02  0.10000000000E+01 0.  0.
<mgrwt>
<rscale>  0 0.12499073E+03</rscale>
<asrwt>0</asrwt>
<pdfrwt beam="2">  1        4 0.40459882E-02 0.12499073E+03</pdfrwt>
<pdfrwt beam="1">  1       -4 0.22847795E-01 0.12499073E+03</pdfrwt>
<totfact> 0.94579388E+03</totfact>
</mgrwt>
</event>
<event>
 5    1  0.3261711E-002  0.1250010E+03  0.7818608E-02  0.1235068E+00
         -4   -1    0    0    0  501 -0.00000000000E+00  0.00000000000E+00  0.14333143560E+03  0.14333706196E+03  0.12700000000E+01 0. -1.
          4   -1    0    0  501    0  0.00000000000E+00 -0.00000000000E+00 -0.27232755463E+02  0.27262352615E+02  0.12700000000E+01 0. -1.
         25    2    1    2    0    0  0.00000000000E+00  0.00000000000E+00  0.11609868014E+03  0.17059941458E+03  0.12500102689E+03 0.  0.
    9000005    1    3    3    0    0  0.54933982218E+02 -0.28937995083E+02  0.67715655978E+02  0.91877962680E+02  0.10000000000E+01 0.  0.
    9000005    1    3    3    0    0 -0.54933982218E+02  0.28937995083E+02  0.48383024164E+02  0.78721451898E+02  0.10000000000E+01 0.  0.
<mgrwt>
<rscale>  0 0.12500103E+03</rscale>
<asrwt>0</asrwt>
<pdfrwt beam="2">  1        4 0.41923642E-02 0.12500103E+03</pdfrwt>
<pdfrwt beam="1">  1       -4 0.22053700E-01 0.12500103E+03</pdfrwt>
<totfact> 0.95334834E+03</totfact>
</mgrwt>
</event>
<event>
 5    1  0.3261711E-002  0.1249994E+03  0.7818608E-02  0.1235070E+00
          4   -1    0    0  501    0  0.00000000000E+00  0.00000000000E+00  0.53308058257E+02  0.53323184218E+02  0.12700000000E+01 0.  1.
         -4   -1    0    0    0  501 -0.00000000000E+00 -0.00000000000E+00 -0.73245162310E+02  0.73256171766E+02  0.12700000000E+01 0.  1.
         25    2    1    2    0    0  0.00000000000E+00  0.00000000000E+00 -0.19937104053E+02  0.12657935598E+03  0.12499938097E+03 0.  0.
    9000005    1    3    3    0    0  0.44899543709E+02  0.42940409370E+02 -0.31481741919E+01  0.62215422388E+02  0.10000000000E+01 0.  0.
    9000005    1    3    3    0    0 -0.44899543709E+02 -0.42940409370E+02 -0.16788929861E+02  0.64363933597E+02  0.10000000000E+01 0.  0.
<mgrwt>
<rscale>  0 0.12499938E+03</rscale>
<asrwt>0</asrwt>
<pdfrwt beam="1">  1        4 0.82032501E-02 0.12499938E+03</pdfrwt>
<pdfrwt beam="2">  1       -4 0.11270497E-01 0.12499938E+03</pdfrwt>
<totfact> 0.10418444E+04</totfact>
</mgrwt>
</event>
<event>
 5    1  0.3261711E-002  0.1249976E+03  0.7818608E-02  0.1235073E+00
         -4   -1    0    0    0  501 -0.00000000000E+00  0.00000000000E+00  0.12013119948E+03  0.12013791236E+03  0.12700000000E+01 0. -1.
          4   -1    0    0  501    0  0.00000000000E+00 -0.00000000000E+00 -0.32495233957E+02  0.32520041973E+02  0.12700000000E+01 0. -1.
         25    2    1    2    0    0  0.00000000000E+00  0.00000000000E+00  0.87635965518E+02  0.15265795434E+03  0.12499755426E+03 0.  0.
    9000005    1    3    3    0    0  0.25702672892E+02 -0.45457990094E+02  0.19002191088E+01  0.52265352671E+02  0.10000000000E+01 0.  0.
    9000005    1    3    3    0    0 -0.25702672892E+02  0.45457990094E+02  0.85735746409E+02  0.10039260167E+03  0.10000000000E+01 0.  0.
<mgrwt>
<rscale>  0 0.12499755E+03</rscale>
<asrwt>0</asrwt>
<pdfrwt beam="2">  1        4 0.50016915E-02 0.12499755E+03</pdfrwt>
<pdfrwt beam="1">  1       -4 0.18484148E-01 0.12499755E+03</pdfrwt>
<totfact> 0.98781925E+03</totfact>
</mgrwt>
</event>
<event>
 5    1  0.3261711E-002  0.1249996E+03  0.7818608E-02  0.1235070E+00
          4   -1    0    0  501    0  0.00000000000E+00  0.00000000000E+00  0.16001900792E+03  0.16002404755E+03  0.12700000000E+01 0. -1.
         -4   -1    0    0    0  501 -0.00000000000E+00 -0.00000000000E+00 -0.24389068043E+02  0.24422111703E+02  0.12700000000E+01 0. -1.
         25    2    1    2    0    0  0.00000000000E+00  0.00000000000E+00  0.13562993987E+03  0.18444615925E+03  0.12499962029E+03 0.  0.
    9000005    1    3    3    0    0  0.23051202335E+02  0.44697549102E+02  0.13079388470E+02  0.51974024547E+02  0.10000000000E+01 0.  0.
    9000005    1    3    3    0    0 -0.23051202335E+02 -0.44697549102E+02  0.12255055140E+03  0.13247213471E+03  0.10000000000E+01 0.  0.
<mgrwt>
<rscale>  0 0.12499962E+03</rscale>
<asrwt>0</asrwt>
<pdfrwt beam="1">  1        4 0.24621238E-01 0.12499962E+03</pdfrwt>
<pdfrwt beam="2">  1       -4 0.37550938E-02 0.12499962E+03</pdfrwt>
<totfact> 0.92823537E+03</totfact>
</mgrwt>
</event>
<event>
 5    1  0.3261711E-002  0.1249953E+03  0.7818608E-02  0.1235077E+00
         -4   -1    0    0    0  501 -0.00000000000E+00  0.00000000000E+00  0.60433092144E+02  0.60446435181E+02  0.12700000000E+01 0.  1.
          4   -1    0    0  501    0  0.00000000000E+00 -0.00000000000E+00 -0.64606016960E+02  0.64618498338E+02  0.12700000000E+01 0.  1.
         25    2    1    2    0    0  0.00000000000E+00  0.00000000000E+00 -0.41729248164E+01  0.12506493352E+03  0.12499529709E+03 0.  0.
    9000005    1    3    3    0    0 -0.11128594708E+02 -0.29483403701E+02 -0.56077986808E+02  0.64333951522E+02  0.10000000000E+01 0.  0.
    9000005    1    3    3    0    0  0.11128594708E+02  0.29483403701E+02  0.51905061992E+02  0.60730981997E+02  0.10000000000E+01 0.  0.
<mgrwt>
<rscale>  0 0.12499530E+03</rscale>
<asrwt>0</asrwt>
<pdfrwt beam="2">  1        4 0.99413737E-02 0.12499530E+03</pdfrwt>
<pdfrwt beam="1">  1       -4 0.92993853E-02 0.12499530E+03</pdfrwt>
<totfact> 0.10452563E+04</totfact>
</mgrwt>
</event>
<event>
 5    1  0.3261711E-002  0.1250131E+03  0.7818608E-02  0.1235049E+00
         -4   -1    0    0    0  501 -0.00000000000E+00  0.00000000000E+00  0.87543923270E+02  0.87553134732E+02  0.12700000000E+01 0.  1.
          4   -1    0    0  501    0  0.00000000000E+00 -0.00000000000E+00 -0.44609188773E+02  0.44627263225E+02  0.12700000000E+01 0.  1.
         25    2    1    2    0    0  0.00000000000E+00  0.00000000000E+00  0.42934734497E+02  0.13218039796E+03  0.12501306403E+03 0.  0.
    9000005    1    3    3    0    0  0.38555597040E+02 -0.40897832358E+02 -0.74289717740E+01  0.56704112516E+02  0.10000000000E+01 0.  0.
    9000005    1    3    3    0    0 -0.38555597040E+02  0.40897832358E+02  0.50363706271E+02  0.75476285441E+02  0.10000000000E+01 0.  0.
<mgrwt>
<rscale>  0 0.12501306E+03</rscale>
<asrwt>0</asrwt>
<pdfrwt beam="2">  1        4 0.68650511E-02 0.12501306E+03</pdfrwt>
<pdfrwt beam="1">  1       -4 0.13470395E-01 0.12501306E+03</pdfrwt>
<totfact> 0.10294815E+04</totfact>
</mgrwt>
</event>
<event>
 5    1  0.3261711E-002  0.1249974E+03  0.7818608E-02  0.1235073E+00
          4   -1    0    0  501    0  0.00000000000E+00  0.00000000000E+00  0.47156765826E+02  0.47173864196E+02  0.12700000000E+01 0. -1.
         -4   -1    0    0    0  501 -0.00000000000E+00 -0.00000000000E+00 -0.82794919815E+02  0.82804659574E+02  0.12700000000E+01 0. -1.
         25    2    1    2    0    0  0.00000000000E+00  0.00000000000E+00 -0.35638153989E+02  0.12997852377E+03  0.12499735446E+03 0.  0.
    9000005    1    3    3    0    0  0.26395913554E+02  0.35684345223E+02  0.27922134406E+02  0.52447710495E+02  0.10000000000E+01 0.  0.
    9000005    1    3    3    0    0 -0.26395913554E+02 -0.35684345223E+02 -0.63560288395E+02  0.77530813276E+02  0.10000000000E+01 0.  0.
<mgrwt>
<rscale>  0 0.12499735E+03</rscale>
<asrwt>0</asrwt>
<pdfrwt beam="1">  1        4 0.72569515E-02 0.12499735E+03</pdfrwt>
<pdfrwt beam="2">  1       -4 0.12739744E-01 0.12499735E+03</pdfrwt>
<totfact> 0.10345585E+04</totfact>
</mgrwt>
</event>
<event>
 5    1  0.3261711E-002  0.1250023E+03  0.7818608E-02  0.1235066E+00
         -4   -1    0    0    0  501 -0.00000000000E+00  0.00000000000E+00  0.11302127504E+02  0.11373257498E+02  0.12700000000E+01 0. -1.
          4   -1    0    0  501    0  0.00000000000E+00 -0.00000000000E+00 -0.34447695531E+03  0.34447929638E+03  0.12700000000E+01 0. -1.
         25    2    1    2    0    0  0.00000000000E+00  0.00000000000E+00 -0.33317482780E+03  0.35585255388E+03  0.12500229687E+03 0.  0.
    9000005    1    3    3    0    0 -0.12367696052E+02  0.49702283579E+01 -0.34039724851E+03  0.34065958062E+03  0.10000000000E+01 0.  0.
    9000005    1    3    3    0    0  0.12367696052E+02 -0.49702283579E+01  0.72224207089E+01  0.15192973260E+02  0.10000000000E+01 0.  0.
<mgrwt>
<rscale>  0 0.12500230E+03</rscale>
<asrwt>0</asrwt>
<pdfrwt beam="2">  1        4 0.53002098E-01 0.12500230E+03</pdfrwt>
<pdfrwt beam="1">  1       -4 0.17444407E-02 0.12500230E+03</pdfrwt>
<totfact> 0.69081959E+03</totfact>
</mgrwt>
</event>
<event>
 5    1  0.3261711E-002  0.1249977E+03  0.7818608E-02  0.1235073E+00
         -4   -1    0    0    0  501 -0.00000000000E+00  0.00000000000E+00  0.10448562531E+03  0.10449334331E+03  0.12700000000E+01 0. -1.
          4   -1    0    0  501    0  0.00000000000E+00 -0.00000000000E+00 -0.37364233551E+02  0.37385810796E+02  0.12700000000E+01 0. -1.
         25    2    1    2    0    0  0.00000000000E+00  0.00000000000E+00  0.67121391758E+02  0.14187915411E+03  0.12499765253E+03 0.  0.
    9000005    1    3    3    0    0 -0.22957004073E+02 -0.23226700046E+02 -0.26913319529E+02  0.42330017707E+02  0.10000000000E+01 0.  0.
    9000005    1    3    3    0    0  0.22957004073E+02  0.23226700046E+02  0.94034711287E+02  0.99549136399E+02  0.10000000000E+01 0.  0.
<mgrwt>
<rscale>  0 0.12499765E+03</rscale>
<asrwt>0</asrwt>
<pdfrwt beam="2">  1        4 0.57505972E-02 0.12499765E+03</pdfrwt>
<pdfrwt beam="1">  1       -4 0.16076965E-01 0.12499765E+03</pdfrwt>
<totfact> 0.10095321E+04</totfact>
</mgrwt>
</event>
<event>
 5    1  0.3261711E-002  0.1250006E+03  0.7818608E-02  0.1235068E+00
          4   -1    0    0  501    0  0.00000000000E+00  0.00000000000E+00  0.10235862566E+02  0.10314348379E+02  0.12700000000E+01 0.  1.
         -4   -1    0    0    0  501 -0.00000000000E+00 -0.00000000000E+00 -0.38009059878E+03  0.38009272051E+03  0.12700000000E+01 0.  1.
         25    2    1    2    0    0  0.00000000000E+00  0.00000000000E+00 -0.36985473622E+03  0.39040706889E+03  0.12500061414E+03 0.  0.
    9000005    1    3    3    0    0 -0.14486543855E+02  0.59963069464E+02 -0.15371702465E+03  0.16563620775E+03  0.10000000000E+01 0.  0.
    9000005    1    3    3    0    0  0.14486543855E+02 -0.59963069464E+02 -0.21613771157E+03  0.22477086113E+03  0.10000000000E+01 0.  0.
<mgrwt>
<rscale>  0 0.12500061E+03</rscale>
<asrwt>0</asrwt>
<pdfrwt beam="1">  1        4 0.15809490E-02 0.12500061E+03</pdfrwt>
<pdfrwt beam="2">  1       -4 0.58481667E-01 0.12500061E+03</pdfrwt>
<totfact> 0.65495719E+03</totfact>
</mgrwt>
</event>
<event>
 5    1  0.3261711E-002  0.1250005E+03  0.7818608E-02  0.1235068E+00
          4   -1    0    0  501    0  0.00000000000E+00  0.00000000000E+00  0.14158187996E+02  0.14215033849E+02  0.12700000000E+01 0. -1.
         -4   -1    0    0    0  501 -0.00000000000E+00 -0.00000000000E+00 -0.27529161706E+03  0.27529454648E+03  0.12700000000E+01 0. -1.
         25    2    1    2    0    0  0.00000000000E+00  0.00000000000E+00 -0.26113342906E+03  0.28950958033E+03  0.12500051732E+03 0.  0.
    9000005    1    3    3    0    0 -0.31948509765E+02  0.43524293738E+02 -0.57685603750E+02  0.79017088669E+02  0.10000000000E+01 0.  0.
    9000005    1    3    3    0    0  0.31948509765E+02 -0.43524293738E+02 -0.20344782531E+03  0.21049249166E+03  0.10000000000E+01 0.  0.
<mgrwt>
<rscale>  0 0.12500052E+03</rscale>
<asrwt>0</asrwt>
<pdfrwt beam="1">  1        4 0.21827811E-02 0.12500052E+03</pdfrwt>
<pdfrwt beam="2">  1       -4 0.42357151E-01 0.12500052E+03</pdfrwt>
<totfact> 0.76932984E+03</totfact>
</mgrwt>
</event>
<event>
 5    1  0.3261711E-002  0.1250090E+03  0.7818608E-02  0.1235055E+00
         -4   -1    0    0    0  501 -0.00000000000E+00  0.00000000000E+00  0.41193836157E+02  0.41213408465E+02  0.12700000000E+01 0. -1.
          4   -1    0    0  501    0  0.00000000000E+00 -0.00000000000E+00 -0.94793342456E+02  0.94801849529E+02  0.12700000000E+01 0. -1.
         25    2    1    2    0    0  0.00000000000E+00  0.00000000000E+00 -0.53599506299E+02  0.13601525799E+03  0.12500897300E+03 0.  0.
    9000005    1    3    3    0    0 -0.41680454619E+02  0.19685607688E+02  0.19118117573E+02  0.49912782600E+02  0.10000000000E+01 0.  0.
    9000005    1    3    3    0    0  0.41680454619E+02 -0.19685607688E+02 -0.72717623873E+02  0.86102475394E+02  0.10000000000E+01 0.  0.
<mgrwt>
<rscale>  0 0.12500897E+03</rscale>
<asrwt>0</asrwt>
<pdfrwt beam="2">  1        4 0.14585751E-01 0.12500897E+03</pdfrwt>
<pdfrwt beam="1">  1       -4 0.63396732E-02 0.12500897E+03</pdfrwt>
<totfact> 0.10214649E+04</totfact>
</mgrwt>
</event>
<event>
 5    1  0.3261711E-002  0.1249977E+03  0.7818608E-02  0.1235073E+00
         -4   -1    0    0    0  501 -0.00000000000E+00  0.00000000000E+00  0.81692466707E+02  0.81702337890E+02  0.12700000000E+01 0.  1.
          4   -1    0    0  501    0  0.00000000000E+00 -0.00000000000E+00 -0.47793551337E+02  0.47810421975E+02  0.12700000000E+01 0.  1.
         25    2    1    2    0    0  0.00000000000E+00  0.00000000000E+00  0.33898915369E+02  0.12951275987E+03  0.12499767400E+03 0.  0.
    9000005    1    3    3    0    0 -0.39016746167E+02 -0.16942847448E+02 -0.30483382196E+02  0.52341218473E+02  0.10000000000E+01 0.  0.
    9000005    1    3    3    0    0  0.39016746167E+02  0.16942847448E+02  0.64382297565E+02  0.77171541392E+02  0.10000000000E+01 0.  0.
<mgrwt>
<rscale>  0 0.12499767E+03</rscale>
<asrwt>0</asrwt>
<pdfrwt beam="2">  1        4 0.73549112E-02 0.12499767E+03</pdfrwt>
<pdfrwt beam="1">  1       -4 0.12570129E-01 0.12499767E+03</pdfrwt>
<totfact> 0.10355485E+04</totfact>
</mgrwt>
</event>
<event>
 5    1  0.3261711E-002  0.1250008E+03  0.7818608E-02  0.1235068E+00
         -4   -1    0    0    0  501 -0.00000000000E+00  0.00000000000E+00  0.96641699708E+02  0.96650044090E+02  0.12700000000E+01 0. -1.
          4   -1    0    0  501    0  0.00000000000E+00 -0.00000000000E+00 -0.40400404019E+02  0.40420360524E+02  0.12700000000E+01 0. -1.
         25    2    1    2    0    0  0.00000000000E+00  0.00000000000E+00  0.56241295689E+02  0.13707040461E+03  0.12500084992E+03 0.  0.
    9000005    1    3    3    0    0 -0.11629003458E+02  0.61279171352E+02  0.32358031818E+02  0.70273841408E+02  0.10000000000E+01 0.  0.
    9000005    1    3    3    0    0  0.11629003458E+02 -0.61279171352E+02  0.23883263871E+02  0.66796563206E+02  0.10000000000E+01 0.  0.
<mgrwt>
<rscale>  0 0.12500085E+03</rscale>
<asrwt>0</asrwt>
<pdfrwt beam="2">  1        4 0.62176239E-02 0.12500085E+03</pdfrwt>
<pdfrwt beam="1">  1       -4 0.14870131E-01 0.12500085E+03</pdfrwt>
<totfact> 0.10194419E+04</totfact>
</mgrwt>
</event>
<event>
 5    1  0.3261711E-002  0.1250022E+03  0.7818608E-02  0.1235066E+00
         -4   -1    0    0    0  501 -0.00000000000E+00  0.00000000000E+00  0.33866339483E+02  0.33890143847E+02  0.12700000000E+01 0.  1.
          4   -1    0    0  501    0  0.00000000000E+00 -0.00000000000E+00 -0.11527945467E+03  0.11528645006E+03  0.12700000000E+01 0.  1.
         25    2    1    2    0    0  0.00000000000E+00  0.00000000000E+00 -0.81413115185E+02  0.14917659391E+03  0.12500224337E+03 0.  0.
    9000005    1    3    3    0    0  0.56007146901E+02 -0.85982098171E+01 -0.72160072212E+02  0.91754050252E+02  0.10000000000E+01 0.  0.
    9000005    1    3    3    0    0 -0.56007146901E+02  0.85982098171E+01 -0.92530429729E+01  0.57422543660E+02  0.10000000000E+01 0.  0.
<mgrwt>
<rscale>  0 0.12500224E+03</rscale>
<asrwt>0</asrwt>
<pdfrwt beam="2">  1        4 0.17737670E-01 0.12500224E+03</pdfrwt>
<pdfrwt beam="1">  1       -4 0.52125754E-02 0.12500224E+03</pdfrwt>
<totfact> 0.99463063E+03</totfact>
</mgrwt>
</event>
<event>
 5    1  0.3261711E-002  0.1249973E+03  0.7818608E-02  0.1235073E+00
          4   -1    0    0  501    0  0.00000000000E+00  0.00000000000E+00  0.41352957741E+02  0.41372454772E+02  0.12700000000E+01 0. -1.
         -4   -1    0    0    0  501 -0.00000000000E+00 -0.00000000000E+00 -0.94411114671E+02  0.94419656182E+02  0.12700000000E+01 0. -1.
         25    2    1    2    0    0  0.00000000000E+00  0.00000000000E+00 -0.53058156931E+02  0.13579211095E+03  0.12499731749E+03 0.  0.
    9000005    1    3    3    0    0 -0.61834742642E+02 -0.45782891662E+01 -0.18073160507E+02  0.64592068089E+02  0.10000000000E+01 0.  0.
    9000005    1    3    3    0    0  0.61834742642E+02  0.45782891662E+01 -0.34984996424E+02  0.71200042865E+02  0.10000000000E+01 0.  0.
<mgrwt>
<rscale>  0 0.12499732E+03</rscale>
<asrwt>0</asrwt>
<pdfrwt beam="1">  1        4 0.63641503E-02 0.12499732E+03</pdfrwt>
<pdfrwt beam="2">  1       -4 0.14526944E-01 0.12499732E+03</pdfrwt>
<totfact> 0.10222020E+04</totfact>
</mgrwt>
</event>
<event>
 5    1  0.3261711E-002  0.1250049E+03  0.7818608E-02  0.1235062E+00
         -4   -1    0    0    0  501 -0.00000000000E+00  0.00000000000E+00  0.57052569265E+01  0.58449000503E+01  0.12700000000E+01 0. -1.
          4   -1    0    0  501    0  0.00000000000E+00 -0.00000000000E+00 -0.67631036405E+03  0.67631155647E+03  0.12700000000E+01 0. -1.
         25    2    1    2    0    0  0.00000000000E+00  0.00000000000E+00 -0.67060510712E+03  0.68215645652E+03  0.12500488582E+03 0.  0.
    9000005    1    3    3    0    0  0.45961346375E+02  0.42178542196E+02 -0.31482550355E+03  0.32094792797E+03  0.10000000000E+01 0.  0.
    9000005    1    3    3    0    0 -0.45961346375E+02 -0.42178542196E+02 -0.35577960357E+03  0.36120852856E+03  0.10000000000E+01 0.  0.
<mgrwt>
<rscale>  0 0.12500489E+03</rscale>
<asrwt>0</asrwt>
<pdfrwt beam="2">  1        4 0.10405852E+00 0.12500489E+03</pdfrwt>
<pdfrwt beam="1">  1       -4 0.88856587E-03 0.12500489E+03</pdfrwt>
<totfact> 0.44040833E+03</totfact>
</mgrwt>
</event>
<event>
 5    1  0.3261711E-002  0.1250003E+03  0.7818608E-02  0.1235069E+00
          4   -1    0    0  501    0  0.00000000000E+00  0.00000000000E+00  0.46115584928E+02  0.46133069194E+02  0.12700000000E+01 0.  1.
         -4   -1    0    0    0  501 -0.00000000000E+00 -0.00000000000E+00 -0.84667681523E+02  0.84677205873E+02  0.12700000000E+01 0.  1.
         25    2    1    2    0    0  0.00000000000E+00  0.00000000000E+00 -0.38552096595E+02  0.13081027507E+03  0.12500025564E+03 0.  0.
    9000005    1    3    3    0    0 -0.32009536410E+02 -0.48466290669E+02 -0.43405850459E+02  0.72516616072E+02  0.10000000000E+01 0.  0.
    9000005    1    3    3    0    0  0.32009536410E+02  0.48466290669E+02  0.48537538643E+01  0.58293658995E+02  0.10000000000E+01 0.  0.
<mgrwt>
<rscale>  0 0.12500026E+03</rscale>
<asrwt>0</asrwt>
<pdfrwt beam="1">  1        4 0.70967829E-02 0.12500026E+03</pdfrwt>
<pdfrwt beam="2">  1       -4 0.13027875E-01 0.12500026E+03</pdfrwt>
<totfact> 0.10327099E+04</totfact>
</mgrwt>
</event>
<event>
 5    1  0.3261711E-002  0.1250020E+03  0.7818608E-02  0.1235066E+00
          4   -1    0    0  501    0  0.00000000000E+00  0.00000000000E+00  0.13288369672E+03  0.13288976542E+03  0.12700000000E+01 0. -1.
         -4   -1    0    0    0  501 -0.00000000000E+00 -0.00000000000E+00 -0.29376474218E+02  0.29403913642E+02  0.12700000000E+01 0. -1.
         25    2    1    2    0    0  0.00000000000E+00  0.00000000000E+00  0.10350722250E+03  0.16229367907E+03  0.12500197260E+03 0.  0.
    9000005    1    3    3    0    0  0.39497471076E+01  0.53882137814E+02  0.92532054742E+02  0.10715440463E+03  0.10000000000E+01 0.  0.
    9000005    1    3    3    0    0 -0.39497471076E+01 -0.53882137814E+02  0.10975167762E+02  0.55139274433E+02  0.10000000000E+01 0.  0.
<mgrwt>
<rscale>  0 0.12500197E+03</rscale>
<asrwt>0</asrwt>
<pdfrwt beam="1">  1        4 0.20446223E-01 0.12500197E+03</pdfrwt>
<pdfrwt beam="2">  1       -4 0.45220352E-02 0.12500197E+03</pdfrwt>
<totfact> 0.96898100E+03</totfact>
</mgrwt>
</event>
<event>
 5    1  0.3261711E-002  0.1249998E+03  0.7818608E-02  0.1235070E+00
          4   -1    0    0  501    0  0.00000000000E+00  0.00000000000E+00  0.58950873594E+01  0.60303362240E+01  0.12700000000E+01 0.  1.
         -4   -1    0    0    0  501 -0.00000000000E+00 -0.00000000000E+00 -0.65497467751E+03  0.65497590878E+03  0.12700000000E+01 0.  1.
         25    2    1    2    0    0  0.00000000000E+00  0.00000000000E+00 -0.64907959015E+03  0.66100624500E+03  0.12499976633E+03 0.  0.
    9000005    1    3    3    0    0 -0.61888559735E+02 -0.53550878384E+01 -0.36054701875E+03  0.36586066135E+03  0.10000000000E+01 0.  0.
    9000005    1    3    3    0    0  0.61888559735E+02  0.53550878384E+01 -0.28853257140E+03  0.29514558366E+03  0.10000000000E+01 0.  0.
<mgrwt>
<rscale>  0 0.12499977E+03</rscale>
<asrwt>0</asrwt>
<pdfrwt beam="1">  1        4 0.91743551E-03 0.12499977E+03</pdfrwt>
<pdfrwt beam="2">  1       -4 0.10077578E+00 0.12499977E+03</pdfrwt>
<totfact> 0.45226709E+03</totfact>
</mgrwt>
</event>
<event>
 5    1  0.3261711E-002  0.1250003E+03  0.7818608E-02  0.1235069E+00
          4   -1    0    0  501    0  0.00000000000E+00  0.00000000000E+00  0.41636254230E+02  0.41655618665E+02  0.12700000000E+01 0. -1.
         -4   -1    0    0    0  501 -0.00000000000E+00 -0.00000000000E+00 -0.93773502654E+02  0.93782102237E+02  0.12700000000E+01 0. -1.
         25    2    1    2    0    0  0.00000000000E+00  0.00000000000E+00 -0.52137248423E+02  0.13543772090E+03  0.12500033428E+03 0.  0.
    9000005    1    3    3    0    0 -0.27000502062E+02 -0.52303738181E+02 -0.33264306608E+01  0.58964169461E+02  0.10000000000E+01 0.  0.
    9000005    1    3    3    0    0  0.27000502062E+02  0.52303738181E+02 -0.48810817763E+02  0.76473551441E+02  0.10000000000E+01 0.  0.
<mgrwt>
<rscale>  0 0.12500033E+03</rscale>
<asrwt>0</asrwt>
<pdfrwt beam="1">  1        4 0.64077287E-02 0.12500033E+03</pdfrwt>
<pdfrwt beam="2">  1       -4 0.14428844E-01 0.12500033E+03</pdfrwt>
<totfact> 0.10228776E+04</totfact>
</mgrwt>
</event>
<event>
 5    1  0.3261711E-002  0.1249997E+03  0.7818608E-02  0.1235070E+00
         -4   -1    0    0    0  501 -0.00000000000E+00  0.00000000000E+00  0.25117601239E+03  0.25117922307E+03  0.12700000000E+01 0. -1.
          4   -1    0    0  501    0  0.00000000000E+00 -0.00000000000E+00 -0.15522534276E+02  0.15574401123E+02  0.12700000000E+01 0. -1.
         25    2    1    2    0    0  0.00000000000E+00  0.00000000000E+00  0.23565347812E+03  0.26675362419E+03  0.12499973708E+03 0.  0.
    9000005    1    3    3    0    0  0.37042235726E+02 -0.18106904398E+02  0.17612418735E+02  0.44846231817E+02  0.10000000000E+01 0.  0.
    9000005    1    3    3    0    0 -0.37042235726E+02  0.18106904398E+02  0.21804105938E+03  0.22190739238E+03  0.10000000000E+01 0.  0.
<mgrwt>
<rscale>  0 0.12499974E+03</rscale>
<asrwt>0</asrwt>
<pdfrwt beam="2">  1        4 0.23923193E-02 0.12499974E+03</pdfrwt>
<pdfrwt beam="1">  1       -4 0.38646694E-01 0.12499974E+03</pdfrwt>
<totfact> 0.79968001E+03</totfact>
</mgrwt>
</event>
<event>
 5    1  0.3261711E-002  0.1250023E+03  0.7818608E-02  0.1235066E+00
          4   -1    0    0  501    0  0.00000000000E+00  0.00000000000E+00  0.15289631612E+02  0.15342285841E+02  0.12700000000E+01 0.  1.
         -4   -1    0    0    0  501 -0.00000000000E+00 -0.00000000000E+00 -0.25499949103E+03  0.25500265357E+03  0.12700000000E+01 0.  1.
         25    2    1    2    0    0  0.00000000000E+00  0.00000000000E+00 -0.23970985942E+03  0.27034493941E+03  0.12500227822E+03 0.  0.
    9000005    1    3    3    0    0  0.74057159431E+01 -0.44578467005E+02 -0.21321101782E+03  0.21794958699E+03  0.10000000000E+01 0.  0.
    9000005    1    3    3    0    0 -0.74057159431E+01  0.44578467005E+02 -0.26498841604E+02  0.52395352423E+02  0.10000000000E+01 0.  0.
<mgrwt>
<rscale>  0 0.12500228E+03</rscale>
<asrwt>0</asrwt>
<pdfrwt beam="1">  1        4 0.23565448E-02 0.12500228E+03</pdfrwt>
<pdfrwt beam="2">  1       -4 0.39234981E-01 0.12500228E+03</pdfrwt>
<totfact> 0.79471837E+03</totfact>
</mgrwt>
</event>
<event>
 5    1  0.3261711E-002  0.1249991E+03  0.7818608E-02  0.1235071E+00
         -4   -1    0    0    0  501 -0.00000000000E+00  0.00000000000E+00  0.65810443514E+02  0.65822696508E+02  0.12700000000E+01 0. -1.
          4   -1    0    0  501    0  0.00000000000E+00 -0.00000000000E+00 -0.59330628974E+02  0.59344219891E+02  0.12700000000E+01 0. -1.
         25    2    1    2    0    0  0.00000000000E+00  0.00000000000E+00  0.64798145399E+01  0.12516691640E+03  0.12499907585E+03 0.  0.
    9000005    1    3    3    0    0 -0.29745709933E+02 -0.48783369862E+02  0.28583332180E+02  0.63895471772E+02  0.10000000000E+01 0.  0.
    9000005    1    3    3    0    0  0.29745709933E+02  0.48783369862E+02 -0.22103517640E+02  0.61271444626E+02  0.10000000000E+01 0.  0.
<mgrwt>
<rscale>  0 0.12499908E+03</rscale>
<asrwt>0</asrwt>
<pdfrwt beam="2">  1        4 0.91297771E-02 0.12499908E+03</pdfrwt>
<pdfrwt beam="1">  1       -4 0.10126672E-01 0.12499908E+03</pdfrwt>
<totfact> 0.10449457E+04</totfact>
</mgrwt>
</event>
<event>
 5    1  0.3261711E-002  0.1250139E+03  0.7818608E-02  0.1235048E+00
          4   -1    0    0  501    0  0.00000000000E+00  0.00000000000E+00  0.66056902390E+02  0.66069109676E+02  0.12700000000E+01 0. -1.
         -4   -1    0    0    0  501 -0.00000000000E+00 -0.00000000000E+00 -0.59123267370E+02  0.59136905943E+02  0.12700000000E+01 0. -1.
         25    2    1    2    0    0  0.00000000000E+00  0.00000000000E+00  0.69336350202E+01  0.12520601562E+03  0.12501388344E+03 0.  0.
    9000005    1    3    3    0    0 -0.20987547466E+02 -0.51078296928E+02  0.32780353009E+02  0.64226327227E+02  0.10000000000E+01 0.  0.
    9000005    1    3    3    0    0  0.20987547466E+02  0.51078296928E+02 -0.25846717989E+02  0.60979688392E+02  0.10000000000E+01 0.  0.
<mgrwt>
<rscale>  0 0.12501388E+03</rscale>
<asrwt>0</asrwt>
<pdfrwt beam="1">  1        4 0.10164589E-01 0.12501388E+03</pdfrwt>
<pdfrwt beam="2">  1       -4 0.90978754E-02 0.12501388E+03</pdfrwt>
<totfact> 0.10445112E+04</totfact>
</mgrwt>
</event>
<event>
 5    1  0.3261711E-002  0.1250014E+03  0.7818608E-02  0.1235067E+00
          4   -1    0    0  501    0  0.00000000000E+00  0.00000000000E+00  0.22881243566E+04  0.22881247090E+04  0.12700000000E+01 0.  1.
         -4   -1    0    0    0  501 -0.00000000000E+00 -0.00000000000E+00 -0.14706346170E+01  0.19431073508E+01  0.12700000000E+01 0.  1.
         25    2    1    2    0    0  0.00000000000E+00  0.00000000000E+00  0.22866537220E+04  0.22900678164E+04  0.12500143782E+03 0.  0.
    9000005    1    3    3    0    0 -0.58612792633E+02  0.16504441404E+02  0.88587318785E+03  0.88796405389E+03  0.10000000000E+01 0.  0.
    9000005    1    3    3    0    0  0.58612792633E+02 -0.16504441404E+02  0.14007805341E+04  0.14021037625E+04  0.10000000000E+01 0.  0.
<mgrwt>
<rscale>  0 0.12500144E+03</rscale>
<asrwt>0</asrwt>
<pdfrwt beam="1">  1        4 0.35205547E+00 0.12500144E+03</pdfrwt>
<pdfrwt beam="2">  1       -4 0.26262267E-03 0.12500144E+03</pdfrwt>
<totfact> 0.65342373E+02</totfact>
</mgrwt>
</event>
<event>
 5    1  0.3261711E-002  0.1249999E+03  0.7818608E-02  0.1235069E+00
         -4   -1    0    0    0  501 -0.00000000000E+00  0.00000000000E+00  0.13908922164E+02  0.13966782585E+02  0.12700000000E+01 0. -1.
          4   -1    0    0  501    0  0.00000000000E+00 -0.00000000000E+00 -0.28020220024E+03  0.28020507833E+03  0.12700000000E+01 0. -1.
         25    2    1    2    0    0  0.00000000000E+00  0.00000000000E+00 -0.26629327808E+03  0.29417186091E+03  0.12499989521E+03 0.  0.
    9000005    1    3    3    0    0  0.35263617859E+02 -0.49933539196E+02 -0.16368276889E+03  0.17472816005E+03  0.10000000000E+01 0.  0.
    9000005    1    3    3    0    0 -0.35263617859E+02  0.49933539196E+02 -0.10261050919E+03  0.11944370087E+03  0.10000000000E+01 0.  0.
<mgrwt>
<rscale>  0 0.12499990E+03</rscale>
<asrwt>0</asrwt>
<pdfrwt beam="2">  1        4 0.43112699E-01 0.12499990E+03</pdfrwt>
<pdfrwt beam="1">  1       -4 0.21445066E-02 0.12499990E+03</pdfrwt>
<totfact> 0.76335953E+03</totfact>
</mgrwt>
</event>
<event>
 5    1  0.3261711E-002  0.1250032E+03  0.7818608E-02  0.1235064E+00
         -4   -1    0    0    0  501 -0.00000000000E+00  0.00000000000E+00  0.27371374905E+02  0.27400822327E+02  0.12700000000E+01 0.  1.
          4   -1    0    0  501    0  0.00000000000E+00 -0.00000000000E+00 -0.14261119547E+03  0.14261685024E+03  0.12700000000E+01 0.  1.
         25    2    1    2    0    0  0.00000000000E+00  0.00000000000E+00 -0.11523982056E+03  0.17001767257E+03  0.12500317093E+03 0.  0.
    9000005    1    3    3    0    0  0.38694901179E+02  0.13256816099E+02  0.66429395419E+01  0.41450780404E+02  0.10000000000E+01 0.  0.
    9000005    1    3    3    0    0 -0.38694901179E+02 -0.13256816099E+02 -0.12188276010E+03  0.12856689216E+03  0.10000000000E+01 0.  0.
<mgrwt>
<rscale>  0 0.12500317E+03</rscale>
<asrwt>0</asrwt>
<pdfrwt beam="2">  1        4 0.21942884E-01 0.12500317E+03</pdfrwt>
<pdfrwt beam="1">  1       -4 0.42136810E-02 0.12500317E+03</pdfrwt>
<totfact> 0.95438550E+03</totfact>
</mgrwt>
</event>
<event>
 5    1  0.3261711E-002  0.1250035E+03  0.7818608E-02  0.1235064E+00
         -4   -1    0    0    0  501 -0.00000000000E+00  0.00000000000E+00  0.17025137169E+02  0.17072439650E+02  0.12700000000E+01 0.  1.
          4   -1    0    0  501    0  0.00000000000E+00 -0.00000000000E+00 -0.22908574800E+03  0.22908926827E+03  0.12700000000E+01 0.  1.
         25    2    1    2    0    0  0.00000000000E+00  0.00000000000E+00 -0.21206061083E+03  0.24616170792E+03  0.12500353507E+03 0.  0.
    9000005    1    3    3    0    0 -0.46888206753E+02  0.40923141022E+02 -0.94844835873E+02  0.11344492186E+03  0.10000000000E+01 0.  0.
    9000005    1    3    3    0    0  0.46888206753E+02 -0.40923141022E+02 -0.11721577496E+03  0.13271678606E+03  0.10000000000E+01 0.  0.
<mgrwt>
<rscale>  0 0.12500354E+03</rscale>
<asrwt>0</asrwt>
<pdfrwt beam="2">  1        4 0.35247868E-01 0.12500354E+03</pdfrwt>
<pdfrwt beam="1">  1       -4 0.26231615E-02 0.12500354E+03</pdfrwt>
<totfact> 0.82881636E+03</totfact>
</mgrwt>
</event>
<event>
 5    1  0.3261711E-002  0.1249999E+03  0.7818608E-02  0.1235069E+00
          4   -1    0    0  501    0  0.00000000000E+00  0.00000000000E+00  0.21452630774E+03  0.21453006692E+03  0.12700000000E+01 0. -1.
         -4   -1    0    0    0  501 -0.00000000000E+00 -0.00000000000E+00 -0.18182625038E+02  0.18226923856E+02  0.12700000000E+01 0. -1.
         25    2    1    2    0    0  0.00000000000E+00  0.00000000000E+00  0.19634368270E+03  0.23275699077E+03  0.12499990007E+03 0.  0.
    9000005    1    3    3    0    0  0.30678049854E+02 -0.25005004639E+02  0.18822404043E+03  0.19234261721E+03  0.10000000000E+01 0.  0.
    9000005    1    3    3    0    0 -0.30678049854E+02  0.25005004639E+02  0.81196422690E+01  0.40414373562E+02  0.10000000000E+01 0.  0.
<mgrwt>
<rscale>  0 0.12499990E+03</rscale>
<asrwt>0</asrwt>
<pdfrwt beam="1">  1        4 0.33007743E-01 0.12499990E+03</pdfrwt>
<pdfrwt beam="2">  1       -4 0.28010238E-02 0.12499990E+03</pdfrwt>
<totfact> 0.84888238E+03</totfact>
</mgrwt>
</event>
<event>
 5    1  0.3261711E-002  0.1250467E+03  0.7818608E-02  0.1234996E+00
          4   -1    0    0  501    0  0.00000000000E+00  0.00000000000E+00  0.14656072517E+03  0.14656622756E+03  0.12700000000E+01 0. -1.
         -4   -1    0    0    0  501 -0.00000000000E+00 -0.00000000000E+00 -0.26651566697E+02  0.26681808548E+02  0.12700000000E+01 0. -1.
         25    2    1    2    0    0  0.00000000000E+00  0.00000000000E+00  0.11990915847E+03  0.17324803611E+03  0.12504669420E+03 0.  0.
    9000005    1    3    3    0    0  0.49743069448E+02 -0.36644266737E+02  0.46738527099E+02  0.77476868536E+02  0.10000000000E+01 0.  0.
    9000005    1    3    3    0    0 -0.49743069448E+02  0.36644266737E+02  0.73170631370E+02  0.95771167571E+02  0.10000000000E+01 0.  0.
<mgrwt>
<rscale>  0 0.12504669E+03</rscale>
<asrwt>0</asrwt>
<pdfrwt beam="1">  1        4 0.22550554E-01 0.12504669E+03</pdfrwt>
<pdfrwt beam="2">  1       -4 0.41029905E-02 0.12504669E+03</pdfrwt>
<totfact> 0.94747389E+03</totfact>
</mgrwt>
</event>
<event>
 5    1  0.3261711E-002  0.1249910E+03  0.7818608E-02  0.1235083E+00
         -4   -1    0    0    0  501 -0.00000000000E+00  0.00000000000E+00  0.10127533135E+03  0.10128329398E+03  0.12700000000E+01 0. -1.
          4   -1    0    0  501    0  0.00000000000E+00 -0.00000000000E+00 -0.38545094541E+02  0.38566011113E+02  0.12700000000E+01 0. -1.
         25    2    1    2    0    0  0.00000000000E+00  0.00000000000E+00  0.62730236806E+02  0.13984930509E+03  0.12499098177E+03 0.  0.
    9000005    1    3    3    0    0 -0.57508281417E+02 -0.99886089780E+01  0.56326609938E+02  0.81121277899E+02  0.10000000000E+01 0.  0.
    9000005    1    3    3    0    0  0.57508281417E+02  0.99886089780E+01  0.64036268675E+01  0.58728027193E+02  0.10000000000E+01 0.  0.
<mgrwt>
<rscale>  0 0.12499098E+03</rscale>
<asrwt>0</asrwt>
<pdfrwt beam="2">  1        4 0.59322360E-02 0.12499098E+03</pdfrwt>
<pdfrwt beam="1">  1       -4 0.15583042E-01 0.12499098E+03</pdfrwt>
<totfact> 0.10138770E+04</totfact>
</mgrwt>
</event>
<event>
 5    1  0.3261711E-002  0.1250012E+03  0.7818608E-02  0.1235067E+00
         -4   -1    0    0    0  501 -0.00000000000E+00  0.00000000000E+00  0.25951065958E+01  0.28892002775E+01  0.12700000000E+01 0.  1.
          4   -1    0    0  501    0  0.00000000000E+00 -0.00000000000E+00 -0.14242513009E+04  0.14242518672E+04  0.12700000000E+01 0.  1.
         25    2    1    2    0    0  0.00000000000E+00  0.00000000000E+00 -0.14216561943E+04  0.14271410674E+04  0.12500116587E+03 0.  0.
    9000005    1    3    3    0    0  0.25726419197E+02 -0.32816240693E+02 -0.17940667268E+03  0.18419149953E+03  0.10000000000E+01 0.  0.
    9000005    1    3    3    0    0 -0.25726419197E+02  0.32816240693E+02 -0.12422495217E+04  0.12429495679E+04  0.10000000000E+01 0.  0.
<mgrwt>
<rscale>  0 0.12500117E+03</rscale>
<asrwt>0</asrwt>
<pdfrwt beam="2">  1        4 0.21913766E+00 0.12500117E+03</pdfrwt>
<pdfrwt beam="1">  1       -4 0.42191445E-03 0.12500117E+03</pdfrwt>
<totfact> 0.19405468E+03</totfact>
</mgrwt>
</event>
<event>
 5    1  0.3261711E-002  0.1250150E+03  0.7818608E-02  0.1235046E+00
         -4   -1    0    0    0  501 -0.00000000000E+00  0.00000000000E+00  0.42000535439E+02  0.42019731998E+02  0.12700000000E+01 0.  1.
          4   -1    0    0  501    0  0.00000000000E+00 -0.00000000000E+00 -0.92982336942E+02  0.92991009690E+02  0.12700000000E+01 0.  1.
         25    2    1    2    0    0  0.00000000000E+00  0.00000000000E+00 -0.50981801502E+02  0.13501074169E+03  0.12501502424E+03 0.  0.
    9000005    1    3    3    0    0 -0.34646658754E+02 -0.15686928444E+02  0.28070115335E+02  0.47280038724E+02  0.10000000000E+01 0.  0.
    9000005    1    3    3    0    0  0.34646658754E+02  0.15686928444E+02 -0.79051916837E+02  0.87730702964E+02  0.10000000000E+01 0.  0.
<mgrwt>
<rscale>  0 0.12501502E+03</rscale>
<asrwt>0</asrwt>
<pdfrwt beam="2">  1        4 0.14307119E-01 0.12501502E+03</pdfrwt>
<pdfrwt beam="1">  1       -4 0.64637647E-02 0.12501502E+03</pdfrwt>
<totfact> 0.10234376E+04</totfact>
</mgrwt>
</event>
<event>
 5    1  0.3261711E-002  0.1250006E+03  0.7818608E-02  0.1235068E+00
          4   -1    0    0  501    0  0.00000000000E+00  0.00000000000E+00  0.46334595556E+02  0.46351997210E+02  0.12700000000E+01 0.  1.
         -4   -1    0    0    0  501 -0.00000000000E+00 -0.00000000000E+00 -0.84268029495E+02  0.84277599011E+02  0.12700000000E+01 0.  1.
         25    2    1    2    0    0  0.00000000000E+00  0.00000000000E+00 -0.37933433939E+02  0.13062959622E+03  0.12500058399E+03 0.  0.
    9000005    1    3    3    0    0  0.99024560770E+01 -0.58647198060E+02  0.10732245074E+01  0.59495414004E+02  0.10000000000E+01 0.  0.
    9000005    1    3    3    0    0 -0.99024560770E+01  0.58647198060E+02 -0.39006658446E+02  0.71134182218E+02  0.10000000000E+01 0.  0.
<mgrwt>
<rscale>  0 0.12500058E+03</rscale>
<asrwt>0</asrwt>
<pdfrwt beam="1">  1        4 0.71304740E-02 0.12500058E+03</pdfrwt>
<pdfrwt beam="2">  1       -4 0.12966387E-01 0.12500058E+03</pdfrwt>
<totfact> 0.10330901E+04</totfact>
</mgrwt>
</event>
<event>
 5    1  0.3261711E-002  0.1250018E+03  0.7818608E-02  0.1235066E+00
          4   -1    0    0  501    0  0.00000000000E+00  0.00000000000E+00  0.84683350946E+02  0.84692873534E+02  0.12700000000E+01 0.  1.
         -4   -1    0    0    0  501 -0.00000000000E+00 -0.00000000000E+00 -0.46108203664E+02  0.46125690728E+02  0.12700000000E+01 0.  1.
         25    2    1    2    0    0  0.00000000000E+00  0.00000000000E+00  0.38575147282E+02  0.13081856426E+03  0.12500181906E+03 0.  0.
    9000005    1    3    3    0    0  0.40461932899E+02 -0.41149030918E+02 -0.58063858227E+01  0.58009696394E+02  0.10000000000E+01 0.  0.
    9000005    1    3    3    0    0 -0.40461932899E+02  0.41149030918E+02  0.44381533105E+02  0.72808867868E+02  0.10000000000E+01 0.  0.
<mgrwt>
<rscale>  0 0.12500182E+03</rscale>
<asrwt>0</asrwt>
<pdfrwt beam="1">  1        4 0.13030285E-01 0.12500182E+03</pdfrwt>
<pdfrwt beam="2">  1       -4 0.70956475E-02 0.12500182E+03</pdfrwt>
<totfact> 0.10326557E+04</totfact>
</mgrwt>
</event>
<event>
 5    1  0.3261711E-002  0.1249889E+03  0.7818608E-02  0.1235087E+00
         -4   -1    0    0    0  501 -0.00000000000E+00  0.00000000000E+00  0.52669697872E+03  0.52669850987E+03  0.12700000000E+01 0. -1.
          4   -1    0    0  501    0  0.00000000000E+00 -0.00000000000E+00 -0.73592506573E+01  0.74680298766E+01  0.12700000000E+01 0. -1.
         25    2    1    2    0    0  0.00000000000E+00  0.00000000000E+00  0.51933772807E+03  0.53416653974E+03  0.12498886506E+03 0.  0.
    9000005    1    3    3    0    0  0.82739676344E+01  0.88776034428E+01 -0.22955808787E+01  0.12391128878E+02  0.10000000000E+01 0.  0.
    9000005    1    3    3    0    0 -0.82739676344E+01 -0.88776034428E+01  0.52163330895E+03  0.52177541087E+03  0.10000000000E+01 0.  0.
<mgrwt>
<rscale>  0 0.12498887E+03</rscale>
<asrwt>0</asrwt>
<pdfrwt beam="2">  1        4 0.11406780E-02 0.12498887E+03</pdfrwt>
<pdfrwt beam="1">  1       -4 0.81038779E-01 0.12498887E+03</pdfrwt>
<totfact> 0.53320648E+03</totfact>
</mgrwt>
</event>
<event>
 5    1  0.3261711E-002  0.1250068E+03  0.7818608E-02  0.1235059E+00
         -4   -1    0    0    0  501 -0.00000000000E+00  0.00000000000E+00  0.17717008778E+03  0.17717463956E+03  0.12700000000E+01 0.  1.
          4   -1    0    0  501    0  0.00000000000E+00 -0.00000000000E+00 -0.22027291646E+02  0.22063872671E+02  0.12700000000E+01 0.  1.
         25    2    1    2    0    0  0.00000000000E+00  0.00000000000E+00  0.15514279614E+03  0.19923851224E+03  0.12500679008E+03 0.  0.
    9000005    1    3    3    0    0 -0.59351241028E+02  0.39955960204E+01  0.10811044050E+03  0.12339935958E+03  0.10000000000E+01 0.  0.
    9000005    1    3    3    0    0  0.59351241028E+02 -0.39955960204E+01  0.47032355634E+02  0.75839152656E+02  0.10000000000E+01 0.  0.
<mgrwt>
<rscale>  0 0.12500679E+03</rscale>
<asrwt>0</asrwt>
<pdfrwt beam="2">  1        4 0.33919782E-02 0.12500679E+03</pdfrwt>
<pdfrwt beam="1">  1       -4 0.27260100E-01 0.12500679E+03</pdfrwt>
<totfact> 0.90250382E+03</totfact>
</mgrwt>
</event>
<event>
 5    1  0.3261711E-002  0.1250011E+03  0.7818608E-02  0.1235068E+00
         -4   -1    0    0    0  501 -0.00000000000E+00  0.00000000000E+00  0.20074783332E+04  0.20074787350E+04  0.12700000000E+01 0.  1.
          4   -1    0    0  501    0  0.00000000000E+00 -0.00000000000E+00 -0.17382196359E+01  0.21527441796E+01  0.12700000000E+01 0.  1.
         25    2    1    2    0    0  0.00000000000E+00  0.00000000000E+00  0.20057401136E+04  0.20096314791E+04  0.12500111455E+03 0.  0.
    9000005    1    3    3    0    0 -0.67048413824E+01 -0.26466347239E+02  0.99139392638E+02  0.10283502130E+03  0.10000000000E+01 0.  0.
    9000005    1    3    3    0    0  0.67048413824E+01  0.26466347239E+02  0.19066007210E+04  0.19067964578E+04  0.10000000000E+01 0.  0.
<mgrwt>
<rscale>  0 0.12500111E+03</rscale>
<asrwt>0</asrwt>
<pdfrwt beam="2">  1        4 0.29933701E-03 0.12500111E+03</pdfrwt>
<pdfrwt beam="1">  1       -4 0.30887350E+00 0.12500111E+03</pdfrwt>
<totfact> 0.97358651E+02</totfact>
</mgrwt>
</event>
<event>
 5    1  0.3261711E-002  0.1249969E+03  0.7818608E-02  0.1235074E+00
          4   -1    0    0  501    0  0.00000000000E+00  0.00000000000E+00  0.23538751751E+03  0.23539094354E+03  0.12700000000E+01 0. -1.
         -4   -1    0    0    0  501 -0.00000000000E+00 -0.00000000000E+00 -0.16566290717E+02  0.16614899582E+02  0.12700000000E+01 0. -1.
         25    2    1    2    0    0  0.00000000000E+00  0.00000000000E+00  0.21882122679E+03  0.25200584312E+03  0.12499686265E+03 0.  0.
    9000005    1    3    3    0    0 -0.33443117845E+02  0.52349794803E+02  0.12310090471E+03  0.13789044886E+03  0.10000000000E+01 0.  0.
    9000005    1    3    3    0    0  0.33443117845E+02 -0.52349794803E+02  0.95720322086E+02  0.11411539426E+03  0.10000000000E+01 0.  0.
<mgrwt>
<rscale>  0 0.12499686E+03</rscale>
<asrwt>0</asrwt>
<pdfrwt beam="1">  1        4 0.36217465E-01 0.12499686E+03</pdfrwt>
<pdfrwt beam="2">  1       -4 0.25526629E-02 0.12499686E+03</pdfrwt>
<totfact> 0.82046917E+03</totfact>
</mgrwt>
</event>
<event>
 5    1  0.3261711E-002  0.1250012E+03  0.7818608E-02  0.1235067E+00
          4   -1    0    0  501    0  0.00000000000E+00  0.00000000000E+00  0.59618185683E+02  0.59631711061E+02  0.12700000000E+01 0.  1.
         -4   -1    0    0    0  501 -0.00000000000E+00 -0.00000000000E+00 -0.65495240606E+02  0.65507552558E+02  0.12700000000E+01 0.  1.
         25    2    1    2    0    0  0.00000000000E+00  0.00000000000E+00 -0.58770549238E+01  0.12513926362E+03  0.12500118209E+03 0.  0.
    9000005    1    3    3    0    0 -0.61828731100E+02 -0.73113352219E+01  0.24596705890E+01  0.62316110209E+02  0.10000000000E+01 0.  0.
    9000005    1    3    3    0    0  0.61828731100E+02  0.73113352219E+01 -0.83367255128E+01  0.62823153410E+02  0.10000000000E+01 0.  0.
<mgrwt>
<rscale>  0 0.12500118E+03</rscale>
<asrwt>0</asrwt>
<pdfrwt beam="1">  1        4 0.91740161E-02 0.12500118E+03</pdfrwt>
<pdfrwt beam="2">  1       -4 0.10078178E-01 0.12500118E+03</pdfrwt>
<totfact> 0.10449559E+04</totfact>
</mgrwt>
</event>
<event>
 5    1  0.3261711E-002  0.1249996E+03  0.7818608E-02  0.1235070E+00
         -4   -1    0    0    0  501 -0.00000000000E+00  0.00000000000E+00  0.97584629574E+02  0.97592893333E+02  0.12700000000E+01 0. -1.
          4   -1    0    0  501    0  0.00000000000E+00 -0.00000000000E+00 -0.40009046615E+02  0.40029198231E+02  0.12700000000E+01 0. -1.
         25    2    1    2    0    0  0.00000000000E+00  0.00000000000E+00  0.57575582960E+02  0.13762209156E+03  0.12499956933E+03 0.  0.
    9000005    1    3    3    0    0  0.44226580616E+02 -0.38509572360E+02  0.52560953913E+02  0.78756786835E+02  0.10000000000E+01 0.  0.
    9000005    1    3    3    0    0 -0.44226580616E+02  0.38509572360E+02  0.50146290462E+01  0.58865304729E+02  0.10000000000E+01 0.  0.
<mgrwt>
<rscale>  0 0.12499957E+03</rscale>
<asrwt>0</asrwt>
<pdfrwt beam="2">  1        4 0.61574238E-02 0.12499957E+03</pdfrwt>
<pdfrwt beam="1">  1       -4 0.15015205E-01 0.12499957E+03</pdfrwt>
<totfact> 0.10183193E+04</totfact>
</mgrwt>
</event>
<event>
 5    1  0.3261711E-002  0.1249916E+03  0.7818608E-02  0.1235082E+00
          4   -1    0    0  501    0  0.00000000000E+00  0.00000000000E+00  0.13117197780E+04  0.13117203928E+04  0.12700000000E+01 0.  1.
         -4   -1    0    0    0  501 -0.00000000000E+00 -0.00000000000E+00 -0.28414979292E+01  0.31123962604E+01  0.12700000000E+01 0.  1.
         25    2    1    2    0    0  0.00000000000E+00  0.00000000000E+00  0.13088782801E+04  0.13148327891E+04  0.12499164435E+03 0.  0.
    9000005    1    3    3    0    0  0.21390674820E+02  0.29054290778E+02  0.11911345492E+04  0.11916812607E+04  0.10000000000E+01 0.  0.
    9000005    1    3    3    0    0 -0.21390674820E+02 -0.29054290778E+02  0.11774373091E+03  0.12315152842E+03  0.10000000000E+01 0.  0.
<mgrwt>
<rscale>  0 0.12499164E+03</rscale>
<asrwt>0</asrwt>
<pdfrwt beam="1">  1        4 0.20182366E+00 0.12499164E+03</pdfrwt>
<pdfrwt beam="2">  1       -4 0.45803976E-03 0.12499164E+03</pdfrwt>
<totfact> 0.21885154E+03</totfact>
</mgrwt>
</event>
<event>
 5    1  0.3261711E-002  0.1249996E+03  0.7818608E-02  0.1235070E+00
          4   -1    0    0  501    0  0.00000000000E+00  0.00000000000E+00  0.21379307085E+02  0.21416994920E+02  0.12700000000E+01 0. -1.
         -4   -1    0    0    0  501 -0.00000000000E+00 -0.00000000000E+00 -0.18250973561E+03  0.18251415422E+03  0.12700000000E+01 0. -1.
         25    2    1    2    0    0  0.00000000000E+00  0.00000000000E+00 -0.16113042853E+03  0.20393114915E+03  0.12499959438E+03 0.  0.
    9000005    1    3    3    0    0  0.58731935923E+02  0.16662511951E+02 -0.10234039853E+03  0.11917062043E+03  0.10000000000E+01 0.  0.
    9000005    1    3    3    0    0 -0.58731935923E+02 -0.16662511951E+02 -0.58790029996E+02  0.84760528718E+02  0.10000000000E+01 0.  0.
<mgrwt>
<rscale>  0 0.12499959E+03</rscale>
<asrwt>0</asrwt>
<pdfrwt beam="1">  1        4 0.32923632E-02 0.12499959E+03</pdfrwt>
<pdfrwt beam="2">  1       -4 0.28081659E-01 0.12499959E+03</pdfrwt>
<totfact> 0.89477508E+03</totfact>
</mgrwt>
</event>
<event>
 5    1  0.3261711E-002  0.1249974E+03  0.7818608E-02  0.1235073E+00
         -4   -1    0    0    0  501 -0.00000000000E+00  0.00000000000E+00  0.47971744815E+03  0.47971912924E+03  0.12700000000E+01 0. -1.
          4   -1    0    0  501    0  0.00000000000E+00 -0.00000000000E+00 -0.80912442896E+01  0.81903073297E+01  0.12700000000E+01 0. -1.
         25    2    1    2    0    0  0.00000000000E+00  0.00000000000E+00  0.47162620386E+03  0.48790943657E+03  0.12499736848E+03 0.  0.
    9000005    1    3    3    0    0 -0.38799730672E+01 -0.57885086049E+02  0.14516202957E+03  0.15632898710E+03  0.10000000000E+01 0.  0.
    9000005    1    3    3    0    0  0.38799730672E+01  0.57885086049E+02  0.32646417428E+03  0.33158044947E+03  0.10000000000E+01 0.  0.
<mgrwt>
<rscale>  0 0.12499737E+03</rscale>
<asrwt>0</asrwt>
<pdfrwt beam="2">  1        4 0.12525565E-02 0.12499737E+03</pdfrwt>
<pdfrwt beam="1">  1       -4 0.73810424E-01 0.12499737E+03</pdfrwt>
<totfact> 0.56818093E+03</totfact>
</mgrwt>
</event>
<event>
 5    1  0.3261711E-002  0.1250030E+03  0.7818608E-02  0.1235065E+00
         -4   -1    0    0    0  501 -0.00000000000E+00  0.00000000000E+00  0.37218658757E+02  0.37240320349E+02  0.12700000000E+01 0. -1.
          4   -1    0    0  501    0  0.00000000000E+00 -0.00000000000E+00 -0.10490310122E+03  0.10491078851E+03  0.12700000000E+01 0. -1.
         25    2    1    2    0    0  0.00000000000E+00  0.00000000000E+00 -0.67684442466E+02  0.14215110886E+03  0.12500301596E+03 0.  0.
    9000005    1    3    3    0    0  0.38331459245E+02  0.26485360931E+02 -0.81205020951E+02  0.93627082295E+02  0.10000000000E+01 0.  0.
    9000005    1    3    3    0    0 -0.38331459245E+02 -0.26485360931E+02  0.13520578485E+02  0.48524026565E+02  0.10000000000E+01 0.  0.
<mgrwt>
<rscale>  0 0.12500302E+03</rscale>
<asrwt>0</asrwt>
<pdfrwt beam="2">  1        4 0.16141196E-01 0.12500302E+03</pdfrwt>
<pdfrwt beam="1">  1       -4 0.57282051E-02 0.12500302E+03</pdfrwt>
<totfact> 0.10088511E+04</totfact>
</mgrwt>
</event>
<event>
 5    1  0.3261711E-002  0.1250004E+03  0.7818608E-02  0.1235069E+00
          4   -1    0    0  501    0  0.00000000000E+00  0.00000000000E+00  0.54267897266E+03  0.54268045871E+03  0.12700000000E+01 0.  1.
         -4   -1    0    0    0  501 -0.00000000000E+00 -0.00000000000E+00 -0.71406059308E+01  0.72526652383E+01  0.12700000000E+01 0.  1.
         25    2    1    2    0    0  0.00000000000E+00  0.00000000000E+00  0.53553836673E+03  0.54993312395E+03  0.12500039431E+03 0.  0.
    9000005    1    3    3    0    0 -0.20150908115E+02 -0.83317764303E+00  0.75491302248E+01  0.21557890666E+02  0.10000000000E+01 0.  0.
    9000005    1    3    3    0    0  0.20150908115E+02  0.83317764303E+00  0.52798923651E+03  0.52837523328E+03  0.10000000000E+01 0.  0.
<mgrwt>
<rscale>  0 0.12500039E+03</rscale>
<asrwt>0</asrwt>
<pdfrwt beam="1">  1        4 0.83497804E-01 0.12500039E+03</pdfrwt>
<pdfrwt beam="2">  1       -4 0.11072891E-02 0.12500039E+03</pdfrwt>
<totfact> 0.52188140E+03</totfact>
</mgrwt>
</event>
<event>
 5    1  0.3261711E-002  0.1250001E+03  0.7818608E-02  0.1235069E+00
         -4   -1    0    0    0  501 -0.00000000000E+00  0.00000000000E+00  0.47536840240E+01  0.49204076864E+01  0.12700000000E+01 0.  1.
          4   -1    0    0  501    0  0.00000000000E+00 -0.00000000000E+00 -0.80740369328E+03  0.80740469210E+03  0.12700000000E+01 0.  1.
         25    2    1    2    0    0  0.00000000000E+00  0.00000000000E+00 -0.80265000925E+03  0.81232509978E+03  0.12500012152E+03 0.  0.
    9000005    1    3    3    0    0  0.20968886635E+02 -0.53745644994E+02 -0.55742241183E+03  0.56040077959E+03  0.10000000000E+01 0.  0.
    9000005    1    3    3    0    0 -0.20968886635E+02  0.53745644994E+02 -0.24522759743E+03  0.25192432019E+03  0.10000000000E+01 0.  0.
<mgrwt>
<rscale>  0 0.12500012E+03</rscale>
<asrwt>0</asrwt>
<pdfrwt beam="2">  1        4 0.12422875E+00 0.12500012E+03</pdfrwt>
<pdfrwt beam="1">  1       -4 0.74423838E-03 0.12500012E+03</pdfrwt>
<totfact> 0.37720320E+03</totfact>
</mgrwt>
</event>
<event>
 5    1  0.3261711E-002  0.1250026E+03  0.7818608E-02  0.1235065E+00
          4   -1    0    0  501    0  0.00000000000E+00  0.00000000000E+00  0.40775440438E+03  0.40775638216E+03  0.12700000000E+01 0.  1.
         -4   -1    0    0    0  501 -0.00000000000E+00 -0.00000000000E+00 -0.95362027243E+01  0.96203982453E+01  0.12700000000E+01 0.  1.
         25    2    1    2    0    0  0.00000000000E+00  0.00000000000E+00  0.39821820166E+03  0.41737678041E+03  0.12500256274E+03 0.  0.
    9000005    1    3    3    0    0  0.44923072296E+02  0.41606629781E+02  0.15737680546E+03  0.16887170563E+03  0.10000000000E+01 0.  0.
    9000005    1    3    3    0    0 -0.44923072296E+02 -0.41606629781E+02  0.24084139620E+03  0.24850507477E+03  0.10000000000E+01 0.  0.
<mgrwt>
<rscale>  0 0.12500256E+03</rscale>
<asrwt>0</asrwt>
<pdfrwt beam="1">  1        4 0.62738050E-01 0.12500256E+03</pdfrwt>
<pdfrwt beam="2">  1       -4 0.14737374E-02 0.12500256E+03</pdfrwt>
<totfact> 0.62893576E+03</totfact>
</mgrwt>
</event>
<event>
 5    1  0.3261711E-002  0.1249947E+03  0.7818608E-02  0.1235078E+00
          4   -1    0    0  501    0  0.00000000000E+00  0.00000000000E+00  0.12116194593E+04  0.12116201249E+04  0.12700000000E+01 0.  1.
         -4   -1    0    0    0  501 -0.00000000000E+00 -0.00000000000E+00 -0.30979463503E+01  0.33481594331E+01  0.12700000000E+01 0.  1.
         25    2    1    2    0    0  0.00000000000E+00  0.00000000000E+00  0.12085215130E+04  0.12149682843E+04  0.12499473855E+03 0.  0.
    9000005    1    3    3    0    0  0.12645443476E+02 -0.48705666729E+02  0.96440162508E+03  0.96571405896E+03  0.10000000000E+01 0.  0.
    9000005    1    3    3    0    0 -0.12645443476E+02  0.48705666729E+02  0.24411988787E+03  0.24925422538E+03  0.10000000000E+01 0.  0.
<mgrwt>
<rscale>  0 0.12499474E+03</rscale>
<asrwt>0</asrwt>
<pdfrwt beam="1">  1        4 0.18642240E+00 0.12499474E+03</pdfrwt>
<pdfrwt beam="2">  1       -4 0.49590520E-03 0.12499474E+03</pdfrwt>
<totfact> 0.24327061E+03</totfact>
</mgrwt>
</event>
<event>
 5    1  0.3261711E-002  0.1250006E+03  0.7818608E-02  0.1235068E+00
          4   -1    0    0  501    0  0.00000000000E+00  0.00000000000E+00  0.44536097040E+02  0.44554201143E+02  0.12700000000E+01 0.  1.
         -4   -1    0    0    0  501 -0.00000000000E+00 -0.00000000000E+00 -0.87670097541E+02  0.87679295748E+02  0.12700000000E+01 0.  1.
         25    2    1    2    0    0  0.00000000000E+00  0.00000000000E+00 -0.43134000501E+02  0.13223349689E+03  0.12500062280E+03 0.  0.
    9000005    1    3    3    0    0 -0.48961412196E+02 -0.38467368606E+02 -0.15936368268E+02  0.64280060402E+02  0.10000000000E+01 0.  0.
    9000005    1    3    3    0    0  0.48961412196E+02  0.38467368606E+02 -0.27197632233E+02  0.67953436489E+02  0.10000000000E+01 0.  0.
<mgrwt>
<rscale>  0 0.12500062E+03</rscale>
<asrwt>0</asrwt>
<pdfrwt beam="1">  1        4 0.68538075E-02 0.12500062E+03</pdfrwt>
<pdfrwt beam="2">  1       -4 0.13489807E-01 0.12500062E+03</pdfrwt>
<totfact> 0.10296572E+04</totfact>
</mgrwt>
</event>
<event>
 5    1  0.3261711E-002  0.1250005E+03  0.7818608E-02  0.1235069E+00
         -4   -1    0    0    0  501 -0.00000000000E+00  0.00000000000E+00  0.13663461082E+02  0.13722356530E+02  0.12700000000E+01 0. -1.
          4   -1    0    0  501    0  0.00000000000E+00 -0.00000000000E+00 -0.28521722782E+03  0.28522005530E+03  0.12700000000E+01 0. -1.
         25    2    1    2    0    0  0.00000000000E+00  0.00000000000E+00 -0.27155376674E+03  0.29894241183E+03  0.12500046944E+03 0.  0.
    9000005    1    3    3    0    0  0.48923887169E+02  0.11588665775E+02 -0.22453570233E+03  0.23009807807E+03  0.10000000000E+01 0.  0.
    9000005    1    3    3    0    0 -0.48923887169E+02 -0.11588665775E+02 -0.47018064406E+02  0.68844333758E+02  0.10000000000E+01 0.  0.
<mgrwt>
<rscale>  0 0.12500047E+03</rscale>
<asrwt>0</asrwt>
<pdfrwt beam="2">  1        4 0.43884317E-01 0.12500047E+03</pdfrwt>
<pdfrwt beam="1">  1       -4 0.21068191E-02 0.12500047E+03</pdfrwt>
<totfact> 0.75730905E+03</totfact>
</mgrwt>
</event>
<event>
 5    1  0.3261711E-002  0.1250008E+03  0.7818608E-02  0.1235068E+00
         -4   -1    0    0    0  501 -0.00000000000E+00  0.00000000000E+00  0.10188202993E+02  0.10267053143E+02  0.12700000000E+01 0. -1.
          4   -1    0    0  501    0  0.00000000000E+00 -0.00000000000E+00 -0.38185629385E+03  0.38185840577E+03  0.12700000000E+01 0. -1.
         25    2    1    2    0    0  0.00000000000E+00  0.00000000000E+00 -0.37166809086E+03  0.39212545891E+03  0.12500082304E+03 0.  0.
    9000005    1    3    3    0    0  0.42706078454E+02  0.71096596416E+00 -0.42731673143E+02  0.60426074663E+02  0.10000000000E+01 0.  0.
    9000005    1    3    3    0    0 -0.42706078454E+02 -0.71096596416E+00 -0.32893641772E+03  0.33169938425E+03  0.10000000000E+01 0.  0.
<mgrwt>
<rscale>  0 0.12500082E+03</rscale>
<asrwt>0</asrwt>
<pdfrwt beam="2">  1        4 0.58753339E-01 0.12500082E+03</pdfrwt>
<pdfrwt beam="1">  1       -4 0.15736440E-02 0.12500082E+03</pdfrwt>
<totfact> 0.65324749E+03</totfact>
</mgrwt>
</event>
<event>
 5    1  0.3261711E-002  0.1250018E+03  0.7818608E-02  0.1235067E+00
         -4   -1    0    0    0  501 -0.00000000000E+00  0.00000000000E+00  0.10064231505E+03  0.10065032776E+03  0.12700000000E+01 0.  1.
          4   -1    0    0  501    0  0.00000000000E+00 -0.00000000000E+00 -0.38794348396E+02  0.38815130651E+02  0.12700000000E+01 0.  1.
         25    2    1    2    0    0  0.00000000000E+00  0.00000000000E+00  0.61847966655E+02  0.13946545841E+03  0.12500177243E+03 0.  0.
    9000005    1    3    3    0    0 -0.54421084039E+02 -0.12676557120E+02  0.62144098404E+02  0.83577738991E+02  0.10000000000E+01 0.  0.
    9000005    1    3    3    0    0  0.54421084039E+02  0.12676557120E+02 -0.29613174856E+00  0.55887719424E+02  0.10000000000E+01 0.  0.
<mgrwt>
<rscale>  0 0.12500177E+03</rscale>
<asrwt>0</asrwt>
<pdfrwt beam="2">  1        4 0.59705764E-02 0.12500177E+03</pdfrwt>
<pdfrwt beam="1">  1       -4 0.15485648E-01 0.12500177E+03</pdfrwt>
<totfact> 0.10144271E+04</totfact>
</mgrwt>
</event>
<event>
 5    1  0.3261711E-002  0.1250004E+03  0.7818608E-02  0.1235069E+00
          4   -1    0    0  501    0  0.00000000000E+00  0.00000000000E+00  0.21828188840E+04  0.21828192535E+04  0.12700000000E+01 0.  1.
         -4   -1    0    0    0  501 -0.00000000000E+00 -0.00000000000E+00 -0.15638183919E+01  0.20145540357E+01  0.12700000000E+01 0.  1.
         25    2    1    2    0    0  0.00000000000E+00  0.00000000000E+00  0.21812550657E+04  0.21848338075E+04  0.12500042043E+03 0.  0.
    9000005    1    3    3    0    0  0.46254748100E+01  0.29048451704E+02  0.20543425657E+04  0.20545533784E+04  0.10000000000E+01 0.  0.
    9000005    1    3    3    0    0 -0.46254748100E+01 -0.29048451704E+02  0.12691249994E+03  0.13028042909E+03  0.10000000000E+01 0.  0.
<mgrwt>
<rscale>  0 0.12500042E+03</rscale>
<asrwt>0</asrwt>
<pdfrwt beam="1">  1        4 0.33585412E+00 0.12500042E+03</pdfrwt>
<pdfrwt beam="2">  1       -4 0.27528691E-03 0.12500042E+03</pdfrwt>
<totfact> 0.76374137E+02</totfact>
</mgrwt>
</event>
<event>
 5    1  0.3261711E-002  0.1250031E+03  0.7818608E-02  0.1235064E+00
         -4   -1    0    0    0  501 -0.00000000000E+00  0.00000000000E+00  0.11835698339E+02  0.11903640417E+02  0.12700000000E+01 0. -1.
          4   -1    0    0  501    0  0.00000000000E+00 -0.00000000000E+00 -0.32904204243E+03  0.32904449333E+03  0.12700000000E+01 0. -1.
         25    2    1    2    0    0  0.00000000000E+00  0.00000000000E+00 -0.31720634410E+03  0.34094813374E+03  0.12500306064E+03 0.  0.
    9000005    1    3    3    0    0  0.11020761917E+02  0.21354195202E+02 -0.31595006966E+03  0.31686417495E+03  0.10000000000E+01 0.  0.
    9000005    1    3    3    0    0 -0.11020761917E+02 -0.21354195202E+02 -0.12562744345E+01  0.24083958798E+02  0.10000000000E+01 0.  0.
<mgrwt>
<rscale>  0 0.12500306E+03</rscale>
<asrwt>0</asrwt>
<pdfrwt beam="2">  1        4 0.50627261E-01 0.12500306E+03</pdfrwt>
<pdfrwt beam="1">  1       -4 0.18262918E-02 0.12500306E+03</pdfrwt>
<totfact> 0.70727197E+03</totfact>
</mgrwt>
</event>
<event>
 5    1  0.3261711E-002  0.1249994E+03  0.7818608E-02  0.1235070E+00
          4   -1    0    0  501    0  0.00000000000E+00  0.00000000000E+00  0.10303473045E+03  0.10304255712E+03  0.12700000000E+01 0.  1.
         -4   -1    0    0    0  501 -0.00000000000E+00 -0.00000000000E+00 -0.37891705795E+02  0.37912982843E+02  0.12700000000E+01 0.  1.
         25    2    1    2    0    0  0.00000000000E+00  0.00000000000E+00  0.65143024651E+02  0.14095553996E+03  0.12499940234E+03 0.  0.
    9000005    1    3    3    0    0  0.54612963265E+02 -0.68445187939E+01 -0.79986013983E+00  0.55055090322E+02  0.10000000000E+01 0.  0.
    9000005    1    3    3    0    0 -0.54612963265E+02  0.68445187939E+01  0.65942884791E+02  0.85900449642E+02  0.10000000000E+01 0.  0.
<mgrwt>
<rscale>  0 0.12499940E+03</rscale>
<asrwt>0</asrwt>
<pdfrwt beam="1">  1        4 0.15853736E-01 0.12499940E+03</pdfrwt>
<pdfrwt beam="2">  1       -4 0.58317319E-02 0.12499940E+03</pdfrwt>
<totfact> 0.10113956E+04</totfact>
</mgrwt>
</event>
<event>
 5    1  0.3261711E-002  0.1249980E+03  0.7818608E-02  0.1235072E+00
         -4   -1    0    0    0  501 -0.00000000000E+00  0.00000000000E+00  0.42424393034E+02  0.42443397888E+02  0.12700000000E+01 0.  1.
          4   -1    0    0  501    0  0.00000000000E+00 -0.00000000000E+00 -0.92028579167E+02  0.92037341789E+02  0.12700000000E+01 0.  1.
         25    2    1    2    0    0  0.00000000000E+00  0.00000000000E+00 -0.49604186133E+02  0.13448073968E+03  0.12499797623E+03 0.  0.
    9000005    1    3    3    0    0 -0.57794986537E+01  0.48938624517E+02 -0.66145659901E+02  0.82490241230E+02  0.10000000000E+01 0.  0.
    9000005    1    3    3    0    0  0.57794986537E+01 -0.48938624517E+02  0.16541473768E+02  0.51990498447E+02  0.10000000000E+01 0.  0.
<mgrwt>
<rscale>  0 0.12499798E+03</rscale>
<asrwt>0</asrwt>
<pdfrwt beam="2">  1        4 0.14160379E-01 0.12499798E+03</pdfrwt>
<pdfrwt beam="1">  1       -4 0.65289656E-02 0.12499798E+03</pdfrwt>
<totfact> 0.10249495E+04</totfact>
</mgrwt>
</event>
<event>
 5    1  0.3261711E-002  0.1249986E+03  0.7818608E-02  0.1235071E+00
         -4   -1    0    0    0  501 -0.00000000000E+00  0.00000000000E+00  0.99946757657E+01  0.10075040628E+02  0.12700000000E+01 0. -1.
          4   -1    0    0  501    0  0.00000000000E+00 -0.00000000000E+00 -0.38917820693E+03  0.38918027911E+03  0.12700000000E+01 0. -1.
         25    2    1    2    0    0  0.00000000000E+00  0.00000000000E+00 -0.37918353116E+03  0.39925531974E+03  0.12499864013E+03 0.  0.
    9000005    1    3    3    0    0  0.28869847602E+02 -0.53431073079E+02 -0.23662365507E+03  0.24429511213E+03  0.10000000000E+01 0.  0.
    9000005    1    3    3    0    0 -0.28869847602E+02  0.53431073079E+02 -0.14255987609E+03  0.15496020761E+03  0.10000000000E+01 0.  0.
<mgrwt>
<rscale>  0 0.12499864E+03</rscale>
<asrwt>0</asrwt>
<pdfrwt beam="2">  1        4 0.59879900E-01 0.12499864E+03</pdfrwt>
<pdfrwt beam="1">  1       -4 0.15439840E-02 0.12499864E+03</pdfrwt>
<totfact> 0.64627226E+03</totfact>
</mgrwt>
</event>
<event>
 5    1  0.3261711E-002  0.1250020E+03  0.7818608E-02  0.1235066E+00
          4   -1    0    0  501    0  0.00000000000E+00  0.00000000000E+00  0.22267578453E+02  0.22303765381E+02  0.12700000000E+01 0.  1.
         -4   -1    0    0    0  501 -0.00000000000E+00 -0.00000000000E+00 -0.17524792354E+03  0.17525252525E+03  0.12700000000E+01 0.  1.
         25    2    1    2    0    0  0.00000000000E+00  0.00000000000E+00 -0.15298034509E+03  0.19755629063E+03  0.12500200792E+03 0.  0.
    9000005    1    3    3    0    0  0.27442617180E+02  0.30893642875E+02 -0.23977160123E+01  0.41403664691E+02  0.10000000000E+01 0.  0.
    9000005    1    3    3    0    0 -0.27442617180E+02 -0.30893642875E+02 -0.15058262907E+03  0.15615262594E+03  0.10000000000E+01 0.  0.
<mgrwt>
<rscale>  0 0.12500201E+03</rscale>
<asrwt>0</asrwt>
<pdfrwt beam="1">  1        4 0.34289190E-02 0.12500201E+03</pdfrwt>
<pdfrwt beam="2">  1       -4 0.26964356E-01 0.12500201E+03</pdfrwt>
<totfact> 0.90544844E+03</totfact>
</mgrwt>
</event>
<event>
 5    1  0.3261711E-002  0.1250015E+03  0.7818608E-02  0.1235067E+00
          4   -1    0    0  501    0  0.00000000000E+00  0.00000000000E+00  0.13511066978E+02  0.13570623820E+02  0.12700000000E+01 0. -1.
         -4   -1    0    0    0  501 -0.00000000000E+00 -0.00000000000E+00 -0.28842494724E+03  0.28842774327E+03  0.12700000000E+01 0. -1.
         25    2    1    2    0    0  0.00000000000E+00  0.00000000000E+00 -0.27491388026E+03  0.30199836709E+03  0.12500148866E+03 0.  0.
    9000005    1    3    3    0    0  0.39707051166E+00  0.46298921748E+02 -0.36055885618E+02  0.58692203125E+02  0.10000000000E+01 0.  0.
    9000005    1    3    3    0    0 -0.39707051166E+00 -0.46298921748E+02 -0.23885799464E+03  0.24330616397E+03  0.10000000000E+01 0.  0.
<mgrwt>
<rscale>  0 0.12500149E+03</rscale>
<asrwt>0</asrwt>
<pdfrwt beam="1">  1        4 0.20834223E-02 0.12500149E+03</pdfrwt>
<pdfrwt beam="2">  1       -4 0.44377860E-01 0.12500149E+03</pdfrwt>
<totfact> 0.75346361E+03</totfact>
</mgrwt>
</event>
<event>
 5    1  0.3261711E-002  0.1250007E+03  0.7818608E-02  0.1235068E+00
         -4   -1    0    0    0  501 -0.00000000000E+00  0.00000000000E+00  0.13044926413E+02  0.13106601585E+02  0.12700000000E+01 0.  1.
          4   -1    0    0  501    0  0.00000000000E+00 -0.00000000000E+00 -0.29867989903E+03  0.29868259907E+03  0.12700000000E+01 0.  1.
         25    2    1    2    0    0  0.00000000000E+00  0.00000000000E+00 -0.28563497262E+03  0.31178920066E+03  0.12500067224E+03 0.  0.
    9000005    1    3    3    0    0  0.23196490467E+02 -0.46263412299E+02 -0.55448892980E+02  0.75854862865E+02  0.10000000000E+01 0.  0.
    9000005    1    3    3    0    0 -0.23196490467E+02  0.46263412299E+02 -0.23018607964E+03  0.23593433779E+03  0.10000000000E+01 0.  0.
<mgrwt>
<rscale>  0 0.12500067E+03</rscale>
<asrwt>0</asrwt>
<pdfrwt beam="2">  1        4 0.45955700E-01 0.12500067E+03</pdfrwt>
<pdfrwt beam="1">  1       -4 0.20118639E-02 0.12500067E+03</pdfrwt>
<totfact> 0.74142322E+03</totfact>
</mgrwt>
</event>
<event>
 5    1  0.3261711E-002  0.1249977E+03  0.7818608E-02  0.1235073E+00
         -4   -1    0    0    0  501 -0.00000000000E+00  0.00000000000E+00  0.25664094663E+02  0.25695498728E+02  0.12700000000E+01 0. -1.
          4   -1    0    0  501    0  0.00000000000E+00 -0.00000000000E+00 -0.15207409442E+03  0.15207939734E+03  0.12700000000E+01 0. -1.
         25    2    1    2    0    0  0.00000000000E+00  0.00000000000E+00 -0.12640999976E+03  0.17777489606E+03  0.12499770250E+03 0.  0.
    9000005    1    3    3    0    0 -0.11770268395E+02 -0.59682957667E+02 -0.83543903548E+02  0.10334978701E+03  0.10000000000E+01 0.  0.
    9000005    1    3    3    0    0  0.11770268395E+02  0.59682957667E+02 -0.42866096211E+02  0.74425109059E+02  0.10000000000E+01 0.  0.
<mgrwt>
<rscale>  0 0.12499770E+03</rscale>
<asrwt>0</asrwt>
<pdfrwt beam="2">  1        4 0.23398838E-01 0.12499770E+03</pdfrwt>
<pdfrwt beam="1">  1       -4 0.39511460E-02 0.12499770E+03</pdfrwt>
<totfact> 0.94023914E+03</totfact>
</mgrwt>
</event>
<event>
 5    1  0.3261711E-002  0.1250061E+03  0.7818608E-02  0.1235060E+00
          4   -1    0    0  501    0  0.00000000000E+00  0.00000000000E+00  0.20190436066E+02  0.20230338814E+02  0.12700000000E+01 0. -1.
         -4   -1    0    0    0  501 -0.00000000000E+00 -0.00000000000E+00 -0.19325610600E+03  0.19326027891E+03  0.12700000000E+01 0. -1.
         25    2    1    2    0    0  0.00000000000E+00  0.00000000000E+00 -0.17306566993E+03  0.21349061773E+03  0.12500607085E+03 0.  0.
    9000005    1    3    3    0    0 -0.16700534645E+02 -0.13025323088E+02 -0.18694846259E+03  0.18814700254E+03  0.10000000000E+01 0.  0.
    9000005    1    3    3    0    0  0.16700534645E+02  0.13025323088E+02  0.13882792657E+02  0.25343615191E+02  0.10000000000E+01 0.  0.
<mgrwt>
<rscale>  0 0.12500607E+03</rscale>
<asrwt>0</asrwt>
<pdfrwt beam="1">  1        4 0.31096115E-02 0.12500607E+03</pdfrwt>
<pdfrwt beam="2">  1       -4 0.29735098E-01 0.12500607E+03</pdfrwt>
<totfact> 0.87897046E+03</totfact>
</mgrwt>
</event>
<event>
 5    1  0.3261711E-002  0.1250003E+03  0.7818608E-02  0.1235069E+00
         -4   -1    0    0    0  501 -0.00000000000E+00  0.00000000000E+00  0.35077777953E+03  0.35078007856E+03  0.12700000000E+01 0. -1.
          4   -1    0    0  501    0  0.00000000000E+00 -0.00000000000E+00 -0.11097459888E+02  0.11169893283E+02  0.12700000000E+01 0. -1.
         25    2    1    2    0    0  0.00000000000E+00  0.00000000000E+00  0.33968031964E+03  0.36194997184E+03  0.12500025025E+03 0.  0.
    9000005    1    3    3    0    0 -0.45825501677E+02 -0.24904785197E+02  0.26951930384E+03  0.27452118328E+03  0.10000000000E+01 0.  0.
    9000005    1    3    3    0    0  0.45825501677E+02  0.24904785197E+02  0.70161015802E+02  0.87428788554E+02  0.10000000000E+01 0.  0.
<mgrwt>
<rscale>  0 0.12500025E+03</rscale>
<asrwt>0</asrwt>
<pdfrwt beam="2">  1        4 0.17130500E-02 0.12500025E+03</pdfrwt>
<pdfrwt beam="1">  1       -4 0.53971566E-01 0.12500025E+03</pdfrwt>
<totfact> 0.68429231E+03</totfact>
</mgrwt>
</event>
<event>
 5    1  0.3261711E-002  0.1250024E+03  0.7818608E-02  0.1235066E+00
          4   -1    0    0  501    0  0.00000000000E+00  0.00000000000E+00  0.24797762925E+02  0.24830262707E+02  0.12700000000E+01 0.  1.
         -4   -1    0    0    0  501 -0.00000000000E+00 -0.00000000000E+00 -0.15739199199E+03  0.15739711574E+03  0.12700000000E+01 0.  1.
         25    2    1    2    0    0  0.00000000000E+00  0.00000000000E+00 -0.13259422907E+03  0.18222737845E+03  0.12500235147E+03 0.  0.
    9000005    1    3    3    0    0 -0.29498410386E+01 -0.47580418959E+01  0.24438631961E+02  0.25091577410E+02  0.10000000000E+01 0.  0.
    9000005    1    3    3    0    0  0.29498410386E+01  0.47580418959E+01 -0.15703286103E+03  0.15713580104E+03  0.10000000000E+01 0.  0.
<mgrwt>
<rscale>  0 0.12500235E+03</rscale>
<asrwt>0</asrwt>
<pdfrwt beam="1">  1        4 0.38179347E-02 0.12500235E+03</pdfrwt>
<pdfrwt beam="2">  1       -4 0.24217046E-01 0.12500235E+03</pdfrwt>
<totfact> 0.93212684E+03</totfact>
</mgrwt>
</event>
<event>
 5    1  0.3261711E-002  0.1250364E+03  0.7818608E-02  0.1235012E+00
         -4   -1    0    0    0  501 -0.00000000000E+00  0.00000000000E+00  0.63558655172E+01  0.64815064971E+01  0.12700000000E+01 0. -1.
          4   -1    0    0  501    0  0.00000000000E+00 -0.00000000000E+00 -0.60880298936E+03  0.60880431401E+03  0.12700000000E+01 0. -1.
         25    2    1    2    0    0  0.00000000000E+00  0.00000000000E+00 -0.60244712384E+03  0.61528582050E+03  0.12503641025E+03 0.  0.
    9000005    1    3    3    0    0 -0.23907718891E+02  0.51572117195E+02 -0.42919069515E+03  0.43293985160E+03  0.10000000000E+01 0.  0.
    9000005    1    3    3    0    0  0.23907718891E+02 -0.51572117195E+02 -0.17325642869E+03  0.18234596891E+03  0.10000000000E+01 0.  0.
<mgrwt>
<rscale>  0 0.12503641E+03</rscale>
<asrwt>0</asrwt>
<pdfrwt beam="2">  1        4 0.93671720E-01 0.12503641E+03</pdfrwt>
<pdfrwt beam="1">  1       -4 0.98759252E-03 0.12503641E+03</pdfrwt>
<totfact> 0.47878521E+03</totfact>
</mgrwt>
</event>
<event>
 5    1  0.3261711E-002  0.1250026E+03  0.7818608E-02  0.1235065E+00
         -4   -1    0    0    0  501 -0.00000000000E+00  0.00000000000E+00  0.37619103144E+02  0.37640534286E+02  0.12700000000E+01 0. -1.
          4   -1    0    0  501    0  0.00000000000E+00 -0.00000000000E+00 -0.10378627471E+03  0.10379404472E+03  0.12700000000E+01 0. -1.
         25    2    1    2    0    0  0.00000000000E+00  0.00000000000E+00 -0.66167171569E+02  0.14143457900E+03  0.12500258215E+03 0.  0.
    9000005    1    3    3    0    0 -0.48002004140E+02  0.22375119476E+02  0.44522462914E+01  0.53156945642E+02  0.10000000000E+01 0.  0.
    9000005    1    3    3    0    0  0.48002004140E+02 -0.22375119476E+02 -0.70619417861E+02  0.88277633362E+02  0.10000000000E+01 0.  0.
<mgrwt>
<rscale>  0 0.12500258E+03</rscale>
<asrwt>0</asrwt>
<pdfrwt beam="2">  1        4 0.15969365E-01 0.12500258E+03</pdfrwt>
<pdfrwt beam="1">  1       -4 0.57898006E-02 0.12500258E+03</pdfrwt>
<totfact> 0.10103352E+04</totfact>
</mgrwt>
</event>
<event>
 5    1  0.3261711E-002  0.1250048E+03  0.7818608E-02  0.1235062E+00
         -4   -1    0    0    0  501 -0.00000000000E+00  0.00000000000E+00  0.19775541182E+02  0.19816279395E+02  0.12700000000E+01 0. -1.
          4   -1    0    0  501    0  0.00000000000E+00 -0.00000000000E+00 -0.19729851395E+03  0.19730260137E+03  0.12700000000E+01 0. -1.
         25    2    1    2    0    0  0.00000000000E+00  0.00000000000E+00 -0.17752297277E+03  0.21711888076E+03  0.12500481000E+03 0.  0.
    9000005    1    3    3    0    0  0.21075232565E+02 -0.71093715605E+01  0.12676745527E+02  0.25620469723E+02  0.10000000000E+01 0.  0.
    9000005    1    3    3    0    0 -0.21075232565E+02  0.71093715605E+01 -0.19019971829E+03  0.19149841104E+03  0.10000000000E+01 0.  0.
<mgrwt>
<rscale>  0 0.12500481E+03</rscale>
<asrwt>0</asrwt>
<pdfrwt beam="2">  1        4 0.30357064E-01 0.12500481E+03</pdfrwt>
<pdfrwt beam="1">  1       -4 0.30458392E-02 0.12500481E+03</pdfrwt>
<totfact> 0.87316929E+03</totfact>
</mgrwt>
</event>
<event>
 5    1  0.3261711E-002  0.1249998E+03  0.7818608E-02  0.1235070E+00
         -4   -1    0    0    0  501 -0.00000000000E+00  0.00000000000E+00  0.73000209898E+02  0.73011256290E+02  0.12700000000E+01 0.  1.
          4   -1    0    0  501    0  0.00000000000E+00 -0.00000000000E+00 -0.53487274077E+02  0.53502349371E+02  0.12700000000E+01 0.  1.
         25    2    1    2    0    0  0.00000000000E+00  0.00000000000E+00  0.19512935821E+02  0.12651360566E+03  0.12499975101E+03 0.  0.
    9000005    1    3    3    0    0  0.51714215849E+02 -0.21992823894E+02 -0.17909356430E+02  0.58989740391E+02  0.10000000000E+01 0.  0.
    9000005    1    3    3    0    0 -0.51714215849E+02  0.21992823894E+02  0.37422292251E+02  0.67523865270E+02  0.10000000000E+01 0.  0.
<mgrwt>
<rscale>  0 0.12499975E+03</rscale>
<asrwt>0</asrwt>
<pdfrwt beam="2">  1        4 0.82308207E-02 0.12499975E+03</pdfrwt>
<pdfrwt beam="1">  1       -4 0.11232811E-01 0.12499975E+03</pdfrwt>
<totfact> 0.10419790E+04</totfact>
</mgrwt>
</event>
<event>
 5    1  0.3261711E-002  0.1249991E+03  0.7818608E-02  0.1235071E+00
          4   -1    0    0  501    0  0.00000000000E+00  0.00000000000E+00  0.48353924345E+01  0.49993919626E+01  0.12700000000E+01 0. -1.
         -4   -1    0    0    0  501 -0.00000000000E+00 -0.00000000000E+00 -0.79419789461E+03  0.79419891003E+03  0.12700000000E+01 0. -1.
         25    2    1    2    0    0  0.00000000000E+00  0.00000000000E+00 -0.78936250217E+03  0.79919830200E+03  0.12499906430E+03 0.  0.
    9000005    1    3    3    0    0 -0.40265376467E+01  0.62340765218E+02 -0.40500554694E+03  0.40979638489E+03  0.10000000000E+01 0.  0.
    9000005    1    3    3    0    0  0.40265376467E+01 -0.62340765218E+02 -0.38435695523E+03  0.38940191711E+03  0.10000000000E+01 0.  0.
<mgrwt>
<rscale>  0 0.12499906E+03</rscale>
<asrwt>0</asrwt>
<pdfrwt beam="1">  1        4 0.75660061E-03 0.12499906E+03</pdfrwt>
<pdfrwt beam="2">  1       -4 0.12219688E+00 0.12499906E+03</pdfrwt>
<totfact> 0.38301351E+03</totfact>
</mgrwt>
</event>
<event>
 5    1  0.3261711E-002  0.1249885E+03  0.7818608E-02  0.1235087E+00
          4   -1    0    0  501    0  0.00000000000E+00  0.00000000000E+00  0.13229293028E+02  0.13290112642E+02  0.12700000000E+01 0. -1.
         -4   -1    0    0    0  501 -0.00000000000E+00 -0.00000000000E+00 -0.29447934671E+03  0.29448208526E+03  0.12700000000E+01 0. -1.
         25    2    1    2    0    0  0.00000000000E+00  0.00000000000E+00 -0.28125005368E+03  0.30777219790E+03  0.12498853189E+03 0.  0.
    9000005    1    3    3    0    0  0.90112506259E+01  0.61255544105E+02 -0.11986345247E+03  0.13491364482E+03  0.10000000000E+01 0.  0.
    9000005    1    3    3    0    0 -0.90112506259E+01 -0.61255544105E+02 -0.16138660121E+03  0.17285855308E+03  0.10000000000E+01 0.  0.
<mgrwt>
<rscale>  0 0.12498853E+03</rscale>
<asrwt>0</asrwt>
<pdfrwt beam="1">  1        4 0.20401652E-02 0.12498853E+03</pdfrwt>
<pdfrwt beam="2">  1       -4 0.45309399E-01 0.12498853E+03</pdfrwt>
<totfact> 0.74653134E+03</totfact>
</mgrwt>
</event>
<event>
 5    1  0.3261711E-002  0.1249991E+03  0.7818608E-02  0.1235071E+00
         -4   -1    0    0    0  501 -0.00000000000E+00  0.00000000000E+00  0.11966583106E+02  0.12033786238E+02  0.12700000000E+01 0.  1.
          4   -1    0    0  501    0  0.00000000000E+00 -0.00000000000E+00 -0.32544264200E+03  0.32544512000E+03  0.12700000000E+01 0.  1.
         25    2    1    2    0    0  0.00000000000E+00  0.00000000000E+00 -0.31347605890E+03  0.33747890624E+03  0.12499909062E+03 0.  0.
    9000005    1    3    3    0    0 -0.43538154617E+02  0.42651321986E+02 -0.11947549089E+03  0.13412717509E+03  0.10000000000E+01 0.  0.
    9000005    1    3    3    0    0  0.43538154617E+02 -0.42651321986E+02 -0.19400056801E+03  0.20335173115E+03  0.10000000000E+01 0.  0.
<mgrwt>
<rscale>  0 0.12499909E+03</rscale>
<asrwt>0</asrwt>
<pdfrwt beam="2">  1        4 0.50073452E-01 0.12499909E+03</pdfrwt>
<pdfrwt beam="1">  1       -4 0.18463731E-02 0.12499909E+03</pdfrwt>
<totfact> 0.71125791E+03</totfact>
</mgrwt>
</event>
<event>
 5    1  0.3261711E-002  0.1250038E+03  0.7818608E-02  0.1235063E+00
         -4   -1    0    0    0  501 -0.00000000000E+00  0.00000000000E+00  0.60545374598E+01  0.61863013063E+01  0.12700000000E+01 0. -1.
          4   -1    0    0  501    0  0.00000000000E+00 -0.00000000000E+00 -0.63813867522E+03  0.63813993897E+03  0.12700000000E+01 0. -1.
         25    2    1    2    0    0  0.00000000000E+00  0.00000000000E+00 -0.63208413776E+03  0.64432624028E+03  0.12500378676E+03 0.  0.
    9000005    1    3    3    0    0  0.34043776840E+02 -0.17760429513E+02 -0.57018722381E+03  0.57147955501E+03  0.10000000000E+01 0.  0.
    9000005    1    3    3    0    0 -0.34043776840E+02  0.17760429513E+02 -0.61896913948E+02  0.72846685267E+02  0.10000000000E+01 0.  0.
<mgrwt>
<rscale>  0 0.12500379E+03</rscale>
<asrwt>0</asrwt>
<pdfrwt beam="2">  1        4 0.98185361E-01 0.12500379E+03</pdfrwt>
<pdfrwt beam="1">  1       -4 0.94170070E-03 0.12500379E+03</pdfrwt>
<totfact> 0.46180123E+03</totfact>
</mgrwt>
</event>
<event>
 5    1  0.3261711E-002  0.1250022E+03  0.7818608E-02  0.1235066E+00
          4   -1    0    0  501    0  0.00000000000E+00  0.00000000000E+00  0.15268475133E+02  0.15321202071E+02  0.12700000000E+01 0.  1.
         -4   -1    0    0    0  501 -0.00000000000E+00 -0.00000000000E+00 -0.25535109777E+03  0.25535425595E+03  0.12700000000E+01 0.  1.
         25    2    1    2    0    0  0.00000000000E+00  0.00000000000E+00 -0.24008262263E+03  0.27067545802E+03  0.12500215151E+03 0.  0.
    9000005    1    3    3    0    0  0.16618939762E+02 -0.58975330486E+02 -0.93423531731E+02  0.11172839856E+03  0.10000000000E+01 0.  0.
    9000005    1    3    3    0    0 -0.16618939762E+02  0.58975330486E+02 -0.14665909090E+03  0.15894705945E+03  0.10000000000E+01 0.  0.
<mgrwt>
<rscale>  0 0.12500215E+03</rscale>
<asrwt>0</asrwt>
<pdfrwt beam="1">  1        4 0.23532952E-02 0.12500215E+03</pdfrwt>
<pdfrwt beam="2">  1       -4 0.39289080E-01 0.12500215E+03</pdfrwt>
<totfact> 0.79427068E+03</totfact>
</mgrwt>
</event>
<event>
 5    1  0.3261711E-002  0.1249961E+03  0.7818608E-02  0.1235075E+00
         -4   -1    0    0    0  501 -0.00000000000E+00  0.00000000000E+00  0.25072770108E+02  0.25104913880E+02  0.12700000000E+01 0.  1.
          4   -1    0    0  501    0  0.00000000000E+00 -0.00000000000E+00 -0.15565222080E+03  0.15565740182E+03  0.12700000000E+01 0.  1.
         25    2    1    2    0    0  0.00000000000E+00  0.00000000000E+00 -0.13057945070E+03  0.18076231570E+03  0.12499608727E+03 0.  0.
    9000005    1    3    3    0    0 -0.27206428103E+02  0.45226666244E+02 -0.11367321859E+03  0.12533252449E+03  0.10000000000E+01 0.  0.
    9000005    1    3    3    0    0  0.27206428103E+02 -0.45226666244E+02 -0.16906232104E+02  0.55429791211E+02  0.10000000000E+01 0.  0.
<mgrwt>
<rscale>  0 0.12499609E+03</rscale>
<asrwt>0</asrwt>
<pdfrwt beam="2">  1        4 0.23949366E-01 0.12499609E+03</pdfrwt>
<pdfrwt beam="1">  1       -4 0.38602205E-02 0.12499609E+03</pdfrwt>
<totfact> 0.93488165E+03</totfact>
</mgrwt>
</event>
<event>
 5    1  0.3261711E-002  0.1249953E+03  0.7818608E-02  0.1235077E+00
         -4   -1    0    0    0  501 -0.00000000000E+00  0.00000000000E+00  0.54028282007E+03  0.54028431271E+03  0.12700000000E+01 0.  1.
          4   -1    0    0  501    0  0.00000000000E+00 -0.00000000000E+00 -0.71721707939E+01  0.72837444970E+01  0.12700000000E+01 0.  1.
         25    2    1    2    0    0  0.00000000000E+00  0.00000000000E+00  0.53311064928E+03  0.54756805721E+03  0.12499525153E+03 0.  0.
    9000005    1    3    3    0    0  0.52440277441E+02 -0.59852953808E+00  0.11770058120E+03  0.12885948840E+03  0.10000000000E+01 0.  0.
    9000005    1    3    3    0    0 -0.52440277441E+02  0.59852953808E+00  0.41541006808E+03  0.41870856881E+03  0.10000000000E+01 0.  0.
<mgrwt>
<rscale>  0 0.12499525E+03</rscale>
<asrwt>0</asrwt>
<pdfrwt beam="2">  1        4 0.11121081E-02 0.12499525E+03</pdfrwt>
<pdfrwt beam="1">  1       -4 0.83129143E-01 0.12499525E+03</pdfrwt>
<totfact> 0.52359311E+03</totfact>
</mgrwt>
</event>
<event>
 5    1  0.3261711E-002  0.1250045E+03  0.7818608E-02  0.1235062E+00
         -4   -1    0    0    0  501 -0.00000000000E+00  0.00000000000E+00  0.23987288060E+02  0.24020884423E+02  0.12700000000E+01 0.  1.
          4   -1    0    0  501    0  0.00000000000E+00 -0.00000000000E+00 -0.16270835145E+03  0.16271330779E+03  0.12700000000E+01 0.  1.
         25    2    1    2    0    0  0.00000000000E+00  0.00000000000E+00 -0.13872106339E+03  0.18673419222E+03  0.12500450037E+03 0.  0.
    9000005    1    3    3    0    0  0.57900939091E+02  0.19831613040E+02 -0.88239461881E+02  0.10739187239E+03  0.10000000000E+01 0.  0.
    9000005    1    3    3    0    0 -0.57900939091E+02 -0.19831613040E+02 -0.50481601513E+02  0.79342319821E+02  0.10000000000E+01 0.  0.
<mgrwt>
<rscale>  0 0.12500450E+03</rscale>
<asrwt>0</asrwt>
<pdfrwt beam="2">  1        4 0.25035019E-01 0.12500450E+03</pdfrwt>
<pdfrwt beam="1">  1       -4 0.36933177E-02 0.12500450E+03</pdfrwt>
<totfact> 0.92409361E+03</totfact>
</mgrwt>
</event>
<event>
 5    1  0.3261711E-002  0.1249872E+03  0.7818608E-02  0.1235089E+00
          4   -1    0    0  501    0  0.00000000000E+00  0.00000000000E+00  0.20484790943E+04  0.20484794880E+04  0.12700000000E+01 0.  1.
         -4   -1    0    0    0  501 -0.00000000000E+00 -0.00000000000E+00 -0.16945762151E+01  0.21176611034E+01  0.12700000000E+01 0.  1.
         25    2    1    2    0    0  0.00000000000E+00  0.00000000000E+00  0.20467845181E+04  0.20505971491E+04  0.12498721681E+03 0.  0.
    9000005    1    3    3    0    0  0.14789982689E+02  0.32655504438E+02  0.18372060933E+03  0.18718810819E+03  0.10000000000E+01 0.  0.
    9000005    1    3    3    0    0 -0.14789982689E+02 -0.32655504438E+02  0.18630639087E+04  0.18634090409E+04  0.10000000000E+01 0.  0.
<mgrwt>
<rscale>  0 0.12498722E+03</rscale>
<asrwt>0</asrwt>
<pdfrwt beam="1">  1        4 0.31518168E+00 0.12498722E+03</pdfrwt>
<pdfrwt beam="2">  1       -4 0.29328072E-03 0.12498722E+03</pdfrwt>
<totfact> 0.92179142E+02</totfact>
</mgrwt>
</event>
<event>
 5    1  0.3261711E-002  0.1249962E+03  0.7818608E-02  0.1235075E+00
          4   -1    0    0  501    0  0.00000000000E+00  0.00000000000E+00  0.86816805083E+02  0.86826093686E+02  0.12700000000E+01 0. -1.
         -4   -1    0    0    0  501 -0.00000000000E+00 -0.00000000000E+00 -0.44970782924E+02  0.44988712104E+02  0.12700000000E+01 0. -1.
         25    2    1    2    0    0  0.00000000000E+00  0.00000000000E+00  0.41846022159E+02  0.13181480579E+03  0.12499621376E+03 0.  0.
    9000005    1    3    3    0    0  0.44236627765E+02 -0.27719071817E+01  0.67376532143E+02  0.80654570788E+02  0.10000000000E+01 0.  0.
    9000005    1    3    3    0    0 -0.44236627765E+02  0.27719071817E+01 -0.25530509984E+02  0.51160235002E+02  0.10000000000E+01 0.  0.
<mgrwt>
<rscale>  0 0.12499621E+03</rscale>
<asrwt>0</asrwt>
<pdfrwt beam="1">  1        4 0.13358525E-01 0.12499621E+03</pdfrwt>
<pdfrwt beam="2">  1       -4 0.69206758E-02 0.12499621E+03</pdfrwt>
<totfact> 0.10306533E+04</totfact>
</mgrwt>
</event>
<event>
 5    1  0.3261711E-002  0.1250040E+03  0.7818608E-02  0.1235063E+00
          4   -1    0    0  501    0  0.00000000000E+00  0.00000000000E+00  0.13362144229E+03  0.13362747748E+03  0.12700000000E+01 0. -1.
         -4   -1    0    0    0  501 -0.00000000000E+00 -0.00000000000E+00 -0.29215094965E+02  0.29242685818E+02  0.12700000000E+01 0. -1.
         25    2    1    2    0    0  0.00000000000E+00  0.00000000000E+00  0.10440634732E+03  0.16287016330E+03  0.12500401887E+03 0.  0.
    9000005    1    3    3    0    0 -0.20096723193E+02  0.13847529711E+02  0.12716202917E+03  0.12948673300E+03  0.10000000000E+01 0.  0.
    9000005    1    3    3    0    0  0.20096723193E+02 -0.13847529711E+02 -0.22755681846E+02  0.33383430298E+02  0.10000000000E+01 0.  0.
<mgrwt>
<rscale>  0 0.12500402E+03</rscale>
<asrwt>0</asrwt>
<pdfrwt beam="1">  1        4 0.20559731E-01 0.12500402E+03</pdfrwt>
<pdfrwt beam="2">  1       -4 0.44972167E-02 0.12500402E+03</pdfrwt>
<totfact> 0.96783537E+03</totfact>
</mgrwt>
</event>
<event>
 5    1  0.3261711E-002  0.1250000E+03  0.7818608E-02  0.1235069E+00
         -4   -1    0    0    0  501 -0.00000000000E+00  0.00000000000E+00  0.75107101033E+02  0.75117837599E+02  0.12700000000E+01 0. -1.
          4   -1    0    0  501    0  0.00000000000E+00 -0.00000000000E+00 -0.51986872465E+02  0.52002382721E+02  0.12700000000E+01 0. -1.
         25    2    1    2    0    0  0.00000000000E+00  0.00000000000E+00  0.23120228568E+02  0.12712022032E+03  0.12500002178E+03 0.  0.
    9000005    1    3    3    0    0 -0.57555507019E+02  0.23867807353E+02  0.66890121094E+01  0.62674169313E+02  0.10000000000E+01 0.  0.
    9000005    1    3    3    0    0  0.57555507019E+02 -0.23867807353E+02  0.16431216459E+02  0.64446051007E+02  0.10000000000E+01 0.  0.
<mgrwt>
<rscale>  0 0.12500002E+03</rscale>
<asrwt>0</asrwt>
<pdfrwt beam="2">  1        4 0.79999994E-02 0.12500002E+03</pdfrwt>
<pdfrwt beam="1">  1       -4 0.11556958E-01 0.12500002E+03</pdfrwt>
<totfact> 0.10406530E+04</totfact>
</mgrwt>
</event>
<event>
 5    1  0.3261711E-002  0.1250025E+03  0.7818608E-02  0.1235065E+00
          4   -1    0    0  501    0  0.00000000000E+00  0.00000000000E+00  0.13556546566E+03  0.13557141432E+03  0.12700000000E+01 0. -1.
         -4   -1    0    0    0  501 -0.00000000000E+00 -0.00000000000E+00 -0.28795078935E+02  0.28823071851E+02  0.12700000000E+01 0. -1.
         25    2    1    2    0    0  0.00000000000E+00  0.00000000000E+00  0.10677038673E+03  0.16439448617E+03  0.12500252638E+03 0.  0.
    9000005    1    3    3    0    0  0.45926081270E+02  0.41019708575E+02  0.39368945985E+02  0.73094017131E+02  0.10000000000E+01 0.  0.
    9000005    1    3    3    0    0 -0.45926081270E+02 -0.41019708575E+02  0.67401440741E+02  0.91300469037E+02  0.10000000000E+01 0.  0.
<mgrwt>
<rscale>  0 0.12500253E+03</rscale>
<asrwt>0</asrwt>
<pdfrwt beam="1">  1        4 0.20858837E-01 0.12500253E+03</pdfrwt>
<pdfrwt beam="2">  1       -4 0.44326230E-02 0.12500253E+03</pdfrwt>
<totfact> 0.96496712E+03</totfact>
</mgrwt>
</event>
<event>
 5    1  0.3261711E-002  0.1249993E+03  0.7818608E-02  0.1235070E+00
         -4   -1    0    0    0  501 -0.00000000000E+00  0.00000000000E+00  0.97765319035E+02  0.97773567522E+02  0.12700000000E+01 0.  1.
          4   -1    0    0  501    0  0.00000000000E+00 -0.00000000000E+00 -0.39934928094E+02  0.39955117092E+02  0.12700000000E+01 0.  1.
         25    2    1    2    0    0  0.00000000000E+00  0.00000000000E+00  0.57830390942E+02  0.13772868461E+03  0.12499934579E+03 0.  0.
    9000005    1    3    3    0    0  0.29342096267E+02 -0.25491646229E+02 -0.25000773200E+02  0.46225764476E+02  0.10000000000E+01 0.  0.
    9000005    1    3    3    0    0 -0.29342096267E+02  0.25491646229E+02  0.82831164141E+02  0.91502920138E+02  0.10000000000E+01 0.  0.
<mgrwt>
<rscale>  0 0.12499935E+03</rscale>
<asrwt>0</asrwt>
<pdfrwt beam="2">  1        4 0.61460227E-02 0.12499935E+03</pdfrwt>
<pdfrwt beam="1">  1       -4 0.15043006E-01 0.12499935E+03</pdfrwt>
<totfact> 0.10181022E+04</totfact>
</mgrwt>
</event>
<event>
 5    1  0.3261711E-002  0.1249987E+03  0.7818608E-02  0.1235071E+00
          4   -1    0    0  501    0  0.00000000000E+00  0.00000000000E+00  0.17205135586E+03  0.17205604306E+03  0.12700000000E+01 0.  1.
         -4   -1    0    0    0  501 -0.00000000000E+00 -0.00000000000E+00 -0.22680732351E+02  0.22716261136E+02  0.12700000000E+01 0.  1.
         25    2    1    2    0    0  0.00000000000E+00  0.00000000000E+00  0.14937062351E+03  0.19477230420E+03  0.12499866925E+03 0.  0.
    9000005    1    3    3    0    0 -0.28923753505E+02  0.51678581851E+02  0.10576759184E+03  0.12122311175E+03  0.10000000000E+01 0.  0.
    9000005    1    3    3    0    0  0.28923753505E+02 -0.51678581851E+02  0.43603031677E+02  0.73549192452E+02  0.10000000000E+01 0.  0.
<mgrwt>
<rscale>  0 0.12499867E+03</rscale>
<asrwt>0</asrwt>
<pdfrwt beam="1">  1        4 0.26472532E-01 0.12499867E+03</pdfrwt>
<pdfrwt beam="2">  1       -4 0.34924371E-02 0.12499867E+03</pdfrwt>
<totfact> 0.91026229E+03</totfact>
</mgrwt>
</event>
<event>
 5    1  0.3261711E-002  0.1250011E+03  0.7818608E-02  0.1235068E+00
         -4   -1    0    0    0  501 -0.00000000000E+00  0.00000000000E+00  0.44657196194E+01  0.46427956792E+01  0.12700000000E+01 0.  1.
          4   -1    0    0  501    0  0.00000000000E+00 -0.00000000000E+00 -0.85755092326E+03  0.85755186367E+03  0.12700000000E+01 0.  1.
         25    2    1    2    0    0  0.00000000000E+00  0.00000000000E+00 -0.85308520364E+03  0.86219465935E+03  0.12500106375E+03 0.  0.
    9000005    1    3    3    0    0 -0.15547309729E+02 -0.60521358296E+02 -0.43256690711E+03  0.43705798560E+03  0.10000000000E+01 0.  0.
    9000005    1    3    3    0    0  0.15547309729E+02  0.60521358296E+02 -0.42051829653E+03  0.42513667375E+03  0.10000000000E+01 0.  0.
<mgrwt>
<rscale>  0 0.12500106E+03</rscale>
<asrwt>0</asrwt>
<pdfrwt beam="2">  1        4 0.13194448E+00 0.12500106E+03</pdfrwt>
<pdfrwt beam="1">  1       -4 0.70072804E-03 0.12500106E+03</pdfrwt>
<totfact> 0.35632644E+03</totfact>
</mgrwt>
</event>
<event>
 5    1  0.3261711E-002  0.1250010E+03  0.7818608E-02  0.1235068E+00
          4   -1    0    0  501    0  0.00000000000E+00  0.00000000000E+00  0.70622874519E+02  0.70634292701E+02  0.12700000000E+01 0.  1.
         -4   -1    0    0    0  501 -0.00000000000E+00 -0.00000000000E+00 -0.55289101125E+02  0.55303685259E+02  0.12700000000E+01 0.  1.
         25    2    1    2    0    0  0.00000000000E+00  0.00000000000E+00  0.15333773394E+02  0.12593797796E+03  0.12500099874E+03 0.  0.
    9000005    1    3    3    0    0 -0.74392286955E+01 -0.54255949276E+02 -0.22662957679E+02  0.59276131842E+02  0.10000000000E+01 0.  0.
    9000005    1    3    3    0    0  0.74392286955E+01  0.54255949276E+02  0.37996731073E+02  0.66661846117E+02  0.10000000000E+01 0.  0.
<mgrwt>
<rscale>  0 0.12500100E+03</rscale>
<asrwt>0</asrwt>
<pdfrwt beam="1">  1        4 0.10867058E-01 0.12500100E+03</pdfrwt>
<pdfrwt beam="2">  1       -4 0.85080158E-02 0.12500100E+03</pdfrwt>
<totfact> 0.10432081E+04</totfact>
</mgrwt>
</event>
<event>
 5    1  0.3261711E-002  0.1250086E+03  0.7818608E-02  0.1235056E+00
          4   -1    0    0  501    0  0.00000000000E+00  0.00000000000E+00  0.23186193119E+03  0.23186540931E+03  0.12700000000E+01 0.  1.
         -4   -1    0    0    0  501 -0.00000000000E+00 -0.00000000000E+00 -0.16822092755E+02  0.16869964572E+02  0.12700000000E+01 0.  1.
         25    2    1    2    0    0  0.00000000000E+00  0.00000000000E+00  0.21503983843E+03  0.24873537388E+03  0.12500861613E+03 0.  0.
    9000005    1    3    3    0    0  0.16582752260E+02 -0.52433388750E+01 -0.11919673407E+02  0.21108265897E+02  0.10000000000E+01 0.  0.
    9000005    1    3    3    0    0 -0.16582752260E+02  0.52433388750E+01  0.22695951184E+03  0.22762710798E+03  0.10000000000E+01 0.  0.
<mgrwt>
<rscale>  0 0.12500862E+03</rscale>
<asrwt>0</asrwt>
<pdfrwt beam="1">  1        4 0.35675013E-01 0.12500862E+03</pdfrwt>
<pdfrwt beam="2">  1       -4 0.25919645E-02 0.12500862E+03</pdfrwt>
<totfact> 0.82497515E+03</totfact>
</mgrwt>
</event>
<event>
 5    1  0.3261711E-002  0.1249946E+03  0.7818608E-02  0.1235078E+00
         -4   -1    0    0    0  501 -0.00000000000E+00  0.00000000000E+00  0.76346724436E+02  0.76357286700E+02  0.12700000000E+01 0. -1.
          4   -1    0    0  501    0  0.00000000000E+00 -0.00000000000E+00 -0.51138193663E+02  0.51153961246E+02  0.12700000000E+01 0. -1.
         25    2    1    2    0    0  0.00000000000E+00  0.00000000000E+00  0.25208530773E+02  0.12751124795E+03  0.12499459320E+03 0.  0.
    9000005    1    3    3    0    0  0.29859362732E+02  0.33694761112E+01  0.68497721077E+02  0.74805566001E+02  0.10000000000E+01 0.  0.
    9000005    1    3    3    0    0 -0.29859362732E+02 -0.33694761112E+01 -0.43289190304E+02  0.52705681944E+02  0.10000000000E+01 0.  0.
<mgrwt>
<rscale>  0 0.12499459E+03</rscale>
<asrwt>0</asrwt>
<pdfrwt beam="2">  1        4 0.78694398E-02 0.12499459E+03</pdfrwt>
<pdfrwt beam="1">  1       -4 0.11747675E-01 0.12499459E+03</pdfrwt>
<totfact> 0.10399326E+04</totfact>
</mgrwt>
</event>
<event>
 5    1  0.3261711E-002  0.1249995E+03  0.7818608E-02  0.1235070E+00
         -4   -1    0    0    0  501 -0.00000000000E+00  0.00000000000E+00  0.75368982515E+02  0.75379681780E+02  0.12700000000E+01 0. -1.
          4   -1    0    0  501    0  0.00000000000E+00 -0.00000000000E+00 -0.51805767650E+02  0.51821332111E+02  0.12700000000E+01 0. -1.
         25    2    1    2    0    0  0.00000000000E+00  0.00000000000E+00  0.23563214865E+02  0.12720101389E+03  0.12499949136E+03 0.  0.
    9000005    1    3    3    0    0 -0.47031074194E+02  0.21695762428E+02  0.47362986435E+02  0.70191741190E+02  0.10000000000E+01 0.  0.
    9000005    1    3    3    0    0  0.47031074194E+02 -0.21695762428E+02 -0.23799771571E+02  0.57009272702E+02  0.10000000000E+01 0.  0.
<mgrwt>
<rscale>  0 0.12499949E+03</rscale>
<asrwt>0</asrwt>
<pdfrwt beam="2">  1        4 0.79721384E-02 0.12499949E+03</pdfrwt>
<pdfrwt beam="1">  1       -4 0.11597248E-01 0.12499949E+03</pdfrwt>
<totfact> 0.10404901E+04</totfact>
</mgrwt>
</event>
<event>
 5    1  0.3261711E-002  0.1250013E+03  0.7818608E-02  0.1235067E+00
         -4   -1    0    0    0  501 -0.00000000000E+00  0.00000000000E+00  0.70517510327E+00  0.14526430829E+01  0.12700000000E+01 0.  1.
          4   -1    0    0  501    0  0.00000000000E+00 -0.00000000000E+00 -0.36198815107E+04  0.36198817335E+04  0.12700000000E+01 0.  1.
         25    2    1    2    0    0  0.00000000000E+00  0.00000000000E+00 -0.36191763356E+04  0.36213343766E+04  0.12500127503E+03 0.  0.
    9000005    1    3    3    0    0 -0.47576495492E+00 -0.59904959032E+02 -0.23249835308E+04  0.23257554147E+04  0.10000000000E+01 0.  0.
    9000005    1    3    3    0    0  0.47576495492E+00  0.59904959032E+02 -0.12941928048E+04  0.12955789619E+04  0.10000000000E+01 0.  0.
<mgrwt>
<rscale>  0 0.12500128E+03</rscale>
<asrwt>0</asrwt>
<pdfrwt beam="2">  1        4 0.55695264E+00 0.12500128E+03</pdfrwt>
<pdfrwt beam="1">  1       -4 0.16600605E-03 0.12500128E+03</pdfrwt>
<totfact> 0.42536332E+01</totfact>
</mgrwt>
</event>
<event>
 5    1  0.3261711E-002  0.1250036E+03  0.7818608E-02  0.1235064E+00
          4   -1    0    0  501    0  0.00000000000E+00  0.00000000000E+00  0.30437614263E+03  0.30437879213E+03  0.12700000000E+01 0.  1.
         -4   -1    0    0    0  501 -0.00000000000E+00 -0.00000000000E+00 -0.12800234614E+02  0.12863083074E+02  0.12700000000E+01 0.  1.
         25    2    1    2    0    0  0.00000000000E+00  0.00000000000E+00  0.29157590801E+03  0.31724187521E+03  0.12500358895E+03 0.  0.
    9000005    1    3    3    0    0 -0.48244197957E+02 -0.23058462287E+02  0.63697666051E+02  0.83172038450E+02  0.10000000000E+01 0.  0.
    9000005    1    3    3    0    0  0.48244197957E+02  0.23058462287E+02  0.22787824196E+03  0.23406983676E+03  0.10000000000E+01 0.  0.
<mgrwt>
<rscale>  0 0.12500359E+03</rscale>
<asrwt>0</asrwt>
<pdfrwt beam="1">  1        4 0.46832136E-01 0.12500359E+03</pdfrwt>
<pdfrwt beam="2">  1       -4 0.19743052E-02 0.12500359E+03</pdfrwt>
<totfact> 0.73479525E+03</totfact>
</mgrwt>
</event>
<event>
 5    1  0.3261711E-002  0.1250000E+03  0.7818608E-02  0.1235069E+00
         -4   -1    0    0    0  501 -0.00000000000E+00  0.00000000000E+00  0.11596857497E+03  0.11597552880E+03  0.12700000000E+01 0.  1.
          4   -1    0    0  501    0  0.00000000000E+00 -0.00000000000E+00 -0.33663760487E+02  0.33687707998E+02  0.12700000000E+01 0.  1.
         25    2    1    2    0    0  0.00000000000E+00  0.00000000000E+00  0.82304814487E+02  0.14966323680E+03  0.12500000785E+03 0.  0.
    9000005    1    3    3    0    0 -0.54839380195E+02 -0.27675291775E+02  0.27397916846E+02  0.67267564565E+02  0.10000000000E+01 0.  0.
    9000005    1    3    3    0    0  0.54839380195E+02  0.27675291775E+02  0.54906897641E+02  0.82395672238E+02  0.10000000000E+01 0.  0.
<mgrwt>
<rscale>  0 0.12500001E+03</rscale>
<asrwt>0</asrwt>
<pdfrwt beam="2">  1        4 0.51814171E-02 0.12500001E+03</pdfrwt>
<pdfrwt beam="1">  1       -4 0.17843696E-01 0.12500001E+03</pdfrwt>
<totfact> 0.99370851E+03</totfact>
</mgrwt>
</event>
<event>
 5    1  0.3261711E-002  0.1250012E+03  0.7818608E-02  0.1235067E+00
         -4   -1    0    0    0  501 -0.00000000000E+00  0.00000000000E+00  0.22853327100E+01  0.26145067594E+01  0.12700000000E+01 0.  1.
          4   -1    0    0  501    0  0.00000000000E+00 -0.00000000000E+00 -0.15941420413E+04  0.15941425472E+04  0.12700000000E+01 0.  1.
         25    2    1    2    0    0  0.00000000000E+00  0.00000000000E+00 -0.15918567086E+04  0.15967570539E+04  0.12500123453E+03 0.  0.
    9000005    1    3    3    0    0  0.47290504390E+01 -0.57354538682E+01 -0.33198450185E+01  0.82024825557E+01  0.10000000000E+01 0.  0.
    9000005    1    3    3    0    0 -0.47290504390E+01  0.57354538682E+01 -0.15885368636E+04  0.15885545714E+04  0.10000000000E+01 0.  0.
<mgrwt>
<rscale>  0 0.12500123E+03</rscale>
<asrwt>0</asrwt>
<pdfrwt beam="2">  1        4 0.24527715E+00 0.12500123E+03</pdfrwt>
<pdfrwt beam="1">  1       -4 0.37695092E-03 0.12500123E+03</pdfrwt>
<totfact> 0.16104433E+03</totfact>
</mgrwt>
</event>
<event>
 5    1  0.3261711E-002  0.1249962E+03  0.7818608E-02  0.1235075E+00
         -4   -1    0    0    0  501 -0.00000000000E+00  0.00000000000E+00  0.66612177040E+01  0.67812035289E+01  0.12700000000E+01 0. -1.
          4   -1    0    0  501    0  0.00000000000E+00 -0.00000000000E+00 -0.58102639184E+03  0.58102777981E+03  0.12700000000E+01 0. -1.
         25    2    1    2    0    0  0.00000000000E+00  0.00000000000E+00 -0.57436517414E+03  0.58780898334E+03  0.12499619049E+03 0.  0.
    9000005    1    3    3    0    0  0.13754078473E+02 -0.23752704103E+02 -0.55118517039E+03  0.55186905846E+03  0.10000000000E+01 0.  0.
    9000005    1    3    3    0    0 -0.13754078473E+02  0.23752704103E+02 -0.23180003743E+02  0.35939924880E+02  0.10000000000E+01 0.  0.
<mgrwt>
<rscale>  0 0.12499619E+03</rscale>
<asrwt>0</asrwt>
<pdfrwt beam="2">  1        4 0.89397973E-01 0.12499619E+03</pdfrwt>
<pdfrwt beam="1">  1       -4 0.10341396E-02 0.12499619E+03</pdfrwt>
<totfact> 0.49650461E+03</totfact>
</mgrwt>
</event>
<event>
 5    1  0.3261711E-002  0.1250057E+03  0.7818608E-02  0.1235060E+00
         -4   -1    0    0    0  501 -0.00000000000E+00  0.00000000000E+00  0.66437384855E+01  0.67640343778E+01  0.12700000000E+01 0. -1.
          4   -1    0    0  501    0  0.00000000000E+00 -0.00000000000E+00 -0.58261696239E+03  0.58261834657E+03  0.12700000000E+01 0. -1.
         25    2    1    2    0    0  0.00000000000E+00  0.00000000000E+00 -0.57597322390E+03  0.58938238095E+03  0.12500574515E+03 0.  0.
    9000005    1    3    3    0    0  0.53463154938E+02 -0.20287831892E+02 -0.16911048283E+03  0.17851963607E+03  0.10000000000E+01 0.  0.
    9000005    1    3    3    0    0 -0.53463154938E+02  0.20287831892E+02 -0.40686274107E+03  0.41086274488E+03  0.10000000000E+01 0.  0.
<mgrwt>
<rscale>  0 0.12500575E+03</rscale>
<asrwt>0</asrwt>
<pdfrwt beam="2">  1        4 0.89642699E-01 0.12500575E+03</pdfrwt>
<pdfrwt beam="1">  1       -4 0.10314741E-02 0.12500575E+03</pdfrwt>
<totfact> 0.49538531E+03</totfact>
</mgrwt>
</event>
<event>
 4    1  0.3261711E-002  0.1246686E+03  0.7818608E-02  0.1235588E+00
         -4   -1    0    0    0  501 -0.00000000000E+00  0.00000000000E+00  0.69799849895E+02  0.69811402689E+02  0.12700000000E+01 0. -1.
          4   -1    0    0  501    0  0.00000000000E+00 -0.00000000000E+00 -0.55643876778E+02  0.55658367951E+02  0.12700000000E+01 0. -1.
    9000005    1    1    2    0    0  0.34308711830E+02 -0.17791583563E+02  0.56289438022E+02  0.68287107026E+02  0.10000000000E+01 0.  0.
    9000005    1    1    2    0    0 -0.34308711830E+02  0.17791583563E+02 -0.42133464905E+02  0.57182663614E+02  0.10000000000E+01 0.  0.
<mgrwt>
<rscale>  0 0.12466865E+03</rscale>
<asrwt>0</asrwt>
<pdfrwt beam="2">  1        4 0.85625998E-02 0.12466865E+03</pdfrwt>
<pdfrwt beam="1">  1       -4 0.10740442E-01 0.12466865E+03</pdfrwt>
<totfact> 0.10521067E+04</totfact>
</mgrwt>
</event>
<event>
 5    1  0.3261711E-002  0.1250049E+03  0.7818608E-02  0.1235062E+00
         -4   -1    0    0    0  501 -0.00000000000E+00  0.00000000000E+00  0.48410728327E+02  0.48427383960E+02  0.12700000000E+01 0.  1.
          4   -1    0    0  501    0  0.00000000000E+00 -0.00000000000E+00 -0.80660551591E+02  0.80670549044E+02  0.12700000000E+01 0.  1.
         25    2    1    2    0    0  0.00000000000E+00  0.00000000000E+00 -0.32249823264E+02  0.12909793300E+03  0.12500490072E+03 0.  0.
    9000005    1    3    3    0    0 -0.59545933009E+01  0.47247666300E+02 -0.57919206382E+02  0.74989556740E+02  0.10000000000E+01 0.  0.
    9000005    1    3    3    0    0  0.59545933009E+01 -0.47247666300E+02  0.25669383118E+02  0.54108376263E+02  0.10000000000E+01 0.  0.
<mgrwt>
<rscale>  0 0.12500490E+03</rscale>
<asrwt>0</asrwt>
<pdfrwt beam="2">  1        4 0.12411366E-01 0.12500490E+03</pdfrwt>
<pdfrwt beam="1">  1       -4 0.74498546E-02 0.12500490E+03</pdfrwt>
<totfact> 0.10362696E+04</totfact>
</mgrwt>
</event>
<event>
 5    1  0.3261711E-002  0.1249986E+03  0.7818608E-02  0.1235072E+00
         -4   -1    0    0    0  501 -0.00000000000E+00  0.00000000000E+00  0.54756930495E+02  0.54771656330E+02  0.12700000000E+01 0.  1.
          4   -1    0    0  501    0  0.00000000000E+00 -0.00000000000E+00 -0.71306393732E+02  0.71317702480E+02  0.12700000000E+01 0.  1.
         25    2    1    2    0    0  0.00000000000E+00  0.00000000000E+00 -0.16549463238E+02  0.12608935881E+03  0.12499856668E+03 0.  0.
    9000005    1    3    3    0    0 -0.21290381710E+01 -0.57033994740E+02 -0.33947781748E+02  0.66414315062E+02  0.10000000000E+01 0.  0.
    9000005    1    3    3    0    0  0.21290381710E+01  0.57033994740E+02  0.17398318510E+02  0.59675043749E+02  0.10000000000E+01 0.  0.
<mgrwt>
<rscale>  0 0.12499857E+03</rscale>
<asrwt>0</asrwt>
<pdfrwt beam="2">  1        4 0.10972217E-01 0.12499857E+03</pdfrwt>
<pdfrwt beam="1">  1       -4 0.84261459E-02 0.12499857E+03</pdfrwt>
<totfact> 0.10429337E+04</totfact>
</mgrwt>
</event>
<event>
 5    1  0.3261711E-002  0.1249987E+03  0.7818608E-02  0.1235071E+00
          4   -1    0    0  501    0  0.00000000000E+00  0.00000000000E+00  0.29873573417E+03  0.29873843370E+03  0.12700000000E+01 0.  1.
         -4   -1    0    0    0  501 -0.00000000000E+00 -0.00000000000E+00 -0.13042059494E+02  0.13103748161E+02  0.12700000000E+01 0.  1.
         25    2    1    2    0    0  0.00000000000E+00  0.00000000000E+00  0.28569367468E+03  0.31184218187E+03  0.12499868255E+03 0.  0.
    9000005    1    3    3    0    0  0.50380273662E+02  0.35314157239E+02  0.17016489726E+03  0.18094848420E+03  0.10000000000E+01 0.  0.
    9000005    1    3    3    0    0 -0.50380273662E+02 -0.35314157239E+02  0.11552877742E+03  0.13089369766E+03  0.10000000000E+01 0.  0.
<mgrwt>
<rscale>  0 0.12499868E+03</rscale>
<asrwt>0</asrwt>
<pdfrwt beam="1">  1        4 0.45964295E-01 0.12499868E+03</pdfrwt>
<pdfrwt beam="2">  1       -4 0.20114237E-02 0.12499868E+03</pdfrwt>
<totfact> 0.74139155E+03</totfact>
</mgrwt>
</event>
<event>
 5    1  0.3261711E-002  0.1249919E+03  0.7818608E-02  0.1235082E+00
          4   -1    0    0  501    0  0.00000000000E+00  0.00000000000E+00  0.17459647172E+03  0.17460109060E+03  0.12700000000E+01 0. -1.
         -4   -1    0    0    0  501 -0.00000000000E+00 -0.00000000000E+00 -0.22347182003E+02  0.22383240237E+02  0.12700000000E+01 0. -1.
         25    2    1    2    0    0  0.00000000000E+00  0.00000000000E+00  0.15224928972E+03  0.19698433083E+03  0.12499192124E+03 0.  0.
    9000005    1    3    3    0    0  0.32811146975E+02 -0.23007078632E+02  0.15168689322E+03  0.15689426570E+03  0.10000000000E+01 0.  0.
    9000005    1    3    3    0    0 -0.32811146975E+02  0.23007078632E+02  0.56239649729E+00  0.40090065139E+02  0.10000000000E+01 0.  0.
<mgrwt>
<rscale>  0 0.12499192E+03</rscale>
<asrwt>0</asrwt>
<pdfrwt beam="1">  1        4 0.26864124E-01 0.12499192E+03</pdfrwt>
<pdfrwt beam="2">  1       -4 0.34411571E-02 0.12499192E+03</pdfrwt>
<totfact> 0.90662459E+03</totfact>
</mgrwt>
</event>
<event>
 5    1  0.3261711E-002  0.1250018E+03  0.7818608E-02  0.1235066E+00
         -4   -1    0    0    0  501 -0.00000000000E+00  0.00000000000E+00  0.13451396219E+03  0.13451995734E+03  0.12700000000E+01 0. -1.
          4   -1    0    0  501    0  0.00000000000E+00 -0.00000000000E+00 -0.29020057258E+02  0.29047833366E+02  0.12700000000E+01 0. -1.
         25    2    1    2    0    0  0.00000000000E+00  0.00000000000E+00  0.10549390493E+03  0.16356779071E+03  0.12500183271E+03 0.  0.
    9000005    1    3    3    0    0 -0.61728210416E+02  0.28036874950E+01  0.64961293732E+02  0.89661598849E+02  0.10000000000E+01 0.  0.
    9000005    1    3    3    0    0  0.61728210416E+02 -0.28036874950E+01  0.40532611199E+02  0.73906191861E+02  0.10000000000E+01 0.  0.
<mgrwt>
<rscale>  0 0.12500183E+03</rscale>
<asrwt>0</asrwt>
<pdfrwt beam="2">  1        4 0.44672219E-02 0.12500183E+03</pdfrwt>
<pdfrwt beam="1">  1       -4 0.20697054E-01 0.12500183E+03</pdfrwt>
<totfact> 0.96655339E+03</totfact>
</mgrwt>
</event>
<event>
 5    1  0.3261711E-002  0.1249999E+03  0.7818608E-02  0.1235069E+00
         -4   -1    0    0    0  501 -0.00000000000E+00  0.00000000000E+00  0.62382646982E+03  0.62382776256E+03  0.12700000000E+01 0. -1.
          4   -1    0    0  501    0  0.00000000000E+00 -0.00000000000E+00 -0.61960383358E+01  0.63248550227E+01  0.12700000000E+01 0. -1.
         25    2    1    2    0    0  0.00000000000E+00  0.00000000000E+00  0.61763043148E+03  0.63015261759E+03  0.12499988623E+03 0.  0.
    9000005    1    3    3    0    0  0.55967499590E+02  0.25956897825E+02  0.35900550483E+03  0.36426923292E+03  0.10000000000E+01 0.  0.
    9000005    1    3    3    0    0 -0.55967499590E+02 -0.25956897825E+02  0.25862492665E+03  0.26588338466E+03  0.10000000000E+01 0.  0.
<mgrwt>
<rscale>  0 0.12499989E+03</rscale>
<asrwt>0</asrwt>
<pdfrwt beam="2">  1        4 0.96324484E-03 0.12499989E+03</pdfrwt>
<pdfrwt beam="1">  1       -4 0.95983336E-01 0.12499989E+03</pdfrwt>
<totfact> 0.47018084E+03</totfact>
</mgrwt>
</event>
<event>
 5    1  0.3261711E-002  0.1249928E+03  0.7818608E-02  0.1235081E+00
          4   -1    0    0  501    0  0.00000000000E+00  0.00000000000E+00  0.26616926152E+01  0.29491537054E+01  0.12700000000E+01 0. -1.
         -4   -1    0    0    0  501 -0.00000000000E+00 -0.00000000000E+00 -0.13919446644E+04  0.13919452438E+04  0.12700000000E+01 0. -1.
         25    2    1    2    0    0  0.00000000000E+00  0.00000000000E+00 -0.13892829718E+04  0.13948943975E+04  0.12499281745E+03 0.  0.
    9000005    1    3    3    0    0  0.38496085687E+02  0.48475372982E+02 -0.59929821410E+03  0.60248747690E+03  0.10000000000E+01 0.  0.
    9000005    1    3    3    0    0 -0.38496085687E+02 -0.48475372982E+02 -0.78998475773E+03  0.79240692062E+03  0.10000000000E+01 0.  0.
<mgrwt>
<rscale>  0 0.12499282E+03</rscale>
<asrwt>0</asrwt>
<pdfrwt beam="1">  1        4 0.43164924E-03 0.12499282E+03</pdfrwt>
<pdfrwt beam="2">  1       -4 0.21416694E+00 0.12499282E+03</pdfrwt>
<totfact> 0.20093982E+03</totfact>
</mgrwt>
</event>
<event>
 5    1  0.3261711E-002  0.1249997E+03  0.7818608E-02  0.1235070E+00
          4   -1    0    0  501    0  0.00000000000E+00  0.00000000000E+00  0.24148135593E+02  0.24181508485E+02  0.12700000000E+01 0.  1.
         -4   -1    0    0    0  501 -0.00000000000E+00 -0.00000000000E+00 -0.16161354814E+03  0.16161853805E+03  0.12700000000E+01 0.  1.
         25    2    1    2    0    0  0.00000000000E+00  0.00000000000E+00 -0.13746541255E+03  0.18580004654E+03  0.12499967059E+03 0.  0.
    9000005    1    3    3    0    0 -0.50590156912E+02 -0.36152444404E+02 -0.59466051485E+02  0.86044026475E+02  0.10000000000E+01 0.  0.
    9000005    1    3    3    0    0  0.50590156912E+02  0.36152444404E+02 -0.77999361063E+02  0.99756020064E+02  0.10000000000E+01 0.  0.
<mgrwt>
<rscale>  0 0.12499967E+03</rscale>
<asrwt>0</asrwt>
<pdfrwt beam="1">  1        4 0.37180489E-02 0.12499967E+03</pdfrwt>
<pdfrwt beam="2">  1       -4 0.24866573E-01 0.12499967E+03</pdfrwt>
<totfact> 0.92583956E+03</totfact>
</mgrwt>
</event>
<event>
 5    1  0.3261711E-002  0.1250006E+03  0.7818608E-02  0.1235068E+00
         -4   -1    0    0    0  501 -0.00000000000E+00  0.00000000000E+00  0.55973328132E+02  0.55987734033E+02  0.12700000000E+01 0. -1.
          4   -1    0    0  501    0  0.00000000000E+00 -0.00000000000E+00 -0.69759205755E+02  0.69770765279E+02  0.12700000000E+01 0. -1.
         25    2    1    2    0    0  0.00000000000E+00  0.00000000000E+00 -0.13785877624E+02  0.12575849931E+03  0.12500059891E+03 0.  0.
    9000005    1    3    3    0    0 -0.23690510033E+02 -0.25555464441E+01  0.51228579824E+02  0.56507862055E+02  0.10000000000E+01 0.  0.
    9000005    1    3    3    0    0  0.23690510033E+02  0.25555464441E+01 -0.65014457447E+02  0.69250637257E+02  0.10000000000E+01 0.  0.
<mgrwt>
<rscale>  0 0.12500060E+03</rscale>
<asrwt>0</asrwt>
<pdfrwt beam="2">  1        4 0.10734183E-01 0.12500060E+03</pdfrwt>
<pdfrwt beam="1">  1       -4 0.86132786E-02 0.12500060E+03</pdfrwt>
<totfact> 0.10436116E+04</totfact>
</mgrwt>
</event>
<event>
 5    1  0.3261711E-002  0.1249977E+03  0.7818608E-02  0.1235073E+00
          4   -1    0    0  501    0  0.00000000000E+00  0.00000000000E+00  0.68781610389E+03  0.68781727637E+03  0.12700000000E+01 0.  1.
         -4   -1    0    0    0  501 -0.00000000000E+00 -0.00000000000E+00 -0.56068013319E+01  0.57488365062E+01  0.12700000000E+01 0.  1.
         25    2    1    2    0    0  0.00000000000E+00  0.00000000000E+00  0.68220930256E+03  0.69356611288E+03  0.12499768170E+03 0.  0.
    9000005    1    3    3    0    0 -0.17697579132E+02 -0.52619708590E+02  0.18191914606E+03  0.19020413703E+03  0.10000000000E+01 0.  0.
    9000005    1    3    3    0    0  0.17697579132E+02  0.52619708590E+02  0.50029015650E+03  0.50336197585E+03  0.10000000000E+01 0.  0.
<mgrwt>
<rscale>  0 0.12499768E+03</rscale>
<asrwt>0</asrwt>
<pdfrwt beam="1">  1        4 0.10582887E+00 0.12499768E+03</pdfrwt>
<pdfrwt beam="2">  1       -4 0.87360088E-03 0.12499768E+03</pdfrwt>
<totfact> 0.43430713E+03</totfact>
</mgrwt>
</event>
<event>
 5    1  0.3261711E-002  0.1250562E+03  0.7818608E-02  0.1234981E+00
          4   -1    0    0  501    0  0.00000000000E+00  0.00000000000E+00  0.46706602260E+01  0.48402445131E+01  0.12700000000E+01 0. -1.
         -4   -1    0    0    0  501 -0.00000000000E+00 -0.00000000000E+00 -0.82199472263E+03  0.82199570372E+03  0.12700000000E+01 0. -1.
         25    2    1    2    0    0  0.00000000000E+00  0.00000000000E+00 -0.81732406240E+03  0.82683594823E+03  0.12505623656E+03 0.  0.
    9000005    1    3    3    0    0 -0.27297578140E+02 -0.87741659763E+01 -0.77599144510E+03  0.77652164595E+03  0.10000000000E+01 0.  0.
    9000005    1    3    3    0    0  0.27297578140E+02  0.87741659763E+01 -0.41332617305E+02  0.50314302282E+02  0.10000000000E+01 0.  0.
<mgrwt>
<rscale>  0 0.12505624E+03</rscale>
<asrwt>0</asrwt>
<pdfrwt beam="1">  1        4 0.73168418E-03 0.12505624E+03</pdfrwt>
<pdfrwt beam="2">  1       -4 0.12647373E+00 0.12505624E+03</pdfrwt>
<totfact> 0.37048907E+03</totfact>
</mgrwt>
</event>
<event>
 5    1  0.3261711E-002  0.1250033E+03  0.7818608E-02  0.1235064E+00
         -4   -1    0    0    0  501 -0.00000000000E+00  0.00000000000E+00  0.11234008760E+03  0.11234726602E+03  0.12700000000E+01 0. -1.
          4   -1    0    0  501    0  0.00000000000E+00 -0.00000000000E+00 -0.34753614834E+02  0.34776811873E+02  0.12700000000E+01 0. -1.
         25    2    1    2    0    0  0.00000000000E+00  0.00000000000E+00  0.77586472762E+02  0.14712407789E+03  0.12500333411E+03 0.  0.
    9000005    1    3    3    0    0  0.60438538088E+02  0.97875507843E+01  0.53533253178E+02  0.81335245942E+02  0.10000000000E+01 0.  0.
    9000005    1    3    3    0    0 -0.60438538088E+02 -0.97875507843E+01  0.24053219584E+02  0.65788831947E+02  0.10000000000E+01 0.  0.
<mgrwt>
<rscale>  0 0.12500333E+03</rscale>
<asrwt>0</asrwt>
<pdfrwt beam="2">  1        4 0.53490466E-02 0.12500333E+03</pdfrwt>
<pdfrwt beam="1">  1       -4 0.17285427E-01 0.12500333E+03</pdfrwt>
<totfact> 0.99872594E+03</totfact>
</mgrwt>
</event>
<event>
 5    1  0.3261711E-002  0.1249982E+03  0.7818608E-02  0.1235072E+00
          4   -1    0    0  501    0  0.00000000000E+00  0.00000000000E+00  0.13150684170E+03  0.13151297393E+03  0.12700000000E+01 0.  1.
         -4   -1    0    0    0  501 -0.00000000000E+00 -0.00000000000E+00 -0.29682510082E+02  0.29709666858E+02  0.12700000000E+01 0.  1.
         25    2    1    2    0    0  0.00000000000E+00  0.00000000000E+00  0.10182433161E+03  0.16122264079E+03  0.12499818157E+03 0.  0.
    9000005    1    3    3    0    0  0.36377233560E+01  0.61257906152E+02  0.66139030667E+02  0.90228241005E+02  0.10000000000E+01 0.  0.
    9000005    1    3    3    0    0 -0.36377233560E+01 -0.61257906152E+02  0.35685300947E+02  0.70994399786E+02  0.10000000000E+01 0.  0.
<mgrwt>
<rscale>  0 0.12499818E+03</rscale>
<asrwt>0</asrwt>
<pdfrwt beam="1">  1        4 0.20234382E-01 0.12499818E+03</pdfrwt>
<pdfrwt beam="2">  1       -4 0.45691008E-02 0.12499818E+03</pdfrwt>
<totfact> 0.97111555E+03</totfact>
</mgrwt>
</event>
<event>
 5    1  0.3261711E-002  0.1250020E+03  0.7818608E-02  0.1235066E+00
          4   -1    0    0  501    0  0.00000000000E+00  0.00000000000E+00  0.44452662770E+03  0.44452844188E+03  0.12700000000E+01 0. -1.
         -4   -1    0    0    0  501 -0.00000000000E+00 -0.00000000000E+00 -0.87399866098E+01  0.88317759222E+01  0.12700000000E+01 0. -1.
         25    2    1    2    0    0  0.00000000000E+00  0.00000000000E+00  0.43578664109E+03  0.45336021780E+03  0.12500196209E+03 0.  0.
    9000005    1    3    3    0    0  0.30151694690E+02 -0.56802490146E+01  0.20440013788E+02  0.36880673600E+02  0.10000000000E+01 0.  0.
    9000005    1    3    3    0    0 -0.30151694690E+02  0.56802490146E+01  0.41534662730E+03  0.41647954420E+03  0.10000000000E+01 0.  0.
<mgrwt>
<rscale>  0 0.12500196E+03</rscale>
<asrwt>0</asrwt>
<pdfrwt beam="1">  1        4 0.68395887E-01 0.12500196E+03</pdfrwt>
<pdfrwt beam="2">  1       -4 0.13518141E-02 0.12500196E+03</pdfrwt>
<totfact> 0.59671234E+03</totfact>
</mgrwt>
</event>
<event>
 5    1  0.3261711E-002  0.1249901E+03  0.7818608E-02  0.1235085E+00
          4   -1    0    0  501    0  0.00000000000E+00  0.00000000000E+00  0.13034079073E+03  0.13034697782E+03  0.12700000000E+01 0. -1.
         -4   -1    0    0    0  501 -0.00000000000E+00 -0.00000000000E+00 -0.29944412323E+02  0.29971331792E+02  0.12700000000E+01 0. -1.
         25    2    1    2    0    0  0.00000000000E+00  0.00000000000E+00  0.10039637840E+03  0.16031830961E+03  0.12499011001E+03 0.  0.
    9000005    1    3    3    0    0  0.42097377029E+02 -0.51672646683E-01 -0.90323781703E+01  0.43067106685E+02  0.10000000000E+01 0.  0.
    9000005    1    3    3    0    0 -0.42097377029E+02  0.51672646683E-01  0.10942875657E+03  0.11725120293E+03  0.10000000000E+01 0.  0.
<mgrwt>
<rscale>  0 0.12499011E+03</rscale>
<asrwt>0</asrwt>
<pdfrwt beam="1">  1        4 0.20054976E-01 0.12499011E+03</pdfrwt>
<pdfrwt beam="2">  1       -4 0.46093793E-02 0.12499011E+03</pdfrwt>
<totfact> 0.97303080E+03</totfact>
</mgrwt>
</event>
<event>
 5    1  0.3261711E-002  0.1249981E+03  0.7818608E-02  0.1235072E+00
          4   -1    0    0  501    0  0.00000000000E+00  0.00000000000E+00  0.31136437609E+03  0.31136696613E+03  0.12700000000E+01 0. -1.
         -4   -1    0    0    0  501 -0.00000000000E+00 -0.00000000000E+00 -0.12510412853E+02  0.12574709927E+02  0.12700000000E+01 0. -1.
         25    2    1    2    0    0  0.00000000000E+00  0.00000000000E+00  0.29885396324E+03  0.32394167606E+03  0.12499807257E+03 0.  0.
    9000005    1    3    3    0    0 -0.15159013128E+02 -0.40153642883E+02  0.26713745426E+03  0.27056520505E+03  0.10000000000E+01 0.  0.
    9000005    1    3    3    0    0  0.15159013128E+02  0.40153642883E+02  0.31716508981E+02  0.53376471012E+02  0.10000000000E+01 0.  0.
<mgrwt>
<rscale>  0 0.12499807E+03</rscale>
<asrwt>0</asrwt>
<pdfrwt beam="1">  1        4 0.47907352E-01 0.12499807E+03</pdfrwt>
<pdfrwt beam="2">  1       -4 0.19298243E-02 0.12499807E+03</pdfrwt>
<totfact> 0.72692862E+03</totfact>
</mgrwt>
</event>
<event>
 5    1  0.3261711E-002  0.1249993E+03  0.7818608E-02  0.1235070E+00
         -4   -1    0    0    0  501 -0.00000000000E+00  0.00000000000E+00  0.19978896052E+03  0.19979299699E+03  0.12700000000E+01 0.  1.
          4   -1    0    0  501    0  0.00000000000E+00 -0.00000000000E+00 -0.19526811507E+02  0.19568067550E+02  0.12700000000E+01 0.  1.
         25    2    1    2    0    0  0.00000000000E+00  0.00000000000E+00  0.18026214902E+03  0.21936106454E+03  0.12499933708E+03 0.  0.
    9000005    1    3    3    0    0 -0.41813449308E+02  0.24985067216E+01  0.17151372057E+03  0.17655753573E+03  0.10000000000E+01 0.  0.
    9000005    1    3    3    0    0  0.41813449308E+02 -0.24985067216E+01  0.87484284493E+01  0.42803528817E+02  0.10000000000E+01 0.  0.
<mgrwt>
<rscale>  0 0.12499934E+03</rscale>
<asrwt>0</asrwt>
<pdfrwt beam="2">  1        4 0.30076091E-02 0.12499934E+03</pdfrwt>
<pdfrwt beam="1">  1       -4 0.30740245E-01 0.12499934E+03</pdfrwt>
<totfact> 0.86970843E+03</totfact>
</mgrwt>
</event>
<event>
 5    1  0.3261711E-002  0.1250021E+03  0.7818608E-02  0.1235066E+00
         -4   -1    0    0    0  501 -0.00000000000E+00  0.00000000000E+00  0.60531972551E+03  0.60532105778E+03  0.12700000000E+01 0. -1.
          4   -1    0    0  501    0  0.00000000000E+00 -0.00000000000E+00 -0.63895859050E+01  0.65145765815E+01  0.12700000000E+01 0. -1.
         25    2    1    2    0    0  0.00000000000E+00  0.00000000000E+00  0.59893013960E+03  0.61183563436E+03  0.12500212537E+03 0.  0.
    9000005    1    3    3    0    0 -0.26014070439E+02  0.33163487356E+02  0.52529852412E+03  0.52698774957E+03  0.10000000000E+01 0.  0.
    9000005    1    3    3    0    0  0.26014070439E+02 -0.33163487356E+02  0.73631615480E+02  0.84847884786E+02  0.10000000000E+01 0.  0.
<mgrwt>
<rscale>  0 0.12500213E+03</rscale>
<asrwt>0</asrwt>
<pdfrwt beam="2">  1        4 0.99273007E-03 0.12500213E+03</pdfrwt>
<pdfrwt beam="1">  1       -4 0.93135857E-01 0.12500213E+03</pdfrwt>
<totfact> 0.48126679E+03</totfact>
</mgrwt>
</event>
<event>
 5    1  0.3261711E-002  0.1250019E+03  0.7818608E-02  0.1235066E+00
          4   -1    0    0  501    0  0.00000000000E+00  0.00000000000E+00  0.39744575070E+03  0.39744777978E+03  0.12700000000E+01 0. -1.
         -4   -1    0    0    0  501 -0.00000000000E+00 -0.00000000000E+00 -0.97855984151E+01  0.98676662054E+01  0.12700000000E+01 0. -1.
         25    2    1    2    0    0  0.00000000000E+00  0.00000000000E+00  0.38766015229E+03  0.40731544598E+03  0.12500191545E+03 0.  0.
    9000005    1    3    3    0    0 -0.58212309954E+02 -0.10369565969E+02  0.25974222344E+03  0.26638923320E+03  0.10000000000E+01 0.  0.
    9000005    1    3    3    0    0  0.58212309954E+02  0.10369565969E+02  0.12791792885E+03  0.14092621278E+03  0.10000000000E+01 0.  0.
<mgrwt>
<rscale>  0 0.12500192E+03</rscale>
<asrwt>0</asrwt>
<pdfrwt beam="1">  1        4 0.61151966E-01 0.12500192E+03</pdfrwt>
<pdfrwt beam="2">  1       -4 0.15119457E-02 0.12500192E+03</pdfrwt>
<totfact> 0.63844764E+03</totfact>
</mgrwt>
</event>
<event>
 5    1  0.3261711E-002  0.1250020E+03  0.7818608E-02  0.1235066E+00
          4   -1    0    0  501    0  0.00000000000E+00  0.00000000000E+00  0.33482041524E+02  0.33506118913E+02  0.12700000000E+01 0. -1.
         -4   -1    0    0    0  501 -0.00000000000E+00 -0.00000000000E+00 -0.11660129060E+03  0.11660820669E+03  0.12700000000E+01 0. -1.
         25    2    1    2    0    0  0.00000000000E+00  0.00000000000E+00 -0.83119249071E+02  0.15011432561E+03  0.12500200473E+03 0.  0.
    9000005    1    3    3    0    0  0.46991652074E+02 -0.23181430930E+02 -0.82456788456E+02  0.97702180462E+02  0.10000000000E+01 0.  0.
    9000005    1    3    3    0    0 -0.46991652074E+02  0.23181430930E+02 -0.66246061459E+00  0.52412145145E+02  0.10000000000E+01 0.  0.
<mgrwt>
<rscale>  0 0.12500200E+03</rscale>
<asrwt>0</asrwt>
<pdfrwt beam="1">  1        4 0.51534675E-02 0.12500200E+03</pdfrwt>
<pdfrwt beam="2">  1       -4 0.17941044E-01 0.12500200E+03</pdfrwt>
<totfact> 0.99276435E+03</totfact>
</mgrwt>
</event>
<event>
 5    1  0.3261711E-002  0.1250002E+03  0.7818608E-02  0.1235069E+00
          4   -1    0    0  501    0  0.00000000000E+00  0.00000000000E+00  0.23986981123E+03  0.23987317323E+03  0.12700000000E+01 0.  1.
         -4   -1    0    0    0  501 -0.00000000000E+00 -0.00000000000E+00 -0.16256692316E+02  0.16306224120E+02  0.12700000000E+01 0.  1.
         25    2    1    2    0    0  0.00000000000E+00  0.00000000000E+00  0.22361311891E+03  0.25617939735E+03  0.12500022672E+03 0.  0.
    9000005    1    3    3    0    0 -0.46258196008E+02  0.36939978447E+02  0.15284032636E+03  0.16390713245E+03  0.10000000000E+01 0.  0.
    9000005    1    3    3    0    0  0.46258196008E+02 -0.36939978447E+02  0.70772792545E+02  0.92272264902E+02  0.10000000000E+01 0.  0.
<mgrwt>
<rscale>  0 0.12500023E+03</rscale>
<asrwt>0</asrwt>
<pdfrwt beam="1">  1        4 0.36907117E-01 0.12500023E+03</pdfrwt>
<pdfrwt beam="2">  1       -4 0.25050983E-02 0.12500023E+03</pdfrwt>
<totfact> 0.81444823E+03</totfact>
</mgrwt>
</event>
<event>
 5    1  0.3261711E-002  0.1250000E+03  0.7818608E-02  0.1235069E+00
         -4   -1    0    0    0  501 -0.00000000000E+00  0.00000000000E+00  0.32123052527E+03  0.32123303576E+03  0.12700000000E+01 0.  1.
          4   -1    0    0  501    0  0.00000000000E+00 -0.00000000000E+00 -0.12124546486E+02  0.12190878865E+02  0.12700000000E+01 0.  1.
         25    2    1    2    0    0  0.00000000000E+00  0.00000000000E+00  0.30910597878E+03  0.33342391463E+03  0.12500000290E+03 0.  0.
    9000005    1    3    3    0    0 -0.18081372320E+02  0.36428704019E+02  0.28111399166E+03  0.28404236094E+03  0.10000000000E+01 0.  0.
    9000005    1    3    3    0    0  0.18081372320E+02 -0.36428704019E+02  0.27991987127E+02  0.49381553690E+02  0.10000000000E+01 0.  0.
<mgrwt>
<rscale>  0 0.12500000E+03</rscale>
<asrwt>0</asrwt>
<pdfrwt beam="2">  1        4 0.18706108E-02 0.12500000E+03</pdfrwt>
<pdfrwt beam="1">  1       -4 0.49425366E-01 0.12500000E+03</pdfrwt>
<totfact> 0.71587470E+03</totfact>
</mgrwt>
</event>
<event>
 5    1  0.3261711E-002  0.1250059E+03  0.7818608E-02  0.1235060E+00
          4   -1    0    0  501    0  0.00000000000E+00  0.00000000000E+00  0.17243458627E+02  0.17290163834E+02  0.12700000000E+01 0. -1.
         -4   -1    0    0    0  501 -0.00000000000E+00 -0.00000000000E+00 -0.22620148780E+03  0.22620505295E+03  0.12700000000E+01 0. -1.
         25    2    1    2    0    0  0.00000000000E+00  0.00000000000E+00 -0.20895802917E+03  0.24349521679E+03  0.12500585044E+03 0.  0.
    9000005    1    3    3    0    0  0.47648664419E+02  0.40418694675E+02 -0.10690375025E+03  0.12382842128E+03  0.10000000000E+01 0.  0.
    9000005    1    3    3    0    0 -0.47648664419E+02 -0.40418694675E+02 -0.10205427892E+03  0.11966679551E+03  0.10000000000E+01 0.  0.
<mgrwt>
<rscale>  0 0.12500585E+03</rscale>
<asrwt>0</asrwt>
<pdfrwt beam="1">  1        4 0.26567069E-02 0.12500585E+03</pdfrwt>
<pdfrwt beam="2">  1       -4 0.34804094E-01 0.12500585E+03</pdfrwt>
<totfact> 0.83268698E+03</totfact>
</mgrwt>
</event>
<event>
 5    1  0.3261711E-002  0.1249977E+03  0.7818608E-02  0.1235073E+00
         -4   -1    0    0    0  501 -0.00000000000E+00  0.00000000000E+00  0.41011005926E+04  0.41011007893E+04  0.12700000000E+01 0.  1.
          4   -1    0    0  501    0  0.00000000000E+00 -0.00000000000E+00 -0.52881445360E+00  0.13756979052E+01  0.12700000000E+01 0.  1.
         25    2    1    2    0    0  0.00000000000E+00  0.00000000000E+00  0.41005717782E+04  0.41024764872E+04  0.12499767945E+03 0.  0.
    9000005    1    3    3    0    0 -0.49392800945E+02 -0.12724902799E+02  0.32352499269E+04  0.32356521231E+04  0.10000000000E+01 0.  0.
    9000005    1    3    3    0    0  0.49392800945E+02  0.12724902799E+02  0.86532185123E+03  0.86682436407E+03  0.10000000000E+01 0.  0.
<mgrwt>
<rscale>  0 0.12499768E+03</rscale>
<asrwt>0</asrwt>
<pdfrwt beam="2">  1        4 0.14651381E-03 0.12499768E+03</pdfrwt>
<pdfrwt beam="1">  1       -4 0.63101345E+00 0.12499768E+03</pdfrwt>
<totfact> 0.11533974E+01</totfact>
</mgrwt>
</event>
<event>
 5    1  0.3261711E-002  0.1249981E+03  0.7818608E-02  0.1235072E+00
          4   -1    0    0  501    0  0.00000000000E+00  0.00000000000E+00  0.19650276919E+03  0.19650687316E+03  0.12700000000E+01 0. -1.
         -4   -1    0    0    0  501 -0.00000000000E+00 -0.00000000000E+00 -0.19853633689E+02  0.19894211988E+02  0.12700000000E+01 0. -1.
         25    2    1    2    0    0  0.00000000000E+00  0.00000000000E+00  0.17664913550E+03  0.21640108514E+03  0.12499805030E+03 0.  0.
    9000005    1    3    3    0    0  0.60947062135E+02 -0.54290520792E+01  0.66350204167E+02  0.90262775175E+02  0.10000000000E+01 0.  0.
    9000005    1    3    3    0    0 -0.60947062135E+02  0.54290520792E+01  0.11029893133E+03  0.12613830997E+03  0.10000000000E+01 0.  0.
<mgrwt>
<rscale>  0 0.12499805E+03</rscale>
<asrwt>0</asrwt>
<pdfrwt beam="1">  1        4 0.30234633E-01 0.12499805E+03</pdfrwt>
<pdfrwt beam="2">  1       -4 0.30578422E-02 0.12499805E+03</pdfrwt>
<totfact> 0.87444862E+03</totfact>
</mgrwt>
</event>
<event>
 5    1  0.3261711E-002  0.1249978E+03  0.7818608E-02  0.1235073E+00
         -4   -1    0    0    0  501 -0.00000000000E+00  0.00000000000E+00  0.88328837987E+02  0.88337967602E+02  0.12700000000E+01 0. -1.
          4   -1    0    0  501    0  0.00000000000E+00 -0.00000000000E+00 -0.44201865968E+02  0.44220106909E+02  0.12700000000E+01 0. -1.
         25    2    1    2    0    0  0.00000000000E+00  0.00000000000E+00  0.44126972019E+02  0.13255807451E+03  0.12499781381E+03 0.  0.
    9000005    1    3    3    0    0  0.30318071267E+02  0.42518216806E+02  0.58463388664E+02  0.78396122479E+02  0.10000000000E+01 0.  0.
    9000005    1    3    3    0    0 -0.30318071267E+02 -0.42518216806E+02 -0.14336416644E+02  0.54161952032E+02  0.10000000000E+01 0.  0.
<mgrwt>
<rscale>  0 0.12499781E+03</rscale>
<asrwt>0</asrwt>
<pdfrwt beam="2">  1        4 0.68023926E-02 0.12499781E+03</pdfrwt>
<pdfrwt beam="1">  1       -4 0.13591157E-01 0.12499781E+03</pdfrwt>
<totfact> 0.10290309E+04</totfact>
</mgrwt>
</event>
<event>
 5    1  0.3261711E-002  0.1250041E+03  0.7818608E-02  0.1235063E+00
          4   -1    0    0  501    0  0.00000000000E+00  0.00000000000E+00  0.25382965329E+01  0.28382828063E+01  0.12700000000E+01 0. -1.
         -4   -1    0    0    0  501 -0.00000000000E+00 -0.00000000000E+00 -0.14528569514E+04  0.14528575065E+04  0.12700000000E+01 0. -1.
         25    2    1    2    0    0  0.00000000000E+00  0.00000000000E+00 -0.14503186549E+04  0.14556957893E+04  0.12500412108E+03 0.  0.
    9000005    1    3    3    0    0  0.12860046172E+02 -0.22682773726E+02 -0.63776674878E+02  0.68908296089E+02  0.10000000000E+01 0.  0.
    9000005    1    3    3    0    0 -0.12860046172E+02  0.22682773726E+02 -0.13865419800E+04  0.13867874932E+04  0.10000000000E+01 0.  0.
<mgrwt>
<rscale>  0 0.12500412E+03</rscale>
<asrwt>0</asrwt>
<pdfrwt beam="1">  1        4 0.41362689E-03 0.12500412E+03</pdfrwt>
<pdfrwt beam="2">  1       -4 0.22353895E+00 0.12500412E+03</pdfrwt>
<totfact> 0.18814762E+03</totfact>
</mgrwt>
</event>
<event>
 5    1  0.3261711E-002  0.1250023E+03  0.7818608E-02  0.1235066E+00
          4   -1    0    0  501    0  0.00000000000E+00  0.00000000000E+00  0.34454225058E+01  0.36720343467E+01  0.12700000000E+01 0.  1.
         -4   -1    0    0    0  501 -0.00000000000E+00 -0.00000000000E+00 -0.10974674528E+04  0.10974681876E+04  0.12700000000E+01 0.  1.
         25    2    1    2    0    0  0.00000000000E+00  0.00000000000E+00 -0.10940220303E+04  0.11011402220E+04  0.12500234270E+03 0.  0.
    9000005    1    3    3    0    0 -0.12185034678E+02 -0.57408060438E+02 -0.73619573140E+03  0.73853186485E+03  0.10000000000E+01 0.  0.
    9000005    1    3    3    0    0  0.12185034678E+02  0.57408060438E+02 -0.35782629891E+03  0.36260835714E+03  0.10000000000E+01 0.  0.
<mgrwt>
<rscale>  0 0.12500234E+03</rscale>
<asrwt>0</asrwt>
<pdfrwt beam="1">  1        4 0.54755408E-03 0.12500234E+03</pdfrwt>
<pdfrwt beam="2">  1       -4 0.16885836E+00 0.12500234E+03</pdfrwt>
<totfact> 0.27448690E+03</totfact>
</mgrwt>
</event>
<event>
 5    1  0.3261711E-002  0.1249986E+03  0.7818608E-02  0.1235071E+00
         -4   -1    0    0    0  501 -0.00000000000E+00  0.00000000000E+00  0.12232432224E+02  0.12298182716E+02  0.12700000000E+01 0. -1.
          4   -1    0    0  501    0  0.00000000000E+00 -0.00000000000E+00 -0.31840553462E+03  0.31840806739E+03  0.12700000000E+01 0. -1.
         25    2    1    2    0    0  0.00000000000E+00  0.00000000000E+00 -0.30617310240E+03  0.33070625010E+03  0.12499862090E+03 0.  0.
    9000005    1    3    3    0    0 -0.14892391821E+02 -0.87282388295E+01 -0.31198592705E+03  0.31246469267E+03  0.10000000000E+01 0.  0.
    9000005    1    3    3    0    0  0.14892391821E+02  0.87282388295E+01  0.58128246524E+01  0.18241557435E+02  0.10000000000E+01 0.  0.
<mgrwt>
<rscale>  0 0.12499862E+03</rscale>
<asrwt>0</asrwt>
<pdfrwt beam="2">  1        4 0.48990713E-01 0.12499862E+03</pdfrwt>
<pdfrwt beam="1">  1       -4 0.18871654E-02 0.12499862E+03</pdfrwt>
<totfact> 0.71902795E+03</totfact>
</mgrwt>
</event>
<event>
 5    1  0.3261711E-002  0.1249847E+03  0.7818608E-02  0.1235093E+00
         -4   -1    0    0    0  501 -0.00000000000E+00  0.00000000000E+00  0.14727677094E+02  0.14782333124E+02  0.12700000000E+01 0. -1.
          4   -1    0    0  501    0  0.00000000000E+00 -0.00000000000E+00 -0.26461950838E+03  0.26462255594E+03  0.12700000000E+01 0. -1.
         25    2    1    2    0    0  0.00000000000E+00  0.00000000000E+00 -0.24989183128E+03  0.27940488907E+03  0.12498465783E+03 0.  0.
    9000005    1    3    3    0    0  0.11290801854E+02 -0.52775754649E+02 -0.19533899075E+03  0.20266002021E+03  0.10000000000E+01 0.  0.
    9000005    1    3    3    0    0 -0.11290801854E+02  0.52775754649E+02 -0.54552840535E+02  0.76744868856E+02  0.10000000000E+01 0.  0.
<mgrwt>
<rscale>  0 0.12498466E+03</rscale>
<asrwt>0</asrwt>
<pdfrwt beam="2">  1        4 0.40715129E-01 0.12498466E+03</pdfrwt>
<pdfrwt beam="1">  1       -4 0.22702354E-02 0.12498466E+03</pdfrwt>
<totfact> 0.78283776E+03</totfact>
</mgrwt>
</event>
<event>
 5    1  0.3261711E-002  0.1250004E+03  0.7818608E-02  0.1235069E+00
          4   -1    0    0  501    0  0.00000000000E+00  0.00000000000E+00  0.10067487495E+04  0.10067495505E+04  0.12700000000E+01 0.  1.
         -4   -1    0    0    0  501 -0.00000000000E+00 -0.00000000000E+00 -0.37753445024E+01  0.39832306124E+01  0.12700000000E+01 0.  1.
         25    2    1    2    0    0  0.00000000000E+00  0.00000000000E+00  0.10029734050E+04  0.10107327811E+04  0.12500041508E+03 0.  0.
    9000005    1    3    3    0    0  0.47701957578E+02 -0.24836158293E+02  0.24413799380E+03  0.24999334298E+03  0.10000000000E+01 0.  0.
    9000005    1    3    3    0    0 -0.47701957578E+02  0.24836158293E+02  0.75883541117E+03  0.76073943816E+03  0.10000000000E+01 0.  0.
<mgrwt>
<rscale>  0 0.12500042E+03</rscale>
<asrwt>0</asrwt>
<pdfrwt beam="1">  1        4 0.15490067E+00 0.12500042E+03</pdfrwt>
<pdfrwt beam="2">  1       -4 0.59687433E-03 0.12500042E+03</pdfrwt>
<totfact> 0.30252388E+03</totfact>
</mgrwt>
</event>
<event>
 5    1  0.3261711E-002  0.1249966E+03  0.7818608E-02  0.1235075E+00
          4   -1    0    0  501    0  0.00000000000E+00  0.00000000000E+00  0.14274935905E+03  0.14275500835E+03  0.12700000000E+01 0.  1.
         -4   -1    0    0    0  501 -0.00000000000E+00 -0.00000000000E+00 -0.27341955020E+02  0.27371434093E+02  0.12700000000E+01 0.  1.
         25    2    1    2    0    0  0.00000000000E+00  0.00000000000E+00  0.11540740403E+03  0.17012644245E+03  0.12499655001E+03 0.  0.
    9000005    1    3    3    0    0 -0.18255601116E+01  0.35915563440E+02 -0.11853418042E+02  0.37878277234E+02  0.10000000000E+01 0.  0.
    9000005    1    3    3    0    0  0.18255601116E+01 -0.35915563440E+02  0.12726082207E+03  0.13224816521E+03  0.10000000000E+01 0.  0.
<mgrwt>
<rscale>  0 0.12499655E+03</rscale>
<asrwt>0</asrwt>
<pdfrwt beam="1">  1        4 0.21964142E-01 0.12499655E+03</pdfrwt>
<pdfrwt beam="2">  1       -4 0.42091569E-02 0.12499655E+03</pdfrwt>
<totfact> 0.95432464E+03</totfact>
</mgrwt>
</event>
<event>
 5    1  0.3261711E-002  0.1250022E+03  0.7818608E-02  0.1235066E+00
         -4   -1    0    0    0  501 -0.00000000000E+00  0.00000000000E+00  0.24222908918E+03  0.24223241844E+03  0.12700000000E+01 0.  1.
          4   -1    0    0  501    0  0.00000000000E+00 -0.00000000000E+00 -0.16098384935E+02  0.16148402321E+02  0.12700000000E+01 0.  1.
         25    2    1    2    0    0  0.00000000000E+00  0.00000000000E+00  0.22613070424E+03  0.25838082076E+03  0.12500221253E+03 0.  0.
    9000005    1    3    3    0    0  0.15726401158E+02  0.57770939599E+02  0.15007505635E+03  0.16158070334E+03  0.10000000000E+01 0.  0.
    9000005    1    3    3    0    0 -0.15726401158E+02 -0.57770939599E+02  0.76055647896E+02  0.96800117419E+02  0.10000000000E+01 0.  0.
<mgrwt>
<rscale>  0 0.12500221E+03</rscale>
<asrwt>0</asrwt>
<pdfrwt beam="2">  1        4 0.24807784E-02 0.12500221E+03</pdfrwt>
<pdfrwt beam="1">  1       -4 0.37270115E-01 0.12500221E+03</pdfrwt>
<totfact> 0.81129833E+03</totfact>
</mgrwt>
</event>
<event>
 5    1  0.3261711E-002  0.1250021E+03  0.7818608E-02  0.1235066E+00
         -4   -1    0    0    0  501 -0.00000000000E+00  0.00000000000E+00  0.24752295676E+02  0.24784855078E+02  0.12700000000E+01 0.  1.
          4   -1    0    0  501    0  0.00000000000E+00 -0.00000000000E+00 -0.15768002739E+03  0.15768514177E+03  0.12700000000E+01 0.  1.
         25    2    1    2    0    0  0.00000000000E+00  0.00000000000E+00 -0.13292773171E+03  0.18246999685E+03  0.12500207156E+03 0.  0.
    9000005    1    3    3    0    0  0.43964834296E+02 -0.31442346472E+02 -0.20677194995E+02  0.57879825493E+02  0.10000000000E+01 0.  0.
    9000005    1    3    3    0    0 -0.43964834296E+02  0.31442346472E+02 -0.11225053671E+03  0.12459017136E+03  0.10000000000E+01 0.  0.
<mgrwt>
<rscale>  0 0.12500207E+03</rscale>
<asrwt>0</asrwt>
<pdfrwt beam="2">  1        4 0.24261363E-01 0.12500207E+03</pdfrwt>
<pdfrwt beam="1">  1       -4 0.38109436E-02 0.12500207E+03</pdfrwt>
<totfact> 0.93169949E+03</totfact>
</mgrwt>
</event>
<event>
 5    1  0.3261711E-002  0.1249988E+03  0.7818608E-02  0.1235071E+00
          4   -1    0    0  501    0  0.00000000000E+00  0.00000000000E+00  0.65619219384E+02  0.65631508078E+02  0.12700000000E+01 0. -1.
         -4   -1    0    0    0  501 -0.00000000000E+00 -0.00000000000E+00 -0.59503272746E+02  0.59516824239E+02  0.12700000000E+01 0. -1.
         25    2    1    2    0    0  0.00000000000E+00  0.00000000000E+00  0.61159466385E+01  0.12514833232E+03  0.12499880111E+03 0.  0.
    9000005    1    3    3    0    0  0.18826954760E+02  0.18732387017E+02  0.59692580556E+02  0.65341875718E+02  0.10000000000E+01 0.  0.
    9000005    1    3    3    0    0 -0.18826954760E+02 -0.18732387017E+02 -0.53576633918E+02  0.59806456598E+02  0.10000000000E+01 0.  0.
<mgrwt>
<rscale>  0 0.12499880E+03</rscale>
<asrwt>0</asrwt>
<pdfrwt beam="1">  1        4 0.10097252E-01 0.12499880E+03</pdfrwt>
<pdfrwt beam="2">  1       -4 0.91563373E-02 0.12499880E+03</pdfrwt>
<totfact> 0.10449925E+04</totfact>
</mgrwt>
</event>
<event>
 5    1  0.3261711E-002  0.1249889E+03  0.7818608E-02  0.1235087E+00
          4   -1    0    0  501    0  0.00000000000E+00  0.00000000000E+00  0.10667407515E+02  0.10742740948E+02  0.12700000000E+01 0. -1.
         -4   -1    0    0    0  501 -0.00000000000E+00 -0.00000000000E+00 -0.36475606945E+03  0.36475828038E+03  0.12700000000E+01 0. -1.
         25    2    1    2    0    0  0.00000000000E+00  0.00000000000E+00 -0.35408866194E+03  0.37550102132E+03  0.12498894552E+03 0.  0.
    9000005    1    3    3    0    0 -0.51906376478E+00 -0.50617415334E+02 -0.28710769706E+03  0.29153768517E+03  0.10000000000E+01 0.  0.
    9000005    1    3    3    0    0  0.51906376478E+00  0.50617415334E+02 -0.66980964873E+02  0.83963336151E+02  0.10000000000E+01 0.  0.
<mgrwt>
<rscale>  0 0.12498895E+03</rscale>
<asrwt>0</asrwt>
<pdfrwt beam="1">  1        4 0.16471048E-02 0.12498895E+03</pdfrwt>
<pdfrwt beam="2">  1       -4 0.56122274E-01 0.12498895E+03</pdfrwt>
<totfact> 0.67023706E+03</totfact>
</mgrwt>
</event>
<event>
 5    1  0.3261711E-002  0.1250005E+03  0.7818608E-02  0.1235069E+00
         -4   -1    0    0    0  501 -0.00000000000E+00  0.00000000000E+00  0.14879917124E+02  0.14934015991E+02  0.12700000000E+01 0. -1.
          4   -1    0    0  501    0  0.00000000000E+00 -0.00000000000E+00 -0.26198817885E+03  0.26199125702E+03  0.12700000000E+01 0. -1.
         25    2    1    2    0    0  0.00000000000E+00  0.00000000000E+00 -0.24710826172E+03  0.27692527301E+03  0.12500045529E+03 0.  0.
    9000005    1    3    3    0    0 -0.31726610570E+02  0.23106787904E+02 -0.23128647089E+03  0.23459525375E+03  0.10000000000E+01 0.  0.
    9000005    1    3    3    0    0  0.31726610570E+02 -0.23106787904E+02 -0.15821790830E+02  0.42330019260E+02  0.10000000000E+01 0.  0.
<mgrwt>
<rscale>  0 0.12500046E+03</rscale>
<asrwt>0</asrwt>
<pdfrwt beam="2">  1        4 0.40310269E-01 0.12500046E+03</pdfrwt>
<pdfrwt beam="1">  1       -4 0.22936164E-02 0.12500046E+03</pdfrwt>
<totfact> 0.78586772E+03</totfact>
</mgrwt>
</event>
<event>
 5    1  0.3261711E-002  0.1249975E+03  0.7818608E-02  0.1235073E+00
          4   -1    0    0  501    0  0.00000000000E+00  0.00000000000E+00  0.94520617096E+02  0.94529148712E+02  0.12700000000E+01 0.  1.
         -4   -1    0    0    0  501 -0.00000000000E+00 -0.00000000000E+00 -0.41305149918E+02  0.41324669506E+02  0.12700000000E+01 0.  1.
         25    2    1    2    0    0  0.00000000000E+00  0.00000000000E+00  0.53215467178E+02  0.13585381822E+03  0.12499749588E+03 0.  0.
    9000005    1    3    3    0    0  0.50468773797E+02  0.60393392238E+01  0.66117808921E+02  0.83403449589E+02  0.10000000000E+01 0.  0.
    9000005    1    3    3    0    0 -0.50468773797E+02 -0.60393392238E+01 -0.12902341743E+02  0.52450368629E+02  0.10000000000E+01 0.  0.
<mgrwt>
<rscale>  0 0.12499750E+03</rscale>
<asrwt>0</asrwt>
<pdfrwt beam="1">  1        4 0.14543791E-01 0.12499750E+03</pdfrwt>
<pdfrwt beam="2">  1       -4 0.63567962E-02 0.12499750E+03</pdfrwt>
<totfact> 0.10220683E+04</totfact>
</mgrwt>
</event>
<event>
 5    1  0.3261711E-002  0.1250004E+03  0.7818608E-02  0.1235069E+00
         -4   -1    0    0    0  501 -0.00000000000E+00  0.00000000000E+00  0.44715016906E+02  0.44733048598E+02  0.12700000000E+01 0.  1.
          4   -1    0    0  501    0  0.00000000000E+00 -0.00000000000E+00 -0.87319037712E+02  0.87328272896E+02  0.12700000000E+01 0.  1.
         25    2    1    2    0    0  0.00000000000E+00  0.00000000000E+00 -0.42604020807E+02  0.13206132149E+03  0.12500036018E+03 0.  0.
    9000005    1    3    3    0    0 -0.26862005803E+02  0.55269641321E+02 -0.33300095284E+02  0.69901337279E+02  0.10000000000E+01 0.  0.
    9000005    1    3    3    0    0  0.26862005803E+02 -0.55269641321E+02 -0.93039255232E+01  0.62159984215E+02  0.10000000000E+01 0.  0.
<mgrwt>
<rscale>  0 0.12500036E+03</rscale>
<asrwt>0</asrwt>
<pdfrwt beam="2">  1        4 0.13435796E-01 0.12500036E+03</pdfrwt>
<pdfrwt beam="1">  1       -4 0.68813308E-02 0.12500036E+03</pdfrwt>
<totfact> 0.10300306E+04</totfact>
</mgrwt>
</event>
<event>
 5    1  0.3261711E-002  0.1250079E+03  0.7818608E-02  0.1235057E+00
          4   -1    0    0  501    0  0.00000000000E+00  0.00000000000E+00  0.39046051114E+02  0.39066699471E+02  0.12700000000E+01 0.  1.
         -4   -1    0    0    0  501 -0.00000000000E+00 -0.00000000000E+00 -0.10000370639E+03  0.10001177027E+03  0.12700000000E+01 0.  1.
         25    2    1    2    0    0  0.00000000000E+00  0.00000000000E+00 -0.60957655278E+02  0.13907846974E+03  0.12500793978E+03 0.  0.
    9000005    1    3    3    0    0  0.44254059191E+02 -0.92418989981E+01 -0.78485528142E+02  0.90580420509E+02  0.10000000000E+01 0.  0.
    9000005    1    3    3    0    0 -0.44254059191E+02  0.92418989981E+01  0.17527872864E+02  0.48498049230E+02  0.10000000000E+01 0.  0.
<mgrwt>
<rscale>  0 0.12500794E+03</rscale>
<asrwt>0</asrwt>
<pdfrwt beam="1">  1        4 0.60092935E-02 0.12500794E+03</pdfrwt>
<pdfrwt beam="2">  1       -4 0.15387394E-01 0.12500794E+03</pdfrwt>
<totfact> 0.10150905E+04</totfact>
</mgrwt>
</event>
<event>
 4    1  0.3261711E-002  0.1248131E+03  0.7818608E-02  0.1235362E+00
         -4   -1    0    0    0  501 -0.00000000000E+00  0.00000000000E+00  0.31320908952E+02  0.31346646353E+02  0.12700000000E+01 0.  1.
          4   -1    0    0  501    0  0.00000000000E+00 -0.00000000000E+00 -0.12426421865E+03  0.12427070828E+03  0.12700000000E+01 0.  1.
    9000005    1    1    2    0    0  0.45932916080E+02  0.29216506558E+02 -0.84496878947E+02  0.10051944880E+03  0.10000000000E+01 0.  0.
    9000005    1    1    2    0    0 -0.45932916080E+02 -0.29216506558E+02 -0.84464307514E+01  0.55097905836E+02  0.10000000000E+01 0.  0.
<mgrwt>
<rscale>  0 0.12481307E+03</rscale>
<asrwt>0</asrwt>
<pdfrwt beam="2">  1        4 0.19120051E-01 0.12481307E+03</pdfrwt>
<pdfrwt beam="1">  1       -4 0.48210804E-02 0.12481307E+03</pdfrwt>
<totfact> 0.98608368E+03</totfact>
</mgrwt>
</event>
<event>
 5    1  0.3261711E-002  0.1249989E+03  0.7818608E-02  0.1235071E+00
         -4   -1    0    0    0  501 -0.00000000000E+00  0.00000000000E+00  0.90876566219E+01  0.91759687705E+01  0.12700000000E+01 0. -1.
          4   -1    0    0  501    0  0.00000000000E+00 -0.00000000000E+00 -0.42766631610E+03  0.42766820179E+03  0.12700000000E+01 0. -1.
         25    2    1    2    0    0  0.00000000000E+00  0.00000000000E+00 -0.41857865948E+03  0.43684417057E+03  0.12499894074E+03 0.  0.
    9000005    1    3    3    0    0 -0.21782598436E+02  0.55149095007E+02 -0.27824198440E+03  0.28449166272E+03  0.10000000000E+01 0.  0.
    9000005    1    3    3    0    0  0.21782598436E+02 -0.55149095007E+02 -0.14033667508E+03  0.15235250785E+03  0.10000000000E+01 0.  0.
<mgrwt>
<rscale>  0 0.12499894E+03</rscale>
<asrwt>0</asrwt>
<pdfrwt beam="2">  1        4 0.65801741E-01 0.12499894E+03</pdfrwt>
<pdfrwt beam="1">  1       -4 0.14050396E-02 0.12499894E+03</pdfrwt>
<totfact> 0.61121905E+03</totfact>
</mgrwt>
</event>
<event>
 5    1  0.3261711E-002  0.1250049E+03  0.7818608E-02  0.1235062E+00
          4   -1    0    0  501    0  0.00000000000E+00  0.00000000000E+00  0.21765130589E+03  0.21765501110E+03  0.12700000000E+01 0. -1.
         -4   -1    0    0    0  501 -0.00000000000E+00 -0.00000000000E+00 -0.17922372638E+02  0.17967313126E+02  0.12700000000E+01 0. -1.
         25    2    1    2    0    0  0.00000000000E+00  0.00000000000E+00  0.19972893325E+03  0.23562232423E+03  0.12500493148E+03 0.  0.
    9000005    1    3    3    0    0  0.22747120772E+01  0.59869722455E+02  0.66357663284E+02  0.89408598347E+02  0.10000000000E+01 0.  0.
    9000005    1    3    3    0    0 -0.22747120772E+01 -0.59869722455E+02  0.13337126997E+03  0.14621372588E+03  0.10000000000E+01 0.  0.
<mgrwt>
<rscale>  0 0.12500493E+03</rscale>
<asrwt>0</asrwt>
<pdfrwt beam="1">  1        4 0.33488557E-01 0.12500493E+03</pdfrwt>
<pdfrwt beam="2">  1       -4 0.27610301E-02 0.12500493E+03</pdfrwt>
<totfact> 0.84444407E+03</totfact>
</mgrwt>
</event>
<event>
 5    1  0.3261711E-002  0.1250039E+03  0.7818608E-02  0.1235063E+00
         -4   -1    0    0    0  501 -0.00000000000E+00  0.00000000000E+00  0.19753054602E+02  0.19793839095E+02  0.12700000000E+01 0. -1.
          4   -1    0    0  501    0  0.00000000000E+00 -0.00000000000E+00 -0.19751982394E+03  0.19752390678E+03  0.12700000000E+01 0. -1.
         25    2    1    2    0    0  0.00000000000E+00  0.00000000000E+00 -0.17776676934E+03  0.21731774587E+03  0.12500391350E+03 0.  0.
    9000005    1    3    3    0    0  0.21890703890E+02  0.56163590601E+02 -0.11755223925E+03  0.13211010855E+03  0.10000000000E+01 0.  0.
    9000005    1    3    3    0    0 -0.21890703890E+02 -0.56163590601E+02 -0.60214530082E+02  0.85207637328E+02  0.10000000000E+01 0.  0.
<mgrwt>
<rscale>  0 0.12500391E+03</rscale>
<asrwt>0</asrwt>
<pdfrwt beam="2">  1        4 0.30391115E-01 0.12500391E+03</pdfrwt>
<pdfrwt beam="1">  1       -4 0.30423829E-02 0.12500391E+03</pdfrwt>
<totfact> 0.87286937E+03</totfact>
</mgrwt>
</event>
<event>
 5    1  0.3261711E-002  0.1250003E+03  0.7818608E-02  0.1235069E+00
         -4   -1    0    0    0  501 -0.00000000000E+00  0.00000000000E+00  0.81744485501E+02  0.81754350403E+02  0.12700000000E+01 0.  1.
          4   -1    0    0  501    0  0.00000000000E+00 -0.00000000000E+00 -0.47765147713E+02  0.47782028379E+02  0.12700000000E+01 0.  1.
         25    2    1    2    0    0  0.00000000000E+00  0.00000000000E+00  0.33979337789E+02  0.12953637878E+03  0.12500031213E+03 0.  0.
    9000005    1    3    3    0    0 -0.40421272823E+02 -0.37930998129E+02 -0.12912767523E+02  0.56924331185E+02  0.10000000000E+01 0.  0.
    9000005    1    3    3    0    0  0.40421272823E+02  0.37930998129E+02  0.46892105312E+02  0.72612047598E+02  0.10000000000E+01 0.  0.
<mgrwt>
<rscale>  0 0.12500031E+03</rscale>
<asrwt>0</asrwt>
<pdfrwt beam="2">  1        4 0.73505417E-02 0.12500031E+03</pdfrwt>
<pdfrwt beam="1">  1       -4 0.12578132E-01 0.12500031E+03</pdfrwt>
<totfact> 0.10354362E+04</totfact>
</mgrwt>
</event>
<event>
 5    1  0.3261711E-002  0.1249970E+03  0.7818608E-02  0.1235074E+00
          4   -1    0    0  501    0  0.00000000000E+00  0.00000000000E+00  0.41966668587E+02  0.41985880630E+02  0.12700000000E+01 0. -1.
         -4   -1    0    0    0  501 -0.00000000000E+00 -0.00000000000E+00 -0.93030560625E+02  0.93039228878E+02  0.12700000000E+01 0. -1.
         25    2    1    2    0    0  0.00000000000E+00  0.00000000000E+00 -0.51063892039E+02  0.13502510951E+03  0.12499703647E+03 0.  0.
    9000005    1    3    3    0    0  0.21883393452E+02  0.44781095919E+02  0.15186077986E+02  0.52113783448E+02  0.10000000000E+01 0.  0.
    9000005    1    3    3    0    0 -0.21883393452E+02 -0.44781095919E+02 -0.66249970025E+02  0.82911326060E+02  0.10000000000E+01 0.  0.
<mgrwt>
<rscale>  0 0.12499704E+03</rscale>
<asrwt>0</asrwt>
<pdfrwt beam="1">  1        4 0.64585552E-02 0.12499704E+03</pdfrwt>
<pdfrwt beam="2">  1       -4 0.14314538E-01 0.12499704E+03</pdfrwt>
<totfact> 0.10238226E+04</totfact>
</mgrwt>
</event>
<event>
 5    1  0.3261711E-002  0.1249984E+03  0.7818608E-02  0.1235072E+00
         -4   -1    0    0    0  501 -0.00000000000E+00  0.00000000000E+00  0.55625860994E+03  0.55626005971E+03  0.12700000000E+01 0. -1.
          4   -1    0    0  501    0  0.00000000000E+00 -0.00000000000E+00 -0.69632904260E+01  0.70781574973E+01  0.12700000000E+01 0. -1.
         25    2    1    2    0    0  0.00000000000E+00  0.00000000000E+00  0.54929531951E+03  0.56333821721E+03  0.12499839571E+03 0.  0.
    9000005    1    3    3    0    0 -0.25716658342E+00 -0.60357328441E+02  0.20168866910E+03  0.21052884000E+03  0.10000000000E+01 0.  0.
    9000005    1    3    3    0    0  0.25716658342E+00  0.60357328441E+02  0.34760665041E+03  0.35280937720E+03  0.10000000000E+01 0.  0.
<mgrwt>
<rscale>  0 0.12499840E+03</rscale>
<asrwt>0</asrwt>
<pdfrwt beam="2">  1        4 0.10802232E-02 0.12499840E+03</pdfrwt>
<pdfrwt beam="1">  1       -4 0.85587175E-01 0.12499840E+03</pdfrwt>
<totfact> 0.51268532E+03</totfact>
</mgrwt>
</event>
<event>
 5    1  0.3261711E-002  0.1249978E+03  0.7818608E-02  0.1235073E+00
         -4   -1    0    0    0  501 -0.00000000000E+00  0.00000000000E+00  0.98286999925E+01  0.99104108665E+01  0.12700000000E+01 0. -1.
          4   -1    0    0  501    0  0.00000000000E+00 -0.00000000000E+00 -0.39569095667E+03  0.39569299474E+03  0.12700000000E+01 0. -1.
         25    2    1    2    0    0  0.00000000000E+00  0.00000000000E+00 -0.38586225667E+03  0.40560340561E+03  0.12499776604E+03 0.  0.
    9000005    1    3    3    0    0 -0.64979901062E+01 -0.15608830039E+02 -0.38814410723E+03  0.38851345849E+03  0.10000000000E+01 0.  0.
    9000005    1    3    3    0    0  0.64979901062E+01  0.15608830039E+02  0.22818505546E+01  0.17089947120E+02  0.10000000000E+01 0.  0.
<mgrwt>
<rscale>  0 0.12499777E+03</rscale>
<asrwt>0</asrwt>
<pdfrwt beam="2">  1        4 0.60881962E-01 0.12499777E+03</pdfrwt>
<pdfrwt beam="1">  1       -4 0.15185502E-02 0.12499777E+03</pdfrwt>
<totfact> 0.64014595E+03</totfact>
</mgrwt>
</event>
<event>
 5    1  0.3261711E-002  0.1250004E+03  0.7818608E-02  0.1235069E+00
         -4   -1    0    0    0  501 -0.00000000000E+00  0.00000000000E+00  0.50362770313E+02  0.50378780589E+02  0.12700000000E+01 0. -1.
          4   -1    0    0  501    0  0.00000000000E+00 -0.00000000000E+00 -0.77529158096E+02  0.77539559291E+02  0.12700000000E+01 0. -1.
         25    2    1    2    0    0  0.00000000000E+00  0.00000000000E+00 -0.27166387783E+02  0.12791833988E+03  0.12500035621E+03 0.  0.
    9000005    1    3    3    0    0  0.22985545041E+02 -0.15858995458E+02  0.43627392572E+02  0.51809192238E+02  0.10000000000E+01 0.  0.
    9000005    1    3    3    0    0 -0.22985545041E+02  0.15858995458E+02 -0.70793780355E+02  0.76109147641E+02  0.10000000000E+01 0.  0.
<mgrwt>
<rscale>  0 0.12500036E+03</rscale>
<asrwt>0</asrwt>
<pdfrwt beam="2">  1        4 0.11929594E-01 0.12500036E+03</pdfrwt>
<pdfrwt beam="1">  1       -4 0.77501502E-02 0.12500036E+03</pdfrwt>
<totfact> 0.10389168E+04</totfact>
</mgrwt>
</event>
<event>
 5    1  0.3261711E-002  0.1249986E+03  0.7818608E-02  0.1235071E+00
          4   -1    0    0  501    0  0.00000000000E+00  0.00000000000E+00  0.20125931810E+01  0.23797964855E+01  0.12700000000E+01 0.  1.
         -4   -1    0    0    0  501 -0.00000000000E+00 -0.00000000000E+00 -0.17782381380E+04  0.17782385915E+04  0.12700000000E+01 0.  1.
         25    2    1    2    0    0  0.00000000000E+00  0.00000000000E+00 -0.17762255448E+04  0.17806183880E+04  0.12499863040E+03 0.  0.
    9000005    1    3    3    0    0 -0.22058745446E+02 -0.34882458139E+01 -0.17195202955E+04  0.17196656079E+04  0.10000000000E+01 0.  0.
    9000005    1    3    3    0    0  0.22058745446E+02  0.34882458139E+01 -0.56705249274E+02  0.60952780123E+02  0.10000000000E+01 0.  0.
<mgrwt>
<rscale>  0 0.12499863E+03</rscale>
<asrwt>0</asrwt>
<pdfrwt beam="1">  1        4 0.33791244E-03 0.12499863E+03</pdfrwt>
<pdfrwt beam="2">  1       -4 0.27360223E+00 0.12499863E+03</pdfrwt>
<totfact> 0.13004976E+03</totfact>
</mgrwt>
</event>
<event>
 5    1  0.3261711E-002  0.1250437E+03  0.7818608E-02  0.1235001E+00
          4   -1    0    0  501    0  0.00000000000E+00  0.00000000000E+00  0.24579438693E+04  0.24579441974E+04  0.12700000000E+01 0.  1.
         -4   -1    0    0    0  501 -0.00000000000E+00 -0.00000000000E+00 -0.13364202576E+01  0.18436157693E+01  0.12700000000E+01 0.  1.
         25    2    1    2    0    0  0.00000000000E+00  0.00000000000E+00  0.24566074491E+04  0.24597878132E+04  0.12504370085E+03 0.  0.
    9000005    1    3    3    0    0 -0.60245394123E+02  0.16454363808E+02  0.11736179428E+04  0.11752788304E+04  0.10000000000E+01 0.  0.
    9000005    1    3    3    0    0  0.60245394123E+02 -0.16454363808E+02  0.12829895063E+04  0.12845089828E+04  0.10000000000E+01 0.  0.
<mgrwt>
<rscale>  0 0.12504370E+03</rscale>
<asrwt>0</asrwt>
<pdfrwt beam="1">  1        4 0.37818420E+00 0.12504370E+03</pdfrwt>
<pdfrwt beam="2">  1       -4 0.24464343E-03 0.12504370E+03</pdfrwt>
<totfact> 0.49882050E+02</totfact>
</mgrwt>
</event>
<event>
 5    1  0.3261711E-002  0.1250011E+03  0.7818608E-02  0.1235068E+00
          4   -1    0    0  501    0  0.00000000000E+00  0.00000000000E+00  0.11148856925E+02  0.11220958548E+02  0.12700000000E+01 0. -1.
         -4   -1    0    0    0  501 -0.00000000000E+00 -0.00000000000E+00 -0.34917570984E+03  0.34917801941E+03  0.12700000000E+01 0. -1.
         25    2    1    2    0    0  0.00000000000E+00  0.00000000000E+00 -0.33802685291E+03  0.36039897796E+03  0.12500108009E+03 0.  0.
    9000005    1    3    3    0    0  0.37445437817E+02  0.45727969844E+02 -0.22754309714E+03  0.23509587214E+03  0.10000000000E+01 0.  0.
    9000005    1    3    3    0    0 -0.37445437817E+02 -0.45727969844E+02 -0.11048375577E+03  0.12530310582E+03  0.10000000000E+01 0.  0.
<mgrwt>
<rscale>  0 0.12500108E+03</rscale>
<asrwt>0</asrwt>
<pdfrwt beam="1">  1        4 0.17209330E-02 0.12500108E+03</pdfrwt>
<pdfrwt beam="2">  1       -4 0.53725056E-01 0.12500108E+03</pdfrwt>
<totfact> 0.68593856E+03</totfact>
</mgrwt>
</event>
<event>
 5    1  0.3261711E-002  0.1250046E+03  0.7818608E-02  0.1235062E+00
          4   -1    0    0  501    0  0.00000000000E+00  0.00000000000E+00  0.28823689670E+02  0.28851654826E+02  0.12700000000E+01 0. -1.
         -4   -1    0    0    0  501 -0.00000000000E+00 -0.00000000000E+00 -0.13543543251E+03  0.13544138688E+03  0.12700000000E+01 0. -1.
         25    2    1    2    0    0  0.00000000000E+00  0.00000000000E+00 -0.10661174284E+03  0.16429304171E+03  0.12500455928E+03 0.  0.
    9000005    1    3    3    0    0 -0.22911555947E+02 -0.87033153367E+01  0.22250145117E+02  0.33117307431E+02  0.10000000000E+01 0.  0.
    9000005    1    3    3    0    0  0.22911555947E+02  0.87033153367E+01 -0.12886188796E+03  0.13117573427E+03  0.10000000000E+01 0.  0.
<mgrwt>
<rscale>  0 0.12500456E+03</rscale>
<asrwt>0</asrwt>
<pdfrwt beam="1">  1        4 0.44370231E-02 0.12500456E+03</pdfrwt>
<pdfrwt beam="2">  1       -4 0.20838829E-01 0.12500456E+03</pdfrwt>
<totfact> 0.96511561E+03</totfact>
</mgrwt>
</event>
<event>
 5    1  0.3261711E-002  0.1249963E+03  0.7818608E-02  0.1235075E+00
          4   -1    0    0  501    0  0.00000000000E+00  0.00000000000E+00  0.27106653940E+02  0.27136388629E+02  0.12700000000E+01 0.  1.
         -4   -1    0    0    0  501 -0.00000000000E+00 -0.00000000000E+00 -0.14398672587E+03  0.14399232663E+03  0.12700000000E+01 0.  1.
         25    2    1    2    0    0  0.00000000000E+00  0.00000000000E+00 -0.11688007193E+03  0.17112871526E+03  0.12499634383E+03 0.  0.
    9000005    1    3    3    0    0  0.37075653663E+02  0.43267481092E+02 -0.93567881859E+02  0.10955650382E+03  0.10000000000E+01 0.  0.
    9000005    1    3    3    0    0 -0.37075653663E+02 -0.43267481092E+02 -0.23312190072E+02  0.61572211431E+02  0.10000000000E+01 0.  0.
<mgrwt>
<rscale>  0 0.12499634E+03</rscale>
<asrwt>0</asrwt>
<pdfrwt beam="1">  1        4 0.41729727E-02 0.12499634E+03</pdfrwt>
<pdfrwt beam="2">  1       -4 0.22154522E-01 0.12499634E+03</pdfrwt>
<totfact> 0.95246492E+03</totfact>
</mgrwt>
</event>
<event>
 5    1  0.3261711E-002  0.1250026E+03  0.7818608E-02  0.1235065E+00
         -4   -1    0    0    0  501 -0.00000000000E+00  0.00000000000E+00  0.30487297391E+03  0.30487561910E+03  0.12700000000E+01 0.  1.
          4   -1    0    0  501    0  0.00000000000E+00 -0.00000000000E+00 -0.12779069383E+02  0.12842021425E+02  0.12700000000E+01 0.  1.
         25    2    1    2    0    0  0.00000000000E+00  0.00000000000E+00  0.29209390453E+03  0.31771764053E+03  0.12500260013E+03 0.  0.
    9000005    1    3    3    0    0  0.38966435906E+02 -0.24478252954E+02  0.38576975450E+02  0.60056232231E+02  0.10000000000E+01 0.  0.
    9000005    1    3    3    0    0 -0.38966435906E+02  0.24478252954E+02  0.25351692908E+03  0.25766140829E+03  0.10000000000E+01 0.  0.
<mgrwt>
<rscale>  0 0.12500260E+03</rscale>
<asrwt>0</asrwt>
<pdfrwt beam="2">  1        4 0.19710566E-02 0.12500260E+03</pdfrwt>
<pdfrwt beam="1">  1       -4 0.46908580E-01 0.12500260E+03</pdfrwt>
<totfact> 0.73424172E+03</totfact>
</mgrwt>
</event>
<event>
 5    1  0.3261711E-002  0.1249990E+03  0.7818608E-02  0.1235071E+00
         -4   -1    0    0    0  501 -0.00000000000E+00  0.00000000000E+00  0.14999772089E+03  0.15000309721E+03  0.12700000000E+01 0. -1.
          4   -1    0    0  501    0  0.00000000000E+00 -0.00000000000E+00 -0.26020326215E+02  0.26051300857E+02  0.12700000000E+01 0. -1.
         25    2    1    2    0    0  0.00000000000E+00  0.00000000000E+00  0.12397739468E+03  0.17605439807E+03  0.12499902675E+03 0.  0.
    9000005    1    3    3    0    0  0.29424116860E+02 -0.49617083150E+02  0.95837018947E+02  0.11186316549E+03  0.10000000000E+01 0.  0.
    9000005    1    3    3    0    0 -0.29424116860E+02  0.49617083150E+02  0.28140375730E+02  0.64191232575E+02  0.10000000000E+01 0.  0.
<mgrwt>
<rscale>  0 0.12499903E+03</rscale>
<asrwt>0</asrwt>
<pdfrwt beam="2">  1        4 0.40059234E-02 0.12499903E+03</pdfrwt>
<pdfrwt beam="1">  1       -4 0.23079369E-01 0.12499903E+03</pdfrwt>
<totfact> 0.94334143E+03</totfact>
</mgrwt>
</event>
<event>
 5    1  0.3261711E-002  0.1249958E+03  0.7818608E-02  0.1235076E+00
          4   -1    0    0  501    0  0.00000000000E+00  0.00000000000E+00  0.17936030370E+02  0.17980936723E+02  0.12700000000E+01 0. -1.
         -4   -1    0    0    0  501 -0.00000000000E+00 -0.00000000000E+00 -0.21745414008E+03  0.21745784865E+03  0.12700000000E+01 0. -1.
         25    2    1    2    0    0  0.00000000000E+00  0.00000000000E+00 -0.19951810971E+03  0.23543878537E+03  0.12499578215E+03 0.  0.
    9000005    1    3    3    0    0 -0.13533767706E+02 -0.58848910222E+02 -0.13005060514E+03  0.14338938943E+03  0.10000000000E+01 0.  0.
    9000005    1    3    3    0    0  0.13533767706E+02  0.58848910222E+02 -0.69467504575E+02  0.92049395948E+02  0.10000000000E+01 0.  0.
<mgrwt>
<rscale>  0 0.12499578E+03</rscale>
<asrwt>0</asrwt>
<pdfrwt beam="1">  1        4 0.27631291E-02 0.12499578E+03</pdfrwt>
<pdfrwt beam="2">  1       -4 0.33458221E-01 0.12499578E+03</pdfrwt>
<totfact> 0.84489351E+03</totfact>
</mgrwt>
</event>
<event>
 5    1  0.3261711E-002  0.1249986E+03  0.7818608E-02  0.1235071E+00
         -4   -1    0    0    0  501 -0.00000000000E+00  0.00000000000E+00  0.13187277151E+03  0.13187888673E+03  0.12700000000E+01 0. -1.
          4   -1    0    0  501    0  0.00000000000E+00 -0.00000000000E+00 -0.29600264536E+02  0.29627496698E+02  0.12700000000E+01 0. -1.
         25    2    1    2    0    0  0.00000000000E+00  0.00000000000E+00  0.10227250698E+03  0.16150638343E+03  0.12499858482E+03 0.  0.
    9000005    1    3    3    0    0  0.29993917285E+02  0.25702505287E+02  0.11370356189E+03  0.12037339340E+03  0.10000000000E+01 0.  0.
    9000005    1    3    3    0    0 -0.29993917285E+02 -0.25702505287E+02 -0.11431054918E+02  0.41132990028E+02  0.10000000000E+01 0.  0.
<mgrwt>
<rscale>  0 0.12499858E+03</rscale>
<asrwt>0</asrwt>
<pdfrwt beam="2">  1        4 0.45564520E-02 0.12499858E+03</pdfrwt>
<pdfrwt beam="1">  1       -4 0.20290684E-01 0.12499858E+03</pdfrwt>
<totfact> 0.97056236E+03</totfact>
</mgrwt>
</event>
<event>
 5    1  0.3261711E-002  0.1250024E+03  0.7818608E-02  0.1235066E+00
         -4   -1    0    0    0  501 -0.00000000000E+00  0.00000000000E+00  0.34285727103E+03  0.34285962316E+03  0.12700000000E+01 0. -1.
          4   -1    0    0  501    0  0.00000000000E+00 -0.00000000000E+00 -0.11355865106E+02  0.11426660593E+02  0.12700000000E+01 0. -1.
         25    2    1    2    0    0  0.00000000000E+00  0.00000000000E+00  0.33150140592E+03  0.35428628376E+03  0.12500235490E+03 0.  0.
    9000005    1    3    3    0    0  0.60369221188E+02  0.12626208111E+02  0.13719189026E+03  0.15042100502E+03  0.10000000000E+01 0.  0.
    9000005    1    3    3    0    0 -0.60369221188E+02 -0.12626208111E+02  0.19430951566E+03  0.20386527873E+03  0.10000000000E+01 0.  0.
<mgrwt>
<rscale>  0 0.12500235E+03</rscale>
<asrwt>0</asrwt>
<pdfrwt beam="2">  1        4 0.17526833E-02 0.12500235E+03</pdfrwt>
<pdfrwt beam="1">  1       -4 0.52752886E-01 0.12500235E+03</pdfrwt>
<totfact> 0.69251971E+03</totfact>
</mgrwt>
</event>
<event>
 5    1  0.3261711E-002  0.1250007E+03  0.7818608E-02  0.1235068E+00
         -4   -1    0    0    0  501 -0.00000000000E+00  0.00000000000E+00  0.45226519435E+03  0.45226697749E+03  0.12700000000E+01 0. -1.
          4   -1    0    0  501    0  0.00000000000E+00 -0.00000000000E+00 -0.85886791908E+01  0.86820683159E+01  0.12700000000E+01 0. -1.
         25    2    1    2    0    0  0.00000000000E+00  0.00000000000E+00  0.44367651516E+03  0.46094904580E+03  0.12500069087E+03 0.  0.
    9000005    1    3    3    0    0 -0.12601953618E+02 -0.48740032666E+02  0.35837272851E+03  0.36189281916E+03  0.10000000000E+01 0.  0.
    9000005    1    3    3    0    0  0.12601953618E+02  0.48740032666E+02  0.85303786653E+02  0.99056226642E+02  0.10000000000E+01 0.  0.
<mgrwt>
<rscale>  0 0.12500069E+03</rscale>
<asrwt>0</asrwt>
<pdfrwt beam="2">  1        4 0.13286564E-02 0.12500069E+03</pdfrwt>
<pdfrwt beam="1">  1       -4 0.69586570E-01 0.12500069E+03</pdfrwt>
<totfact> 0.59025985E+03</totfact>
</mgrwt>
</event>
<event>
 5    1  0.3261711E-002  0.1250072E+03  0.7818608E-02  0.1235058E+00
          4   -1    0    0  501    0  0.00000000000E+00  0.00000000000E+00  0.12333306372E+01  0.17703119670E+01  0.12700000000E+01 0. -1.
         -4   -1    0    0    0  501 -0.00000000000E+00 -0.00000000000E+00 -0.26007718368E+04  0.26007721469E+04  0.12700000000E+01 0. -1.
         25    2    1    2    0    0  0.00000000000E+00  0.00000000000E+00 -0.25995385062E+04  0.26025424589E+04  0.12500722013E+03 0.  0.
    9000005    1    3    3    0    0  0.14711094749E+02 -0.52275158985E+02 -0.19436808703E+04  0.19444396196E+04  0.10000000000E+01 0.  0.
    9000005    1    3    3    0    0 -0.14711094749E+02  0.52275158985E+02 -0.65585763585E+03  0.65810283927E+03  0.10000000000E+01 0.  0.
<mgrwt>
<rscale>  0 0.12500722E+03</rscale>
<asrwt>0</asrwt>
<pdfrwt beam="1">  1        4 0.23107536E-03 0.12500722E+03</pdfrwt>
<pdfrwt beam="2">  1       -4 0.40015647E+00 0.12500722E+03</pdfrwt>
<totfact> 0.39124233E+02</totfact>
</mgrwt>
</event>
<event>
 5    1  0.3261711E-002  0.1250049E+03  0.7818608E-02  0.1235062E+00
         -4   -1    0    0    0  501 -0.00000000000E+00  0.00000000000E+00  0.71346410094E+03  0.71346523127E+03  0.12700000000E+01 0.  1.
          4   -1    0    0  501    0  0.00000000000E+00 -0.00000000000E+00 -0.54006869267E+01  0.55480013771E+01  0.12700000000E+01 0.  1.
         25    2    1    2    0    0  0.00000000000E+00  0.00000000000E+00  0.70806341401E+03  0.71901323265E+03  0.12500492173E+03 0.  0.
    9000005    1    3    3    0    0  0.60263546251E+02  0.28092612746E+01  0.44783684678E+03  0.45188320204E+03  0.10000000000E+01 0.  0.
    9000005    1    3    3    0    0 -0.60263546251E+02 -0.28092612746E+01  0.26022656724E+03  0.26713003061E+03  0.10000000000E+01 0.  0.
<mgrwt>
<rscale>  0 0.12500492E+03</rscale>
<asrwt>0</asrwt>
<pdfrwt beam="2">  1        4 0.84229402E-03 0.12500492E+03</pdfrwt>
<pdfrwt beam="1">  1       -4 0.10977509E+00 0.12500492E+03</pdfrwt>
<totfact> 0.42097303E+03</totfact>
</mgrwt>
</event>
<event>
 5    1  0.3261711E-002  0.1249990E+03  0.7818608E-02  0.1235071E+00
          4   -1    0    0  501    0  0.00000000000E+00  0.00000000000E+00  0.39566018061E+03  0.39566221885E+03  0.12700000000E+01 0. -1.
         -4   -1    0    0    0  501 -0.00000000000E+00 -0.00000000000E+00 -0.98296641789E+01  0.99113671040E+01  0.12700000000E+01 0. -1.
         25    2    1    2    0    0  0.00000000000E+00  0.00000000000E+00  0.38583051643E+03  0.40557358595E+03  0.12499898483E+03 0.  0.
    9000005    1    3    3    0    0 -0.34602691058E+02 -0.45880009833E+02  0.27258129639E+03  0.27857473804E+03  0.10000000000E+01 0.  0.
    9000005    1    3    3    0    0  0.34602691058E+02  0.45880009833E+02  0.11324922004E+03  0.12699884791E+03  0.10000000000E+01 0.  0.
<mgrwt>
<rscale>  0 0.12499898E+03</rscale>
<asrwt>0</asrwt>
<pdfrwt beam="1">  1        4 0.60877235E-01 0.12499898E+03</pdfrwt>
<pdfrwt beam="2">  1       -4 0.15186977E-02 0.12499898E+03</pdfrwt>
<totfact> 0.64015729E+03</totfact>
</mgrwt>
</event>
<event>
 5    1  0.3261711E-002  0.1249989E+03  0.7818608E-02  0.1235071E+00
          4   -1    0    0  501    0  0.00000000000E+00  0.00000000000E+00  0.11771069047E+03  0.11771754139E+03  0.12700000000E+01 0.  1.
         -4   -1    0    0    0  501 -0.00000000000E+00 -0.00000000000E+00 -0.33164638106E+02  0.33188945761E+02  0.12700000000E+01 0.  1.
         25    2    1    2    0    0  0.00000000000E+00  0.00000000000E+00  0.84546052364E+02  0.15090648715E+03  0.12499893157E+03 0.  0.
    9000005    1    3    3    0    0  0.15918819334E+02  0.18896148467E+02 -0.27023299085E+02  0.36629659148E+02  0.10000000000E+01 0.  0.
    9000005    1    3    3    0    0 -0.15918819334E+02 -0.18896148467E+02  0.11156935145E+03  0.11427682800E+03  0.10000000000E+01 0.  0.
<mgrwt>
<rscale>  0 0.12499893E+03</rscale>
<asrwt>0</asrwt>
<pdfrwt beam="1">  1        4 0.18111734E-01 0.12499893E+03</pdfrwt>
<pdfrwt beam="2">  1       -4 0.51046488E-02 0.12499893E+03</pdfrwt>
<totfact> 0.99125693E+03</totfact>
</mgrwt>
</event>
<event>
 5    1  0.3261711E-002  0.1249969E+03  0.7818608E-02  0.1235074E+00
         -4   -1    0    0    0  501 -0.00000000000E+00  0.00000000000E+00  0.91259550609E+02  0.91268387064E+02  0.12700000000E+01 0. -1.
          4   -1    0    0  501    0  0.00000000000E+00 -0.00000000000E+00 -0.42781297550E+02  0.42800143926E+02  0.12700000000E+01 0. -1.
         25    2    1    2    0    0  0.00000000000E+00  0.00000000000E+00  0.48478253059E+02  0.13406853099E+03  0.12499691989E+03 0.  0.
    9000005    1    3    3    0    0 -0.14283059708E+02 -0.42685567650E+02  0.70732412088E+02  0.83845915822E+02  0.10000000000E+01 0.  0.
    9000005    1    3    3    0    0  0.14283059708E+02  0.42685567650E+02 -0.22254159029E+02  0.50222615168E+02  0.10000000000E+01 0.  0.
<mgrwt>
<rscale>  0 0.12499692E+03</rscale>
<asrwt>0</asrwt>
<pdfrwt beam="2">  1        4 0.65838676E-02 0.12499692E+03</pdfrwt>
<pdfrwt beam="1">  1       -4 0.14042060E-01 0.12499692E+03</pdfrwt>
<totfact> 0.10258454E+04</totfact>
</mgrwt>
</event>
<event>
 5    1  0.3261711E-002  0.1249995E+03  0.7818608E-02  0.1235070E+00
          4   -1    0    0  501    0  0.00000000000E+00  0.00000000000E+00  0.70058218057E+03  0.70058333168E+03  0.12700000000E+01 0.  1.
         -4   -1    0    0    0  501 -0.00000000000E+00 -0.00000000000E+00 -0.55021873029E+01  0.56468544444E+01  0.12700000000E+01 0.  1.
         25    2    1    2    0    0  0.00000000000E+00  0.00000000000E+00  0.69507999327E+03  0.70623018613E+03  0.12499951503E+03 0.  0.
    9000005    1    3    3    0    0 -0.38315694036E+01 -0.62281449721E+02  0.32833063884E+03  0.33420901888E+03  0.10000000000E+01 0.  0.
    9000005    1    3    3    0    0  0.38315694036E+01  0.62281449721E+02  0.36674935443E+03  0.37202116725E+03  0.10000000000E+01 0.  0.
<mgrwt>
<rscale>  0 0.12499952E+03</rscale>
<asrwt>0</asrwt>
<pdfrwt beam="1">  1        4 0.10779319E+00 0.12499952E+03</pdfrwt>
<pdfrwt beam="2">  1       -4 0.85770635E-03 0.12499952E+03</pdfrwt>
<totfact> 0.42760266E+03</totfact>
</mgrwt>
</event>
<event>
 5    1  0.3261711E-002  0.1249981E+03  0.7818608E-02  0.1235072E+00
         -4   -1    0    0    0  501 -0.00000000000E+00  0.00000000000E+00  0.38781684625E+03  0.38781892571E+03  0.12700000000E+01 0. -1.
          4   -1    0    0  501    0  0.00000000000E+00 -0.00000000000E+00 -0.10029955511E+02  0.10110039938E+02  0.12700000000E+01 0. -1.
         25    2    1    2    0    0  0.00000000000E+00  0.00000000000E+00  0.37778689074E+03  0.39792896564E+03  0.12499810752E+03 0.  0.
    9000005    1    3    3    0    0  0.33058774774E+02  0.40486257351E+02  0.79856953058E+02  0.95447119263E+02  0.10000000000E+01 0.  0.
    9000005    1    3    3    0    0 -0.33058774774E+02 -0.40486257351E+02  0.29792993768E+03  0.30248184638E+03  0.10000000000E+01 0.  0.
<mgrwt>
<rscale>  0 0.12499811E+03</rscale>
<asrwt>0</asrwt>
<pdfrwt beam="2">  1        4 0.15493904E-02 0.12499811E+03</pdfrwt>
<pdfrwt beam="1">  1       -4 0.59670450E-01 0.12499811E+03</pdfrwt>
<totfact> 0.64757419E+03</totfact>
</mgrwt>
</event>
<event>
 5    1  0.3261711E-002  0.1249969E+03  0.7818608E-02  0.1235074E+00
          4   -1    0    0  501    0  0.00000000000E+00  0.00000000000E+00  0.27135025074E+01  0.29959966385E+01  0.12700000000E+01 0. -1.
         -4   -1    0    0    0  501 -0.00000000000E+00 -0.00000000000E+00 -0.13679836492E+04  0.13679842388E+04  0.12700000000E+01 0. -1.
         25    2    1    2    0    0  0.00000000000E+00  0.00000000000E+00 -0.13652701467E+04  0.13709802354E+04  0.12499692911E+03 0.  0.
    9000005    1    3    3    0    0  0.25824448709E+02  0.46771285421E+01 -0.13046614509E+04  0.13049257754E+04  0.10000000000E+01 0.  0.
    9000005    1    3    3    0    0 -0.25824448709E+02 -0.46771285421E+01 -0.60608695817E+02  0.66054460040E+02  0.10000000000E+01 0.  0.
<mgrwt>
<rscale>  0 0.12499693E+03</rscale>
<asrwt>0</asrwt>
<pdfrwt beam="1">  1        4 0.43923868E-03 0.12499693E+03</pdfrwt>
<pdfrwt beam="2">  1       -4 0.21048028E+00 0.12499693E+03</pdfrwt>
<totfact> 0.20613797E+03</totfact>
</mgrwt>
</event>
<event>
 5    1  0.3261711E-002  0.1249950E+03  0.7818608E-02  0.1235077E+00
          4   -1    0    0  501    0  0.00000000000E+00  0.00000000000E+00  0.73959056110E+03  0.73959165150E+03  0.12700000000E+01 0. -1.
         -4   -1    0    0    0  501 -0.00000000000E+00 -0.00000000000E+00 -0.52037536669E+01  0.53564869295E+01  0.12700000000E+01 0. -1.
         25    2    1    2    0    0  0.00000000000E+00  0.00000000000E+00  0.73438680743E+03  0.74494813843E+03  0.12499498397E+03 0.  0.
    9000005    1    3    3    0    0  0.30308433707E+02  0.46110436462E+02  0.54198632178E+03  0.54478890086E+03  0.10000000000E+01 0.  0.
    9000005    1    3    3    0    0 -0.30308433707E+02 -0.46110436462E+02  0.19240048565E+03  0.20015923757E+03  0.10000000000E+01 0.  0.
<mgrwt>
<rscale>  0 0.12499498E+03</rscale>
<asrwt>0</asrwt>
<pdfrwt beam="1">  1        4 0.11379503E+00 0.12499498E+03</pdfrwt>
<pdfrwt beam="2">  1       -4 0.81240984E-03 0.12499498E+03</pdfrwt>
<totfact> 0.40821405E+03</totfact>
</mgrwt>
</event>
<event>
 5    1  0.3261711E-002  0.1250012E+03  0.7818608E-02  0.1235067E+00
          4   -1    0    0  501    0  0.00000000000E+00  0.00000000000E+00  0.76118228788E+03  0.76118334735E+03  0.12700000000E+01 0. -1.
         -4   -1    0    0    0  501 -0.00000000000E+00 -0.00000000000E+00 -0.50522686216E+01  0.52094450976E+01  0.12700000000E+01 0. -1.
         25    2    1    2    0    0  0.00000000000E+00  0.00000000000E+00  0.75613001926E+03  0.76639279245E+03  0.12500122516E+03 0.  0.
    9000005    1    3    3    0    0  0.15138193032E+02 -0.58898574673E+02  0.46630139867E+03  0.47025121094E+03  0.10000000000E+01 0.  0.
    9000005    1    3    3    0    0 -0.15138193032E+02  0.58898574673E+02  0.28982862060E+03  0.29614158152E+03  0.10000000000E+01 0.  0.
<mgrwt>
<rscale>  0 0.12500123E+03</rscale>
<asrwt>0</asrwt>
<pdfrwt beam="1">  1        4 0.11711716E+00 0.12500123E+03</pdfrwt>
<pdfrwt beam="2">  1       -4 0.78944398E-03 0.12500123E+03</pdfrwt>
<totfact> 0.39801002E+03</totfact>
</mgrwt>
</event>
<event>
 5    1  0.3261711E-002  0.1250012E+03  0.7818608E-02  0.1235067E+00
          4   -1    0    0  501    0  0.00000000000E+00  0.00000000000E+00  0.31879168861E+03  0.31879421831E+03  0.12700000000E+01 0.  1.
         -4   -1    0    0    0  501 -0.00000000000E+00 -0.00000000000E+00 -0.12218038985E+02  0.12283866518E+02  0.12700000000E+01 0.  1.
         25    2    1    2    0    0  0.00000000000E+00  0.00000000000E+00  0.30657364963E+03  0.33107808483E+03  0.12500118243E+03 0.  0.
    9000005    1    3    3    0    0  0.64284692859E+00 -0.41069238349E+02  0.28542891108E+02  0.50027914443E+02  0.10000000000E+01 0.  0.
    9000005    1    3    3    0    0 -0.64284692859E+00  0.41069238349E+02  0.27803075852E+03  0.28105017038E+03  0.10000000000E+01 0.  0.
<mgrwt>
<rscale>  0 0.12500118E+03</rscale>
<asrwt>0</asrwt>
<pdfrwt beam="1">  1        4 0.49050131E-01 0.12500118E+03</pdfrwt>
<pdfrwt beam="2">  1       -4 0.18849566E-02 0.12500118E+03</pdfrwt>
<totfact> 0.71855739E+03</totfact>
</mgrwt>
</event>
<event>
 5    1  0.3261711E-002  0.1249986E+03  0.7818608E-02  0.1235071E+00
          4   -1    0    0  501    0  0.00000000000E+00  0.00000000000E+00  0.39270773450E+01  0.41273280065E+01  0.12700000000E+01 0. -1.
         -4   -1    0    0    0  501 -0.00000000000E+00 -0.00000000000E+00 -0.96974434269E+03  0.96974517430E+03  0.12700000000E+01 0. -1.
         25    2    1    2    0    0  0.00000000000E+00  0.00000000000E+00 -0.96581726534E+03  0.97387250230E+03  0.12499864284E+03 0.  0.
    9000005    1    3    3    0    0 -0.22310838220E+02 -0.51548485987E+02 -0.69629638695E+03  0.69855900136E+03  0.10000000000E+01 0.  0.
    9000005    1    3    3    0    0  0.22310838220E+02  0.51548485987E+02 -0.26952087839E+03  0.27531350094E+03  0.10000000000E+01 0.  0.
<mgrwt>
<rscale>  0 0.12499864E+03</rscale>
<asrwt>0</asrwt>
<pdfrwt beam="1">  1        4 0.61963438E-03 0.12499864E+03</pdfrwt>
<pdfrwt beam="2">  1       -4 0.14920672E+00 0.12499864E+03</pdfrwt>
<totfact> 0.31484251E+03</totfact>
</mgrwt>
</event>
<event>
 5    1  0.3261711E-002  0.1249977E+03  0.7818608E-02  0.1235073E+00
         -4   -1    0    0    0  501 -0.00000000000E+00  0.00000000000E+00  0.10657734061E+02  0.10733135391E+02  0.12700000000E+01 0. -1.
          4   -1    0    0  501    0  0.00000000000E+00 -0.00000000000E+00 -0.36513584181E+03  0.36513805043E+03  0.12700000000E+01 0. -1.
         25    2    1    2    0    0  0.00000000000E+00  0.00000000000E+00 -0.35447810775E+03  0.37587118582E+03  0.12499767782E+03 0.  0.
    9000005    1    3    3    0    0  0.49967508457E+02 -0.19273752320E+02 -0.80411183067E+02  0.96618775567E+02  0.10000000000E+01 0.  0.
    9000005    1    3    3    0    0 -0.49967508457E+02  0.19273752320E+02 -0.27406692468E+03  0.27925241026E+03  0.10000000000E+01 0.  0.
<mgrwt>
<rscale>  0 0.12499768E+03</rscale>
<asrwt>0</asrwt>
<pdfrwt beam="2">  1        4 0.56180705E-01 0.12499768E+03</pdfrwt>
<pdfrwt beam="1">  1       -4 0.16456217E-02 0.12499768E+03</pdfrwt>
<totfact> 0.66972583E+03</totfact>
</mgrwt>
</event>
<event>
 5    1  0.3261711E-002  0.1250002E+03  0.7818608E-02  0.1235069E+00
          4   -1    0    0  501    0  0.00000000000E+00  0.00000000000E+00  0.18135316718E+02  0.18179730814E+02  0.12700000000E+01 0.  1.
         -4   -1    0    0    0  501 -0.00000000000E+00 -0.00000000000E+00 -0.21508547150E+03  0.21508922091E+03  0.12700000000E+01 0.  1.
         25    2    1    2    0    0  0.00000000000E+00  0.00000000000E+00 -0.19695015478E+03  0.23326895172E+03  0.12500016147E+03 0.  0.
    9000005    1    3    3    0    0 -0.27880643610E+01 -0.45571613124E+02 -0.18846797768E+02  0.49403916967E+02  0.10000000000E+01 0.  0.
    9000005    1    3    3    0    0  0.27880643610E+01  0.45571613124E+02 -0.17810335701E+03  0.18386503475E+03  0.10000000000E+01 0.  0.
<mgrwt>
<rscale>  0 0.12500016E+03</rscale>
<asrwt>0</asrwt>
<pdfrwt beam="1">  1        4 0.27937538E-02 0.12500016E+03</pdfrwt>
<pdfrwt beam="2">  1       -4 0.33093776E-01 0.12500016E+03</pdfrwt>
<totfact> 0.84809856E+03</totfact>
</mgrwt>
</event>
<event>
 5    1  0.3261711E-002  0.1250016E+03  0.7818608E-02  0.1235067E+00
         -4   -1    0    0    0  501 -0.00000000000E+00  0.00000000000E+00  0.11164647792E+03  0.11165370094E+03  0.12700000000E+01 0.  1.
          4   -1    0    0  501    0  0.00000000000E+00 -0.00000000000E+00 -0.34968675650E+02  0.34991730119E+02  0.12700000000E+01 0.  1.
         25    2    1    2    0    0  0.00000000000E+00  0.00000000000E+00  0.76677802272E+02  0.14664543105E+03  0.12500158834E+03 0.  0.
    9000005    1    3    3    0    0  0.43431687879E+02 -0.43682866981E+02  0.50690149300E+02  0.79780922631E+02  0.10000000000E+01 0.  0.
    9000005    1    3    3    0    0 -0.43431687879E+02  0.43682866981E+02  0.25987652972E+02  0.66864508423E+02  0.10000000000E+01 0.  0.
<mgrwt>
<rscale>  0 0.12500159E+03</rscale>
<asrwt>0</asrwt>
<pdfrwt beam="2">  1        4 0.53821255E-02 0.12500159E+03</pdfrwt>
<pdfrwt beam="1">  1       -4 0.17178710E-01 0.12500159E+03</pdfrwt>
<totfact> 0.99973060E+03</totfact>
</mgrwt>
</event>
<event>
 5    1  0.3261711E-002  0.1249984E+03  0.7818608E-02  0.1235072E+00
         -4   -1    0    0    0  501 -0.00000000000E+00  0.00000000000E+00  0.19795563843E+03  0.19795971228E+03  0.12700000000E+01 0. -1.
          4   -1    0    0  501    0  0.00000000000E+00 -0.00000000000E+00 -0.19707720928E+02  0.19748599043E+02  0.12700000000E+01 0. -1.
         25    2    1    2    0    0  0.00000000000E+00  0.00000000000E+00  0.17824791751E+03  0.21770831133E+03  0.12499835489E+03 0.  0.
    9000005    1    3    3    0    0 -0.41490964150E+02 -0.46720285429E+02  0.90741016705E+02  0.11017811620E+03  0.10000000000E+01 0.  0.
    9000005    1    3    3    0    0  0.41490964150E+02  0.46720285429E+02  0.87506900801E+02  0.10753019513E+03  0.10000000000E+01 0.  0.
<mgrwt>
<rscale>  0 0.12499835E+03</rscale>
<asrwt>0</asrwt>
<pdfrwt beam="2">  1        4 0.30354149E-02 0.12499835E+03</pdfrwt>
<pdfrwt beam="1">  1       -4 0.30458172E-01 0.12499835E+03</pdfrwt>
<totfact> 0.87235488E+03</totfact>
</mgrwt>
</event>
<event>
 5    1  0.3261711E-002  0.1250004E+03  0.7818608E-02  0.1235069E+00
          4   -1    0    0  501    0  0.00000000000E+00  0.00000000000E+00  0.12475330684E+02  0.12539807641E+02  0.12700000000E+01 0.  1.
         -4   -1    0    0    0  501 -0.00000000000E+00 -0.00000000000E+00 -0.31224717426E+03  0.31224975698E+03  0.12700000000E+01 0.  1.
         25    2    1    2    0    0  0.00000000000E+00  0.00000000000E+00 -0.29977184358E+03  0.32478956462E+03  0.12500041234E+03 0.  0.
    9000005    1    3    3    0    0 -0.51343410557E+02 -0.33383459703E+02 -0.11757122413E+03  0.13256920431E+03  0.10000000000E+01 0.  0.
    9000005    1    3    3    0    0  0.51343410557E+02  0.33383459703E+02 -0.18220061945E+03  0.19222036031E+03  0.10000000000E+01 0.  0.
<mgrwt>
<rscale>  0 0.12500041E+03</rscale>
<asrwt>0</asrwt>
<pdfrwt beam="1">  1        4 0.19244403E-02 0.12500041E+03</pdfrwt>
<pdfrwt beam="2">  1       -4 0.48043179E-01 0.12500041E+03</pdfrwt>
<totfact> 0.72589408E+03</totfact>
</mgrwt>
</event>
<event>
 5    1  0.3261711E-002  0.1250041E+03  0.7818608E-02  0.1235063E+00
         -4   -1    0    0    0  501 -0.00000000000E+00  0.00000000000E+00  0.11781427470E+03  0.11782111960E+03  0.12700000000E+01 0.  1.
          4   -1    0    0  501    0  0.00000000000E+00 -0.00000000000E+00 -0.33138202306E+02  0.33162529338E+02  0.12700000000E+01 0.  1.
         25    2    1    2    0    0  0.00000000000E+00  0.00000000000E+00  0.84676072399E+02  0.15098364894E+03  0.12500409997E+03 0.  0.
    9000005    1    3    3    0    0  0.17316358713E+02  0.33561918092E+02  0.10247833932E+03  0.10922027584E+03  0.10000000000E+01 0.  0.
    9000005    1    3    3    0    0 -0.17316358713E+02 -0.33561918092E+02 -0.17802266921E+02  0.41763373099E+02  0.10000000000E+01 0.  0.
<mgrwt>
<rscale>  0 0.12500410E+03</rscale>
<asrwt>0</asrwt>
<pdfrwt beam="2">  1        4 0.51005828E-02 0.12500410E+03</pdfrwt>
<pdfrwt beam="1">  1       -4 0.18127671E-01 0.12500410E+03</pdfrwt>
<totfact> 0.99098839E+03</totfact>
</mgrwt>
</event>
<event>
 5    1  0.3261711E-002  0.1249972E+03  0.7818608E-02  0.1235074E+00
          4   -1    0    0  501    0  0.00000000000E+00  0.00000000000E+00  0.19940627688E+02  0.19981029318E+02  0.12700000000E+01 0. -1.
         -4   -1    0    0    0  501 -0.00000000000E+00 -0.00000000000E+00 -0.19564464944E+03  0.19564877141E+03  0.12700000000E+01 0. -1.
         25    2    1    2    0    0  0.00000000000E+00  0.00000000000E+00 -0.17570402175E+03  0.21562980072E+03  0.12499723078E+03 0.  0.
    9000005    1    3    3    0    0  0.15890834097E+02  0.35564138295E+02 -0.35568096432E+01  0.39127706753E+02  0.10000000000E+01 0.  0.
    9000005    1    3    3    0    0 -0.15890834097E+02 -0.35564138295E+02 -0.17214721210E+03  0.17650209397E+03  0.10000000000E+01 0.  0.
<mgrwt>
<rscale>  0 0.12499723E+03</rscale>
<asrwt>0</asrwt>
<pdfrwt beam="1">  1        4 0.30712139E-02 0.12499723E+03</pdfrwt>
<pdfrwt beam="2">  1       -4 0.30102600E-01 0.12499723E+03</pdfrwt>
<totfact> 0.87570055E+03</totfact>
</mgrwt>
</event>
<event>
 5    1  0.3261711E-002  0.1249990E+03  0.7818608E-02  0.1235071E+00
         -4   -1    0    0    0  501 -0.00000000000E+00  0.00000000000E+00  0.41483576998E+02  0.41503012668E+02  0.12700000000E+01 0. -1.
          4   -1    0    0  501    0  0.00000000000E+00 -0.00000000000E+00 -0.94116474866E+02  0.94125043114E+02  0.12700000000E+01 0. -1.
         25    2    1    2    0    0  0.00000000000E+00  0.00000000000E+00 -0.52632897868E+02  0.13562805578E+03  0.12499899030E+03 0.  0.
    9000005    1    3    3    0    0 -0.35231339455E+02  0.31903321546E+02  0.17705926390E+02  0.50730356146E+02  0.10000000000E+01 0.  0.
    9000005    1    3    3    0    0  0.35231339455E+02 -0.31903321546E+02 -0.70338824258E+02  0.84897699635E+02  0.10000000000E+01 0.  0.
<mgrwt>
<rscale>  0 0.12499899E+03</rscale>
<asrwt>0</asrwt>
<pdfrwt beam="2">  1        4 0.14481612E-01 0.12499899E+03</pdfrwt>
<pdfrwt beam="1">  1       -4 0.63842429E-02 0.12499899E+03</pdfrwt>
<totfact> 0.10225083E+04</totfact>
</mgrwt>
</event>
<event>
 5    1  0.3261711E-002  0.1250010E+03  0.7818608E-02  0.1235068E+00
         -4   -1    0    0    0  501 -0.00000000000E+00  0.00000000000E+00  0.12632440187E+03  0.12633078567E+03  0.12700000000E+01 0.  1.
          4   -1    0    0  501    0  0.00000000000E+00 -0.00000000000E+00 -0.30902638929E+02  0.30928724396E+02  0.12700000000E+01 0.  1.
         25    2    1    2    0    0  0.00000000000E+00  0.00000000000E+00  0.95421762942E+02  0.15725951007E+03  0.12500096265E+03 0.  0.
    9000005    1    3    3    0    0 -0.16778123232E+02 -0.32763598058E+02  0.11124449716E+03  0.11718061668E+03  0.10000000000E+01 0.  0.
    9000005    1    3    3    0    0  0.16778123232E+02  0.32763598058E+02 -0.15822734219E+02  0.40078893386E+02  0.10000000000E+01 0.  0.
<mgrwt>
<rscale>  0 0.12500096E+03</rscale>
<asrwt>0</asrwt>
<pdfrwt beam="2">  1        4 0.47567497E-02 0.12500096E+03</pdfrwt>
<pdfrwt beam="1">  1       -4 0.19437022E-01 0.12500096E+03</pdfrwt>
<totfact> 0.97871627E+03</totfact>
</mgrwt>
</event>
<event>
 5    1  0.3261711E-002  0.1249980E+03  0.7818608E-02  0.1235072E+00
         -4   -1    0    0    0  501 -0.00000000000E+00  0.00000000000E+00  0.51086875706E+02  0.51102659122E+02  0.12700000000E+01 0. -1.
          4   -1    0    0  501    0  0.00000000000E+00 -0.00000000000E+00 -0.76427603934E+02  0.76438155022E+02  0.12700000000E+01 0. -1.
         25    2    1    2    0    0  0.00000000000E+00  0.00000000000E+00 -0.25340728229E+02  0.12754081414E+03  0.12499802705E+03 0.  0.
    9000005    1    3    3    0    0 -0.31311238680E+02  0.42010377026E+02  0.22079174735E+02  0.56866118230E+02  0.10000000000E+01 0.  0.
    9000005    1    3    3    0    0  0.31311238680E+02 -0.42010377026E+02 -0.47419902963E+02  0.70674695914E+02  0.10000000000E+01 0.  0.
<mgrwt>
<rscale>  0 0.12499803E+03</rscale>
<asrwt>0</asrwt>
<pdfrwt beam="2">  1        4 0.11760119E-01 0.12499803E+03</pdfrwt>
<pdfrwt beam="1">  1       -4 0.78615451E-02 0.12499803E+03</pdfrwt>
<totfact> 0.10397880E+04</totfact>
</mgrwt>
</event>
<event>
 5    1  0.3261711E-002  0.1249997E+03  0.7818608E-02  0.1235070E+00
         -4   -1    0    0    0  501 -0.00000000000E+00  0.00000000000E+00  0.95238515010E+02  0.95246982321E+02  0.12700000000E+01 0. -1.
          4   -1    0    0  501    0  0.00000000000E+00 -0.00000000000E+00 -0.40995142744E+02  0.41014809870E+02  0.12700000000E+01 0. -1.
         25    2    1    2    0    0  0.00000000000E+00  0.00000000000E+00  0.54243372266E+02  0.13626179219E+03  0.12499973031E+03 0.  0.
    9000005    1    3    3    0    0  0.21440015919E+02  0.54402670281E+02  0.51151045468E+02  0.77696552490E+02  0.10000000000E+01 0.  0.
    9000005    1    3    3    0    0 -0.21440015919E+02 -0.54402670281E+02  0.30923267973E+01  0.58565239701E+02  0.10000000000E+01 0.  0.
<mgrwt>
<rscale>  0 0.12499973E+03</rscale>
<asrwt>0</asrwt>
<pdfrwt beam="2">  1        4 0.63091093E-02 0.12499973E+03</pdfrwt>
<pdfrwt beam="1">  1       -4 0.14654243E-01 0.12499973E+03</pdfrwt>
<totfact> 0.10211606E+04</totfact>
</mgrwt>
</event>
<event>
 5    1  0.3261711E-002  0.1249953E+03  0.7818608E-02  0.1235077E+00
         -4   -1    0    0    0  501 -0.00000000000E+00  0.00000000000E+00  0.48255112130E+01  0.49898355150E+01  0.12700000000E+01 0.  1.
          4   -1    0    0  501    0  0.00000000000E+00 -0.00000000000E+00 -0.79572319209E+03  0.79572420557E+03  0.12700000000E+01 0.  1.
         25    2    1    2    0    0  0.00000000000E+00  0.00000000000E+00 -0.79089768088E+03  0.80071404108E+03  0.12499533581E+03 0.  0.
    9000005    1    3    3    0    0 -0.14764694512E+02 -0.69220543062E-01 -0.78442026926E+03  0.78455985102E+03  0.10000000000E+01 0.  0.
    9000005    1    3    3    0    0  0.14764694512E+02  0.69220543062E-01 -0.64774116120E+01  0.16154190067E+02  0.10000000000E+01 0.  0.
<mgrwt>
<rscale>  0 0.12499534E+03</rscale>
<asrwt>0</asrwt>
<pdfrwt beam="2">  1        4 0.12243157E+00 0.12499534E+03</pdfrwt>
<pdfrwt beam="1">  1       -4 0.75510526E-03 0.12499534E+03</pdfrwt>
<totfact> 0.38236792E+03</totfact>
</mgrwt>
</event>
<event>
 5    1  0.3261711E-002  0.1250000E+03  0.7818608E-02  0.1235069E+00
         -4   -1    0    0    0  501 -0.00000000000E+00  0.00000000000E+00  0.19302128554E+02  0.19343863800E+02  0.12700000000E+01 0.  1.
          4   -1    0    0  501    0  0.00000000000E+00 -0.00000000000E+00 -0.20211191797E+03  0.20211590805E+03  0.12700000000E+01 0.  1.
         25    2    1    2    0    0  0.00000000000E+00  0.00000000000E+00 -0.18280978942E+03  0.22145977185E+03  0.12500004576E+03 0.  0.
    9000005    1    3    3    0    0 -0.18294740157E+02  0.59449349454E+02 -0.80726191333E+02  0.10191486955E+03  0.10000000000E+01 0.  0.
    9000005    1    3    3    0    0  0.18294740157E+02 -0.59449349454E+02 -0.10208359809E+03  0.11954490230E+03  0.10000000000E+01 0.  0.
<mgrwt>
<rscale>  0 0.12500005E+03</rscale>
<asrwt>0</asrwt>
<pdfrwt beam="2">  1        4 0.31097657E-01 0.12500005E+03</pdfrwt>
<pdfrwt beam="1">  1       -4 0.29730757E-02 0.12500005E+03</pdfrwt>
<totfact> 0.86637798E+03</totfact>
</mgrwt>
</event>
<event>
 5    1  0.3261711E-002  0.1249938E+03  0.7818608E-02  0.1235079E+00
         -4   -1    0    0    0  501 -0.00000000000E+00  0.00000000000E+00  0.28449822108E+02  0.28478154399E+02  0.12700000000E+01 0.  1.
          4   -1    0    0  501    0  0.00000000000E+00 -0.00000000000E+00 -0.13718992802E+03  0.13719580624E+03  0.12700000000E+01 0.  1.
         25    2    1    2    0    0  0.00000000000E+00  0.00000000000E+00 -0.10874010591E+03  0.16567396064E+03  0.12499380225E+03 0.  0.
    9000005    1    3    3    0    0 -0.17178589969E+02 -0.23116314379E+02 -0.12787493867E+03  0.13108191287E+03  0.10000000000E+01 0.  0.
    9000005    1    3    3    0    0  0.17178589969E+02  0.23116314379E+02  0.19134832758E+02  0.34592047763E+02  0.10000000000E+01 0.  0.
<mgrwt>
<rscale>  0 0.12499380E+03</rscale>
<asrwt>0</asrwt>
<pdfrwt beam="2">  1        4 0.21108774E-01 0.12499380E+03</pdfrwt>
<pdfrwt beam="1">  1       -4 0.43795274E-02 0.12499380E+03</pdfrwt>
<totfact> 0.96273310E+03</totfact>
</mgrwt>
</event>
<event>
 5    1  0.3261711E-002  0.1250009E+03  0.7818608E-02  0.1235068E+00
          4   -1    0    0  501    0  0.00000000000E+00  0.00000000000E+00  0.13383574720E+04  0.13383580745E+04  0.12700000000E+01 0.  1.
         -4   -1    0    0    0  501 -0.00000000000E+00 -0.00000000000E+00 -0.27799483579E+01  0.30563070645E+01  0.12700000000E+01 0.  1.
         25    2    1    2    0    0  0.00000000000E+00  0.00000000000E+00  0.13355775236E+04  0.13414143816E+04  0.12500088635E+03 0.  0.
    9000005    1    3    3    0    0 -0.15362542467E+02  0.51415571093E+02  0.32409803030E+03  0.32851195094E+03  0.10000000000E+01 0.  0.
    9000005    1    3    3    0    0  0.15362542467E+02 -0.51415571093E+02  0.10114794933E+04  0.10129024307E+04  0.10000000000E+01 0.  0.
<mgrwt>
<rscale>  0 0.12500089E+03</rscale>
<asrwt>0</asrwt>
<pdfrwt beam="1">  1        4 0.20592199E+00 0.12500089E+03</pdfrwt>
<pdfrwt beam="2">  1       -4 0.44899008E-03 0.12500089E+03</pdfrwt>
<totfact> 0.21271300E+03</totfact>
</mgrwt>
</event>
<event>
 5    1  0.3261711E-002  0.1250036E+03  0.7818608E-02  0.1235064E+00
         -4   -1    0    0    0  501 -0.00000000000E+00  0.00000000000E+00  0.33495185322E+02  0.33519253269E+02  0.12700000000E+01 0.  1.
          4   -1    0    0  501    0  0.00000000000E+00 -0.00000000000E+00 -0.11655846661E+03  0.11656538525E+03  0.12700000000E+01 0.  1.
         25    2    1    2    0    0  0.00000000000E+00  0.00000000000E+00 -0.83063281284E+02  0.15008463852E+03  0.12500356003E+03 0.  0.
    9000005    1    3    3    0    0  0.95582361321E+01  0.43180461042E+02 -0.94544619761E+02  0.10438197747E+03  0.10000000000E+01 0.  0.
    9000005    1    3    3    0    0 -0.95582361321E+01 -0.43180461042E+02  0.11481338477E+02  0.45702661050E+02  0.10000000000E+01 0.  0.
<mgrwt>
<rscale>  0 0.12500356E+03</rscale>
<asrwt>0</asrwt>
<pdfrwt beam="2">  1        4 0.17934455E-01 0.12500356E+03</pdfrwt>
<pdfrwt beam="1">  1       -4 0.51554891E-02 0.12500356E+03</pdfrwt>
<totfact> 0.99278875E+03</totfact>
</mgrwt>
</event>
<event>
 5    1  0.3261711E-002  0.1250049E+03  0.7818608E-02  0.1235062E+00
          4   -1    0    0  501    0  0.00000000000E+00  0.00000000000E+00  0.11525234907E+03  0.11525934611E+03  0.12700000000E+01 0. -1.
         -4   -1    0    0    0  501 -0.00000000000E+00 -0.00000000000E+00 -0.33875724102E+02  0.33899521877E+02  0.12700000000E+01 0. -1.
         25    2    1    2    0    0  0.00000000000E+00  0.00000000000E+00  0.81376624970E+02  0.14915886799E+03  0.12500485114E+03 0.  0.
    9000005    1    3    3    0    0 -0.48298051471E+02  0.39649016579E+02  0.41760164802E+02  0.75164204617E+02  0.10000000000E+01 0.  0.
    9000005    1    3    3    0    0  0.48298051471E+02 -0.39649016579E+02  0.39616460169E+02  0.73994663374E+02  0.10000000000E+01 0.  0.
<mgrwt>
<rscale>  0 0.12500485E+03</rscale>
<asrwt>0</asrwt>
<pdfrwt beam="1">  1        4 0.17733499E-01 0.12500485E+03</pdfrwt>
<pdfrwt beam="2">  1       -4 0.52140188E-02 0.12500485E+03</pdfrwt>
<totfact> 0.99460769E+03</totfact>
</mgrwt>
</event>
<event>
 5    1  0.3261711E-002  0.1250031E+03  0.7818608E-02  0.1235064E+00
         -4   -1    0    0    0  501 -0.00000000000E+00  0.00000000000E+00  0.14878720809E+02  0.14932824009E+02  0.12700000000E+01 0. -1.
          4   -1    0    0  501    0  0.00000000000E+00 -0.00000000000E+00 -0.26202033338E+03  0.26202341118E+03  0.12700000000E+01 0. -1.
         25    2    1    2    0    0  0.00000000000E+00  0.00000000000E+00 -0.24714161257E+03  0.27695623519E+03  0.12500311814E+03 0.  0.
    9000005    1    3    3    0    0 -0.48327741990E+02 -0.35975017208E+02 -0.86784437014E+02  0.10565183868E+03  0.10000000000E+01 0.  0.
    9000005    1    3    3    0    0  0.48327741990E+02  0.35975017208E+02 -0.16035717556E+03  0.17130439650E+03  0.10000000000E+01 0.  0.
<mgrwt>
<rscale>  0 0.12500312E+03</rscale>
<asrwt>0</asrwt>
<pdfrwt beam="2">  1        4 0.40315216E-01 0.12500312E+03</pdfrwt>
<pdfrwt beam="1">  1       -4 0.22934327E-02 0.12500312E+03</pdfrwt>
<totfact> 0.78577979E+03</totfact>
</mgrwt>
</event>
<event>
 5    1  0.3261711E-002  0.1250017E+03  0.7818608E-02  0.1235067E+00
         -4   -1    0    0    0  501 -0.00000000000E+00  0.00000000000E+00  0.39651086080E+03  0.39651289466E+03  0.12700000000E+01 0.  1.
          4   -1    0    0  501    0  0.00000000000E+00 -0.00000000000E+00 -0.98088331463E+01  0.98907081491E+01  0.12700000000E+01 0.  1.
         25    2    1    2    0    0  0.00000000000E+00  0.00000000000E+00  0.38670202766E+03  0.40640360281E+03  0.12500172073E+03 0.  0.
    9000005    1    3    3    0    0 -0.30749354932E+02  0.24746067028E+02  0.35828985568E+02  0.53316103279E+02  0.10000000000E+01 0.  0.
    9000005    1    3    3    0    0  0.30749354932E+02 -0.24746067028E+02  0.35087304209E+03  0.35308749953E+03  0.10000000000E+01 0.  0.
<mgrwt>
<rscale>  0 0.12500172E+03</rscale>
<asrwt>0</asrwt>
<pdfrwt beam="2">  1        4 0.15155061E-02 0.12500172E+03</pdfrwt>
<pdfrwt beam="1">  1       -4 0.61008111E-01 0.12500172E+03</pdfrwt>
<totfact> 0.63932291E+03</totfact>
</mgrwt>
</event>
<event>
 5    1  0.3261711E-002  0.1250006E+03  0.7818608E-02  0.1235068E+00
         -4   -1    0    0    0  501 -0.00000000000E+00  0.00000000000E+00  0.31351851187E+02  0.31377563207E+02  0.12700000000E+01 0. -1.
          4   -1    0    0  501    0  0.00000000000E+00 -0.00000000000E+00 -0.12451504451E+03  0.12452152107E+03  0.12700000000E+01 0. -1.
         25    2    1    2    0    0  0.00000000000E+00  0.00000000000E+00 -0.93163193322E+02  0.15589908427E+03  0.12500057555E+03 0.  0.
    9000005    1    3    3    0    0  0.48209055832E+02  0.29612808550E+02 -0.13484007563E+02  0.58170868607E+02  0.10000000000E+01 0.  0.
    9000005    1    3    3    0    0 -0.48209055832E+02 -0.29612808550E+02 -0.79679185759E+02  0.97728215668E+02  0.10000000000E+01 0.  0.
<mgrwt>
<rscale>  0 0.12500058E+03</rscale>
<asrwt>0</asrwt>
<pdfrwt beam="2">  1        4 0.19158636E-01 0.12500058E+03</pdfrwt>
<pdfrwt beam="1">  1       -4 0.48258378E-02 0.12500058E+03</pdfrwt>
<totfact> 0.98138016E+03</totfact>
</mgrwt>
</event>
<event>
 5    1  0.3261711E-002  0.1250027E+03  0.7818608E-02  0.1235065E+00
          4   -1    0    0  501    0  0.00000000000E+00  0.00000000000E+00  0.10628835344E+02  0.10704440236E+02  0.12700000000E+01 0. -1.
         -4   -1    0    0    0  501 -0.00000000000E+00 -0.00000000000E+00 -0.36615100460E+03  0.36615320710E+03  0.12700000000E+01 0. -1.
         25    2    1    2    0    0  0.00000000000E+00  0.00000000000E+00 -0.35552216925E+03  0.37685764733E+03  0.12500269406E+03 0.  0.
    9000005    1    3    3    0    0  0.13990219375E+02 -0.12443490633E+02  0.19888339638E+01  0.18855295220E+02  0.10000000000E+01 0.  0.
    9000005    1    3    3    0    0 -0.13990219375E+02  0.12443490633E+02 -0.35751100322E+03  0.35800235211E+03  0.10000000000E+01 0.  0.
<mgrwt>
<rscale>  0 0.12500269E+03</rscale>
<asrwt>0</asrwt>
<pdfrwt beam="1">  1        4 0.16411909E-02 0.12500269E+03</pdfrwt>
<pdfrwt beam="2">  1       -4 0.56336899E-01 0.12500269E+03</pdfrwt>
<totfact> 0.66863573E+03</totfact>
</mgrwt>
</event>
<event>
 5    1  0.3261711E-002  0.1250003E+03  0.7818608E-02  0.1235069E+00
         -4   -1    0    0    0  501 -0.00000000000E+00  0.00000000000E+00  0.68705912386E+01  0.69869824652E+01  0.12700000000E+01 0. -1.
          4   -1    0    0  501    0  0.00000000000E+00 -0.00000000000E+00 -0.56365666669E+03  0.56365809743E+03  0.12700000000E+01 0. -1.
         25    2    1    2    0    0  0.00000000000E+00  0.00000000000E+00 -0.55678607545E+03  0.57064507990E+03  0.12500029359E+03 0.  0.
    9000005    1    3    3    0    0 -0.58537611510E+02 -0.19063386864E+02 -0.32739214868E+03  0.33313163118E+03  0.10000000000E+01 0.  0.
    9000005    1    3    3    0    0  0.58537611510E+02  0.19063386864E+02 -0.22939392677E+03  0.23751344871E+03  0.10000000000E+01 0.  0.
<mgrwt>
<rscale>  0 0.12500029E+03</rscale>
<asrwt>0</asrwt>
<pdfrwt beam="2">  1        4 0.86725438E-01 0.12500029E+03</pdfrwt>
<pdfrwt beam="1">  1       -4 0.10660777E-02 0.12500029E+03</pdfrwt>
<totfact> 0.50774289E+03</totfact>
</mgrwt>
</event>
<event>
 5    1  0.3261711E-002  0.1250054E+03  0.7818608E-02  0.1235061E+00
          4   -1    0    0  501    0  0.00000000000E+00  0.00000000000E+00  0.10005707440E+03  0.10006513398E+03  0.12700000000E+01 0. -1.
         -4   -1    0    0    0  501 -0.00000000000E+00 -0.00000000000E+00 -0.39023640415E+02  0.39044300625E+02  0.12700000000E+01 0. -1.
         25    2    1    2    0    0  0.00000000000E+00  0.00000000000E+00  0.61033433988E+02  0.13910943460E+03  0.12500541881E+03 0.  0.
    9000005    1    3    3    0    0 -0.20289644374E+02 -0.53180219468E+02  0.18026846398E+01  0.56956607021E+02  0.10000000000E+01 0.  0.
    9000005    1    3    3    0    0  0.20289644374E+02  0.53180219468E+02  0.59230749349E+02  0.82152827583E+02  0.10000000000E+01 0.  0.
<mgrwt>
<rscale>  0 0.12500542E+03</rscale>
<asrwt>0</asrwt>
<pdfrwt beam="1">  1        4 0.15395605E-01 0.12500542E+03</pdfrwt>
<pdfrwt beam="2">  1       -4 0.60058463E-02 0.12500542E+03</pdfrwt>
<totfact> 0.10150837E+04</totfact>
</mgrwt>
</event>
<event>
 5    1  0.3261711E-002  0.1249998E+03  0.7818608E-02  0.1235070E+00
          4   -1    0    0  501    0  0.00000000000E+00  0.00000000000E+00  0.20157184318E+03  0.20157584395E+03  0.12700000000E+01 0. -1.
         -4   -1    0    0    0  501 -0.00000000000E+00 -0.00000000000E+00 -0.19353891470E+02  0.19395515333E+02  0.12700000000E+01 0. -1.
         25    2    1    2    0    0  0.00000000000E+00  0.00000000000E+00  0.18221795171E+03  0.22097135928E+03  0.12499983879E+03 0.  0.
    9000005    1    3    3    0    0 -0.53364952770E+02  0.27796102378E+02  0.61276085506E+02  0.85884807425E+02  0.10000000000E+01 0.  0.
    9000005    1    3    3    0    0  0.53364952770E+02 -0.27796102378E+02  0.12094186620E+03  0.13508655186E+03  0.10000000000E+01 0.  0.
<mgrwt>
<rscale>  0 0.12499984E+03</rscale>
<asrwt>0</asrwt>
<pdfrwt beam="1">  1        4 0.31014562E-01 0.12499984E+03</pdfrwt>
<pdfrwt beam="2">  1       -4 0.29810313E-02 0.12499984E+03</pdfrwt>
<totfact> 0.86715189E+03</totfact>
</mgrwt>
</event>
<event>
 5    1  0.3261711E-002  0.1249982E+03  0.7818608E-02  0.1235072E+00
         -4   -1    0    0    0  501 -0.00000000000E+00  0.00000000000E+00  0.11859898340E+03  0.11860578301E+03  0.12700000000E+01 0.  1.
          4   -1    0    0  501    0  0.00000000000E+00 -0.00000000000E+00 -0.32915707886E+02  0.32940199235E+02  0.12700000000E+01 0.  1.
         25    2    1    2    0    0  0.00000000000E+00  0.00000000000E+00  0.85683275517E+02  0.15154598225E+03  0.12499824412E+03 0.  0.
    9000005    1    3    3    0    0 -0.56293935228E+02 -0.76512741686E+01  0.74400720125E+02  0.93616324938E+02  0.10000000000E+01 0.  0.
    9000005    1    3    3    0    0  0.56293935228E+02  0.76512741686E+01  0.11282555392E+02  0.57929657310E+02  0.10000000000E+01 0.  0.
<mgrwt>
<rscale>  0 0.12499824E+03</rscale>
<asrwt>0</asrwt>
<pdfrwt beam="2">  1        4 0.50663621E-02 0.12499824E+03</pdfrwt>
<pdfrwt beam="1">  1       -4 0.18248404E-01 0.12499824E+03</pdfrwt>
<totfact> 0.99000330E+03</totfact>
</mgrwt>
</event>
<event>
 5    1  0.3261711E-002  0.1250022E+03  0.7818608E-02  0.1235066E+00
         -4   -1    0    0    0  501 -0.00000000000E+00  0.00000000000E+00  0.25603142263E+02  0.25634620999E+02  0.12700000000E+01 0. -1.
          4   -1    0    0  501    0  0.00000000000E+00 -0.00000000000E+00 -0.15244674432E+03  0.15245203427E+03  0.12700000000E+01 0. -1.
         25    2    1    2    0    0  0.00000000000E+00  0.00000000000E+00 -0.12684360206E+03  0.17808665527E+03  0.12500222959E+03 0.  0.
    9000005    1    3    3    0    0 -0.54376599626E+00  0.59319673785E+02 -0.35421732669E+02  0.69100061684E+02  0.10000000000E+01 0.  0.
    9000005    1    3    3    0    0  0.54376599626E+00 -0.59319673785E+02 -0.91421869387E+02  0.10898659359E+03  0.10000000000E+01 0.  0.
<mgrwt>
<rscale>  0 0.12500223E+03</rscale>
<asrwt>0</asrwt>
<pdfrwt beam="2">  1        4 0.23456173E-01 0.12500223E+03</pdfrwt>
<pdfrwt beam="1">  1       -4 0.39417734E-02 0.12500223E+03</pdfrwt>
<totfact> 0.93957852E+03</totfact>
</mgrwt>
</event>
<event>
 5    1  0.3261711E-002  0.1249995E+03  0.7818608E-02  0.1235070E+00
          4   -1    0    0  501    0  0.00000000000E+00  0.00000000000E+00  0.16759958095E+03  0.16760439265E+03  0.12700000000E+01 0. -1.
         -4   -1    0    0    0  501 -0.00000000000E+00 -0.00000000000E+00 -0.23284405039E+02  0.23319014088E+02  0.12700000000E+01 0. -1.
         25    2    1    2    0    0  0.00000000000E+00  0.00000000000E+00  0.14431517592E+03  0.19092340674E+03  0.12499950897E+03 0.  0.
    9000005    1    3    3    0    0 -0.35815685689E+02 -0.25700621948E+02  0.45036524739E+01  0.44323449724E+02  0.10000000000E+01 0.  0.
    9000005    1    3    3    0    0  0.35815685689E+02  0.25700621948E+02  0.13981152344E+03  0.14659995702E+03  0.10000000000E+01 0.  0.
<mgrwt>
<rscale>  0 0.12499951E+03</rscale>
<asrwt>0</asrwt>
<pdfrwt beam="1">  1        4 0.25787583E-01 0.12499951E+03</pdfrwt>
<pdfrwt beam="2">  1       -4 0.35852485E-02 0.12499951E+03</pdfrwt>
<totfact> 0.91687901E+03</totfact>
</mgrwt>
</event>
<event>
 4    1  0.3261711E-002  0.1248476E+03  0.7818608E-02  0.1235308E+00
          4   -1    0    0  501    0  0.00000000000E+00  0.00000000000E+00  0.62114240346E+03  0.62114370179E+03  0.12700000000E+01 0.  1.
         -4   -1    0    0    0  501 -0.00000000000E+00 -0.00000000000E+00 -0.62078952690E+01  0.63364709161E+01  0.12700000000E+01 0.  1.
    9000005    1    1    2    0    0  0.98086780881E+01  0.34032651263E+02  0.49164771431E+02  0.60602031878E+02  0.10000000000E+01 0.  0.
    9000005    1    1    2    0    0 -0.98086780881E+01 -0.34032651263E+02  0.56576973676E+03  0.56687814083E+03  0.10000000000E+01 0.  0.
<mgrwt>
<rscale>  0 0.12484758E+03</rscale>
<asrwt>0</asrwt>
<pdfrwt beam="1">  1        4 0.95570451E-01 0.12484758E+03</pdfrwt>
<pdfrwt beam="2">  1       -4 0.96505020E-03 0.12484758E+03</pdfrwt>
<totfact> 0.47335580E+03</totfact>
</mgrwt>
</event>
<event>
 5    1  0.3261711E-002  0.1249971E+03  0.7818608E-02  0.1235074E+00
          4   -1    0    0  501    0  0.00000000000E+00  0.00000000000E+00  0.75725115111E+01  0.76782700255E+01  0.12700000000E+01 0. -1.
         -4   -1    0    0    0  501 -0.00000000000E+00 -0.00000000000E+00 -0.51213847552E+03  0.51214005019E+03  0.12700000000E+01 0. -1.
         25    2    1    2    0    0  0.00000000000E+00  0.00000000000E+00 -0.50456596401E+03  0.51981832021E+03  0.12499709594E+03 0.  0.
    9000005    1    3    3    0    0 -0.31742560912E+02  0.39575005748E+02 -0.40401917201E+03  0.40719315148E+03  0.10000000000E+01 0.  0.
    9000005    1    3    3    0    0  0.31742560912E+02 -0.39575005748E+02 -0.10054679199E+03  0.11262516874E+03  0.10000000000E+01 0.  0.
<mgrwt>
<rscale>  0 0.12499710E+03</rscale>
<asrwt>0</asrwt>
<pdfrwt beam="1">  1        4 0.11732586E-02 0.12499710E+03</pdfrwt>
<pdfrwt beam="2">  1       -4 0.78798764E-01 0.12499710E+03</pdfrwt>
<totfact> 0.54362321E+03</totfact>
</mgrwt>
</event>
<event>
 5    1  0.3261711E-002  0.1249941E+03  0.7818608E-02  0.1235078E+00
         -4   -1    0    0    0  501 -0.00000000000E+00  0.00000000000E+00  0.44557270306E+01  0.46331850137E+01  0.12700000000E+01 0.  1.
          4   -1    0    0  501    0  0.00000000000E+00 -0.00000000000E+00 -0.85930494975E+03  0.85930588824E+03  0.12700000000E+01 0.  1.
         25    2    1    2    0    0  0.00000000000E+00  0.00000000000E+00 -0.85484922272E+03  0.86393907325E+03  0.12499411471E+03 0.  0.
    9000005    1    3    3    0    0  0.35662309099E+02 -0.49974254213E+02 -0.34692148617E+03  0.35231341720E+03  0.10000000000E+01 0.  0.
    9000005    1    3    3    0    0 -0.35662309099E+02  0.49974254213E+02 -0.50792773655E+03  0.51162565605E+03  0.10000000000E+01 0.  0.
<mgrwt>
<rscale>  0 0.12499411E+03</rscale>
<asrwt>0</asrwt>
<pdfrwt beam="2">  1        4 0.13221435E+00 0.12499411E+03</pdfrwt>
<pdfrwt beam="1">  1       -4 0.69921996E-03 0.12499411E+03</pdfrwt>
<totfact> 0.35568220E+03</totfact>
</mgrwt>
</event>
<event>
 5    1  0.3261711E-002  0.1250077E+03  0.7818608E-02  0.1235057E+00
         -4   -1    0    0    0  501 -0.00000000000E+00  0.00000000000E+00  0.60288709689E+02  0.60302084673E+02  0.12700000000E+01 0. -1.
          4   -1    0    0  501    0  0.00000000000E+00 -0.00000000000E+00 -0.64773634958E+02  0.64786084043E+02  0.12700000000E+01 0. -1.
         25    2    1    2    0    0  0.00000000000E+00  0.00000000000E+00 -0.44849252690E+01  0.12508816872E+03  0.12500774135E+03 0.  0.
    9000005    1    3    3    0    0  0.57848680984E+02  0.92467811066E+01 -0.24022517937E+02  0.63324988910E+02  0.10000000000E+01 0.  0.
    9000005    1    3    3    0    0 -0.57848680984E+02 -0.92467811066E+01  0.19537592668E+02  0.61763179806E+02  0.10000000000E+01 0.  0.
<mgrwt>
<rscale>  0 0.12500774E+03</rscale>
<asrwt>0</asrwt>
<pdfrwt beam="2">  1        4 0.99671611E-02 0.12500774E+03</pdfrwt>
<pdfrwt beam="1">  1       -4 0.92771725E-02 0.12500774E+03</pdfrwt>
<totfact> 0.10449120E+04</totfact>
</mgrwt>
</event>
<event>
 5    1  0.3261711E-002  0.1249999E+03  0.7818608E-02  0.1235069E+00
         -4   -1    0    0    0  501 -0.00000000000E+00  0.00000000000E+00  0.18454028304E+03  0.18454465304E+03  0.12700000000E+01 0. -1.
          4   -1    0    0  501    0  0.00000000000E+00 -0.00000000000E+00 -0.21143751510E+02  0.21181858462E+02  0.12700000000E+01 0. -1.
         25    2    1    2    0    0  0.00000000000E+00  0.00000000000E+00  0.16339653153E+03  0.20572651150E+03  0.12499988407E+03 0.  0.
    9000005    1    3    3    0    0  0.55356709864E+02 -0.28777480808E+02  0.87571313275E+02  0.10752787377E+03  0.10000000000E+01 0.  0.
    9000005    1    3    3    0    0 -0.55356709864E+02  0.28777480808E+02  0.75825218259E+02  0.98198637733E+02  0.10000000000E+01 0.  0.
<mgrwt>
<rscale>  0 0.12499988E+03</rscale>
<asrwt>0</asrwt>
<pdfrwt beam="2">  1        4 0.32561524E-02 0.12499988E+03</pdfrwt>
<pdfrwt beam="1">  1       -4 0.28394080E-01 0.12499988E+03</pdfrwt>
<totfact> 0.89178819E+03</totfact>
</mgrwt>
</event>
<event>
 5    1  0.3261711E-002  0.1250009E+03  0.7818608E-02  0.1235068E+00
          4   -1    0    0  501    0  0.00000000000E+00  0.00000000000E+00  0.73413711316E+01  0.74504114042E+01  0.12700000000E+01 0. -1.
         -4   -1    0    0    0  501 -0.00000000000E+00 -0.00000000000E+00 -0.52806272213E+03  0.52806424932E+03  0.12700000000E+01 0. -1.
         25    2    1    2    0    0  0.00000000000E+00  0.00000000000E+00 -0.52072135100E+03  0.53551466072E+03  0.12500090583E+03 0.  0.
    9000005    1    3    3    0    0  0.41449786764E+02  0.45302830340E+02 -0.31011427493E+03  0.31613651288E+03  0.10000000000E+01 0.  0.
    9000005    1    3    3    0    0 -0.41449786764E+02 -0.45302830340E+02 -0.21060707608E+03  0.21937814785E+03  0.10000000000E+01 0.  0.
<mgrwt>
<rscale>  0 0.12500091E+03</rscale>
<asrwt>0</asrwt>
<pdfrwt beam="1">  1        4 0.11379473E-02 0.12500091E+03</pdfrwt>
<pdfrwt beam="2">  1       -4 0.81248894E-01 0.12500091E+03</pdfrwt>
<totfact> 0.53209401E+03</totfact>
</mgrwt>
</event>
<event>
 5    1  0.3261711E-002  0.1249996E+03  0.7818608E-02  0.1235070E+00
          4   -1    0    0  501    0  0.00000000000E+00  0.00000000000E+00  0.32322008638E+01  0.34727542994E+01  0.12700000000E+01 0. -1.
         -4   -1    0    0    0  501 -0.00000000000E+00 -0.00000000000E+00 -0.11649349658E+04  0.11649356581E+04  0.12700000000E+01 0. -1.
         25    2    1    2    0    0  0.00000000000E+00  0.00000000000E+00 -0.11617027650E+04  0.11684084124E+04  0.12499961615E+03 0.  0.
    9000005    1    3    3    0    0  0.35818096696E+02  0.39544150599E+02 -0.27673367574E+03  0.28183187042E+03  0.10000000000E+01 0.  0.
    9000005    1    3    3    0    0 -0.35818096696E+02 -0.39544150599E+02 -0.88496908925E+03  0.88657654200E+03  0.10000000000E+01 0.  0.
<mgrwt>
<rscale>  0 0.12499962E+03</rscale>
<asrwt>0</asrwt>
<pdfrwt beam="1">  1        4 0.51581996E-03 0.12499962E+03</pdfrwt>
<pdfrwt beam="2">  1       -4 0.17923900E+00 0.12499962E+03</pdfrwt>
<totfact> 0.25555223E+03</totfact>
</mgrwt>
</event>
<event>
 5    1  0.3261711E-002  0.1249976E+03  0.7818608E-02  0.1235073E+00
         -4   -1    0    0    0  501 -0.00000000000E+00  0.00000000000E+00  0.19694364836E+03  0.19694774314E+03  0.12700000000E+01 0.  1.
          4   -1    0    0  501    0  0.00000000000E+00 -0.00000000000E+00 -0.19808945632E+02  0.19849615288E+02  0.12700000000E+01 0.  1.
         25    2    1    2    0    0  0.00000000000E+00  0.00000000000E+00  0.17713470273E+03  0.21679735843E+03  0.12499756682E+03 0.  0.
    9000005    1    3    3    0    0 -0.44554256283E+02  0.38206547179E+02  0.51357189595E+02  0.77996044280E+02  0.10000000000E+01 0.  0.
    9000005    1    3    3    0    0  0.44554256283E+02 -0.38206547179E+02  0.12577751313E+03  0.13880131415E+03  0.10000000000E+01 0.  0.
<mgrwt>
<rscale>  0 0.12499757E+03</rscale>
<asrwt>0</asrwt>
<pdfrwt beam="2">  1        4 0.30509735E-02 0.12499757E+03</pdfrwt>
<pdfrwt beam="1">  1       -4 0.30302466E-01 0.12499757E+03</pdfrwt>
<totfact> 0.87382426E+03</totfact>
</mgrwt>
</event>
<event>
 5    1  0.3261711E-002  0.1249994E+03  0.7818608E-02  0.1235070E+00
          4   -1    0    0  501    0  0.00000000000E+00  0.00000000000E+00  0.36961768140E+01  0.39082762236E+01  0.12700000000E+01 0. -1.
         -4   -1    0    0    0  501 -0.00000000000E+00 -0.00000000000E+00 -0.10271356631E+04  0.10271364482E+04  0.12700000000E+01 0. -1.
         25    2    1    2    0    0  0.00000000000E+00  0.00000000000E+00 -0.10234394863E+04  0.10310447244E+04  0.12499936705E+03 0.  0.
    9000005    1    3    3    0    0  0.23841244348E+02  0.55118301503E+02 -0.65429502915E+03  0.65704597804E+03  0.10000000000E+01 0.  0.
    9000005    1    3    3    0    0 -0.23841244348E+02 -0.55118301503E+02 -0.36914445712E+03  0.37399874641E+03  0.10000000000E+01 0.  0.
<mgrwt>
<rscale>  0 0.12499937E+03</rscale>
<asrwt>0</asrwt>
<pdfrwt beam="1">  1        4 0.58501914E-03 0.12499937E+03</pdfrwt>
<pdfrwt beam="2">  1       -4 0.15803703E+00 0.12499937E+03</pdfrwt>
<totfact> 0.29594536E+03</totfact>
</mgrwt>
</event>
<event>
 5    1  0.3261711E-002  0.1249982E+03  0.7818608E-02  0.1235072E+00
          4   -1    0    0  501    0  0.00000000000E+00  0.00000000000E+00  0.98733481091E+01  0.99546925058E+01  0.12700000000E+01 0. -1.
         -4   -1    0    0    0  501 -0.00000000000E+00 -0.00000000000E+00 -0.39391896097E+03  0.39392100821E+03  0.12700000000E+01 0. -1.
         25    2    1    2    0    0  0.00000000000E+00  0.00000000000E+00 -0.38404561286E+03  0.40387570072E+03  0.12499819548E+03 0.  0.
    9000005    1    3    3    0    0  0.59510489682E+02 -0.18836854752E+02 -0.18243156550E+03  0.19281753440E+03  0.10000000000E+01 0.  0.
    9000005    1    3    3    0    0 -0.59510489682E+02  0.18836854752E+02 -0.20161404736E+03  0.21105816632E+03  0.10000000000E+01 0.  0.
<mgrwt>
<rscale>  0 0.12499820E+03</rscale>
<asrwt>0</asrwt>
<pdfrwt beam="1">  1        4 0.15253917E-02 0.12499820E+03</pdfrwt>
<pdfrwt beam="2">  1       -4 0.60609320E-01 0.12499820E+03</pdfrwt>
<totfact> 0.64180143E+03</totfact>
</mgrwt>
</event>
<event>
 5    1  0.3261711E-002  0.1250033E+03  0.7818608E-02  0.1235064E+00
         -4   -1    0    0    0  501 -0.00000000000E+00  0.00000000000E+00  0.12141449210E+02  0.12207689745E+02  0.12700000000E+01 0.  1.
          4   -1    0    0  501    0  0.00000000000E+00 -0.00000000000E+00 -0.32080255282E+03  0.32080506667E+03  0.12700000000E+01 0.  1.
         25    2    1    2    0    0  0.00000000000E+00  0.00000000000E+00 -0.30866110361E+03  0.33301275641E+03  0.12500327615E+03 0.  0.
    9000005    1    3    3    0    0  0.17571651363E+02 -0.36807451760E+02 -0.28046912528E+03  0.28342103251E+03  0.10000000000E+01 0.  0.
    9000005    1    3    3    0    0 -0.17571651363E+02  0.36807451760E+02 -0.28191978338E+02  0.49591723899E+02  0.10000000000E+01 0.  0.
<mgrwt>
<rscale>  0 0.12500328E+03</rscale>
<asrwt>0</asrwt>
<pdfrwt beam="2">  1        4 0.49359521E-01 0.12500328E+03</pdfrwt>
<pdfrwt beam="1">  1       -4 0.18732043E-02 0.12500328E+03</pdfrwt>
<totfact> 0.71629504E+03</totfact>
</mgrwt>
</event>
<event>
 5    1  0.3261711E-002  0.1249968E+03  0.7818608E-02  0.1235074E+00
          4   -1    0    0  501    0  0.00000000000E+00  0.00000000000E+00  0.70327439824E+02  0.70338905964E+02  0.12700000000E+01 0.  1.
         -4   -1    0    0    0  501 -0.00000000000E+00 -0.00000000000E+00 -0.55517671343E+02  0.55532195449E+02  0.12700000000E+01 0.  1.
         25    2    1    2    0    0  0.00000000000E+00  0.00000000000E+00  0.14809768481E+02  0.12587110141E+03  0.12499681967E+03 0.  0.
    9000005    1    3    3    0    0 -0.58223017225E+02  0.22462357485E+02  0.10679396262E+02  0.63320823929E+02  0.10000000000E+01 0.  0.
    9000005    1    3    3    0    0  0.58223017225E+02 -0.22462357485E+02  0.41303722193E+01  0.62550277483E+02  0.10000000000E+01 0.  0.
<mgrwt>
<rscale>  0 0.12499682E+03</rscale>
<asrwt>0</asrwt>
<pdfrwt beam="1">  1        4 0.10821605E-01 0.12499682E+03</pdfrwt>
<pdfrwt beam="2">  1       -4 0.85431795E-02 0.12499682E+03</pdfrwt>
<totfact> 0.10434533E+04</totfact>
</mgrwt>
</event>
<event>
 5    1  0.3261711E-002  0.1249948E+03  0.7818608E-02  0.1235077E+00
         -4   -1    0    0    0  501 -0.00000000000E+00  0.00000000000E+00  0.10488734702E+02  0.10565342193E+02  0.12700000000E+01 0. -1.
          4   -1    0    0  501    0  0.00000000000E+00 -0.00000000000E+00 -0.37095992491E+03  0.37096209886E+03  0.12700000000E+01 0. -1.
         25    2    1    2    0    0  0.00000000000E+00  0.00000000000E+00 -0.36047119021E+03  0.38152744105E+03  0.12499483711E+03 0.  0.
    9000005    1    3    3    0    0  0.42839216997E+02 -0.26748753360E+02 -0.29256162316E+03  0.29689054830E+03  0.10000000000E+01 0.  0.
    9000005    1    3    3    0    0 -0.42839216997E+02  0.26748753360E+02 -0.67909567045E+02  0.84636892756E+02  0.10000000000E+01 0.  0.
<mgrwt>
<rscale>  0 0.12499484E+03</rscale>
<asrwt>0</asrwt>
<pdfrwt beam="2">  1        4 0.57076808E-01 0.12499484E+03</pdfrwt>
<pdfrwt beam="1">  1       -4 0.16197119E-02 0.12499484E+03</pdfrwt>
<totfact> 0.66397527E+03</totfact>
</mgrwt>
</event>
<event>
 5    1  0.3261711E-002  0.1250021E+03  0.7818608E-02  0.1235066E+00
         -4   -1    0    0    0  501 -0.00000000000E+00  0.00000000000E+00  0.35294807962E+01  0.37510178206E+01  0.12700000000E+01 0.  1.
          4   -1    0    0  501    0  0.00000000000E+00 -0.00000000000E+00 -0.10728867904E+04  0.10728875421E+04  0.12700000000E+01 0.  1.
         25    2    1    2    0    0  0.00000000000E+00  0.00000000000E+00 -0.10693573096E+04  0.10766385599E+04  0.12500213209E+03 0.  0.
    9000005    1    3    3    0    0 -0.55949252330E+02 -0.51701343518E+00 -0.77442197064E+03  0.77644122427E+03  0.10000000000E+01 0.  0.
    9000005    1    3    3    0    0  0.55949252330E+02  0.51701343518E+00 -0.29493533900E+03  0.30019733565E+03  0.10000000000E+01 0.  0.
<mgrwt>
<rscale>  0 0.12500213E+03</rscale>
<asrwt>0</asrwt>
<pdfrwt beam="2">  1        4 0.16507635E+00 0.12500213E+03</pdfrwt>
<pdfrwt beam="1">  1       -4 0.56009703E-03 0.12500213E+03</pdfrwt>
<totfact> 0.28176110E+03</totfact>
</mgrwt>
</event>
<event>
 5    1  0.3261711E-002  0.1249868E+03  0.7818608E-02  0.1235090E+00
          4   -1    0    0  501    0  0.00000000000E+00  0.00000000000E+00  0.53936323124E+02  0.53951272943E+02  0.12700000000E+01 0. -1.
         -4   -1    0    0    0  501 -0.00000000000E+00 -0.00000000000E+00 -0.72377542205E+02  0.72388683616E+02  0.12700000000E+01 0. -1.
         25    2    1    2    0    0  0.00000000000E+00  0.00000000000E+00 -0.18441219081E+02  0.12633995656E+03  0.12498682355E+03 0.  0.
    9000005    1    3    3    0    0 -0.40265455420E+02 -0.46590938787E+02  0.14962477967E+01  0.61605691577E+02  0.10000000000E+01 0.  0.
    9000005    1    3    3    0    0  0.40265455420E+02  0.46590938787E+02 -0.19937466878E+02  0.64734264982E+02  0.10000000000E+01 0.  0.
<mgrwt>
<rscale>  0 0.12498682E+03</rscale>
<asrwt>0</asrwt>
<pdfrwt beam="1">  1        4 0.82999029E-02 0.12498682E+03</pdfrwt>
<pdfrwt beam="2">  1       -4 0.11137013E-01 0.12498682E+03</pdfrwt>
<totfact> 0.10426621E+04</totfact>
</mgrwt>
</event>
<event>
 5    1  0.3261711E-002  0.1250009E+03  0.7818608E-02  0.1235068E+00
         -4   -1    0    0    0  501 -0.00000000000E+00  0.00000000000E+00  0.11657633002E+03  0.11658324760E+03  0.12700000000E+01 0.  1.
          4   -1    0    0  501    0  0.00000000000E+00 -0.00000000000E+00 -0.33488614328E+02  0.33512686995E+02  0.12700000000E+01 0.  1.
         25    2    1    2    0    0  0.00000000000E+00  0.00000000000E+00  0.83087715697E+02  0.15009593460E+03  0.12500088433E+03 0.  0.
    9000005    1    3    3    0    0 -0.76651204667E+01 -0.25356079304E+02  0.10950745735E+03  0.11267017371E+03  0.10000000000E+01 0.  0.
    9000005    1    3    3    0    0  0.76651204667E+01  0.25356079304E+02 -0.26419741648E+02  0.37425760890E+02  0.10000000000E+01 0.  0.
<mgrwt>
<rscale>  0 0.12500088E+03</rscale>
<asrwt>0</asrwt>
<pdfrwt beam="2">  1        4 0.51544785E-02 0.12500088E+03</pdfrwt>
<pdfrwt beam="1">  1       -4 0.17937203E-01 0.12500088E+03</pdfrwt>
<totfact> 0.99282603E+03</totfact>
</mgrwt>
</event>
<event>
 5    1  0.3261711E-002  0.1250006E+03  0.7818608E-02  0.1235068E+00
         -4   -1    0    0    0  501 -0.00000000000E+00  0.00000000000E+00  0.14421408023E+02  0.14477220361E+02  0.12700000000E+01 0. -1.
          4   -1    0    0  501    0  0.00000000000E+00 -0.00000000000E+00 -0.27028666625E+03  0.27028964992E+03  0.12700000000E+01 0. -1.
         25    2    1    2    0    0  0.00000000000E+00  0.00000000000E+00 -0.25586525823E+03  0.28476687028E+03  0.12500056016E+03 0.  0.
    9000005    1    3    3    0    0  0.53370565972E+02 -0.13671543628E+02 -0.60739278967E+02  0.82009684957E+02  0.10000000000E+01 0.  0.
    9000005    1    3    3    0    0 -0.53370565972E+02  0.13671543628E+02 -0.19512597926E+03  0.20275718532E+03  0.10000000000E+01 0.  0.
<mgrwt>
<rscale>  0 0.12500056E+03</rscale>
<asrwt>0</asrwt>
<pdfrwt beam="2">  1        4 0.41587083E-01 0.12500056E+03</pdfrwt>
<pdfrwt beam="1">  1       -4 0.22232011E-02 0.12500056E+03</pdfrwt>
<totfact> 0.77549305E+03</totfact>
</mgrwt>
</event>
<event>
 5    1  0.3261711E-002  0.1250042E+03  0.7818608E-02  0.1235063E+00
          4   -1    0    0  501    0  0.00000000000E+00  0.00000000000E+00  0.31632454747E+02  0.31657938867E+02  0.12700000000E+01 0.  1.
         -4   -1    0    0    0  501 -0.00000000000E+00 -0.00000000000E+00 -0.12341848182E+03  0.12342501591E+03  0.12700000000E+01 0.  1.
         25    2    1    2    0    0  0.00000000000E+00  0.00000000000E+00 -0.91786027068E+02  0.15508295478E+03  0.12500419233E+03 0.  0.
    9000005    1    3    3    0    0  0.90216206290E+00 -0.49012223037E+01  0.31391626641E+02  0.31800473261E+02  0.10000000000E+01 0.  0.
    9000005    1    3    3    0    0 -0.90216206290E+00  0.49012223037E+01 -0.12317765371E+03  0.12328248152E+03  0.10000000000E+01 0.  0.
<mgrwt>
<rscale>  0 0.12500419E+03</rscale>
<asrwt>0</asrwt>
<pdfrwt beam="1">  1        4 0.48689945E-02 0.12500419E+03</pdfrwt>
<pdfrwt beam="2">  1       -4 0.18989921E-01 0.12500419E+03</pdfrwt>
<totfact> 0.98289949E+03</totfact>
</mgrwt>
</event>
<event>
 5    1  0.3261711E-002  0.1249966E+03  0.7818608E-02  0.1235075E+00
          4   -1    0    0  501    0  0.00000000000E+00  0.00000000000E+00  0.49140669615E+03  0.49140833725E+03  0.12700000000E+01 0.  1.
         -4   -1    0    0    0  501 -0.00000000000E+00 -0.00000000000E+00 -0.78962937616E+01  0.79977718879E+01  0.12700000000E+01 0.  1.
         25    2    1    2    0    0  0.00000000000E+00  0.00000000000E+00  0.48351040239E+03  0.49940610914E+03  0.12499661047E+03 0.  0.
    9000005    1    3    3    0    0 -0.65144763805E+01  0.62107753315E+02  0.23262099593E+03  0.24085958394E+03  0.10000000000E+01 0.  0.
    9000005    1    3    3    0    0  0.65144763805E+01 -0.62107753315E+02  0.25088940646E+03  0.25854652521E+03  0.10000000000E+01 0.  0.
<mgrwt>
<rscale>  0 0.12499661E+03</rscale>
<asrwt>0</asrwt>
<pdfrwt beam="1">  1        4 0.75608984E-01 0.12499661E+03</pdfrwt>
<pdfrwt beam="2">  1       -4 0.12227463E-02 0.12499661E+03</pdfrwt>
<totfact> 0.55914630E+03</totfact>
</mgrwt>
</event>
<event>
 5    1  0.3261711E-002  0.1250022E+03  0.7818608E-02  0.1235066E+00
         -4   -1    0    0    0  501 -0.00000000000E+00  0.00000000000E+00  0.21827335728E+02  0.21864251301E+02  0.12700000000E+01 0. -1.
          4   -1    0    0  501    0  0.00000000000E+00 -0.00000000000E+00 -0.17877737684E+03  0.17878188770E+03  0.12700000000E+01 0. -1.
         25    2    1    2    0    0  0.00000000000E+00  0.00000000000E+00 -0.15695004112E+03  0.20064613901E+03  0.12500223075E+03 0.  0.
    9000005    1    3    3    0    0  0.17446489306E+02  0.41967375829E+02 -0.96268653329E+01  0.46468453377E+02  0.10000000000E+01 0.  0.
    9000005    1    3    3    0    0 -0.17446489306E+02 -0.41967375829E+02 -0.14732317578E+03  0.15417768563E+03  0.10000000000E+01 0.  0.
<mgrwt>
<rscale>  0 0.12500223E+03</rscale>
<asrwt>0</asrwt>
<pdfrwt beam="2">  1        4 0.27507398E-01 0.12500223E+03</pdfrwt>
<pdfrwt beam="1">  1       -4 0.33612384E-02 0.12500223E+03</pdfrwt>
<totfact> 0.90022151E+03</totfact>
</mgrwt>
</event>
<event>
 5    1  0.3261711E-002  0.1250021E+03  0.7818608E-02  0.1235066E+00
         -4   -1    0    0    0  501 -0.00000000000E+00  0.00000000000E+00  0.26682711220E+01  0.29550923472E+01  0.12700000000E+01 0. -1.
          4   -1    0    0  501    0  0.00000000000E+00 -0.00000000000E+00 -0.13890518367E+04  0.13890524173E+04  0.12700000000E+01 0. -1.
         25    2    1    2    0    0  0.00000000000E+00  0.00000000000E+00 -0.13863835656E+04  0.13920075097E+04  0.12500206375E+03 0.  0.
    9000005    1    3    3    0    0  0.33072306967E+01  0.12334062802E+02 -0.13744227744E+04  0.13744824588E+04  0.10000000000E+01 0.  0.
    9000005    1    3    3    0    0 -0.33072306967E+01 -0.12334062802E+02 -0.11960791257E+02  0.17525050858E+02  0.10000000000E+01 0.  0.
<mgrwt>
<rscale>  0 0.12500206E+03</rscale>
<asrwt>0</asrwt>
<pdfrwt beam="2">  1        4 0.21372184E+00 0.12500206E+03</pdfrwt>
<pdfrwt beam="1">  1       -4 0.43261219E-03 0.12500206E+03</pdfrwt>
<totfact> 0.20152259E+03</totfact>
</mgrwt>
</event>
<event>
 5    1  0.3261711E-002  0.1250034E+03  0.7818608E-02  0.1235064E+00
          4   -1    0    0  501    0  0.00000000000E+00  0.00000000000E+00  0.17026475573E+03  0.17026949211E+03  0.12700000000E+01 0. -1.
         -4   -1    0    0    0  501 -0.00000000000E+00 -0.00000000000E+00 -0.22920819578E+02  0.22955976785E+02  0.12700000000E+01 0. -1.
         25    2    1    2    0    0  0.00000000000E+00  0.00000000000E+00  0.14734393615E+03  0.19322546890E+03  0.12500338519E+03 0.  0.
    9000005    1    3    3    0    0  0.21421279584E+02  0.24996001112E+02  0.15578365278E+03  0.15922693794E+03  0.10000000000E+01 0.  0.
    9000005    1    3    3    0    0 -0.21421279584E+02 -0.24996001112E+02 -0.84397166297E+01  0.33998530959E+02  0.10000000000E+01 0.  0.
<mgrwt>
<rscale>  0 0.12500339E+03</rscale>
<asrwt>0</asrwt>
<pdfrwt beam="1">  1        4 0.26197647E-01 0.12500339E+03</pdfrwt>
<pdfrwt beam="2">  1       -4 0.35293486E-02 0.12500339E+03</pdfrwt>
<totfact> 0.91282183E+03</totfact>
</mgrwt>
</event>
<event>
 5    1  0.3261711E-002  0.1249992E+03  0.7818608E-02  0.1235070E+00
          4   -1    0    0  501    0  0.00000000000E+00  0.00000000000E+00  0.52434260241E+02  0.52449638197E+02  0.12700000000E+01 0.  1.
         -4   -1    0    0    0  501 -0.00000000000E+00 -0.00000000000E+00 -0.74465405806E+02  0.74476234879E+02  0.12700000000E+01 0.  1.
         25    2    1    2    0    0  0.00000000000E+00  0.00000000000E+00 -0.22031145565E+02  0.12692587308E+03  0.12499922352E+03 0.  0.
    9000005    1    3    3    0    0  0.17660723700E+02  0.38411194333E+01  0.49727415433E+02  0.52919478510E+02  0.10000000000E+01 0.  0.
    9000005    1    3    3    0    0 -0.17660723700E+02 -0.38411194333E+01 -0.71758560998E+02  0.74006394566E+02  0.10000000000E+01 0.  0.
<mgrwt>
<rscale>  0 0.12499922E+03</rscale>
<asrwt>0</asrwt>
<pdfrwt beam="1">  1        4 0.80688252E-02 0.12499922E+03</pdfrwt>
<pdfrwt beam="2">  1       -4 0.11458232E-01 0.12499922E+03</pdfrwt>
<totfact> 0.10410939E+04</totfact>
</mgrwt>
</event>
<event>
 5    1  0.3261711E-002  0.1250000E+03  0.7818608E-02  0.1235069E+00
          4   -1    0    0  501    0  0.00000000000E+00  0.00000000000E+00  0.66161699272E+01  0.67369581048E+01  0.12700000000E+01 0. -1.
         -4   -1    0    0    0  501 -0.00000000000E+00 -0.00000000000E+00 -0.58494771160E+03  0.58494909027E+03  0.12700000000E+01 0. -1.
         25    2    1    2    0    0  0.00000000000E+00  0.00000000000E+00 -0.57833154168E+03  0.59168604838E+03  0.12500003098E+03 0.  0.
    9000005    1    3    3    0    0  0.42118784919E+02 -0.25226211733E+02 -0.47218090661E+03  0.47472746115E+03  0.10000000000E+01 0.  0.
    9000005    1    3    3    0    0 -0.42118784919E+02  0.25226211733E+02 -0.10615063507E+03  0.11695858723E+03  0.10000000000E+01 0.  0.
<mgrwt>
<rscale>  0 0.12500003E+03</rscale>
<asrwt>0</asrwt>
<pdfrwt beam="1">  1        4 0.10272702E-02 0.12500003E+03</pdfrwt>
<pdfrwt beam="2">  1       -4 0.90001313E-01 0.12500003E+03</pdfrwt>
<totfact> 0.49396635E+03</totfact>
</mgrwt>
</event>
<event>
 5    1  0.3261711E-002  0.1249994E+03  0.7818608E-02  0.1235070E+00
         -4   -1    0    0    0  501 -0.00000000000E+00  0.00000000000E+00  0.52813415157E+03  0.52813567855E+03  0.12700000000E+01 0.  1.
          4   -1    0    0  501    0  0.00000000000E+00 -0.00000000000E+00 -0.73401862275E+01  0.74492438445E+01  0.12700000000E+01 0.  1.
         25    2    1    2    0    0  0.00000000000E+00  0.00000000000E+00  0.52079396534E+03  0.53558492239E+03  0.12499941902E+03 0.  0.
    9000005    1    3    3    0    0 -0.35490757020E+02 -0.49813089161E+02  0.20547990583E+03  0.21439199935E+03  0.10000000000E+01 0.  0.
    9000005    1    3    3    0    0  0.35490757020E+02  0.49813089161E+02  0.31531405951E+03  0.32119292304E+03  0.10000000000E+01 0.  0.
<mgrwt>
<rscale>  0 0.12499942E+03</rscale>
<asrwt>0</asrwt>
<pdfrwt beam="2">  1        4 0.11377660E-02 0.12499942E+03</pdfrwt>
<pdfrwt beam="1">  1       -4 0.81259913E-01 0.12499942E+03</pdfrwt>
<totfact> 0.53206069E+03</totfact>
</mgrwt>
</event>
<event>
 5    1  0.3261711E-002  0.1250011E+03  0.7818608E-02  0.1235068E+00
          4   -1    0    0  501    0  0.00000000000E+00  0.00000000000E+00  0.19352154914E+01  0.23147265493E+01  0.12700000000E+01 0.  1.
         -4   -1    0    0    0  501 -0.00000000000E+00 -0.00000000000E+00 -0.18379119305E+04  0.18379123693E+04  0.12700000000E+01 0.  1.
         25    2    1    2    0    0  0.00000000000E+00  0.00000000000E+00 -0.18359767150E+04  0.18402270958E+04  0.12500106477E+03 0.  0.
    9000005    1    3    3    0    0 -0.57237803371E+02 -0.20353424392E+02 -0.70218195503E+03  0.70480559447E+03  0.10000000000E+01 0.  0.
    9000005    1    3    3    0    0  0.57237803371E+02  0.20353424392E+02 -0.11337947599E+04  0.11354215013E+04  0.10000000000E+01 0.  0.
<mgrwt>
<rscale>  0 0.12500106E+03</rscale>
<asrwt>0</asrwt>
<pdfrwt beam="1">  1        4 0.32695384E-03 0.12500106E+03</pdfrwt>
<pdfrwt beam="2">  1       -4 0.28278364E+00 0.12500106E+03</pdfrwt>
<totfact> 0.12093707E+03</totfact>
</mgrwt>
</event>
<event>
 5    1  0.3261711E-002  0.1249998E+03  0.7818608E-02  0.1235070E+00
          4   -1    0    0  501    0  0.00000000000E+00  0.00000000000E+00  0.17676975217E+03  0.17677431426E+03  0.12700000000E+01 0. -1.
         -4   -1    0    0    0  501 -0.00000000000E+00 -0.00000000000E+00 -0.22074797929E+02  0.22111300360E+02  0.12700000000E+01 0. -1.
         25    2    1    2    0    0  0.00000000000E+00  0.00000000000E+00  0.15469495425E+03  0.19888561462E+03  0.12499983534E+03 0.  0.
    9000005    1    3    3    0    0 -0.20915752918E+02  0.27856212067E+02 -0.52022271787E+01  0.35234932077E+02  0.10000000000E+01 0.  0.
    9000005    1    3    3    0    0  0.20915752918E+02 -0.27856212067E+02  0.15989718142E+03  0.16365068255E+03  0.10000000000E+01 0.  0.
<mgrwt>
<rscale>  0 0.12499984E+03</rscale>
<asrwt>0</asrwt>
<pdfrwt beam="1">  1        4 0.27198505E-01 0.12499984E+03</pdfrwt>
<pdfrwt beam="2">  1       -4 0.33992816E-02 0.12499984E+03</pdfrwt>
<totfact> 0.90324130E+03</totfact>
</mgrwt>
</event>
<event>
 5    1  0.3261711E-002  0.1250008E+03  0.7818608E-02  0.1235068E+00
         -4   -1    0    0    0  501 -0.00000000000E+00  0.00000000000E+00  0.65717083470E+02  0.65729353867E+02  0.12700000000E+01 0.  1.
          4   -1    0    0  501    0  0.00000000000E+00 -0.00000000000E+00 -0.59416598004E+02  0.59430169261E+02  0.12700000000E+01 0.  1.
         25    2    1    2    0    0  0.00000000000E+00  0.00000000000E+00  0.63004854658E+01  0.12515952313E+03  0.12500084045E+03 0.  0.
    9000005    1    3    3    0    0 -0.24651415613E+02  0.13705607262E+02 -0.52685829674E+02  0.59768993723E+02  0.10000000000E+01 0.  0.
    9000005    1    3    3    0    0  0.24651415613E+02 -0.13705607262E+02  0.58986315140E+02  0.65390529406E+02  0.10000000000E+01 0.  0.
<mgrwt>
<rscale>  0 0.12500084E+03</rscale>
<asrwt>0</asrwt>
<pdfrwt beam="2">  1        4 0.91430029E-02 0.12500084E+03</pdfrwt>
<pdfrwt beam="1">  1       -4 0.10112308E-01 0.12500084E+03</pdfrwt>
<totfact> 0.10449200E+04</totfact>
</mgrwt>
</event>
<event>
 5    1  0.3261711E-002  0.1250001E+03  0.7818608E-02  0.1235069E+00
          4   -1    0    0  501    0  0.00000000000E+00  0.00000000000E+00  0.20933711655E+03  0.20934096891E+03  0.12700000000E+01 0.  1.
         -4   -1    0    0    0  501 -0.00000000000E+00 -0.00000000000E+00 -0.18634480930E+02  0.18677708091E+02  0.12700000000E+01 0.  1.
         25    2    1    2    0    0  0.00000000000E+00  0.00000000000E+00  0.19070263562E+03  0.22801867700E+03  0.12500008732E+03 0.  0.
    9000005    1    3    3    0    0 -0.47993238493E+02  0.22429221877E+02  0.34883227535E+02  0.63437059345E+02  0.10000000000E+01 0.  0.
    9000005    1    3    3    0    0  0.47993238493E+02 -0.22429221877E+02  0.15581940809E+03  0.16458161766E+03  0.10000000000E+01 0.  0.
<mgrwt>
<rscale>  0 0.12500009E+03</rscale>
<asrwt>0</asrwt>
<pdfrwt beam="1">  1        4 0.32209332E-01 0.12500009E+03</pdfrwt>
<pdfrwt beam="2">  1       -4 0.28704647E-02 0.12500009E+03</pdfrwt>
<totfact> 0.85614594E+03</totfact>
</mgrwt>
</event>
<event>
 5    1  0.3261711E-002  0.1250211E+03  0.7818608E-02  0.1235036E+00
          4   -1    0    0  501    0  0.00000000000E+00  0.00000000000E+00  0.11944223586E+04  0.11944230338E+04  0.12700000000E+01 0.  1.
         -4   -1    0    0    0  501 -0.00000000000E+00 -0.00000000000E+00 -0.31475606504E+01  0.33941181547E+01  0.12700000000E+01 0.  1.
         25    2    1    2    0    0  0.00000000000E+00  0.00000000000E+00  0.11912747980E+04  0.11978171520E+04  0.12502113917E+03 0.  0.
    9000005    1    3    3    0    0  0.27417860365E+02 -0.40779635134E+02  0.22557907353E+03  0.23087147100E+03  0.10000000000E+01 0.  0.
    9000005    1    3    3    0    0 -0.27417860365E+02  0.40779635134E+02  0.96569572446E+03  0.96694568097E+03  0.10000000000E+01 0.  0.
<mgrwt>
<rscale>  0 0.12502114E+03</rscale>
<asrwt>0</asrwt>
<pdfrwt beam="1">  1        4 0.18377623E+00 0.12502114E+03</pdfrwt>
<pdfrwt beam="2">  1       -4 0.50325819E-03 0.12502114E+03</pdfrwt>
<totfact> 0.24758547E+03</totfact>
</mgrwt>
</event>
<event>
 5    1  0.3261711E-002  0.1250013E+03  0.7818608E-02  0.1235067E+00
         -4   -1    0    0    0  501 -0.00000000000E+00  0.00000000000E+00  0.14940938550E+03  0.14941478299E+03  0.12700000000E+01 0. -1.
          4   -1    0    0  501    0  0.00000000000E+00 -0.00000000000E+00 -0.26123860090E+02  0.26154712118E+02  0.12700000000E+01 0. -1.
         25    2    1    2    0    0  0.00000000000E+00  0.00000000000E+00  0.12328552541E+03  0.17556949511E+03  0.12500130734E+03 0.  0.
    9000005    1    3    3    0    0 -0.19784520355E+01  0.62116625012E+02  0.70846777904E+02  0.94247839841E+02  0.10000000000E+01 0.  0.
    9000005    1    3    3    0    0  0.19784520355E+01 -0.62116625012E+02  0.52438747510E+02  0.81321655269E+02  0.10000000000E+01 0.  0.
<mgrwt>
<rscale>  0 0.12500131E+03</rscale>
<asrwt>0</asrwt>
<pdfrwt beam="2">  1        4 0.40218439E-02 0.12500131E+03</pdfrwt>
<pdfrwt beam="1">  1       -4 0.22988847E-01 0.12500131E+03</pdfrwt>
<totfact> 0.94417873E+03</totfact>
</mgrwt>
</event>
<event>
 5    1  0.3261711E-002  0.1250006E+03  0.7818608E-02  0.1235068E+00
          4   -1    0    0  501    0  0.00000000000E+00  0.00000000000E+00  0.35318924578E+03  0.35319152911E+03  0.12700000000E+01 0. -1.
         -4   -1    0    0    0  501 -0.00000000000E+00 -0.00000000000E+00 -0.11021257532E+02  0.11094188460E+02  0.12700000000E+01 0. -1.
         25    2    1    2    0    0  0.00000000000E+00  0.00000000000E+00  0.34216798824E+03  0.36428571757E+03  0.12500060737E+03 0.  0.
    9000005    1    3    3    0    0  0.55127561783E+02 -0.28951588070E+02  0.15565061028E+03  0.16764651801E+03  0.10000000000E+01 0.  0.
    9000005    1    3    3    0    0 -0.55127561783E+02  0.28951588070E+02  0.18651737797E+03  0.19663919956E+03  0.10000000000E+01 0.  0.
<mgrwt>
<rscale>  0 0.12500061E+03</rscale>
<asrwt>0</asrwt>
<pdfrwt beam="1">  1        4 0.54342600E-01 0.12500061E+03</pdfrwt>
<pdfrwt beam="2">  1       -4 0.17013636E-02 0.12500061E+03</pdfrwt>
<totfact> 0.68180103E+03</totfact>
</mgrwt>
</event>
<event>
 5    1  0.3261711E-002  0.1250121E+03  0.7818608E-02  0.1235050E+00
         -4   -1    0    0    0  501 -0.00000000000E+00  0.00000000000E+00  0.12613465886E+03  0.12614105226E+03  0.12700000000E+01 0. -1.
          4   -1    0    0  501    0  0.00000000000E+00 -0.00000000000E+00 -0.30954673593E+02  0.30980715248E+02  0.12700000000E+01 0. -1.
         25    2    1    2    0    0  0.00000000000E+00  0.00000000000E+00  0.95179985264E+02  0.15712176751E+03  0.12501208033E+03 0.  0.
    9000005    1    3    3    0    0 -0.11858072644E+01  0.16823608454E+02 -0.28046698715E+02  0.32742285337E+02  0.10000000000E+01 0.  0.
    9000005    1    3    3    0    0  0.11858072644E+01 -0.16823608454E+02  0.12322668398E+03  0.12437948217E+03  0.10000000000E+01 0.  0.
<mgrwt>
<rscale>  0 0.12501208E+03</rscale>
<asrwt>0</asrwt>
<pdfrwt beam="2">  1        4 0.47647524E-02 0.12501208E+03</pdfrwt>
<pdfrwt beam="1">  1       -4 0.19407828E-01 0.12501208E+03</pdfrwt>
<totfact> 0.97873985E+03</totfact>
</mgrwt>
</event>
<event>
 5    1  0.3261711E-002  0.1249968E+03  0.7818608E-02  0.1235074E+00
         -4   -1    0    0    0  501 -0.00000000000E+00  0.00000000000E+00  0.38881616555E+02  0.38902352190E+02  0.12700000000E+01 0. -1.
          4   -1    0    0  501    0  0.00000000000E+00 -0.00000000000E+00 -0.10040850456E+03  0.10041653592E+03  0.12700000000E+01 0. -1.
         25    2    1    2    0    0  0.00000000000E+00  0.00000000000E+00 -0.61526888001E+02  0.13931888811E+03  0.12499677851E+03 0.  0.
    9000005    1    3    3    0    0  0.40984627315E+02 -0.30065711332E+02  0.97521381674E+01  0.51766696562E+02  0.10000000000E+01 0.  0.
    9000005    1    3    3    0    0 -0.40984627315E+02  0.30065711332E+02 -0.71279026169E+02  0.87552191553E+02  0.10000000000E+01 0.  0.
<mgrwt>
<rscale>  0 0.12499678E+03</rscale>
<asrwt>0</asrwt>
<pdfrwt beam="2">  1        4 0.15449675E-01 0.12499678E+03</pdfrwt>
<pdfrwt beam="1">  1       -4 0.59840000E-02 0.12499678E+03</pdfrwt>
<totfact> 0.10148458E+04</totfact>
</mgrwt>
</event>
<event>
 5    1  0.3261711E-002  0.1250064E+03  0.7818608E-02  0.1235059E+00
          4   -1    0    0  501    0  0.00000000000E+00  0.00000000000E+00  0.43532045505E+03  0.43532230759E+03  0.12700000000E+01 0.  1.
         -4   -1    0    0    0  501 -0.00000000000E+00 -0.00000000000E+00 -0.89273748806E+01  0.90172569143E+01  0.12700000000E+01 0.  1.
         25    2    1    2    0    0  0.00000000000E+00  0.00000000000E+00  0.42639308017E+03  0.44433956451E+03  0.12500635891E+03 0.  0.
    9000005    1    3    3    0    0  0.19808140148E+02 -0.86233010730E+01  0.47502596680E+01  0.22142463829E+02  0.10000000000E+01 0.  0.
    9000005    1    3    3    0    0 -0.19808140148E+02  0.86233010730E+01  0.42164282051E+03  0.42219710068E+03  0.10000000000E+01 0.  0.
<mgrwt>
<rscale>  0 0.12500636E+03</rscale>
<asrwt>0</asrwt>
<pdfrwt beam="1">  1        4 0.66979420E-01 0.12500636E+03</pdfrwt>
<pdfrwt beam="2">  1       -4 0.13804991E-02 0.12500636E+03</pdfrwt>
<totfact> 0.60448851E+03</totfact>
</mgrwt>
</event>
<event>
 5    1  0.3261711E-002  0.1250022E+03  0.7818608E-02  0.1235066E+00
         -4   -1    0    0    0  501 -0.00000000000E+00  0.00000000000E+00  0.12644974862E+02  0.12708591160E+02  0.12700000000E+01 0.  1.
          4   -1    0    0  501    0  0.00000000000E+00 -0.00000000000E+00 -0.30808779864E+03  0.30809041623E+03  0.12700000000E+01 0.  1.
         25    2    1    2    0    0  0.00000000000E+00  0.00000000000E+00 -0.29544282378E+03  0.32079900739E+03  0.12500216406E+03 0.  0.
    9000005    1    3    3    0    0  0.16707426673E+02 -0.10464819461E+02 -0.29991112126E+03  0.30056002929E+03  0.10000000000E+01 0.  0.
    9000005    1    3    3    0    0 -0.16707426673E+02  0.10464819461E+02  0.44682974738E+01  0.20238978104E+02  0.10000000000E+01 0.  0.
<mgrwt>
<rscale>  0 0.12500216E+03</rscale>
<asrwt>0</asrwt>
<pdfrwt beam="2">  1        4 0.47403212E-01 0.12500216E+03</pdfrwt>
<pdfrwt beam="1">  1       -4 0.19504759E-02 0.12500216E+03</pdfrwt>
<totfact> 0.73057692E+03</totfact>
</mgrwt>
</event>
<event>
 5    1  0.3261711E-002  0.1250009E+03  0.7818608E-02  0.1235068E+00
         -4   -1    0    0    0  501 -0.00000000000E+00  0.00000000000E+00  0.34137915945E+03  0.34138152177E+03  0.12700000000E+01 0.  1.
          4   -1    0    0  501    0  0.00000000000E+00 -0.00000000000E+00 -0.11405077414E+02  0.11475569303E+02  0.12700000000E+01 0.  1.
         25    2    1    2    0    0  0.00000000000E+00  0.00000000000E+00  0.32997408204E+03  0.35285709107E+03  0.12500092762E+03 0.  0.
    9000005    1    3    3    0    0  0.40733801801E+02  0.45569299464E+02  0.20173861902E+03  0.21079676009E+03  0.10000000000E+01 0.  0.
    9000005    1    3    3    0    0 -0.40733801801E+02 -0.45569299464E+02  0.12823546302E+03  0.14206033098E+03  0.10000000000E+01 0.  0.
<mgrwt>
<rscale>  0 0.12500093E+03</rscale>
<asrwt>0</asrwt>
<pdfrwt beam="2">  1        4 0.17602319E-02 0.12500093E+03</pdfrwt>
<pdfrwt beam="1">  1       -4 0.52525462E-01 0.12500093E+03</pdfrwt>
<totfact> 0.69409963E+03</totfact>
</mgrwt>
</event>
<event>
 5    1  0.3261711E-002  0.1250004E+03  0.7818608E-02  0.1235069E+00
          4   -1    0    0  501    0  0.00000000000E+00  0.00000000000E+00  0.37289144343E+01  0.39392515606E+01  0.12700000000E+01 0. -1.
         -4   -1    0    0    0  501 -0.00000000000E+00 -0.00000000000E+00 -0.10186185729E+04  0.10186193646E+04  0.12700000000E+01 0. -1.
         25    2    1    2    0    0  0.00000000000E+00  0.00000000000E+00 -0.10148896584E+04  0.10225586161E+04  0.12500041857E+03 0.  0.
    9000005    1    3    3    0    0 -0.11821341870E+02 -0.61006064380E+02 -0.56157941992E+03  0.56500790162E+03  0.10000000000E+01 0.  0.
    9000005    1    3    3    0    0  0.11821341870E+02  0.61006064380E+02 -0.45331023851E+03  0.45755071451E+03  0.10000000000E+01 0.  0.
<mgrwt>
<rscale>  0 0.12500042E+03</rscale>
<asrwt>0</asrwt>
<pdfrwt beam="1">  1        4 0.58992064E-03 0.12500042E+03</pdfrwt>
<pdfrwt beam="2">  1       -4 0.15672657E+00 0.12500042E+03</pdfrwt>
<totfact> 0.29867062E+03</totfact>
</mgrwt>
</event>
<event>
 5    1  0.3261711E-002  0.1250044E+03  0.7818608E-02  0.1235062E+00
          4   -1    0    0  501    0  0.00000000000E+00  0.00000000000E+00  0.18597753825E+02  0.18641066154E+02  0.12700000000E+01 0.  1.
         -4   -1    0    0    0  501 -0.00000000000E+00 -0.00000000000E+00 -0.20976399026E+03  0.20976783479E+03  0.12700000000E+01 0.  1.
         25    2    1    2    0    0  0.00000000000E+00  0.00000000000E+00 -0.19116623644E+03  0.22840890094E+03  0.12500438422E+03 0.  0.
    9000005    1    3    3    0    0 -0.33968794348E+02 -0.50721239369E+02 -0.71136691191E+02  0.93744076859E+02  0.10000000000E+01 0.  0.
    9000005    1    3    3    0    0  0.33968794348E+02  0.50721239369E+02 -0.12002954525E+03  0.13466482408E+03  0.10000000000E+01 0.  0.
<mgrwt>
<rscale>  0 0.12500438E+03</rscale>
<asrwt>0</asrwt>
<pdfrwt beam="1">  1        4 0.28648205E-02 0.12500438E+03</pdfrwt>
<pdfrwt beam="2">  1       -4 0.32275009E-01 0.12500438E+03</pdfrwt>
<totfact> 0.85546143E+03</totfact>
</mgrwt>
</event>
<event>
 5    1  0.3261711E-002  0.1250010E+03  0.7818608E-02  0.1235068E+00
         -4   -1    0    0    0  501 -0.00000000000E+00  0.00000000000E+00  0.16320608904E+03  0.16321103026E+03  0.12700000000E+01 0. -1.
          4   -1    0    0  501    0  0.00000000000E+00 -0.00000000000E+00 -0.23912696791E+02  0.23946397804E+02  0.12700000000E+01 0. -1.
         25    2    1    2    0    0  0.00000000000E+00  0.00000000000E+00  0.13929339225E+03  0.18715742807E+03  0.12500101502E+03 0.  0.
    9000005    1    3    3    0    0 -0.12816402028E+02 -0.21663744055E+02 -0.15994479468E+02  0.29839593510E+02  0.10000000000E+01 0.  0.
    9000005    1    3    3    0    0  0.12816402028E+02  0.21663744055E+02  0.15528787172E+03  0.15731783456E+03  0.10000000000E+01 0.  0.
<mgrwt>
<rscale>  0 0.12500102E+03</rscale>
<asrwt>0</asrwt>
<pdfrwt beam="2">  1        4 0.36818490E-02 0.12500102E+03</pdfrwt>
<pdfrwt beam="1">  1       -4 0.25111601E-01 0.12500102E+03</pdfrwt>
<totfact> 0.92342178E+03</totfact>
</mgrwt>
</event>
<event>
 5    1  0.3261711E-002  0.1249969E+03  0.7818608E-02  0.1235074E+00
          4   -1    0    0  501    0  0.00000000000E+00  0.00000000000E+00  0.13216679881E+02  0.13277557270E+02  0.12700000000E+01 0. -1.
         -4   -1    0    0    0  501 -0.00000000000E+00 -0.00000000000E+00 -0.29479874174E+03  0.29480147732E+03  0.12700000000E+01 0. -1.
         25    2    1    2    0    0  0.00000000000E+00  0.00000000000E+00 -0.28158206186E+03  0.30807903459E+03  0.12499693594E+03 0.  0.
    9000005    1    3    3    0    0  0.59580277663E+02 -0.66194018822E+01 -0.18428657474E+03  0.19379413716E+03  0.10000000000E+01 0.  0.
    9000005    1    3    3    0    0 -0.59580277663E+02  0.66194018822E+01 -0.97295487121E+02  0.11428489744E+03  0.10000000000E+01 0.  0.
<mgrwt>
<rscale>  0 0.12499694E+03</rscale>
<asrwt>0</asrwt>
<pdfrwt beam="1">  1        4 0.20382289E-02 0.12499694E+03</pdfrwt>
<pdfrwt beam="2">  1       -4 0.45358541E-01 0.12499694E+03</pdfrwt>
<totfact> 0.74601541E+03</totfact>
</mgrwt>
</event>
<event>
 5    1  0.3261711E-002  0.1250021E+03  0.7818608E-02  0.1235066E+00
         -4   -1    0    0    0  501 -0.00000000000E+00  0.00000000000E+00  0.28318874392E+02  0.28347337561E+02  0.12700000000E+01 0.  1.
          4   -1    0    0  501    0  0.00000000000E+00 -0.00000000000E+00 -0.13784192365E+03  0.13784777407E+03  0.12700000000E+01 0.  1.
         25    2    1    2    0    0  0.00000000000E+00  0.00000000000E+00 -0.10952304926E+03  0.16619511163E+03  0.12500206723E+03 0.  0.
    9000005    1    3    3    0    0 -0.32368883177E+02  0.46663736025E+02 -0.20088069022E+02  0.60247650369E+02  0.10000000000E+01 0.  0.
    9000005    1    3    3    0    0  0.32368883177E+02 -0.46663736025E+02 -0.89434980241E+02  0.10594746127E+03  0.10000000000E+01 0.  0.
<mgrwt>
<rscale>  0 0.12500207E+03</rscale>
<asrwt>0</asrwt>
<pdfrwt beam="2">  1        4 0.21209089E-01 0.12500207E+03</pdfrwt>
<pdfrwt beam="1">  1       -4 0.43593895E-02 0.12500207E+03</pdfrwt>
<totfact> 0.96157070E+03</totfact>
</mgrwt>
</event>
<event>
 5    1  0.3261711E-002  0.1249882E+03  0.7818608E-02  0.1235088E+00
         -4   -1    0    0    0  501 -0.00000000000E+00  0.00000000000E+00  0.62680077538E+02  0.62692942348E+02  0.12700000000E+01 0.  1.
          4   -1    0    0  501    0  0.00000000000E+00 -0.00000000000E+00 -0.62282974090E+02  0.62295920905E+02  0.12700000000E+01 0.  1.
         25    2    1    2    0    0  0.00000000000E+00  0.00000000000E+00  0.39710344877E+00  0.12498886325E+03  0.12498823243E+03 0.  0.
    9000005    1    3    3    0    0  0.49196057637E+02  0.23259623083E+02  0.30911121299E+02  0.62592008858E+02  0.10000000000E+01 0.  0.
    9000005    1    3    3    0    0 -0.49196057637E+02 -0.23259623083E+02 -0.30514017850E+02  0.62396854395E+02  0.10000000000E+01 0.  0.
<mgrwt>
<rscale>  0 0.12498823E+03</rscale>
<asrwt>0</asrwt>
<pdfrwt beam="2">  1        4 0.95839815E-02 0.12498823E+03</pdfrwt>
<pdfrwt beam="1">  1       -4 0.96450743E-02 0.12498823E+03</pdfrwt>
<totfact> 0.10455885E+04</totfact>
</mgrwt>
</event>
<event>
 5    1  0.3261711E-002  0.1249996E+03  0.7818608E-02  0.1235070E+00
         -4   -1    0    0    0  501 -0.00000000000E+00  0.00000000000E+00  0.85370117944E+02  0.85379563935E+02  0.12700000000E+01 0.  1.
          4   -1    0    0  501    0  0.00000000000E+00 -0.00000000000E+00 -0.45735592965E+02  0.45753222443E+02  0.12700000000E+01 0.  1.
         25    2    1    2    0    0  0.00000000000E+00  0.00000000000E+00  0.39634524979E+02  0.13113278638E+03  0.12499964837E+03 0.  0.
    9000005    1    3    3    0    0 -0.43991215120E+02 -0.40544448182E+02  0.38762949081E+02  0.71292674992E+02  0.10000000000E+01 0.  0.
    9000005    1    3    3    0    0  0.43991215120E+02  0.40544448182E+02  0.87157589781E+00  0.59840111386E+02  0.10000000000E+01 0.  0.
<mgrwt>
<rscale>  0 0.12499965E+03</rscale>
<asrwt>0</asrwt>
<pdfrwt beam="2">  1        4 0.70383278E-02 0.12499965E+03</pdfrwt>
<pdfrwt beam="1">  1       -4 0.13135947E-01 0.12499965E+03</pdfrwt>
<totfact> 0.10320325E+04</totfact>
</mgrwt>
</event>
<event>
 5    1  0.3261711E-002  0.1250019E+03  0.7818608E-02  0.1235066E+00
         -4   -1    0    0    0  501 -0.00000000000E+00  0.00000000000E+00  0.75191310070E+02  0.75202034614E+02  0.12700000000E+01 0.  1.
          4   -1    0    0  501    0  0.00000000000E+00 -0.00000000000E+00 -0.51930217381E+02  0.51945744554E+02  0.12700000000E+01 0.  1.
         25    2    1    2    0    0  0.00000000000E+00  0.00000000000E+00  0.23261092689E+02  0.12714777917E+03  0.12500191724E+03 0.  0.
    9000005    1    3    3    0    0  0.49079337365E+02  0.38470690735E+02  0.74869901676E+01  0.62815845323E+02  0.10000000000E+01 0.  0.
    9000005    1    3    3    0    0 -0.49079337365E+02 -0.38470690735E+02  0.15774102522E+02  0.64331933845E+02  0.10000000000E+01 0.  0.
<mgrwt>
<rscale>  0 0.12500192E+03</rscale>
<asrwt>0</asrwt>
<pdfrwt beam="2">  1        4 0.79912835E-02 0.12500192E+03</pdfrwt>
<pdfrwt beam="1">  1       -4 0.11569913E-01 0.12500192E+03</pdfrwt>
<totfact> 0.10405486E+04</totfact>
</mgrwt>
</event>
<event>
 5    1  0.3261711E-002  0.1250003E+03  0.7818608E-02  0.1235069E+00
         -4   -1    0    0    0  501 -0.00000000000E+00  0.00000000000E+00  0.11309401708E+02  0.11380486237E+02  0.12700000000E+01 0. -1.
          4   -1    0    0  501    0  0.00000000000E+00 -0.00000000000E+00 -0.34424583068E+03  0.34424817333E+03  0.12700000000E+01 0. -1.
         25    2    1    2    0    0  0.00000000000E+00  0.00000000000E+00 -0.33293642897E+03  0.35562865957E+03  0.12500031107E+03 0.  0.
    9000005    1    3    3    0    0 -0.60662954970E+02  0.13859900755E+02 -0.15008066746E+03  0.16247245213E+03  0.10000000000E+01 0.  0.
    9000005    1    3    3    0    0  0.60662954970E+02 -0.13859900755E+02 -0.18285576151E+03  0.19315620744E+03  0.10000000000E+01 0.  0.
<mgrwt>
<rscale>  0 0.12500031E+03</rscale>
<asrwt>0</asrwt>
<pdfrwt beam="2">  1        4 0.52966537E-01 0.12500031E+03</pdfrwt>
<pdfrwt beam="1">  1       -4 0.17455565E-02 0.12500031E+03</pdfrwt>
<totfact> 0.69109269E+03</totfact>
</mgrwt>
</event>
<event>
 5    1  0.3261711E-002  0.1249994E+03  0.7818608E-02  0.1235070E+00
          4   -1    0    0  501    0  0.00000000000E+00  0.00000000000E+00  0.19371739816E+03  0.19372156114E+03  0.12700000000E+01 0.  1.
         -4   -1    0    0    0  501 -0.00000000000E+00 -0.00000000000E+00 -0.20140103073E+02  0.20180105346E+02  0.12700000000E+01 0.  1.
         25    2    1    2    0    0  0.00000000000E+00  0.00000000000E+00  0.17357729508E+03  0.21390166648E+03  0.12499938222E+03 0.  0.
    9000005    1    3    3    0    0 -0.17836146881E+02  0.59864825956E+02  0.89890572287E+02  0.10946798851E+03  0.10000000000E+01 0.  0.
    9000005    1    3    3    0    0  0.17836146881E+02 -0.59864825956E+02  0.83686722798E+02  0.10443367797E+03  0.10000000000E+01 0.  0.
<mgrwt>
<rscale>  0 0.12499938E+03</rscale>
<asrwt>0</asrwt>
<pdfrwt beam="1">  1        4 0.29806074E-01 0.12499938E+03</pdfrwt>
<pdfrwt beam="2">  1       -4 0.31018748E-02 0.12499938E+03</pdfrwt>
<totfact> 0.87843838E+03</totfact>
</mgrwt>
</event>
<event>
 5    1  0.3261711E-002  0.1250020E+03  0.7818608E-02  0.1235066E+00
         -4   -1    0    0    0  501 -0.00000000000E+00  0.00000000000E+00  0.90655892361E+02  0.90664787651E+02  0.12700000000E+01 0. -1.
          4   -1    0    0  501    0  0.00000000000E+00 -0.00000000000E+00 -0.43069741212E+02  0.43088461426E+02  0.12700000000E+01 0. -1.
         25    2    1    2    0    0  0.00000000000E+00  0.00000000000E+00  0.47586151149E+02  0.13375324908E+03  0.12500195941E+03 0.  0.
    9000005    1    3    3    0    0 -0.35944398205E+02  0.45719848366E+02 -0.67876672135E+00  0.58170138570E+02  0.10000000000E+01 0.  0.
    9000005    1    3    3    0    0  0.35944398205E+02 -0.45719848366E+02  0.48264917870E+02  0.75583110507E+02  0.10000000000E+01 0.  0.
<mgrwt>
<rscale>  0 0.12500196E+03</rscale>
<asrwt>0</asrwt>
<pdfrwt beam="2">  1        4 0.66282384E-02 0.12500196E+03</pdfrwt>
<pdfrwt beam="1">  1       -4 0.13949184E-01 0.12500196E+03</pdfrwt>
<totfact> 0.10263963E+04</totfact>
</mgrwt>
</event>
<event>
 5    1  0.3261711E-002  0.1249956E+03  0.7818608E-02  0.1235076E+00
         -4   -1    0    0    0  501 -0.00000000000E+00  0.00000000000E+00  0.15734118511E+02  0.15785290156E+02  0.12700000000E+01 0.  1.
          4   -1    0    0  501    0  0.00000000000E+00 -0.00000000000E+00 -0.24779295044E+03  0.24779620495E+03  0.12700000000E+01 0.  1.
         25    2    1    2    0    0  0.00000000000E+00  0.00000000000E+00 -0.23205883193E+03  0.26358149510E+03  0.12499561227E+03 0.  0.
    9000005    1    3    3    0    0 -0.47566477814E+02 -0.40120634811E+02 -0.10396340782E+03  0.12116775691E+03  0.10000000000E+01 0.  0.
    9000005    1    3    3    0    0  0.47566477814E+02  0.40120634811E+02 -0.12809542411E+03  0.14241373819E+03  0.10000000000E+01 0.  0.
<mgrwt>
<rscale>  0 0.12499561E+03</rscale>
<asrwt>0</asrwt>
<pdfrwt beam="2">  1        4 0.38126176E-01 0.12499561E+03</pdfrwt>
<pdfrwt beam="1">  1       -4 0.24248204E-02 0.12499561E+03</pdfrwt>
<totfact> 0.80413914E+03</totfact>
</mgrwt>
</event>
<event>
 5    1  0.3261711E-002  0.1249964E+03  0.7818608E-02  0.1235075E+00
          4   -1    0    0  501    0  0.00000000000E+00  0.00000000000E+00  0.42575741513E+02  0.42594678838E+02  0.12700000000E+01 0. -1.
         -4   -1    0    0    0  501 -0.00000000000E+00 -0.00000000000E+00 -0.91699294513E+02  0.91708088597E+02  0.12700000000E+01 0. -1.
         25    2    1    2    0    0  0.00000000000E+00  0.00000000000E+00 -0.49123553000E+02  0.13430276744E+03  0.12499643948E+03 0.  0.
    9000005    1    3    3    0    0 -0.35532152445E+02 -0.47964688913E+02 -0.44428469645E+02  0.74417969301E+02  0.10000000000E+01 0.  0.
    9000005    1    3    3    0    0  0.35532152445E+02  0.47964688913E+02 -0.46950833554E+01  0.59884798135E+02  0.10000000000E+01 0.  0.
<mgrwt>
<rscale>  0 0.12499644E+03</rscale>
<asrwt>0</asrwt>
<pdfrwt beam="1">  1        4 0.65522473E-02 0.12499644E+03</pdfrwt>
<pdfrwt beam="2">  1       -4 0.14109717E-01 0.12499644E+03</pdfrwt>
<totfact> 0.10253611E+04</totfact>
</mgrwt>
</event>
<event>
 5    1  0.3261711E-002  0.1249969E+03  0.7818608E-02  0.1235074E+00
          4   -1    0    0  501    0  0.00000000000E+00  0.00000000000E+00  0.37531279663E+03  0.37531494537E+03  0.12700000000E+01 0.  1.
         -4   -1    0    0    0  501 -0.00000000000E+00 -0.00000000000E+00 -0.10366545363E+02  0.10444049156E+02  0.12700000000E+01 0.  1.
         25    2    1    2    0    0  0.00000000000E+00  0.00000000000E+00  0.36494625127E+03  0.38575899453E+03  0.12499694212E+03 0.  0.
    9000005    1    3    3    0    0  0.17024399004E+02 -0.55842342936E+02  0.11368169721E+03  0.12779955284E+03  0.10000000000E+01 0.  0.
    9000005    1    3    3    0    0 -0.17024399004E+02  0.55842342936E+02  0.25126455406E+03  0.25795944168E+03  0.10000000000E+01 0.  0.
<mgrwt>
<rscale>  0 0.12499694E+03</rscale>
<asrwt>0</asrwt>
<pdfrwt beam="1">  1        4 0.57746562E-01 0.12499694E+03</pdfrwt>
<pdfrwt beam="2">  1       -4 0.16009801E-02 0.12499694E+03</pdfrwt>
<totfact> 0.65966277E+03</totfact>
</mgrwt>
</event>
<event>
 5    1  0.3261711E-002  0.1250012E+03  0.7818608E-02  0.1235067E+00
          4   -1    0    0  501    0  0.00000000000E+00  0.00000000000E+00  0.56280668040E+02  0.56294995293E+02  0.12700000000E+01 0. -1.
         -4   -1    0    0    0  501 -0.00000000000E+00 -0.00000000000E+00 -0.69378963245E+02  0.69390586112E+02  0.12700000000E+01 0. -1.
         25    2    1    2    0    0  0.00000000000E+00  0.00000000000E+00 -0.13098295205E+02  0.12568558141E+03  0.12500120014E+03 0.  0.
    9000005    1    3    3    0    0  0.55118605806E+02  0.29390732507E+02 -0.84165032798E+01  0.63037396764E+02  0.10000000000E+01 0.  0.
    9000005    1    3    3    0    0 -0.55118605806E+02 -0.29390732507E+02 -0.46817919254E+01  0.62648184642E+02  0.10000000000E+01 0.  0.
<mgrwt>
<rscale>  0 0.12500120E+03</rscale>
<asrwt>0</asrwt>
<pdfrwt beam="1">  1        4 0.86605605E-02 0.12500120E+03</pdfrwt>
<pdfrwt beam="2">  1       -4 0.10675683E-01 0.12500120E+03</pdfrwt>
<totfact> 0.10437579E+04</totfact>
</mgrwt>
</event>
<event>
 5    1  0.3261711E-002  0.1250027E+03  0.7818608E-02  0.1235065E+00
          4   -1    0    0  501    0  0.00000000000E+00  0.00000000000E+00  0.43257619454E+03  0.43257805883E+03  0.12700000000E+01 0. -1.
         -4   -1    0    0    0  501 -0.00000000000E+00 -0.00000000000E+00 -0.89840459953E+01  0.90733666544E+01  0.12700000000E+01 0. -1.
         25    2    1    2    0    0  0.00000000000E+00  0.00000000000E+00  0.42359214854E+03  0.44165142548E+03  0.12500269327E+03 0.  0.
    9000005    1    3    3    0    0 -0.13924849744E+01  0.55719631368E+02  0.31165337842E+03  0.31659981778E+03  0.10000000000E+01 0.  0.
    9000005    1    3    3    0    0  0.13924849744E+01 -0.55719631368E+02  0.11193877012E+03  0.12505160771E+03  0.10000000000E+01 0.  0.
<mgrwt>
<rscale>  0 0.12500269E+03</rscale>
<asrwt>0</asrwt>
<pdfrwt beam="1">  1        4 0.66557197E-01 0.12500269E+03</pdfrwt>
<pdfrwt beam="2">  1       -4 0.13891752E-02 0.12500269E+03</pdfrwt>
<totfact> 0.60690272E+03</totfact>
</mgrwt>
</event>
<event>
 5    1  0.3261711E-002  0.1249928E+03  0.7818608E-02  0.1235081E+00
         -4   -1    0    0    0  501 -0.00000000000E+00  0.00000000000E+00  0.14936887954E+02  0.14990781226E+02  0.12700000000E+01 0. -1.
          4   -1    0    0  501    0  0.00000000000E+00 -0.00000000000E+00 -0.26096060868E+03  0.26096369897E+03  0.12700000000E+01 0. -1.
         25    2    1    2    0    0  0.00000000000E+00  0.00000000000E+00 -0.24602372072E+03  0.27595448020E+03  0.12499281573E+03 0.  0.
    9000005    1    3    3    0    0 -0.41850497845E+02 -0.33939401390E+02 -0.19287818058E+03  0.20026567274E+03  0.10000000000E+01 0.  0.
    9000005    1    3    3    0    0  0.41850497845E+02  0.33939401390E+02 -0.53145540147E+02  0.75688807456E+02  0.10000000000E+01 0.  0.
<mgrwt>
<rscale>  0 0.12499282E+03</rscale>
<asrwt>0</asrwt>
<pdfrwt beam="2">  1        4 0.40152166E-01 0.12499282E+03</pdfrwt>
<pdfrwt beam="1">  1       -4 0.23023663E-02 0.12499282E+03</pdfrwt>
<totfact> 0.78730165E+03</totfact>
</mgrwt>
</event>
<event>
 5    1  0.3261711E-002  0.1249986E+03  0.7818608E-02  0.1235071E+00
         -4   -1    0    0    0  501 -0.00000000000E+00  0.00000000000E+00  0.30581819101E+02  0.30608177984E+02  0.12700000000E+01 0. -1.
          4   -1    0    0  501    0  0.00000000000E+00 -0.00000000000E+00 -0.12764379458E+03  0.12765011240E+03  0.12700000000E+01 0. -1.
         25    2    1    2    0    0  0.00000000000E+00  0.00000000000E+00 -0.97061975483E+02  0.15825829038E+03  0.12499863756E+03 0.  0.
    9000005    1    3    3    0    0 -0.42860564858E+02 -0.25994617144E+02 -0.12870810252E+01  0.50153810603E+02  0.10000000000E+01 0.  0.
    9000005    1    3    3    0    0  0.42860564858E+02  0.25994617144E+02 -0.95774894458E+02  0.10810447978E+03  0.10000000000E+01 0.  0.
<mgrwt>
<rscale>  0 0.12499864E+03</rscale>
<asrwt>0</asrwt>
<pdfrwt beam="2">  1        4 0.19640020E-01 0.12499864E+03</pdfrwt>
<pdfrwt beam="1">  1       -4 0.47074089E-02 0.12499864E+03</pdfrwt>
<totfact> 0.97682619E+03</totfact>
</mgrwt>
</event>
<event>
 5    1  0.3261711E-002  0.1249844E+03  0.7818608E-02  0.1235094E+00
          4   -1    0    0  501    0  0.00000000000E+00  0.00000000000E+00  0.58318457039E+03  0.58318595323E+03  0.12700000000E+01 0.  1.
         -4   -1    0    0    0  501 -0.00000000000E+00 -0.00000000000E+00 -0.66348467021E+01  0.67553009378E+01  0.12700000000E+01 0.  1.
         25    2    1    2    0    0  0.00000000000E+00  0.00000000000E+00  0.57654972369E+03  0.58994125417E+03  0.12498439695E+03 0.  0.
    9000005    1    3    3    0    0 -0.32647426738E+02 -0.44840075030E+02  0.15247086580E+03  0.16224935044E+03  0.10000000000E+01 0.  0.
    9000005    1    3    3    0    0  0.32647426738E+02  0.44840075030E+02  0.42407885789E+03  0.42769190372E+03  0.10000000000E+01 0.  0.
<mgrwt>
<rscale>  0 0.12498440E+03</rscale>
<asrwt>0</asrwt>
<pdfrwt beam="1">  1        4 0.89730068E-01 0.12498440E+03</pdfrwt>
<pdfrwt beam="2">  1       -4 0.10301178E-02 0.12498440E+03</pdfrwt>
<totfact> 0.49525715E+03</totfact>
</mgrwt>
</event>
<event>
 5    1  0.3261711E-002  0.1250000E+03  0.7818608E-02  0.1235069E+00
          4   -1    0    0  501    0  0.00000000000E+00  0.00000000000E+00  0.24672110762E+02  0.24704775843E+02  0.12700000000E+01 0.  1.
         -4   -1    0    0    0  501 -0.00000000000E+00 -0.00000000000E+00 -0.15818651806E+03  0.15819161608E+03  0.12700000000E+01 0.  1.
         25    2    1    2    0    0  0.00000000000E+00  0.00000000000E+00 -0.13351440730E+03  0.18289639192E+03  0.12499997288E+03 0.  0.
    9000005    1    3    3    0    0 -0.32963759124E+02 -0.31758774796E+02 -0.12900683727E+03  0.13689044252E+03  0.10000000000E+01 0.  0.
    9000005    1    3    3    0    0  0.32963759124E+02  0.31758774796E+02 -0.45075700307E+01  0.46005949395E+02  0.10000000000E+01 0.  0.
<mgrwt>
<rscale>  0 0.12499997E+03</rscale>
<asrwt>0</asrwt>
<pdfrwt beam="1">  1        4 0.37986143E-02 0.12499997E+03</pdfrwt>
<pdfrwt beam="2">  1       -4 0.24339292E-01 0.12499997E+03</pdfrwt>
<totfact> 0.93098283E+03</totfact>
</mgrwt>
</event>
<event>
 5    1  0.3261711E-002  0.1250016E+03  0.7818608E-02  0.1235067E+00
         -4   -1    0    0    0  501 -0.00000000000E+00  0.00000000000E+00  0.75103666327E+02  0.75114403384E+02  0.12700000000E+01 0. -1.
          4   -1    0    0  501    0  0.00000000000E+00 -0.00000000000E+00 -0.51990526797E+02  0.52006035963E+02  0.12700000000E+01 0. -1.
         25    2    1    2    0    0  0.00000000000E+00  0.00000000000E+00  0.23113139530E+02  0.12712043935E+03  0.12500155551E+03 0.  0.
    9000005    1    3    3    0    0 -0.51431347355E+02  0.22275360181E+02 -0.16551997222E+02  0.58449497636E+02  0.10000000000E+01 0.  0.
    9000005    1    3    3    0    0  0.51431347355E+02 -0.22275360181E+02  0.39665136752E+02  0.68670941711E+02  0.10000000000E+01 0.  0.
<mgrwt>
<rscale>  0 0.12500156E+03</rscale>
<asrwt>0</asrwt>
<pdfrwt beam="2">  1        4 0.80005616E-02 0.12500156E+03</pdfrwt>
<pdfrwt beam="1">  1       -4 0.11556429E-01 0.12500156E+03</pdfrwt>
<totfact> 0.10406165E+04</totfact>
</mgrwt>
</event>
<event>
 5    1  0.3261711E-002  0.1250010E+03  0.7818608E-02  0.1235068E+00
         -4   -1    0    0    0  501 -0.00000000000E+00  0.00000000000E+00  0.24718637386E+02  0.24751241064E+02  0.12700000000E+01 0.  1.
          4   -1    0    0  501    0  0.00000000000E+00 -0.00000000000E+00 -0.15789167830E+03  0.15789678583E+03  0.12700000000E+01 0.  1.
         25    2    1    2    0    0  0.00000000000E+00  0.00000000000E+00 -0.13317304091E+03  0.18264802690E+03  0.12500097161E+03 0.  0.
    9000005    1    3    3    0    0 -0.52380286577E+01  0.61037807399E+02 -0.48556579926E+02  0.78177952969E+02  0.10000000000E+01 0.  0.
    9000005    1    3    3    0    0  0.52380286577E+01 -0.61037807399E+02 -0.84616460987E+02  0.10447007393E+03  0.10000000000E+01 0.  0.
<mgrwt>
<rscale>  0 0.12500097E+03</rscale>
<asrwt>0</asrwt>
<pdfrwt beam="2">  1        4 0.24293928E-01 0.12500097E+03</pdfrwt>
<pdfrwt beam="1">  1       -4 0.38057682E-02 0.12500097E+03</pdfrwt>
<totfact> 0.93140481E+03</totfact>
</mgrwt>
</event>
<event>
 5    1  0.3261711E-002  0.1249774E+03  0.7818608E-02  0.1235105E+00
         -4   -1    0    0    0  501 -0.00000000000E+00  0.00000000000E+00  0.72358608261E+02  0.72369752587E+02  0.12700000000E+01 0. -1.
          4   -1    0    0  501    0  0.00000000000E+00 -0.00000000000E+00 -0.53942303263E+02  0.53957251425E+02  0.12700000000E+01 0. -1.
         25    2    1    2    0    0  0.00000000000E+00  0.00000000000E+00  0.18416304998E+02  0.12632700401E+03  0.12497740457E+03 0.  0.
    9000005    1    3    3    0    0 -0.61340618211E+02 -0.96566088610E+01  0.16205068777E+02  0.64183532088E+02  0.10000000000E+01 0.  0.
    9000005    1    3    3    0    0  0.61340618211E+02  0.96566088610E+01  0.22112362208E+01  0.62143471924E+02  0.10000000000E+01 0.  0.
<mgrwt>
<rscale>  0 0.12497740E+03</rscale>
<asrwt>0</asrwt>
<pdfrwt beam="2">  1        4 0.83008230E-02 0.12497740E+03</pdfrwt>
<pdfrwt beam="1">  1       -4 0.11134101E-01 0.12497740E+03</pdfrwt>
<totfact> 0.10429121E+04</totfact>
</mgrwt>
</event>
<event>
 5    1  0.3261711E-002  0.1249950E+03  0.7818608E-02  0.1235077E+00
          4   -1    0    0  501    0  0.00000000000E+00  0.00000000000E+00  0.46948924223E+02  0.46966098259E+02  0.12700000000E+01 0.  1.
         -4   -1    0    0    0  501 -0.00000000000E+00 -0.00000000000E+00 -0.83158219213E+02  0.83167916426E+02  0.12700000000E+01 0.  1.
         25    2    1    2    0    0  0.00000000000E+00  0.00000000000E+00 -0.36209294990E+02  0.13013401468E+03  0.12499499484E+03 0.  0.
    9000005    1    3    3    0    0 -0.24695047287E+02  0.46881846068E+02  0.16380969765E+02  0.55471515408E+02  0.10000000000E+01 0.  0.
    9000005    1    3    3    0    0  0.24695047287E+02 -0.46881846068E+02 -0.52590264755E+02  0.74662499277E+02  0.10000000000E+01 0.  0.
<mgrwt>
<rscale>  0 0.12499499E+03</rscale>
<asrwt>0</asrwt>
<pdfrwt beam="1">  1        4 0.72249785E-02 0.12499499E+03</pdfrwt>
<pdfrwt beam="2">  1       -4 0.12795639E-01 0.12499499E+03</pdfrwt>
<totfact> 0.10342810E+04</totfact>
</mgrwt>
</event>
<event>
 5    1  0.3261711E-002  0.1250005E+03  0.7818608E-02  0.1235068E+00
         -4   -1    0    0    0  501 -0.00000000000E+00  0.00000000000E+00  0.17599153653E+03  0.17599611879E+03  0.12700000000E+01 0.  1.
          4   -1    0    0  501    0  0.00000000000E+00 -0.00000000000E+00 -0.22172807473E+02  0.22209148818E+02  0.12700000000E+01 0.  1.
         25    2    1    2    0    0  0.00000000000E+00  0.00000000000E+00  0.15381872906E+03  0.19820526761E+03  0.12500050680E+03 0.  0.
    9000005    1    3    3    0    0  0.65759296810E+01  0.40655854682E+02  0.23821193855E+01  0.41265189492E+02  0.10000000000E+01 0.  0.
    9000005    1    3    3    0    0 -0.65759296810E+01 -0.40655854682E+02  0.15143660967E+03  0.15694007812E+03  0.10000000000E+01 0.  0.
<mgrwt>
<rscale>  0 0.12500051E+03</rscale>
<asrwt>0</asrwt>
<pdfrwt beam="2">  1        4 0.34143491E-02 0.12500051E+03</pdfrwt>
<pdfrwt beam="1">  1       -4 0.27078769E-01 0.12500051E+03</pdfrwt>
<totfact> 0.90437874E+03</totfact>
</mgrwt>
</event>
<event>
 5    1  0.3261711E-002  0.1249979E+03  0.7818608E-02  0.1235073E+00
         -4   -1    0    0    0  501 -0.00000000000E+00  0.00000000000E+00  0.18149150780E+03  0.18149595120E+03  0.12700000000E+01 0. -1.
          4   -1    0    0  501    0  0.00000000000E+00 -0.00000000000E+00 -0.21498875531E+02  0.21536354127E+02  0.12700000000E+01 0. -1.
         25    2    1    2    0    0  0.00000000000E+00  0.00000000000E+00  0.15999263227E+03  0.20303230533E+03  0.12499789849E+03 0.  0.
    9000005    1    3    3    0    0 -0.47091485021E+02 -0.23552653323E+01  0.14661111294E+03  0.15400965448E+03  0.10000000000E+01 0.  0.
    9000005    1    3    3    0    0  0.47091485021E+02  0.23552653323E+01  0.13381519323E+02  0.49022650843E+02  0.10000000000E+01 0.  0.
<mgrwt>
<rscale>  0 0.12499790E+03</rscale>
<asrwt>0</asrwt>
<pdfrwt beam="2">  1        4 0.33107441E-02 0.12499790E+03</pdfrwt>
<pdfrwt beam="1">  1       -4 0.27924995E-01 0.12499790E+03</pdfrwt>
<totfact> 0.89630805E+03</totfact>
</mgrwt>
</event>
<event>
 5    1  0.3261711E-002  0.1250060E+03  0.7818608E-02  0.1235060E+00
         -4   -1    0    0    0  501 -0.00000000000E+00  0.00000000000E+00  0.54400617360E+02  0.54415439621E+02  0.12700000000E+01 0.  1.
          4   -1    0    0  501    0  0.00000000000E+00 -0.00000000000E+00 -0.71781894047E+02  0.71793127895E+02  0.12700000000E+01 0.  1.
         25    2    1    2    0    0  0.00000000000E+00  0.00000000000E+00 -0.17381276687E+02  0.12620856752E+03  0.12500597480E+03 0.  0.
    9000005    1    3    3    0    0  0.30178283478E+02  0.30150855073E+02  0.37419512218E+02  0.56754054921E+02  0.10000000000E+01 0.  0.
    9000005    1    3    3    0    0 -0.30178283478E+02 -0.30150855073E+02 -0.54800788905E+02  0.69454512596E+02  0.10000000000E+01 0.  0.
<mgrwt>
<rscale>  0 0.12500597E+03</rscale>
<asrwt>0</asrwt>
<pdfrwt beam="2">  1        4 0.11045373E-01 0.12500597E+03</pdfrwt>
<pdfrwt beam="1">  1       -4 0.83713301E-02 0.12500597E+03</pdfrwt>
<totfact> 0.10424986E+04</totfact>
</mgrwt>
</event>
<event>
 5    1  0.3261711E-002  0.1249982E+03  0.7818608E-02  0.1235072E+00
          4   -1    0    0  501    0  0.00000000000E+00  0.00000000000E+00  0.31237314176E+02  0.31263120396E+02  0.12700000000E+01 0. -1.
         -4   -1    0    0    0  501 -0.00000000000E+00 -0.00000000000E+00 -0.12496646071E+03  0.12497291388E+03  0.12700000000E+01 0. -1.
         25    2    1    2    0    0  0.00000000000E+00  0.00000000000E+00 -0.93729146539E+02  0.15623603428E+03  0.12499818197E+03 0.  0.
    9000005    1    3    3    0    0 -0.20025146457E+01 -0.28981760671E+02  0.22290208877E+02  0.36630669231E+02  0.10000000000E+01 0.  0.
    9000005    1    3    3    0    0  0.20025146457E+01  0.28981760671E+02 -0.11601935542E+03  0.11960536505E+03  0.10000000000E+01 0.  0.
<mgrwt>
<rscale>  0 0.12499818E+03</rscale>
<asrwt>0</asrwt>
<pdfrwt beam="1">  1        4 0.48082222E-02 0.12499818E+03</pdfrwt>
<pdfrwt beam="2">  1       -4 0.19228091E-01 0.12499818E+03</pdfrwt>
<totfact> 0.98077405E+03</totfact>
</mgrwt>
</event>
<event>
 5    1  0.3261711E-002  0.1250010E+03  0.7818608E-02  0.1235068E+00
         -4   -1    0    0    0  501 -0.00000000000E+00  0.00000000000E+00  0.19788821904E+02  0.19829532832E+02  0.12700000000E+01 0.  1.
          4   -1    0    0  501    0  0.00000000000E+00 -0.00000000000E+00 -0.19715428533E+03  0.19715837574E+03  0.12700000000E+01 0.  1.
         25    2    1    2    0    0  0.00000000000E+00  0.00000000000E+00 -0.17736546343E+03  0.21698790857E+03  0.12500097940E+03 0.  0.
    9000005    1    3    3    0    0 -0.38183111892E+01 -0.60209137193E+02 -0.60392974999E+02  0.85369966212E+02  0.10000000000E+01 0.  0.
    9000005    1    3    3    0    0  0.38183111892E+01  0.60209137193E+02 -0.11697248843E+03  0.13161794236E+03  0.10000000000E+01 0.  0.
<mgrwt>
<rscale>  0 0.12500098E+03</rscale>
<asrwt>0</asrwt>
<pdfrwt beam="2">  1        4 0.30334873E-01 0.12500098E+03</pdfrwt>
<pdfrwt beam="1">  1       -4 0.30478805E-02 0.12500098E+03</pdfrwt>
<totfact> 0.87345318E+03</totfact>
</mgrwt>
</event>
<event>
 5    1  0.3261711E-002  0.1250019E+03  0.7818608E-02  0.1235066E+00
          4   -1    0    0  501    0  0.00000000000E+00  0.00000000000E+00  0.50891336549E+02  0.50907180591E+02  0.12700000000E+01 0.  1.
         -4   -1    0    0    0  501 -0.00000000000E+00 -0.00000000000E+00 -0.76725960826E+02  0.76736470890E+02  0.12700000000E+01 0.  1.
         25    2    1    2    0    0  0.00000000000E+00  0.00000000000E+00 -0.25834624277E+02  0.12764365148E+03  0.12500189579E+03 0.  0.
    9000005    1    3    3    0    0  0.11398057935E+02 -0.49045773712E+02  0.24877947328E+02  0.56172198701E+02  0.10000000000E+01 0.  0.
    9000005    1    3    3    0    0 -0.11398057935E+02  0.49045773712E+02 -0.50712571605E+02  0.71471452780E+02  0.10000000000E+01 0.  0.
<mgrwt>
<rscale>  0 0.12500190E+03</rscale>
<asrwt>0</asrwt>
<pdfrwt beam="1">  1        4 0.78314637E-02 0.12500190E+03</pdfrwt>
<pdfrwt beam="2">  1       -4 0.11806021E-01 0.12500190E+03</pdfrwt>
<totfact> 0.10394746E+04</totfact>
</mgrwt>
</event>
<event>
 5    1  0.3261711E-002  0.1249906E+03  0.7818608E-02  0.1235084E+00
          4   -1    0    0  501    0  0.00000000000E+00  0.00000000000E+00  0.63813549218E+01  0.65065037184E+01  0.12700000000E+01 0. -1.
         -4   -1    0    0    0  501 -0.00000000000E+00 -0.00000000000E+00 -0.60597364044E+03  0.60597497128E+03  0.12700000000E+01 0. -1.
         25    2    1    2    0    0  0.00000000000E+00  0.00000000000E+00 -0.59959228552E+03  0.61248147499E+03  0.12499059306E+03 0.  0.
    9000005    1    3    3    0    0  0.45341004923E+02  0.11741135934E+02 -0.50249008608E+03  0.50466914667E+03  0.10000000000E+01 0.  0.
    9000005    1    3    3    0    0 -0.45341004923E+02 -0.11741135934E+02 -0.97102199446E+02  0.10781232832E+03  0.10000000000E+01 0.  0.
<mgrwt>
<rscale>  0 0.12499059E+03</rscale>
<asrwt>0</asrwt>
<pdfrwt beam="1">  1        4 0.99147659E-03 0.12499059E+03</pdfrwt>
<pdfrwt beam="2">  1       -4 0.93236398E-01 0.12499059E+03</pdfrwt>
<totfact> 0.48099039E+03</totfact>
</mgrwt>
</event>
<event>
 5    1  0.3261711E-002  0.1250034E+03  0.7818608E-02  0.1235064E+00
          4   -1    0    0  501    0  0.00000000000E+00  0.00000000000E+00  0.62643255312E+01  0.63917661379E+01  0.12700000000E+01 0. -1.
         -4   -1    0    0    0  501 -0.00000000000E+00 -0.00000000000E+00 -0.61719723668E+03  0.61719854331E+03  0.12700000000E+01 0. -1.
         25    2    1    2    0    0  0.00000000000E+00  0.00000000000E+00 -0.61093291115E+03  0.62359030945E+03  0.12500340841E+03 0.  0.
    9000005    1    3    3    0    0  0.46164585328E+02  0.19878105017E+02 -0.12020543730E+03  0.13029449395E+03  0.10000000000E+01 0.  0.
    9000005    1    3    3    0    0 -0.46164585328E+02 -0.19878105017E+02 -0.49072747385E+03  0.49329581550E+03  0.10000000000E+01 0.  0.
<mgrwt>
<rscale>  0 0.12500341E+03</rscale>
<asrwt>0</asrwt>
<pdfrwt beam="1">  1        4 0.97364651E-03 0.12500341E+03</pdfrwt>
<pdfrwt beam="2">  1       -4 0.94963277E-01 0.12500341E+03</pdfrwt>
<totfact> 0.47408071E+03</totfact>
</mgrwt>
</event>
<event>
 5    1  0.3261711E-002  0.1250006E+03  0.7818608E-02  0.1235068E+00
          4   -1    0    0  501    0  0.00000000000E+00  0.00000000000E+00  0.14064086204E+02  0.14121310873E+02  0.12700000000E+01 0.  1.
         -4   -1    0    0    0  501 -0.00000000000E+00 -0.00000000000E+00 -0.27712656087E+03  0.27712947090E+03  0.12700000000E+01 0.  1.
         25    2    1    2    0    0  0.00000000000E+00  0.00000000000E+00 -0.26306247467E+03  0.29125078177E+03  0.12500060922E+03 0.  0.
    9000005    1    3    3    0    0  0.25959000373E+02 -0.30863984699E+02 -0.24275848824E+03  0.24608766500E+03  0.10000000000E+01 0.  0.
    9000005    1    3    3    0    0 -0.25959000373E+02  0.30863984699E+02 -0.20303986429E+02  0.45163116774E+02  0.10000000000E+01 0.  0.
<mgrwt>
<rscale>  0 0.12500061E+03</rscale>
<asrwt>0</asrwt>
<pdfrwt beam="1">  1        4 0.21683315E-02 0.12500061E+03</pdfrwt>
<pdfrwt beam="2">  1       -4 0.42639477E-01 0.12500061E+03</pdfrwt>
<totfact> 0.76708560E+03</totfact>
</mgrwt>
</event>
<event>
 5    1  0.3261711E-002  0.1250007E+03  0.7818608E-02  0.1235068E+00
          4   -1    0    0  501    0  0.00000000000E+00  0.00000000000E+00  0.35617761769E+02  0.35640396370E+02  0.12700000000E+01 0. -1.
         -4   -1    0    0    0  501 -0.00000000000E+00 -0.00000000000E+00 -0.10961151751E+03  0.10961887461E+03  0.12700000000E+01 0. -1.
         25    2    1    2    0    0  0.00000000000E+00  0.00000000000E+00 -0.73993755740E+02  0.14525927098E+03  0.12500071967E+03 0.  0.
    9000005    1    3    3    0    0  0.51402228904E+02  0.25080129982E+02 -0.77346222401E+01  0.57723707759E+02  0.10000000000E+01 0.  0.
    9000005    1    3    3    0    0 -0.51402228904E+02 -0.25080129982E+02 -0.66259133500E+02  0.87535563221E+02  0.10000000000E+01 0.  0.
<mgrwt>
<rscale>  0 0.12500072E+03</rscale>
<asrwt>0</asrwt>
<pdfrwt beam="1">  1        4 0.54819627E-02 0.12500072E+03</pdfrwt>
<pdfrwt beam="2">  1       -4 0.16865617E-01 0.12500072E+03</pdfrwt>
<totfact> 0.10025561E+04</totfact>
</mgrwt>
</event>
<event>
 5    1  0.3261711E-002  0.1249982E+03  0.7818608E-02  0.1235072E+00
         -4   -1    0    0    0  501 -0.00000000000E+00  0.00000000000E+00  0.25813812638E+02  0.25845034782E+02  0.12700000000E+01 0.  1.
          4   -1    0    0  501    0  0.00000000000E+00 -0.00000000000E+00 -0.15119433274E+03  0.15119966651E+03  0.12700000000E+01 0.  1.
         25    2    1    2    0    0  0.00000000000E+00  0.00000000000E+00 -0.12538052010E+03  0.17704470129E+03  0.12499820572E+03 0.  0.
    9000005    1    3    3    0    0  0.32355801535E+01  0.54180452577E+02 -0.18824885701E+02  0.57457521197E+02  0.10000000000E+01 0.  0.
    9000005    1    3    3    0    0 -0.32355801535E+01 -0.54180452577E+02 -0.10655563440E+03  0.11958718009E+03  0.10000000000E+01 0.  0.
<mgrwt>
<rscale>  0 0.12499821E+03</rscale>
<asrwt>0</asrwt>
<pdfrwt beam="2">  1        4 0.23263478E-01 0.12499821E+03</pdfrwt>
<pdfrwt beam="1">  1       -4 0.39741679E-02 0.12499821E+03</pdfrwt>
<totfact> 0.94155477E+03</totfact>
</mgrwt>
</event>
<event>
 5    1  0.3261711E-002  0.1250040E+03  0.7818608E-02  0.1235063E+00
         -4   -1    0    0    0  501 -0.00000000000E+00  0.00000000000E+00  0.12298508284E+02  0.12363907393E+02  0.12700000000E+01 0. -1.
          4   -1    0    0  501    0  0.00000000000E+00 -0.00000000000E+00 -0.31673136981E+03  0.31673391596E+03  0.12700000000E+01 0. -1.
         25    2    1    2    0    0  0.00000000000E+00  0.00000000000E+00 -0.30443286152E+03  0.32909782336E+03  0.12500404058E+03 0.  0.
    9000005    1    3    3    0    0 -0.36839153819E+02 -0.26603832643E+02 -0.39267407046E+02  0.60065101528E+02  0.10000000000E+01 0.  0.
    9000005    1    3    3    0    0  0.36839153819E+02  0.26603832643E+02 -0.26516545448E+03  0.26903272183E+03  0.10000000000E+01 0.  0.
<mgrwt>
<rscale>  0 0.12500404E+03</rscale>
<asrwt>0</asrwt>
<pdfrwt beam="2">  1        4 0.48733123E-01 0.12500404E+03</pdfrwt>
<pdfrwt beam="1">  1       -4 0.18973050E-02 0.12500404E+03</pdfrwt>
<totfact> 0.72080517E+03</totfact>
</mgrwt>
</event>
<event>
 5    1  0.3261711E-002  0.1250058E+03  0.7818608E-02  0.1235060E+00
          4   -1    0    0  501    0  0.00000000000E+00  0.00000000000E+00  0.56268259105E+02  0.56282589516E+02  0.12700000000E+01 0. -1.
         -4   -1    0    0    0  501 -0.00000000000E+00 -0.00000000000E+00 -0.69399423456E+02  0.69411042897E+02  0.12700000000E+01 0. -1.
         25    2    1    2    0    0  0.00000000000E+00  0.00000000000E+00 -0.13131164352E+02  0.12569363241E+03  0.12500584687E+03 0.  0.
    9000005    1    3    3    0    0 -0.98938036399E+01  0.61149461910E+02  0.17546901394E+01  0.61977600630E+02  0.10000000000E+01 0.  0.
    9000005    1    3    3    0    0  0.98938036399E+01 -0.61149461910E+02 -0.14885854491E+02  0.63716031784E+02  0.10000000000E+01 0.  0.
<mgrwt>
<rscale>  0 0.12500585E+03</rscale>
<asrwt>0</asrwt>
<pdfrwt beam="1">  1        4 0.86586514E-02 0.12500585E+03</pdfrwt>
<pdfrwt beam="2">  1       -4 0.10678830E-01 0.12500585E+03</pdfrwt>
<totfact> 0.10436308E+04</totfact>
</mgrwt>
</event>
<event>
 5    1  0.3261711E-002  0.1250003E+03  0.7818608E-02  0.1235069E+00
         -4   -1    0    0    0  501 -0.00000000000E+00  0.00000000000E+00  0.97933715116E+02  0.97941949421E+02  0.12700000000E+01 0. -1.
          4   -1    0    0  501    0  0.00000000000E+00 -0.00000000000E+00 -0.39866819204E+02  0.39887042676E+02  0.12700000000E+01 0. -1.
         25    2    1    2    0    0  0.00000000000E+00  0.00000000000E+00  0.58066895912E+02  0.13782899210E+03  0.12500026665E+03 0.  0.
    9000005    1    3    3    0    0 -0.30190053966E+02 -0.28853059910E+02 -0.22227897975E+02  0.47318261518E+02  0.10000000000E+01 0.  0.
    9000005    1    3    3    0    0  0.30190053966E+02  0.28853059910E+02  0.80294793887E+02  0.90510730579E+02  0.10000000000E+01 0.  0.
<mgrwt>
<rscale>  0 0.12500027E+03</rscale>
<asrwt>0</asrwt>
<pdfrwt beam="2">  1        4 0.61355459E-02 0.12500027E+03</pdfrwt>
<pdfrwt beam="1">  1       -4 0.15068914E-01 0.12500027E+03</pdfrwt>
<totfact> 0.10178719E+04</totfact>
</mgrwt>
</event>
<event>
 5    1  0.3261711E-002  0.1250075E+03  0.7818608E-02  0.1235058E+00
          4   -1    0    0  501    0  0.00000000000E+00  0.00000000000E+00  0.74074492186E+02  0.74085378400E+02  0.12700000000E+01 0. -1.
         -4   -1    0    0    0  501 -0.00000000000E+00 -0.00000000000E+00 -0.52718013523E+02  0.52733308732E+02  0.12700000000E+01 0. -1.
         25    2    1    2    0    0  0.00000000000E+00  0.00000000000E+00  0.21356478663E+02  0.12681868713E+03  0.12500752067E+03 0.  0.
    9000005    1    3    3    0    0 -0.96434287774E+01 -0.88485534384E+01 -0.51317111774E+02  0.52969222925E+02  0.10000000000E+01 0.  0.
    9000005    1    3    3    0    0  0.96434287774E+01  0.88485534384E+01  0.72673590437E+02  0.73849464206E+02  0.10000000000E+01 0.  0.
<mgrwt>
<rscale>  0 0.12500752E+03</rscale>
<asrwt>0</asrwt>
<pdfrwt beam="1">  1        4 0.11398090E-01 0.12500752E+03</pdfrwt>
<pdfrwt beam="2">  1       -4 0.81124776E-02 0.12500752E+03</pdfrwt>
<totfact> 0.10411320E+04</totfact>
</mgrwt>
</event>
<event>
 5    1  0.3261711E-002  0.1250003E+03  0.7818608E-02  0.1235069E+00
         -4   -1    0    0    0  501 -0.00000000000E+00  0.00000000000E+00  0.66770301559E+03  0.66770422339E+03  0.12700000000E+01 0.  1.
          4   -1    0    0  501    0  0.00000000000E+00 -0.00000000000E+00 -0.57801617237E+01  0.59180376437E+01  0.12700000000E+01 0.  1.
         25    2    1    2    0    0  0.00000000000E+00  0.00000000000E+00  0.66192285387E+03  0.67362226103E+03  0.12500034434E+03 0.  0.
    9000005    1    3    3    0    0 -0.57692699180E+02 -0.19787446907E+02  0.25760797105E+03  0.26473167046E+03  0.10000000000E+01 0.  0.
    9000005    1    3    3    0    0  0.57692699180E+02  0.19787446907E+02  0.40431488282E+03  0.40889059057E+03  0.10000000000E+01 0.  0.
<mgrwt>
<rscale>  0 0.12500034E+03</rscale>
<asrwt>0</asrwt>
<pdfrwt beam="2">  1        4 0.89995501E-03 0.12500034E+03</pdfrwt>
<pdfrwt beam="1">  1       -4 0.10273417E+00 0.12500034E+03</pdfrwt>
<totfact> 0.44515882E+03</totfact>
</mgrwt>
</event>
<event>
 5    1  0.3261711E-002  0.1249999E+03  0.7818608E-02  0.1235069E+00
         -4   -1    0    0    0  501 -0.00000000000E+00  0.00000000000E+00  0.15806656076E+02  0.15857593648E+02  0.12700000000E+01 0. -1.
          4   -1    0    0  501    0  0.00000000000E+00 -0.00000000000E+00 -0.24667643625E+03  0.24667970549E+03  0.12700000000E+01 0. -1.
         25    2    1    2    0    0  0.00000000000E+00  0.00000000000E+00 -0.23086978017E+03  0.26253729913E+03  0.12499991216E+03 0.  0.
    9000005    1    3    3    0    0  0.55388155670E+02 -0.21097384562E+02 -0.15703446057E+03  0.16785043709E+03  0.10000000000E+01 0.  0.
    9000005    1    3    3    0    0 -0.55388155670E+02  0.21097384562E+02 -0.73835319601E+02  0.94686862048E+02  0.10000000000E+01 0.  0.
<mgrwt>
<rscale>  0 0.12499991E+03</rscale>
<asrwt>0</asrwt>
<pdfrwt beam="2">  1        4 0.37954388E-01 0.12499991E+03</pdfrwt>
<pdfrwt beam="1">  1       -4 0.24359632E-02 0.12499991E+03</pdfrwt>
<totfact> 0.80551459E+03</totfact>
</mgrwt>
</event>
<event>
 5    1  0.3261711E-002  0.1250016E+03  0.7818608E-02  0.1235067E+00
          4   -1    0    0  501    0  0.00000000000E+00  0.00000000000E+00  0.45347706352E+02  0.45365486567E+02  0.12700000000E+01 0. -1.
         -4   -1    0    0    0  501 -0.00000000000E+00 -0.00000000000E+00 -0.86102860113E+02  0.86112225727E+02  0.12700000000E+01 0. -1.
         25    2    1    2    0    0  0.00000000000E+00  0.00000000000E+00 -0.40755153760E+02  0.13147771229E+03  0.12500162508E+03 0.  0.
    9000005    1    3    3    0    0  0.33454105026E+01 -0.30491703311E+02  0.36889635231E+02  0.47987299671E+02  0.10000000000E+01 0.  0.
    9000005    1    3    3    0    0 -0.33454105026E+01  0.30491703311E+02 -0.77644788992E+02  0.83490412622E+02  0.10000000000E+01 0.  0.
<mgrwt>
<rscale>  0 0.12500163E+03</rscale>
<asrwt>0</asrwt>
<pdfrwt beam="1">  1        4 0.69786583E-02 0.12500163E+03</pdfrwt>
<pdfrwt beam="2">  1       -4 0.13248682E-01 0.12500163E+03</pdfrwt>
<totfact> 0.10312481E+04</totfact>
</mgrwt>
</event>
<event>
 5    1  0.3261711E-002  0.1249993E+03  0.7818608E-02  0.1235070E+00
         -4   -1    0    0    0  501 -0.00000000000E+00  0.00000000000E+00  0.27385746731E+02  0.27415178716E+02  0.12700000000E+01 0.  1.
          4   -1    0    0  501    0  0.00000000000E+00 -0.00000000000E+00 -0.14252764100E+03  0.14253329909E+03  0.12700000000E+01 0.  1.
         25    2    1    2    0    0  0.00000000000E+00  0.00000000000E+00 -0.11514189427E+03  0.16994847780E+03  0.12499931717E+03 0.  0.
    9000005    1    3    3    0    0 -0.23385700108E+02  0.54510926995E+02 -0.30828873569E+02  0.66856200737E+02  0.10000000000E+01 0.  0.
    9000005    1    3    3    0    0  0.23385700108E+02 -0.54510926995E+02 -0.84313020700E+02  0.10309227707E+03  0.10000000000E+01 0.  0.
<mgrwt>
<rscale>  0 0.12499932E+03</rscale>
<asrwt>0</asrwt>
<pdfrwt beam="2">  1        4 0.21930028E-01 0.12499932E+03</pdfrwt>
<pdfrwt beam="1">  1       -4 0.42158911E-02 0.12499932E+03</pdfrwt>
<totfact> 0.95459704E+03</totfact>
</mgrwt>
</event>
<event>
 5    1  0.3261711E-002  0.1250040E+03  0.7818608E-02  0.1235063E+00
          4   -1    0    0  501    0  0.00000000000E+00  0.00000000000E+00  0.27762752657E+03  0.27763043134E+03  0.12700000000E+01 0.  1.
         -4   -1    0    0    0  501 -0.00000000000E+00 -0.00000000000E+00 -0.14039370995E+02  0.14096695994E+02  0.12700000000E+01 0.  1.
         25    2    1    2    0    0  0.00000000000E+00  0.00000000000E+00  0.26358815557E+03  0.29172712734E+03  0.12500400420E+03 0.  0.
    9000005    1    3    3    0    0 -0.58889731348E+02  0.20272050575E+02  0.14381766964E+03  0.15672740218E+03  0.10000000000E+01 0.  0.
    9000005    1    3    3    0    0  0.58889731348E+02 -0.20272050575E+02  0.11977048593E+03  0.13499972516E+03  0.10000000000E+01 0.  0.
<mgrwt>
<rscale>  0 0.12500400E+03</rscale>
<asrwt>0</asrwt>
<pdfrwt beam="1">  1        4 0.42716562E-01 0.12500400E+03</pdfrwt>
<pdfrwt beam="2">  1       -4 0.21645362E-02 0.12500400E+03</pdfrwt>
<totfact> 0.76641612E+03</totfact>
</mgrwt>
</event>
<event>
 5    1  0.3261711E-002  0.1249999E+03  0.7818608E-02  0.1235069E+00
         -4   -1    0    0    0  501 -0.00000000000E+00  0.00000000000E+00  0.11442888991E+03  0.11443593730E+03  0.12700000000E+01 0. -1.
          4   -1    0    0  501    0  0.00000000000E+00 -0.00000000000E+00 -0.34116945427E+02  0.34140575058E+02  0.12700000000E+01 0. -1.
         25    2    1    2    0    0  0.00000000000E+00  0.00000000000E+00  0.80311944479E+02  0.14857651236E+03  0.12499988639E+03 0.  0.
    9000005    1    3    3    0    0 -0.60693672781E+02  0.42842976652E+01  0.57098016748E+02  0.83446154128E+02  0.10000000000E+01 0.  0.
    9000005    1    3    3    0    0  0.60693672781E+02 -0.42842976652E+01  0.23213927731E+02  0.65130358228E+02  0.10000000000E+01 0.  0.
<mgrwt>
<rscale>  0 0.12499989E+03</rscale>
<asrwt>0</asrwt>
<pdfrwt beam="2">  1        4 0.52511206E-02 0.12499989E+03</pdfrwt>
<pdfrwt beam="1">  1       -4 0.17606805E-01 0.12499989E+03</pdfrwt>
<totfact> 0.99588463E+03</totfact>
</mgrwt>
</event>
<event>
 5    1  0.3261711E-002  0.1250257E+03  0.7818608E-02  0.1235029E+00
         -4   -1    0    0    0  501 -0.00000000000E+00  0.00000000000E+00  0.22460594341E+02  0.22496470793E+02  0.12700000000E+01 0.  1.
          4   -1    0    0  501    0  0.00000000000E+00 -0.00000000000E+00 -0.17381027949E+03  0.17381491926E+03  0.12700000000E+01 0.  1.
         25    2    1    2    0    0  0.00000000000E+00  0.00000000000E+00 -0.15134968515E+03  0.19631139005E+03  0.12502573603E+03 0.  0.
    9000005    1    3    3    0    0  0.27550921196E+02 -0.53096386993E+02 -0.10413688385E+03  0.12009900145E+03  0.10000000000E+01 0.  0.
    9000005    1    3    3    0    0 -0.27550921196E+02  0.53096386993E+02 -0.47212801299E+02  0.76212388605E+02  0.10000000000E+01 0.  0.
<mgrwt>
<rscale>  0 0.12502574E+03</rscale>
<asrwt>0</asrwt>
<pdfrwt beam="2">  1        4 0.26743159E-01 0.12502574E+03</pdfrwt>
<pdfrwt beam="1">  1       -4 0.34585928E-02 0.12502574E+03</pdfrwt>
<totfact> 0.90708332E+03</totfact>
</mgrwt>
</event>
<event>
 5    1  0.3261711E-002  0.1250010E+03  0.7818608E-02  0.1235068E+00
          4   -1    0    0  501    0  0.00000000000E+00  0.00000000000E+00  0.10405509110E+03  0.10406284103E+03  0.12700000000E+01 0.  1.
         -4   -1    0    0    0  501 -0.00000000000E+00 -0.00000000000E+00 -0.37520901487E+02  0.37542388688E+02  0.12700000000E+01 0.  1.
         25    2    1    2    0    0  0.00000000000E+00  0.00000000000E+00  0.66534189613E+02  0.14160522972E+03  0.12500097078E+03 0.  0.
    9000005    1    3    3    0    0 -0.61077198610E+02 -0.12334227032E+02  0.38670759206E+02  0.73341563687E+02  0.10000000000E+01 0.  0.
    9000005    1    3    3    0    0  0.61077198610E+02  0.12334227032E+02  0.27863430407E+02  0.68263666035E+02  0.10000000000E+01 0.  0.
<mgrwt>
<rscale>  0 0.12500097E+03</rscale>
<asrwt>0</asrwt>
<pdfrwt beam="1">  1        4 0.16010724E-01 0.12500097E+03</pdfrwt>
<pdfrwt beam="2">  1       -4 0.57746954E-02 0.12500097E+03</pdfrwt>
<totfact> 0.10100203E+04</totfact>
</mgrwt>
</event>
<event>
 5    1  0.3261711E-002  0.1249994E+03  0.7818608E-02  0.1235070E+00
         -4   -1    0    0    0  501 -0.00000000000E+00  0.00000000000E+00  0.40508331776E+03  0.40508530858E+03  0.12700000000E+01 0.  1.
          4   -1    0    0  501    0  0.00000000000E+00 -0.00000000000E+00 -0.95991536930E+01  0.96828018477E+01  0.12700000000E+01 0.  1.
         25    2    1    2    0    0  0.00000000000E+00  0.00000000000E+00  0.39548416407E+03  0.41476811043E+03  0.12499944560E+03 0.  0.
    9000005    1    3    3    0    0 -0.17423935467E+02 -0.44273969598E+02  0.33217618040E+03  0.33556786606E+03  0.10000000000E+01 0.  0.
    9000005    1    3    3    0    0  0.17423935467E+02  0.44273969598E+02  0.63307983671E+02  0.79200244366E+02  0.10000000000E+01 0.  0.
<mgrwt>
<rscale>  0 0.12499945E+03</rscale>
<asrwt>0</asrwt>
<pdfrwt beam="2">  1        4 0.14833806E-02 0.12499945E+03</pdfrwt>
<pdfrwt beam="1">  1       -4 0.62327095E-01 0.12499945E+03</pdfrwt>
<totfact> 0.63142137E+03</totfact>
</mgrwt>
</event>
<event>
 5    1  0.3261711E-002  0.1249934E+03  0.7818608E-02  0.1235080E+00
         -4   -1    0    0    0  501 -0.00000000000E+00  0.00000000000E+00  0.13645535996E+03  0.13646126982E+03  0.12700000000E+01 0.  1.
          4   -1    0    0  501    0  0.00000000000E+00 -0.00000000000E+00 -0.28602940616E+02  0.28631121387E+02  0.12700000000E+01 0.  1.
         25    2    1    2    0    0  0.00000000000E+00  0.00000000000E+00  0.10785241934E+03  0.16509239121E+03  0.12499341293E+03 0.  0.
    9000005    1    3    3    0    0  0.28218766392E+02 -0.26019159990E+02 -0.11203762939E+02  0.39997747027E+02  0.10000000000E+01 0.  0.
    9000005    1    3    3    0    0 -0.28218766392E+02  0.26019159990E+02  0.11905618228E+03  0.12509464418E+03  0.10000000000E+01 0.  0.
<mgrwt>
<rscale>  0 0.12499341E+03</rscale>
<asrwt>0</asrwt>
<pdfrwt beam="2">  1        4 0.44030748E-02 0.12499341E+03</pdfrwt>
<pdfrwt beam="1">  1       -4 0.20995755E-01 0.12499341E+03</pdfrwt>
<totfact> 0.96384159E+03</totfact>
</mgrwt>
</event>
<event>
 4    1  0.3261711E-002  0.1251004E+03  0.7818608E-02  0.1234913E+00
         -4   -1    0    0    0  501 -0.00000000000E+00  0.00000000000E+00  0.11334486938E+02  0.11405415124E+02  0.12700000000E+01 0.  1.
          4   -1    0    0  501    0  0.00000000000E+00 -0.00000000000E+00 -0.34403886135E+03  0.34404120540E+03  0.12700000000E+01 0.  1.
    9000005    1    1    2    0    0 -0.32596150223E+02 -0.29716513137E+02 -0.29233215274E+03  0.29564280422E+03  0.10000000000E+01 0.  0.
    9000005    1    1    2    0    0  0.32596150223E+02  0.29716513137E+02 -0.40372221666E+02  0.59803816304E+02  0.10000000000E+01 0.  0.
<mgrwt>
<rscale>  0 0.12510036E+03</rscale>
<asrwt>0</asrwt>
<pdfrwt beam="2">  1        4 0.52934684E-01 0.12510036E+03</pdfrwt>
<pdfrwt beam="1">  1       -4 0.17494038E-02 0.12510036E+03</pdfrwt>
<totfact> 0.68976228E+03</totfact>
</mgrwt>
</event>
<event>
 5    1  0.3261711E-002  0.1250007E+03  0.7818608E-02  0.1235068E+00
         -4   -1    0    0    0  501 -0.00000000000E+00  0.00000000000E+00  0.12096875784E+04  0.12096882451E+04  0.12700000000E+01 0.  1.
          4   -1    0    0  501    0  0.00000000000E+00 -0.00000000000E+00 -0.31036139760E+01  0.33534041975E+01  0.12700000000E+01 0.  1.
         25    2    1    2    0    0  0.00000000000E+00  0.00000000000E+00  0.12065839645E+04  0.12130416493E+04  0.12500071851E+03 0.  0.
    9000005    1    3    3    0    0 -0.63931549493E+01 -0.38550465000E+02  0.13003713420E+03  0.13578537128E+03  0.10000000000E+01 0.  0.
    9000005    1    3    3    0    0  0.63931549493E+01  0.38550465000E+02  0.10765468302E+04  0.10772562780E+04  0.10000000000E+01 0.  0.
<mgrwt>
<rscale>  0 0.12500072E+03</rscale>
<asrwt>0</asrwt>
<pdfrwt beam="2">  1        4 0.49674492E-03 0.12500072E+03</pdfrwt>
<pdfrwt beam="1">  1       -4 0.18612507E+00 0.12500072E+03</pdfrwt>
<totfact> 0.24373531E+03</totfact>
</mgrwt>
</event>
<event>
 5    1  0.3261711E-002  0.1249930E+03  0.7818608E-02  0.1235080E+00
         -4   -1    0    0    0  501 -0.00000000000E+00  0.00000000000E+00  0.26724471706E+02  0.26754631150E+02  0.12700000000E+01 0. -1.
          4   -1    0    0  501    0  0.00000000000E+00 -0.00000000000E+00 -0.14603577658E+03  0.14604129875E+03  0.12700000000E+01 0. -1.
         25    2    1    2    0    0  0.00000000000E+00  0.00000000000E+00 -0.11931130487E+03  0.17279592990E+03  0.12499298348E+03 0.  0.
    9000005    1    3    3    0    0  0.40942388913E+01 -0.61474819798E+02 -0.74081863434E+02  0.96358905926E+02  0.10000000000E+01 0.  0.
    9000005    1    3    3    0    0 -0.40942388913E+01  0.61474819798E+02 -0.45229441436E+02  0.76437023973E+02  0.10000000000E+01 0.  0.
<mgrwt>
<rscale>  0 0.12499298E+03</rscale>
<asrwt>0</asrwt>
<pdfrwt beam="2">  1        4 0.22469787E-01 0.12499298E+03</pdfrwt>
<pdfrwt beam="1">  1       -4 0.41142020E-02 0.12499298E+03</pdfrwt>
<totfact> 0.94945015E+03</totfact>
</mgrwt>
</event>
<event>
 5    1  0.3261711E-002  0.1250037E+03  0.7818608E-02  0.1235064E+00
          4   -1    0    0  501    0  0.00000000000E+00  0.00000000000E+00  0.11916435775E+02  0.11983920126E+02  0.12700000000E+01 0.  1.
         -4   -1    0    0    0  501 -0.00000000000E+00 -0.00000000000E+00 -0.32682839484E+03  0.32683086233E+03  0.12700000000E+01 0.  1.
         25    2    1    2    0    0  0.00000000000E+00  0.00000000000E+00 -0.31491195906E+03  0.33881478246E+03  0.12500365935E+03 0.  0.
    9000005    1    3    3    0    0 -0.23346328515E+02  0.11209606791E+02 -0.32996056089E+01  0.26126494918E+02  0.10000000000E+01 0.  0.
    9000005    1    3    3    0    0  0.23346328515E+02 -0.11209606791E+02 -0.31161235345E+03  0.31268828754E+03  0.10000000000E+01 0.  0.
<mgrwt>
<rscale>  0 0.12500366E+03</rscale>
<asrwt>0</asrwt>
<pdfrwt beam="1">  1        4 0.18386790E-02 0.12500366E+03</pdfrwt>
<pdfrwt beam="2">  1       -4 0.50286666E-01 0.12500366E+03</pdfrwt>
<totfact> 0.70967104E+03</totfact>
</mgrwt>
</event>
<event>
 5    1  0.3261711E-002  0.1249994E+03  0.7818608E-02  0.1235070E+00
          4   -1    0    0  501    0  0.00000000000E+00  0.00000000000E+00  0.15492642238E+04  0.15492647444E+04  0.12700000000E+01 0.  1.
         -4   -1    0    0    0  501 -0.00000000000E+00 -0.00000000000E+00 -0.23608547798E+01  0.26807713985E+01  0.12700000000E+01 0.  1.
         25    2    1    2    0    0  0.00000000000E+00  0.00000000000E+00  0.15469033690E+04  0.15519455158E+04  0.12499940291E+03 0.  0.
    9000005    1    3    3    0    0  0.21414906977E+02  0.34230408854E+02  0.18127804409E+03  0.18572304219E+03  0.10000000000E+01 0.  0.
    9000005    1    3    3    0    0 -0.21414906977E+02 -0.34230408854E+02  0.13656253250E+04  0.13662224736E+04  0.10000000000E+01 0.  0.
<mgrwt>
<rscale>  0 0.12499940E+03</rscale>
<asrwt>0</asrwt>
<pdfrwt beam="1">  1        4 0.23837327E+00 0.12499940E+03</pdfrwt>
<pdfrwt beam="2">  1       -4 0.38785698E-03 0.12499940E+03</pdfrwt>
<totfact> 0.16931806E+03</totfact>
</mgrwt>
</event>
<event>
 5    1  0.3261711E-002  0.1249959E+03  0.7818608E-02  0.1235076E+00
         -4   -1    0    0    0  501 -0.00000000000E+00  0.00000000000E+00  0.10385114271E+02  0.10462480510E+02  0.12700000000E+01 0.  1.
          4   -1    0    0  501    0  0.00000000000E+00 -0.00000000000E+00 -0.37464042412E+03  0.37464257671E+03  0.12700000000E+01 0.  1.
         25    2    1    2    0    0  0.00000000000E+00  0.00000000000E+00 -0.36425530984E+03  0.38510505722E+03  0.12499589731E+03 0.  0.
    9000005    1    3    3    0    0 -0.33858574059E+02  0.12589964083E+02 -0.25027324439E+02  0.43957675115E+02  0.10000000000E+01 0.  0.
    9000005    1    3    3    0    0  0.33858574059E+02 -0.12589964083E+02 -0.33922798541E+03  0.34114738210E+03  0.10000000000E+01 0.  0.
<mgrwt>
<rscale>  0 0.12499590E+03</rscale>
<asrwt>0</asrwt>
<pdfrwt beam="2">  1        4 0.57643095E-01 0.12499590E+03</pdfrwt>
<pdfrwt beam="1">  1       -4 0.16038270E-02 0.12499590E+03</pdfrwt>
<totfact> 0.66033690E+03</totfact>
</mgrwt>
</event>
<event>
 5    1  0.3261711E-002  0.1249997E+03  0.7818608E-02  0.1235070E+00
         -4   -1    0    0    0  501 -0.00000000000E+00  0.00000000000E+00  0.14127754664E+02  0.14184722480E+02  0.12700000000E+01 0.  1.
          4   -1    0    0  501    0  0.00000000000E+00 -0.00000000000E+00 -0.27587873658E+03  0.27588165977E+03  0.12700000000E+01 0.  1.
         25    2    1    2    0    0  0.00000000000E+00  0.00000000000E+00 -0.26175098191E+03  0.29006638225E+03  0.12499971831E+03 0.  0.
    9000005    1    3    3    0    0  0.14581643787E+02 -0.37566660795E+02 -0.20038504418E+02  0.45015774992E+02  0.10000000000E+01 0.  0.
    9000005    1    3    3    0    0 -0.14581643787E+02  0.37566660795E+02 -0.24171247750E+03  0.24505060725E+03  0.10000000000E+01 0.  0.
<mgrwt>
<rscale>  0 0.12499972E+03</rscale>
<asrwt>0</asrwt>
<pdfrwt beam="2">  1        4 0.42447486E-01 0.12499972E+03</pdfrwt>
<pdfrwt beam="1">  1       -4 0.21781079E-02 0.12499972E+03</pdfrwt>
<totfact> 0.76862514E+03</totfact>
</mgrwt>
</event>
<event>
 5    1  0.3261711E-002  0.1250027E+03  0.7818608E-02  0.1235065E+00
         -4   -1    0    0    0  501 -0.00000000000E+00  0.00000000000E+00  0.40798973364E+01  0.42729921924E+01  0.12700000000E+01 0.  1.
          4   -1    0    0  501    0  0.00000000000E+00 -0.00000000000E+00 -0.93515245656E+03  0.93515331893E+03  0.12700000000E+01 0.  1.
         25    2    1    2    0    0  0.00000000000E+00  0.00000000000E+00 -0.93107255922E+03  0.93942631112E+03  0.12500273395E+03 0.  0.
    9000005    1    3    3    0    0  0.18319936013E+01 -0.61420804562E+02 -0.37999790808E+03  0.38493542520E+03  0.10000000000E+01 0.  0.
    9000005    1    3    3    0    0 -0.18319936013E+01  0.61420804562E+02 -0.55107465114E+03  0.55449088592E+03  0.10000000000E+01 0.  0.
<mgrwt>
<rscale>  0 0.12500273E+03</rscale>
<asrwt>0</asrwt>
<pdfrwt beam="2">  1        4 0.14388436E+00 0.12500273E+03</pdfrwt>
<pdfrwt beam="1">  1       -4 0.64259704E-03 0.12500273E+03</pdfrwt>
<totfact> 0.32692468E+03</totfact>
</mgrwt>
</event>
<event>
 5    1  0.3261711E-002  0.1249990E+03  0.7818608E-02  0.1235071E+00
         -4   -1    0    0    0  501 -0.00000000000E+00  0.00000000000E+00  0.74741361925E+01  0.75812671648E+01  0.12700000000E+01 0.  1.
          4   -1    0    0  501    0  0.00000000000E+00 -0.00000000000E+00 -0.51880037768E+03  0.51880193213E+03  0.12700000000E+01 0.  1.
         25    2    1    2    0    0  0.00000000000E+00  0.00000000000E+00 -0.51132624149E+03  0.52638319929E+03  0.12499898906E+03 0.  0.
    9000005    1    3    3    0    0 -0.44182253890E+02 -0.41976085484E+02 -0.19744575245E+03  0.20663951333E+03  0.10000000000E+01 0.  0.
    9000005    1    3    3    0    0  0.44182253890E+02  0.41976085484E+02 -0.31388048904E+03  0.31974368596E+03  0.10000000000E+01 0.  0.
<mgrwt>
<rscale>  0 0.12499899E+03</rscale>
<asrwt>0</asrwt>
<pdfrwt beam="2">  1        4 0.79823775E-01 0.12499899E+03</pdfrwt>
<pdfrwt beam="1">  1       -4 0.11582279E-02 0.12499899E+03</pdfrwt>
<totfact> 0.53875134E+03</totfact>
</mgrwt>
</event>
<event>
 5    1  0.3261711E-002  0.1250002E+03  0.7818608E-02  0.1235069E+00
         -4   -1    0    0    0  501 -0.00000000000E+00  0.00000000000E+00  0.29841073074E+02  0.29868085681E+02  0.12700000000E+01 0. -1.
          4   -1    0    0  501    0  0.00000000000E+00 -0.00000000000E+00 -0.13081283395E+03  0.13081899872E+03  0.12700000000E+01 0. -1.
         25    2    1    2    0    0  0.00000000000E+00  0.00000000000E+00 -0.10097176087E+03  0.16068708440E+03  0.12500017039E+03 0.  0.
    9000005    1    3    3    0    0  0.41379127626E+02  0.38778502196E+02 -0.84234865033E+02  0.10155056338E+03  0.10000000000E+01 0.  0.
    9000005    1    3    3    0    0 -0.41379127626E+02 -0.38778502196E+02 -0.16736895840E+02  0.59136521018E+02  0.10000000000E+01 0.  0.
<mgrwt>
<rscale>  0 0.12500017E+03</rscale>
<asrwt>0</asrwt>
<pdfrwt beam="2">  1        4 0.20127603E-01 0.12500017E+03</pdfrwt>
<pdfrwt beam="1">  1       -4 0.45934865E-02 0.12500017E+03</pdfrwt>
<totfact> 0.97210112E+03</totfact>
</mgrwt>
</event>
<event>
 5    1  0.3261711E-002  0.1249881E+03  0.7818608E-02  0.1235088E+00
         -4   -1    0    0    0  501 -0.00000000000E+00  0.00000000000E+00  0.18604596782E+02  0.18647893216E+02  0.12700000000E+01 0.  1.
          4   -1    0    0  501    0  0.00000000000E+00 -0.00000000000E+00 -0.20963230938E+03  0.20963615632E+03  0.12700000000E+01 0.  1.
         25    2    1    2    0    0  0.00000000000E+00  0.00000000000E+00 -0.19102771260E+03  0.22828404954E+03  0.12498808060E+03 0.  0.
    9000005    1    3    3    0    0 -0.27721107252E+02  0.19395861628E+02 -0.19146482880E+03  0.19443363882E+03  0.10000000000E+01 0.  0.
    9000005    1    3    3    0    0  0.27721107252E+02 -0.19395861628E+02  0.43711619817E+00  0.33850410723E+02  0.10000000000E+01 0.  0.
<mgrwt>
<rscale>  0 0.12498808E+03</rscale>
<asrwt>0</asrwt>
<pdfrwt beam="2">  1        4 0.32254749E-01 0.12498808E+03</pdfrwt>
<pdfrwt beam="1">  1       -4 0.28658722E-02 0.12498808E+03</pdfrwt>
<totfact> 0.85596546E+03</totfact>
</mgrwt>
</event>
<event>
 5    1  0.3261711E-002  0.1249976E+03  0.7818608E-02  0.1235073E+00
          4   -1    0    0  501    0  0.00000000000E+00  0.00000000000E+00  0.11979634540E+02  0.12046764865E+02  0.12700000000E+01 0.  1.
         -4   -1    0    0    0  501 -0.00000000000E+00 -0.00000000000E+00 -0.32508228889E+03  0.32508476963E+03  0.12700000000E+01 0.  1.
         25    2    1    2    0    0  0.00000000000E+00  0.00000000000E+00 -0.31310265435E+03  0.33713153450E+03  0.12499759756E+03 0.  0.
    9000005    1    3    3    0    0  0.57541471916E+02 -0.18487193016E+02 -0.19939222203E+03  0.20835319892E+03  0.10000000000E+01 0.  0.
    9000005    1    3    3    0    0 -0.57541471916E+02  0.18487193016E+02 -0.11371043232E+03  0.12877833558E+03  0.10000000000E+01 0.  0.
<mgrwt>
<rscale>  0 0.12499760E+03</rscale>
<asrwt>0</asrwt>
<pdfrwt beam="1">  1        4 0.18483756E-02 0.12499760E+03</pdfrwt>
<pdfrwt beam="2">  1       -4 0.50018008E-01 0.12499760E+03</pdfrwt>
<totfact> 0.71167627E+03</totfact>
</mgrwt>
</event>
<event>
 5    1  0.3261711E-002  0.1249972E+03  0.7818608E-02  0.1235074E+00
          4   -1    0    0  501    0  0.00000000000E+00  0.00000000000E+00  0.26583942118E+03  0.26584245476E+03  0.12700000000E+01 0.  1.
         -4   -1    0    0    0  501 -0.00000000000E+00 -0.00000000000E+00 -0.14662801796E+02  0.14717698750E+02  0.12700000000E+01 0.  1.
         25    2    1    2    0    0  0.00000000000E+00  0.00000000000E+00  0.25117661938E+03  0.28056015351E+03  0.12499722242E+03 0.  0.
    9000005    1    3    3    0    0 -0.50470588850E+02  0.35325329452E+02  0.10205633438E+03  0.11921264458E+03  0.10000000000E+01 0.  0.
    9000005    1    3    3    0    0  0.50470588850E+02 -0.35325329452E+02  0.14912028500E+03  0.16134750893E+03  0.10000000000E+01 0.  0.
<mgrwt>
<rscale>  0 0.12499722E+03</rscale>
<asrwt>0</asrwt>
<pdfrwt beam="1">  1        4 0.40902827E-01 0.12499722E+03</pdfrwt>
<pdfrwt beam="2">  1       -4 0.22602720E-02 0.12499722E+03</pdfrwt>
<totfact> 0.78108714E+03</totfact>
</mgrwt>
</event>
<event>
 5    1  0.3261711E-002  0.1250036E+03  0.7818608E-02  0.1235064E+00
          4   -1    0    0  501    0  0.00000000000E+00  0.00000000000E+00  0.13113537446E+03  0.13114152407E+03  0.12700000000E+01 0. -1.
         -4   -1    0    0    0  501 -0.00000000000E+00 -0.00000000000E+00 -0.29769233455E+02  0.29796311190E+02  0.12700000000E+01 0. -1.
         25    2    1    2    0    0  0.00000000000E+00  0.00000000000E+00  0.10136614101E+03  0.16093783526E+03  0.12500356905E+03 0.  0.
    9000005    1    3    3    0    0  0.44531100096E+01 -0.13900935485E+02 -0.27550025568E+02  0.31194071631E+02  0.10000000000E+01 0.  0.
    9000005    1    3    3    0    0 -0.44531100096E+01  0.13900935485E+02  0.12891616658E+03  0.12974376363E+03  0.10000000000E+01 0.  0.
<mgrwt>
<rscale>  0 0.12500357E+03</rscale>
<asrwt>0</asrwt>
<pdfrwt beam="1">  1        4 0.20177229E-01 0.12500357E+03</pdfrwt>
<pdfrwt beam="2">  1       -4 0.45824381E-02 0.12500357E+03</pdfrwt>
<totfact> 0.97154489E+03</totfact>
</mgrwt>
</event>
<event>
 5    1  0.3261711E-002  0.1249810E+03  0.7818608E-02  0.1235099E+00
         -4   -1    0    0    0  501 -0.00000000000E+00  0.00000000000E+00  0.61325718881E+03  0.61325850384E+03  0.12700000000E+01 0. -1.
          4   -1    0    0  501    0  0.00000000000E+00 -0.00000000000E+00 -0.63030857006E+01  0.64297581097E+01  0.12700000000E+01 0. -1.
         25    2    1    2    0    0  0.00000000000E+00  0.00000000000E+00  0.60695410311E+03  0.61968826195E+03  0.12498103341E+03 0.  0.
    9000005    1    3    3    0    0  0.12780934953E+02 -0.16220701927E+02  0.59587144951E+03  0.59623002927E+03  0.10000000000E+01 0.  0.
    9000005    1    3    3    0    0 -0.12780934953E+02  0.16220701927E+02  0.11082653603E+02  0.23458232673E+02  0.10000000000E+01 0.  0.
<mgrwt>
<rscale>  0 0.12498103E+03</rscale>
<asrwt>0</asrwt>
<pdfrwt beam="2">  1        4 0.97955034E-03 0.12498103E+03</pdfrwt>
<pdfrwt beam="1">  1       -4 0.94357138E-01 0.12498103E+03</pdfrwt>
<totfact> 0.47667755E+03</totfact>
</mgrwt>
</event>
<event>
 5    1  0.3261711E-002  0.1250005E+03  0.7818608E-02  0.1235069E+00
         -4   -1    0    0    0  501 -0.00000000000E+00  0.00000000000E+00  0.55086745224E+02  0.55101382917E+02  0.12700000000E+01 0.  1.
          4   -1    0    0  501    0  0.00000000000E+00 -0.00000000000E+00 -0.70881693300E+02  0.70893069796E+02  0.12700000000E+01 0.  1.
         25    2    1    2    0    0  0.00000000000E+00  0.00000000000E+00 -0.15794948076E+02  0.12599445271E+03  0.12500048692E+03 0.  0.
    9000005    1    3    3    0    0  0.30072970125E+02 -0.17714011525E+02  0.44352069232E+02  0.56447106052E+02  0.10000000000E+01 0.  0.
    9000005    1    3    3    0    0 -0.30072970125E+02  0.17714011525E+02 -0.60147017308E+02  0.69547346661E+02  0.10000000000E+01 0.  0.
<mgrwt>
<rscale>  0 0.12500049E+03</rscale>
<asrwt>0</asrwt>
<pdfrwt beam="2">  1        4 0.10906877E-01 0.12500049E+03</pdfrwt>
<pdfrwt beam="1">  1       -4 0.84768849E-02 0.12500049E+03</pdfrwt>
<totfact> 0.10430964E+04</totfact>
</mgrwt>
</event>
<event>
 5    1  0.3261711E-002  0.1250005E+03  0.7818608E-02  0.1235068E+00
         -4   -1    0    0    0  501 -0.00000000000E+00  0.00000000000E+00  0.35061094900E+02  0.35084088638E+02  0.12700000000E+01 0.  1.
          4   -1    0    0  501    0  0.00000000000E+00 -0.00000000000E+00 -0.11135044135E+03  0.11135768356E+03  0.12700000000E+01 0.  1.
         25    2    1    2    0    0  0.00000000000E+00  0.00000000000E+00 -0.76289346450E+02  0.14644177220E+03  0.12500051305E+03 0.  0.
    9000005    1    3    3    0    0  0.31003484519E+02  0.62615716106E+01  0.24996942238E+02  0.40327043688E+02  0.10000000000E+01 0.  0.
    9000005    1    3    3    0    0 -0.31003484519E+02 -0.62615716106E+01 -0.10128628869E+03  0.10611472851E+03  0.10000000000E+01 0.  0.
<mgrwt>
<rscale>  0 0.12500051E+03</rscale>
<asrwt>0</asrwt>
<pdfrwt beam="2">  1        4 0.17133163E-01 0.12500051E+03</pdfrwt>
<pdfrwt beam="1">  1       -4 0.53963405E-02 0.12500051E+03</pdfrwt>
<totfact> 0.10001661E+04</totfact>
</mgrwt>
</event>
<event>
 5    1  0.3261711E-002  0.1249988E+03  0.7818608E-02  0.1235071E+00
          4   -1    0    0  501    0  0.00000000000E+00  0.00000000000E+00  0.51517644579E+01  0.53059944430E+01  0.12700000000E+01 0. -1.
         -4   -1    0    0    0  501 -0.00000000000E+00 -0.00000000000E+00 -0.74688343041E+03  0.74688451016E+03  0.12700000000E+01 0. -1.
         25    2    1    2    0    0  0.00000000000E+00  0.00000000000E+00 -0.74173166595E+03  0.75219050460E+03  0.12499876377E+03 0.  0.
    9000005    1    3    3    0    0 -0.22620037639E+02 -0.17764364382E+02 -0.70471613983E+03  0.70530353500E+03  0.10000000000E+01 0.  0.
    9000005    1    3    3    0    0  0.22620037639E+02  0.17764364382E+02 -0.37015526115E+02  0.46886969600E+02  0.10000000000E+01 0.  0.
<mgrwt>
<rscale>  0 0.12499876E+03</rscale>
<asrwt>0</asrwt>
<pdfrwt beam="1">  1        4 0.80452664E-03 0.12499876E+03</pdfrwt>
<pdfrwt beam="2">  1       -4 0.11491701E+00 0.12499876E+03</pdfrwt>
<totfact> 0.40470701E+03</totfact>
</mgrwt>
</event>
<event>
 5    1  0.3261711E-002  0.1249893E+03  0.7818608E-02  0.1235086E+00
          4   -1    0    0  501    0  0.00000000000E+00  0.00000000000E+00  0.90255840022E+01  0.91144976044E+01  0.12700000000E+01 0. -1.
         -4   -1    0    0    0  501 -0.00000000000E+00 -0.00000000000E+00 -0.43051246448E+03  0.43051433770E+03  0.12700000000E+01 0. -1.
         25    2    1    2    0    0  0.00000000000E+00  0.00000000000E+00 -0.42148688047E+03  0.43962883531E+03  0.12498928924E+03 0.  0.
    9000005    1    3    3    0    0 -0.23412192087E+02 -0.56862960984E+02 -0.24976102838E+03  0.25722188548E+03  0.10000000000E+01 0.  0.
    9000005    1    3    3    0    0  0.23412192087E+02  0.56862960984E+02 -0.17172585209E+03  0.18240694983E+03  0.10000000000E+01 0.  0.
<mgrwt>
<rscale>  0 0.12498929E+03</rscale>
<asrwt>0</asrwt>
<pdfrwt beam="1">  1        4 0.13955353E-02 0.12498929E+03</pdfrwt>
<pdfrwt beam="2">  1       -4 0.66239655E-01 0.12498929E+03</pdfrwt>
<totfact> 0.60887169E+03</totfact>
</mgrwt>
</event>
<event>
 5    1  0.3261711E-002  0.1249952E+03  0.7818608E-02  0.1235077E+00
          4   -1    0    0  501    0  0.00000000000E+00  0.00000000000E+00  0.37401996779E+02  0.37423552251E+02  0.12700000000E+01 0.  1.
         -4   -1    0    0    0  501 -0.00000000000E+00 -0.00000000000E+00 -0.10437611809E+03  0.10438384419E+03  0.12700000000E+01 0.  1.
         25    2    1    2    0    0  0.00000000000E+00  0.00000000000E+00 -0.66974121313E+02  0.14180739644E+03  0.12499521895E+03 0.  0.
    9000005    1    3    3    0    0 -0.45392495658E+02 -0.40884808018E+02 -0.18569106795E+02  0.63858107676E+02  0.10000000000E+01 0.  0.
    9000005    1    3    3    0    0  0.45392495658E+02  0.40884808018E+02 -0.48405014518E+02  0.77949288767E+02  0.10000000000E+01 0.  0.
<mgrwt>
<rscale>  0 0.12499522E+03</rscale>
<asrwt>0</asrwt>
<pdfrwt beam="1">  1        4 0.57564058E-02 0.12499522E+03</pdfrwt>
<pdfrwt beam="2">  1       -4 0.16060117E-01 0.12499522E+03</pdfrwt>
<totfact> 0.10097350E+04</totfact>
</mgrwt>
</event>
<event>
 5    1  0.3261711E-002  0.1250013E+03  0.7818608E-02  0.1235067E+00
         -4   -1    0    0    0  501 -0.00000000000E+00  0.00000000000E+00  0.46740424928E+03  0.46740597466E+03  0.12700000000E+01 0. -1.
          4   -1    0    0  501    0  0.00000000000E+00 -0.00000000000E+00 -0.83075005153E+01  0.84040148032E+01  0.12700000000E+01 0. -1.
         25    2    1    2    0    0  0.00000000000E+00  0.00000000000E+00  0.45909674876E+03  0.47580998946E+03  0.12500128537E+03 0.  0.
    9000005    1    3    3    0    0  0.12714830074E+02 -0.30577867326E+02  0.43127743456E+03  0.43254814580E+03  0.10000000000E+01 0.  0.
    9000005    1    3    3    0    0 -0.12714830074E+02  0.30577867326E+02  0.27819314203E+02  0.43261843659E+02  0.10000000000E+01 0.  0.
<mgrwt>
<rscale>  0 0.12500129E+03</rscale>
<asrwt>0</asrwt>
<pdfrwt beam="2">  1        4 0.12856335E-02 0.12500129E+03</pdfrwt>
<pdfrwt beam="1">  1       -4 0.71915925E-01 0.12500129E+03</pdfrwt>
<totfact> 0.57789659E+03</totfact>
</mgrwt>
</event>
<event>
 5    1  0.3261711E-002  0.1249975E+03  0.7818608E-02  0.1235073E+00
         -4   -1    0    0    0  501 -0.00000000000E+00  0.00000000000E+00  0.43668838846E+02  0.43687302345E+02  0.12700000000E+01 0. -1.
          4   -1    0    0  501    0  0.00000000000E+00 -0.00000000000E+00 -0.89406258147E+02  0.89415277754E+02  0.12700000000E+01 0. -1.
         25    2    1    2    0    0  0.00000000000E+00  0.00000000000E+00 -0.45737419300E+02  0.13310258010E+03  0.12499754119E+03 0.  0.
    9000005    1    3    3    0    0 -0.13218143963E+02  0.61045026259E+02 -0.20770737842E+02  0.65830373774E+02  0.10000000000E+01 0.  0.
    9000005    1    3    3    0    0  0.13218143963E+02 -0.61045026259E+02 -0.24966681458E+02  0.67272206325E+02  0.10000000000E+01 0.  0.
<mgrwt>
<rscale>  0 0.12499754E+03</rscale>
<asrwt>0</asrwt>
<pdfrwt beam="2">  1        4 0.13756923E-01 0.12499754E+03</pdfrwt>
<pdfrwt beam="1">  1       -4 0.67203970E-02 0.12499754E+03</pdfrwt>
<totfact> 0.10278790E+04</totfact>
</mgrwt>
</event>
<event>
 5    1  0.3261711E-002  0.1249841E+03  0.7818608E-02  0.1235094E+00
         -4   -1    0    0    0  501 -0.00000000000E+00  0.00000000000E+00  0.10736036823E+03  0.10736787958E+03  0.12700000000E+01 0.  1.
          4   -1    0    0  501    0  0.00000000000E+00 -0.00000000000E+00 -0.36355365220E+02  0.36377540878E+02  0.12700000000E+01 0.  1.
         25    2    1    2    0    0  0.00000000000E+00  0.00000000000E+00  0.71005003009E+02  0.14374542046E+03  0.12498414080E+03 0.  0.
    9000005    1    3    3    0    0  0.21758438151E+02 -0.53118448164E+01 -0.31585587503E+02  0.38733637371E+02  0.10000000000E+01 0.  0.
    9000005    1    3    3    0    0 -0.21758438151E+02  0.53118448164E+01  0.10259059051E+03  0.10501178309E+03  0.10000000000E+01 0.  0.
<mgrwt>
<rscale>  0 0.12498414E+03</rscale>
<asrwt>0</asrwt>
<pdfrwt beam="2">  1        4 0.55954166E-02 0.12498414E+03</pdfrwt>
<pdfrwt beam="1">  1       -4 0.16519264E-01 0.12498414E+03</pdfrwt>
<totfact> 0.10060134E+04</totfact>
</mgrwt>
</event>
<event>
 5    1  0.3261711E-002  0.1250029E+03  0.7818608E-02  0.1235065E+00
         -4   -1    0    0    0  501 -0.00000000000E+00  0.00000000000E+00  0.73578459038E+02  0.73589418630E+02  0.12700000000E+01 0.  1.
          4   -1    0    0  501    0  0.00000000000E+00 -0.00000000000E+00 -0.53069558654E+02  0.53084752573E+02  0.12700000000E+01 0.  1.
         25    2    1    2    0    0  0.00000000000E+00  0.00000000000E+00  0.20508900384E+02  0.12667417120E+03  0.12500292259E+03 0.  0.
    9000005    1    3    3    0    0  0.75887631720E+01  0.53212142284E+02 -0.22051407167E+02  0.58106677508E+02  0.10000000000E+01 0.  0.
    9000005    1    3    3    0    0 -0.75887631720E+01 -0.53212142284E+02  0.42560307550E+02  0.68567493696E+02  0.10000000000E+01 0.  0.
<mgrwt>
<rscale>  0 0.12500292E+03</rscale>
<asrwt>0</asrwt>
<pdfrwt beam="2">  1        4 0.81665594E-02 0.12500292E+03</pdfrwt>
<pdfrwt beam="1">  1       -4 0.11321775E-01 0.12500292E+03</pdfrwt>
<totfact> 0.10415545E+04</totfact>
</mgrwt>
</event>
<event>
 5    1  0.3261711E-002  0.1249924E+03  0.7818608E-02  0.1235081E+00
         -4   -1    0    0    0  501 -0.00000000000E+00  0.00000000000E+00  0.51768445802E+01  0.53303489386E+01  0.12700000000E+01 0.  1.
          4   -1    0    0  501    0  0.00000000000E+00 -0.00000000000E+00 -0.74329337522E+03  0.74329446019E+03  0.12700000000E+01 0.  1.
         25    2    1    2    0    0  0.00000000000E+00  0.00000000000E+00 -0.73811653064E+03  0.74862480913E+03  0.12499236791E+03 0.  0.
    9000005    1    3    3    0    0  0.18137332678E+02  0.53221464407E+02 -0.53234791849E+03  0.53530999751E+03  0.10000000000E+01 0.  0.
    9000005    1    3    3    0    0 -0.18137332678E+02 -0.53221464407E+02 -0.20576861215E+03  0.21331481162E+03  0.10000000000E+01 0.  0.
<mgrwt>
<rscale>  0 0.12499237E+03</rscale>
<asrwt>0</asrwt>
<pdfrwt beam="2">  1        4 0.11436463E+00 0.12499237E+03</pdfrwt>
<pdfrwt beam="1">  1       -4 0.80832970E-03 0.12499237E+03</pdfrwt>
<totfact> 0.40646803E+03</totfact>
</mgrwt>
</event>
<event>
 5    1  0.3261711E-002  0.1250070E+03  0.7818608E-02  0.1235058E+00
         -4   -1    0    0    0  501 -0.00000000000E+00  0.00000000000E+00  0.19290409183E+03  0.19290827236E+03  0.12700000000E+01 0.  1.
          4   -1    0    0  501    0  0.00000000000E+00 -0.00000000000E+00 -0.20227658537E+02  0.20267488002E+02  0.12700000000E+01 0.  1.
         25    2    1    2    0    0  0.00000000000E+00  0.00000000000E+00  0.17267643329E+03  0.21317576036E+03  0.12500701657E+03 0.  0.
    9000005    1    3    3    0    0  0.49196230770E+02 -0.25742072074E+02  0.37423293604E+02  0.66965859218E+02  0.10000000000E+01 0.  0.
    9000005    1    3    3    0    0 -0.49196230770E+02  0.25742072074E+02  0.13525313969E+03  0.14620990114E+03  0.10000000000E+01 0.  0.
<mgrwt>
<rscale>  0 0.12500702E+03</rscale>
<asrwt>0</asrwt>
<pdfrwt beam="2">  1        4 0.31153327E-02 0.12500702E+03</pdfrwt>
<pdfrwt beam="1">  1       -4 0.29680940E-01 0.12500702E+03</pdfrwt>
<totfact> 0.87946055E+03</totfact>
</mgrwt>
</event>
<event>
 5    1  0.3261711E-002  0.1250039E+03  0.7818608E-02  0.1235063E+00
         -4   -1    0    0    0  501 -0.00000000000E+00  0.00000000000E+00  0.62394513857E+02  0.62407437533E+02  0.12700000000E+01 0.  1.
          4   -1    0    0  501    0  0.00000000000E+00 -0.00000000000E+00 -0.62583755773E+02  0.62596640378E+02  0.12700000000E+01 0.  1.
         25    2    1    2    0    0  0.00000000000E+00  0.00000000000E+00 -0.18924191573E+00  0.12500407791E+03  0.12500393467E+03 0.  0.
    9000005    1    3    3    0    0  0.29497150710E+02 -0.17260179632E+02 -0.52415806853E+02  0.62581247263E+02  0.10000000000E+01 0.  0.
    9000005    1    3    3    0    0 -0.29497150710E+02  0.17260179632E+02  0.52226564938E+02  0.62422830648E+02  0.10000000000E+01 0.  0.
<mgrwt>
<rscale>  0 0.12500393E+03</rscale>
<asrwt>0</asrwt>
<pdfrwt beam="2">  1        4 0.96302553E-02 0.12500393E+03</pdfrwt>
<pdfrwt beam="1">  1       -4 0.96011413E-02 0.12500393E+03</pdfrwt>
<totfact> 0.10451844E+04</totfact>
</mgrwt>
</event>
<event>
 5    1  0.3261711E-002  0.1250013E+03  0.7818608E-02  0.1235067E+00
         -4   -1    0    0    0  501 -0.00000000000E+00  0.00000000000E+00  0.27593874873E+02  0.27623085101E+02  0.12700000000E+01 0.  1.
          4   -1    0    0  501    0  0.00000000000E+00 -0.00000000000E+00 -0.14145819565E+03  0.14146389651E+03  0.12700000000E+01 0.  1.
         25    2    1    2    0    0  0.00000000000E+00  0.00000000000E+00 -0.11386432078E+03  0.16908698161E+03  0.12500129521E+03 0.  0.
    9000005    1    3    3    0    0  0.26658909829E+02  0.42232558160E+02 -0.61201924809E+01  0.50326366828E+02  0.10000000000E+01 0.  0.
    9000005    1    3    3    0    0 -0.26658909829E+02 -0.42232558160E+02 -0.10774412830E+03  0.11876061479E+03  0.10000000000E+01 0.  0.
<mgrwt>
<rscale>  0 0.12500130E+03</rscale>
<asrwt>0</asrwt>
<pdfrwt beam="2">  1        4 0.21765484E-01 0.12500130E+03</pdfrwt>
<pdfrwt beam="1">  1       -4 0.42478971E-02 0.12500130E+03</pdfrwt>
<totfact> 0.95616152E+03</totfact>
</mgrwt>
</event>
<event>
 5    1  0.3261711E-002  0.1250004E+03  0.7818608E-02  0.1235069E+00
          4   -1    0    0  501    0  0.00000000000E+00  0.00000000000E+00  0.11710777140E+02  0.11779439767E+02  0.12700000000E+01 0.  1.
         -4   -1    0    0    0  501 -0.00000000000E+00 -0.00000000000E+00 -0.33251725474E+03  0.33251968002E+03  0.12700000000E+01 0.  1.
         25    2    1    2    0    0  0.00000000000E+00  0.00000000000E+00 -0.32080647760E+03  0.34429911978E+03  0.12500035126E+03 0.  0.
    9000005    1    3    3    0    0 -0.25489568669E+02 -0.26356947172E+02 -0.21017597863E+02  0.42274651922E+02  0.10000000000E+01 0.  0.
    9000005    1    3    3    0    0  0.25489568669E+02  0.26356947172E+02 -0.29978887973E+03  0.30202446786E+03  0.10000000000E+01 0.  0.
<mgrwt>
<rscale>  0 0.12500035E+03</rscale>
<asrwt>0</asrwt>
<pdfrwt beam="1">  1        4 0.18071266E-02 0.12500035E+03</pdfrwt>
<pdfrwt beam="2">  1       -4 0.51161962E-01 0.12500035E+03</pdfrwt>
<totfact> 0.70355765E+03</totfact>
</mgrwt>
</event>
<event>
 5    1  0.3261711E-002  0.1250017E+03  0.7818608E-02  0.1235067E+00
         -4   -1    0    0    0  501 -0.00000000000E+00  0.00000000000E+00  0.20738857368E+03  0.20739246224E+03  0.12700000000E+01 0.  1.
          4   -1    0    0  501    0  0.00000000000E+00 -0.00000000000E+00 -0.18810463665E+02  0.18853287334E+02  0.12700000000E+01 0.  1.
         25    2    1    2    0    0  0.00000000000E+00  0.00000000000E+00  0.18857811002E+03  0.22624574957E+03  0.12500174248E+03 0.  0.
    9000005    1    3    3    0    0 -0.14860292083E+02  0.56383726986E+02  0.13497875987E+03  0.14703815344E+03  0.10000000000E+01 0.  0.
    9000005    1    3    3    0    0  0.14860292083E+02 -0.56383726986E+02  0.53599350145E+02  0.79207596136E+02  0.10000000000E+01 0.  0.
<mgrwt>
<rscale>  0 0.12500174E+03</rscale>
<asrwt>0</asrwt>
<pdfrwt beam="2">  1        4 0.28975108E-02 0.12500174E+03</pdfrwt>
<pdfrwt beam="1">  1       -4 0.31909527E-01 0.12500174E+03</pdfrwt>
<totfact> 0.85886079E+03</totfact>
</mgrwt>
</event>
<event>
 5    1  0.3261711E-002  0.1250005E+03  0.7818608E-02  0.1235068E+00
         -4   -1    0    0    0  501 -0.00000000000E+00  0.00000000000E+00  0.16797675319E+03  0.16798155409E+03  0.12700000000E+01 0.  1.
          4   -1    0    0  501    0  0.00000000000E+00 -0.00000000000E+00 -0.23232430090E+02  0.23267116450E+02  0.12700000000E+01 0.  1.
         25    2    1    2    0    0  0.00000000000E+00  0.00000000000E+00  0.14474432310E+03  0.19124867054E+03  0.12500053964E+03 0.  0.
    9000005    1    3    3    0    0 -0.38258327738E+02  0.35800469511E+02  0.12447948565E+03  0.13506115506E+03  0.10000000000E+01 0.  0.
    9000005    1    3    3    0    0  0.38258327738E+02 -0.35800469511E+02  0.20264837456E+02  0.56187515478E+02  0.10000000000E+01 0.  0.
<mgrwt>
<rscale>  0 0.12500054E+03</rscale>
<asrwt>0</asrwt>
<pdfrwt beam="2">  1        4 0.35772575E-02 0.12500054E+03</pdfrwt>
<pdfrwt beam="1">  1       -4 0.25845615E-01 0.12500054E+03</pdfrwt>
<totfact> 0.91629395E+03</totfact>
</mgrwt>
</event>
<event>
 5    1  0.3261711E-002  0.1249958E+03  0.7818608E-02  0.1235076E+00
         -4   -1    0    0    0  501 -0.00000000000E+00  0.00000000000E+00  0.36058629450E+02  0.36080987484E+02  0.12700000000E+01 0. -1.
          4   -1    0    0  501    0  0.00000000000E+00 -0.00000000000E+00 -0.10826357345E+03  0.10827102214E+03  0.12700000000E+01 0. -1.
         25    2    1    2    0    0  0.00000000000E+00  0.00000000000E+00 -0.72204943998E+02  0.14435200963E+03  0.12499579491E+03 0.  0.
    9000005    1    3    3    0    0 -0.40275228520E+02  0.94733043920E+01 -0.90185570598E+02  0.99228396503E+02  0.10000000000E+01 0.  0.
    9000005    1    3    3    0    0  0.40275228520E+02 -0.94733043920E+01  0.17980626600E+02  0.45123613124E+02  0.10000000000E+01 0.  0.
<mgrwt>
<rscale>  0 0.12499579E+03</rscale>
<asrwt>0</asrwt>
<pdfrwt beam="2">  1        4 0.16658227E-01 0.12499579E+03</pdfrwt>
<pdfrwt beam="1">  1       -4 0.55497743E-02 0.12499579E+03</pdfrwt>
<totfact> 0.10045122E+04</totfact>
</mgrwt>
</event>
<event>
 5    1  0.3261711E-002  0.1249995E+03  0.7818608E-02  0.1235070E+00
          4   -1    0    0  501    0  0.00000000000E+00  0.00000000000E+00  0.72484115186E+02  0.72495240218E+02  0.12700000000E+01 0. -1.
         -4   -1    0    0    0  501 -0.00000000000E+00 -0.00000000000E+00 -0.53867983734E+02  0.53882952513E+02  0.12700000000E+01 0. -1.
         25    2    1    2    0    0  0.00000000000E+00  0.00000000000E+00  0.18616131452E+02  0.12637819273E+03  0.12499954899E+03 0.  0.
    9000005    1    3    3    0    0  0.42859215787E+02 -0.14014527834E+02  0.53050736905E+02  0.69632607695E+02  0.10000000000E+01 0.  0.
    9000005    1    3    3    0    0 -0.42859215787E+02  0.14014527834E+02 -0.34434605453E+02  0.56745585036E+02  0.10000000000E+01 0.  0.
<mgrwt>
<rscale>  0 0.12499955E+03</rscale>
<asrwt>0</asrwt>
<pdfrwt beam="1">  1        4 0.11153410E-01 0.12499955E+03</pdfrwt>
<pdfrwt beam="2">  1       -4 0.82893894E-02 0.12499955E+03</pdfrwt>
<totfact> 0.10422792E+04</totfact>
</mgrwt>
</event>
<event>
 5    1  0.3261711E-002  0.1249944E+03  0.7818608E-02  0.1235078E+00
          4   -1    0    0  501    0  0.00000000000E+00  0.00000000000E+00  0.43353335274E+03  0.43353521292E+03  0.12700000000E+01 0.  1.
         -4   -1    0    0    0  501 -0.00000000000E+00 -0.00000000000E+00 -0.89628049814E+01  0.90523352310E+01  0.12700000000E+01 0.  1.
         25    2    1    2    0    0  0.00000000000E+00  0.00000000000E+00  0.42457054776E+03  0.44258754815E+03  0.12499435088E+03 0.  0.
    9000005    1    3    3    0    0 -0.50152745426E+02 -0.34742735737E+02  0.16444546154E+03  0.17540144065E+03  0.10000000000E+01 0.  0.
    9000005    1    3    3    0    0  0.50152745426E+02  0.34742735737E+02  0.26012508622E+03  0.26718610750E+03  0.10000000000E+01 0.  0.
<mgrwt>
<rscale>  0 0.12499435E+03</rscale>
<asrwt>0</asrwt>
<pdfrwt beam="1">  1        4 0.66704480E-01 0.12499435E+03</pdfrwt>
<pdfrwt beam="2">  1       -4 0.13859229E-02 0.12499435E+03</pdfrwt>
<totfact> 0.60618885E+03</totfact>
</mgrwt>
</event>
<event>
 5    1  0.3261711E-002  0.1250021E+03  0.7818608E-02  0.1235066E+00
          4   -1    0    0  501    0  0.00000000000E+00  0.00000000000E+00  0.31071714782E+02  0.31097658425E+02  0.12700000000E+01 0.  1.
         -4   -1    0    0    0  501 -0.00000000000E+00 -0.00000000000E+00 -0.12563980309E+03  0.12564622167E+03  0.12700000000E+01 0.  1.
         25    2    1    2    0    0  0.00000000000E+00  0.00000000000E+00 -0.94568088306E+02  0.15674388009E+03  0.12500208247E+03 0.  0.
    9000005    1    3    3    0    0  0.36525845110E+02 -0.39638708483E+02 -0.86937106155E+02  0.10229577214E+03  0.10000000000E+01 0.  0.
    9000005    1    3    3    0    0 -0.36525845110E+02  0.39638708483E+02 -0.76309821508E+01  0.54448107954E+02  0.10000000000E+01 0.  0.
<mgrwt>
<rscale>  0 0.12500208E+03</rscale>
<asrwt>0</asrwt>
<pdfrwt beam="1">  1        4 0.47827533E-02 0.12500208E+03</pdfrwt>
<pdfrwt beam="2">  1       -4 0.19331690E-01 0.12500208E+03</pdfrwt>
<totfact> 0.97969650E+03</totfact>
</mgrwt>
</event>
<event>
 5    1  0.3261711E-002  0.1249966E+03  0.7818608E-02  0.1235075E+00
         -4   -1    0    0    0  501 -0.00000000000E+00  0.00000000000E+00  0.93514973528E+01  0.94373408723E+01  0.12700000000E+01 0.  1.
          4   -1    0    0  501    0  0.00000000000E+00 -0.00000000000E+00 -0.41569623741E+03  0.41569817740E+03  0.12700000000E+01 0.  1.
         25    2    1    2    0    0  0.00000000000E+00  0.00000000000E+00 -0.40634474006E+03  0.42513551828E+03  0.12499664447E+03 0.  0.
    9000005    1    3    3    0    0  0.40131963434E+02  0.36987472418E+02 -0.30669292512E+03  0.31151275724E+03  0.10000000000E+01 0.  0.
    9000005    1    3    3    0    0 -0.40131963434E+02 -0.36987472418E+02 -0.99651814933E+02  0.11362276103E+03  0.10000000000E+01 0.  0.
<mgrwt>
<rscale>  0 0.12499664E+03</rscale>
<asrwt>0</asrwt>
<pdfrwt beam="2">  1        4 0.63960005E-01 0.12499664E+03</pdfrwt>
<pdfrwt beam="1">  1       -4 0.14454448E-02 0.12499664E+03</pdfrwt>
<totfact> 0.62184023E+03</totfact>
</mgrwt>
</event>
<event>
 5    1  0.3261711E-002  0.1249996E+03  0.7818608E-02  0.1235070E+00
         -4   -1    0    0    0  501 -0.00000000000E+00  0.00000000000E+00  0.82938159806E+02  0.82947882746E+02  0.12700000000E+01 0. -1.
          4   -1    0    0  501    0  0.00000000000E+00 -0.00000000000E+00 -0.47076973813E+02  0.47094101153E+02  0.12700000000E+01 0. -1.
         25    2    1    2    0    0  0.00000000000E+00  0.00000000000E+00  0.35861185993E+02  0.13004198390E+03  0.12499957166E+03 0.  0.
    9000005    1    3    3    0    0 -0.18918543789E+02  0.58202371001E+02  0.31081567371E+02  0.68647586407E+02  0.10000000000E+01 0.  0.
    9000005    1    3    3    0    0  0.18918543789E+02 -0.58202371001E+02  0.47796186220E+01  0.61394397492E+02  0.10000000000E+01 0.  0.
<mgrwt>
<rscale>  0 0.12499957E+03</rscale>
<asrwt>0</asrwt>
<pdfrwt beam="2">  1        4 0.72446768E-02 0.12499957E+03</pdfrwt>
<pdfrwt beam="1">  1       -4 0.12761782E-01 0.12499957E+03</pdfrwt>
<totfact> 0.10343710E+04</totfact>
</mgrwt>
</event>
<event>
 5    1  0.3261711E-002  0.1249998E+03  0.7818608E-02  0.1235070E+00
          4   -1    0    0  501    0  0.00000000000E+00  0.00000000000E+00  0.63782594725E+01  0.65034678363E+01  0.12700000000E+01 0. -1.
         -4   -1    0    0    0  501 -0.00000000000E+00 -0.00000000000E+00 -0.60635105389E+03  0.60635238389E+03  0.12700000000E+01 0. -1.
         25    2    1    2    0    0  0.00000000000E+00  0.00000000000E+00 -0.59997279441E+03  0.61285585173E+03  0.12499976383E+03 0.  0.
    9000005    1    3    3    0    0  0.11661927970E+02 -0.25661059754E+02 -0.57343853870E+03  0.57413173421E+03  0.10000000000E+01 0.  0.
    9000005    1    3    3    0    0 -0.11661927970E+02  0.25661059754E+02 -0.26534255712E+02  0.38724117522E+02  0.10000000000E+01 0.  0.
<mgrwt>
<rscale>  0 0.12499976E+03</rscale>
<asrwt>0</asrwt>
<pdfrwt beam="1">  1        4 0.99100488E-03 0.12499976E+03</pdfrwt>
<pdfrwt beam="2">  1       -4 0.93294466E-01 0.12499976E+03</pdfrwt>
<totfact> 0.48066305E+03</totfact>
</mgrwt>
</event>
<event>
 5    1  0.3261711E-002  0.1250011E+03  0.7818608E-02  0.1235068E+00
         -4   -1    0    0    0  501 -0.00000000000E+00  0.00000000000E+00  0.56612648873E+02  0.56626892131E+02  0.12700000000E+01 0. -1.
          4   -1    0    0  501    0  0.00000000000E+00 -0.00000000000E+00 -0.68972031712E+02  0.68983723141E+02  0.12700000000E+01 0. -1.
         25    2    1    2    0    0  0.00000000000E+00  0.00000000000E+00 -0.12359382839E+02  0.12561061527E+03  0.12500108929E+03 0.  0.
    9000005    1    3    3    0    0 -0.20812702154E+02  0.54778557211E+02  0.15639296089E+02  0.60658441153E+02  0.10000000000E+01 0.  0.
    9000005    1    3    3    0    0  0.20812702154E+02 -0.54778557211E+02 -0.27998678928E+02  0.64952174119E+02  0.10000000000E+01 0.  0.
<mgrwt>
<rscale>  0 0.12500109E+03</rscale>
<asrwt>0</asrwt>
<pdfrwt beam="2">  1        4 0.10613077E-01 0.12500109E+03</pdfrwt>
<pdfrwt beam="1">  1       -4 0.87116333E-02 0.12500109E+03</pdfrwt>
<totfact> 0.10439256E+04</totfact>
</mgrwt>
</event>
<event>
 5    1  0.3261711E-002  0.1250017E+03  0.7818608E-02  0.1235067E+00
         -4   -1    0    0    0  501 -0.00000000000E+00  0.00000000000E+00  0.33026498882E+03  0.33026743064E+03  0.12700000000E+01 0.  1.
          4   -1    0    0  501    0  0.00000000000E+00 -0.00000000000E+00 -0.11791361410E+02  0.11859557492E+02  0.12700000000E+01 0.  1.
         25    2    1    2    0    0  0.00000000000E+00  0.00000000000E+00  0.31847362741E+03  0.34212698813E+03  0.12500169859E+03 0.  0.
    9000005    1    3    3    0    0 -0.25865161213E+02 -0.22201317918E+02  0.15879442041E+02  0.37617306674E+02  0.10000000000E+01 0.  0.
    9000005    1    3    3    0    0  0.25865161213E+02  0.22201317918E+02  0.30259418537E+03  0.30450968145E+03  0.10000000000E+01 0.  0.
<mgrwt>
<rscale>  0 0.12500170E+03</rscale>
<asrwt>0</asrwt>
<pdfrwt beam="2">  1        4 0.18194894E-02 0.12500170E+03</pdfrwt>
<pdfrwt beam="1">  1       -4 0.50815430E-01 0.12500170E+03</pdfrwt>
<totfact> 0.70596801E+03</totfact>
</mgrwt>
</event>
<event>
 5    1  0.3261711E-002  0.1249995E+03  0.7818608E-02  0.1235070E+00
          4   -1    0    0  501    0  0.00000000000E+00  0.00000000000E+00  0.19447881227E+01  0.23227356376E+01  0.12700000000E+01 0. -1.
         -4   -1    0    0    0  501 -0.00000000000E+00 -0.00000000000E+00 -0.18302937955E+04  0.18302942362E+04  0.12700000000E+01 0. -1.
         25    2    1    2    0    0  0.00000000000E+00  0.00000000000E+00 -0.18283490074E+04  0.18326169718E+04  0.12499948947E+03 0.  0.
    9000005    1    3    3    0    0 -0.43650839259E+02  0.14081382451E+02 -0.15364533776E+04  0.15371381404E+04  0.10000000000E+01 0.  0.
    9000005    1    3    3    0    0  0.43650839259E+02 -0.14081382451E+02 -0.29189562984E+03  0.29547883142E+03  0.10000000000E+01 0.  0.
<mgrwt>
<rscale>  0 0.12499949E+03</rscale>
<asrwt>0</asrwt>
<pdfrwt beam="1">  1        4 0.32830642E-03 0.12499949E+03</pdfrwt>
<pdfrwt beam="2">  1       -4 0.28161151E+00 0.12499949E+03</pdfrwt>
<totfact> 0.12207914E+03</totfact>
</mgrwt>
</event>
<event>
 5    1  0.3261711E-002  0.1249998E+03  0.7818608E-02  0.1235070E+00
          4   -1    0    0  501    0  0.00000000000E+00  0.00000000000E+00  0.12473806020E+02  0.12538290817E+02  0.12700000000E+01 0.  1.
         -4   -1    0    0    0  501 -0.00000000000E+00 -0.00000000000E+00 -0.31228192793E+03  0.31228451036E+03  0.12700000000E+01 0.  1.
         25    2    1    2    0    0  0.00000000000E+00  0.00000000000E+00 -0.29980812191E+03  0.32482280118E+03  0.12499976881E+03 0.  0.
    9000005    1    3    3    0    0 -0.43723713497E+02  0.44636362596E+02 -0.14721912452E+03  0.15993323174E+03  0.10000000000E+01 0.  0.
    9000005    1    3    3    0    0  0.43723713497E+02 -0.44636362596E+02 -0.15258899738E+03  0.16488956944E+03  0.10000000000E+01 0.  0.
<mgrwt>
<rscale>  0 0.12499977E+03</rscale>
<asrwt>0</asrwt>
<pdfrwt beam="1">  1        4 0.19242063E-02 0.12499977E+03</pdfrwt>
<pdfrwt beam="2">  1       -4 0.48048527E-01 0.12499977E+03</pdfrwt>
<totfact> 0.72586539E+03</totfact>
</mgrwt>
</event>
<event>
 5    1  0.3261711E-002  0.1250013E+03  0.7818608E-02  0.1235067E+00
          4   -1    0    0  501    0  0.00000000000E+00  0.00000000000E+00  0.41530657460E+03  0.41530851641E+03  0.12700000000E+01 0. -1.
         -4   -1    0    0    0  501 -0.00000000000E+00 -0.00000000000E+00 -0.93610575942E+01  0.94468142399E+01  0.12700000000E+01 0. -1.
         25    2    1    2    0    0  0.00000000000E+00  0.00000000000E+00  0.40594551701E+03  0.42475533065E+03  0.12500131256E+03 0.  0.
    9000005    1    3    3    0    0 -0.56179882207E+02  0.18318452207E+02  0.27207749234E+03  0.27842217349E+03  0.10000000000E+01 0.  0.
    9000005    1    3    3    0    0  0.56179882207E+02 -0.18318452207E+02  0.13386802467E+03  0.14633315716E+03  0.10000000000E+01 0.  0.
<mgrwt>
<rscale>  0 0.12500131E+03</rscale>
<asrwt>0</asrwt>
<pdfrwt beam="1">  1        4 0.63900063E-01 0.12500131E+03</pdfrwt>
<pdfrwt beam="2">  1       -4 0.14469088E-02 0.12500131E+03</pdfrwt>
<totfact> 0.62212481E+03</totfact>
</mgrwt>
</event>
<event>
 5    1  0.3261711E-002  0.1250010E+03  0.7818608E-02  0.1235068E+00
          4   -1    0    0  501    0  0.00000000000E+00  0.00000000000E+00  0.92547660491E+03  0.92547747630E+03  0.12700000000E+01 0.  1.
         -4   -1    0    0    0  501 -0.00000000000E+00 -0.00000000000E+00 -0.41244426814E+01  0.43155448592E+01  0.12700000000E+01 0.  1.
         25    2    1    2    0    0  0.00000000000E+00  0.00000000000E+00  0.92135216223E+03  0.92979302116E+03  0.12500102140E+03 0.  0.
    9000005    1    3    3    0    0  0.10370753603E+02  0.30550387744E+01  0.91850396732E+03  0.91856813780E+03  0.10000000000E+01 0.  0.
    9000005    1    3    3    0    0 -0.10370753603E+02 -0.30550387744E+01  0.28481949075E+01  0.11224883360E+02  0.10000000000E+01 0.  0.
<mgrwt>
<rscale>  0 0.12500102E+03</rscale>
<asrwt>0</asrwt>
<pdfrwt beam="1">  1        4 0.14239571E+00 0.12500102E+03</pdfrwt>
<pdfrwt beam="2">  1       -4 0.64929716E-03 0.12500102E+03</pdfrwt>
<totfact> 0.33043716E+03</totfact>
</mgrwt>
</event>
<event>
 5    1  0.3261711E-002  0.1249982E+03  0.7818608E-02  0.1235072E+00
         -4   -1    0    0    0  501 -0.00000000000E+00  0.00000000000E+00  0.55996777066E+02  0.56011176936E+02  0.12700000000E+01 0. -1.
          4   -1    0    0  501    0  0.00000000000E+00 -0.00000000000E+00 -0.69727295275E+02  0.69738860088E+02  0.12700000000E+01 0. -1.
         25    2    1    2    0    0  0.00000000000E+00  0.00000000000E+00 -0.13730518209E+02  0.12575003702E+03  0.12499817871E+03 0.  0.
    9000005    1    3    3    0    0 -0.26926208062E+02  0.10441587356E+02 -0.62615996947E+02  0.68962384681E+02  0.10000000000E+01 0.  0.
    9000005    1    3    3    0    0  0.26926208062E+02 -0.10441587356E+02  0.48885478739E+02  0.56787652343E+02  0.10000000000E+01 0.  0.
<mgrwt>
<rscale>  0 0.12499818E+03</rscale>
<asrwt>0</asrwt>
<pdfrwt beam="2">  1        4 0.10729273E-01 0.12499818E+03</pdfrwt>
<pdfrwt beam="1">  1       -4 0.86168861E-02 0.12499818E+03</pdfrwt>
<totfact> 0.10436872E+04</totfact>
</mgrwt>
</event>
<event>
 4    1  0.3261711E-002  0.1249224E+03  0.7818608E-02  0.1235191E+00
         -4   -1    0    0    0  501 -0.00000000000E+00  0.00000000000E+00  0.21509108895E+02  0.21546569691E+02  0.12700000000E+01 0. -1.
          4   -1    0    0  501    0  0.00000000000E+00 -0.00000000000E+00 -0.18118616788E+03  0.18119061877E+03  0.12700000000E+01 0. -1.
    9000005    1    1    2    0    0 -0.35748504011E+02 -0.47436104914E+02 -0.48526069123E+02  0.76706707484E+02  0.10000000000E+01 0.  0.
    9000005    1    1    2    0    0  0.35748504011E+02  0.47436104914E+02 -0.11115098986E+03  0.12603048098E+03  0.10000000000E+01 0.  0.
<mgrwt>
<rscale>  0 0.12492239E+03</rscale>
<asrwt>0</asrwt>
<pdfrwt beam="2">  1        4 0.27878018E-01 0.12492239E+03</pdfrwt>
<pdfrwt beam="1">  1       -4 0.33123178E-02 0.12492239E+03</pdfrwt>
<totfact> 0.89831774E+03</totfact>
</mgrwt>
</event>
<event>
 5    1  0.3261711E-002  0.1250006E+03  0.7818608E-02  0.1235068E+00
          4   -1    0    0  501    0  0.00000000000E+00  0.00000000000E+00  0.13309268572E+02  0.13369724377E+02  0.12700000000E+01 0.  1.
         -4   -1    0    0    0  501 -0.00000000000E+00 -0.00000000000E+00 -0.29277456569E+03  0.29277732019E+03  0.12700000000E+01 0.  1.
         25    2    1    2    0    0  0.00000000000E+00  0.00000000000E+00 -0.27946529712E+03  0.30614704457E+03  0.12500064240E+03 0.  0.
    9000005    1    3    3    0    0  0.16018898325E+02  0.41758440618E+01  0.78535491595E+01  0.18349959443E+02  0.10000000000E+01 0.  0.
    9000005    1    3    3    0    0 -0.16018898325E+02 -0.41758440618E+01 -0.28731884628E+03  0.28779708512E+03  0.10000000000E+01 0.  0.
<mgrwt>
<rscale>  0 0.12500064E+03</rscale>
<asrwt>0</asrwt>
<pdfrwt beam="1">  1        4 0.20524423E-02 0.12500064E+03</pdfrwt>
<pdfrwt beam="2">  1       -4 0.45047099E-01 0.12500064E+03</pdfrwt>
<totfact> 0.74833113E+03</totfact>
</mgrwt>
</event>
<event>
 5    1  0.3261711E-002  0.1249999E+03  0.7818608E-02  0.1235070E+00
         -4   -1    0    0    0  501 -0.00000000000E+00  0.00000000000E+00  0.77660049802E+02  0.77670433468E+02  0.12700000000E+01 0. -1.
          4   -1    0    0  501    0  0.00000000000E+00 -0.00000000000E+00 -0.50277471178E+02  0.50293508607E+02  0.12700000000E+01 0. -1.
         25    2    1    2    0    0  0.00000000000E+00  0.00000000000E+00  0.27382578624E+02  0.12796394208E+03  0.12499985944E+03 0.  0.
    9000005    1    3    3    0    0 -0.40662390965E+02  0.46946124397E+02  0.66082198189E+01  0.62466288541E+02  0.10000000000E+01 0.  0.
    9000005    1    3    3    0    0  0.40662390965E+02 -0.46946124397E+02  0.20774358805E+02  0.65497653535E+02  0.10000000000E+01 0.  0.
<mgrwt>
<rscale>  0 0.12499986E+03</rscale>
<asrwt>0</asrwt>
<pdfrwt beam="2">  1        4 0.77370280E-02 0.12499986E+03</pdfrwt>
<pdfrwt beam="1">  1       -4 0.11949732E-01 0.12499986E+03</pdfrwt>
<totfact> 0.10388299E+04</totfact>
</mgrwt>
</event>
<event>
 5    1  0.3261711E-002  0.1250194E+03  0.7818608E-02  0.1235039E+00
         -4   -1    0    0    0  501 -0.00000000000E+00  0.00000000000E+00  0.11152415892E+02  0.11224494653E+02  0.12700000000E+01 0.  1.
          4   -1    0    0  501    0  0.00000000000E+00 -0.00000000000E+00 -0.34916730576E+03  0.34916961539E+03  0.12700000000E+01 0.  1.
         25    2    1    2    0    0  0.00000000000E+00  0.00000000000E+00 -0.33801488987E+03  0.36039411005E+03  0.12501939362E+03 0.  0.
    9000005    1    3    3    0    0  0.55385244190E+02  0.10988627154E+02 -0.24626110508E+03  0.25265353170E+03  0.10000000000E+01 0.  0.
    9000005    1    3    3    0    0 -0.55385244190E+02 -0.10988627154E+02 -0.91753784786E+02  0.10774057835E+03  0.10000000000E+01 0.  0.
<mgrwt>
<rscale>  0 0.12501939E+03</rscale>
<asrwt>0</asrwt>
<pdfrwt beam="2">  1        4 0.53723761E-01 0.12501939E+03</pdfrwt>
<pdfrwt beam="1">  1       -4 0.17214787E-02 0.12501939E+03</pdfrwt>
<totfact> 0.68566599E+03</totfact>
</mgrwt>
</event>
<event>
 5    1  0.3261711E-002  0.1250013E+03  0.7818608E-02  0.1235067E+00
          4   -1    0    0  501    0  0.00000000000E+00  0.00000000000E+00  0.10869058771E+04  0.10869066191E+04  0.12700000000E+01 0. -1.
         -4   -1    0    0    0  501 -0.00000000000E+00 -0.00000000000E+00 -0.34810336511E+01  0.37054682943E+01  0.12700000000E+01 0. -1.
         25    2    1    2    0    0  0.00000000000E+00  0.00000000000E+00  0.10834248435E+04  0.10906120874E+04  0.12500133479E+03 0.  0.
    9000005    1    3    3    0    0  0.58872476250E+02 -0.17272177619E+02  0.64532725894E+03  0.64823804865E+03  0.10000000000E+01 0.  0.
    9000005    1    3    3    0    0 -0.58872476250E+02  0.17272177619E+02  0.43809758453E+03  0.44237403874E+03  0.10000000000E+01 0.  0.
<mgrwt>
<rscale>  0 0.12500133E+03</rscale>
<asrwt>0</asrwt>
<pdfrwt beam="1">  1        4 0.16723374E+00 0.12500133E+03</pdfrwt>
<pdfrwt beam="2">  1       -4 0.55286449E-03 0.12500133E+03</pdfrwt>
<totfact> 0.27758946E+03</totfact>
</mgrwt>
</event>
<event>
 5    1  0.3261711E-002  0.1249890E+03  0.7818608E-02  0.1235086E+00
          4   -1    0    0  501    0  0.00000000000E+00  0.00000000000E+00  0.11803018599E+02  0.11871147714E+02  0.12700000000E+01 0.  1.
         -4   -1    0    0    0  501 -0.00000000000E+00 -0.00000000000E+00 -0.32987387324E+03  0.32987631795E+03  0.12700000000E+01 0.  1.
         25    2    1    2    0    0  0.00000000000E+00  0.00000000000E+00 -0.31807085464E+03  0.34174746567E+03  0.12498904639E+03 0.  0.
    9000005    1    3    3    0    0 -0.75213766559E+01 -0.56709488922E+02 -0.90296686514E+02  0.10689728171E+03  0.10000000000E+01 0.  0.
    9000005    1    3    3    0    0  0.75213766559E+01  0.56709488922E+02 -0.22777416813E+03  0.23485018396E+03  0.10000000000E+01 0.  0.
<mgrwt>
<rscale>  0 0.12498905E+03</rscale>
<asrwt>0</asrwt>
<pdfrwt beam="1">  1        4 0.18212780E-02 0.12498905E+03</pdfrwt>
<pdfrwt beam="2">  1       -4 0.50755248E-01 0.12498905E+03</pdfrwt>
<totfact> 0.70659217E+03</totfact>
</mgrwt>
</event>
<event>
 5    1  0.3261711E-002  0.1249987E+03  0.7818608E-02  0.1235071E+00
          4   -1    0    0  501    0  0.00000000000E+00  0.00000000000E+00  0.57761351961E+02  0.57775312032E+02  0.12700000000E+01 0. -1.
         -4   -1    0    0    0  501 -0.00000000000E+00 -0.00000000000E+00 -0.67597896312E+02  0.67609825365E+02  0.12700000000E+01 0. -1.
         25    2    1    2    0    0  0.00000000000E+00  0.00000000000E+00 -0.98365443510E+01  0.12538513740E+03  0.12499870029E+03 0.  0.
    9000005    1    3    3    0    0  0.23615102750E+02 -0.45675854585E+01 -0.62773552074E+02  0.67231352469E+02  0.10000000000E+01 0.  0.
    9000005    1    3    3    0    0 -0.23615102750E+02  0.45675854585E+01  0.52937007723E+02  0.58153784928E+02  0.10000000000E+01 0.  0.
<mgrwt>
<rscale>  0 0.12499870E+03</rscale>
<asrwt>0</asrwt>
<pdfrwt beam="1">  1        4 0.88883533E-02 0.12499870E+03</pdfrwt>
<pdfrwt beam="2">  1       -4 0.10401668E-01 0.12499870E+03</pdfrwt>
<totfact> 0.10444802E+04</totfact>
</mgrwt>
</event>
<event>
 5    1  0.3261711E-002  0.1250003E+03  0.7818608E-02  0.1235069E+00
          4   -1    0    0  501    0  0.00000000000E+00  0.00000000000E+00  0.93313377041E+03  0.93313463465E+03  0.12700000000E+01 0. -1.
         -4   -1    0    0    0  501 -0.00000000000E+00 -0.00000000000E+00 -0.40889734865E+01  0.42816590445E+01  0.12700000000E+01 0. -1.
         25    2    1    2    0    0  0.00000000000E+00  0.00000000000E+00  0.92904479693E+03  0.93741629370E+03  0.12500029196E+03 0.  0.
    9000005    1    3    3    0    0  0.12396729484E+02 -0.45920819685E+02  0.16055797114E+03  0.16745824160E+03  0.10000000000E+01 0.  0.
    9000005    1    3    3    0    0 -0.12396729484E+02  0.45920819685E+02  0.76848682579E+03  0.76995805210E+03  0.10000000000E+01 0.  0.
<mgrwt>
<rscale>  0 0.12500029E+03</rscale>
<asrwt>0</asrwt>
<pdfrwt beam="1">  1        4 0.14357432E+00 0.12500029E+03</pdfrwt>
<pdfrwt beam="2">  1       -4 0.64395953E-03 0.12500029E+03</pdfrwt>
<totfact> 0.32766698E+03</totfact>
</mgrwt>
</event>
<event>
 5    1  0.3261711E-002  0.1250112E+03  0.7818608E-02  0.1235052E+00
          4   -1    0    0  501    0  0.00000000000E+00  0.00000000000E+00  0.71041474635E+02  0.71052825548E+02  0.12700000000E+01 0.  1.
         -4   -1    0    0    0  501 -0.00000000000E+00 -0.00000000000E+00 -0.54972279130E+02  0.54986947294E+02  0.12700000000E+01 0.  1.
         25    2    1    2    0    0  0.00000000000E+00  0.00000000000E+00  0.16069195506E+02  0.12603977284E+03  0.12501122067E+03 0.  0.
    9000005    1    3    3    0    0  0.40215795943E+02 -0.22318083640E+02 -0.34628377748E+02  0.57580653402E+02  0.10000000000E+01 0.  0.
    9000005    1    3    3    0    0 -0.40215795943E+02  0.22318083640E+02  0.50697573254E+02  0.68459119440E+02  0.10000000000E+01 0.  0.
<mgrwt>
<rscale>  0 0.12501122E+03</rscale>
<asrwt>0</asrwt>
<pdfrwt beam="1">  1        4 0.10931459E-01 0.12501122E+03</pdfrwt>
<pdfrwt beam="2">  1       -4 0.84592752E-02 0.12501122E+03</pdfrwt>
<totfact> 0.10427445E+04</totfact>
</mgrwt>
</event>
<event>
 5    1  0.3261711E-002  0.1249993E+03  0.7818608E-02  0.1235070E+00
         -4   -1    0    0    0  501 -0.00000000000E+00  0.00000000000E+00  0.17142883777E+02  0.17189862250E+02  0.12700000000E+01 0.  1.
          4   -1    0    0  501    0  0.00000000000E+00 -0.00000000000E+00 -0.22750130132E+03  0.22750484610E+03  0.12700000000E+01 0.  1.
         25    2    1    2    0    0  0.00000000000E+00  0.00000000000E+00 -0.21035841754E+03  0.24469470835E+03  0.12499934586E+03 0.  0.
    9000005    1    3    3    0    0  0.16943092740E+02 -0.57337097628E+02 -0.69586017991E+02  0.91748706018E+02  0.10000000000E+01 0.  0.
    9000005    1    3    3    0    0 -0.16943092740E+02  0.57337097628E+02 -0.14077239955E+03  0.15294600234E+03  0.10000000000E+01 0.  0.
<mgrwt>
<rscale>  0 0.12499935E+03</rscale>
<asrwt>0</asrwt>
<pdfrwt beam="2">  1        4 0.35004084E-01 0.12499935E+03</pdfrwt>
<pdfrwt beam="1">  1       -4 0.26412533E-02 0.12499935E+03</pdfrwt>
<totfact> 0.83104317E+03</totfact>
</mgrwt>
</event>
<event>
 5    1  0.3261711E-002  0.1250008E+03  0.7818608E-02  0.1235068E+00
          4   -1    0    0  501    0  0.00000000000E+00  0.00000000000E+00  0.12006735771E+03  0.12007407417E+03  0.12700000000E+01 0.  1.
         -4   -1    0    0    0  501 -0.00000000000E+00 -0.00000000000E+00 -0.32514231788E+02  0.32539025320E+02  0.12700000000E+01 0.  1.
         25    2    1    2    0    0  0.00000000000E+00  0.00000000000E+00  0.87553125925E+02  0.15261309949E+03  0.12500083311E+03 0.  0.
    9000005    1    3    3    0    0  0.37123895293E+01 -0.58827911454E+02  0.69117068473E+02  0.90844230176E+02  0.10000000000E+01 0.  0.
    9000005    1    3    3    0    0 -0.37123895293E+01  0.58827911454E+02  0.18436057453E+02  0.61768869315E+02  0.10000000000E+01 0.  0.
<mgrwt>
<rscale>  0 0.12500083E+03</rscale>
<asrwt>0</asrwt>
<pdfrwt beam="1">  1        4 0.18474325E-01 0.12500083E+03</pdfrwt>
<pdfrwt beam="2">  1       -4 0.50046135E-02 0.12500083E+03</pdfrwt>
<totfact> 0.98783492E+03</totfact>
</mgrwt>
</event>
<event>
 5    1  0.3261711E-002  0.1249992E+03  0.7818608E-02  0.1235070E+00
         -4   -1    0    0    0  501 -0.00000000000E+00  0.00000000000E+00  0.49470222231E+03  0.49470385248E+03  0.12700000000E+01 0. -1.
          4   -1    0    0  501    0  0.00000000000E+00 -0.00000000000E+00 -0.78433464379E+01  0.79455008241E+01  0.12700000000E+01 0. -1.
         25    2    1    2    0    0  0.00000000000E+00  0.00000000000E+00  0.48685887587E+03  0.50264935330E+03  0.12499922944E+03 0.  0.
    9000005    1    3    3    0    0  0.27201136376E+01  0.62417074990E+02  0.23786971561E+03  0.24593961022E+03  0.10000000000E+01 0.  0.
    9000005    1    3    3    0    0 -0.27201136376E+01 -0.62417074990E+02  0.24898916026E+03  0.25670974308E+03  0.10000000000E+01 0.  0.
<mgrwt>
<rscale>  0 0.12499923E+03</rscale>
<asrwt>0</asrwt>
<pdfrwt beam="2">  1        4 0.12146518E-02 0.12499923E+03</pdfrwt>
<pdfrwt beam="1">  1       -4 0.76116040E-01 0.12499923E+03</pdfrwt>
<totfact> 0.55660324E+03</totfact>
</mgrwt>
</event>
<event>
 5    1  0.3261711E-002  0.1249992E+03  0.7818608E-02  0.1235071E+00
          4   -1    0    0  501    0  0.00000000000E+00  0.00000000000E+00  0.12672498354E+03  0.12673134716E+03  0.12700000000E+01 0. -1.
         -4   -1    0    0    0  501 -0.00000000000E+00 -0.00000000000E+00 -0.30803992534E+02  0.30830161466E+02  0.12700000000E+01 0. -1.
         25    2    1    2    0    0  0.00000000000E+00  0.00000000000E+00  0.95920991001E+02  0.15756150862E+03  0.12499916994E+03 0.  0.
    9000005    1    3    3    0    0 -0.35124068220E+02  0.57840084580E+01  0.11270217372E+03  0.11819447907E+03  0.10000000000E+01 0.  0.
    9000005    1    3    3    0    0  0.35124068220E+02 -0.57840084580E+01 -0.16781182717E+02  0.39367029550E+02  0.10000000000E+01 0.  0.
<mgrwt>
<rscale>  0 0.12499917E+03</rscale>
<asrwt>0</asrwt>
<pdfrwt beam="1">  1        4 0.19498654E-01 0.12499917E+03</pdfrwt>
<pdfrwt beam="2">  1       -4 0.47415783E-02 0.12499917E+03</pdfrwt>
<totfact> 0.97816802E+03</totfact>
</mgrwt>
</event>
<event>
 4    1  0.3261711E-002  0.1250722E+03  0.7818608E-02  0.1234956E+00
          4   -1    0    0  501    0  0.00000000000E+00  0.00000000000E+00  0.16302168903E+03  0.16302663584E+03  0.12700000000E+01 0. -1.
         -4   -1    0    0    0  501 -0.00000000000E+00 -0.00000000000E+00 -0.23967099096E+02  0.24000723720E+02  0.12700000000E+01 0. -1.
    9000005    1    1    2    0    0 -0.37666223499E+02 -0.42664413010E+02  0.10825575434E+03  0.12230823716E+03  0.10000000000E+01 0.  0.
    9000005    1    1    2    0    0  0.37666223499E+02  0.42664413010E+02  0.30798835592E+02  0.64719122398E+02  0.10000000000E+01 0.  0.
<mgrwt>
<rscale>  0 0.12507220E+03</rscale>
<asrwt>0</asrwt>
<pdfrwt beam="1">  1        4 0.25083227E-01 0.12507220E+03</pdfrwt>
<pdfrwt beam="2">  1       -4 0.36902131E-02 0.12507220E+03</pdfrwt>
<totfact> 0.92217873E+03</totfact>
</mgrwt>
</event>
<event>
 5    1  0.3261711E-002  0.1249997E+03  0.7818608E-02  0.1235070E+00
          4   -1    0    0  501    0  0.00000000000E+00  0.00000000000E+00  0.34489814511E+03  0.34490048333E+03  0.12700000000E+01 0. -1.
         -4   -1    0    0    0  501 -0.00000000000E+00 -0.00000000000E+00 -0.11287771932E+02  0.11358991820E+02  0.12700000000E+01 0. -1.
         25    2    1    2    0    0  0.00000000000E+00  0.00000000000E+00  0.33361037318E+03  0.35625947515E+03  0.12499973016E+03 0.  0.
    9000005    1    3    3    0    0 -0.52214538988E+02  0.33457479616E+02  0.14482587800E+03  0.15754775772E+03  0.10000000000E+01 0.  0.
    9000005    1    3    3    0    0  0.52214538988E+02 -0.33457479616E+02  0.18878449518E+03  0.19871171743E+03  0.10000000000E+01 0.  0.
<mgrwt>
<rscale>  0 0.12499973E+03</rscale>
<asrwt>0</asrwt>
<pdfrwt beam="1">  1        4 0.53066916E-01 0.12499973E+03</pdfrwt>
<pdfrwt beam="2">  1       -4 0.17422385E-02 0.12499973E+03</pdfrwt>
<totfact> 0.69041789E+03</totfact>
</mgrwt>
</event>
<event>
 5    1  0.3261711E-002  0.1250018E+03  0.7818608E-02  0.1235067E+00
          4   -1    0    0  501    0  0.00000000000E+00  0.00000000000E+00  0.36773011295E+02  0.36794935245E+02  0.12700000000E+01 0.  1.
         -4   -1    0    0    0  501 -0.00000000000E+00 -0.00000000000E+00 -0.10617161209E+03  0.10617920754E+03  0.12700000000E+01 0.  1.
         25    2    1    2    0    0  0.00000000000E+00  0.00000000000E+00 -0.69398600797E+02  0.14297414279E+03  0.12500175884E+03 0.  0.
    9000005    1    3    3    0    0 -0.39487520402E+01  0.51428493422E+02  0.56563787210E+01  0.51898720587E+02  0.10000000000E+01 0.  0.
    9000005    1    3    3    0    0  0.39487520402E+01 -0.51428493422E+02 -0.75054979518E+02  0.91075422199E+02  0.10000000000E+01 0.  0.
<mgrwt>
<rscale>  0 0.12500176E+03</rscale>
<asrwt>0</asrwt>
<pdfrwt beam="1">  1        4 0.56596572E-02 0.12500176E+03</pdfrwt>
<pdfrwt beam="2">  1       -4 0.16336365E-01 0.12500176E+03</pdfrwt>
<totfact> 0.10071914E+04</totfact>
</mgrwt>
</event>
<event>
 5    1  0.3261711E-002  0.1250158E+03  0.7818608E-02  0.1235045E+00
          4   -1    0    0  501    0  0.00000000000E+00  0.00000000000E+00  0.84092601978E+01  0.85046197489E+01  0.12700000000E+01 0. -1.
         -4   -1    0    0    0  501 -0.00000000000E+00 -0.00000000000E+00 -0.46191905594E+03  0.46192080180E+03  0.12700000000E+01 0. -1.
         25    2    1    2    0    0  0.00000000000E+00  0.00000000000E+00 -0.45350979574E+03  0.47042542155E+03  0.12501576865E+03 0.  0.
    9000005    1    3    3    0    0  0.52539887632E+02  0.28536480794E+02 -0.29526346345E+03  0.30125783538E+03  0.10000000000E+01 0.  0.
    9000005    1    3    3    0    0 -0.52539887632E+02 -0.28536480794E+02 -0.15824633229E+03  0.16916758617E+03  0.10000000000E+01 0.  0.
<mgrwt>
<rscale>  0 0.12501577E+03</rscale>
<asrwt>0</asrwt>
<pdfrwt beam="1">  1        4 0.13012023E-02 0.12501577E+03</pdfrwt>
<pdfrwt beam="2">  1       -4 0.71071920E-01 0.12501577E+03</pdfrwt>
<totfact> 0.58214098E+03</totfact>
</mgrwt>
</event>
<event>
 5    1  0.3261711E-002  0.1250011E+03  0.7818608E-02  0.1235068E+00
          4   -1    0    0  501    0  0.00000000000E+00  0.00000000000E+00  0.13300697331E+04  0.13300703394E+04  0.12700000000E+01 0.  1.
         -4   -1    0    0    0  501 -0.00000000000E+00 -0.00000000000E+00 -0.27989972327E+01  0.30736436861E+01  0.12700000000E+01 0.  1.
         25    2    1    2    0    0  0.00000000000E+00  0.00000000000E+00  0.13272707359E+04  0.13331439831E+04  0.12500109362E+03 0.  0.
    9000005    1    3    3    0    0 -0.39074539776E+01 -0.60333386928E+02  0.83224200940E+03  0.83443582616E+03  0.10000000000E+01 0.  0.
    9000005    1    3    3    0    0  0.39074539776E+01  0.60333386928E+02  0.49502872647E+03  0.49870815695E+03  0.10000000000E+01 0.  0.
<mgrwt>
<rscale>  0 0.12500109E+03</rscale>
<asrwt>0</asrwt>
<pdfrwt beam="1">  1        4 0.20464682E+00 0.12500109E+03</pdfrwt>
<pdfrwt beam="2">  1       -4 0.45178929E-03 0.12500109E+03</pdfrwt>
<totfact> 0.21459076E+03</totfact>
</mgrwt>
</event>
<event>
 5    1  0.3261711E-002  0.1250106E+03  0.7818608E-02  0.1235053E+00
         -4   -1    0    0    0  501 -0.00000000000E+00  0.00000000000E+00  0.27933494738E+02  0.27962350192E+02  0.12700000000E+01 0.  1.
          4   -1    0    0  501    0  0.00000000000E+00 -0.00000000000E+00 -0.13976084495E+03  0.13976661505E+03  0.12700000000E+01 0.  1.
         25    2    1    2    0    0  0.00000000000E+00  0.00000000000E+00 -0.11182735022E+03  0.16772896524E+03  0.12501059765E+03 0.  0.
    9000005    1    3    3    0    0 -0.22981279982E+02  0.48412155541E+02 -0.99058542521E+02  0.11262979570E+03  0.10000000000E+01 0.  0.
    9000005    1    3    3    0    0  0.22981279982E+02 -0.48412155541E+02 -0.12768807695E+02  0.55099169537E+02  0.10000000000E+01 0.  0.
<mgrwt>
<rscale>  0 0.12501060E+03</rscale>
<asrwt>0</asrwt>
<pdfrwt beam="2">  1        4 0.21504331E-01 0.12501060E+03</pdfrwt>
<pdfrwt beam="1">  1       -4 0.43001243E-02 0.12501060E+03</pdfrwt>
<totfact> 0.95850237E+03</totfact>
</mgrwt>
</event>
<event>
 5    1  0.3261711E-002  0.1249953E+03  0.7818608E-02  0.1235077E+00
         -4   -1    0    0    0  501 -0.00000000000E+00  0.00000000000E+00  0.10877101020E+03  0.10877842415E+03  0.12700000000E+01 0.  1.
          4   -1    0    0  501    0  0.00000000000E+00 -0.00000000000E+00 -0.35890019368E+02  0.35912482373E+02  0.12700000000E+01 0.  1.
         25    2    1    2    0    0  0.00000000000E+00  0.00000000000E+00  0.72880990834E+02  0.14469090652E+03  0.12499527833E+03 0.  0.
    9000005    1    3    3    0    0  0.59775600747E+02  0.85954305807E+01  0.55032073830E+02  0.81710054593E+02  0.10000000000E+01 0.  0.
    9000005    1    3    3    0    0 -0.59775600747E+02 -0.85954305807E+01  0.17848917005E+02  0.62980851930E+02  0.10000000000E+01 0.  0.
<mgrwt>
<rscale>  0 0.12499528E+03</rscale>
<asrwt>0</asrwt>
<pdfrwt beam="2">  1        4 0.55238398E-02 0.12499528E+03</pdfrwt>
<pdfrwt beam="1">  1       -4 0.16736299E-01 0.12499528E+03</pdfrwt>
<totfact> 0.10038340E+04</totfact>
</mgrwt>
</event>
<event>
 5    1  0.3261711E-002  0.1250010E+03  0.7818608E-02  0.1235068E+00
         -4   -1    0    0    0  501 -0.00000000000E+00  0.00000000000E+00  0.18777413334E+03  0.18777842808E+03  0.12700000000E+01 0.  1.
          4   -1    0    0  501    0  0.00000000000E+00 -0.00000000000E+00 -0.20779329120E+02  0.20818103148E+02  0.12700000000E+01 0.  1.
         25    2    1    2    0    0  0.00000000000E+00  0.00000000000E+00  0.16699480422E+03  0.20859653123E+03  0.12500099281E+03 0.  0.
    9000005    1    3    3    0    0  0.49489538783E+02 -0.37992530081E+02  0.77558575141E+02  0.99543856510E+02  0.10000000000E+01 0.  0.
    9000005    1    3    3    0    0 -0.49489538783E+02  0.37992530081E+02  0.89436229078E+02  0.10905267472E+03  0.10000000000E+01 0.  0.
<mgrwt>
<rscale>  0 0.12500099E+03</rscale>
<asrwt>0</asrwt>
<pdfrwt beam="2">  1        4 0.32001329E-02 0.12500099E+03</pdfrwt>
<pdfrwt beam="1">  1       -4 0.28891641E-01 0.12500099E+03</pdfrwt>
<totfact> 0.88703630E+03</totfact>
</mgrwt>
</event>
<event>
 5    1  0.3261711E-002  0.1250050E+03  0.7818608E-02  0.1235062E+00
          4   -1    0    0  501    0  0.00000000000E+00  0.00000000000E+00  0.90186786309E+02  0.90195727863E+02  0.12700000000E+01 0. -1.
         -4   -1    0    0    0  501 -0.00000000000E+00 -0.00000000000E+00 -0.43295925912E+02  0.43314548371E+02  0.12700000000E+01 0. -1.
         25    2    1    2    0    0  0.00000000000E+00  0.00000000000E+00  0.46890860398E+02  0.13351027623E+03  0.12500496419E+03 0.  0.
    9000005    1    3    3    0    0 -0.28164220234E+02  0.10260441988E+02  0.82013175165E+02  0.87325030042E+02  0.10000000000E+01 0.  0.
    9000005    1    3    3    0    0  0.28164220234E+02 -0.10260441988E+02 -0.35122314767E+02  0.46185246192E+02  0.10000000000E+01 0.  0.
<mgrwt>
<rscale>  0 0.12500496E+03</rscale>
<asrwt>0</asrwt>
<pdfrwt beam="1">  1        4 0.13877010E-01 0.12500496E+03</pdfrwt>
<pdfrwt beam="2">  1       -4 0.66630320E-02 0.12500496E+03</pdfrwt>
<totfact> 0.10268417E+04</totfact>
</mgrwt>
</event>
<event>
 5    1  0.3261711E-002  0.1249975E+03  0.7818608E-02  0.1235073E+00
         -4   -1    0    0    0  501 -0.00000000000E+00  0.00000000000E+00  0.20409079759E+02  0.20448555856E+02  0.12700000000E+01 0.  1.
          4   -1    0    0  501    0  0.00000000000E+00 -0.00000000000E+00 -0.19116346093E+03  0.19116767952E+03  0.12700000000E+01 0.  1.
         25    2    1    2    0    0  0.00000000000E+00  0.00000000000E+00 -0.17075438117E+03  0.21161623538E+03  0.12499748952E+03 0.  0.
    9000005    1    3    3    0    0  0.47565857514E+02 -0.61479235145E+01 -0.17557443389E+02  0.51083966006E+02  0.10000000000E+01 0.  0.
    9000005    1    3    3    0    0 -0.47565857514E+02  0.61479235145E+01 -0.15319693778E+03  0.16053226937E+03  0.10000000000E+01 0.  0.
<mgrwt>
<rscale>  0 0.12499749E+03</rscale>
<asrwt>0</asrwt>
<pdfrwt beam="2">  1        4 0.29413123E-01 0.12499749E+03</pdfrwt>
<pdfrwt beam="1">  1       -4 0.31432197E-02 0.12499749E+03</pdfrwt>
<totfact> 0.88217558E+03</totfact>
</mgrwt>
</event>
<event>
 5    1  0.3261711E-002  0.1249994E+03  0.7818608E-02  0.1235070E+00
         -4   -1    0    0    0  501 -0.00000000000E+00  0.00000000000E+00  0.55504862361E+01  0.56939263656E+01  0.12700000000E+01 0. -1.
          4   -1    0    0  501    0  0.00000000000E+00 -0.00000000000E+00 -0.69463880561E+03  0.69463996657E+03  0.12700000000E+01 0. -1.
         25    2    1    2    0    0  0.00000000000E+00  0.00000000000E+00 -0.68908831937E+03  0.70033389294E+03  0.12499939880E+03 0.  0.
    9000005    1    3    3    0    0  0.29391395098E+01 -0.52738626625E+02 -0.15744330512E+03  0.16607045375E+03  0.10000000000E+01 0.  0.
    9000005    1    3    3    0    0 -0.29391395098E+01  0.52738626625E+02 -0.53164501425E+03  0.53426343919E+03  0.10000000000E+01 0.  0.
<mgrwt>
<rscale>  0 0.12499940E+03</rscale>
<asrwt>0</asrwt>
<pdfrwt beam="2">  1        4 0.10687856E+00 0.12499940E+03</pdfrwt>
<pdfrwt beam="1">  1       -4 0.86504467E-03 0.12499940E+03</pdfrwt>
<totfact> 0.43069659E+03</totfact>
</mgrwt>
</event>
<event>
 5    1  0.3261711E-002  0.1250049E+03  0.7818608E-02  0.1235062E+00
          4   -1    0    0  501    0  0.00000000000E+00  0.00000000000E+00  0.24696903965E+02  0.24729536297E+02  0.12700000000E+01 0. -1.
         -4   -1    0    0    0  501 -0.00000000000E+00 -0.00000000000E+00 -0.15804036318E+03  0.15804546591E+03  0.12700000000E+01 0. -1.
         25    2    1    2    0    0  0.00000000000E+00  0.00000000000E+00 -0.13334345921E+03  0.18277500220E+03  0.12500489317E+03 0.  0.
    9000005    1    3    3    0    0  0.18894633507E+02 -0.65755155876E+01 -0.15323887124E+03  0.15454253861E+03  0.10000000000E+01 0.  0.
    9000005    1    3    3    0    0 -0.18894633507E+02  0.65755155876E+01  0.19895412030E+02  0.28232463592E+02  0.10000000000E+01 0.  0.
<mgrwt>
<rscale>  0 0.12500489E+03</rscale>
<asrwt>0</asrwt>
<pdfrwt beam="1">  1        4 0.38024265E-02 0.12500489E+03</pdfrwt>
<pdfrwt beam="2">  1       -4 0.24316804E-01 0.12500489E+03</pdfrwt>
<totfact> 0.93109653E+03</totfact>
</mgrwt>
</event>
<event>
 5    1  0.3261711E-002  0.1249878E+03  0.7818608E-02  0.1235088E+00
          4   -1    0    0  501    0  0.00000000000E+00  0.00000000000E+00  0.12727560404E+02  0.12790765960E+02  0.12700000000E+01 0.  1.
         -4   -1    0    0    0  501 -0.00000000000E+00 -0.00000000000E+00 -0.30602832687E+03  0.30603096208E+03  0.12700000000E+01 0.  1.
         25    2    1    2    0    0  0.00000000000E+00  0.00000000000E+00 -0.29330076647E+03  0.31882172803E+03  0.12498781803E+03 0.  0.
    9000005    1    3    3    0    0 -0.23779610710E+02 -0.40583893021E+02 -0.25157468621E+03  0.25593621275E+03  0.10000000000E+01 0.  0.
    9000005    1    3    3    0    0  0.23779610710E+02  0.40583893021E+02 -0.41726080264E+02  0.62885515283E+02  0.10000000000E+01 0.  0.
<mgrwt>
<rscale>  0 0.12498782E+03</rscale>
<asrwt>0</asrwt>
<pdfrwt beam="1">  1        4 0.19631511E-02 0.12498782E+03</pdfrwt>
<pdfrwt beam="2">  1       -4 0.47086340E-01 0.12498782E+03</pdfrwt>
<totfact> 0.73316285E+03</totfact>
</mgrwt>
</event>
<event>
 5    1  0.3261711E-002  0.1250018E+03  0.7818608E-02  0.1235066E+00
          4   -1    0    0  501    0  0.00000000000E+00  0.00000000000E+00  0.98321220189E+01  0.99138046881E+01  0.12700000000E+01 0.  1.
         -4   -1    0    0    0  501 -0.00000000000E+00 -0.00000000000E+00 -0.39558020777E+03  0.39558224642E+03  0.12700000000E+01 0.  1.
         25    2    1    2    0    0  0.00000000000E+00  0.00000000000E+00 -0.38574808575E+03  0.40549605111E+03  0.12500184719E+03 0.  0.
    9000005    1    3    3    0    0 -0.29933226652E+02 -0.14081607846E+02 -0.20882746515E+02  0.39132835820E+02  0.10000000000E+01 0.  0.
    9000005    1    3    3    0    0  0.29933226652E+02  0.14081607846E+02 -0.36486533924E+03  0.36636321529E+03  0.10000000000E+01 0.  0.
<mgrwt>
<rscale>  0 0.12500185E+03</rscale>
<asrwt>0</asrwt>
<pdfrwt beam="1">  1        4 0.15190746E-02 0.12500185E+03</pdfrwt>
<pdfrwt beam="2">  1       -4 0.60864921E-01 0.12500185E+03</pdfrwt>
<totfact> 0.64019133E+03</totfact>
</mgrwt>
</event>
<event>
 5    1  0.3261711E-002  0.1250024E+03  0.7818608E-02  0.1235066E+00
         -4   -1    0    0    0  501 -0.00000000000E+00  0.00000000000E+00  0.13910355450E+02  0.13968209933E+02  0.12700000000E+01 0. -1.
          4   -1    0    0  501    0  0.00000000000E+00 -0.00000000000E+00 -0.28018455458E+03  0.28018743285E+03  0.12700000000E+01 0. -1.
         25    2    1    2    0    0  0.00000000000E+00  0.00000000000E+00 -0.26627419913E+03  0.29415564278E+03  0.12500237221E+03 0.  0.
    9000005    1    3    3    0    0 -0.11525196489E+01  0.49889781480E+02 -0.44615475252E+02  0.66946689459E+02  0.10000000000E+01 0.  0.
    9000005    1    3    3    0    0  0.11525196489E+01 -0.49889781480E+02 -0.22165872388E+03  0.22720895332E+03  0.10000000000E+01 0.  0.
<mgrwt>
<rscale>  0 0.12500237E+03</rscale>
<asrwt>0</asrwt>
<pdfrwt beam="2">  1        4 0.43109984E-01 0.12500237E+03</pdfrwt>
<pdfrwt beam="1">  1       -4 0.21447266E-02 0.12500237E+03</pdfrwt>
<totfact> 0.76333822E+03</totfact>
</mgrwt>
</event>
<event>
 5    1  0.3261711E-002  0.1250024E+03  0.7818608E-02  0.1235065E+00
          4   -1    0    0  501    0  0.00000000000E+00  0.00000000000E+00  0.70569773068E+03  0.70569887345E+03  0.12700000000E+01 0.  1.
         -4   -1    0    0    0  501 -0.00000000000E+00 -0.00000000000E+00 -0.54615131180E+01  0.56072297561E+01  0.12700000000E+01 0.  1.
         25    2    1    2    0    0  0.00000000000E+00  0.00000000000E+00  0.70023621756E+03  0.71130610321E+03  0.12500244826E+03 0.  0.
    9000005    1    3    3    0    0 -0.35238681239E+02  0.37885154151E+02  0.54955233490E+03  0.55198353087E+03  0.10000000000E+01 0.  0.
    9000005    1    3    3    0    0  0.35238681239E+02 -0.37885154151E+02  0.15068388266E+03  0.15932257233E+03  0.10000000000E+01 0.  0.
<mgrwt>
<rscale>  0 0.12500245E+03</rscale>
<asrwt>0</asrwt>
<pdfrwt beam="1">  1        4 0.10858013E+00 0.12500245E+03</pdfrwt>
<pdfrwt beam="2">  1       -4 0.85153002E-03 0.12500245E+03</pdfrwt>
<totfact> 0.42494285E+03</totfact>
</mgrwt>
</event>
<event>
 5    1  0.3261711E-002  0.1249999E+03  0.7818608E-02  0.1235069E+00
          4   -1    0    0  501    0  0.00000000000E+00  0.00000000000E+00  0.52125638296E+03  0.52125793008E+03  0.12700000000E+01 0.  1.
         -4   -1    0    0    0  501 -0.00000000000E+00 -0.00000000000E+00 -0.74385276714E+01  0.75461641857E+01  0.12700000000E+01 0.  1.
         25    2    1    2    0    0  0.00000000000E+00  0.00000000000E+00  0.51381785529E+03  0.52880409427E+03  0.12499992682E+03 0.  0.
    9000005    1    3    3    0    0 -0.52054055604E+02  0.16504266050E+02  0.38544942808E+03  0.38929972658E+03  0.10000000000E+01 0.  0.
    9000005    1    3    3    0    0  0.52054055604E+02 -0.16504266050E+02  0.12836842720E+03  0.13950436769E+03  0.10000000000E+01 0.  0.
<mgrwt>
<rscale>  0 0.12499993E+03</rscale>
<asrwt>0</asrwt>
<pdfrwt beam="1">  1        4 0.80201691E-01 0.12499993E+03</pdfrwt>
<pdfrwt beam="2">  1       -4 0.11527876E-02 0.12499993E+03</pdfrwt>
<totfact> 0.53696874E+03</totfact>
</mgrwt>
</event>
<event>
 5    1  0.3261711E-002  0.1249967E+03  0.7818608E-02  0.1235074E+00
         -4   -1    0    0    0  501 -0.00000000000E+00  0.00000000000E+00  0.11533120624E+04  0.11533127616E+04  0.12700000000E+01 0. -1.
          4   -1    0    0  501    0  0.00000000000E+00 -0.00000000000E+00 -0.32670242615E+01  0.35051886576E+01  0.12700000000E+01 0. -1.
         25    2    1    2    0    0  0.00000000000E+00  0.00000000000E+00  0.11500450381E+04  0.11568179503E+04  0.12499672155E+03 0.  0.
    9000005    1    3    3    0    0  0.11228699310E+02  0.89377422846E+01  0.11378990631E+04  0.11379900021E+04  0.10000000000E+01 0.  0.
    9000005    1    3    3    0    0 -0.11228699310E+02 -0.89377422846E+01  0.12145974957E+02  0.18827948189E+02  0.10000000000E+01 0.  0.
<mgrwt>
<rscale>  0 0.12499672E+03</rscale>
<asrwt>0</asrwt>
<pdfrwt beam="2">  1        4 0.52099368E-03 0.12499672E+03</pdfrwt>
<pdfrwt beam="1">  1       -4 0.17745085E+00 0.12499672E+03</pdfrwt>
<totfact> 0.25873692E+03</totfact>
</mgrwt>
</event>
<event>
 5    1  0.3261711E-002  0.1250019E+03  0.7818608E-02  0.1235066E+00
          4   -1    0    0  501    0  0.00000000000E+00  0.00000000000E+00  0.10625323388E+02  0.10700953093E+02  0.12700000000E+01 0.  1.
         -4   -1    0    0    0  501 -0.00000000000E+00 -0.00000000000E+00 -0.36626657682E+03  0.36626877863E+03  0.12700000000E+01 0.  1.
         25    2    1    2    0    0  0.00000000000E+00  0.00000000000E+00 -0.35564125344E+03  0.37696973172E+03  0.12500190994E+03 0.  0.
    9000005    1    3    3    0    0 -0.57012670751E+00  0.77981635859E+01  0.91591692030E+01  0.12084154098E+02  0.10000000000E+01 0.  0.
    9000005    1    3    3    0    0  0.57012670751E+00 -0.77981635859E+01 -0.36480042264E+03  0.36488557762E+03  0.10000000000E+01 0.  0.
<mgrwt>
<rscale>  0 0.12500191E+03</rscale>
<asrwt>0</asrwt>
<pdfrwt beam="1">  1        4 0.16406525E-02 0.12500191E+03</pdfrwt>
<pdfrwt beam="2">  1       -4 0.56354681E-01 0.12500191E+03</pdfrwt>
<totfact> 0.66853204E+03</totfact>
</mgrwt>
</event>
<event>
 5    1  0.3261711E-002  0.1250017E+03  0.7818608E-02  0.1235067E+00
         -4   -1    0    0    0  501 -0.00000000000E+00  0.00000000000E+00  0.50070382174E+03  0.50070543237E+03  0.12700000000E+01 0.  1.
          4   -1    0    0  501    0  0.00000000000E+00 -0.00000000000E+00 -0.77484174671E+01  0.78518070051E+01  0.12700000000E+01 0.  1.
         25    2    1    2    0    0  0.00000000000E+00  0.00000000000E+00  0.49295540427E+03  0.50855723937E+03  0.12500174046E+03 0.  0.
    9000005    1    3    3    0    0 -0.29745859872E+01  0.33709152680E+02  0.46022190435E+03  0.46146544440E+03  0.10000000000E+01 0.  0.
    9000005    1    3    3    0    0  0.29745859872E+01 -0.33709152680E+02  0.32733499918E+02  0.47091794965E+02  0.10000000000E+01 0.  0.
<mgrwt>
<rscale>  0 0.12500174E+03</rscale>
<asrwt>0</asrwt>
<pdfrwt beam="2">  1        4 0.12001408E-02 0.12500174E+03</pdfrwt>
<pdfrwt beam="1">  1       -4 0.77039459E-01 0.12500174E+03</pdfrwt>
<totfact> 0.55204364E+03</totfact>
</mgrwt>
</event>
<event>
 5    1  0.3261711E-002  0.1249999E+03  0.7818608E-02  0.1235069E+00
         -4   -1    0    0    0  501 -0.00000000000E+00  0.00000000000E+00  0.55423363703E+02  0.55437912516E+02  0.12700000000E+01 0. -1.
          4   -1    0    0  501    0  0.00000000000E+00 -0.00000000000E+00 -0.70450622823E+02  0.70462068918E+02  0.12700000000E+01 0. -1.
         25    2    1    2    0    0  0.00000000000E+00  0.00000000000E+00 -0.15027259120E+02  0.12589998143E+03  0.12499994723E+03 0.  0.
    9000005    1    3    3    0    0 -0.60969914273E+02 -0.42631994121E+01 -0.20635921905E+02  0.64516250577E+02  0.10000000000E+01 0.  0.
    9000005    1    3    3    0    0  0.60969914273E+02  0.42631994121E+01  0.56086627846E+01  0.61383730857E+02  0.10000000000E+01 0.  0.
<mgrwt>
<rscale>  0 0.12499995E+03</rscale>
<asrwt>0</asrwt>
<pdfrwt beam="2">  1        4 0.10840557E-01 0.12499995E+03</pdfrwt>
<pdfrwt beam="1">  1       -4 0.85286709E-02 0.12499995E+03</pdfrwt>
<totfact> 0.10433162E+04</totfact>
</mgrwt>
</event>
<event>
 5    1  0.3261711E-002  0.1249976E+03  0.7818608E-02  0.1235073E+00
         -4   -1    0    0    0  501 -0.00000000000E+00  0.00000000000E+00  0.74371817165E+01  0.75448374326E+01  0.12700000000E+01 0. -1.
          4   -1    0    0  501    0  0.00000000000E+00 -0.00000000000E+00 -0.52132995385E+03  0.52133150076E+03  0.12700000000E+01 0. -1.
         25    2    1    2    0    0  0.00000000000E+00  0.00000000000E+00 -0.51389277214E+03  0.52887633819E+03  0.12499759936E+03 0.  0.
    9000005    1    3    3    0    0  0.35241738809E+02 -0.50996325721E+02 -0.22349812014E+03  0.23193752412E+03  0.10000000000E+01 0.  0.
    9000005    1    3    3    0    0 -0.35241738809E+02  0.50996325721E+02 -0.29039465200E+03  0.29693881407E+03  0.10000000000E+01 0.  0.
<mgrwt>
<rscale>  0 0.12499760E+03</rscale>
<asrwt>0</asrwt>
<pdfrwt beam="2">  1        4 0.80212980E-01 0.12499760E+03</pdfrwt>
<pdfrwt beam="1">  1       -4 0.11525824E-02 0.12499760E+03</pdfrwt>
<totfact> 0.53694361E+03</totfact>
</mgrwt>
</event>
<event>
 5    1  0.3261711E-002  0.1250011E+03  0.7818608E-02  0.1235068E+00
          4   -1    0    0  501    0  0.00000000000E+00  0.00000000000E+00  0.35901742096E+03  0.35901966722E+03  0.12700000000E+01 0.  1.
         -4   -1    0    0    0  501 -0.00000000000E+00 -0.00000000000E+00 -0.10841238501E+02  0.10915372290E+02  0.12700000000E+01 0.  1.
         25    2    1    2    0    0  0.00000000000E+00  0.00000000000E+00  0.34817618246E+03  0.36993503951E+03  0.12500111771E+03 0.  0.
    9000005    1    3    3    0    0 -0.25431299858E+02  0.50215822872E+02  0.93748867528E+02  0.10935369240E+03  0.10000000000E+01 0.  0.
    9000005    1    3    3    0    0  0.25431299858E+02 -0.50215822872E+02  0.25442731493E+03  0.26058134711E+03  0.10000000000E+01 0.  0.
<mgrwt>
<rscale>  0 0.12500112E+03</rscale>
<asrwt>0</asrwt>
<pdfrwt beam="1">  1        4 0.55239316E-01 0.12500112E+03</pdfrwt>
<pdfrwt beam="2">  1       -4 0.16737585E-02 0.12500112E+03</pdfrwt>
<totfact> 0.67584067E+03</totfact>
</mgrwt>
</event>
<event>
 5    1  0.3261711E-002  0.1250020E+03  0.7818608E-02  0.1235066E+00
          4   -1    0    0  501    0  0.00000000000E+00  0.00000000000E+00  0.14989087695E+02  0.15042793954E+02  0.12700000000E+01 0.  1.
         -4   -1    0    0    0  501 -0.00000000000E+00 -0.00000000000E+00 -0.26009315101E+03  0.26009625161E+03  0.12700000000E+01 0.  1.
         25    2    1    2    0    0  0.00000000000E+00  0.00000000000E+00 -0.24510406332E+03  0.27513904557E+03  0.12500197015E+03 0.  0.
    9000005    1    3    3    0    0  0.43847299449E+02  0.40933751776E+02 -0.83972506148E+02  0.10320145102E+03  0.10000000000E+01 0.  0.
    9000005    1    3    3    0    0 -0.43847299449E+02 -0.40933751776E+02 -0.16113155717E+03  0.17193759455E+03  0.10000000000E+01 0.  0.
<mgrwt>
<rscale>  0 0.12500197E+03</rscale>
<asrwt>0</asrwt>
<pdfrwt beam="1">  1        4 0.23103834E-02 0.12500197E+03</pdfrwt>
<pdfrwt beam="2">  1       -4 0.40018697E-01 0.12500197E+03</pdfrwt>
<totfact> 0.78823627E+03</totfact>
</mgrwt>
</event>
<event>
 5    1  0.3261711E-002  0.1250019E+03  0.7818608E-02  0.1235066E+00
         -4   -1    0    0    0  501 -0.00000000000E+00  0.00000000000E+00  0.34673093382E+02  0.34696344255E+02  0.12700000000E+01 0.  1.
          4   -1    0    0  501    0  0.00000000000E+00 -0.00000000000E+00 -0.11259823266E+03  0.11260539462E+03  0.12700000000E+01 0.  1.
         25    2    1    2    0    0  0.00000000000E+00  0.00000000000E+00 -0.77925139276E+02  0.14730173888E+03  0.12500189976E+03 0.  0.
    9000005    1    3    3    0    0 -0.23486431108E+02  0.33312640174E+02  0.16859384739E+02  0.44120100808E+02  0.10000000000E+01 0.  0.
    9000005    1    3    3    0    0  0.23486431108E+02 -0.33312640174E+02 -0.94784524015E+02  0.10318163807E+03  0.10000000000E+01 0.  0.
<mgrwt>
<rscale>  0 0.12500190E+03</rscale>
<asrwt>0</asrwt>
<pdfrwt beam="2">  1        4 0.17325144E-01 0.12500190E+03</pdfrwt>
<pdfrwt beam="1">  1       -4 0.53366616E-02 0.12500190E+03</pdfrwt>
<totfact> 0.99840031E+03</totfact>
</mgrwt>
</event>
<event>
 5    1  0.3261711E-002  0.1250018E+03  0.7818608E-02  0.1235066E+00
         -4   -1    0    0    0  501 -0.00000000000E+00  0.00000000000E+00  0.27435659143E+03  0.27435953084E+03  0.12700000000E+01 0.  1.
          4   -1    0    0  501    0  0.00000000000E+00 -0.00000000000E+00 -0.14206924209E+02  0.14263575831E+02  0.12700000000E+01 0.  1.
         25    2    1    2    0    0  0.00000000000E+00  0.00000000000E+00  0.26014966722E+03  0.28862310667E+03  0.12500179338E+03 0.  0.
    9000005    1    3    3    0    0 -0.38633392230E+02 -0.36078835117E+02  0.20704091763E+03  0.21368472784E+03  0.10000000000E+01 0.  0.
    9000005    1    3    3    0    0  0.38633392230E+02  0.36078835117E+02  0.53108749596E+02  0.74938378834E+02  0.10000000000E+01 0.  0.
<mgrwt>
<rscale>  0 0.12500179E+03</rscale>
<asrwt>0</asrwt>
<pdfrwt beam="2">  1        4 0.21902647E-02 0.12500179E+03</pdfrwt>
<pdfrwt beam="1">  1       -4 0.42213289E-01 0.12500179E+03</pdfrwt>
<totfact> 0.77045392E+03</totfact>
</mgrwt>
</event>
<event>
 5    1  0.3261711E-002  0.1250017E+03  0.7818608E-02  0.1235067E+00
          4   -1    0    0  501    0  0.00000000000E+00  0.00000000000E+00  0.10379301259E+03  0.10380078209E+03  0.12700000000E+01 0.  1.
         -4   -1    0    0    0  501 -0.00000000000E+00 -0.00000000000E+00 -0.37616107406E+02  0.37637540254E+02  0.12700000000E+01 0.  1.
         25    2    1    2    0    0  0.00000000000E+00  0.00000000000E+00  0.66176905189E+02  0.14143832235E+03  0.12500166498E+03 0.  0.
    9000005    1    3    3    0    0  0.44237517464E+02 -0.34877299501E+02  0.63700893959E+02  0.85042271037E+02  0.10000000000E+01 0.  0.
    9000005    1    3    3    0    0 -0.44237517464E+02  0.34877299501E+02  0.24760112294E+01  0.56396051311E+02  0.10000000000E+01 0.  0.
<mgrwt>
<rscale>  0 0.12500166E+03</rscale>
<asrwt>0</asrwt>
<pdfrwt beam="1">  1        4 0.15970402E-01 0.12500166E+03</pdfrwt>
<pdfrwt beam="2">  1       -4 0.57893398E-02 0.12500166E+03</pdfrwt>
<totfact> 0.10103483E+04</totfact>
</mgrwt>
</event>
<event>
 5    1  0.3261711E-002  0.1250005E+03  0.7818608E-02  0.1235069E+00
         -4   -1    0    0    0  501 -0.00000000000E+00  0.00000000000E+00  0.20101844975E+02  0.20141923230E+02  0.12700000000E+01 0.  1.
          4   -1    0    0  501    0  0.00000000000E+00 -0.00000000000E+00 -0.19408872021E+03  0.19409287522E+03  0.12700000000E+01 0.  1.
         25    2    1    2    0    0  0.00000000000E+00  0.00000000000E+00 -0.17398687523E+03  0.21423479845E+03  0.12500046446E+03 0.  0.
    9000005    1    3    3    0    0  0.59554431519E+02  0.18809586884E+02 -0.90728010063E+02  0.11015036397E+03  0.10000000000E+01 0.  0.
    9000005    1    3    3    0    0 -0.59554431519E+02 -0.18809586884E+02 -0.83258865171E+02  0.10408443448E+03  0.10000000000E+01 0.  0.
<mgrwt>
<rscale>  0 0.12500046E+03</rscale>
<asrwt>0</asrwt>
<pdfrwt beam="2">  1        4 0.29863204E-01 0.12500046E+03</pdfrwt>
<pdfrwt beam="1">  1       -4 0.30959942E-02 0.12500046E+03</pdfrwt>
<totfact> 0.87788009E+03</totfact>
</mgrwt>
</event>
<event>
 5    1  0.3261711E-002  0.1249965E+03  0.7818608E-02  0.1235075E+00
         -4   -1    0    0    0  501 -0.00000000000E+00  0.00000000000E+00  0.15343964884E+02  0.15396433300E+02  0.12700000000E+01 0.  1.
          4   -1    0    0  501    0  0.00000000000E+00 -0.00000000000E+00 -0.25407617849E+03  0.25407935251E+03  0.12700000000E+01 0.  1.
         25    2    1    2    0    0  0.00000000000E+00  0.00000000000E+00 -0.23873221360E+03  0.26947578581E+03  0.12499651727E+03 0.  0.
    9000005    1    3    3    0    0 -0.81077738830E+01 -0.11272938982E+02 -0.25071866114E+03  0.25110488286E+03  0.10000000000E+01 0.  0.
    9000005    1    3    3    0    0  0.81077738830E+01  0.11272938982E+02  0.11986447542E+02  0.18370902953E+02  0.10000000000E+01 0.  0.
<mgrwt>
<rscale>  0 0.12499652E+03</rscale>
<asrwt>0</asrwt>
<pdfrwt beam="2">  1        4 0.39092920E-01 0.12499652E+03</pdfrwt>
<pdfrwt beam="1">  1       -4 0.23648903E-02 0.12499652E+03</pdfrwt>
<totfact> 0.79600557E+03</totfact>
</mgrwt>
</event>
<event>
 5    1  0.3261711E-002  0.1249973E+03  0.7818608E-02  0.1235074E+00
         -4   -1    0    0    0  501 -0.00000000000E+00  0.00000000000E+00  0.21163539980E+01  0.24681681962E+01  0.12700000000E+01 0. -1.
          4   -1    0    0  501    0  0.00000000000E+00 -0.00000000000E+00 -0.17036769171E+04  0.17036773905E+04  0.12700000000E+01 0. -1.
         25    2    1    2    0    0  0.00000000000E+00  0.00000000000E+00 -0.17015605631E+04  0.17061455587E+04  0.12499726962E+03 0.  0.
    9000005    1    3    3    0    0 -0.53655946680E+02  0.30858775194E+02 -0.96808209297E+03  0.97005936074E+03  0.10000000000E+01 0.  0.
    9000005    1    3    3    0    0  0.53655946680E+02 -0.30858775194E+02 -0.73347847013E+03  0.73608619792E+03  0.10000000000E+01 0.  0.
<mgrwt>
<rscale>  0 0.12499727E+03</rscale>
<asrwt>0</asrwt>
<pdfrwt beam="2">  1        4 0.26213023E+00 0.12499727E+03</pdfrwt>
<pdfrwt beam="1">  1       -4 0.35269333E-03 0.12499727E+03</pdfrwt>
<totfact> 0.14206599E+03</totfact>
</mgrwt>
</event>
<event>
 4    1  0.3261711E-002  0.1250829E+03  0.7818608E-02  0.1234940E+00
         -4   -1    0    0    0  501 -0.00000000000E+00  0.00000000000E+00  0.15082258778E+03  0.15082793470E+03  0.12700000000E+01 0.  1.
          4   -1    0    0  501    0  0.00000000000E+00 -0.00000000000E+00 -0.25912644811E+02  0.25943748016E+02  0.12700000000E+01 0.  1.
    9000005    1    1    2    0    0 -0.89408752900E+01 -0.31642575846E+02 -0.12715927744E+02  0.35268777630E+02  0.10000000000E+01 0.  0.
    9000005    1    1    2    0    0  0.89408752900E+01  0.31642575846E+02  0.13762587071E+03  0.14150290508E+03  0.10000000000E+01 0.  0.
<mgrwt>
<rscale>  0 0.12508291E+03</rscale>
<asrwt>0</asrwt>
<pdfrwt beam="2">  1        4 0.39893646E-02 0.12508291E+03</pdfrwt>
<pdfrwt beam="1">  1       -4 0.23206279E-01 0.12508291E+03</pdfrwt>
<totfact> 0.94026399E+03</totfact>
</mgrwt>
</event>
<event>
 4    1  0.3261711E-002  0.1250624E+03  0.7818608E-02  0.1234972E+00
         -4   -1    0    0    0  501 -0.00000000000E+00  0.00000000000E+00  0.55536532903E+03  0.55536678114E+03  0.12700000000E+01 0.  1.
          4   -1    0    0  501    0  0.00000000000E+00 -0.00000000000E+00 -0.69819336414E+01  0.70964989518E+01  0.12700000000E+01 0.  1.
    9000005    1    1    2    0    0  0.78841625988E+01  0.61711582296E+02  0.30215885303E+03  0.30849870644E+03  0.10000000000E+01 0.  0.
    9000005    1    1    2    0    0 -0.78841625988E+01 -0.61711582296E+02  0.24622454236E+03  0.25396457366E+03  0.10000000000E+01 0.  0.
<mgrwt>
<rscale>  0 0.12506236E+03</rscale>
<asrwt>0</asrwt>
<pdfrwt beam="2">  1        4 0.10830680E-02 0.12506236E+03</pdfrwt>
<pdfrwt beam="1">  1       -4 0.85449750E-01 0.12506236E+03</pdfrwt>
<totfact> 0.51255944E+03</totfact>
</mgrwt>
</event>
<event>
 5    1  0.3261711E-002  0.1250052E+03  0.7818608E-02  0.1235061E+00
         -4   -1    0    0    0  501 -0.00000000000E+00  0.00000000000E+00  0.19794671168E+02  0.19835370091E+02  0.12700000000E+01 0. -1.
          4   -1    0    0  501    0  0.00000000000E+00 -0.00000000000E+00 -0.19710950182E+03  0.19711359316E+03  0.12700000000E+01 0. -1.
         25    2    1    2    0    0  0.00000000000E+00  0.00000000000E+00 -0.17731483065E+03  0.21694896325E+03  0.12500521383E+03 0.  0.
    9000005    1    3    3    0    0  0.85800742152E+01  0.35861504219E+01  0.18595680633E+02  0.20815318556E+02  0.10000000000E+01 0.  0.
    9000005    1    3    3    0    0 -0.85800742152E+01 -0.35861504219E+01 -0.19591051129E+03  0.19613364469E+03  0.10000000000E+01 0.  0.
<mgrwt>
<rscale>  0 0.12500521E+03</rscale>
<asrwt>0</asrwt>
<pdfrwt beam="2">  1        4 0.30327983E-01 0.12500521E+03</pdfrwt>
<pdfrwt beam="1">  1       -4 0.30487796E-02 0.12500521E+03</pdfrwt>
<totfact> 0.87343276E+03</totfact>
</mgrwt>
</event>
<event>
 5    1  0.3261711E-002  0.1249984E+03  0.7818608E-02  0.1235072E+00
         -4   -1    0    0    0  501 -0.00000000000E+00  0.00000000000E+00  0.72040545968E+02  0.72051739489E+02  0.12700000000E+01 0. -1.
          4   -1    0    0  501    0  0.00000000000E+00 -0.00000000000E+00 -0.54198736297E+02  0.54213613754E+02  0.12700000000E+01 0. -1.
         25    2    1    2    0    0  0.00000000000E+00  0.00000000000E+00  0.17841809671E+02  0.12626535324E+03  0.12499843702E+03 0.  0.
    9000005    1    3    3    0    0  0.15072654638E+02 -0.42776192989E+02 -0.34505107568E+02  0.56996403858E+02  0.10000000000E+01 0.  0.
    9000005    1    3    3    0    0 -0.15072654638E+02  0.42776192989E+02  0.52346917238E+02  0.69268949385E+02  0.10000000000E+01 0.  0.
<mgrwt>
<rscale>  0 0.12499844E+03</rscale>
<asrwt>0</asrwt>
<pdfrwt beam="2">  1        4 0.83402726E-02 0.12499844E+03</pdfrwt>
<pdfrwt beam="1">  1       -4 0.11085166E-01 0.12499844E+03</pdfrwt>
<totfact> 0.10425518E+04</totfact>
</mgrwt>
</event>
<event>
 5    1  0.3261711E-002  0.1249871E+03  0.7818608E-02  0.1235090E+00
          4   -1    0    0  501    0  0.00000000000E+00  0.00000000000E+00  0.29175469209E+03  0.29175745621E+03  0.12700000000E+01 0.  1.
         -4   -1    0    0    0  501 -0.00000000000E+00 -0.00000000000E+00 -0.13353086820E+02  0.13413345132E+02  0.12700000000E+01 0.  1.
         25    2    1    2    0    0  0.00000000000E+00  0.00000000000E+00  0.27840160527E+03  0.30517080134E+03  0.12498705604E+03 0.  0.
    9000005    1    3    3    0    0 -0.57799744589E+02  0.22500621506E+02  0.12071005375E+03  0.13571663685E+03  0.10000000000E+01 0.  0.
    9000005    1    3    3    0    0  0.57799744589E+02 -0.22500621506E+02  0.15769155152E+03  0.16945416449E+03  0.10000000000E+01 0.  0.
<mgrwt>
<rscale>  0 0.12498706E+03</rscale>
<asrwt>0</asrwt>
<pdfrwt beam="1">  1        4 0.44890185E-01 0.12498706E+03</pdfrwt>
<pdfrwt beam="2">  1       -4 0.20591689E-02 0.12498706E+03</pdfrwt>
<totfact> 0.74976301E+03</totfact>
</mgrwt>
</event>
<event>
 5    1  0.3261711E-002  0.1250037E+03  0.7818608E-02  0.1235064E+00
         -4   -1    0    0    0  501 -0.00000000000E+00  0.00000000000E+00  0.26982692010E+03  0.26982990885E+03  0.12700000000E+01 0.  1.
          4   -1    0    0  501    0  0.00000000000E+00 -0.00000000000E+00 -0.14446800433E+02  0.14502515049E+02  0.12700000000E+01 0.  1.
         25    2    1    2    0    0  0.00000000000E+00  0.00000000000E+00  0.25538011966E+03  0.28433242390E+03  0.12500368698E+03 0.  0.
    9000005    1    3    3    0    0 -0.40271045402E+01 -0.59117530946E+02  0.82518901406E+02  0.10159463138E+03  0.10000000000E+01 0.  0.
    9000005    1    3    3    0    0  0.40271045402E+01  0.59117530946E+02  0.17286121826E+03  0.18273779252E+03  0.10000000000E+01 0.  0.
<mgrwt>
<rscale>  0 0.12500369E+03</rscale>
<asrwt>0</asrwt>
<pdfrwt beam="2">  1        4 0.22271003E-02 0.12500369E+03</pdfrwt>
<pdfrwt beam="1">  1       -4 0.41516350E-01 0.12500369E+03</pdfrwt>
<totfact> 0.77600783E+03</totfact>
</mgrwt>
</event>
<event>
 5    1  0.3261711E-002  0.1249978E+03  0.7818608E-02  0.1235073E+00
         -4   -1    0    0    0  501 -0.00000000000E+00  0.00000000000E+00  0.11428553271E+04  0.11428560328E+04  0.12700000000E+01 0. -1.
          4   -1    0    0  501    0  0.00000000000E+00 -0.00000000000E+00 -0.32991465449E+01  0.35351475110E+01  0.12700000000E+01 0. -1.
         25    2    1    2    0    0  0.00000000000E+00  0.00000000000E+00  0.11395561806E+04  0.11463911803E+04  0.12499779809E+03 0.  0.
    9000005    1    3    3    0    0  0.59153202701E+02 -0.17280854028E+02  0.66481633214E+03  0.66766719613E+03  0.10000000000E+01 0.  0.
    9000005    1    3    3    0    0 -0.59153202701E+02  0.17280854028E+02  0.47473984843E+03  0.47872398415E+03  0.10000000000E+01 0.  0.
<mgrwt>
<rscale>  0 0.12499780E+03</rscale>
<asrwt>0</asrwt>
<pdfrwt beam="2">  1        4 0.52576912E-03 0.12499780E+03</pdfrwt>
<pdfrwt beam="1">  1       -4 0.17584213E+00 0.12499780E+03</pdfrwt>
<totfact> 0.26161826E+03</totfact>
</mgrwt>
</event>
<event>
 5    1  0.3261711E-002  0.1249696E+03  0.7818608E-02  0.1235117E+00
         -4   -1    0    0    0  501 -0.00000000000E+00  0.00000000000E+00  0.14172770951E+04  0.14172776641E+04  0.12700000000E+01 0. -1.
          4   -1    0    0  501    0  0.00000000000E+00 -0.00000000000E+00 -0.26078544064E+01  0.29006558922E+01  0.12700000000E+01 0. -1.
         25    2    1    2    0    0  0.00000000000E+00  0.00000000000E+00  0.14146692407E+04  0.14201783200E+04  0.12496959650E+03 0.  0.
    9000005    1    3    3    0    0 -0.54421402576E+02 -0.28378970298E+02  0.57466286624E+03  0.57793205903E+03  0.10000000000E+01 0.  0.
    9000005    1    3    3    0    0  0.54421402576E+02  0.28378970298E+02  0.84000637443E+03  0.84224626096E+03  0.10000000000E+01 0.  0.
<mgrwt>
<rscale>  0 0.12496960E+03</rscale>
<asrwt>0</asrwt>
<pdfrwt beam="2">  1        4 0.42377475E-03 0.12496960E+03</pdfrwt>
<pdfrwt beam="1">  1       -4 0.21806550E+00 0.12496960E+03</pdfrwt>
<totfact> 0.19564957E+03</totfact>
</mgrwt>
</event>
<event>
 5    1  0.3261711E-002  0.1249994E+03  0.7818608E-02  0.1235070E+00
          4   -1    0    0  501    0  0.00000000000E+00  0.00000000000E+00  0.30360707023E+03  0.30360972645E+03  0.12700000000E+01 0.  1.
         -4   -1    0    0    0  501 -0.00000000000E+00 -0.00000000000E+00 -0.12831952199E+02  0.12894646068E+02  0.12700000000E+01 0.  1.
         25    2    1    2    0    0  0.00000000000E+00  0.00000000000E+00  0.29077511803E+03  0.31650437252E+03  0.12499939422E+03 0.  0.
    9000005    1    3    3    0    0  0.24151973142E+02 -0.23929813545E+02  0.27815133099E+03  0.28022333364E+03  0.10000000000E+01 0.  0.
    9000005    1    3    3    0    0 -0.24151973142E+02  0.23929813545E+02  0.12623787043E+02  0.36281038881E+02  0.10000000000E+01 0.  0.
<mgrwt>
<rscale>  0 0.12499939E+03</rscale>
<asrwt>0</asrwt>
<pdfrwt beam="1">  1        4 0.46713808E-01 0.12499939E+03</pdfrwt>
<pdfrwt beam="2">  1       -4 0.19791734E-02 0.12499939E+03</pdfrwt>
<totfact> 0.73574807E+03</totfact>
</mgrwt>
</event>
<event>
 5    1  0.3261711E-002  0.1250102E+03  0.7818608E-02  0.1235053E+00
          4   -1    0    0  501    0  0.00000000000E+00  0.00000000000E+00  0.12693531854E+03  0.12694167162E+03  0.12700000000E+01 0. -1.
         -4   -1    0    0    0  501 -0.00000000000E+00 -0.00000000000E+00 -0.30758331815E+02  0.30784539562E+02  0.12700000000E+01 0. -1.
         25    2    1    2    0    0  0.00000000000E+00  0.00000000000E+00  0.96176986727E+02  0.15772621118E+03  0.12501017926E+03 0.  0.
    9000005    1    3    3    0    0  0.27958660542E+02 -0.54435427413E+02  0.64096952926E+02  0.88624611883E+02  0.10000000000E+01 0.  0.
    9000005    1    3    3    0    0 -0.27958660542E+02  0.54435427413E+02  0.32080033801E+02  0.69101599298E+02  0.10000000000E+01 0.  0.
<mgrwt>
<rscale>  0 0.12501018E+03</rscale>
<asrwt>0</asrwt>
<pdfrwt beam="1">  1        4 0.19531016E-01 0.12501018E+03</pdfrwt>
<pdfrwt beam="2">  1       -4 0.47345556E-02 0.12501018E+03</pdfrwt>
<totfact> 0.97760577E+03</totfact>
</mgrwt>
</event>
<event>
 5    1  0.3261711E-002  0.1249987E+03  0.7818608E-02  0.1235071E+00
          4   -1    0    0  501    0  0.00000000000E+00  0.00000000000E+00  0.38163665661E+02  0.38184791170E+02  0.12700000000E+01 0.  1.
         -4   -1    0    0    0  501 -0.00000000000E+00 -0.00000000000E+00 -0.10229964738E+03  0.10230753029E+03  0.12700000000E+01 0.  1.
         25    2    1    2    0    0  0.00000000000E+00  0.00000000000E+00 -0.64135981716E+02  0.14049232146E+03  0.12499867294E+03 0.  0.
    9000005    1    3    3    0    0  0.50792606042E+02 -0.30033196860E+02 -0.89439467856E+01  0.59689831013E+02  0.10000000000E+01 0.  0.
    9000005    1    3    3    0    0 -0.50792606042E+02  0.30033196860E+02 -0.55192034930E+02  0.80802490444E+02  0.10000000000E+01 0.  0.
<mgrwt>
<rscale>  0 0.12499867E+03</rscale>
<asrwt>0</asrwt>
<pdfrwt beam="1">  1        4 0.58735646E-02 0.12499867E+03</pdfrwt>
<pdfrwt beam="2">  1       -4 0.15740639E-01 0.12499867E+03</pdfrwt>
<totfact> 0.10123695E+04</totfact>
</mgrwt>
</event>
<event>
 5    1  0.3261711E-002  0.1249994E+03  0.7818608E-02  0.1235070E+00
         -4   -1    0    0    0  501 -0.00000000000E+00  0.00000000000E+00  0.20197305058E+01  0.23858355593E+01  0.12700000000E+01 0. -1.
          4   -1    0    0  501    0  0.00000000000E+00 -0.00000000000E+00 -0.17729402189E+04  0.17729406737E+04  0.12700000000E+01 0. -1.
         25    2    1    2    0    0  0.00000000000E+00  0.00000000000E+00 -0.17709204884E+04  0.17753265093E+04  0.12499935399E+03 0.  0.
    9000005    1    3    3    0    0  0.12016500614E+02 -0.56645069211E+02 -0.55172751509E+03  0.55475878637E+03  0.10000000000E+01 0.  0.
    9000005    1    3    3    0    0 -0.12016500614E+02  0.56645069211E+02 -0.12191929733E+04  0.12205677229E+04  0.10000000000E+01 0.  0.
<mgrwt>
<rscale>  0 0.12499935E+03</rscale>
<asrwt>0</asrwt>
<pdfrwt beam="2">  1        4 0.27278709E+00 0.12499935E+03</pdfrwt>
<pdfrwt beam="1">  1       -4 0.33892611E-03 0.12499935E+03</pdfrwt>
<totfact> 0.13087782E+03</totfact>
</mgrwt>
</event>
<event>
 5    1  0.3261711E-002  0.1250005E+03  0.7818608E-02  0.1235068E+00
          4   -1    0    0  501    0  0.00000000000E+00  0.00000000000E+00  0.48857344049E+01  0.50480987188E+01  0.12700000000E+01 0. -1.
         -4   -1    0    0    0  501 -0.00000000000E+00 -0.00000000000E+00 -0.78629727360E+03  0.78629829923E+03  0.12700000000E+01 0. -1.
         25    2    1    2    0    0  0.00000000000E+00  0.00000000000E+00 -0.78141153920E+03  0.79134639795E+03  0.12500051183E+03 0.  0.
    9000005    1    3    3    0    0 -0.24614844978E+02  0.45518914828E+02 -0.61250058962E+03  0.61468352384E+03  0.10000000000E+01 0.  0.
    9000005    1    3    3    0    0  0.24614844978E+02 -0.45518914828E+02 -0.16891094958E+03  0.17666287411E+03  0.10000000000E+01 0.  0.
<mgrwt>
<rscale>  0 0.12500051E+03</rscale>
<asrwt>0</asrwt>
<pdfrwt beam="1">  1        4 0.76422053E-03 0.12500051E+03</pdfrwt>
<pdfrwt beam="2">  1       -4 0.12098128E+00 0.12500051E+03</pdfrwt>
<totfact> 0.38653574E+03</totfact>
</mgrwt>
</event>
<event>
 5    1  0.3261711E-002  0.1250011E+03  0.7818608E-02  0.1235068E+00
          4   -1    0    0  501    0  0.00000000000E+00  0.00000000000E+00  0.23564459351E+02  0.23598657684E+02  0.12700000000E+01 0.  1.
         -4   -1    0    0    0  501 -0.00000000000E+00 -0.00000000000E+00 -0.16561471536E+03  0.16561958472E+03  0.12700000000E+01 0.  1.
         25    2    1    2    0    0  0.00000000000E+00  0.00000000000E+00 -0.14205025601E+03  0.18921824241E+03  0.12500107210E+03 0.  0.
    9000005    1    3    3    0    0 -0.94504203700E+00  0.12069877689E+02 -0.16382994572E+03  0.16427971928E+03  0.10000000000E+01 0.  0.
    9000005    1    3    3    0    0  0.94504203700E+00 -0.12069877689E+02  0.21779689711E+02  0.24938523127E+02  0.10000000000E+01 0.  0.
<mgrwt>
<rscale>  0 0.12500107E+03</rscale>
<asrwt>0</asrwt>
<pdfrwt beam="1">  1        4 0.36283068E-02 0.12500107E+03</pdfrwt>
<pdfrwt beam="2">  1       -4 0.25482191E-01 0.12500107E+03</pdfrwt>
<totfact> 0.91981307E+03</totfact>
</mgrwt>
</event>
<event>
 5    1  0.3261711E-002  0.1249838E+03  0.7818608E-02  0.1235095E+00
          4   -1    0    0  501    0  0.00000000000E+00  0.00000000000E+00  0.31736402527E+02  0.31761803245E+02  0.12700000000E+01 0. -1.
         -4   -1    0    0    0  501 -0.00000000000E+00 -0.00000000000E+00 -0.12297436747E+03  0.12298092517E+03  0.12700000000E+01 0. -1.
         25    2    1    2    0    0  0.00000000000E+00  0.00000000000E+00 -0.91237964945E+02  0.15474272841E+03  0.12498378195E+03 0.  0.
    9000005    1    3    3    0    0  0.30787062597E+02 -0.41064646896E+02 -0.14951230239E+01  0.51355465541E+02  0.10000000000E+01 0.  0.
    9000005    1    3    3    0    0 -0.30787062597E+02  0.41064646896E+02 -0.89742841921E+02  0.10338726287E+03  0.10000000000E+01 0.  0.
<mgrwt>
<rscale>  0 0.12498378E+03</rscale>
<asrwt>0</asrwt>
<pdfrwt beam="1">  1        4 0.48849819E-02 0.12498378E+03</pdfrwt>
<pdfrwt beam="2">  1       -4 0.18921592E-01 0.12498378E+03</pdfrwt>
<totfact> 0.98401916E+03</totfact>
</mgrwt>
</event>
<event>
 5    1  0.3261711E-002  0.1249913E+03  0.7818608E-02  0.1235083E+00
         -4   -1    0    0    0  501 -0.00000000000E+00  0.00000000000E+00  0.22946683073E+03  0.22947034515E+03  0.12700000000E+01 0. -1.
          4   -1    0    0  501    0  0.00000000000E+00 -0.00000000000E+00 -0.16993440007E+02  0.17040830474E+02  0.12700000000E+01 0. -1.
         25    2    1    2    0    0  0.00000000000E+00  0.00000000000E+00  0.21247339072E+03  0.24651117563E+03  0.12499127147E+03 0.  0.
    9000005    1    3    3    0    0 -0.23787899591E+02 -0.53581630920E+02  0.14889561456E+03  0.16002424621E+03  0.10000000000E+01 0.  0.
    9000005    1    3    3    0    0  0.23787899591E+02  0.53581630920E+02  0.63577776164E+02  0.86486929422E+02  0.10000000000E+01 0.  0.
<mgrwt>
<rscale>  0 0.12499127E+03</rscale>
<asrwt>0</asrwt>
<pdfrwt beam="2">  1        4 0.26182913E-02 0.12499127E+03</pdfrwt>
<pdfrwt beam="1">  1       -4 0.35306503E-01 0.12499127E+03</pdfrwt>
<totfact> 0.82853215E+03</totfact>
</mgrwt>
</event>
<event>
 5    1  0.3261711E-002  0.1249972E+03  0.7818608E-02  0.1235074E+00
          4   -1    0    0  501    0  0.00000000000E+00  0.00000000000E+00  0.33611187448E+03  0.33611427382E+03  0.12700000000E+01 0.  1.
         -4   -1    0    0    0  501 -0.00000000000E+00 -0.00000000000E+00 -0.11584207289E+02  0.11653615685E+02  0.12700000000E+01 0.  1.
         25    2    1    2    0    0  0.00000000000E+00  0.00000000000E+00  0.32452766719E+03  0.34776788950E+03  0.12499719276E+03 0.  0.
    9000005    1    3    3    0    0  0.44990716088E+02 -0.21093206535E+02  0.26769388589E+03  0.27226844187E+03  0.10000000000E+01 0.  0.
    9000005    1    3    3    0    0 -0.44990716088E+02  0.21093206535E+02  0.56833781296E+02  0.75499447630E+02  0.10000000000E+01 0.  0.
<mgrwt>
<rscale>  0 0.12499719E+03</rscale>
<asrwt>0</asrwt>
<pdfrwt beam="1">  1        4 0.51715044E-01 0.12499719E+03</pdfrwt>
<pdfrwt beam="2">  1       -4 0.17877094E-02 0.12499719E+03</pdfrwt>
<totfact> 0.69975160E+03</totfact>
</mgrwt>
</event>
<event>
 5    1  0.3261711E-002  0.1249996E+03  0.7818608E-02  0.1235070E+00
         -4   -1    0    0    0  501 -0.00000000000E+00  0.00000000000E+00  0.56080530275E+02  0.56094908646E+02  0.12700000000E+01 0. -1.
          4   -1    0    0  501    0  0.00000000000E+00 -0.00000000000E+00 -0.69624802117E+02  0.69636383952E+02  0.12700000000E+01 0. -1.
         25    2    1    2    0    0  0.00000000000E+00  0.00000000000E+00 -0.13544271842E+02  0.12573129260E+03  0.12499964255E+03 0.  0.
    9000005    1    3    3    0    0 -0.11377229221E+02  0.28933886031E+02 -0.61298441065E+02  0.68739435426E+02  0.10000000000E+01 0.  0.
    9000005    1    3    3    0    0  0.11377229221E+02 -0.28933886031E+02  0.47754169224E+02  0.56991857172E+02  0.10000000000E+01 0.  0.
<mgrwt>
<rscale>  0 0.12499964E+03</rscale>
<asrwt>0</asrwt>
<pdfrwt beam="2">  1        4 0.10713505E-01 0.12499964E+03</pdfrwt>
<pdfrwt beam="1">  1       -4 0.86297708E-02 0.12499964E+03</pdfrwt>
<totfact> 0.10436940E+04</totfact>
</mgrwt>
</event>
<event>
 5    1  0.3261711E-002  0.1249955E+03  0.7818608E-02  0.1235076E+00
         -4   -1    0    0    0  501 -0.00000000000E+00  0.00000000000E+00  0.36127007092E+02  0.36149322835E+02  0.12700000000E+01 0.  1.
          4   -1    0    0  501    0  0.00000000000E+00 -0.00000000000E+00 -0.10805825137E+03  0.10806571421E+03  0.12700000000E+01 0.  1.
         25    2    1    2    0    0  0.00000000000E+00  0.00000000000E+00 -0.71931244274E+02  0.14421503705E+03  0.12499549195E+03 0.  0.
    9000005    1    3    3    0    0 -0.26820776171E+02 -0.41365632977E+02  0.83379130297E+01  0.50009903216E+02  0.10000000000E+01 0.  0.
    9000005    1    3    3    0    0  0.26820776171E+02  0.41365632977E+02 -0.80269157304E+02  0.94205133832E+02  0.10000000000E+01 0.  0.
<mgrwt>
<rscale>  0 0.12499549E+03</rscale>
<asrwt>0</asrwt>
<pdfrwt beam="2">  1        4 0.16626637E-01 0.12499549E+03</pdfrwt>
<pdfrwt beam="1">  1       -4 0.55602918E-02 0.12499549E+03</pdfrwt>
<totfact> 0.10047982E+04</totfact>
</mgrwt>
</event>
<event>
 5    1  0.3261711E-002  0.1249994E+03  0.7818608E-02  0.1235070E+00
         -4   -1    0    0    0  501 -0.00000000000E+00  0.00000000000E+00  0.22453127845E+02  0.22489016208E+02  0.12700000000E+01 0.  1.
          4   -1    0    0  501    0  0.00000000000E+00 -0.00000000000E+00 -0.17379469148E+03  0.17379933166E+03  0.12700000000E+01 0.  1.
         25    2    1    2    0    0  0.00000000000E+00  0.00000000000E+00 -0.15134156364E+03  0.19628834787E+03  0.12499938651E+03 0.  0.
    9000005    1    3    3    0    0 -0.31489547260E+02 -0.51495321398E+02 -0.50260204070E+02  0.78552198096E+02  0.10000000000E+01 0.  0.
    9000005    1    3    3    0    0  0.31489547260E+02  0.51495321398E+02 -0.10108135957E+03  0.11773614978E+03  0.10000000000E+01 0.  0.
<mgrwt>
<rscale>  0 0.12499939E+03</rscale>
<asrwt>0</asrwt>
<pdfrwt beam="2">  1        4 0.26740762E-01 0.12499939E+03</pdfrwt>
<pdfrwt beam="1">  1       -4 0.34574451E-02 0.12499939E+03</pdfrwt>
<totfact> 0.90765776E+03</totfact>
</mgrwt>
</event>
<event>
 5    1  0.3261711E-002  0.1249982E+03  0.7818608E-02  0.1235072E+00
         -4   -1    0    0    0  501 -0.00000000000E+00  0.00000000000E+00  0.17977782087E+03  0.17978230663E+03  0.12700000000E+01 0. -1.
          4   -1    0    0  501    0  0.00000000000E+00 -0.00000000000E+00 -0.21704255924E+02  0.21741380481E+02  0.12700000000E+01 0. -1.
         25    2    1    2    0    0  0.00000000000E+00  0.00000000000E+00  0.15807356495E+03  0.20152368711E+03  0.12499817811E+03 0.  0.
    9000005    1    3    3    0    0  0.20057939155E+02  0.58687267395E+02  0.66693098654E+02  0.91079556902E+02  0.10000000000E+01 0.  0.
    9000005    1    3    3    0    0 -0.20057939155E+02 -0.58687267395E+02  0.91380466292E+02  0.11044413021E+03  0.10000000000E+01 0.  0.
<mgrwt>
<rscale>  0 0.12499818E+03</rscale>
<asrwt>0</asrwt>
<pdfrwt beam="2">  1        4 0.33423170E-02 0.12499818E+03</pdfrwt>
<pdfrwt beam="1">  1       -4 0.27661328E-01 0.12499818E+03</pdfrwt>
<totfact> 0.89882821E+03</totfact>
</mgrwt>
</event>
<event>
 5    1  0.3261711E-002  0.1249833E+03  0.7818608E-02  0.1235095E+00
          4   -1    0    0  501    0  0.00000000000E+00  0.00000000000E+00  0.12289026016E+02  0.12354475319E+02  0.12700000000E+01 0. -1.
         -4   -1    0    0    0  501 -0.00000000000E+00 -0.00000000000E+00 -0.31686941821E+03  0.31687196325E+03  0.12700000000E+01 0. -1.
         25    2    1    2    0    0  0.00000000000E+00  0.00000000000E+00 -0.30458039219E+03  0.32922643857E+03  0.12498332908E+03 0.  0.
    9000005    1    3    3    0    0 -0.16184152108E+02  0.55621009229E+02 -0.21398725433E+03  0.22169160666E+03  0.10000000000E+01 0.  0.
    9000005    1    3    3    0    0  0.16184152108E+02 -0.55621009229E+02 -0.90593137866E+02  0.10753483192E+03  0.10000000000E+01 0.  0.
<mgrwt>
<rscale>  0 0.12498333E+03</rscale>
<asrwt>0</asrwt>
<pdfrwt beam="1">  1        4 0.18958500E-02 0.12498333E+03</pdfrwt>
<pdfrwt beam="2">  1       -4 0.48754365E-01 0.12498333E+03</pdfrwt>
<totfact> 0.72098665E+03</totfact>
</mgrwt>
</event>
<event>
 5    1  0.3261711E-002  0.1249993E+03  0.7818608E-02  0.1235070E+00
         -4   -1    0    0    0  501 -0.00000000000E+00  0.00000000000E+00  0.82911347917E+01  0.83878373931E+01  0.12700000000E+01 0. -1.
          4   -1    0    0  501    0  0.00000000000E+00 -0.00000000000E+00 -0.46830150079E+03  0.46830322286E+03  0.12700000000E+01 0. -1.
         25    2    1    2    0    0  0.00000000000E+00  0.00000000000E+00 -0.46001036600E+03  0.47669106025E+03  0.12499932040E+03 0.  0.
    9000005    1    3    3    0    0 -0.14876856348E+02  0.22281165355E+02 -0.44530819994E+03  0.44611451906E+03  0.10000000000E+01 0.  0.
    9000005    1    3    3    0    0  0.14876856348E+02 -0.22281165355E+02 -0.14702166056E+02  0.30576541190E+02  0.10000000000E+01 0.  0.
<mgrwt>
<rscale>  0 0.12499932E+03</rscale>
<asrwt>0</asrwt>
<pdfrwt beam="2">  1        4 0.72053935E-01 0.12499932E+03</pdfrwt>
<pdfrwt beam="1">  1       -4 0.12831307E-02 0.12499932E+03</pdfrwt>
<totfact> 0.57720193E+03</totfact>
</mgrwt>
</event>
<event>
 5    1  0.3261711E-002  0.1249970E+03  0.7818608E-02  0.1235074E+00
          4   -1    0    0  501    0  0.00000000000E+00  0.00000000000E+00  0.41464589279E+02  0.41484033845E+02  0.12700000000E+01 0. -1.
         -4   -1    0    0    0  501 -0.00000000000E+00 -0.00000000000E+00 -0.94156515884E+02  0.94165080489E+02  0.12700000000E+01 0. -1.
         25    2    1    2    0    0  0.00000000000E+00  0.00000000000E+00 -0.52691926606E+02  0.13564911433E+03  0.12499697232E+03 0.  0.
    9000005    1    3    3    0    0 -0.59466962441E+02  0.12437780979E+02 -0.42222937351E+02  0.73991853985E+02  0.10000000000E+01 0.  0.
    9000005    1    3    3    0    0  0.59466962441E+02 -0.12437780979E+02 -0.10468989255E+02  0.61657260348E+02  0.10000000000E+01 0.  0.
<mgrwt>
<rscale>  0 0.12499697E+03</rscale>
<asrwt>0</asrwt>
<pdfrwt beam="1">  1        4 0.63813221E-02 0.12499697E+03</pdfrwt>
<pdfrwt beam="2">  1       -4 0.14487772E-01 0.12499697E+03</pdfrwt>
<totfact> 0.10225105E+04</totfact>
</mgrwt>
</event>
<event>
 5    1  0.3261711E-002  0.1249967E+03  0.7818608E-02  0.1235074E+00
          4   -1    0    0  501    0  0.00000000000E+00  0.00000000000E+00  0.32237619860E+02  0.32262625966E+02  0.12700000000E+01 0.  1.
         -4   -1    0    0    0  501 -0.00000000000E+00 -0.00000000000E+00 -0.12108891075E+03  0.12109557055E+03  0.12700000000E+01 0.  1.
         25    2    1    2    0    0  0.00000000000E+00  0.00000000000E+00 -0.88851290888E+02  0.15335819651E+03  0.12499673814E+03 0.  0.
    9000005    1    3    3    0    0 -0.34936592224E+02 -0.35161477790E+02 -0.91114719154E+02  0.10372939334E+03  0.10000000000E+01 0.  0.
    9000005    1    3    3    0    0  0.34936592224E+02  0.35161477790E+02  0.22634282666E+01  0.49628803170E+02  0.10000000000E+01 0.  0.
<mgrwt>
<rscale>  0 0.12499674E+03</rscale>
<asrwt>0</asrwt>
<pdfrwt beam="1">  1        4 0.49620697E-02 0.12499674E+03</pdfrwt>
<pdfrwt beam="2">  1       -4 0.18631499E-01 0.12499674E+03</pdfrwt>
<totfact> 0.98645694E+03</totfact>
</mgrwt>
</event>
<event>
 5    1  0.3261711E-002  0.1250007E+03  0.7818608E-02  0.1235068E+00
          4   -1    0    0  501    0  0.00000000000E+00  0.00000000000E+00  0.89792710601E+01  0.90686387496E+01  0.12700000000E+01 0.  1.
         -4   -1    0    0    0  501 -0.00000000000E+00 -0.00000000000E+00 -0.43279031084E+03  0.43279217421E+03  0.12700000000E+01 0.  1.
         25    2    1    2    0    0  0.00000000000E+00  0.00000000000E+00 -0.42381103978E+03  0.44186081296E+03  0.12500072236E+03 0.  0.
    9000005    1    3    3    0    0  0.45563741807E+01 -0.49597479970E+02 -0.34532620964E+03  0.34890093383E+03  0.10000000000E+01 0.  0.
    9000005    1    3    3    0    0 -0.45563741807E+01  0.49597479970E+02 -0.78484830140E+02  0.92959879126E+02  0.10000000000E+01 0.  0.
<mgrwt>
<rscale>  0 0.12500072E+03</rscale>
<asrwt>0</asrwt>
<pdfrwt beam="1">  1        4 0.13884444E-02 0.12500072E+03</pdfrwt>
<pdfrwt beam="2">  1       -4 0.66590126E-01 0.12500072E+03</pdfrwt>
<totfact> 0.60674442E+03</totfact>
</mgrwt>
</event>
<event>
 5    1  0.3261711E-002  0.1250038E+03  0.7818608E-02  0.1235063E+00
         -4   -1    0    0    0  501 -0.00000000000E+00  0.00000000000E+00  0.77676338345E+01  0.78707709525E+01  0.12700000000E+01 0.  1.
          4   -1    0    0  501    0  0.00000000000E+00 -0.00000000000E+00 -0.49949778488E+03  0.49949939940E+03  0.12700000000E+01 0.  1.
         25    2    1    2    0    0  0.00000000000E+00  0.00000000000E+00 -0.49173015105E+03  0.50737017035E+03  0.12500379320E+03 0.  0.
    9000005    1    3    3    0    0  0.43455166616E+02 -0.38439761608E+02 -0.15158810167E+03  0.16231426107E+03  0.10000000000E+01 0.  0.
    9000005    1    3    3    0    0 -0.43455166616E+02  0.38439761608E+02 -0.34014204938E+03  0.34505590929E+03  0.10000000000E+01 0.  0.
<mgrwt>
<rscale>  0 0.12500379E+03</rscale>
<asrwt>0</asrwt>
<pdfrwt beam="2">  1        4 0.76853846E-01 0.12500379E+03</pdfrwt>
<pdfrwt beam="1">  1       -4 0.12030788E-02 0.12500379E+03</pdfrwt>
<totfact> 0.55292432E+03</totfact>
</mgrwt>
</event>
<event>
 5    1  0.3261711E-002  0.1250020E+03  0.7818608E-02  0.1235066E+00
         -4   -1    0    0    0  501 -0.00000000000E+00  0.00000000000E+00  0.98974196934E+03  0.98974278415E+03  0.12700000000E+01 0.  1.
          4   -1    0    0  501    0  0.00000000000E+00 -0.00000000000E+00 -0.38438639891E+01  0.40482329932E+01  0.12700000000E+01 0.  1.
         25    2    1    2    0    0  0.00000000000E+00  0.00000000000E+00  0.98589810535E+03  0.99379101714E+03  0.12500204645E+03 0.  0.
    9000005    1    3    3    0    0 -0.11326473976E+02  0.61454360874E+02  0.49828470053E+03  0.50218877951E+03  0.10000000000E+01 0.  0.
    9000005    1    3    3    0    0  0.11326473976E+02 -0.61454360874E+02  0.48761340483E+03  0.49160223764E+03  0.10000000000E+01 0.  0.
<mgrwt>
<rscale>  0 0.12500205E+03</rscale>
<asrwt>0</asrwt>
<pdfrwt beam="2">  1        4 0.60714702E-03 0.12500205E+03</pdfrwt>
<pdfrwt beam="1">  1       -4 0.15228379E+00 0.12500205E+03</pdfrwt>
<totfact> 0.30809001E+03</totfact>
</mgrwt>
</event>
<event>
 5    1  0.3261711E-002  0.1250000E+03  0.7818608E-02  0.1235069E+00
          4   -1    0    0  501    0  0.00000000000E+00  0.00000000000E+00  0.42183253654E+02  0.42202367099E+02  0.12700000000E+01 0. -1.
         -4   -1    0    0    0  501 -0.00000000000E+00 -0.00000000000E+00 -0.92557535384E+02  0.92566247933E+02  0.12700000000E+01 0. -1.
         25    2    1    2    0    0  0.00000000000E+00  0.00000000000E+00 -0.50374281730E+02  0.13476861503E+03  0.12500004535E+03 0.  0.
    9000005    1    3    3    0    0  0.49827342806E+02 -0.34171569373E+02 -0.42396789020E+02  0.73816989669E+02  0.10000000000E+01 0.  0.
    9000005    1    3    3    0    0 -0.49827342806E+02  0.34171569373E+02 -0.79774927105E+01  0.60951625364E+02  0.10000000000E+01 0.  0.
<mgrwt>
<rscale>  0 0.12500005E+03</rscale>
<asrwt>0</asrwt>
<pdfrwt beam="1">  1        4 0.64918718E-02 0.12500005E+03</pdfrwt>
<pdfrwt beam="2">  1       -4 0.14241761E-01 0.12500005E+03</pdfrwt>
<totfact> 0.10242940E+04</totfact>
</mgrwt>
</event>
<event>
 5    1  0.3261711E-002  0.1250046E+03  0.7818608E-02  0.1235062E+00
          4   -1    0    0  501    0  0.00000000000E+00  0.00000000000E+00  0.24398723200E+02  0.24431753801E+02  0.12700000000E+01 0. -1.
         -4   -1    0    0    0  501 -0.00000000000E+00 -0.00000000000E+00 -0.15996858915E+03  0.15997363038E+03  0.12700000000E+01 0. -1.
         25    2    1    2    0    0  0.00000000000E+00  0.00000000000E+00 -0.13556986595E+03  0.18440538418E+03  0.12500462855E+03 0.  0.
    9000005    1    3    3    0    0 -0.48104849458E+02 -0.39771386571E+02 -0.63190589198E+02  0.88825054429E+02  0.10000000000E+01 0.  0.
    9000005    1    3    3    0    0  0.48104849458E+02  0.39771386571E+02 -0.72379276757E+02  0.95580329749E+02  0.10000000000E+01 0.  0.
<mgrwt>
<rscale>  0 0.12500463E+03</rscale>
<asrwt>0</asrwt>
<pdfrwt beam="1">  1        4 0.37565784E-02 0.12500463E+03</pdfrwt>
<pdfrwt beam="2">  1       -4 0.24613480E-01 0.12500463E+03</pdfrwt>
<totfact> 0.92820348E+03</totfact>
</mgrwt>
</event>
<event>
 5    1  0.3261711E-002  0.1250008E+03  0.7818608E-02  0.1235068E+00
          4   -1    0    0  501    0  0.00000000000E+00  0.00000000000E+00  0.77302365775E+01  0.78338660663E+01  0.12700000000E+01 0. -1.
         -4   -1    0    0    0  501 -0.00000000000E+00 -0.00000000000E+00 -0.50185805691E+03  0.50185966384E+03  0.12700000000E+01 0. -1.
         25    2    1    2    0    0  0.00000000000E+00  0.00000000000E+00 -0.49412782033E+03  0.50969352990E+03  0.12500076639E+03 0.  0.
    9000005    1    3    3    0    0  0.12255151940E+02 -0.61015493994E+02 -0.22391928951E+03  0.23240896599E+03  0.10000000000E+01 0.  0.
    9000005    1    3    3    0    0 -0.12255151940E+02  0.61015493994E+02 -0.27020853083E+03  0.27728456392E+03  0.10000000000E+01 0.  0.
<mgrwt>
<rscale>  0 0.12500077E+03</rscale>
<asrwt>0</asrwt>
<pdfrwt beam="1">  1        4 0.11973627E-02 0.12500077E+03</pdfrwt>
<pdfrwt beam="2">  1       -4 0.77217001E-01 0.12500077E+03</pdfrwt>
<totfact> 0.55119117E+03</totfact>
</mgrwt>
</event>
<event>
 5    1  0.3261711E-002  0.1250011E+03  0.7818608E-02  0.1235068E+00
         -4   -1    0    0    0  501 -0.00000000000E+00  0.00000000000E+00  0.60475404640E+03  0.60475537991E+03  0.12700000000E+01 0.  1.
          4   -1    0    0  501    0  0.00000000000E+00 -0.00000000000E+00 -0.63955762470E+01  0.65204520956E+01  0.12700000000E+01 0.  1.
         25    2    1    2    0    0  0.00000000000E+00  0.00000000000E+00  0.59835847015E+03  0.61127583201E+03  0.12500113598E+03 0.  0.
    9000005    1    3    3    0    0 -0.47786574622E+02 -0.27401831354E+02  0.44349321011E+03  0.44690227622E+03  0.10000000000E+01 0.  0.
    9000005    1    3    3    0    0  0.47786574622E+02  0.27401831354E+02  0.15486526004E+03  0.16437355579E+03  0.10000000000E+01 0.  0.
<mgrwt>
<rscale>  0 0.12500114E+03</rscale>
<asrwt>0</asrwt>
<pdfrwt beam="2">  1        4 0.99364320E-03 0.12500114E+03</pdfrwt>
<pdfrwt beam="1">  1       -4 0.93048794E-01 0.12500114E+03</pdfrwt>
<totfact> 0.48162295E+03</totfact>
</mgrwt>
</event>
<event>
 5    1  0.3261711E-002  0.1249997E+03  0.7818608E-02  0.1235070E+00
          4   -1    0    0  501    0  0.00000000000E+00  0.00000000000E+00  0.13951217079E+03  0.13951795117E+03  0.12700000000E+01 0.  1.
         -4   -1    0    0    0  501 -0.00000000000E+00 -0.00000000000E+00 -0.27978436710E+02  0.28007245861E+02  0.12700000000E+01 0.  1.
         25    2    1    2    0    0  0.00000000000E+00  0.00000000000E+00  0.11153373408E+03  0.16752519703E+03  0.12499967121E+03 0.  0.
    9000005    1    3    3    0    0  0.49667797520E+01  0.34532084825E+02 -0.13718543395E+02  0.37501096202E+02  0.10000000000E+01 0.  0.
    9000005    1    3    3    0    0 -0.49667797520E+01 -0.34532084825E+02  0.12525227748E+03  0.13002410083E+03  0.10000000000E+01 0.  0.
<mgrwt>
<rscale>  0 0.12499967E+03</rscale>
<asrwt>0</asrwt>
<pdfrwt beam="1">  1        4 0.21466072E-01 0.12499967E+03</pdfrwt>
<pdfrwt beam="2">  1       -4 0.43070356E-02 0.12499967E+03</pdfrwt>
<totfact> 0.95911994E+03</totfact>
</mgrwt>
</event>
<event>
 5    1  0.3261711E-002  0.1249982E+03  0.7818608E-02  0.1235072E+00
         -4   -1    0    0    0  501 -0.00000000000E+00  0.00000000000E+00  0.15685444813E+02  0.15736774732E+02  0.12700000000E+01 0. -1.
          4   -1    0    0  501    0  0.00000000000E+00 -0.00000000000E+00 -0.24856969681E+03  0.24857294115E+03  0.12700000000E+01 0. -1.
         25    2    1    2    0    0  0.00000000000E+00  0.00000000000E+00 -0.23288425200E+03  0.26430971589E+03  0.12499820431E+03 0.  0.
    9000005    1    3    3    0    0  0.46391128765E+02 -0.40077988907E+02 -0.90826385603E+02  0.10958473591E+03  0.10000000000E+01 0.  0.
    9000005    1    3    3    0    0 -0.46391128765E+02  0.40077988907E+02 -0.14205786640E+03  0.15472497998E+03  0.10000000000E+01 0.  0.
<mgrwt>
<rscale>  0 0.12499820E+03</rscale>
<asrwt>0</asrwt>
<pdfrwt beam="2">  1        4 0.38245687E-01 0.12499820E+03</pdfrwt>
<pdfrwt beam="1">  1       -4 0.24173435E-02 0.12499820E+03</pdfrwt>
<totfact> 0.80308242E+03</totfact>
</mgrwt>
</event>
<event>
 5    1  0.3261711E-002  0.1249837E+03  0.7818608E-02  0.1235095E+00
          4   -1    0    0  501    0  0.00000000000E+00  0.00000000000E+00  0.16433078465E+02  0.16482080204E+02  0.12700000000E+01 0. -1.
         -4   -1    0    0    0  501 -0.00000000000E+00 -0.00000000000E+00 -0.23724012531E+03  0.23724352458E+03  0.12700000000E+01 0. -1.
         25    2    1    2    0    0  0.00000000000E+00  0.00000000000E+00 -0.22080704684E+03  0.25372560478E+03  0.12498372129E+03 0.  0.
    9000005    1    3    3    0    0  0.58635417728E+02 -0.90142357522E+01 -0.15022932113E+03  0.16152157003E+03  0.10000000000E+01 0.  0.
    9000005    1    3    3    0    0 -0.58635417728E+02  0.90142357522E+01 -0.70577725716E+02  0.92204034757E+02  0.10000000000E+01 0.  0.
<mgrwt>
<rscale>  0 0.12498372E+03</rscale>
<asrwt>0</asrwt>
<pdfrwt beam="1">  1        4 0.25321969E-02 0.12498372E+03</pdfrwt>
<pdfrwt beam="2">  1       -4 0.36502509E-01 0.12498372E+03</pdfrwt>
<totfact> 0.81824387E+03</totfact>
</mgrwt>
</event>
<event>
 5    1  0.3261711E-002  0.1249969E+03  0.7818608E-02  0.1235074E+00
         -4   -1    0    0    0  501 -0.00000000000E+00  0.00000000000E+00  0.88121281044E+02  0.88130432160E+02  0.12700000000E+01 0.  1.
          4   -1    0    0  501    0  0.00000000000E+00 -0.00000000000E+00 -0.44305380952E+02  0.44323579292E+02  0.12700000000E+01 0.  1.
         25    2    1    2    0    0  0.00000000000E+00  0.00000000000E+00  0.43815900092E+02  0.13245401145E+03  0.12499692816E+03 0.  0.
    9000005    1    3    3    0    0 -0.56349432313E+01 -0.32411080759E+02 -0.34391989399E+02  0.47602937683E+02  0.10000000000E+01 0.  0.
    9000005    1    3    3    0    0  0.56349432313E+01  0.32411080759E+02  0.78207889491E+02  0.84851073770E+02  0.10000000000E+01 0.  0.
<mgrwt>
<rscale>  0 0.12499693E+03</rscale>
<asrwt>0</asrwt>
<pdfrwt beam="2">  1        4 0.68183163E-02 0.12499693E+03</pdfrwt>
<pdfrwt beam="1">  1       -4 0.13559224E-01 0.12499693E+03</pdfrwt>
<totfact> 0.10292731E+04</totfact>
</mgrwt>
</event>
<event>
 5    1  0.3261711E-002  0.1249984E+03  0.7818608E-02  0.1235072E+00
          4   -1    0    0  501    0  0.00000000000E+00  0.00000000000E+00  0.50124652038E+02  0.50140738346E+02  0.12700000000E+01 0. -1.
         -4   -1    0    0    0  501 -0.00000000000E+00 -0.00000000000E+00 -0.77894919541E+02  0.77905271903E+02  0.12700000000E+01 0. -1.
         25    2    1    2    0    0  0.00000000000E+00  0.00000000000E+00 -0.27770267504E+02  0.12804601025E+03  0.12499837192E+03 0.  0.
    9000005    1    3    3    0    0 -0.45465499046E+01 -0.35858776827E+02 -0.66104731474E+02  0.75348248253E+02  0.10000000000E+01 0.  0.
    9000005    1    3    3    0    0  0.45465499046E+01  0.35858776827E+02  0.38334463970E+02  0.52697761997E+02  0.10000000000E+01 0.  0.
<mgrwt>
<rscale>  0 0.12499837E+03</rscale>
<asrwt>0</asrwt>
<pdfrwt beam="1">  1        4 0.77135186E-02 0.12499837E+03</pdfrwt>
<pdfrwt beam="2">  1       -4 0.11985868E-01 0.12499837E+03</pdfrwt>
<totfact> 0.10386876E+04</totfact>
</mgrwt>
</event>
<event>
 5    1  0.3261711E-002  0.1249977E+03  0.7818608E-02  0.1235073E+00
         -4   -1    0    0    0  501 -0.00000000000E+00  0.00000000000E+00  0.73492461102E+02  0.73503433517E+02  0.12700000000E+01 0.  1.
          4   -1    0    0  501    0  0.00000000000E+00 -0.00000000000E+00 -0.53127262255E+02  0.53142439676E+02  0.12700000000E+01 0.  1.
         25    2    1    2    0    0  0.00000000000E+00  0.00000000000E+00  0.20365198847E+02  0.12664587319E+03  0.12499774347E+03 0.  0.
    9000005    1    3    3    0    0  0.10353948673E+02  0.54384226434E+02 -0.19186854899E+02  0.58600202549E+02  0.10000000000E+01 0.  0.
    9000005    1    3    3    0    0 -0.10353948673E+02 -0.54384226434E+02  0.39552053746E+02  0.68045670644E+02  0.10000000000E+01 0.  0.
<mgrwt>
<rscale>  0 0.12499774E+03</rscale>
<asrwt>0</asrwt>
<pdfrwt beam="2">  1        4 0.81754365E-02 0.12499774E+03</pdfrwt>
<pdfrwt beam="1">  1       -4 0.11308544E-01 0.12499774E+03</pdfrwt>
<totfact> 0.10417379E+04</totfact>
</mgrwt>
</event>
<event>
 5    1  0.3261711E-002  0.1249994E+03  0.7818608E-02  0.1235070E+00
          4   -1    0    0  501    0  0.00000000000E+00  0.00000000000E+00  0.47306072334E+03  0.47306242808E+03  0.12700000000E+01 0. -1.
         -4   -1    0    0    0  501 -0.00000000000E+00 -0.00000000000E+00 -0.82067520327E+01  0.83044373034E+01  0.12700000000E+01 0. -1.
         25    2    1    2    0    0  0.00000000000E+00  0.00000000000E+00  0.46485397130E+03  0.48136686539E+03  0.12499937782E+03 0.  0.
    9000005    1    3    3    0    0 -0.42162441238E+02 -0.38981624322E+02  0.13747362183E+03  0.14898736586E+03  0.10000000000E+01 0.  0.
    9000005    1    3    3    0    0  0.42162441238E+02  0.38981624322E+02  0.32738034948E+03  0.33237949953E+03  0.10000000000E+01 0.  0.
<mgrwt>
<rscale>  0 0.12499938E+03</rscale>
<asrwt>0</asrwt>
<pdfrwt beam="1">  1        4 0.72786206E-01 0.12499938E+03</pdfrwt>
<pdfrwt beam="2">  1       -4 0.12702228E-02 0.12499938E+03</pdfrwt>
<totfact> 0.57340406E+03</totfact>
</mgrwt>
</event>
<event>
 5    1  0.3261711E-002  0.1250007E+03  0.7818608E-02  0.1235068E+00
          4   -1    0    0  501    0  0.00000000000E+00  0.00000000000E+00  0.88305938202E+02  0.88315070185E+02  0.12700000000E+01 0. -1.
         -4   -1    0    0    0  501 -0.00000000000E+00 -0.00000000000E+00 -0.44215371850E+02  0.44233607221E+02  0.12700000000E+01 0. -1.
         25    2    1    2    0    0  0.00000000000E+00  0.00000000000E+00  0.44090566352E+02  0.13254867741E+03  0.12500069536E+03 0.  0.
    9000005    1    3    3    0    0  0.60977926874E+02  0.50586745268E+01  0.85740002224E+01  0.61793294406E+02  0.10000000000E+01 0.  0.
    9000005    1    3    3    0    0 -0.60977926874E+02 -0.50586745268E+01  0.35516566130E+02  0.70755383000E+02  0.10000000000E+01 0.  0.
<mgrwt>
<rscale>  0 0.12500070E+03</rscale>
<asrwt>0</asrwt>
<pdfrwt beam="1">  1        4 0.13587634E-01 0.12500070E+03</pdfrwt>
<pdfrwt beam="2">  1       -4 0.68044701E-02 0.12500070E+03</pdfrwt>
<totfact> 0.10289840E+04</totfact>
</mgrwt>
</event>
<event>
 5    1  0.3261711E-002  0.1249919E+03  0.7818608E-02  0.1235082E+00
          4   -1    0    0  501    0  0.00000000000E+00  0.00000000000E+00  0.85031004696E+01  0.85974192405E+01  0.12700000000E+01 0.  1.
         -4   -1    0    0    0  501 -0.00000000000E+00 -0.00000000000E+00 -0.45670332358E+03  0.45670508938E+03  0.12700000000E+01 0.  1.
         25    2    1    2    0    0  0.00000000000E+00  0.00000000000E+00 -0.44820022311E+03  0.46530250862E+03  0.12499193788E+03 0.  0.
    9000005    1    3    3    0    0 -0.23464724697E+02 -0.11667523520E+02 -0.12922497728E+02  0.29235515349E+02  0.10000000000E+01 0.  0.
    9000005    1    3    3    0    0  0.23464724697E+02  0.11667523520E+02 -0.43527772538E+03  0.43606699327E+03  0.10000000000E+01 0.  0.
<mgrwt>
<rscale>  0 0.12499194E+03</rscale>
<asrwt>0</asrwt>
<pdfrwt beam="1">  1        4 0.13155608E-02 0.12499194E+03</pdfrwt>
<pdfrwt beam="2">  1       -4 0.70269422E-01 0.12499194E+03</pdfrwt>
<totfact> 0.58671110E+03</totfact>
</mgrwt>
</event>
<event>
 5    1  0.3261711E-002  0.1250030E+03  0.7818608E-02  0.1235065E+00
         -4   -1    0    0    0  501 -0.00000000000E+00  0.00000000000E+00  0.17410026919E+03  0.17410490123E+03  0.12700000000E+01 0. -1.
          4   -1    0    0  501    0  0.00000000000E+00 -0.00000000000E+00 -0.22414963299E+02  0.22450912670E+02  0.12700000000E+01 0. -1.
         25    2    1    2    0    0  0.00000000000E+00  0.00000000000E+00  0.15168530589E+03  0.19655581390E+03  0.12500302378E+03 0.  0.
    9000005    1    3    3    0    0 -0.16425751936E+01  0.33546924121E+02  0.15870939733E+03  0.16222751607E+03  0.10000000000E+01 0.  0.
    9000005    1    3    3    0    0  0.16425751936E+01 -0.33546924121E+02 -0.70240914353E+01  0.34328297827E+02  0.10000000000E+01 0.  0.
<mgrwt>
<rscale>  0 0.12500302E+03</rscale>
<asrwt>0</asrwt>
<pdfrwt beam="2">  1        4 0.34515775E-02 0.12500302E+03</pdfrwt>
<pdfrwt beam="1">  1       -4 0.26787779E-01 0.12500302E+03</pdfrwt>
<totfact> 0.90712830E+03</totfact>
</mgrwt>
</event>
<event>
 5    1  0.3261711E-002  0.1249929E+03  0.7818608E-02  0.1235080E+00
         -4   -1    0    0    0  501 -0.00000000000E+00  0.00000000000E+00  0.20854536859E+03  0.20854923558E+03  0.12700000000E+01 0. -1.
          4   -1    0    0  501    0  0.00000000000E+00 -0.00000000000E+00 -0.18703240109E+02  0.18746308719E+02  0.12700000000E+01 0. -1.
         25    2    1    2    0    0  0.00000000000E+00  0.00000000000E+00  0.18984212848E+03  0.22729554430E+03  0.12499292264E+03 0.  0.
    9000005    1    3    3    0    0 -0.62034455196E+02  0.45143088207E+01  0.83986787637E+02  0.10451522910E+03  0.10000000000E+01 0.  0.
    9000005    1    3    3    0    0  0.62034455196E+02 -0.45143088207E+01  0.10585534085E+03  0.12278031520E+03  0.10000000000E+01 0.  0.
<mgrwt>
<rscale>  0 0.12499292E+03</rscale>
<asrwt>0</asrwt>
<pdfrwt beam="2">  1        4 0.28810321E-02 0.12499292E+03</pdfrwt>
<pdfrwt beam="1">  1       -4 0.32087512E-01 0.12499292E+03</pdfrwt>
<totfact> 0.85740148E+03</totfact>
</mgrwt>
</event>
<event>
 5    1  0.3261711E-002  0.1250095E+03  0.7818608E-02  0.1235054E+00
          4   -1    0    0  501    0  0.00000000000E+00  0.00000000000E+00  0.38580327609E+03  0.38580536640E+03  0.12700000000E+01 0. -1.
         -4   -1    0    0    0  501 -0.00000000000E+00 -0.00000000000E+00 -0.10084572370E+02  0.10164226478E+02  0.12700000000E+01 0. -1.
         25    2    1    2    0    0  0.00000000000E+00  0.00000000000E+00  0.37571870372E+03  0.39596959288E+03  0.12500949627E+03 0.  0.
    9000005    1    3    3    0    0 -0.60418262056E+02 -0.15194660969E+02  0.20356953807E+03  0.21289152389E+03  0.10000000000E+01 0.  0.
    9000005    1    3    3    0    0  0.60418262056E+02  0.15194660969E+02  0.17214916565E+03  0.18307806899E+03  0.10000000000E+01 0.  0.
<mgrwt>
<rscale>  0 0.12500950E+03</rscale>
<asrwt>0</asrwt>
<pdfrwt beam="1">  1        4 0.59360631E-01 0.12500950E+03</pdfrwt>
<pdfrwt beam="2">  1       -4 0.15577609E-02 0.12500950E+03</pdfrwt>
<totfact> 0.64933064E+03</totfact>
</mgrwt>
</event>
<event>
 5    1  0.3261711E-002  0.1249967E+03  0.7818608E-02  0.1235074E+00
         -4   -1    0    0    0  501 -0.00000000000E+00  0.00000000000E+00  0.74929708034E+01  0.75998362786E+01  0.12700000000E+01 0. -1.
          4   -1    0    0  501    0  0.00000000000E+00 -0.00000000000E+00 -0.51749562224E+03  0.51749718061E+03  0.12700000000E+01 0. -1.
         25    2    1    2    0    0  0.00000000000E+00  0.00000000000E+00 -0.51000265144E+03  0.52509701689E+03  0.12499669064E+03 0.  0.
    9000005    1    3    3    0    0  0.10408662848E+02  0.65888314708E+01 -0.51236491740E+03  0.51251396229E+03  0.10000000000E+01 0.  0.
    9000005    1    3    3    0    0 -0.10408662848E+02 -0.65888314708E+01  0.23622659640E+01  0.12583054594E+02  0.10000000000E+01 0.  0.
<mgrwt>
<rscale>  0 0.12499669E+03</rscale>
<asrwt>0</asrwt>
<pdfrwt beam="2">  1        4 0.79623023E-01 0.12499669E+03</pdfrwt>
<pdfrwt beam="1">  1       -4 0.11611054E-02 0.12499669E+03</pdfrwt>
<totfact> 0.53972339E+03</totfact>
</mgrwt>
</event>
<event>
 5    1  0.3261711E-002  0.1249963E+03  0.7818608E-02  0.1235075E+00
          4   -1    0    0  501    0  0.00000000000E+00  0.00000000000E+00  0.65429143935E+03  0.65429267191E+03  0.12700000000E+01 0. -1.
         -4   -1    0    0    0  501 -0.00000000000E+00 -0.00000000000E+00 -0.59010542568E+01  0.60361694262E+01  0.12700000000E+01 0. -1.
         25    2    1    2    0    0  0.00000000000E+00  0.00000000000E+00  0.64839038509E+03  0.66032884133E+03  0.12499634879E+03 0.  0.
    9000005    1    3    3    0    0 -0.13735747199E+02 -0.28118241357E+02  0.38449962416E+02  0.49585339143E+02  0.10000000000E+01 0.  0.
    9000005    1    3    3    0    0  0.13735747199E+02  0.28118241357E+02  0.60994042268E+03  0.61074350219E+03  0.10000000000E+01 0.  0.
<mgrwt>
<rscale>  0 0.12499635E+03</rscale>
<asrwt>0</asrwt>
<pdfrwt beam="1">  1        4 0.10067075E+00 0.12499635E+03</pdfrwt>
<pdfrwt beam="2">  1       -4 0.91834240E-03 0.12499635E+03</pdfrwt>
<totfact> 0.45268687E+03</totfact>
</mgrwt>
</event>
<event>
 5    1  0.3261711E-002  0.1249979E+03  0.7818608E-02  0.1235073E+00
         -4   -1    0    0    0  501 -0.00000000000E+00  0.00000000000E+00  0.16726179803E+02  0.16774325346E+02  0.12700000000E+01 0. -1.
          4   -1    0    0  501    0  0.00000000000E+00 -0.00000000000E+00 -0.23314769897E+03  0.23315115791E+03  0.12700000000E+01 0. -1.
         25    2    1    2    0    0  0.00000000000E+00  0.00000000000E+00 -0.21642151916E+03  0.24992548325E+03  0.12499789287E+03 0.  0.
    9000005    1    3    3    0    0  0.40886380592E+02 -0.35897404329E+02 -0.16966862295E+03  0.17818182109E+03  0.10000000000E+01 0.  0.
    9000005    1    3    3    0    0 -0.40886380592E+02  0.35897404329E+02 -0.46752896216E+02  0.71743662159E+02  0.10000000000E+01 0.  0.
<mgrwt>
<rscale>  0 0.12499789E+03</rscale>
<asrwt>0</asrwt>
<pdfrwt beam="2">  1        4 0.35872844E-01 0.12499789E+03</pdfrwt>
<pdfrwt beam="1">  1       -4 0.25772282E-02 0.12499789E+03</pdfrwt>
<totfact> 0.82344865E+03</totfact>
</mgrwt>
</event>
<event>
 5    1  0.3261711E-002  0.1250042E+03  0.7818608E-02  0.1235063E+00
         -4   -1    0    0    0  501 -0.00000000000E+00  0.00000000000E+00  0.12384817282E+04  0.12384823794E+04  0.12700000000E+01 0.  1.
          4   -1    0    0  501    0  0.00000000000E+00 -0.00000000000E+00 -0.30257605753E+01  0.32814824484E+01  0.12700000000E+01 0.  1.
         25    2    1    2    0    0  0.00000000000E+00  0.00000000000E+00  0.12354559676E+04  0.12417638618E+04  0.12500416215E+03 0.  0.
    9000005    1    3    3    0    0 -0.38514239516E+02  0.25737120283E+02  0.20101045020E+03  0.20628123302E+03  0.10000000000E+01 0.  0.
    9000005    1    3    3    0    0  0.38514239516E+02 -0.25737120283E+02  0.10344455174E+04  0.10354826288E+04  0.10000000000E+01 0.  0.
<mgrwt>
<rscale>  0 0.12500416E+03</rscale>
<asrwt>0</asrwt>
<pdfrwt beam="2">  1        4 0.48522172E-03 0.12500416E+03</pdfrwt>
<pdfrwt beam="1">  1       -4 0.19055573E+00 0.12500416E+03</pdfrwt>
<totfact> 0.23642793E+03</totfact>
</mgrwt>
</event>
<event>
 4    1  0.3261711E-002  0.1250830E+03  0.7818608E-02  0.1234940E+00
         -4   -1    0    0    0  501 -0.00000000000E+00  0.00000000000E+00  0.52852178903E+03  0.52852331489E+03  0.12700000000E+01 0. -1.
          4   -1    0    0  501    0  0.00000000000E+00 -0.00000000000E+00 -0.73446829967E+01  0.74536748200E+01  0.12700000000E+01 0. -1.
    9000005    1    1    2    0    0  0.33733420083E+01  0.39700264703E+02  0.46711119840E+03  0.46880844929E+03  0.10000000000E+01 0.  0.
    9000005    1    1    2    0    0 -0.33733420083E+01 -0.39700264703E+02  0.54065907634E+02  0.67168540420E+02  0.10000000000E+01 0.  0.
<mgrwt>
<rscale>  0 0.12508300E+03</rscale>
<asrwt>0</asrwt>
<pdfrwt beam="2">  1        4 0.11384528E-02 0.12508300E+03</pdfrwt>
<pdfrwt beam="1">  1       -4 0.81319530E-01 0.12508300E+03</pdfrwt>
<totfact> 0.53080366E+03</totfact>
</mgrwt>
</event>
<event>
 5    1  0.3261711E-002  0.1249991E+03  0.7818608E-02  0.1235071E+00
          4   -1    0    0  501    0  0.00000000000E+00  0.00000000000E+00  0.35544258502E+03  0.35544485387E+03  0.12700000000E+01 0.  1.
         -4   -1    0    0    0  501 -0.00000000000E+00 -0.00000000000E+00 -0.10950666037E+02  0.11024063981E+02  0.12700000000E+01 0.  1.
         25    2    1    2    0    0  0.00000000000E+00  0.00000000000E+00  0.34449191898E+03  0.36646891786E+03  0.12499914204E+03 0.  0.
    9000005    1    3    3    0    0 -0.42260616751E+02  0.30579745382E+02  0.27313110056E+03  0.27806955722E+03  0.10000000000E+01 0.  0.
    9000005    1    3    3    0    0  0.42260616751E+02 -0.30579745382E+02  0.71360818420E+02  0.88399360639E+02  0.10000000000E+01 0.  0.
<mgrwt>
<rscale>  0 0.12499914E+03</rscale>
<asrwt>0</asrwt>
<pdfrwt beam="1">  1        4 0.54689291E-01 0.12499914E+03</pdfrwt>
<pdfrwt beam="2">  1       -4 0.16905385E-02 0.12499914E+03</pdfrwt>
<totfact> 0.67951269E+03</totfact>
</mgrwt>
</event>
<event>
 5    1  0.3261711E-002  0.1249942E+03  0.7818608E-02  0.1235078E+00
         -4   -1    0    0    0  501 -0.00000000000E+00  0.00000000000E+00  0.40983678361E+02  0.41003350985E+02  0.12700000000E+01 0. -1.
          4   -1    0    0  501    0  0.00000000000E+00 -0.00000000000E+00 -0.95256753800E+02  0.95265219491E+02  0.12700000000E+01 0. -1.
         25    2    1    2    0    0  0.00000000000E+00  0.00000000000E+00 -0.54273075440E+02  0.13626857048E+03  0.12499422619E+03 0.  0.
    9000005    1    3    3    0    0 -0.28211529931E+02  0.55055089548E+02 -0.36760953045E+02  0.71967499435E+02  0.10000000000E+01 0.  0.
    9000005    1    3    3    0    0  0.28211529931E+02 -0.55055089548E+02 -0.17512122395E+02  0.64301071041E+02  0.10000000000E+01 0.  0.
<mgrwt>
<rscale>  0 0.12499423E+03</rscale>
<asrwt>0</asrwt>
<pdfrwt beam="2">  1        4 0.14657050E-01 0.12499423E+03</pdfrwt>
<pdfrwt beam="1">  1       -4 0.63073458E-02 0.12499423E+03</pdfrwt>
<totfact> 0.10212731E+04</totfact>
</mgrwt>
</event>
<event>
 5    1  0.3261711E-002  0.1250001E+03  0.7818608E-02  0.1235069E+00
         -4   -1    0    0    0  501 -0.00000000000E+00  0.00000000000E+00  0.11794575979E+04  0.11794582816E+04  0.12700000000E+01 0.  1.
          4   -1    0    0  501    0  0.00000000000E+00 -0.00000000000E+00 -0.31894498789E+01  0.34330002228E+01  0.12700000000E+01 0.  1.
         25    2    1    2    0    0  0.00000000000E+00  0.00000000000E+00  0.11762681480E+04  0.11828912818E+04  0.12500011469E+03 0.  0.
    9000005    1    3    3    0    0  0.52007141300E+02  0.29204753827E+02  0.41170413286E+03  0.41600354975E+03  0.10000000000E+01 0.  0.
    9000005    1    3    3    0    0 -0.52007141300E+02 -0.29204753827E+02  0.76456401513E+03  0.76688773209E+03  0.10000000000E+01 0.  0.
<mgrwt>
<rscale>  0 0.12500011E+03</rscale>
<asrwt>0</asrwt>
<pdfrwt beam="2">  1        4 0.50947154E-03 0.12500011E+03</pdfrwt>
<pdfrwt beam="1">  1       -4 0.18147391E+00 0.12500011E+03</pdfrwt>
<totfact> 0.25164930E+03</totfact>
</mgrwt>
</event>
<event>
 5    1  0.3261711E-002  0.1249983E+03  0.7818608E-02  0.1235072E+00
         -4   -1    0    0    0  501 -0.00000000000E+00  0.00000000000E+00  0.97775990812E+01  0.98597334545E+01  0.12700000000E+01 0. -1.
          4   -1    0    0  501    0  0.00000000000E+00 -0.00000000000E+00 -0.39774522532E+03  0.39774725287E+03  0.12700000000E+01 0. -1.
         25    2    1    2    0    0  0.00000000000E+00  0.00000000000E+00 -0.38796762624E+03  0.40760698632E+03  0.12499830515E+03 0.  0.
    9000005    1    3    3    0    0  0.67199624452E+01  0.59282428794E+02 -0.25460321929E+03  0.26150212912E+03  0.10000000000E+01 0.  0.
    9000005    1    3    3    0    0 -0.67199624452E+01 -0.59282428794E+02 -0.13336440694E+03  0.14610485720E+03  0.10000000000E+01 0.  0.
<mgrwt>
<rscale>  0 0.12499831E+03</rscale>
<asrwt>0</asrwt>
<pdfrwt beam="2">  1        4 0.61198035E-01 0.12499831E+03</pdfrwt>
<pdfrwt beam="1">  1       -4 0.15107203E-02 0.12499831E+03</pdfrwt>
<totfact> 0.63821999E+03</totfact>
</mgrwt>
</event>
<event>
 5    1  0.3261711E-002  0.1249997E+03  0.7818608E-02  0.1235070E+00
          4   -1    0    0  501    0  0.00000000000E+00  0.00000000000E+00  0.84700654765E+01  0.85647480509E+01  0.12700000000E+01 0.  1.
         -4   -1    0    0    0  501 -0.00000000000E+00 -0.00000000000E+00 -0.45852150850E+03  0.45852326730E+03  0.12700000000E+01 0.  1.
         25    2    1    2    0    0  0.00000000000E+00  0.00000000000E+00 -0.45005144303E+03  0.46708801536E+03  0.12499965087E+03 0.  0.
    9000005    1    3    3    0    0  0.40888605789E+02 -0.39631647917E+02 -0.12883289165E+03  0.14085971593E+03  0.10000000000E+01 0.  0.
    9000005    1    3    3    0    0 -0.40888605789E+02  0.39631647917E+02 -0.32121855137E+03  0.32622829943E+03  0.10000000000E+01 0.  0.
<mgrwt>
<rscale>  0 0.12499965E+03</rscale>
<asrwt>0</asrwt>
<pdfrwt beam="1">  1        4 0.13105059E-02 0.12499965E+03</pdfrwt>
<pdfrwt beam="2">  1       -4 0.70549170E-01 0.12499965E+03</pdfrwt>
<totfact> 0.58511984E+03</totfact>
</mgrwt>
</event>
<event>
 5    1  0.3261711E-002  0.1249982E+03  0.7818608E-02  0.1235072E+00
          4   -1    0    0  501    0  0.00000000000E+00  0.00000000000E+00  0.23469503647E+01  0.26685344320E+01  0.12700000000E+01 0.  1.
         -4   -1    0    0    0  501 -0.00000000000E+00 -0.00000000000E+00 -0.15573089795E+04  0.15573094973E+04  0.12700000000E+01 0.  1.
         25    2    1    2    0    0  0.00000000000E+00  0.00000000000E+00 -0.15549620291E+04  0.15599780317E+04  0.12499819032E+03 0.  0.
    9000005    1    3    3    0    0  0.21890050574E+02 -0.31917400598E+02 -0.13897956555E+04  0.13903348010E+04  0.10000000000E+01 0.  0.
    9000005    1    3    3    0    0 -0.21890050574E+02  0.31917400598E+02 -0.16516637355E+03  0.16964323071E+03  0.10000000000E+01 0.  0.
<mgrwt>
<rscale>  0 0.12499819E+03</rscale>
<asrwt>0</asrwt>
<pdfrwt beam="1">  1        4 0.38584760E-03 0.12499819E+03</pdfrwt>
<pdfrwt beam="2">  1       -4 0.23961000E+00 0.12499819E+03</pdfrwt>
<totfact> 0.16781856E+03</totfact>
</mgrwt>
</event>
<event>
 5    1  0.3261711E-002  0.1249987E+03  0.7818608E-02  0.1235071E+00
         -4   -1    0    0    0  501 -0.00000000000E+00  0.00000000000E+00  0.13937946844E+04  0.13937952630E+04  0.12700000000E+01 0.  1.
          4   -1    0    0  501    0  0.00000000000E+00 -0.00000000000E+00 -0.26580530570E+01  0.29458693206E+01  0.12700000000E+01 0.  1.
         25    2    1    2    0    0  0.00000000000E+00  0.00000000000E+00  0.13911366313E+04  0.13967411323E+04  0.12499865460E+03 0.  0.
    9000005    1    3    3    0    0 -0.39121207923E+02  0.44482709879E+02  0.47321160551E+03  0.47690607459E+03  0.10000000000E+01 0.  0.
    9000005    1    3    3    0    0  0.39121207923E+02 -0.44482709879E+02  0.91792502581E+03  0.91983505771E+03  0.10000000000E+01 0.  0.
<mgrwt>
<rscale>  0 0.12499865E+03</rscale>
<asrwt>0</asrwt>
<pdfrwt beam="2">  1        4 0.43111570E-03 0.12499865E+03</pdfrwt>
<pdfrwt beam="1">  1       -4 0.21445202E+00 0.12499865E+03</pdfrwt>
<totfact> 0.20051572E+03</totfact>
</mgrwt>
</event>
<event>
 5    1  0.3261711E-002  0.1249999E+03  0.7818608E-02  0.1235069E+00
          4   -1    0    0  501    0  0.00000000000E+00  0.00000000000E+00  0.98180672354E+01  0.98998658697E+01  0.12700000000E+01 0.  1.
         -4   -1    0    0    0  501 -0.00000000000E+00 -0.00000000000E+00 -0.39612945962E+03  0.39613149544E+03  0.12700000000E+01 0.  1.
         25    2    1    2    0    0  0.00000000000E+00  0.00000000000E+00 -0.38631139239E+03  0.40603136131E+03  0.12499989792E+03 0.  0.
    9000005    1    3    3    0    0 -0.12863730220E+02 -0.48091518105E+02 -0.31585947669E+03  0.31976003296E+03  0.10000000000E+01 0.  0.
    9000005    1    3    3    0    0  0.12863730220E+02  0.48091518105E+02 -0.70451915701E+02  0.86271328347E+02  0.10000000000E+01 0.  0.
<mgrwt>
<rscale>  0 0.12499990E+03</rscale>
<asrwt>0</asrwt>
<pdfrwt beam="1">  1        4 0.15169210E-02 0.12499990E+03</pdfrwt>
<pdfrwt beam="2">  1       -4 0.60949430E-01 0.12499990E+03</pdfrwt>
<totfact> 0.63970533E+03</totfact>
</mgrwt>
</event>
<event>
 5    1  0.3261711E-002  0.1249922E+03  0.7818608E-02  0.1235081E+00
          4   -1    0    0  501    0  0.00000000000E+00  0.00000000000E+00  0.15427444954E+02  0.15479630416E+02  0.12700000000E+01 0. -1.
         -4   -1    0    0    0  501 -0.00000000000E+00 -0.00000000000E+00 -0.25268849239E+03  0.25269168385E+03  0.12700000000E+01 0. -1.
         25    2    1    2    0    0  0.00000000000E+00  0.00000000000E+00 -0.23726104744E+03  0.26817131426E+03  0.12499219641E+03 0.  0.
    9000005    1    3    3    0    0  0.19919935141E+02 -0.59224230162E+02 -0.12006823059E+03  0.13535764940E+03  0.10000000000E+01 0.  0.
    9000005    1    3    3    0    0 -0.19919935141E+02  0.59224230162E+02 -0.11719281685E+03  0.13281366487E+03  0.10000000000E+01 0.  0.
<mgrwt>
<rscale>  0 0.12499220E+03</rscale>
<asrwt>0</asrwt>
<pdfrwt beam="1">  1        4 0.23777130E-02 0.12499220E+03</pdfrwt>
<pdfrwt beam="2">  1       -4 0.38879410E-01 0.12499220E+03</pdfrwt>
<totfact> 0.79786687E+03</totfact>
</mgrwt>
</event>
<event>
 5    1  0.3261711E-002  0.1250033E+03  0.7818608E-02  0.1235064E+00
         -4   -1    0    0    0  501 -0.00000000000E+00  0.00000000000E+00  0.14225214745E+03  0.14225781649E+03  0.12700000000E+01 0. -1.
          4   -1    0    0  501    0  0.00000000000E+00 -0.00000000000E+00 -0.27440599520E+02  0.27469972734E+02  0.12700000000E+01 0. -1.
         25    2    1    2    0    0  0.00000000000E+00  0.00000000000E+00  0.11481154793E+03  0.16972778923E+03  0.12500332355E+03 0.  0.
    9000005    1    3    3    0    0 -0.24585377731E+02 -0.98548354491E+01 -0.19448993451E+02  0.32875856280E+02  0.10000000000E+01 0.  0.
    9000005    1    3    3    0    0  0.24585377731E+02  0.98548354491E+01  0.13426054138E+03  0.13685193295E+03  0.10000000000E+01 0.  0.
<mgrwt>
<rscale>  0 0.12500332E+03</rscale>
<asrwt>0</asrwt>
<pdfrwt beam="2">  1        4 0.42243263E-02 0.12500332E+03</pdfrwt>
<pdfrwt beam="1">  1       -4 0.21887641E-01 0.12500332E+03</pdfrwt>
<totfact> 0.95492273E+03</totfact>
</mgrwt>
</event>
<event>
 5    1  0.3261711E-002  0.1249947E+03  0.7818608E-02  0.1235078E+00
         -4   -1    0    0    0  501 -0.00000000000E+00  0.00000000000E+00  0.10936862630E+04  0.10936870003E+04  0.12700000000E+01 0.  1.
          4   -1    0    0  501    0  0.00000000000E+00 -0.00000000000E+00 -0.34576655128E+01  0.36835242361E+01  0.12700000000E+01 0.  1.
         25    2    1    2    0    0  0.00000000000E+00  0.00000000000E+00  0.10902285975E+04  0.10973705246E+04  0.12499469385E+03 0.  0.
    9000005    1    3    3    0    0 -0.43602032310E+02  0.44664826094E+02  0.57120896523E+03  0.57461009899E+03  0.10000000000E+01 0.  0.
    9000005    1    3    3    0    0  0.43602032310E+02 -0.44664826094E+02  0.51901963223E+03  0.52276042558E+03  0.10000000000E+01 0.  0.
<mgrwt>
<rscale>  0 0.12499469E+03</rscale>
<asrwt>0</asrwt>
<pdfrwt beam="2">  1        4 0.54937818E-03 0.12499469E+03</pdfrwt>
<pdfrwt beam="1">  1       -4 0.16827711E+00 0.12499469E+03</pdfrwt>
<totfact> 0.27563613E+03</totfact>
</mgrwt>
</event>
<event>
 5    1  0.3261711E-002  0.1250084E+03  0.7818608E-02  0.1235056E+00
         -4   -1    0    0    0  501 -0.00000000000E+00  0.00000000000E+00  0.30424085746E+01  0.32968393857E+01  0.12700000000E+01 0. -1.
          4   -1    0    0  501    0  0.00000000000E+00 -0.00000000000E+00 -0.12323131935E+04  0.12323138479E+04  0.12700000000E+01 0. -1.
         25    2    1    2    0    0  0.00000000000E+00  0.00000000000E+00 -0.12292707849E+04  0.12356106873E+04  0.12500843136E+03 0.  0.
    9000005    1    3    3    0    0 -0.26841775545E+02 -0.47345398815E+02 -0.91827712590E+03  0.91988909531E+03  0.10000000000E+01 0.  0.
    9000005    1    3    3    0    0  0.26841775545E+02  0.47345398815E+02 -0.31099365903E+03  0.31572159201E+03  0.10000000000E+01 0.  0.
<mgrwt>
<rscale>  0 0.12500843E+03</rscale>
<asrwt>0</asrwt>
<pdfrwt beam="2">  1        4 0.18960589E+00 0.12500843E+03</pdfrwt>
<pdfrwt beam="1">  1       -4 0.48768578E-03 0.12500843E+03</pdfrwt>
<totfact> 0.23794894E+03</totfact>
</mgrwt>
</event>
<event>
 5    1  0.3261711E-002  0.1249975E+03  0.7818608E-02  0.1235073E+00
          4   -1    0    0  501    0  0.00000000000E+00  0.00000000000E+00  0.29834622503E+03  0.29834892808E+03  0.12700000000E+01 0. -1.
         -4   -1    0    0    0  501 -0.00000000000E+00 -0.00000000000E+00 -0.13058918505E+02  0.13120527905E+02  0.12700000000E+01 0. -1.
         25    2    1    2    0    0  0.00000000000E+00  0.00000000000E+00  0.28528730652E+03  0.31146945599E+03  0.12499749898E+03 0.  0.
    9000005    1    3    3    0    0 -0.56134477562E+02 -0.11075994074E+01  0.74276059606E+02  0.93114120187E+02  0.10000000000E+01 0.  0.
    9000005    1    3    3    0    0  0.56134477562E+02  0.11075994074E+01  0.21101124692E+03  0.21835533580E+03  0.10000000000E+01 0.  0.
<mgrwt>
<rscale>  0 0.12499750E+03</rscale>
<asrwt>0</asrwt>
<pdfrwt beam="1">  1        4 0.45904362E-01 0.12499750E+03</pdfrwt>
<pdfrwt beam="2">  1       -4 0.20140117E-02 0.12499750E+03</pdfrwt>
<totfact> 0.74186409E+03</totfact>
</mgrwt>
</event>
<event>
 5    1  0.3261711E-002  0.1249992E+03  0.7818608E-02  0.1235070E+00
         -4   -1    0    0    0  501 -0.00000000000E+00  0.00000000000E+00  0.10368564711E+02  0.10446053521E+02  0.12700000000E+01 0.  1.
          4   -1    0    0  501    0  0.00000000000E+00 -0.00000000000E+00 -0.37525405354E+03  0.37525620262E+03  0.12700000000E+01 0.  1.
         25    2    1    2    0    0  0.00000000000E+00  0.00000000000E+00 -0.36488548883E+03  0.38570225614E+03  0.12499924171E+03 0.  0.
    9000005    1    3    3    0    0  0.26958408902E+02  0.48549549632E+02 -0.94008802337E+02  0.10919006135E+03  0.10000000000E+01 0.  0.
    9000005    1    3    3    0    0 -0.26958408902E+02 -0.48549549632E+02 -0.27087668650E+03  0.27651219479E+03  0.10000000000E+01 0.  0.
<mgrwt>
<rscale>  0 0.12499924E+03</rscale>
<asrwt>0</asrwt>
<pdfrwt beam="2">  1        4 0.57737508E-01 0.12499924E+03</pdfrwt>
<pdfrwt beam="1">  1       -4 0.16012901E-02 0.12499924E+03</pdfrwt>
<totfact> 0.65968648E+03</totfact>
</mgrwt>
</event>
<event>
 5    1  0.3261711E-002  0.1250007E+03  0.7818608E-02  0.1235068E+00
          4   -1    0    0  501    0  0.00000000000E+00  0.00000000000E+00  0.59664085026E+01  0.61000762635E+01  0.12700000000E+01 0. -1.
         -4   -1    0    0    0  501 -0.00000000000E+00 -0.00000000000E+00 -0.64732696575E+03  0.64732821156E+03  0.12700000000E+01 0. -1.
         25    2    1    2    0    0  0.00000000000E+00  0.00000000000E+00 -0.64136055725E+03  0.65342828783E+03  0.12500065176E+03 0.  0.
    9000005    1    3    3    0    0  0.24747581923E+01  0.18780894004E+01 -0.64694867747E+03  0.64695690964E+03  0.10000000000E+01 0.  0.
    9000005    1    3    3    0    0 -0.24747581923E+01 -0.18780894004E+01  0.55881202288E+01  0.64713781838E+01  0.10000000000E+01 0.  0.
<mgrwt>
<rscale>  0 0.12500065E+03</rscale>
<asrwt>0</asrwt>
<pdfrwt beam="1">  1        4 0.92828748E-03 0.12500065E+03</pdfrwt>
<pdfrwt beam="2">  1       -4 0.99599087E-01 0.12500065E+03</pdfrwt>
<totfact> 0.45659022E+03</totfact>
</mgrwt>
</event>
<event>
 5    1  0.3261711E-002  0.1250023E+03  0.7818608E-02  0.1235066E+00
         -4   -1    0    0    0  501 -0.00000000000E+00  0.00000000000E+00  0.72195465574E+01  0.73303992043E+01  0.12700000000E+01 0. -1.
          4   -1    0    0  501    0  0.00000000000E+00 -0.00000000000E+00 -0.53685207349E+03  0.53685357567E+03  0.12700000000E+01 0. -1.
         25    2    1    2    0    0  0.00000000000E+00  0.00000000000E+00 -0.52963252694E+03  0.54418397488E+03  0.12500233968E+03 0.  0.
    9000005    1    3    3    0    0  0.22893248963E+02  0.52666942959E+02 -0.37211550157E+03  0.37652205014E+03  0.10000000000E+01 0.  0.
    9000005    1    3    3    0    0 -0.22893248963E+02 -0.52666942959E+02 -0.15751702536E+03  0.16766192474E+03  0.10000000000E+01 0.  0.
<mgrwt>
<rscale>  0 0.12500234E+03</rscale>
<asrwt>0</asrwt>
<pdfrwt beam="2">  1        4 0.82601238E-01 0.12500234E+03</pdfrwt>
<pdfrwt beam="1">  1       -4 0.11193426E-02 0.12500234E+03</pdfrwt>
<totfact> 0.52589436E+03</totfact>
</mgrwt>
</event>
<event>
 5    1  0.3261711E-002  0.1249633E+03  0.7818608E-02  0.1235127E+00
         -4   -1    0    0    0  501 -0.00000000000E+00  0.00000000000E+00  0.15010010694E+03  0.15010547959E+03  0.12700000000E+01 0. -1.
          4   -1    0    0  501    0  0.00000000000E+00 -0.00000000000E+00 -0.25987686748E+02  0.26018700246E+02  0.12700000000E+01 0. -1.
         25    2    1    2    0    0  0.00000000000E+00  0.00000000000E+00  0.12411242019E+03  0.17612417984E+03  0.12496333013E+03 0.  0.
    9000005    1    3    3    0    0  0.16007984072E+02 -0.52305754561E+02  0.10459160962E+03  0.11803623307E+03  0.10000000000E+01 0.  0.
    9000005    1    3    3    0    0 -0.16007984072E+02  0.52305754561E+02  0.19520810570E+02  0.58087946767E+02  0.10000000000E+01 0.  0.
<mgrwt>
<rscale>  0 0.12496333E+03</rscale>
<asrwt>0</asrwt>
<pdfrwt beam="2">  1        4 0.40009046E-02 0.12496333E+03</pdfrwt>
<pdfrwt beam="1">  1       -4 0.23095123E-01 0.12496333E+03</pdfrwt>
<totfact> 0.94396975E+03</totfact>
</mgrwt>
</event>
<event>
 5    1  0.3261711E-002  0.1249967E+03  0.7818608E-02  0.1235074E+00
         -4   -1    0    0    0  501 -0.00000000000E+00  0.00000000000E+00  0.42796414973E+02  0.42815254694E+02  0.12700000000E+01 0.  1.
          4   -1    0    0  501    0  0.00000000000E+00 -0.00000000000E+00 -0.91227017876E+02  0.91235857482E+02  0.12700000000E+01 0.  1.
         25    2    1    2    0    0  0.00000000000E+00  0.00000000000E+00 -0.48430602903E+02  0.13405111218E+03  0.12499670947E+03 0.  0.
    9000005    1    3    3    0    0  0.53553196443E+02 -0.31334649750E+02 -0.16244617097E+02  0.64145870552E+02  0.10000000000E+01 0.  0.
    9000005    1    3    3    0    0 -0.53553196443E+02  0.31334649750E+02 -0.32185985806E+02  0.69905241624E+02  0.10000000000E+01 0.  0.
<mgrwt>
<rscale>  0 0.12499671E+03</rscale>
<asrwt>0</asrwt>
<pdfrwt beam="2">  1        4 0.14037055E-01 0.12499671E+03</pdfrwt>
<pdfrwt beam="1">  1       -4 0.65861930E-02 0.12499671E+03</pdfrwt>
<totfact> 0.10258871E+04</totfact>
</mgrwt>
</event>
<event>
 5    1  0.3261711E-002  0.1249992E+03  0.7818608E-02  0.1235070E+00
          4   -1    0    0  501    0  0.00000000000E+00  0.00000000000E+00  0.29682456926E+03  0.29682728618E+03  0.12700000000E+01 0.  1.
         -4   -1    0    0    0  501 -0.00000000000E+00 -0.00000000000E+00 -0.13126547971E+02  0.13187841432E+02  0.12700000000E+01 0.  1.
         25    2    1    2    0    0  0.00000000000E+00  0.00000000000E+00  0.28369802129E+03  0.31001512761E+03  0.12499924824E+03 0.  0.
    9000005    1    3    3    0    0 -0.35260859692E+02 -0.18137718600E+02  0.22058240723E+02  0.45385802252E+02  0.10000000000E+01 0.  0.
    9000005    1    3    3    0    0  0.35260859692E+02  0.18137718600E+02  0.26163978057E+03  0.26462932536E+03  0.10000000000E+01 0.  0.
<mgrwt>
<rscale>  0 0.12499925E+03</rscale>
<asrwt>0</asrwt>
<pdfrwt beam="1">  1        4 0.45670238E-01 0.12499925E+03</pdfrwt>
<pdfrwt beam="2">  1       -4 0.20243930E-02 0.12499925E+03</pdfrwt>
<totfact> 0.74360732E+03</totfact>
</mgrwt>
</event>
<event>
 5    1  0.3261711E-002  0.1249987E+03  0.7818608E-02  0.1235071E+00
         -4   -1    0    0    0  501 -0.00000000000E+00  0.00000000000E+00  0.49057641229E+02  0.49074077301E+02  0.12700000000E+01 0.  1.
          4   -1    0    0  501    0  0.00000000000E+00 -0.00000000000E+00 -0.79589208503E+02  0.79599340513E+02  0.12700000000E+01 0.  1.
         25    2    1    2    0    0  0.00000000000E+00  0.00000000000E+00 -0.30531567274E+02  0.12867341781E+03  0.12499868740E+03 0.  0.
    9000005    1    3    3    0    0 -0.24037564474E+02  0.49245865938E+02 -0.46185589330E+02  0.71673345670E+02  0.10000000000E+01 0.  0.
    9000005    1    3    3    0    0  0.24037564474E+02 -0.49245865938E+02  0.15654022056E+02  0.57000072144E+02  0.10000000000E+01 0.  0.
<mgrwt>
<rscale>  0 0.12499869E+03</rscale>
<asrwt>0</asrwt>
<pdfrwt beam="2">  1        4 0.12246537E-01 0.12499869E+03</pdfrwt>
<pdfrwt beam="1">  1       -4 0.75493731E-02 0.12499869E+03</pdfrwt>
<totfact> 0.10373277E+04</totfact>
</mgrwt>
</event>
<event>
 5    1  0.3261711E-002  0.1250446E+03  0.7818608E-02  0.1235000E+00
          4   -1    0    0  501    0  0.00000000000E+00  0.00000000000E+00  0.15717349467E+02  0.15768575531E+02  0.12700000000E+01 0.  1.
         -4   -1    0    0    0  501 -0.00000000000E+00 -0.00000000000E+00 -0.24825114833E+03  0.24825439683E+03  0.12700000000E+01 0.  1.
         25    2    1    2    0    0  0.00000000000E+00  0.00000000000E+00 -0.23253379886E+03  0.26402297236E+03  0.12504464132E+03 0.  0.
    9000005    1    3    3    0    0  0.18099502204E+02 -0.29265738280E+02 -0.22646583648E+03  0.22906734929E+03  0.10000000000E+01 0.  0.
    9000005    1    3    3    0    0 -0.18099502204E+02  0.29265738280E+02 -0.60679623813E+01  0.34955623075E+02  0.10000000000E+01 0.  0.
<mgrwt>
<rscale>  0 0.12504464E+03</rscale>
<asrwt>0</asrwt>
<pdfrwt beam="1">  1        4 0.24222443E-02 0.12504464E+03</pdfrwt>
<pdfrwt beam="2">  1       -4 0.38196672E-01 0.12504464E+03</pdfrwt>
<totfact> 0.80265025E+03</totfact>
</mgrwt>
</event>
<event>
 5    1  0.3261711E-002  0.1250035E+03  0.7818608E-02  0.1235064E+00
         -4   -1    0    0    0  501 -0.00000000000E+00  0.00000000000E+00  0.67837542178E+02  0.67849429097E+02  0.12700000000E+01 0.  1.
          4   -1    0    0  501    0  0.00000000000E+00 -0.00000000000E+00 -0.57561717618E+02  0.57575726093E+02  0.12700000000E+01 0.  1.
         25    2    1    2    0    0  0.00000000000E+00  0.00000000000E+00  0.10275824560E+02  0.12542515519E+03  0.12500350789E+03 0.  0.
    9000005    1    3    3    0    0 -0.40416555964E+02 -0.50863759395E+01  0.52690810744E+02  0.66608488596E+02  0.10000000000E+01 0.  0.
    9000005    1    3    3    0    0  0.40416555964E+02  0.50863759395E+01 -0.42414986184E+02  0.58816666594E+02  0.10000000000E+01 0.  0.
<mgrwt>
<rscale>  0 0.12500351E+03</rscale>
<asrwt>0</asrwt>
<pdfrwt beam="2">  1        4 0.88576409E-02 0.12500351E+03</pdfrwt>
<pdfrwt beam="1">  1       -4 0.10438537E-01 0.12500351E+03</pdfrwt>
<totfact> 0.10442784E+04</totfact>
</mgrwt>
</event>
<event>
 5    1  0.3261711E-002  0.1250007E+03  0.7818608E-02  0.1235068E+00
          4   -1    0    0  501    0  0.00000000000E+00  0.00000000000E+00  0.27269410189E+03  0.27269705922E+03  0.12700000000E+01 0.  1.
         -4   -1    0    0    0  501 -0.00000000000E+00 -0.00000000000E+00 -0.14293618731E+02  0.14349928099E+02  0.12700000000E+01 0.  1.
         25    2    1    2    0    0  0.00000000000E+00  0.00000000000E+00  0.25840048316E+03  0.28704698732E+03  0.12500065292E+03 0.  0.
    9000005    1    3    3    0    0 -0.48397743108E+02 -0.24500655129E+02  0.57951238543E+02  0.79384946233E+02  0.10000000000E+01 0.  0.
    9000005    1    3    3    0    0  0.48397743108E+02  0.24500655129E+02  0.20044924462E+03  0.20766204108E+03  0.10000000000E+01 0.  0.
<mgrwt>
<rscale>  0 0.12500065E+03</rscale>
<asrwt>0</asrwt>
<pdfrwt beam="1">  1        4 0.41957497E-01 0.12500065E+03</pdfrwt>
<pdfrwt beam="2">  1       -4 0.22035773E-02 0.12500065E+03</pdfrwt>
<totfact> 0.77251787E+03</totfact>
</mgrwt>
</event>
<event>
 5    1  0.3261711E-002  0.1249996E+03  0.7818608E-02  0.1235070E+00
         -4   -1    0    0    0  501 -0.00000000000E+00  0.00000000000E+00  0.83429953188E+02  0.83439618820E+02  0.12700000000E+01 0. -1.
          4   -1    0    0  501    0  0.00000000000E+00 -0.00000000000E+00 -0.46799407656E+02  0.46816636541E+02  0.12700000000E+01 0. -1.
         25    2    1    2    0    0  0.00000000000E+00  0.00000000000E+00  0.36630545531E+02  0.13025625536E+03  0.12499958078E+03 0.  0.
    9000005    1    3    3    0    0  0.15693878535E+02  0.42656166438E+02 -0.26376281650E+02  0.52560009441E+02  0.10000000000E+01 0.  0.
    9000005    1    3    3    0    0 -0.15693878535E+02 -0.42656166438E+02  0.63006827181E+02  0.77696245921E+02  0.10000000000E+01 0.  0.
<mgrwt>
<rscale>  0 0.12499958E+03</rscale>
<asrwt>0</asrwt>
<pdfrwt beam="2">  1        4 0.72019778E-02 0.12499958E+03</pdfrwt>
<pdfrwt beam="1">  1       -4 0.12837446E-01 0.12499958E+03</pdfrwt>
<totfact> 0.10339127E+04</totfact>
</mgrwt>
</event>
<event>
 5    1  0.3261711E-002  0.1250014E+03  0.7818608E-02  0.1235067E+00
          4   -1    0    0  501    0  0.00000000000E+00  0.00000000000E+00  0.27006966953E+01  0.29844032301E+01  0.12700000000E+01 0.  1.
         -4   -1    0    0    0  501 -0.00000000000E+00 -0.00000000000E+00 -0.13739535251E+04  0.13739541120E+04  0.12700000000E+01 0.  1.
         25    2    1    2    0    0  0.00000000000E+00  0.00000000000E+00 -0.13712528284E+04  0.13769385153E+04  0.12500142187E+03 0.  0.
    9000005    1    3    3    0    0  0.54218934942E+02 -0.56041150151E+01 -0.10223153078E+04  0.10237678875E+04  0.10000000000E+01 0.  0.
    9000005    1    3    3    0    0 -0.54218934942E+02  0.56041150151E+01 -0.34893752061E+03  0.35317062775E+03  0.10000000000E+01 0.  0.
<mgrwt>
<rscale>  0 0.12500142E+03</rscale>
<asrwt>0</asrwt>
<pdfrwt beam="1">  1        4 0.43736163E-03 0.12500142E+03</pdfrwt>
<pdfrwt beam="2">  1       -4 0.21139880E+00 0.12500142E+03</pdfrwt>
<totfact> 0.20480711E+03</totfact>
</mgrwt>
</event>
<event>
 4    1  0.3261711E-002  0.1246048E+03  0.7818608E-02  0.1235688E+00
          4   -1    0    0  501    0  0.00000000000E+00  0.00000000000E+00  0.75951243427E+02  0.75961860681E+02  0.12700000000E+01 0. -1.
         -4   -1    0    0    0  501 -0.00000000000E+00 -0.00000000000E+00 -0.51084263729E+02  0.51100047952E+02  0.12700000000E+01 0. -1.
    9000005    1    1    2    0    0  0.59084417846E+02  0.30389022249E+00 -0.76922017191E+01  0.59592203758E+02  0.10000000000E+01 0.  0.
    9000005    1    1    2    0    0 -0.59084417846E+02 -0.30389022249E+00  0.32559181417E+02  0.67469704876E+02  0.10000000000E+01 0.  0.
<mgrwt>
<rscale>  0 0.12460482E+03</rscale>
<asrwt>0</asrwt>
<pdfrwt beam="1">  1        4 0.11686838E-01 0.12460482E+03</pdfrwt>
<pdfrwt beam="2">  1       -4 0.78611483E-02 0.12460482E+03</pdfrwt>
<totfact> 0.10501195E+04</totfact>
</mgrwt>
</event>
<event>
 5    1  0.3261711E-002  0.1249913E+03  0.7818608E-02  0.1235083E+00
         -4   -1    0    0    0  501 -0.00000000000E+00  0.00000000000E+00  0.75395365252E+02  0.75406060775E+02  0.12700000000E+01 0. -1.
          4   -1    0    0  501    0  0.00000000000E+00 -0.00000000000E+00 -0.51780845032E+02  0.51796416982E+02  0.12700000000E+01 0. -1.
         25    2    1    2    0    0  0.00000000000E+00  0.00000000000E+00  0.23614520221E+02  0.12720247776E+03  0.12499129883E+03 0.  0.
    9000005    1    3    3    0    0 -0.13531376481E+02 -0.99503580897E+01  0.73060051733E+02  0.74972521198E+02  0.10000000000E+01 0.  0.
    9000005    1    3    3    0    0  0.13531376481E+02  0.99503580897E+01 -0.49445531513E+02  0.52229956559E+02  0.10000000000E+01 0.  0.
<mgrwt>
<rscale>  0 0.12499130E+03</rscale>
<asrwt>0</asrwt>
<pdfrwt beam="2">  1        4 0.79683044E-02 0.12499130E+03</pdfrwt>
<pdfrwt beam="1">  1       -4 0.11601308E-01 0.12499130E+03</pdfrwt>
<totfact> 0.10406794E+04</totfact>
</mgrwt>
</event>
<event>
 5    1  0.3261711E-002  0.1250010E+03  0.7818608E-02  0.1235068E+00
         -4   -1    0    0    0  501 -0.00000000000E+00  0.00000000000E+00  0.52843619470E+03  0.52843772081E+03  0.12700000000E+01 0. -1.
          4   -1    0    0  501    0  0.00000000000E+00 -0.00000000000E+00 -0.73361188792E+01  0.74452360748E+01  0.12700000000E+01 0. -1.
         25    2    1    2    0    0  0.00000000000E+00  0.00000000000E+00  0.52110007582E+03  0.53588295688E+03  0.12500101781E+03 0.  0.
    9000005    1    3    3    0    0  0.18564597949E+01  0.61530636005E+02  0.30669249023E+03  0.31281104388E+03  0.10000000000E+01 0.  0.
    9000005    1    3    3    0    0 -0.18564597949E+01 -0.61530636005E+02  0.21440758559E+03  0.22307191300E+03  0.10000000000E+01 0.  0.
<mgrwt>
<rscale>  0 0.12500102E+03</rscale>
<asrwt>0</asrwt>
<pdfrwt beam="2">  1        4 0.11371447E-02 0.12500102E+03</pdfrwt>
<pdfrwt beam="1">  1       -4 0.81306386E-01 0.12500102E+03</pdfrwt>
<totfact> 0.53182762E+03</totfact>
</mgrwt>
</event>
<event>
 5    1  0.3261711E-002  0.1249980E+03  0.7818608E-02  0.1235072E+00
         -4   -1    0    0    0  501 -0.00000000000E+00  0.00000000000E+00  0.43469506483E+02  0.43488054611E+02  0.12700000000E+01 0.  1.
          4   -1    0    0  501    0  0.00000000000E+00 -0.00000000000E+00 -0.89816756472E+02  0.89825734860E+02  0.12700000000E+01 0.  1.
         25    2    1    2    0    0  0.00000000000E+00  0.00000000000E+00 -0.46347249989E+02  0.13331378947E+03  0.12499799551E+03 0.  0.
    9000005    1    3    3    0    0 -0.36371552310E+02  0.40990339428E+02  0.88582077301E+01  0.55520857235E+02  0.10000000000E+01 0.  0.
    9000005    1    3    3    0    0  0.36371552310E+02 -0.40990339428E+02 -0.55205457719E+02  0.77792932236E+02  0.10000000000E+01 0.  0.
<mgrwt>
<rscale>  0 0.12499800E+03</rscale>
<asrwt>0</asrwt>
<pdfrwt beam="2">  1        4 0.13820080E-01 0.12499800E+03</pdfrwt>
<pdfrwt beam="1">  1       -4 0.66897338E-02 0.12499800E+03</pdfrwt>
<totfact> 0.10274200E+04</totfact>
</mgrwt>
</event>
<event>
 5    1  0.3261711E-002  0.1249960E+03  0.7818608E-02  0.1235076E+00
          4   -1    0    0  501    0  0.00000000000E+00  0.00000000000E+00  0.15515342307E+03  0.15515862074E+03  0.12700000000E+01 0.  1.
         -4   -1    0    0    0  501 -0.00000000000E+00 -0.00000000000E+00 -0.25153433075E+02  0.25185473898E+02  0.12700000000E+01 0.  1.
         25    2    1    2    0    0  0.00000000000E+00  0.00000000000E+00  0.12999998999E+03  0.18034409464E+03  0.12499598023E+03 0.  0.
    9000005    1    3    3    0    0 -0.27373871326E+02 -0.33320521259E+02 -0.25238609988E+00  0.43135248545E+02  0.10000000000E+01 0.  0.
    9000005    1    3    3    0    0  0.27373871326E+02  0.33320521259E+02  0.13025237609E+03  0.13720884609E+03  0.10000000000E+01 0.  0.
<mgrwt>
<rscale>  0 0.12499598E+03</rscale>
<asrwt>0</asrwt>
<pdfrwt beam="1">  1        4 0.23872622E-01 0.12499598E+03</pdfrwt>
<pdfrwt beam="2">  1       -4 0.38726234E-02 0.12499598E+03</pdfrwt>
<totfact> 0.93563534E+03</totfact>
</mgrwt>
</event>
<event>
 5    1  0.3261711E-002  0.1249617E+03  0.7818608E-02  0.1235129E+00
         -4   -1    0    0    0  501 -0.00000000000E+00  0.00000000000E+00  0.89770267326E+01  0.90664165444E+01  0.12700000000E+01 0.  1.
          4   -1    0    0  501    0  0.00000000000E+00 -0.00000000000E+00 -0.43262681026E+03  0.43262867433E+03  0.12700000000E+01 0.  1.
         25    2    1    2    0    0  0.00000000000E+00  0.00000000000E+00 -0.42364978353E+03  0.44169509088E+03  0.12496165101E+03 0.  0.
    9000005    1    3    3    0    0 -0.37322051306E+02 -0.37347274657E+02 -0.32985764945E+03  0.33405811372E+03  0.10000000000E+01 0.  0.
    9000005    1    3    3    0    0  0.37322051306E+02  0.37347274657E+02 -0.93792134074E+02  0.10763697716E+03  0.10000000000E+01 0.  0.
<mgrwt>
<rscale>  0 0.12496165E+03</rscale>
<asrwt>0</asrwt>
<pdfrwt beam="2">  1        4 0.66564974E-01 0.12496165E+03</pdfrwt>
<pdfrwt beam="1">  1       -4 0.13881009E-02 0.12496165E+03</pdfrwt>
<totfact> 0.60741349E+03</totfact>
</mgrwt>
</event>
<event>
 5    1  0.3261711E-002  0.1250053E+03  0.7818608E-02  0.1235061E+00
          4   -1    0    0  501    0  0.00000000000E+00  0.00000000000E+00  0.49233818997E+03  0.49233982797E+03  0.12700000000E+01 0.  1.
         -4   -1    0    0    0  501 -0.00000000000E+00 -0.00000000000E+00 -0.78822757543E+01  0.79839320555E+01  0.12700000000E+01 0.  1.
         25    2    1    2    0    0  0.00000000000E+00  0.00000000000E+00  0.48445591422E+03  0.50032376003E+03  0.12500532799E+03 0.  0.
    9000005    1    3    3    0    0  0.47969505853E+02  0.15314188159E+02  0.39037075220E+03  0.39360630334E+03  0.10000000000E+01 0.  0.
    9000005    1    3    3    0    0 -0.47969505853E+02 -0.15314188159E+02  0.94085162018E+02  0.10671745669E+03  0.10000000000E+01 0.  0.
<mgrwt>
<rscale>  0 0.12500533E+03</rscale>
<asrwt>0</asrwt>
<pdfrwt beam="1">  1        4 0.75752300E-01 0.12500533E+03</pdfrwt>
<pdfrwt beam="2">  1       -4 0.12206032E-02 0.12500533E+03</pdfrwt>
<totfact> 0.55832704E+03</totfact>
</mgrwt>
</event>
<event>
 5    1  0.3261711E-002  0.1250028E+03  0.7818608E-02  0.1235065E+00
         -4   -1    0    0    0  501 -0.00000000000E+00  0.00000000000E+00  0.30791520166E+02  0.30817699690E+02  0.12700000000E+01 0. -1.
          4   -1    0    0  501    0  0.00000000000E+00 -0.00000000000E+00 -0.12678371032E+03  0.12679007100E+03  0.12700000000E+01 0. -1.
         25    2    1    2    0    0  0.00000000000E+00  0.00000000000E+00 -0.95992190157E+02  0.15760777069E+03  0.12500283521E+03 0.  0.
    9000005    1    3    3    0    0  0.42943840591E+02  0.44238552347E+02 -0.35125445500E+02  0.70964920066E+02  0.10000000000E+01 0.  0.
    9000005    1    3    3    0    0 -0.42943840591E+02 -0.44238552347E+02 -0.60866744658E+02  0.86642850621E+02  0.10000000000E+01 0.  0.
<mgrwt>
<rscale>  0 0.12500284E+03</rscale>
<asrwt>0</asrwt>
<pdfrwt beam="2">  1        4 0.19507689E-01 0.12500284E+03</pdfrwt>
<pdfrwt beam="1">  1       -4 0.47396601E-02 0.12500284E+03</pdfrwt>
<totfact> 0.97799746E+03</totfact>
</mgrwt>
</event>
<event>
 5    1  0.3261711E-002  0.1249990E+03  0.7818608E-02  0.1235071E+00
          4   -1    0    0  501    0  0.00000000000E+00  0.00000000000E+00  0.81842731576E+02  0.81852584637E+02  0.12700000000E+01 0. -1.
         -4   -1    0    0    0  501 -0.00000000000E+00 -0.00000000000E+00 -0.47706803218E+02  0.47723704522E+02  0.12700000000E+01 0. -1.
         25    2    1    2    0    0  0.00000000000E+00  0.00000000000E+00  0.34135928358E+02  0.12957628916E+03  0.12499901243E+03 0.  0.
    9000005    1    3    3    0    0  0.26669437758E+01 -0.31685889406E+02  0.72834572268E+02  0.79479450766E+02  0.10000000000E+01 0.  0.
    9000005    1    3    3    0    0 -0.26669437758E+01  0.31685889406E+02 -0.38698643910E+02  0.50096838394E+02  0.10000000000E+01 0.  0.
<mgrwt>
<rscale>  0 0.12499901E+03</rscale>
<asrwt>0</asrwt>
<pdfrwt beam="1">  1        4 0.12593247E-01 0.12499901E+03</pdfrwt>
<pdfrwt beam="2">  1       -4 0.73415663E-02 0.12499901E+03</pdfrwt>
<totfact> 0.10353811E+04</totfact>
</mgrwt>
</event>
<event>
 5    1  0.3261711E-002  0.1250084E+03  0.7818608E-02  0.1235056E+00
          4   -1    0    0  501    0  0.00000000000E+00  0.00000000000E+00  0.29874066744E+03  0.29874336693E+03  0.12700000000E+01 0. -1.
         -4   -1    0    0    0  501 -0.00000000000E+00 -0.00000000000E+00 -0.13043885435E+02  0.13105565506E+02  0.12700000000E+01 0. -1.
         25    2    1    2    0    0  0.00000000000E+00  0.00000000000E+00  0.28569678201E+03  0.31184893243E+03  0.12500842136E+03 0.  0.
    9000005    1    3    3    0    0  0.35994471806E+02 -0.21064276926E+02  0.26735245643E+02  0.49548755005E+02  0.10000000000E+01 0.  0.
    9000005    1    3    3    0    0 -0.35994471806E+02  0.21064276926E+02  0.25896153636E+03  0.26230017743E+03  0.10000000000E+01 0.  0.
<mgrwt>
<rscale>  0 0.12500842E+03</rscale>
<asrwt>0</asrwt>
<pdfrwt beam="1">  1        4 0.45965059E-01 0.12500842E+03</pdfrwt>
<pdfrwt beam="2">  1       -4 0.20117037E-02 0.12500842E+03</pdfrwt>
<totfact> 0.74122317E+03</totfact>
</mgrwt>
</event>
<event>
 5    1  0.3261711E-002  0.1249963E+03  0.7818608E-02  0.1235075E+00
          4   -1    0    0  501    0  0.00000000000E+00  0.00000000000E+00  0.12878660529E+02  0.12941128120E+02  0.12700000000E+01 0. -1.
         -4   -1    0    0    0  501 -0.00000000000E+00 -0.00000000000E+00 -0.30249619432E+03  0.30249886029E+03  0.12700000000E+01 0. -1.
         25    2    1    2    0    0  0.00000000000E+00  0.00000000000E+00 -0.28961753379E+03  0.31543998841E+03  0.12499628158E+03 0.  0.
    9000005    1    3    3    0    0  0.56227189762E+02  0.10514811722E+02 -0.81318433908E+02  0.99427087996E+02  0.10000000000E+01 0.  0.
    9000005    1    3    3    0    0 -0.56227189762E+02 -0.10514811722E+02 -0.20829909988E+03  0.21601290042E+03  0.10000000000E+01 0.  0.
<mgrwt>
<rscale>  0 0.12499628E+03</rscale>
<asrwt>0</asrwt>
<pdfrwt beam="1">  1        4 0.19863429E-02 0.12499628E+03</pdfrwt>
<pdfrwt beam="2">  1       -4 0.46542881E-01 0.12499628E+03</pdfrwt>
<totfact> 0.73707860E+03</totfact>
</mgrwt>
</event>
<event>
 5    1  0.3261711E-002  0.1250072E+03  0.7818608E-02  0.1235058E+00
         -4   -1    0    0    0  501 -0.00000000000E+00  0.00000000000E+00  0.20432754578E+02  0.20472185023E+02  0.12700000000E+01 0.  1.
          4   -1    0    0  501    0  0.00000000000E+00 -0.00000000000E+00 -0.19097202688E+03  0.19097624970E+03  0.12700000000E+01 0.  1.
         25    2    1    2    0    0  0.00000000000E+00  0.00000000000E+00 -0.17053927230E+03  0.21144843472E+03  0.12500718840E+03 0.  0.
    9000005    1    3    3    0    0  0.38668188407E+01  0.25455025999E+02  0.11053099726E+02  0.28037147681E+02  0.10000000000E+01 0.  0.
    9000005    1    3    3    0    0 -0.38668188407E+01 -0.25455025999E+02 -0.18159237203E+03  0.18341128704E+03  0.10000000000E+01 0.  0.
<mgrwt>
<rscale>  0 0.12500719E+03</rscale>
<asrwt>0</asrwt>
<pdfrwt beam="2">  1        4 0.29383669E-01 0.12500719E+03</pdfrwt>
<pdfrwt beam="1">  1       -4 0.31468588E-02 0.12500719E+03</pdfrwt>
<totfact> 0.88225701E+03</totfact>
</mgrwt>
</event>
<event>
 5    1  0.3261711E-002  0.1250013E+03  0.7818608E-02  0.1235067E+00
          4   -1    0    0  501    0  0.00000000000E+00  0.00000000000E+00  0.19387948890E+02  0.19429499792E+02  0.12700000000E+01 0. -1.
         -4   -1    0    0    0  501 -0.00000000000E+00 -0.00000000000E+00 -0.20122313764E+03  0.20122714534E+03  0.12700000000E+01 0. -1.
         25    2    1    2    0    0  0.00000000000E+00  0.00000000000E+00 -0.18183518875E+03  0.22065664513E+03  0.12500127669E+03 0.  0.
    9000005    1    3    3    0    0  0.91971264117E+01  0.38048818882E+02 -0.49263605701E+01  0.39466045926E+02  0.10000000000E+01 0.  0.
    9000005    1    3    3    0    0 -0.91971264117E+01 -0.38048818882E+02 -0.17690882818E+03  0.18119059920E+03  0.10000000000E+01 0.  0.
<mgrwt>
<rscale>  0 0.12500128E+03</rscale>
<asrwt>0</asrwt>
<pdfrwt beam="1">  1        4 0.29862660E-02 0.12500128E+03</pdfrwt>
<pdfrwt beam="2">  1       -4 0.30960909E-01 0.12500128E+03</pdfrwt>
<totfact> 0.86762077E+03</totfact>
</mgrwt>
</event>
<event>
 5    1  0.3261711E-002  0.1250005E+03  0.7818608E-02  0.1235068E+00
         -4   -1    0    0    0  501 -0.00000000000E+00  0.00000000000E+00  0.39649851613E+02  0.39670185694E+02  0.12700000000E+01 0.  1.
          4   -1    0    0  501    0  0.00000000000E+00 -0.00000000000E+00 -0.98469774741E+02  0.98477964223E+02  0.12700000000E+01 0.  1.
         25    2    1    2    0    0  0.00000000000E+00  0.00000000000E+00 -0.58819923128E+02  0.13814814992E+03  0.12500051187E+03 0.  0.
    9000005    1    3    3    0    0 -0.55377774717E+01 -0.48112674164E+02 -0.73058100872E+02  0.87658328170E+02  0.10000000000E+01 0.  0.
    9000005    1    3    3    0    0  0.55377774717E+01  0.48112674164E+02  0.14238177745E+02  0.50489821747E+02  0.10000000000E+01 0.  0.
<mgrwt>
<rscale>  0 0.12500051E+03</rscale>
<asrwt>0</asrwt>
<pdfrwt beam="2">  1        4 0.15151390E-01 0.12500051E+03</pdfrwt>
<pdfrwt beam="1">  1       -4 0.61021713E-02 0.12500051E+03</pdfrwt>
<totfact> 0.10171994E+04</totfact>
</mgrwt>
</event>
<event>
 5    1  0.3261711E-002  0.1250013E+03  0.7818608E-02  0.1235067E+00
         -4   -1    0    0    0  501 -0.00000000000E+00  0.00000000000E+00  0.30610028135E+03  0.30610291593E+03  0.12700000000E+01 0.  1.
          4   -1    0    0  501    0  0.00000000000E+00 -0.00000000000E+00 -0.12727323082E+02  0.12790529811E+02  0.12700000000E+01 0.  1.
         25    2    1    2    0    0  0.00000000000E+00  0.00000000000E+00  0.29337295826E+03  0.31889344574E+03  0.12500134837E+03 0.  0.
    9000005    1    3    3    0    0 -0.11130553971E+02 -0.38436229542E+02  0.24230024922E+02  0.46790245573E+02  0.10000000000E+01 0.  0.
    9000005    1    3    3    0    0  0.11130553971E+02  0.38436229542E+02  0.26914293334E+03  0.27210320017E+03  0.10000000000E+01 0.  0.
<mgrwt>
<rscale>  0 0.12500135E+03</rscale>
<asrwt>0</asrwt>
<pdfrwt beam="2">  1        4 0.19631143E-02 0.12500135E+03</pdfrwt>
<pdfrwt beam="1">  1       -4 0.47097419E-01 0.12500135E+03</pdfrwt>
<totfact> 0.73285734E+03</totfact>
</mgrwt>
</event>
<event>
 5    1  0.3261711E-002  0.1250103E+03  0.7818608E-02  0.1235053E+00
          4   -1    0    0  501    0  0.00000000000E+00  0.00000000000E+00  0.11662650933E+02  0.11731595236E+02  0.12700000000E+01 0. -1.
         -4   -1    0    0    0  501 -0.00000000000E+00 -0.00000000000E+00 -0.33393435898E+03  0.33393677396E+03  0.12700000000E+01 0. -1.
         25    2    1    2    0    0  0.00000000000E+00  0.00000000000E+00 -0.32227170804E+03  0.34566836920E+03  0.12501027022E+03 0.  0.
    9000005    1    3    3    0    0 -0.60205909069E+02  0.12613225655E+02 -0.13058822962E+03  0.14435418478E+03  0.10000000000E+01 0.  0.
    9000005    1    3    3    0    0  0.60205909069E+02 -0.12613225655E+02 -0.19168347843E+03  0.20131418442E+03  0.10000000000E+01 0.  0.
<mgrwt>
<rscale>  0 0.12501027E+03</rscale>
<asrwt>0</asrwt>
<pdfrwt beam="1">  1        4 0.17997434E-02 0.12501027E+03</pdfrwt>
<pdfrwt beam="2">  1       -4 0.51379999E-01 0.12501027E+03</pdfrwt>
<totfact> 0.70187777E+03</totfact>
</mgrwt>
</event>
<event>
 5    1  0.3261711E-002  0.1249996E+03  0.7818608E-02  0.1235070E+00
          4   -1    0    0  501    0  0.00000000000E+00  0.00000000000E+00  0.26093724670E+03  0.26094033727E+03  0.12700000000E+01 0. -1.
         -4   -1    0    0    0  501 -0.00000000000E+00 -0.00000000000E+00 -0.14939847900E+02  0.14993730532E+02  0.12700000000E+01 0. -1.
         25    2    1    2    0    0  0.00000000000E+00  0.00000000000E+00  0.24599739880E+03  0.27593406780E+03  0.12499955823E+03 0.  0.
    9000005    1    3    3    0    0 -0.46618572785E+02 -0.38827410406E+02  0.89933380307E+02  0.10848904102E+03  0.10000000000E+01 0.  0.
    9000005    1    3    3    0    0  0.46618572785E+02  0.38827410406E+02  0.15606401849E+03  0.16744502678E+03  0.10000000000E+01 0.  0.
<mgrwt>
<rscale>  0 0.12499956E+03</rscale>
<asrwt>0</asrwt>
<pdfrwt beam="1">  1        4 0.40148579E-01 0.12499956E+03</pdfrwt>
<pdfrwt beam="2">  1       -4 0.23028204E-02 0.12499956E+03</pdfrwt>
<totfact> 0.78721094E+03</totfact>
</mgrwt>
</event>
<event>
 5    1  0.3261711E-002  0.1249998E+03  0.7818608E-02  0.1235070E+00
         -4   -1    0    0    0  501 -0.00000000000E+00  0.00000000000E+00  0.14386956159E+02  0.14442901631E+02  0.12700000000E+01 0.  1.
          4   -1    0    0  501    0  0.00000000000E+00 -0.00000000000E+00 -0.27092813037E+03  0.27093110697E+03  0.12700000000E+01 0.  1.
         25    2    1    2    0    0  0.00000000000E+00  0.00000000000E+00 -0.25654117421E+03  0.28537400860E+03  0.12499980288E+03 0.  0.
    9000005    1    3    3    0    0  0.59702814143E+02  0.16256012566E+02 -0.14824565364E+03  0.16064388499E+03  0.10000000000E+01 0.  0.
    9000005    1    3    3    0    0 -0.59702814143E+02 -0.16256012566E+02 -0.10829552057E+03  0.12473012361E+03  0.10000000000E+01 0.  0.
<mgrwt>
<rscale>  0 0.12499980E+03</rscale>
<asrwt>0</asrwt>
<pdfrwt beam="2">  1        4 0.41685780E-01 0.12499980E+03</pdfrwt>
<pdfrwt beam="1">  1       -4 0.22179105E-02 0.12499980E+03</pdfrwt>
<totfact> 0.77471245E+03</totfact>
</mgrwt>
</event>
<event>
 5    1  0.3261711E-002  0.1249906E+03  0.7818608E-02  0.1235084E+00
          4   -1    0    0  501    0  0.00000000000E+00  0.00000000000E+00  0.24747649641E+03  0.24747975508E+03  0.12700000000E+01 0. -1.
         -4   -1    0    0    0  501 -0.00000000000E+00 -0.00000000000E+00 -0.15753025749E+02  0.15804136175E+02  0.12700000000E+01 0. -1.
         25    2    1    2    0    0  0.00000000000E+00  0.00000000000E+00  0.23172347066E+03  0.26328389126E+03  0.12499056180E+03 0.  0.
    9000005    1    3    3    0    0 -0.95219405472E+01 -0.57628183306E+02  0.69092093892E+02  0.90478684237E+02  0.10000000000E+01 0.  0.
    9000005    1    3    3    0    0  0.95219405472E+01  0.57628183306E+02  0.16263137677E+03  0.17280520702E+03  0.10000000000E+01 0.  0.
<mgrwt>
<rscale>  0 0.12499056E+03</rscale>
<asrwt>0</asrwt>
<pdfrwt beam="1">  1        4 0.38077485E-01 0.12499056E+03</pdfrwt>
<pdfrwt beam="2">  1       -4 0.24277250E-02 0.12499056E+03</pdfrwt>
<totfact> 0.80464313E+03</totfact>
</mgrwt>
</event>
<event>
 5    1  0.3261711E-002  0.1250000E+03  0.7818608E-02  0.1235069E+00
         -4   -1    0    0    0  501 -0.00000000000E+00  0.00000000000E+00  0.12932917680E+02  0.12995124460E+02  0.12700000000E+01 0.  1.
          4   -1    0    0  501    0  0.00000000000E+00 -0.00000000000E+00 -0.30125119924E+03  0.30125387623E+03  0.12700000000E+01 0.  1.
         25    2    1    2    0    0  0.00000000000E+00  0.00000000000E+00 -0.28831828156E+03  0.31424900069E+03  0.12500001181E+03 0.  0.
    9000005    1    3    3    0    0  0.53315998685E+02  0.32197170436E+02 -0.13134092849E+03  0.14536400172E+03  0.10000000000E+01 0.  0.
    9000005    1    3    3    0    0 -0.53315998685E+02 -0.32197170436E+02 -0.15697735307E+03  0.16888499897E+03  0.10000000000E+01 0.  0.
<mgrwt>
<rscale>  0 0.12500001E+03</rscale>
<asrwt>0</asrwt>
<pdfrwt beam="2">  1        4 0.46351324E-01 0.12500001E+03</pdfrwt>
<pdfrwt beam="1">  1       -4 0.19946709E-02 0.12500001E+03</pdfrwt>
<totfact> 0.73845375E+03</totfact>
</mgrwt>
</event>
<event>
 5    1  0.3261711E-002  0.1249975E+03  0.7818608E-02  0.1235073E+00
         -4   -1    0    0    0  501 -0.00000000000E+00  0.00000000000E+00  0.47329644940E+02  0.47346680878E+02  0.12700000000E+01 0.  1.
          4   -1    0    0  501    0  0.00000000000E+00 -0.00000000000E+00 -0.82492740977E+02  0.82502516409E+02  0.12700000000E+01 0.  1.
         25    2    1    2    0    0  0.00000000000E+00  0.00000000000E+00 -0.35163096037E+02  0.12984919729E+03  0.12499748283E+03 0.  0.
    9000005    1    3    3    0    0  0.48456376754E+02  0.13356315372E+02  0.20990252149E+02  0.54479374938E+02  0.10000000000E+01 0.  0.
    9000005    1    3    3    0    0 -0.48456376754E+02 -0.13356315372E+02 -0.56153348186E+02  0.75369822349E+02  0.10000000000E+01 0.  0.
<mgrwt>
<rscale>  0 0.12499748E+03</rscale>
<asrwt>0</asrwt>
<pdfrwt beam="2">  1        4 0.12693253E-01 0.12499748E+03</pdfrwt>
<pdfrwt beam="1">  1       -4 0.72835462E-02 0.12499748E+03</pdfrwt>
<totfact> 0.10348322E+04</totfact>
</mgrwt>
</event>
<event>
 5    1  0.3261711E-002  0.1250001E+03  0.7818608E-02  0.1235069E+00
          4   -1    0    0  501    0  0.00000000000E+00  0.00000000000E+00  0.30607766005E+03  0.30608029483E+03  0.12700000000E+01 0. -1.
         -4   -1    0    0    0  501 -0.00000000000E+00 -0.00000000000E+00 -0.12728016369E+02  0.12791219672E+02  0.12700000000E+01 0. -1.
         25    2    1    2    0    0  0.00000000000E+00  0.00000000000E+00  0.29334964368E+03  0.31887151450E+03  0.12500011725E+03 0.  0.
    9000005    1    3    3    0    0 -0.19994895699E+02 -0.52819287139E+02  0.78435338477E+02  0.96658032620E+02  0.10000000000E+01 0.  0.
    9000005    1    3    3    0    0  0.19994895699E+02  0.52819287139E+02  0.21491430521E+03  0.22221348188E+03  0.10000000000E+01 0.  0.
<mgrwt>
<rscale>  0 0.12500012E+03</rscale>
<asrwt>0</asrwt>
<pdfrwt beam="1">  1        4 0.47093938E-01 0.12500012E+03</pdfrwt>
<pdfrwt beam="2">  1       -4 0.19632207E-02 0.12500012E+03</pdfrwt>
<totfact> 0.73290350E+03</totfact>
</mgrwt>
</event>
<event>
 5    1  0.3261711E-002  0.1249990E+03  0.7818608E-02  0.1235071E+00
          4   -1    0    0  501    0  0.00000000000E+00  0.00000000000E+00  0.21136570090E+02  0.21174689966E+02  0.12700000000E+01 0.  1.
         -4   -1    0    0    0  501 -0.00000000000E+00 -0.00000000000E+00 -0.18460026644E+03  0.18460463502E+03  0.12700000000E+01 0.  1.
         25    2    1    2    0    0  0.00000000000E+00  0.00000000000E+00 -0.16346369635E+03  0.20577932498E+03  0.12499900226E+03 0.  0.
    9000005    1    3    3    0    0  0.18004542237E+02  0.17692106763E+02  0.12378441456E+02  0.28131832428E+02  0.10000000000E+01 0.  0.
    9000005    1    3    3    0    0 -0.18004542237E+02 -0.17692106763E+02 -0.17584213781E+03  0.17764749256E+03  0.10000000000E+01 0.  0.
<mgrwt>
<rscale>  0 0.12499900E+03</rscale>
<asrwt>0</asrwt>
<pdfrwt beam="1">  1        4 0.32550485E-02 0.12499900E+03</pdfrwt>
<pdfrwt beam="2">  1       -4 0.28403308E-01 0.12499900E+03</pdfrwt>
<totfact> 0.89171835E+03</totfact>
</mgrwt>
</event>
<event>
 5    1  0.3261711E-002  0.1250016E+03  0.7818608E-02  0.1235067E+00
          4   -1    0    0  501    0  0.00000000000E+00  0.00000000000E+00  0.15960851487E+02  0.16011298517E+02  0.12700000000E+01 0. -1.
         -4   -1    0    0    0  501 -0.00000000000E+00 -0.00000000000E+00 -0.24430736298E+03  0.24431066392E+03  0.12700000000E+01 0. -1.
         25    2    1    2    0    0  0.00000000000E+00  0.00000000000E+00 -0.22834651149E+03  0.26032196244E+03  0.12500157926E+03 0.  0.
    9000005    1    3    3    0    0  0.28729429036E+02 -0.54464816808E+02 -0.91981413489E+02  0.11069497184E+03  0.10000000000E+01 0.  0.
    9000005    1    3    3    0    0 -0.28729429036E+02  0.54464816808E+02 -0.13636509800E+03  0.14962699060E+03  0.10000000000E+01 0.  0.
<mgrwt>
<rscale>  0 0.12500158E+03</rscale>
<asrwt>0</asrwt>
<pdfrwt beam="1">  1        4 0.24596502E-02 0.12500158E+03</pdfrwt>
<pdfrwt beam="2">  1       -4 0.37589880E-01 0.12500158E+03</pdfrwt>
<totfact> 0.80858058E+03</totfact>
</mgrwt>
</event>
<event>
 5    1  0.3261711E-002  0.1249980E+03  0.7818608E-02  0.1235072E+00
         -4   -1    0    0    0  501 -0.00000000000E+00  0.00000000000E+00  0.76428627873E+02  0.76439178819E+02  0.12700000000E+01 0.  1.
          4   -1    0    0  501    0  0.00000000000E+00 -0.00000000000E+00 -0.51086155767E+02  0.51101939406E+02  0.12700000000E+01 0.  1.
         25    2    1    2    0    0  0.00000000000E+00  0.00000000000E+00  0.25342472106E+02  0.12754111823E+03  0.12499798377E+03 0.  0.
    9000005    1    3    3    0    0 -0.34626029026E+02  0.83249462245E+01  0.65066318986E+02  0.74181483418E+02  0.10000000000E+01 0.  0.
    9000005    1    3    3    0    0  0.34626029026E+02 -0.83249462245E+01 -0.39723846880E+02  0.53359634807E+02  0.10000000000E+01 0.  0.
<mgrwt>
<rscale>  0 0.12499798E+03</rscale>
<asrwt>0</asrwt>
<pdfrwt beam="2">  1        4 0.78614343E-02 0.12499798E+03</pdfrwt>
<pdfrwt beam="1">  1       -4 0.11760276E-01 0.12499798E+03</pdfrwt>
<totfact> 0.10397883E+04</totfact>
</mgrwt>
</event>
<event>
 5    1  0.3261711E-002  0.1249983E+03  0.7818608E-02  0.1235072E+00
          4   -1    0    0  501    0  0.00000000000E+00  0.00000000000E+00  0.10095749164E+02  0.10175315778E+02  0.12700000000E+01 0. -1.
         -4   -1    0    0    0  501 -0.00000000000E+00 -0.00000000000E+00 -0.38531037302E+03  0.38531246600E+03  0.12700000000E+01 0. -1.
         25    2    1    2    0    0  0.00000000000E+00  0.00000000000E+00 -0.37521462386E+03  0.39548778178E+03  0.12499828632E+03 0.  0.
    9000005    1    3    3    0    0  0.45629029452E+02 -0.37231379588E+02 -0.12146957553E+03  0.13499645082E+03  0.10000000000E+01 0.  0.
    9000005    1    3    3    0    0 -0.45629029452E+02  0.37231379588E+02 -0.25374504833E+03  0.26049133096E+03  0.10000000000E+01 0.  0.
<mgrwt>
<rscale>  0 0.12499829E+03</rscale>
<asrwt>0</asrwt>
<pdfrwt beam="1">  1        4 0.15594740E-02 0.12499829E+03</pdfrwt>
<pdfrwt beam="2">  1       -4 0.59284789E-01 0.12499829E+03</pdfrwt>
<totfact> 0.64996485E+03</totfact>
</mgrwt>
</event>
<event>
 5    1  0.3261711E-002  0.1249999E+03  0.7818608E-02  0.1235070E+00
          4   -1    0    0  501    0  0.00000000000E+00  0.00000000000E+00  0.11067311333E+02  0.11139940760E+02  0.12700000000E+01 0.  1.
         -4   -1    0    0    0  501 -0.00000000000E+00 -0.00000000000E+00 -0.35172492188E+03  0.35172721472E+03  0.12700000000E+01 0.  1.
         25    2    1    2    0    0  0.00000000000E+00  0.00000000000E+00 -0.34065761055E+03  0.36286715548E+03  0.12499985960E+03 0.  0.
    9000005    1    3    3    0    0  0.42018765217E+02 -0.81629064309E+00 -0.30458778767E+03  0.30747514266E+03  0.10000000000E+01 0.  0.
    9000005    1    3    3    0    0 -0.42018765217E+02  0.81629064309E+00 -0.36069822881E+02  0.55392012813E+02  0.10000000000E+01 0.  0.
<mgrwt>
<rscale>  0 0.12499986E+03</rscale>
<asrwt>0</asrwt>
<pdfrwt beam="1">  1        4 0.17084268E-02 0.12499986E+03</pdfrwt>
<pdfrwt beam="2">  1       -4 0.54117281E-01 0.12499986E+03</pdfrwt>
<totfact> 0.68332043E+03</totfact>
</mgrwt>
</event>
<event>
 5    1  0.3261711E-002  0.1250007E+03  0.7818608E-02  0.1235068E+00
         -4   -1    0    0    0  501 -0.00000000000E+00  0.00000000000E+00  0.17690717667E+03  0.17691173522E+03  0.12700000000E+01 0. -1.
          4   -1    0    0  501    0  0.00000000000E+00 -0.00000000000E+00 -0.22057919126E+02  0.22094449443E+02  0.12700000000E+01 0. -1.
         25    2    1    2    0    0  0.00000000000E+00  0.00000000000E+00  0.15484925755E+03  0.19900618466E+03  0.12500067588E+03 0.  0.
    9000005    1    3    3    0    0 -0.33570193899E+02 -0.40873472410E+02  0.13041098209E+03  0.14073245154E+03  0.10000000000E+01 0.  0.
    9000005    1    3    3    0    0  0.33570193899E+02  0.40873472410E+02  0.24438275457E+02  0.58273733128E+02  0.10000000000E+01 0.  0.
<mgrwt>
<rscale>  0 0.12500068E+03</rscale>
<asrwt>0</asrwt>
<pdfrwt beam="2">  1        4 0.33966868E-02 0.12500068E+03</pdfrwt>
<pdfrwt beam="1">  1       -4 0.27219649E-01 0.12500068E+03</pdfrwt>
<totfact> 0.90302027E+03</totfact>
</mgrwt>
</event>
<event>
 5    1  0.3261711E-002  0.1250014E+03  0.7818608E-02  0.1235067E+00
         -4   -1    0    0    0  501 -0.00000000000E+00  0.00000000000E+00  0.37984464608E+03  0.37984676918E+03  0.12700000000E+01 0. -1.
          4   -1    0    0  501    0  0.00000000000E+00 -0.00000000000E+00 -0.10242668837E+02  0.10321102892E+02  0.12700000000E+01 0. -1.
         25    2    1    2    0    0  0.00000000000E+00  0.00000000000E+00  0.36960197724E+03  0.39016787207E+03  0.12500138725E+03 0.  0.
    9000005    1    3    3    0    0  0.29257642762E+02 -0.44538095096E+02  0.82906398903E+02  0.98560248345E+02  0.10000000000E+01 0.  0.
    9000005    1    3    3    0    0 -0.29257642762E+02  0.44538095096E+02  0.28669557834E+03  0.29160762373E+03  0.10000000000E+01 0.  0.
<mgrwt>
<rscale>  0 0.12500139E+03</rscale>
<asrwt>0</asrwt>
<pdfrwt beam="2">  1        4 0.15819917E-02 0.12500139E+03</pdfrwt>
<pdfrwt beam="1">  1       -4 0.58443841E-01 0.12500139E+03</pdfrwt>
<totfact> 0.65518403E+03</totfact>
</mgrwt>
</event>
<event>
 5    1  0.3261711E-002  0.1250024E+03  0.7818608E-02  0.1235065E+00
          4   -1    0    0  501    0  0.00000000000E+00  0.00000000000E+00  0.22661141601E+02  0.22696701053E+02  0.12700000000E+01 0. -1.
         -4   -1    0    0    0  501 -0.00000000000E+00 -0.00000000000E+00 -0.17221025486E+03  0.17221493774E+03  0.12700000000E+01 0. -1.
         25    2    1    2    0    0  0.00000000000E+00  0.00000000000E+00 -0.14954911326E+03  0.19491163879E+03  0.12500243861E+03 0.  0.
    9000005    1    3    3    0    0 -0.89305692562E+01 -0.52955741090E+02 -0.24943076781E+02  0.59221808998E+02  0.10000000000E+01 0.  0.
    9000005    1    3    3    0    0  0.89305692562E+01  0.52955741090E+02 -0.12460603648E+03  0.13568982979E+03  0.10000000000E+01 0.  0.
<mgrwt>
<rscale>  0 0.12500244E+03</rscale>
<asrwt>0</asrwt>
<pdfrwt beam="1">  1        4 0.34894251E-02 0.12500244E+03</pdfrwt>
<pdfrwt beam="2">  1       -4 0.26496980E-01 0.12500244E+03</pdfrwt>
<totfact> 0.90994691E+03</totfact>
</mgrwt>
</event>
<event>
 5    1  0.3261711E-002  0.1250044E+03  0.7818608E-02  0.1235062E+00
         -4   -1    0    0    0  501 -0.00000000000E+00  0.00000000000E+00  0.16136565009E+02  0.16186464416E+02  0.12700000000E+01 0.  1.
          4   -1    0    0  501    0  0.00000000000E+00 -0.00000000000E+00 -0.24166598858E+03  0.24166932560E+03  0.12700000000E+01 0.  1.
         25    2    1    2    0    0  0.00000000000E+00  0.00000000000E+00 -0.22552942357E+03  0.25785579002E+03  0.12500435012E+03 0.  0.
    9000005    1    3    3    0    0 -0.24758574820E+02 -0.19320509580E+02 -0.13127771529E+01  0.31448251166E+02  0.10000000000E+01 0.  0.
    9000005    1    3    3    0    0  0.24758574820E+02  0.19320509580E+02 -0.22421664642E+03  0.22640753885E+03  0.10000000000E+01 0.  0.
<mgrwt>
<rscale>  0 0.12500435E+03</rscale>
<asrwt>0</asrwt>
<pdfrwt beam="2">  1        4 0.37183475E-01 0.12500435E+03</pdfrwt>
<pdfrwt beam="1">  1       -4 0.24866438E-02 0.12500435E+03</pdfrwt>
<totfact> 0.81200052E+03</totfact>
</mgrwt>
</event>
<event>
 5    1  0.3261711E-002  0.1250084E+03  0.7818608E-02  0.1235056E+00
          4   -1    0    0  501    0  0.00000000000E+00  0.00000000000E+00  0.11793459901E+03  0.11794143693E+03  0.12700000000E+01 0.  1.
         -4   -1    0    0    0  501 -0.00000000000E+00 -0.00000000000E+00 -0.33106656982E+02  0.33131007177E+02  0.12700000000E+01 0.  1.
         25    2    1    2    0    0  0.00000000000E+00  0.00000000000E+00  0.84827942033E+02  0.15107244411E+03  0.12500841419E+03 0.  0.
    9000005    1    3    3    0    0 -0.54519535278E+01 -0.34840082439E+02  0.10476850569E+03  0.11054860889E+03  0.10000000000E+01 0.  0.
    9000005    1    3    3    0    0  0.54519535278E+01  0.34840082439E+02 -0.19940563662E+02  0.40523835218E+02  0.10000000000E+01 0.  0.
<mgrwt>
<rscale>  0 0.12500841E+03</rscale>
<asrwt>0</asrwt>
<pdfrwt beam="1">  1        4 0.18146183E-01 0.12500841E+03</pdfrwt>
<pdfrwt beam="2">  1       -4 0.50957310E-02 0.12500841E+03</pdfrwt>
<totfact> 0.99071591E+03</totfact>
</mgrwt>
</event>
<event>
 5    1  0.3261711E-002  0.1250008E+03  0.7818608E-02  0.1235068E+00
          4   -1    0    0  501    0  0.00000000000E+00  0.00000000000E+00  0.82215572200E+01  0.83190686451E+01  0.12700000000E+01 0. -1.
         -4   -1    0    0    0  501 -0.00000000000E+00 -0.00000000000E+00 -0.47222993228E+03  0.47223164002E+03  0.12700000000E+01 0. -1.
         25    2    1    2    0    0  0.00000000000E+00  0.00000000000E+00 -0.46400837506E+03  0.48055070867E+03  0.12500084591E+03 0.  0.
    9000005    1    3    3    0    0 -0.24627906461E+02  0.56704878055E+02 -0.19691152900E+03  0.20639071497E+03  0.10000000000E+01 0.  0.
    9000005    1    3    3    0    0  0.24627906461E+02 -0.56704878055E+02 -0.26709684605E+03  0.27415999370E+03  0.10000000000E+01 0.  0.
<mgrwt>
<rscale>  0 0.12500085E+03</rscale>
<asrwt>0</asrwt>
<pdfrwt beam="1">  1        4 0.12724876E-02 0.12500085E+03</pdfrwt>
<pdfrwt beam="2">  1       -4 0.72658370E-01 0.12500085E+03</pdfrwt>
<totfact> 0.57404554E+03</totfact>
</mgrwt>
</event>
<event>
 5    1  0.3261711E-002  0.1249865E+03  0.7818608E-02  0.1235090E+00
         -4   -1    0    0    0  501 -0.00000000000E+00  0.00000000000E+00  0.52502061941E+02  0.52517420044E+02  0.12700000000E+01 0. -1.
          4   -1    0    0  501    0  0.00000000000E+00 -0.00000000000E+00 -0.74354105638E+02  0.74364950920E+02  0.12700000000E+01 0. -1.
         25    2    1    2    0    0  0.00000000000E+00  0.00000000000E+00 -0.21852043697E+02  0.12688237096E+03  0.12498649626E+03 0.  0.
    9000005    1    3    3    0    0 -0.46469365823E+02  0.21164703323E+02  0.25634983581E+02  0.57144544883E+02  0.10000000000E+01 0.  0.
    9000005    1    3    3    0    0  0.46469365823E+02 -0.21164703323E+02 -0.47487027278E+02  0.69737826080E+02  0.10000000000E+01 0.  0.
<mgrwt>
<rscale>  0 0.12498650E+03</rscale>
<asrwt>0</asrwt>
<pdfrwt beam="2">  1        4 0.11441109E-01 0.12498650E+03</pdfrwt>
<pdfrwt beam="1">  1       -4 0.80792560E-02 0.12498650E+03</pdfrwt>
<totfact> 0.10414877E+04</totfact>
</mgrwt>
</event>
<event>
 5    1  0.3261711E-002  0.1250007E+03  0.7818608E-02  0.1235068E+00
          4   -1    0    0  501    0  0.00000000000E+00  0.00000000000E+00  0.74213175066E+02  0.74224040940E+02  0.12700000000E+01 0. -1.
         -4   -1    0    0    0  501 -0.00000000000E+00 -0.00000000000E+00 -0.52613724644E+02  0.52629050161E+02  0.12700000000E+01 0. -1.
         25    2    1    2    0    0  0.00000000000E+00  0.00000000000E+00  0.21599450423E+02  0.12685309110E+03  0.12500068185E+03 0.  0.
    9000005    1    3    3    0    0 -0.26607667271E+02 -0.53832837498E+02  0.28357864744E+02  0.66416194136E+02  0.10000000000E+01 0.  0.
    9000005    1    3    3    0    0  0.26607667271E+02  0.53832837498E+02 -0.67584143212E+01  0.60436896965E+02  0.10000000000E+01 0.  0.
<mgrwt>
<rscale>  0 0.12500068E+03</rscale>
<asrwt>0</asrwt>
<pdfrwt beam="1">  1        4 0.11419426E-01 0.12500068E+03</pdfrwt>
<pdfrwt beam="2">  1       -4 0.80964339E-02 0.12500068E+03</pdfrwt>
<totfact> 0.10412179E+04</totfact>
</mgrwt>
</event>
<event>
 5    1  0.3261711E-002  0.1250098E+03  0.7818608E-02  0.1235054E+00
         -4   -1    0    0    0  501 -0.00000000000E+00  0.00000000000E+00  0.19371252319E+02  0.19412838958E+02  0.12700000000E+01 0.  1.
          4   -1    0    0  501    0  0.00000000000E+00 -0.00000000000E+00 -0.20142368865E+03  0.20142769236E+03  0.12700000000E+01 0.  1.
         25    2    1    2    0    0  0.00000000000E+00  0.00000000000E+00 -0.18205243633E+03  0.22084053132E+03  0.12500980241E+03 0.  0.
    9000005    1    3    3    0    0  0.36426289199E+02  0.31088130089E+02 -0.20086939038E+02  0.51940653608E+02  0.10000000000E+01 0.  0.
    9000005    1    3    3    0    0 -0.36426289199E+02 -0.31088130089E+02 -0.16196549729E+03  0.16889987771E+03  0.10000000000E+01 0.  0.
<mgrwt>
<rscale>  0 0.12500980E+03</rscale>
<asrwt>0</asrwt>
<pdfrwt beam="2">  1        4 0.30991765E-01 0.12500980E+03</pdfrwt>
<pdfrwt beam="1">  1       -4 0.29836997E-02 0.12500980E+03</pdfrwt>
<totfact> 0.86716535E+03</totfact>
</mgrwt>
</event>
<event>
 5    1  0.3261711E-002  0.1250029E+03  0.7818608E-02  0.1235065E+00
          4   -1    0    0  501    0  0.00000000000E+00  0.00000000000E+00  0.28678359593E+03  0.28678640797E+03  0.12700000000E+01 0.  1.
         -4   -1    0    0    0  501 -0.00000000000E+00 -0.00000000000E+00 -0.13589052986E+02  0.13648269526E+02  0.12700000000E+01 0.  1.
         25    2    1    2    0    0  0.00000000000E+00  0.00000000000E+00  0.27319454294E+03  0.30043467749E+03  0.12500294855E+03 0.  0.
    9000005    1    3    3    0    0 -0.97235415923E+01 -0.16050600974E+02  0.27986342982E+03  0.28049368692E+03  0.10000000000E+01 0.  0.
    9000005    1    3    3    0    0  0.97235415923E+01  0.16050600974E+02 -0.66688868761E+01  0.19940990569E+02  0.10000000000E+01 0.  0.
<mgrwt>
<rscale>  0 0.12500295E+03</rscale>
<asrwt>0</asrwt>
<pdfrwt beam="1">  1        4 0.44125322E-01 0.12500295E+03</pdfrwt>
<pdfrwt beam="2">  1       -4 0.20953951E-02 0.12500295E+03</pdfrwt>
<totfact> 0.75539402E+03</totfact>
</mgrwt>
</event>
<event>
 5    1  0.3261711E-002  0.1250017E+03  0.7818608E-02  0.1235067E+00
         -4   -1    0    0    0  501 -0.00000000000E+00  0.00000000000E+00  0.18294793713E+03  0.18295234516E+03  0.12700000000E+01 0. -1.
          4   -1    0    0  501    0  0.00000000000E+00 -0.00000000000E+00 -0.21328737002E+02  0.21366514037E+02  0.12700000000E+01 0. -1.
         25    2    1    2    0    0  0.00000000000E+00  0.00000000000E+00  0.16161920013E+03  0.20431885920E+03  0.12500172148E+03 0.  0.
    9000005    1    3    3    0    0 -0.16378470095E+02 -0.48447488631E+02  0.22104218421E+02  0.55722615780E+02  0.10000000000E+01 0.  0.
    9000005    1    3    3    0    0  0.16378470095E+02  0.48447488631E+02  0.13951498170E+03  0.14859624342E+03  0.10000000000E+01 0.  0.
<mgrwt>
<rscale>  0 0.12500172E+03</rscale>
<asrwt>0</asrwt>
<pdfrwt beam="2">  1        4 0.32845892E-02 0.12500172E+03</pdfrwt>
<pdfrwt beam="1">  1       -4 0.28149081E-01 0.12500172E+03</pdfrwt>
<totfact> 0.89408730E+03</totfact>
</mgrwt>
</event>
<event>
 5    1  0.3261711E-002  0.1250003E+03  0.7818608E-02  0.1235069E+00
          4   -1    0    0  501    0  0.00000000000E+00  0.00000000000E+00  0.22952880388E+01  0.26232131406E+01  0.12700000000E+01 0.  1.
         -4   -1    0    0    0  501 -0.00000000000E+00 -0.00000000000E+00 -0.15880701491E+04  0.15880706569E+04  0.12700000000E+01 0.  1.
         25    2    1    2    0    0  0.00000000000E+00  0.00000000000E+00 -0.15857748611E+04  0.15906938701E+04  0.12500031307E+03 0.  0.
    9000005    1    3    3    0    0 -0.40634343329E+02  0.58035586654E+01 -0.13925333366E+04  0.13931385160E+04  0.10000000000E+01 0.  0.
    9000005    1    3    3    0    0  0.40634343329E+02 -0.58035586654E+01 -0.19324152448E+03  0.19755535410E+03  0.10000000000E+01 0.  0.
<mgrwt>
<rscale>  0 0.12500031E+03</rscale>
<asrwt>0</asrwt>
<pdfrwt beam="1">  1        4 0.37838658E-03 0.12500031E+03</pdfrwt>
<pdfrwt beam="2">  1       -4 0.24434293E+00 0.12500031E+03</pdfrwt>
<totfact> 0.16214825E+03</totfact>
</mgrwt>
</event>
<event>
 5    1  0.3261711E-002  0.1250058E+03  0.7818608E-02  0.1235060E+00
          4   -1    0    0  501    0  0.00000000000E+00  0.00000000000E+00  0.13295028658E+03  0.13295635224E+03  0.12700000000E+01 0.  1.
         -4   -1    0    0    0  501 -0.00000000000E+00 -0.00000000000E+00 -0.29363525763E+02  0.29390977276E+02  0.12700000000E+01 0.  1.
         25    2    1    2    0    0  0.00000000000E+00  0.00000000000E+00  0.10358676082E+03  0.16234732952E+03  0.12500575341E+03 0.  0.
    9000005    1    3    3    0    0 -0.22361073553E+02  0.33734992530E+02  0.11363670702E+03  0.12063319822E+03  0.10000000000E+01 0.  0.
    9000005    1    3    3    0    0  0.22361073553E+02 -0.33734992530E+02 -0.10049946198E+02  0.41714131299E+02  0.10000000000E+01 0.  0.
<mgrwt>
<rscale>  0 0.12500575E+03</rscale>
<asrwt>0</asrwt>
<pdfrwt beam="1">  1        4 0.20456468E-01 0.12500575E+03</pdfrwt>
<pdfrwt beam="2">  1       -4 0.45200438E-02 0.12500575E+03</pdfrwt>
<totfact> 0.96879612E+03</totfact>
</mgrwt>
</event>
<event>
 5    1  0.3261711E-002  0.1250011E+03  0.7818608E-02  0.1235068E+00
          4   -1    0    0  501    0  0.00000000000E+00  0.00000000000E+00  0.26946728989E+04  0.26946731981E+04  0.12700000000E+01 0.  1.
         -4   -1    0    0    0  501 -0.00000000000E+00 -0.00000000000E+00 -0.11711327949E+01  0.17275566628E+01  0.12700000000E+01 0.  1.
         25    2    1    2    0    0  0.00000000000E+00  0.00000000000E+00  0.26935017661E+04  0.26964007548E+04  0.12500106672E+03 0.  0.
    9000005    1    3    3    0    0 -0.38866844782E+02 -0.10248964075E+02  0.23789290808E+04  0.23792688465E+04  0.10000000000E+01 0.  0.
    9000005    1    3    3    0    0  0.38866844782E+02  0.10248964075E+02  0.31457268532E+03  0.31713190826E+03  0.10000000000E+01 0.  0.
<mgrwt>
<rscale>  0 0.12500107E+03</rscale>
<asrwt>0</asrwt>
<pdfrwt beam="1">  1        4 0.41460718E+00 0.12500107E+03</pdfrwt>
<pdfrwt beam="2">  1       -4 0.22299951E-03 0.12500107E+03</pdfrwt>
<totfact> 0.33036219E+02</totfact>
</mgrwt>
</event>
<event>
 5    1  0.3261711E-002  0.1250183E+03  0.7818608E-02  0.1235041E+00
          4   -1    0    0  501    0  0.00000000000E+00  0.00000000000E+00  0.62161299439E+02  0.62174271592E+02  0.12700000000E+01 0. -1.
         -4   -1    0    0    0  501 -0.00000000000E+00 -0.00000000000E+00 -0.62832958890E+02  0.62845792404E+02  0.12700000000E+01 0. -1.
         25    2    1    2    0    0  0.00000000000E+00  0.00000000000E+00 -0.67165945130E+00  0.12502006400E+03  0.12501825977E+03 0.  0.
    9000005    1    3    3    0    0  0.44797572072E+02  0.43517200434E+02 -0.27487718520E+01  0.62522995320E+02  0.10000000000E+01 0.  0.
    9000005    1    3    3    0    0 -0.44797572072E+02 -0.43517200434E+02  0.20771124007E+01  0.62497068676E+02  0.10000000000E+01 0.  0.
<mgrwt>
<rscale>  0 0.12501826E+03</rscale>
<asrwt>0</asrwt>
<pdfrwt beam="1">  1        4 0.95652619E-02 0.12501826E+03</pdfrwt>
<pdfrwt beam="2">  1       -4 0.96685941E-02 0.12501826E+03</pdfrwt>
<totfact> 0.10448114E+04</totfact>
</mgrwt>
</event>
<event>
 5    1  0.3261711E-002  0.1249983E+03  0.7818608E-02  0.1235072E+00
          4   -1    0    0  501    0  0.00000000000E+00  0.00000000000E+00  0.15809194295E+02  0.15860123715E+02  0.12700000000E+01 0. -1.
         -4   -1    0    0    0  501 -0.00000000000E+00 -0.00000000000E+00 -0.24663053496E+03  0.24663380481E+03  0.12700000000E+01 0. -1.
         25    2    1    2    0    0  0.00000000000E+00  0.00000000000E+00 -0.23082134067E+03  0.26249392853E+03  0.12499828481E+03 0.  0.
    9000005    1    3    3    0    0  0.31472221627E+02 -0.40011758088E+02 -0.19152449066E+03  0.19817687060E+03  0.10000000000E+01 0.  0.
    9000005    1    3    3    0    0 -0.31472221627E+02  0.40011758088E+02 -0.39296850006E+02  0.64317057923E+02  0.10000000000E+01 0.  0.
<mgrwt>
<rscale>  0 0.12499828E+03</rscale>
<asrwt>0</asrwt>
<pdfrwt beam="1">  1        4 0.24363531E-02 0.12499828E+03</pdfrwt>
<pdfrwt beam="2">  1       -4 0.37947326E-01 0.12499828E+03</pdfrwt>
<totfact> 0.80560419E+03</totfact>
</mgrwt>
</event>
<event>
 5    1  0.3261711E-002  0.1250026E+03  0.7818608E-02  0.1235065E+00
         -4   -1    0    0    0  501 -0.00000000000E+00  0.00000000000E+00  0.48228271374E+01  0.49872398777E+01  0.12700000000E+01 0. -1.
          4   -1    0    0  501    0  0.00000000000E+00 -0.00000000000E+00 -0.79624438213E+03  0.79624539495E+03  0.12700000000E+01 0. -1.
         25    2    1    2    0    0  0.00000000000E+00  0.00000000000E+00 -0.79142155500E+03  0.80123263483E+03  0.12500262957E+03 0.  0.
    9000005    1    3    3    0    0  0.32335268211E+02 -0.30177032876E+02 -0.67869793826E+03  0.68013830526E+03  0.10000000000E+01 0.  0.
    9000005    1    3    3    0    0 -0.32335268211E+02  0.30177032876E+02 -0.11272361674E+03  0.12109432957E+03  0.10000000000E+01 0.  0.
<mgrwt>
<rscale>  0 0.12500263E+03</rscale>
<asrwt>0</asrwt>
<pdfrwt beam="2">  1        4 0.12251176E+00 0.12500263E+03</pdfrwt>
<pdfrwt beam="1">  1       -4 0.75469908E-03 0.12500263E+03</pdfrwt>
<totfact> 0.38207589E+03</totfact>
</mgrwt>
</event>
<event>
 5    1  0.3261711E-002  0.1249934E+03  0.7818608E-02  0.1235080E+00
         -4   -1    0    0    0  501 -0.00000000000E+00  0.00000000000E+00  0.16036562370E+02  0.16086771977E+02  0.12700000000E+01 0. -1.
          4   -1    0    0  501    0  0.00000000000E+00 -0.00000000000E+00 -0.24312564162E+03  0.24312895860E+03  0.12700000000E+01 0. -1.
         25    2    1    2    0    0  0.00000000000E+00  0.00000000000E+00 -0.22708907925E+03  0.25921573058E+03  0.12499338009E+03 0.  0.
    9000005    1    3    3    0    0  0.61954290931E+02  0.59857848601E+01 -0.12503001034E+03  0.13966985097E+03  0.10000000000E+01 0.  0.
    9000005    1    3    3    0    0 -0.61954290931E+02 -0.59857848601E+01 -0.10205906891E+03  0.11954587961E+03  0.10000000000E+01 0.  0.
<mgrwt>
<rscale>  0 0.12499338E+03</rscale>
<asrwt>0</asrwt>
<pdfrwt beam="2">  1        4 0.37408060E-01 0.12499338E+03</pdfrwt>
<pdfrwt beam="1">  1       -4 0.24712810E-02 0.12499338E+03</pdfrwt>
<totfact> 0.81028189E+03</totfact>
</mgrwt>
</event>
<event>
 5    1  0.3261711E-002  0.1249974E+03  0.7818608E-02  0.1235073E+00
          4   -1    0    0  501    0  0.00000000000E+00  0.00000000000E+00  0.15046878035E+03  0.15047413984E+03  0.12700000000E+01 0.  1.
         -4   -1    0    0    0  501 -0.00000000000E+00 -0.00000000000E+00 -0.25938089390E+02  0.25969162120E+02  0.12700000000E+01 0.  1.
         25    2    1    2    0    0  0.00000000000E+00  0.00000000000E+00  0.12453069096E+03  0.17644330196E+03  0.12499738323E+03 0.  0.
    9000005    1    3    3    0    0  0.37022240503E+02  0.42102673237E+01 -0.85489879350E+01  0.38242095099E+02  0.10000000000E+01 0.  0.
    9000005    1    3    3    0    0 -0.37022240503E+02 -0.42102673237E+01  0.13307967890E+03  0.13820120686E+03  0.10000000000E+01 0.  0.
<mgrwt>
<rscale>  0 0.12499738E+03</rscale>
<asrwt>0</asrwt>
<pdfrwt beam="1">  1        4 0.23151846E-01 0.12499738E+03</pdfrwt>
<pdfrwt beam="2">  1       -4 0.39932778E-02 0.12499738E+03</pdfrwt>
<totfact> 0.94266699E+03</totfact>
</mgrwt>
</event>
<event>
 5    1  0.3261711E-002  0.1250104E+03  0.7818608E-02  0.1235053E+00
          4   -1    0    0  501    0  0.00000000000E+00  0.00000000000E+00  0.22245184680E+02  0.22281407977E+02  0.12700000000E+01 0. -1.
         -4   -1    0    0    0  501 -0.00000000000E+00 -0.00000000000E+00 -0.17544752656E+03  0.17545212303E+03  0.12700000000E+01 0. -1.
         25    2    1    2    0    0  0.00000000000E+00  0.00000000000E+00 -0.15320234188E+03  0.19773353101E+03  0.12501036648E+03 0.  0.
    9000005    1    3    3    0    0  0.24011694217E+02  0.50197096214E+01 -0.16752201257E+03  0.16931149884E+03  0.10000000000E+01 0.  0.
    9000005    1    3    3    0    0 -0.24011694217E+02 -0.50197096214E+01  0.14319670690E+02  0.28422032167E+02  0.10000000000E+01 0.  0.
<mgrwt>
<rscale>  0 0.12501037E+03</rscale>
<asrwt>0</asrwt>
<pdfrwt beam="1">  1        4 0.34254762E-02 0.12501037E+03</pdfrwt>
<pdfrwt beam="2">  1       -4 0.26995066E-01 0.12501037E+03</pdfrwt>
<totfact> 0.90497845E+03</totfact>
</mgrwt>
</event>
<event>
 5    1  0.3261711E-002  0.1250088E+03  0.7818608E-02  0.1235056E+00
          4   -1    0    0  501    0  0.00000000000E+00  0.00000000000E+00  0.10998869520E+03  0.10999602707E+03  0.12700000000E+01 0. -1.
         -4   -1    0    0    0  501 -0.00000000000E+00 -0.00000000000E+00 -0.35500120268E+02  0.35522829829E+02  0.12700000000E+01 0. -1.
         25    2    1    2    0    0  0.00000000000E+00  0.00000000000E+00  0.74488574930E+02  0.14551885690E+03  0.12500875937E+03 0.  0.
    9000005    1    3    3    0    0 -0.53890927905E+02 -0.30781700674E+02  0.45802554026E+02  0.77140256431E+02  0.10000000000E+01 0.  0.
    9000005    1    3    3    0    0  0.53890927905E+02  0.30781700674E+02  0.28686020903E+02  0.68378600469E+02  0.10000000000E+01 0.  0.
<mgrwt>
<rscale>  0 0.12500876E+03</rscale>
<asrwt>0</asrwt>
<pdfrwt beam="1">  1        4 0.16923649E-01 0.12500876E+03</pdfrwt>
<pdfrwt beam="2">  1       -4 0.54638678E-02 0.12500876E+03</pdfrwt>
<totfact> 0.10018481E+04</totfact>
</mgrwt>
</event>
<event>
 5    1  0.3261711E-002  0.1249992E+03  0.7818608E-02  0.1235071E+00
          4   -1    0    0  501    0  0.00000000000E+00  0.00000000000E+00  0.26549444364E+02  0.26579802408E+02  0.12700000000E+01 0.  1.
         -4   -1    0    0    0  501 -0.00000000000E+00 -0.00000000000E+00 -0.14701197014E+03  0.14701745564E+03  0.12700000000E+01 0.  1.
         25    2    1    2    0    0  0.00000000000E+00  0.00000000000E+00 -0.12046252577E+03  0.17359725805E+03  0.12499915155E+03 0.  0.
    9000005    1    3    3    0    0  0.19075522542E+02 -0.21096426307E+02  0.17046521514E+02  0.33174066059E+02  0.10000000000E+01 0.  0.
    9000005    1    3    3    0    0 -0.19075522542E+02  0.21096426307E+02 -0.13750904729E+03  0.14042319199E+03  0.10000000000E+01 0.  0.
<mgrwt>
<rscale>  0 0.12499915E+03</rscale>
<asrwt>0</asrwt>
<pdfrwt beam="1">  1        4 0.40872872E-02 0.12499915E+03</pdfrwt>
<pdfrwt beam="2">  1       -4 0.22619983E-01 0.12499915E+03</pdfrwt>
<totfact> 0.94784184E+03</totfact>
</mgrwt>
</event>
<event>
 5    1  0.3261711E-002  0.1250062E+03  0.7818608E-02  0.1235060E+00
         -4   -1    0    0    0  501 -0.00000000000E+00  0.00000000000E+00  0.34522992730E+02  0.34546344626E+02  0.12700000000E+01 0. -1.
          4   -1    0    0  501    0  0.00000000000E+00 -0.00000000000E+00 -0.11309534155E+03  0.11310247203E+03  0.12700000000E+01 0. -1.
         25    2    1    2    0    0  0.00000000000E+00  0.00000000000E+00 -0.78572348816E+02  0.14764881666E+03  0.12500623609E+03 0.  0.
    9000005    1    3    3    0    0  0.22528393309E+02  0.47181241676E+02  0.11499777905E+01  0.52306027570E+02  0.10000000000E+01 0.  0.
    9000005    1    3    3    0    0 -0.22528393309E+02 -0.47181241676E+02 -0.79722326606E+02  0.95342789086E+02  0.10000000000E+01 0.  0.
<mgrwt>
<rscale>  0 0.12500624E+03</rscale>
<asrwt>0</asrwt>
<pdfrwt beam="2">  1        4 0.17401628E-01 0.12500624E+03</pdfrwt>
<pdfrwt beam="1">  1       -4 0.53135745E-02 0.12500624E+03</pdfrwt>
<totfact> 0.99760447E+03</totfact>
</mgrwt>
</event>
<event>
 5    1  0.3261711E-002  0.1249911E+03  0.7818608E-02  0.1235083E+00
          4   -1    0    0  501    0  0.00000000000E+00  0.00000000000E+00  0.11909327303E+03  0.11910004442E+03  0.12700000000E+01 0. -1.
         -4   -1    0    0    0  501 -0.00000000000E+00 -0.00000000000E+00 -0.32775240858E+02  0.32799837093E+02  0.12700000000E+01 0. -1.
         25    2    1    2    0    0  0.00000000000E+00  0.00000000000E+00  0.86318032169E+02  0.15189988151E+03  0.12499108498E+03 0.  0.
    9000005    1    3    3    0    0 -0.46765791886E+02 -0.49466740864E+01  0.93165977872E+02  0.10436670115E+03  0.10000000000E+01 0.  0.
    9000005    1    3    3    0    0  0.46765791886E+02  0.49466740864E+01 -0.68479457029E+01  0.47533180365E+02  0.10000000000E+01 0.  0.
<mgrwt>
<rscale>  0 0.12499108E+03</rscale>
<asrwt>0</asrwt>
<pdfrwt beam="1">  1        4 0.18324455E-01 0.12499108E+03</pdfrwt>
<pdfrwt beam="2">  1       -4 0.50447576E-02 0.12499108E+03</pdfrwt>
<totfact> 0.98946172E+03</totfact>
</mgrwt>
</event>
<event>
 5    1  0.3261711E-002  0.1249987E+03  0.7818608E-02  0.1235071E+00
         -4   -1    0    0    0  501 -0.00000000000E+00  0.00000000000E+00  0.19417141021E+03  0.19417556345E+03  0.12700000000E+01 0.  1.
          4   -1    0    0  501    0  0.00000000000E+00 -0.00000000000E+00 -0.20092684914E+02  0.20132781404E+02  0.12700000000E+01 0.  1.
         25    2    1    2    0    0  0.00000000000E+00  0.00000000000E+00  0.17407872529E+03  0.21430834486E+03  0.12499865629E+03 0.  0.
    9000005    1    3    3    0    0 -0.43611080930E+01  0.34655646067E+02  0.17588101651E+03  0.17931861319E+03  0.10000000000E+01 0.  0.
    9000005    1    3    3    0    0  0.43611080930E+01 -0.34655646067E+02 -0.18022912192E+01  0.34989731662E+02  0.10000000000E+01 0.  0.
<mgrwt>
<rscale>  0 0.12499866E+03</rscale>
<asrwt>0</asrwt>
<pdfrwt beam="2">  1        4 0.30945862E-02 0.12499866E+03</pdfrwt>
<pdfrwt beam="1">  1       -4 0.29875928E-01 0.12499866E+03</pdfrwt>
<totfact> 0.87779706E+03</totfact>
</mgrwt>
</event>
<event>
 5    1  0.3261711E-002  0.1249975E+03  0.7818608E-02  0.1235073E+00
          4   -1    0    0  501    0  0.00000000000E+00  0.00000000000E+00  0.90734138888E+02  0.90743026507E+02  0.12700000000E+01 0.  1.
         -4   -1    0    0    0  501 -0.00000000000E+00 -0.00000000000E+00 -0.43029526095E+02  0.43048263797E+02  0.12700000000E+01 0.  1.
         25    2    1    2    0    0  0.00000000000E+00  0.00000000000E+00  0.47704612793E+02  0.13379129030E+03  0.12499751709E+03 0.  0.
    9000005    1    3    3    0    0  0.57420299421E+02  0.14881402560E+02  0.44896297544E+02  0.74399089114E+02  0.10000000000E+01 0.  0.
    9000005    1    3    3    0    0 -0.57420299421E+02 -0.14881402560E+02  0.28083152484E+01  0.59392201191E+02  0.10000000000E+01 0.  0.
<mgrwt>
<rscale>  0 0.12499752E+03</rscale>
<asrwt>0</asrwt>
<pdfrwt beam="1">  1        4 0.13961223E-01 0.12499752E+03</pdfrwt>
<pdfrwt beam="2">  1       -4 0.66220522E-02 0.12499752E+03</pdfrwt>
<totfact> 0.10264185E+04</totfact>
</mgrwt>
</event>
<event>
 5    1  0.3261711E-002  0.1249991E+03  0.7818608E-02  0.1235071E+00
         -4   -1    0    0    0  501 -0.00000000000E+00  0.00000000000E+00  0.15509768344E+03  0.15510288297E+03  0.12700000000E+01 0. -1.
          4   -1    0    0  501    0  0.00000000000E+00 -0.00000000000E+00 -0.25163736387E+02  0.25195764107E+02  0.12700000000E+01 0. -1.
         25    2    1    2    0    0  0.00000000000E+00  0.00000000000E+00  0.12993394705E+03  0.18029864708E+03  0.12499908617E+03 0.  0.
    9000005    1    3    3    0    0  0.23299835677E+02  0.57984751837E+02  0.65372638802E+02  0.90441670109E+02  0.10000000000E+01 0.  0.
    9000005    1    3    3    0    0 -0.23299835677E+02 -0.57984751837E+02  0.64561308247E+02  0.89856976973E+02  0.10000000000E+01 0.  0.
<mgrwt>
<rscale>  0 0.12499909E+03</rscale>
<asrwt>0</asrwt>
<pdfrwt beam="2">  1        4 0.38742077E-02 0.12499909E+03</pdfrwt>
<pdfrwt beam="1">  1       -4 0.23864045E-01 0.12499909E+03</pdfrwt>
<totfact> 0.93565190E+03</totfact>
</mgrwt>
</event>
<event>
 5    1  0.3261711E-002  0.1250040E+03  0.7818608E-02  0.1235063E+00
          4   -1    0    0  501    0  0.00000000000E+00  0.00000000000E+00  0.17241104394E+03  0.17241572136E+03  0.12700000000E+01 0.  1.
         -4   -1    0    0    0  501 -0.00000000000E+00 -0.00000000000E+00 -0.22635289434E+02  0.22670889435E+02  0.12700000000E+01 0.  1.
         25    2    1    2    0    0  0.00000000000E+00  0.00000000000E+00  0.14977575451E+03  0.19508661080E+03  0.12500403623E+03 0.  0.
    9000005    1    3    3    0    0 -0.29622460088E+02  0.28246796208E+02  0.14858806245E+03  0.15412587045E+03  0.10000000000E+01 0.  0.
    9000005    1    3    3    0    0  0.29622460088E+02 -0.28246796208E+02  0.11876920545E+01  0.40960740350E+02  0.10000000000E+01 0.  0.
<mgrwt>
<rscale>  0 0.12500404E+03</rscale>
<asrwt>0</asrwt>
<pdfrwt beam="1">  1        4 0.26527875E-01 0.12500404E+03</pdfrwt>
<pdfrwt beam="2">  1       -4 0.34854504E-02 0.12500404E+03</pdfrwt>
<totfact> 0.90961495E+03</totfact>
</mgrwt>
</event>
<event>
 5    1  0.3261711E-002  0.1249933E+03  0.7818608E-02  0.1235080E+00
          4   -1    0    0  501    0  0.00000000000E+00  0.00000000000E+00  0.30831223391E+02  0.30857369230E+02  0.12700000000E+01 0.  1.
         -4   -1    0    0    0  501 -0.00000000000E+00 -0.00000000000E+00 -0.12660117338E+03  0.12660754322E+03  0.12700000000E+01 0.  1.
         25    2    1    2    0    0  0.00000000000E+00  0.00000000000E+00 -0.95769949988E+02  0.15746491245E+03  0.12499326115E+03 0.  0.
    9000005    1    3    3    0    0  0.38280157719E+02 -0.20751859924E+02 -0.10434844501E+03  0.11307346348E+03  0.10000000000E+01 0.  0.
    9000005    1    3    3    0    0 -0.38280157719E+02  0.20751859924E+02  0.85784950267E+01  0.44391448977E+02  0.10000000000E+01 0.  0.
<mgrwt>
<rscale>  0 0.12499326E+03</rscale>
<asrwt>0</asrwt>
<pdfrwt beam="1">  1        4 0.47457664E-02 0.12499326E+03</pdfrwt>
<pdfrwt beam="2">  1       -4 0.19479605E-01 0.12499326E+03</pdfrwt>
<totfact> 0.97848593E+03</totfact>
</mgrwt>
</event>
<event>
 5    1  0.3261711E-002  0.1249991E+03  0.7818608E-02  0.1235071E+00
         -4   -1    0    0    0  501 -0.00000000000E+00  0.00000000000E+00  0.54928145767E+02  0.54942825714E+02  0.12700000000E+01 0.  1.
          4   -1    0    0  501    0  0.00000000000E+00 -0.00000000000E+00 -0.71084706458E+02  0.71096050469E+02  0.12700000000E+01 0.  1.
         25    2    1    2    0    0  0.00000000000E+00  0.00000000000E+00 -0.16156560691E+02  0.12603887618E+03  0.12499905542E+03 0.  0.
    9000005    1    3    3    0    0 -0.31628692448E+02  0.10542492671E+02  0.45216606832E+02  0.56187719932E+02  0.10000000000E+01 0.  0.
    9000005    1    3    3    0    0  0.31628692448E+02 -0.10542492671E+02 -0.61373167524E+02  0.69851156251E+02  0.10000000000E+01 0.  0.
<mgrwt>
<rscale>  0 0.12499906E+03</rscale>
<asrwt>0</asrwt>
<pdfrwt beam="2">  1        4 0.10938110E-01 0.12499906E+03</pdfrwt>
<pdfrwt beam="1">  1       -4 0.84524858E-02 0.12499906E+03</pdfrwt>
<totfact> 0.10430327E+04</totfact>
</mgrwt>
</event>
<event>
 5    1  0.3261711E-002  0.1250019E+03  0.7818608E-02  0.1235066E+00
          4   -1    0    0  501    0  0.00000000000E+00  0.00000000000E+00  0.41624608662E+02  0.41643978512E+02  0.12700000000E+01 0. -1.
         -4   -1    0    0    0  501 -0.00000000000E+00 -0.00000000000E+00 -0.93802014408E+02  0.93810611377E+02  0.12700000000E+01 0. -1.
         25    2    1    2    0    0  0.00000000000E+00  0.00000000000E+00 -0.52177405745E+02  0.13545458989E+03  0.12500185699E+03 0.  0.
    9000005    1    3    3    0    0 -0.73039625553E+01  0.18874415839E+02 -0.90157854518E+02  0.92406872978E+02  0.10000000000E+01 0.  0.
    9000005    1    3    3    0    0  0.73039625553E+01 -0.18874415839E+02  0.37980448772E+02  0.43047716911E+02  0.10000000000E+01 0.  0.
<mgrwt>
<rscale>  0 0.12500186E+03</rscale>
<asrwt>0</asrwt>
<pdfrwt beam="1">  1        4 0.64059373E-02 0.12500186E+03</pdfrwt>
<pdfrwt beam="2">  1       -4 0.14433230E-01 0.12500186E+03</pdfrwt>
<totfact> 0.10228070E+04</totfact>
</mgrwt>
</event>
<event>
 5    1  0.3261711E-002  0.1249954E+03  0.7818608E-02  0.1235077E+00
          4   -1    0    0  501    0  0.00000000000E+00  0.00000000000E+00  0.71212011658E+02  0.71223335393E+02  0.12700000000E+01 0. -1.
         -4   -1    0    0    0  501 -0.00000000000E+00 -0.00000000000E+00 -0.54826695200E+02  0.54841402303E+02  0.12700000000E+01 0. -1.
         25    2    1    2    0    0  0.00000000000E+00  0.00000000000E+00  0.16385316458E+02  0.12606473770E+03  0.12499535789E+03 0.  0.
    9000005    1    3    3    0    0  0.27336674731E+01  0.57946294244E+02 -0.15237841396E+02  0.59986979961E+02  0.10000000000E+01 0.  0.
    9000005    1    3    3    0    0 -0.27336674731E+01 -0.57946294244E+02  0.31623157855E+02  0.66077757734E+02  0.10000000000E+01 0.  0.
<mgrwt>
<rscale>  0 0.12499536E+03</rscale>
<asrwt>0</asrwt>
<pdfrwt beam="1">  1        4 0.10957696E-01 0.12499536E+03</pdfrwt>
<pdfrwt beam="2">  1       -4 0.84368786E-02 0.12499536E+03</pdfrwt>
<totfact> 0.10430631E+04</totfact>
</mgrwt>
</event>
<event>
 5    1  0.3261711E-002  0.1250067E+03  0.7818608E-02  0.1235059E+00
          4   -1    0    0  501    0  0.00000000000E+00  0.00000000000E+00  0.15217842731E+02  0.15270744494E+02  0.12700000000E+01 0. -1.
         -4   -1    0    0    0  501 -0.00000000000E+00 -0.00000000000E+00 -0.25621646175E+03  0.25621960926E+03  0.12700000000E+01 0. -1.
         25    2    1    2    0    0  0.00000000000E+00  0.00000000000E+00 -0.24099861902E+03  0.27149035376E+03  0.12500671108E+03 0.  0.
    9000005    1    3    3    0    0  0.15597368606E+02  0.58291328673E+02 -0.85177396735E+02  0.10439035310E+03  0.10000000000E+01 0.  0.
    9000005    1    3    3    0    0 -0.15597368606E+02 -0.58291328673E+02 -0.15582122228E+03  0.16710000066E+03  0.10000000000E+01 0.  0.
<mgrwt>
<rscale>  0 0.12500671E+03</rscale>
<asrwt>0</asrwt>
<pdfrwt beam="1">  1        4 0.23455182E-02 0.12500671E+03</pdfrwt>
<pdfrwt beam="2">  1       -4 0.39422226E-01 0.12500671E+03</pdfrwt>
<totfact> 0.79308276E+03</totfact>
</mgrwt>
</event>
<event>
 5    1  0.3261711E-002  0.1250000E+03  0.7818608E-02  0.1235069E+00
         -4   -1    0    0    0  501 -0.00000000000E+00  0.00000000000E+00  0.34997871961E+03  0.34998102389E+03  0.12700000000E+01 0.  1.
          4   -1    0    0  501    0  0.00000000000E+00 -0.00000000000E+00 -0.11122923282E+02  0.11195191929E+02  0.12700000000E+01 0.  1.
         25    2    1    2    0    0  0.00000000000E+00  0.00000000000E+00  0.33885579633E+03  0.36117621581E+03  0.12500003266E+03 0.  0.
    9000005    1    3    3    0    0  0.28778736084E+02 -0.38881399964E+02  0.55112671549E+02  0.73337476634E+02  0.10000000000E+01 0.  0.
    9000005    1    3    3    0    0 -0.28778736084E+02  0.38881399964E+02  0.28374312478E+03  0.28783873918E+03  0.10000000000E+01 0.  0.
<mgrwt>
<rscale>  0 0.12500003E+03</rscale>
<asrwt>0</asrwt>
<pdfrwt beam="2">  1        4 0.17169553E-02 0.12500003E+03</pdfrwt>
<pdfrwt beam="1">  1       -4 0.53848617E-01 0.12500003E+03</pdfrwt>
<totfact> 0.68512234E+03</totfact>
</mgrwt>
</event>
<event>
 5    1  0.3261711E-002  0.1249923E+03  0.7818608E-02  0.1235081E+00
         -4   -1    0    0    0  501 -0.00000000000E+00  0.00000000000E+00  0.10822077553E+03  0.10822822717E+03  0.12700000000E+01 0.  1.
          4   -1    0    0  501    0  0.00000000000E+00 -0.00000000000E+00 -0.36070884165E+02  0.36093234608E+02  0.12700000000E+01 0.  1.
         25    2    1    2    0    0  0.00000000000E+00  0.00000000000E+00  0.72149891370E+02  0.14432146178E+03  0.12499230979E+03 0.  0.
    9000005    1    3    3    0    0  0.51316607421E+02 -0.35052667431E+02  0.43618721169E+02  0.75932052045E+02  0.10000000000E+01 0.  0.
    9000005    1    3    3    0    0 -0.51316607421E+02  0.35052667431E+02  0.28531170201E+02  0.68389409738E+02  0.10000000000E+01 0.  0.
<mgrwt>
<rscale>  0 0.12499231E+03</rscale>
<asrwt>0</asrwt>
<pdfrwt beam="2">  1        4 0.55516593E-02 0.12499231E+03</pdfrwt>
<pdfrwt beam="1">  1       -4 0.16651642E-01 0.12499231E+03</pdfrwt>
<totfact> 0.10046533E+04</totfact>
</mgrwt>
</event>
<event>
 5    1  0.3261711E-002  0.1250017E+03  0.7818608E-02  0.1235067E+00
         -4   -1    0    0    0  501 -0.00000000000E+00  0.00000000000E+00  0.15992755422E+02  0.16043102131E+02  0.12700000000E+01 0.  1.
          4   -1    0    0  501    0  0.00000000000E+00 -0.00000000000E+00 -0.24382203503E+03  0.24382534254E+03  0.12700000000E+01 0.  1.
         25    2    1    2    0    0  0.00000000000E+00  0.00000000000E+00 -0.22782927960E+03  0.25986844467E+03  0.12500171155E+03 0.  0.
    9000005    1    3    3    0    0 -0.25366363178E+02  0.50675920401E+02 -0.16867573970E+03  0.17794382949E+03  0.10000000000E+01 0.  0.
    9000005    1    3    3    0    0  0.25366363178E+02 -0.50675920401E+02 -0.59153539902E+02  0.81924615179E+02  0.10000000000E+01 0.  0.
<mgrwt>
<rscale>  0 0.12500171E+03</rscale>
<asrwt>0</asrwt>
<pdfrwt beam="2">  1        4 0.37515207E-01 0.12500171E+03</pdfrwt>
<pdfrwt beam="1">  1       -4 0.24645513E-02 0.12500171E+03</pdfrwt>
<totfact> 0.80921444E+03</totfact>
</mgrwt>
</event>
<event>
 5    1  0.3261711E-002  0.1249998E+03  0.7818608E-02  0.1235070E+00
          4   -1    0    0  501    0  0.00000000000E+00  0.00000000000E+00  0.86689827531E+02  0.86699129738E+02  0.12700000000E+01 0.  1.
         -4   -1    0    0    0  501 -0.00000000000E+00 -0.00000000000E+00 -0.45039279530E+02  0.45057181454E+02  0.12700000000E+01 0.  1.
         25    2    1    2    0    0  0.00000000000E+00  0.00000000000E+00  0.41650548001E+02  0.13175631119E+03  0.12499982956E+03 0.  0.
    9000005    1    3    3    0    0  0.54954733599E+02 -0.15215156975E+02 -0.61245808961E+01  0.57358820053E+02  0.10000000000E+01 0.  0.
    9000005    1    3    3    0    0 -0.54954733599E+02  0.15215156975E+02  0.47775128897E+02  0.74397491140E+02  0.10000000000E+01 0.  0.
<mgrwt>
<rscale>  0 0.12499983E+03</rscale>
<asrwt>0</asrwt>
<pdfrwt beam="1">  1        4 0.13338989E-01 0.12499983E+03</pdfrwt>
<pdfrwt beam="2">  1       -4 0.69312127E-02 0.12499983E+03</pdfrwt>
<totfact> 0.10306942E+04</totfact>
</mgrwt>
</event>
<event>
 5    1  0.3261711E-002  0.1249989E+03  0.7818608E-02  0.1235071E+00
          4   -1    0    0  501    0  0.00000000000E+00  0.00000000000E+00  0.51987392072E+02  0.52002902174E+02  0.12700000000E+01 0. -1.
         -4   -1    0    0    0  501 -0.00000000000E+00 -0.00000000000E+00 -0.75104961588E+02  0.75115698460E+02  0.12700000000E+01 0. -1.
         25    2    1    2    0    0  0.00000000000E+00  0.00000000000E+00 -0.23117569516E+02  0.12711860063E+03  0.12499886642E+03 0.  0.
    9000005    1    3    3    0    0  0.46331762273E+02  0.11911668792E+02 -0.52448327580E+02  0.70995402067E+02  0.10000000000E+01 0.  0.
    9000005    1    3    3    0    0 -0.46331762273E+02 -0.11911668792E+02  0.29330758064E+02  0.56123198567E+02  0.10000000000E+01 0.  0.
<mgrwt>
<rscale>  0 0.12499887E+03</rscale>
<asrwt>0</asrwt>
<pdfrwt beam="1">  1        4 0.80000793E-02 0.12499887E+03</pdfrwt>
<pdfrwt beam="2">  1       -4 0.11556628E-01 0.12499887E+03</pdfrwt>
<totfact> 0.10406836E+04</totfact>
</mgrwt>
</event>
<event>
 5    1  0.3261711E-002  0.1250078E+03  0.7818608E-02  0.1235057E+00
         -4   -1    0    0    0  501 -0.00000000000E+00  0.00000000000E+00  0.21130822137E+03  0.21131203780E+03  0.12700000000E+01 0. -1.
          4   -1    0    0  501    0  0.00000000000E+00 -0.00000000000E+00 -0.18462529421E+02  0.18506158235E+02  0.12700000000E+01 0. -1.
         25    2    1    2    0    0  0.00000000000E+00  0.00000000000E+00  0.19284569195E+03  0.22981819604E+03  0.12500776906E+03 0.  0.
    9000005    1    3    3    0    0 -0.42465980727E+02  0.81476193630E+01  0.17937649193E+03  0.18451739506E+03  0.10000000000E+01 0.  0.
    9000005    1    3    3    0    0  0.42465980727E+02 -0.81476193630E+01  0.13469200022E+02  0.45300800982E+02  0.10000000000E+01 0.  0.
<mgrwt>
<rscale>  0 0.12500777E+03</rscale>
<asrwt>0</asrwt>
<pdfrwt beam="2">  1        4 0.28440386E-02 0.12500777E+03</pdfrwt>
<pdfrwt beam="1">  1       -4 0.32512609E-01 0.12500777E+03</pdfrwt>
<totfact> 0.85322727E+03</totfact>
</mgrwt>
</event>
<event>
 5    1  0.3261711E-002  0.1249983E+03  0.7818608E-02  0.1235072E+00
         -4   -1    0    0    0  501 -0.00000000000E+00  0.00000000000E+00  0.12062607019E+03  0.12063275554E+03  0.12700000000E+01 0.  1.
          4   -1    0    0  501    0  0.00000000000E+00 -0.00000000000E+00 -0.32362231203E+02  0.32387141097E+02  0.12700000000E+01 0.  1.
         25    2    1    2    0    0  0.00000000000E+00  0.00000000000E+00  0.88263838985E+02  0.15301989664E+03  0.12499833397E+03 0.  0.
    9000005    1    3    3    0    0 -0.34832047634E+02 -0.10816183423E+02  0.10625064787E+03  0.11234082757E+03  0.10000000000E+01 0.  0.
    9000005    1    3    3    0    0  0.34832047634E+02  0.10816183423E+02 -0.17986808886E+02  0.40679069066E+02  0.10000000000E+01 0.  0.
<mgrwt>
<rscale>  0 0.12499833E+03</rscale>
<asrwt>0</asrwt>
<pdfrwt beam="2">  1        4 0.49812352E-02 0.12499833E+03</pdfrwt>
<pdfrwt beam="1">  1       -4 0.18560287E-01 0.12499833E+03</pdfrwt>
<totfact> 0.98708797E+03</totfact>
</mgrwt>
</event>
<event>
 5    1  0.3261711E-002  0.1249894E+03  0.7818608E-02  0.1235086E+00
         -4   -1    0    0    0  501 -0.00000000000E+00  0.00000000000E+00  0.59815299226E+01  0.61148671461E+01  0.12700000000E+01 0.  1.
          4   -1    0    0  501    0  0.00000000000E+00 -0.00000000000E+00 -0.64560981952E+03  0.64561106865E+03  0.12700000000E+01 0.  1.
         25    2    1    2    0    0  0.00000000000E+00  0.00000000000E+00 -0.63962828960E+03  0.65172593579E+03  0.12498938568E+03 0.  0.
    9000005    1    3    3    0    0 -0.14469924201E+02 -0.19333500341E+02 -0.62032074172E+03  0.62079141872E+03  0.10000000000E+01 0.  0.
    9000005    1    3    3    0    0  0.14469924201E+02  0.19333500341E+02 -0.19307547875E+02  0.30934517077E+02  0.10000000000E+01 0.  0.
<mgrwt>
<rscale>  0 0.12498939E+03</rscale>
<asrwt>0</asrwt>
<pdfrwt beam="2">  1        4 0.99334886E-01 0.12498939E+03</pdfrwt>
<pdfrwt beam="1">  1       -4 0.93058868E-03 0.12498939E+03</pdfrwt>
<totfact> 0.45767704E+03</totfact>
</mgrwt>
</event>
<event>
 5    1  0.3261711E-002  0.1249401E+03  0.7818608E-02  0.1235163E+00
          4   -1    0    0  501    0  0.00000000000E+00  0.00000000000E+00  0.40691497917E+02  0.40711311729E+02  0.12700000000E+01 0.  1.
         -4   -1    0    0    0  501 -0.00000000000E+00 -0.00000000000E+00 -0.95857381351E+02  0.95865794001E+02  0.12700000000E+01 0.  1.
         25    2    1    2    0    0  0.00000000000E+00  0.00000000000E+00 -0.55165883434E+02  0.13657710573E+03  0.12494011011E+03 0.  0.
    9000005    1    3    3    0    0  0.31925613196E+01  0.50491702514E+02  0.12460982661E+02  0.52114110943E+02  0.10000000000E+01 0.  0.
    9000005    1    3    3    0    0 -0.31925613196E+01 -0.50491702514E+02 -0.67626866095E+02  0.84462994787E+02  0.10000000000E+01 0.  0.
<mgrwt>
<rscale>  0 0.12494011E+03</rscale>
<asrwt>0</asrwt>
<pdfrwt beam="1">  1        4 0.62624017E-02 0.12494011E+03</pdfrwt>
<pdfrwt beam="2">  1       -4 0.14749461E-01 0.12494011E+03</pdfrwt>
<totfact> 0.10218729E+04</totfact>
</mgrwt>
</event>
<event>
 5    1  0.3261711E-002  0.1250090E+03  0.7818608E-02  0.1235055E+00
          4   -1    0    0  501    0  0.00000000000E+00  0.00000000000E+00  0.78226733597E+02  0.78237042053E+02  0.12700000000E+01 0. -1.
         -4   -1    0    0    0  501 -0.00000000000E+00 -0.00000000000E+00 -0.49920459938E+02  0.49936612024E+02  0.12700000000E+01 0. -1.
         25    2    1    2    0    0  0.00000000000E+00  0.00000000000E+00  0.28306273659E+02  0.12817365408E+03  0.12500896156E+03 0.  0.
    9000005    1    3    3    0    0  0.37697602491E+02  0.49271781609E+02  0.21893586164E+02  0.65796252261E+02  0.10000000000E+01 0.  0.
    9000005    1    3    3    0    0 -0.37697602491E+02 -0.49271781609E+02  0.64126874947E+01  0.62377401816E+02  0.10000000000E+01 0.  0.
<mgrwt>
<rscale>  0 0.12500896E+03</rscale>
<asrwt>0</asrwt>
<pdfrwt beam="1">  1        4 0.12036917E-01 0.12500896E+03</pdfrwt>
<pdfrwt beam="2">  1       -4 0.76821062E-02 0.12500896E+03</pdfrwt>
<totfact> 0.10381639E+04</totfact>
</mgrwt>
</event>
<event>
 5    1  0.3261711E-002  0.1250017E+03  0.7818608E-02  0.1235067E+00
         -4   -1    0    0    0  501 -0.00000000000E+00  0.00000000000E+00  0.96491358379E+01  0.97323544129E+01  0.12700000000E+01 0. -1.
          4   -1    0    0  501    0  0.00000000000E+00 -0.00000000000E+00 -0.40301720159E+03  0.40301920261E+03  0.12700000000E+01 0. -1.
         25    2    1    2    0    0  0.00000000000E+00  0.00000000000E+00 -0.39336806575E+03  0.41275155703E+03  0.12500165069E+03 0.  0.
    9000005    1    3    3    0    0 -0.37544030785E+02  0.35928034409E+02 -0.31130446414E+03  0.31561344601E+03  0.10000000000E+01 0.  0.
    9000005    1    3    3    0    0  0.37544030785E+02 -0.35928034409E+02 -0.82063601606E+02  0.97138111021E+02  0.10000000000E+01 0.  0.
<mgrwt>
<rscale>  0 0.12500165E+03</rscale>
<asrwt>0</asrwt>
<pdfrwt beam="2">  1        4 0.62009189E-01 0.12500165E+03</pdfrwt>
<pdfrwt beam="1">  1       -4 0.14910381E-02 0.12500165E+03</pdfrwt>
<totfact> 0.63328899E+03</totfact>
</mgrwt>
</event>
<event>
 5    1  0.3261711E-002  0.1250174E+03  0.7818608E-02  0.1235042E+00
          4   -1    0    0  501    0  0.00000000000E+00  0.00000000000E+00  0.17090156487E+03  0.17090628360E+03  0.12700000000E+01 0.  1.
         -4   -1    0    0    0  501 -0.00000000000E+00 -0.00000000000E+00 -0.22840416403E+02  0.22875697180E+02  0.12700000000E+01 0.  1.
         25    2    1    2    0    0  0.00000000000E+00  0.00000000000E+00  0.14806114847E+03  0.19378198078E+03  0.12501740835E+03 0.  0.
    9000005    1    3    3    0    0  0.29291522740E+01  0.59244731749E+02  0.10455573487E+03  0.12021405852E+03  0.10000000000E+01 0.  0.
    9000005    1    3    3    0    0 -0.29291522740E+01 -0.59244731749E+02  0.43505413598E+02  0.73567922258E+02  0.10000000000E+01 0.  0.
<mgrwt>
<rscale>  0 0.12501741E+03</rscale>
<asrwt>0</asrwt>
<pdfrwt beam="1">  1        4 0.26295625E-01 0.12501741E+03</pdfrwt>
<pdfrwt beam="2">  1       -4 0.35169872E-02 0.12501741E+03</pdfrwt>
<totfact> 0.91157857E+03</totfact>
</mgrwt>
</event>
<event>
 5    1  0.3261711E-002  0.1249956E+03  0.7818608E-02  0.1235076E+00
         -4   -1    0    0    0  501 -0.00000000000E+00  0.00000000000E+00  0.93417480449E+02  0.93426112803E+02  0.12700000000E+01 0.  1.
          4   -1    0    0  501    0  0.00000000000E+00 -0.00000000000E+00 -0.41791793166E+02  0.41811085563E+02  0.12700000000E+01 0.  1.
         25    2    1    2    0    0  0.00000000000E+00  0.00000000000E+00  0.51625687283E+02  0.13523719837E+03  0.12499555286E+03 0.  0.
    9000005    1    3    3    0    0  0.35021087946E+02 -0.14665912672E+02  0.79512269412E+02  0.88117912949E+02  0.10000000000E+01 0.  0.
    9000005    1    3    3    0    0 -0.35021087946E+02  0.14665912672E+02 -0.27886582129E+02  0.47119285417E+02  0.10000000000E+01 0.  0.
<mgrwt>
<rscale>  0 0.12499555E+03</rscale>
<asrwt>0</asrwt>
<pdfrwt beam="2">  1        4 0.64316548E-02 0.12499555E+03</pdfrwt>
<pdfrwt beam="1">  1       -4 0.14374068E-01 0.12499555E+03</pdfrwt>
<totfact> 0.10234100E+04</totfact>
</mgrwt>
</event>
<event>
 5    1  0.3261711E-002  0.1250084E+03  0.7818608E-02  0.1235056E+00
         -4   -1    0    0    0  501 -0.00000000000E+00  0.00000000000E+00  0.13414709579E+03  0.13415310734E+03  0.12700000000E+01 0. -1.
          4   -1    0    0  501    0  0.00000000000E+00 -0.00000000000E+00 -0.29102534606E+02  0.29130232070E+02  0.12700000000E+01 0. -1.
         25    2    1    2    0    0  0.00000000000E+00  0.00000000000E+00  0.10504456118E+03  0.16328333941E+03  0.12500835610E+03 0.  0.
    9000005    1    3    3    0    0 -0.38261331637E+02  0.44962755660E+02  0.79297154351E+02  0.98866665683E+02  0.10000000000E+01 0.  0.
    9000005    1    3    3    0    0  0.38261331637E+02 -0.44962755660E+02  0.25747406831E+02  0.64416673724E+02  0.10000000000E+01 0.  0.
<mgrwt>
<rscale>  0 0.12500836E+03</rscale>
<asrwt>0</asrwt>
<pdfrwt beam="2">  1        4 0.44799060E-02 0.12500836E+03</pdfrwt>
<pdfrwt beam="1">  1       -4 0.20640608E-01 0.12500836E+03</pdfrwt>
<totfact> 0.96695335E+03</totfact>
</mgrwt>
</event>
<event>
 5    1  0.3261711E-002  0.1249995E+03  0.7818608E-02  0.1235070E+00
          4   -1    0    0  501    0  0.00000000000E+00  0.00000000000E+00  0.47164506185E+02  0.47181601750E+02  0.12700000000E+01 0.  1.
         -4   -1    0    0    0  501 -0.00000000000E+00 -0.00000000000E+00 -0.82784181425E+02  0.82793922448E+02  0.12700000000E+01 0.  1.
         25    2    1    2    0    0  0.00000000000E+00  0.00000000000E+00 -0.35619675241E+02  0.12997552420E+03  0.12499950250E+03 0.  0.
    9000005    1    3    3    0    0 -0.44828313977E+02  0.21215533477E+02  0.21723974793E+02  0.54153556444E+02  0.10000000000E+01 0.  0.
    9000005    1    3    3    0    0  0.44828313977E+02 -0.21215533477E+02 -0.57343650033E+02  0.75821967753E+02  0.10000000000E+01 0.  0.
<mgrwt>
<rscale>  0 0.12499950E+03</rscale>
<asrwt>0</asrwt>
<pdfrwt beam="1">  1        4 0.72581423E-02 0.12499950E+03</pdfrwt>
<pdfrwt beam="2">  1       -4 0.12738092E-01 0.12499950E+03</pdfrwt>
<totfact> 0.10345147E+04</totfact>
</mgrwt>
</event>
<event>
 5    1  0.3261711E-002  0.1249984E+03  0.7818608E-02  0.1235072E+00
         -4   -1    0    0    0  501 -0.00000000000E+00  0.00000000000E+00  0.21029782915E+02  0.21068096009E+02  0.12700000000E+01 0. -1.
          4   -1    0    0  501    0  0.00000000000E+00 -0.00000000000E+00 -0.18553420813E+03  0.18553855472E+03  0.12700000000E+01 0. -1.
         25    2    1    2    0    0  0.00000000000E+00  0.00000000000E+00 -0.16450442522E+03  0.20660665073E+03  0.12499840883E+03 0.  0.
    9000005    1    3    3    0    0 -0.56361905611E+02 -0.16181013067E+02 -0.11795815910E+03  0.13173312752E+03  0.10000000000E+01 0.  0.
    9000005    1    3    3    0    0  0.56361905611E+02  0.16181013067E+02 -0.46546266112E+02  0.74873523204E+02  0.10000000000E+01 0.  0.
<mgrwt>
<rscale>  0 0.12499841E+03</rscale>
<asrwt>0</asrwt>
<pdfrwt beam="2">  1        4 0.28547005E-01 0.12499841E+03</pdfrwt>
<pdfrwt beam="1">  1       -4 0.32386329E-02 0.12499841E+03</pdfrwt>
<totfact> 0.89036244E+03</totfact>
</mgrwt>
</event>
<event>
 5    1  0.3261711E-002  0.1250042E+03  0.7818608E-02  0.1235063E+00
          4   -1    0    0  501    0  0.00000000000E+00  0.00000000000E+00  0.29674068793E+03  0.29674340561E+03  0.12700000000E+01 0.  1.
         -4   -1    0    0    0  501 -0.00000000000E+00 -0.00000000000E+00 -0.13131324773E+02  0.13192596040E+02  0.12700000000E+01 0.  1.
         25    2    1    2    0    0  0.00000000000E+00  0.00000000000E+00  0.28360936315E+03  0.30993600165E+03  0.12500421692E+03 0.  0.
    9000005    1    3    3    0    0 -0.46316162110E+02  0.15691099084E+02  0.45326979496E+02  0.66685324722E+02  0.10000000000E+01 0.  0.
    9000005    1    3    3    0    0  0.46316162110E+02 -0.15691099084E+02  0.23828238366E+03  0.24325067692E+03  0.10000000000E+01 0.  0.
<mgrwt>
<rscale>  0 0.12500422E+03</rscale>
<asrwt>0</asrwt>
<pdfrwt beam="1">  1        4 0.45657331E-01 0.12500422E+03</pdfrwt>
<pdfrwt beam="2">  1       -4 0.20251263E-02 0.12500422E+03</pdfrwt>
<totfact> 0.74362197E+03</totfact>
</mgrwt>
</event>
<event>
 5    1  0.3261711E-002  0.1250034E+03  0.7818608E-02  0.1235064E+00
         -4   -1    0    0    0  501 -0.00000000000E+00  0.00000000000E+00  0.28124633218E+02  0.28153292768E+02  0.12700000000E+01 0. -1.
          4   -1    0    0  501    0  0.00000000000E+00 -0.00000000000E+00 -0.13879585223E+03  0.13880166244E+03  0.12700000000E+01 0. -1.
         25    2    1    2    0    0  0.00000000000E+00  0.00000000000E+00 -0.11067121901E+03  0.16695495521E+03  0.12500335336E+03 0.  0.
    9000005    1    3    3    0    0  0.48168718546E+02 -0.11442041289E+02 -0.44017346128E+01  0.49714394524E+02  0.10000000000E+01 0.  0.
    9000005    1    3    3    0    0 -0.48168718546E+02  0.11442041289E+02 -0.10626948440E+03  0.11724056068E+03  0.10000000000E+01 0.  0.
<mgrwt>
<rscale>  0 0.12500335E+03</rscale>
<asrwt>0</asrwt>
<pdfrwt beam="2">  1        4 0.21355859E-01 0.12500335E+03</pdfrwt>
<pdfrwt beam="1">  1       -4 0.43295182E-02 0.12500335E+03</pdfrwt>
<totfact> 0.96011199E+03</totfact>
</mgrwt>
</event>
<event>
 5    1  0.3261711E-002  0.1250007E+03  0.7818608E-02  0.1235068E+00
         -4   -1    0    0    0  501 -0.00000000000E+00  0.00000000000E+00  0.39001885986E+02  0.39022557713E+02  0.12700000000E+01 0. -1.
          4   -1    0    0  501    0  0.00000000000E+00 -0.00000000000E+00 -0.10010524162E+03  0.10011329732E+03  0.12700000000E+01 0. -1.
         25    2    1    2    0    0  0.00000000000E+00  0.00000000000E+00 -0.61103355639E+02  0.13913585504E+03  0.12500066434E+03 0.  0.
    9000005    1    3    3    0    0  0.59268944707E+02 -0.17650984165E+02 -0.40564858352E+02  0.73965348520E+02  0.10000000000E+01 0.  0.
    9000005    1    3    3    0    0 -0.59268944707E+02  0.17650984165E+02 -0.20538497287E+02  0.65170506515E+02  0.10000000000E+01 0.  0.
<mgrwt>
<rscale>  0 0.12500066E+03</rscale>
<asrwt>0</asrwt>
<pdfrwt beam="2">  1        4 0.15403016E-01 0.12500066E+03</pdfrwt>
<pdfrwt beam="1">  1       -4 0.60025000E-02 0.12500066E+03</pdfrwt>
<totfact> 0.10151375E+04</totfact>
</mgrwt>
</event>
<event>
 5    1  0.3261711E-002  0.1250001E+03  0.7818608E-02  0.1235069E+00
         -4   -1    0    0    0  501 -0.00000000000E+00  0.00000000000E+00  0.69417472762E+01  0.70569650166E+01  0.12700000000E+01 0. -1.
          4   -1    0    0  501    0  0.00000000000E+00 -0.00000000000E+00 -0.55797213633E+03  0.55797358166E+03  0.12700000000E+01 0. -1.
         25    2    1    2    0    0  0.00000000000E+00  0.00000000000E+00 -0.55103038906E+03  0.56503054667E+03  0.12500011603E+03 0.  0.
    9000005    1    3    3    0    0  0.41432702713E+02 -0.34616022038E+02 -0.41776417357E+03  0.42123964979E+03  0.10000000000E+01 0.  0.
    9000005    1    3    3    0    0 -0.41432702713E+02  0.34616022038E+02 -0.13326621549E+03  0.14379089688E+03  0.10000000000E+01 0.  0.
<mgrwt>
<rscale>  0 0.12500012E+03</rscale>
<asrwt>0</asrwt>
<pdfrwt beam="2">  1        4 0.85850806E-01 0.12500012E+03</pdfrwt>
<pdfrwt beam="1">  1       -4 0.10769356E-02 0.12500012E+03</pdfrwt>
<totfact> 0.51151983E+03</totfact>
</mgrwt>
</event>
<event>
 5    1  0.3261711E-002  0.1250006E+03  0.7818608E-02  0.1235068E+00
         -4   -1    0    0    0  501 -0.00000000000E+00  0.00000000000E+00  0.32757080585E+02  0.32781690446E+02  0.12700000000E+01 0. -1.
          4   -1    0    0  501    0  0.00000000000E+00 -0.00000000000E+00 -0.11917734801E+03  0.11918411463E+03  0.12700000000E+01 0. -1.
         25    2    1    2    0    0  0.00000000000E+00  0.00000000000E+00 -0.86420267428E+02  0.15196580507E+03  0.12500057316E+03 0.  0.
    9000005    1    3    3    0    0  0.50787060775E+02  0.35640459152E+02 -0.34135451166E+02  0.70822290962E+02  0.10000000000E+01 0.  0.
    9000005    1    3    3    0    0 -0.50787060775E+02 -0.35640459152E+02 -0.52284816262E+02  0.81143514111E+02  0.10000000000E+01 0.  0.
<mgrwt>
<rscale>  0 0.12500057E+03</rscale>
<asrwt>0</asrwt>
<pdfrwt beam="2">  1        4 0.18337390E-01 0.12500057E+03</pdfrwt>
<pdfrwt beam="1">  1       -4 0.50419645E-02 0.12500057E+03</pdfrwt>
<totfact> 0.98912003E+03</totfact>
</mgrwt>
</event>
<event>
 5    1  0.3261711E-002  0.1250238E+03  0.7818608E-02  0.1235032E+00
         -4   -1    0    0    0  501 -0.00000000000E+00  0.00000000000E+00  0.67592499511E+03  0.67592618821E+03  0.12700000000E+01 0.  1.
          4   -1    0    0  501    0  0.00000000000E+00 -0.00000000000E+00 -0.57103602958E+01  0.58498815978E+01  0.12700000000E+01 0.  1.
         25    2    1    2    0    0  0.00000000000E+00  0.00000000000E+00  0.67021463481E+03  0.68177606981E+03  0.12502380833E+03 0.  0.
    9000005    1    3    3    0    0 -0.17113155631E+02  0.32008992990E+02  0.61259289766E+03  0.61366806499E+03  0.10000000000E+01 0.  0.
    9000005    1    3    3    0    0  0.17113155631E+02 -0.32008992990E+02  0.57621737152E+02  0.68108004818E+02  0.10000000000E+01 0.  0.
<mgrwt>
<rscale>  0 0.12502381E+03</rscale>
<asrwt>0</asrwt>
<pdfrwt beam="2">  1        4 0.88934085E-03 0.12502381E+03</pdfrwt>
<pdfrwt beam="1">  1       -4 0.10399932E+00 0.12502381E+03</pdfrwt>
<totfact> 0.44043366E+03</totfact>
</mgrwt>
</event>
<event>
 5    1  0.3261711E-002  0.1249940E+03  0.7818608E-02  0.1235079E+00
          4   -1    0    0  501    0  0.00000000000E+00  0.00000000000E+00  0.24447606222E+01  0.27549509070E+01  0.12700000000E+01 0. -1.
         -4   -1    0    0    0  501 -0.00000000000E+00 -0.00000000000E+00 -0.15020327456E+04  0.15020332825E+04  0.12700000000E+01 0. -1.
         25    2    1    2    0    0  0.00000000000E+00  0.00000000000E+00 -0.14995879850E+04  0.15047882334E+04  0.12499401077E+03 0.  0.
    9000005    1    3    3    0    0 -0.51633106457E+02  0.12819459099E+01 -0.32633074485E+03  0.33039427371E+03  0.10000000000E+01 0.  0.
    9000005    1    3    3    0    0  0.51633106457E+02 -0.12819459099E+01 -0.11732572402E+04  0.11743939597E+04  0.10000000000E+01 0.  0.
<mgrwt>
<rscale>  0 0.12499401E+03</rscale>
<asrwt>0</asrwt>
<pdfrwt beam="1">  1        4 0.40002031E-03 0.12499401E+03</pdfrwt>
<pdfrwt beam="2">  1       -4 0.23110517E+00 0.12499401E+03</pdfrwt>
<totfact> 0.17838915E+03</totfact>
</mgrwt>
</event>
<event>
 5    1  0.3261711E-002  0.1249943E+03  0.7818608E-02  0.1235078E+00
          4   -1    0    0  501    0  0.00000000000E+00  0.00000000000E+00  0.52211469726E+02  0.52226913282E+02  0.12700000000E+01 0. -1.
         -4   -1    0    0    0  501 -0.00000000000E+00 -0.00000000000E+00 -0.74777217816E+02  0.74788001741E+02  0.12700000000E+01 0. -1.
         25    2    1    2    0    0  0.00000000000E+00  0.00000000000E+00 -0.22565748090E+02  0.12701491502E+03  0.12499430248E+03 0.  0.
    9000005    1    3    3    0    0  0.21409599716E+02  0.31455434584E+02  0.39087366901E+02  0.54558570144E+02  0.10000000000E+01 0.  0.
    9000005    1    3    3    0    0 -0.21409599716E+02 -0.31455434584E+02 -0.61653114992E+02  0.72456344878E+02  0.10000000000E+01 0.  0.
<mgrwt>
<rscale>  0 0.12499430E+03</rscale>
<asrwt>0</asrwt>
<pdfrwt beam="1">  1        4 0.80345513E-02 0.12499430E+03</pdfrwt>
<pdfrwt beam="2">  1       -4 0.11506205E-01 0.12499430E+03</pdfrwt>
<totfact> 0.10410160E+04</totfact>
</mgrwt>
</event>
<event>
 5    1  0.3261711E-002  0.1250005E+03  0.7818608E-02  0.1235068E+00
         -4   -1    0    0    0  501 -0.00000000000E+00  0.00000000000E+00  0.33206578028E+03  0.33206820886E+03  0.12700000000E+01 0. -1.
          4   -1    0    0  501    0  0.00000000000E+00 -0.00000000000E+00 -0.11726821015E+02  0.11795390248E+02  0.12700000000E+01 0. -1.
         25    2    1    2    0    0  0.00000000000E+00  0.00000000000E+00  0.32033895927E+03  0.34386359910E+03  0.12500050386E+03 0.  0.
    9000005    1    3    3    0    0 -0.15735494043E+02  0.33626569538E+02  0.21885774607E+02  0.43108457196E+02  0.10000000000E+01 0.  0.
    9000005    1    3    3    0    0  0.15735494043E+02 -0.33626569538E+02  0.29845318466E+03  0.30075514191E+03  0.10000000000E+01 0.  0.
<mgrwt>
<rscale>  0 0.12500050E+03</rscale>
<asrwt>0</asrwt>
<pdfrwt beam="2">  1        4 0.18095878E-02 0.12500050E+03</pdfrwt>
<pdfrwt beam="1">  1       -4 0.51092502E-01 0.12500050E+03</pdfrwt>
<totfact> 0.70404167E+03</totfact>
</mgrwt>
</event>
<event>
 5    1  0.3261711E-002  0.1250006E+03  0.7818608E-02  0.1235068E+00
          4   -1    0    0  501    0  0.00000000000E+00  0.00000000000E+00  0.75317098072E+01  0.76380332953E+01  0.12700000000E+01 0. -1.
         -4   -1    0    0    0  501 -0.00000000000E+00 -0.00000000000E+00 -0.51490317152E+03  0.51490473773E+03  0.12700000000E+01 0. -1.
         25    2    1    2    0    0  0.00000000000E+00  0.00000000000E+00 -0.50737146171E+03  0.52254277103E+03  0.12500058958E+03 0.  0.
    9000005    1    3    3    0    0 -0.38542689564E+02  0.48084728725E+02 -0.29704975998E+03  0.30337639980E+03  0.10000000000E+01 0.  0.
    9000005    1    3    3    0    0  0.38542689564E+02 -0.48084728725E+02 -0.21032170174E+03  0.21916637123E+03  0.10000000000E+01 0.  0.
<mgrwt>
<rscale>  0 0.12500059E+03</rscale>
<asrwt>0</asrwt>
<pdfrwt beam="1">  1        4 0.11670242E-02 0.12500059E+03</pdfrwt>
<pdfrwt beam="2">  1       -4 0.79224145E-01 0.12500059E+03</pdfrwt>
<totfact> 0.54156094E+03</totfact>
</mgrwt>
</event>
<event>
 5    1  0.3261711E-002  0.1249964E+03  0.7818608E-02  0.1235075E+00
         -4   -1    0    0    0  501 -0.00000000000E+00  0.00000000000E+00  0.66344505087E+03  0.66344626641E+03  0.12700000000E+01 0.  1.
          4   -1    0    0  501    0  0.00000000000E+00 -0.00000000000E+00 -0.58177648456E+01  0.59547701718E+01  0.12700000000E+01 0.  1.
         25    2    1    2    0    0  0.00000000000E+00  0.00000000000E+00  0.65762728602E+03  0.66940103658E+03  0.12499640180E+03 0.  0.
    9000005    1    3    3    0    0 -0.34668824082E+02 -0.51284925124E+02  0.28307175971E+03  0.28976316545E+03  0.10000000000E+01 0.  0.
    9000005    1    3    3    0    0  0.34668824082E+02  0.51284925124E+02  0.37455552631E+03  0.37963787114E+03  0.10000000000E+01 0.  0.
<mgrwt>
<rscale>  0 0.12499640E+03</rscale>
<asrwt>0</asrwt>
<pdfrwt beam="2">  1        4 0.90567380E-03 0.12499640E+03</pdfrwt>
<pdfrwt beam="1">  1       -4 0.10207903E+00 0.12499640E+03</pdfrwt>
<totfact> 0.44755468E+03</totfact>
</mgrwt>
</event>
<event>
 5    1  0.3261711E-002  0.1250008E+03  0.7818608E-02  0.1235068E+00
          4   -1    0    0  501    0  0.00000000000E+00  0.00000000000E+00  0.37495863768E+02  0.37517365308E+02  0.12700000000E+01 0. -1.
         -4   -1    0    0    0  501 -0.00000000000E+00 -0.00000000000E+00 -0.10412428647E+03  0.10413203125E+03  0.12700000000E+01 0. -1.
         25    2    1    2    0    0  0.00000000000E+00  0.00000000000E+00 -0.66628422700E+02  0.14164939656E+03  0.12500081933E+03 0.  0.
    9000005    1    3    3    0    0  0.48064054959E+02  0.21343032887E+02  0.49402797855E+01  0.52830718302E+02  0.10000000000E+01 0.  0.
    9000005    1    3    3    0    0 -0.48064054959E+02 -0.21343032887E+02 -0.71568702486E+02  0.88818678258E+02  0.10000000000E+01 0.  0.
<mgrwt>
<rscale>  0 0.12500082E+03</rscale>
<asrwt>0</asrwt>
<pdfrwt beam="1">  1        4 0.57708442E-02 0.12500082E+03</pdfrwt>
<pdfrwt beam="2">  1       -4 0.16021371E-01 0.12500082E+03</pdfrwt>
<totfact> 0.10099329E+04</totfact>
</mgrwt>
</event>
<event>
 5    1  0.3261711E-002  0.1250011E+03  0.7818608E-02  0.1235068E+00
          4   -1    0    0  501    0  0.00000000000E+00  0.00000000000E+00  0.98636442147E+02  0.98644617792E+02  0.12700000000E+01 0. -1.
         -4   -1    0    0    0  501 -0.00000000000E+00 -0.00000000000E+00 -0.39583221369E+02  0.39603589660E+02  0.12700000000E+01 0. -1.
         25    2    1    2    0    0  0.00000000000E+00  0.00000000000E+00  0.59053220778E+02  0.13824820745E+03  0.12500113591E+03 0.  0.
    9000005    1    3    3    0    0  0.37160699688E+02  0.50886138691E+01 -0.25755681973E+02  0.45510073020E+02  0.10000000000E+01 0.  0.
    9000005    1    3    3    0    0 -0.37160699688E+02 -0.50886138691E+01  0.84808902750E+02  0.92738134433E+02  0.10000000000E+01 0.  0.
<mgrwt>
<rscale>  0 0.12500114E+03</rscale>
<asrwt>0</asrwt>
<pdfrwt beam="1">  1        4 0.15177033E-01 0.12500114E+03</pdfrwt>
<pdfrwt beam="2">  1       -4 0.60919220E-02 0.12500114E+03</pdfrwt>
<totfact> 0.10169762E+04</totfact>
</mgrwt>
</event>
<event>
 5    1  0.3261711E-002  0.1249991E+03  0.7818608E-02  0.1235071E+00
         -4   -1    0    0    0  501 -0.00000000000E+00  0.00000000000E+00  0.52874004036E+03  0.52874156559E+03  0.12700000000E+01 0.  1.
          4   -1    0    0  501    0  0.00000000000E+00 -0.00000000000E+00 -0.73316073117E+01  0.74407906685E+01  0.12700000000E+01 0.  1.
         25    2    1    2    0    0  0.00000000000E+00  0.00000000000E+00  0.52140843305E+03  0.53618235626E+03  0.12499906042E+03 0.  0.
    9000005    1    3    3    0    0 -0.50867012699E+02  0.34303249504E+02  0.31164368311E+03  0.31762706297E+03  0.10000000000E+01 0.  0.
    9000005    1    3    3    0    0  0.50867012699E+02 -0.34303249504E+02  0.20976474994E+03  0.21855529329E+03  0.10000000000E+01 0.  0.
<mgrwt>
<rscale>  0 0.12499906E+03</rscale>
<asrwt>0</asrwt>
<pdfrwt beam="2">  1        4 0.11364553E-02 0.12499906E+03</pdfrwt>
<pdfrwt beam="1">  1       -4 0.81353161E-01 0.12499906E+03</pdfrwt>
<totfact> 0.53163513E+03</totfact>
</mgrwt>
</event>
<event>
 5    1  0.3261711E-002  0.1250004E+03  0.7818608E-02  0.1235069E+00
         -4   -1    0    0    0  501 -0.00000000000E+00  0.00000000000E+00  0.13893836789E+03  0.13894417215E+03  0.12700000000E+01 0.  1.
          4   -1    0    0  501    0  0.00000000000E+00 -0.00000000000E+00 -0.28094417301E+02  0.28123107643E+02  0.12700000000E+01 0.  1.
         25    2    1    2    0    0  0.00000000000E+00  0.00000000000E+00  0.11084395059E+03  0.16706727979E+03  0.12500037837E+03 0.  0.
    9000005    1    3    3    0    0 -0.43556677403E+02  0.44775948404E+02  0.53029636451E+02  0.81946397382E+02  0.10000000000E+01 0.  0.
    9000005    1    3    3    0    0  0.43556677403E+02 -0.44775948404E+02  0.57814314142E+02  0.85120882406E+02  0.10000000000E+01 0.  0.
<mgrwt>
<rscale>  0 0.12500038E+03</rscale>
<asrwt>0</asrwt>
<pdfrwt beam="2">  1        4 0.43248716E-02 0.12500038E+03</pdfrwt>
<pdfrwt beam="1">  1       -4 0.21377786E-01 0.12500038E+03</pdfrwt>
<totfact> 0.95996493E+03</totfact>
</mgrwt>
</event>
<event>
 5    1  0.3261711E-002  0.1250081E+03  0.7818608E-02  0.1235057E+00
         -4   -1    0    0    0  501 -0.00000000000E+00  0.00000000000E+00  0.26680798659E+03  0.26681100915E+03  0.12700000000E+01 0.  1.
          4   -1    0    0  501    0  0.00000000000E+00 -0.00000000000E+00 -0.14611919655E+02  0.14667007057E+02  0.12700000000E+01 0.  1.
         25    2    1    2    0    0  0.00000000000E+00  0.00000000000E+00  0.25219606693E+03  0.28147801621E+03  0.12500806948E+03 0.  0.
    9000005    1    3    3    0    0  0.15548917192E+02  0.35270912849E+02  0.15331268570E+02  0.41495227617E+02  0.10000000000E+01 0.  0.
    9000005    1    3    3    0    0 -0.15548917192E+02 -0.35270912849E+02  0.23686479836E+03  0.23998278859E+03  0.10000000000E+01 0.  0.
<mgrwt>
<rscale>  0 0.12500807E+03</rscale>
<asrwt>0</asrwt>
<pdfrwt beam="2">  1        4 0.22524577E-02 0.12500807E+03</pdfrwt>
<pdfrwt beam="1">  1       -4 0.41051851E-01 0.12500807E+03</pdfrwt>
<totfact> 0.77968553E+03</totfact>
</mgrwt>
</event>
<event>
 5    1  0.3261711E-002  0.1250038E+03  0.7818608E-02  0.1235063E+00
          4   -1    0    0  501    0  0.00000000000E+00  0.00000000000E+00  0.25092915540E+02  0.25125033538E+02  0.12700000000E+01 0.  1.
         -4   -1    0    0    0  501 -0.00000000000E+00 -0.00000000000E+00 -0.15554673564E+03  0.15555192017E+03  0.12700000000E+01 0.  1.
         25    2    1    2    0    0  0.00000000000E+00  0.00000000000E+00 -0.13045382010E+03  0.18067695371E+03  0.12500384963E+03 0.  0.
    9000005    1    3    3    0    0 -0.41592122435E+02 -0.30316308580E+01  0.20472387184E+01  0.41764657554E+02  0.10000000000E+01 0.  0.
    9000005    1    3    3    0    0  0.41592122435E+02  0.30316308580E+01 -0.13250105882E+03  0.13891229615E+03  0.10000000000E+01 0.  0.
<mgrwt>
<rscale>  0 0.12500385E+03</rscale>
<asrwt>0</asrwt>
<pdfrwt beam="1">  1        4 0.38633181E-02 0.12500385E+03</pdfrwt>
<pdfrwt beam="2">  1       -4 0.23933136E-01 0.12500385E+03</pdfrwt>
<totfact> 0.93487222E+03</totfact>
</mgrwt>
</event>
<event>
 5    1  0.3261711E-002  0.1249972E+03  0.7818608E-02  0.1235074E+00
         -4   -1    0    0    0  501 -0.00000000000E+00  0.00000000000E+00  0.76424958355E+03  0.76425063876E+03  0.12700000000E+01 0. -1.
          4   -1    0    0  501    0  0.00000000000E+00 -0.00000000000E+00 -0.50310270333E+01  0.51888469827E+01  0.12700000000E+01 0. -1.
         25    2    1    2    0    0  0.00000000000E+00  0.00000000000E+00  0.75921855651E+03  0.76943948575E+03  0.12499722266E+03 0.  0.
    9000005    1    3    3    0    0 -0.20601044545E+02  0.58079844443E+02  0.31581430510E+03  0.32177219686E+03  0.10000000000E+01 0.  0.
    9000005    1    3    3    0    0  0.20601044545E+02 -0.58079844443E+02  0.44340425141E+03  0.44766728888E+03  0.10000000000E+01 0.  0.
<mgrwt>
<rscale>  0 0.12499722E+03</rscale>
<asrwt>0</asrwt>
<pdfrwt beam="2">  1        4 0.78622606E-03 0.12499722E+03</pdfrwt>
<pdfrwt beam="1">  1       -4 0.11758897E+00 0.12499722E+03</pdfrwt>
<totfact> 0.39663589E+03</totfact>
</mgrwt>
</event>
<event>
 5    1  0.3261711E-002  0.1250008E+03  0.7818608E-02  0.1235068E+00
          4   -1    0    0  501    0  0.00000000000E+00  0.00000000000E+00  0.41585947559E+03  0.41586141483E+03  0.12700000000E+01 0.  1.
         -4   -1    0    0    0  501 -0.00000000000E+00 -0.00000000000E+00 -0.93484180979E+01  0.94342896358E+01  0.12700000000E+01 0.  1.
         25    2    1    2    0    0  0.00000000000E+00  0.00000000000E+00  0.40651105750E+03  0.42529570446E+03  0.12500078547E+03 0.  0.
    9000005    1    3    3    0    0  0.39391384479E+02 -0.36723637911E+02  0.31111533354E+03  0.31574365792E+03  0.10000000000E+01 0.  0.
    9000005    1    3    3    0    0 -0.39391384479E+02  0.36723637911E+02  0.95395723953E+02  0.10955204654E+03  0.10000000000E+01 0.  0.
<mgrwt>
<rscale>  0 0.12500079E+03</rscale>
<asrwt>0</asrwt>
<pdfrwt beam="1">  1        4 0.63985150E-01 0.12500079E+03</pdfrwt>
<pdfrwt beam="2">  1       -4 0.14449725E-02 0.12500079E+03</pdfrwt>
<totfact> 0.62163647E+03</totfact>
</mgrwt>
</event>
<event>
 5    1  0.3261711E-002  0.1249980E+03  0.7818608E-02  0.1235072E+00
          4   -1    0    0  501    0  0.00000000000E+00  0.00000000000E+00  0.95619447395E+02  0.95627880977E+02  0.12700000000E+01 0.  1.
         -4   -1    0    0    0  501 -0.00000000000E+00 -0.00000000000E+00 -0.40830636721E+02  0.40850383046E+02  0.12700000000E+01 0.  1.
         25    2    1    2    0    0  0.00000000000E+00  0.00000000000E+00  0.54788810674E+02  0.13647826402E+03  0.12499801109E+03 0.  0.
    9000005    1    3    3    0    0  0.48402011652E+02  0.27426477106E+02  0.58471871480E+02  0.80715092348E+02  0.10000000000E+01 0.  0.
    9000005    1    3    3    0    0 -0.48402011652E+02 -0.27426477106E+02 -0.36830608058E+01  0.55763171675E+02  0.10000000000E+01 0.  0.
<mgrwt>
<rscale>  0 0.12499801E+03</rscale>
<asrwt>0</asrwt>
<pdfrwt beam="1">  1        4 0.14712852E-01 0.12499801E+03</pdfrwt>
<pdfrwt beam="2">  1       -4 0.62838042E-02 0.12499801E+03</pdfrwt>
<totfact> 0.10207464E+04</totfact>
</mgrwt>
</event>
<event>
 5    1  0.3261711E-002  0.1250033E+03  0.7818608E-02  0.1235064E+00
          4   -1    0    0  501    0  0.00000000000E+00  0.00000000000E+00  0.57014014564E+03  0.57014156011E+03  0.12700000000E+01 0. -1.
         -4   -1    0    0    0  501 -0.00000000000E+00 -0.00000000000E+00 -0.67914600123E+01  0.69091844018E+01  0.12700000000E+01 0. -1.
         25    2    1    2    0    0  0.00000000000E+00  0.00000000000E+00  0.56334868563E+03  0.57705074452E+03  0.12500328055E+03 0.  0.
    9000005    1    3    3    0    0  0.61961133704E+02  0.81406321645E+01  0.28141917546E+03  0.28827626385E+03  0.10000000000E+01 0.  0.
    9000005    1    3    3    0    0 -0.61961133704E+02 -0.81406321645E+01  0.28192951017E+03  0.28877448067E+03  0.10000000000E+01 0.  0.
<mgrwt>
<rscale>  0 0.12500328E+03</rscale>
<asrwt>0</asrwt>
<pdfrwt beam="1">  1        4 0.87723045E-01 0.12500328E+03</pdfrwt>
<pdfrwt beam="2">  1       -4 0.10540044E-02 0.12500328E+03</pdfrwt>
<totfact> 0.50345405E+03</totfact>
</mgrwt>
</event>
<event>
 5    1  0.3261711E-002  0.1250005E+03  0.7818608E-02  0.1235069E+00
         -4   -1    0    0    0  501 -0.00000000000E+00  0.00000000000E+00  0.56415389163E+03  0.56415532112E+03  0.12700000000E+01 0. -1.
          4   -1    0    0  501    0  0.00000000000E+00 -0.00000000000E+00 -0.68644526675E+01  0.69809462413E+01  0.12700000000E+01 0. -1.
         25    2    1    2    0    0  0.00000000000E+00  0.00000000000E+00  0.55728943896E+03  0.57113626736E+03  0.12500046844E+03 0.  0.
    9000005    1    3    3    0    0 -0.24346388258E+02 -0.57325818279E+02  0.30206905825E+03  0.30842456455E+03  0.10000000000E+01 0.  0.
    9000005    1    3    3    0    0  0.24346388258E+02  0.57325818279E+02  0.25522038071E+03  0.26271170281E+03  0.10000000000E+01 0.  0.
<mgrwt>
<rscale>  0 0.12500047E+03</rscale>
<asrwt>0</asrwt>
<pdfrwt beam="2">  1        4 0.10651407E-02 0.12500047E+03</pdfrwt>
<pdfrwt beam="1">  1       -4 0.86801976E-01 0.12500047E+03</pdfrwt>
<totfact> 0.50741255E+03</totfact>
</mgrwt>
</event>
<event>
 5    1  0.3261711E-002  0.1250023E+03  0.7818608E-02  0.1235066E+00
         -4   -1    0    0    0  501 -0.00000000000E+00  0.00000000000E+00  0.21395557353E+03  0.21395934274E+03  0.12700000000E+01 0. -1.
          4   -1    0    0  501    0  0.00000000000E+00 -0.00000000000E+00 -0.18231958359E+02  0.18276137601E+02  0.12700000000E+01 0. -1.
         25    2    1    2    0    0  0.00000000000E+00  0.00000000000E+00  0.19572361518E+03  0.23223548034E+03  0.12500233915E+03 0.  0.
    9000005    1    3    3    0    0 -0.19129392067E+02  0.51260983354E+02  0.41762943598E+02  0.68838691978E+02  0.10000000000E+01 0.  0.
    9000005    1    3    3    0    0  0.19129392067E+02 -0.51260983354E+02  0.15396067158E+03  0.16339678836E+03  0.10000000000E+01 0.  0.
<mgrwt>
<rscale>  0 0.12500234E+03</rscale>
<asrwt>0</asrwt>
<pdfrwt beam="2">  1        4 0.28086051E-02 0.12500234E+03</pdfrwt>
<pdfrwt beam="1">  1       -4 0.32919929E-01 0.12500234E+03</pdfrwt>
<totfact> 0.84963082E+03</totfact>
</mgrwt>
</event>
<event>
 5    1  0.3261711E-002  0.1249963E+03  0.7818608E-02  0.1235075E+00
         -4   -1    0    0    0  501 -0.00000000000E+00  0.00000000000E+00  0.41055740201E+02  0.41075378311E+02  0.12700000000E+01 0.  1.
          4   -1    0    0  501    0  0.00000000000E+00 -0.00000000000E+00 -0.95092728141E+02  0.95101208432E+02  0.12700000000E+01 0.  1.
         25    2    1    2    0    0  0.00000000000E+00  0.00000000000E+00 -0.54036987940E+02  0.13617658674E+03  0.12499626679E+03 0.  0.
    9000005    1    3    3    0    0 -0.47834329504E+02 -0.17780971794E+02 -0.66310037279E+02  0.83679788963E+02  0.10000000000E+01 0.  0.
    9000005    1    3    3    0    0  0.47834329504E+02  0.17780971794E+02  0.12273049339E+02  0.52496797780E+02  0.10000000000E+01 0.  0.
<mgrwt>
<rscale>  0 0.12499627E+03</rscale>
<asrwt>0</asrwt>
<pdfrwt beam="2">  1        4 0.14631813E-01 0.12499627E+03</pdfrwt>
<pdfrwt beam="1">  1       -4 0.63184307E-02 0.12499627E+03</pdfrwt>
<totfact> 0.10214190E+04</totfact>
</mgrwt>
</event>
<event>
 5    1  0.3261711E-002  0.1250015E+03  0.7818608E-02  0.1235067E+00
         -4   -1    0    0    0  501 -0.00000000000E+00  0.00000000000E+00  0.72281770458E+03  0.72281882028E+03  0.12700000000E+01 0. -1.
          4   -1    0    0  501    0  0.00000000000E+00 -0.00000000000E+00 -0.53285804407E+01  0.54778343817E+01  0.12700000000E+01 0. -1.
         25    2    1    2    0    0  0.00000000000E+00  0.00000000000E+00  0.71748912413E+03  0.72829665466E+03  0.12500149574E+03 0.  0.
    9000005    1    3    3    0    0  0.19233044711E+01  0.32434281347E+02  0.47723525816E+02  0.57742675924E+02  0.10000000000E+01 0.  0.
    9000005    1    3    3    0    0 -0.19233044711E+01 -0.32434281347E+02  0.66976559832E+03  0.67055397873E+03  0.10000000000E+01 0.  0.
<mgrwt>
<rscale>  0 0.12500150E+03</rscale>
<asrwt>0</asrwt>
<pdfrwt beam="2">  1        4 0.83134862E-03 0.12500150E+03</pdfrwt>
<pdfrwt beam="1">  1       -4 0.11121427E+00 0.12500150E+03</pdfrwt>
<totfact> 0.41632978E+03</totfact>
</mgrwt>
</event>
<event>
 5    1  0.3261711E-002  0.1249984E+03  0.7818608E-02  0.1235072E+00
         -4   -1    0    0    0  501 -0.00000000000E+00  0.00000000000E+00  0.61408210091E+02  0.61421341296E+02  0.12700000000E+01 0.  1.
          4   -1    0    0  501    0  0.00000000000E+00 -0.00000000000E+00 -0.63583284093E+02  0.63595966193E+02  0.12700000000E+01 0.  1.
         25    2    1    2    0    0  0.00000000000E+00  0.00000000000E+00 -0.21750740015E+01  0.12501730749E+03  0.12499838489E+03 0.  0.
    9000005    1    3    3    0    0  0.39313442601E+01 -0.61366239259E+01 -0.63161700604E+02  0.63588631406E+02  0.10000000000E+01 0.  0.
    9000005    1    3    3    0    0 -0.39313442601E+01  0.61366239259E+01  0.60986626603E+02  0.61428676083E+02  0.10000000000E+01 0.  0.
<mgrwt>
<rscale>  0 0.12499838E+03</rscale>
<asrwt>0</asrwt>
<pdfrwt beam="2">  1        4 0.97840294E-02 0.12499838E+03</pdfrwt>
<pdfrwt beam="1">  1       -4 0.94494025E-02 0.12499838E+03</pdfrwt>
<totfact> 0.10452868E+04</totfact>
</mgrwt>
</event>
<event>
 5    1  0.3261711E-002  0.1250013E+03  0.7818608E-02  0.1235067E+00
          4   -1    0    0  501    0  0.00000000000E+00  0.00000000000E+00  0.63698361855E+01  0.64952069275E+01  0.12700000000E+01 0. -1.
         -4   -1    0    0    0  501 -0.00000000000E+00 -0.00000000000E+00 -0.60715199371E+03  0.60715332196E+03  0.12700000000E+01 0. -1.
         25    2    1    2    0    0  0.00000000000E+00  0.00000000000E+00 -0.60078215752E+03  0.61364852889E+03  0.12500126481E+03 0.  0.
    9000005    1    3    3    0    0  0.48752271361E+02  0.25759062329E+02 -0.44477449360E+03  0.44818039160E+03  0.10000000000E+01 0.  0.
    9000005    1    3    3    0    0 -0.48752271361E+02 -0.25759062329E+02 -0.15600766393E+03  0.16546813729E+03  0.10000000000E+01 0.  0.
<mgrwt>
<rscale>  0 0.12500126E+03</rscale>
<asrwt>0</asrwt>
<pdfrwt beam="1">  1        4 0.98972135E-03 0.12500126E+03</pdfrwt>
<pdfrwt beam="2">  1       -4 0.93417700E-01 0.12500126E+03</pdfrwt>
<totfact> 0.48015942E+03</totfact>
</mgrwt>
</event>
<event>
 5    1  0.3261711E-002  0.1249987E+03  0.7818608E-02  0.1235071E+00
          4   -1    0    0  501    0  0.00000000000E+00  0.00000000000E+00  0.91297556984E+01  0.92176645151E+01  0.12700000000E+01 0.  1.
         -4   -1    0    0    0  501 -0.00000000000E+00 -0.00000000000E+00 -0.42571172501E+03  0.42571361936E+03  0.12700000000E+01 0.  1.
         25    2    1    2    0    0  0.00000000000E+00  0.00000000000E+00 -0.41658196931E+03  0.43493128387E+03  0.12499873815E+03 0.  0.
    9000005    1    3    3    0    0 -0.61302669151E+00  0.58295047240E+02 -0.12998456474E+03  0.14246289133E+03  0.10000000000E+01 0.  0.
    9000005    1    3    3    0    0  0.61302669151E+00 -0.58295047240E+02 -0.28659740457E+03  0.29246839255E+03  0.10000000000E+01 0.  0.
<mgrwt>
<rscale>  0 0.12499874E+03</rscale>
<asrwt>0</asrwt>
<pdfrwt beam="1">  1        4 0.14114861E-02 0.12499874E+03</pdfrwt>
<pdfrwt beam="2">  1       -4 0.65501004E-01 0.12499874E+03</pdfrwt>
<totfact> 0.61293242E+03</totfact>
</mgrwt>
</event>
<event>
 5    1  0.3261711E-002  0.1250005E+03  0.7818608E-02  0.1235068E+00
          4   -1    0    0  501    0  0.00000000000E+00  0.00000000000E+00  0.23989567746E+01  0.27143864143E+01  0.12700000000E+01 0.  1.
         -4   -1    0    0    0  501 -0.00000000000E+00 -0.00000000000E+00 -0.15275622407E+04  0.15275627687E+04  0.12700000000E+01 0.  1.
         25    2    1    2    0    0  0.00000000000E+00  0.00000000000E+00 -0.15251632840E+04  0.15302771551E+04  0.12500051450E+03 0.  0.
    9000005    1    3    3    0    0 -0.21716168511E+02 -0.23767999670E+02 -0.14182833867E+04  0.14186491021E+04  0.10000000000E+01 0.  0.
    9000005    1    3    3    0    0  0.21716168511E+02  0.23767999670E+02 -0.10687989724E+03  0.11162805300E+03  0.10000000000E+01 0.  0.
<mgrwt>
<rscale>  0 0.12500051E+03</rscale>
<asrwt>0</asrwt>
<pdfrwt beam="1">  1        4 0.39337592E-03 0.12500051E+03</pdfrwt>
<pdfrwt beam="2">  1       -4 0.23503315E+00 0.12500051E+03</pdfrwt>
<totfact> 0.17342745E+03</totfact>
</mgrwt>
</event>
<event>
 5    1  0.3261711E-002  0.1250031E+03  0.7818608E-02  0.1235065E+00
          4   -1    0    0  501    0  0.00000000000E+00  0.00000000000E+00  0.10767766046E+04  0.10767773536E+04  0.12700000000E+01 0.  1.
         -4   -1    0    0    0  501 -0.00000000000E+00 -0.00000000000E+00 -0.35159841532E+01  0.37383210891E+01  0.12700000000E+01 0.  1.
         25    2    1    2    0    0  0.00000000000E+00  0.00000000000E+00  0.10732606205E+04  0.10805156747E+04  0.12500305490E+03 0.  0.
    9000005    1    3    3    0    0 -0.56623139176E+01  0.36944322313E+02  0.96955979748E+03  0.97028044691E+03  0.10000000000E+01 0.  0.
    9000005    1    3    3    0    0  0.56623139176E+01 -0.36944322313E+02  0.10370082298E+03  0.11023522775E+03  0.10000000000E+01 0.  0.
<mgrwt>
<rscale>  0 0.12500305E+03</rscale>
<asrwt>0</asrwt>
<pdfrwt beam="1">  1        4 0.16567525E+00 0.12500305E+03</pdfrwt>
<pdfrwt beam="2">  1       -4 0.55808059E-03 0.12500305E+03</pdfrwt>
<totfact> 0.28058852E+03</totfact>
</mgrwt>
</event>
<event>
 5    1  0.3261711E-002  0.1249992E+03  0.7818608E-02  0.1235071E+00
          4   -1    0    0  501    0  0.00000000000E+00  0.00000000000E+00  0.12390100651E+03  0.12390751516E+03  0.12700000000E+01 0.  1.
         -4   -1    0    0    0  501 -0.00000000000E+00 -0.00000000000E+00 -0.31506651112E+02  0.31532236906E+02  0.12700000000E+01 0.  1.
         25    2    1    2    0    0  0.00000000000E+00  0.00000000000E+00  0.92394355398E+02  0.15543975207E+03  0.12499919845E+03 0.  0.
    9000005    1    3    3    0    0  0.24682998016E+02  0.56746182616E+02  0.57025159886E+02  0.84156095992E+02  0.10000000000E+01 0.  0.
    9000005    1    3    3    0    0 -0.24682998016E+02 -0.56746182616E+02  0.35369195512E+02  0.71283656077E+02  0.10000000000E+01 0.  0.
<mgrwt>
<rscale>  0 0.12499920E+03</rscale>
<asrwt>0</asrwt>
<pdfrwt beam="1">  1        4 0.19064162E-01 0.12499920E+03</pdfrwt>
<pdfrwt beam="2">  1       -4 0.48496459E-02 0.12499920E+03</pdfrwt>
<totfact> 0.98231010E+03</totfact>
</mgrwt>
</event>
<event>
 5    1  0.3261711E-002  0.1250026E+03  0.7818608E-02  0.1235065E+00
         -4   -1    0    0    0  501 -0.00000000000E+00  0.00000000000E+00  0.24687808132E+03  0.24688134789E+03  0.12700000000E+01 0.  1.
          4   -1    0    0  501    0  0.00000000000E+00 -0.00000000000E+00 -0.15794375662E+02  0.15845352711E+02  0.12700000000E+01 0.  1.
         25    2    1    2    0    0  0.00000000000E+00  0.00000000000E+00  0.23108370565E+03  0.26272670060E+03  0.12500256073E+03 0.  0.
    9000005    1    3    3    0    0 -0.43781104782E+01 -0.46209043119E+02  0.27594205885E+02  0.54008181933E+02  0.10000000000E+01 0.  0.
    9000005    1    3    3    0    0  0.43781104782E+01  0.46209043119E+02  0.20348949977E+03  0.20871851866E+03  0.10000000000E+01 0.  0.
<mgrwt>
<rscale>  0 0.12500256E+03</rscale>
<asrwt>0</asrwt>
<pdfrwt beam="2">  1        4 0.24340767E-02 0.12500256E+03</pdfrwt>
<pdfrwt beam="1">  1       -4 0.37985414E-01 0.12500256E+03</pdfrwt>
<totfact> 0.80520335E+03</totfact>
</mgrwt>
</event>
<event>
 5    1  0.3261711E-002  0.1250301E+03  0.7818608E-02  0.1235022E+00
          4   -1    0    0  501    0  0.00000000000E+00  0.00000000000E+00  0.95852767495E+02  0.95861180550E+02  0.12700000000E+01 0.  1.
         -4   -1    0    0    0  501 -0.00000000000E+00 -0.00000000000E+00 -0.40752156033E+02  0.40771940367E+02  0.12700000000E+01 0.  1.
         25    2    1    2    0    0  0.00000000000E+00  0.00000000000E+00  0.55100611462E+02  0.13663312092E+03  0.12503012576E+03 0.  0.
    9000005    1    3    3    0    0  0.75878112599E+01 -0.51770016625E+02 -0.98200511073E+01  0.53246059993E+02  0.10000000000E+01 0.  0.
    9000005    1    3    3    0    0 -0.75878112599E+01  0.51770016625E+02  0.64920662569E+02  0.83387060924E+02  0.10000000000E+01 0.  0.
<mgrwt>
<rscale>  0 0.12503013E+03</rscale>
<asrwt>0</asrwt>
<pdfrwt beam="1">  1        4 0.14748749E-01 0.12503013E+03</pdfrwt>
<pdfrwt beam="2">  1       -4 0.62717316E-02 0.12503013E+03</pdfrwt>
<totfact> 0.10196834E+04</totfact>
</mgrwt>
</event>
<event>
 5    1  0.3261711E-002  0.1250002E+03  0.7818608E-02  0.1235069E+00
         -4   -1    0    0    0  501 -0.00000000000E+00  0.00000000000E+00  0.53903960102E+02  0.53918918894E+02  0.12700000000E+01 0.  1.
          4   -1    0    0  501    0  0.00000000000E+00 -0.00000000000E+00 -0.72436467048E+02  0.72447599397E+02  0.12700000000E+01 0.  1.
         25    2    1    2    0    0  0.00000000000E+00  0.00000000000E+00 -0.18532506946E+02  0.12636651829E+03  0.12500017253E+03 0.  0.
    9000005    1    3    3    0    0 -0.42309881751E+02 -0.31863229190E+02 -0.42793041625E+02  0.68100190012E+02  0.10000000000E+01 0.  0.
    9000005    1    3    3    0    0  0.42309881751E+02  0.31863229190E+02  0.24260534679E+02  0.58266328279E+02  0.10000000000E+01 0.  0.
<mgrwt>
<rscale>  0 0.12500017E+03</rscale>
<asrwt>0</asrwt>
<pdfrwt beam="2">  1        4 0.11146079E-01 0.12500017E+03</pdfrwt>
<pdfrwt beam="1">  1       -4 0.82949239E-02 0.12500017E+03</pdfrwt>
<totfact> 0.10422900E+04</totfact>
</mgrwt>
</event>
<event>
 5    1  0.3261711E-002  0.1250125E+03  0.7818608E-02  0.1235050E+00
         -4   -1    0    0    0  501 -0.00000000000E+00  0.00000000000E+00  0.77051008706E+02  0.77061474438E+02  0.12700000000E+01 0. -1.
          4   -1    0    0  501    0  0.00000000000E+00 -0.00000000000E+00 -0.50685234275E+02  0.50701142724E+02  0.12700000000E+01 0. -1.
         25    2    1    2    0    0  0.00000000000E+00  0.00000000000E+00  0.26365774431E+02  0.12776261716E+03  0.12501252850E+03 0.  0.
    9000005    1    3    3    0    0  0.38569255691E+00  0.27966812635E+01  0.76990820883E+02  0.77049053758E+02  0.10000000000E+01 0.  0.
    9000005    1    3    3    0    0 -0.38569255691E+00 -0.27966812635E+01 -0.50625046452E+02  0.50713563403E+02  0.10000000000E+01 0.  0.
<mgrwt>
<rscale>  0 0.12501253E+03</rscale>
<asrwt>0</asrwt>
<pdfrwt beam="2">  1        4 0.77997572E-02 0.12501253E+03</pdfrwt>
<pdfrwt beam="1">  1       -4 0.11856030E-01 0.12501253E+03</pdfrwt>
<totfact> 0.10389679E+04</totfact>
</mgrwt>
</event>
<event>
 5    1  0.3261711E-002  0.1249988E+03  0.7818608E-02  0.1235071E+00
          4   -1    0    0  501    0  0.00000000000E+00  0.00000000000E+00  0.27187957716E+02  0.27217603582E+02  0.12700000000E+01 0. -1.
         -4   -1    0    0    0  501 -0.00000000000E+00 -0.00000000000E+00 -0.14356230934E+03  0.14356792665E+03  0.12700000000E+01 0. -1.
         25    2    1    2    0    0  0.00000000000E+00  0.00000000000E+00 -0.11637435162E+03  0.17078553023E+03  0.12499883048E+03 0.  0.
    9000005    1    3    3    0    0  0.16700853776E+02 -0.21613244864E+02 -0.13498140738E+03  0.13772084522E+03  0.10000000000E+01 0.  0.
    9000005    1    3    3    0    0 -0.16700853776E+02  0.21613244864E+02  0.18607055762E+02  0.33064685006E+02  0.10000000000E+01 0.  0.
<mgrwt>
<rscale>  0 0.12499883E+03</rscale>
<asrwt>0</asrwt>
<pdfrwt beam="1">  1        4 0.41854753E-02 0.12499883E+03</pdfrwt>
<pdfrwt beam="2">  1       -4 0.22089221E-01 0.12499883E+03</pdfrwt>
<totfact> 0.95304928E+03</totfact>
</mgrwt>
</event>
<event>
 5    1  0.3261711E-002  0.1250030E+03  0.7818608E-02  0.1235065E+00
          4   -1    0    0  501    0  0.00000000000E+00  0.00000000000E+00  0.98840934484E+01  0.99653501341E+01  0.12700000000E+01 0.  1.
         -4   -1    0    0    0  501 -0.00000000000E+00 -0.00000000000E+00 -0.39352432532E+03  0.39352637461E+03  0.12700000000E+01 0.  1.
         25    2    1    2    0    0  0.00000000000E+00  0.00000000000E+00 -0.38364023187E+03  0.40349172475E+03  0.12500297769E+03 0.  0.
    9000005    1    3    3    0    0 -0.56429758614E+02  0.13926499980E+02 -0.26593237468E+03  0.27221185308E+03  0.10000000000E+01 0.  0.
    9000005    1    3    3    0    0  0.56429758614E+02 -0.13926499980E+02 -0.11770785719E+03  0.13127987166E+03  0.10000000000E+01 0.  0.
<mgrwt>
<rscale>  0 0.12500298E+03</rscale>
<asrwt>0</asrwt>
<pdfrwt beam="1">  1        4 0.15270382E-02 0.12500298E+03</pdfrwt>
<pdfrwt beam="2">  1       -4 0.60548600E-01 0.12500298E+03</pdfrwt>
<totfact> 0.64210384E+03</totfact>
</mgrwt>
</event>
<event>
 5    1  0.3261711E-002  0.1249997E+03  0.7818608E-02  0.1235070E+00
         -4   -1    0    0    0  501 -0.00000000000E+00  0.00000000000E+00  0.25502064811E+01  0.28489389422E+01  0.12700000000E+01 0. -1.
          4   -1    0    0  501    0  0.00000000000E+00 -0.00000000000E+00 -0.14466833869E+04  0.14466839443E+04  0.12700000000E+01 0. -1.
         25    2    1    2    0    0  0.00000000000E+00  0.00000000000E+00 -0.14441331804E+04  0.14495328833E+04  0.12499974780E+03 0.  0.
    9000005    1    3    3    0    0  0.10472542550E+02  0.54014059754E+02 -0.10656850142E+04  0.10671048413E+04  0.10000000000E+01 0.  0.
    9000005    1    3    3    0    0 -0.10472542550E+02 -0.54014059754E+02 -0.37844816620E+03  0.38242804199E+03  0.10000000000E+01 0.  0.
<mgrwt>
<rscale>  0 0.12499975E+03</rscale>
<asrwt>0</asrwt>
<pdfrwt beam="2">  1        4 0.22258908E+00 0.12499975E+03</pdfrwt>
<pdfrwt beam="1">  1       -4 0.41536292E-03 0.12499975E+03</pdfrwt>
<totfact> 0.18942487E+03</totfact>
</mgrwt>
</event>
<event>
 5    1  0.3261711E-002  0.1250028E+03  0.7818608E-02  0.1235065E+00
          4   -1    0    0  501    0  0.00000000000E+00  0.00000000000E+00  0.32348901926E+01  0.34752574808E+01  0.12700000000E+01 0.  1.
         -4   -1    0    0    0  501 -0.00000000000E+00 -0.00000000000E+00 -0.11640925587E+04  0.11640932515E+04  0.12700000000E+01 0.  1.
         25    2    1    2    0    0  0.00000000000E+00  0.00000000000E+00 -0.11608576685E+04  0.11675685090E+04  0.12500278623E+03 0.  0.
    9000005    1    3    3    0    0  0.59928093249E+02  0.17701102542E+02 -0.58834748915E+03  0.59165739528E+03  0.10000000000E+01 0.  0.
    9000005    1    3    3    0    0 -0.59928093249E+02 -0.17701102542E+02 -0.57251017938E+03  0.57591111370E+03  0.10000000000E+01 0.  0.
<mgrwt>
<rscale>  0 0.12500279E+03</rscale>
<asrwt>0</asrwt>
<pdfrwt beam="1">  1        4 0.51621943E-03 0.12500279E+03</pdfrwt>
<pdfrwt beam="2">  1       -4 0.17910938E+00 0.12500279E+03</pdfrwt>
<totfact> 0.25576272E+03</totfact>
</mgrwt>
</event>
<event>
 5    1  0.3261711E-002  0.1250100E+03  0.7818608E-02  0.1235054E+00
          4   -1    0    0  501    0  0.00000000000E+00  0.00000000000E+00  0.53563147673E+02  0.53578201618E+02  0.12700000000E+01 0. -1.
         -4   -1    0    0    0  501 -0.00000000000E+00 -0.00000000000E+00 -0.72908737555E+02  0.72919797805E+02  0.12700000000E+01 0. -1.
         25    2    1    2    0    0  0.00000000000E+00  0.00000000000E+00 -0.19345589882E+02  0.12649799942E+03  0.12500996764E+03 0.  0.
    9000005    1    3    3    0    0  0.65110786405E+01 -0.52796770981E+02  0.23519790344E+02  0.58172791827E+02  0.10000000000E+01 0.  0.
    9000005    1    3    3    0    0 -0.65110786405E+01  0.52796770981E+02 -0.42865380226E+02  0.68325207596E+02  0.10000000000E+01 0.  0.
<mgrwt>
<rscale>  0 0.12500997E+03</rscale>
<asrwt>0</asrwt>
<pdfrwt beam="1">  1        4 0.82424930E-02 0.12500997E+03</pdfrwt>
<pdfrwt beam="2">  1       -4 0.11218738E-01 0.12500997E+03</pdfrwt>
<totfact> 0.10417728E+04</totfact>
</mgrwt>
</event>
<event>
 5    1  0.3261711E-002  0.1249895E+03  0.7818608E-02  0.1235086E+00
          4   -1    0    0  501    0  0.00000000000E+00  0.00000000000E+00  0.22684982952E+01  0.25998047071E+01  0.12700000000E+01 0. -1.
         -4   -1    0    0    0  501 -0.00000000000E+00 -0.00000000000E+00 -0.16041671749E+04  0.16041676776E+04  0.12700000000E+01 0. -1.
         25    2    1    2    0    0  0.00000000000E+00  0.00000000000E+00 -0.16018986766E+04  0.16067674823E+04  0.12498948820E+03 0.  0.
    9000005    1    3    3    0    0  0.10391619909E+02 -0.58774654716E+02 -0.10387352194E+04  0.10404490866E+04  0.10000000000E+01 0.  0.
    9000005    1    3    3    0    0 -0.10391619909E+02  0.58774654716E+02 -0.56316345724E+03  0.56631839576E+03  0.10000000000E+01 0.  0.
<mgrwt>
<rscale>  0 0.12498949E+03</rscale>
<asrwt>0</asrwt>
<pdfrwt beam="1">  1        4 0.37452480E-03 0.12498949E+03</pdfrwt>
<pdfrwt beam="2">  1       -4 0.24681963E+00 0.12498949E+03</pdfrwt>
<totfact> 0.15928007E+03</totfact>
</mgrwt>
</event>
<event>
 5    1  0.3261711E-002  0.1249897E+03  0.7818608E-02  0.1235085E+00
         -4   -1    0    0    0  501 -0.00000000000E+00  0.00000000000E+00  0.38158404829E+02  0.38179533248E+02  0.12700000000E+01 0.  1.
          4   -1    0    0  501    0  0.00000000000E+00 -0.00000000000E+00 -0.10229902380E+03  0.10230690676E+03  0.12700000000E+01 0.  1.
         25    2    1    2    0    0  0.00000000000E+00  0.00000000000E+00 -0.64140618974E+02  0.14048644001E+03  0.12498968287E+03 0.  0.
    9000005    1    3    3    0    0 -0.23274039236E+02 -0.46548062731E+02 -0.70944605054E+02  0.87991704340E+02  0.10000000000E+01 0.  0.
    9000005    1    3    3    0    0  0.23274039236E+02  0.46548062731E+02  0.68039860803E+01  0.52494735669E+02  0.10000000000E+01 0.  0.
<mgrwt>
<rscale>  0 0.12498968E+03</rscale>
<asrwt>0</asrwt>
<pdfrwt beam="2">  1        4 0.15740543E-01 0.12498968E+03</pdfrwt>
<pdfrwt beam="1">  1       -4 0.58727555E-02 0.12498968E+03</pdfrwt>
<totfact> 0.10125867E+04</totfact>
</mgrwt>
</event>
<event>
 5    1  0.3261711E-002  0.1250070E+03  0.7818608E-02  0.1235058E+00
         -4   -1    0    0    0  501 -0.00000000000E+00  0.00000000000E+00  0.44068379743E+03  0.44068562743E+03  0.12700000000E+01 0.  1.
          4   -1    0    0  501    0  0.00000000000E+00 -0.00000000000E+00 -0.88177198231E+01  0.89087082610E+01  0.12700000000E+01 0.  1.
         25    2    1    2    0    0  0.00000000000E+00  0.00000000000E+00  0.43186607761E+03  0.44959433569E+03  0.12500703057E+03 0.  0.
    9000005    1    3    3    0    0  0.55156398405E+02  0.18845019018E+02  0.29702125058E+03  0.30268793554E+03  0.10000000000E+01 0.  0.
    9000005    1    3    3    0    0 -0.55156398405E+02 -0.18845019018E+02  0.13484482703E+03  0.14690640014E+03  0.10000000000E+01 0.  0.
<mgrwt>
<rscale>  0 0.12500703E+03</rscale>
<asrwt>0</asrwt>
<pdfrwt beam="2">  1        4 0.13637122E-02 0.12500703E+03</pdfrwt>
<pdfrwt beam="1">  1       -4 0.67804647E-01 0.12500703E+03</pdfrwt>
<totfact> 0.59989661E+03</totfact>
</mgrwt>
</event>
<event>
 5    1  0.3261711E-002  0.1250014E+03  0.7818608E-02  0.1235067E+00
          4   -1    0    0  501    0  0.00000000000E+00  0.00000000000E+00  0.70138248330E+01  0.71278775795E+01  0.12700000000E+01 0.  1.
         -4   -1    0    0    0  501 -0.00000000000E+00 -0.00000000000E+00 -0.55234191568E+03  0.55234337573E+03  0.12700000000E+01 0.  1.
         25    2    1    2    0    0  0.00000000000E+00  0.00000000000E+00 -0.54532809085E+03  0.55947125331E+03  0.12500142646E+03 0.  0.
    9000005    1    3    3    0    0  0.24559164342E+02  0.21166216439E+02 -0.51177712111E+03  0.51280403954E+03  0.10000000000E+01 0.  0.
    9000005    1    3    3    0    0 -0.24559164342E+02 -0.21166216439E+02 -0.33550969737E+02  0.46667213778E+02  0.10000000000E+01 0.  0.
<mgrwt>
<rscale>  0 0.12500143E+03</rscale>
<asrwt>0</asrwt>
<pdfrwt beam="1">  1        4 0.10879360E-02 0.12500143E+03</pdfrwt>
<pdfrwt beam="2">  1       -4 0.84984531E-01 0.12500143E+03</pdfrwt>
<totfact> 0.51528493E+03</totfact>
</mgrwt>
</event>
<event>
 5    1  0.3261711E-002  0.1249840E+03  0.7818608E-02  0.1235094E+00
         -4   -1    0    0    0  501 -0.00000000000E+00  0.00000000000E+00  0.28375868412E+03  0.28376152613E+03  0.12700000000E+01 0. -1.
          4   -1    0    0  501    0  0.00000000000E+00 -0.00000000000E+00 -0.13730367063E+02  0.13788976746E+02  0.12700000000E+01 0. -1.
         25    2    1    2    0    0  0.00000000000E+00  0.00000000000E+00  0.27002831705E+03  0.29755050288E+03  0.12498403798E+03 0.  0.
    9000005    1    3    3    0    0 -0.45202416853E+02  0.43076487050E+02  0.14055165259E+03  0.15380055030E+03  0.10000000000E+01 0.  0.
    9000005    1    3    3    0    0  0.45202416853E+02 -0.43076487050E+02  0.12947666446E+03  0.14374995258E+03  0.10000000000E+01 0.  0.
<mgrwt>
<rscale>  0 0.12498404E+03</rscale>
<asrwt>0</asrwt>
<pdfrwt beam="2">  1        4 0.21170914E-02 0.12498404E+03</pdfrwt>
<pdfrwt beam="1">  1       -4 0.43659906E-01 0.12498404E+03</pdfrwt>
<totfact> 0.75934039E+03</totfact>
</mgrwt>
</event>
<event>
 5    1  0.3261711E-002  0.1249995E+03  0.7818608E-02  0.1235070E+00
         -4   -1    0    0    0  501 -0.00000000000E+00  0.00000000000E+00  0.66066390212E+03  0.66066512279E+03  0.12700000000E+01 0.  1.
          4   -1    0    0  501    0  0.00000000000E+00 -0.00000000000E+00 -0.58431233946E+01  0.59795477258E+01  0.12700000000E+01 0.  1.
         25    2    1    2    0    0  0.00000000000E+00  0.00000000000E+00  0.65482077873E+03  0.66664467052E+03  0.12499945788E+03 0.  0.
    9000005    1    3    3    0    0  0.54939956289E+01 -0.60192982674E+02  0.24277616438E+03  0.25018921868E+03  0.10000000000E+01 0.  0.
    9000005    1    3    3    0    0 -0.54939956289E+01  0.60192982674E+02  0.41204461435E+03  0.41645545184E+03  0.10000000000E+01 0.  0.
<mgrwt>
<rscale>  0 0.12499946E+03</rscale>
<asrwt>0</asrwt>
<pdfrwt beam="2">  1        4 0.90953032E-03 0.12499946E+03</pdfrwt>
<pdfrwt beam="1">  1       -4 0.10165117E+00 0.12499946E+03</pdfrwt>
<totfact> 0.44907423E+03</totfact>
</mgrwt>
</event>
<event>
 5    1  0.3261711E-002  0.1250493E+03  0.7818608E-02  0.1234992E+00
          4   -1    0    0  501    0  0.00000000000E+00  0.00000000000E+00  0.28477799125E+02  0.28506103610E+02  0.12700000000E+01 0.  1.
         -4   -1    0    0    0  501 -0.00000000000E+00 -0.00000000000E+00 -0.13717702213E+03  0.13718290091E+03  0.12700000000E+01 0.  1.
         25    2    1    2    0    0  0.00000000000E+00  0.00000000000E+00 -0.10869922301E+03  0.16568900452E+03  0.12504929082E+03 0.  0.
    9000005    1    3    3    0    0 -0.38612962329E+02  0.48702645854E+02 -0.45419662471E+02  0.76986065700E+02  0.10000000000E+01 0.  0.
    9000005    1    3    3    0    0  0.38612962329E+02 -0.48702645854E+02 -0.63279560536E+02  0.88702938816E+02  0.10000000000E+01 0.  0.
<mgrwt>
<rscale>  0 0.12504929E+03</rscale>
<asrwt>0</asrwt>
<pdfrwt beam="1">  1        4 0.43838294E-02 0.12504929E+03</pdfrwt>
<pdfrwt beam="2">  1       -4 0.21106786E-01 0.12504929E+03</pdfrwt>
<totfact> 0.96150564E+03</totfact>
</mgrwt>
</event>
<event>
 5    1  0.3261711E-002  0.1250355E+03  0.7818608E-02  0.1235014E+00
          4   -1    0    0  501    0  0.00000000000E+00  0.00000000000E+00  0.25740677641E+02  0.25771988387E+02  0.12700000000E+01 0. -1.
         -4   -1    0    0    0  501 -0.00000000000E+00 -0.00000000000E+00 -0.15171399561E+03  0.15171931112E+03  0.12700000000E+01 0. -1.
         25    2    1    2    0    0  0.00000000000E+00  0.00000000000E+00 -0.12597331797E+03  0.17749129950E+03  0.12503553318E+03 0.  0.
    9000005    1    3    3    0    0 -0.38759585104E+02  0.45721117893E+02 -0.37802752725E+02  0.70871532878E+02  0.10000000000E+01 0.  0.
    9000005    1    3    3    0    0  0.38759585104E+02 -0.45721117893E+02 -0.88170565248E+02  0.10661976662E+03  0.10000000000E+01 0.  0.
<mgrwt>
<rscale>  0 0.12503553E+03</rscale>
<asrwt>0</asrwt>
<pdfrwt beam="1">  1        4 0.39629217E-02 0.12503553E+03</pdfrwt>
<pdfrwt beam="2">  1       -4 0.23343432E-01 0.12503553E+03</pdfrwt>
<totfact> 0.93995609E+03</totfact>
</mgrwt>
</event>
<event>
 5    1  0.3261711E-002  0.1249994E+03  0.7818608E-02  0.1235070E+00
         -4   -1    0    0    0  501 -0.00000000000E+00  0.00000000000E+00  0.16744467250E+03  0.16744948865E+03  0.12700000000E+01 0.  1.
          4   -1    0    0  501    0  0.00000000000E+00 -0.00000000000E+00 -0.23305929502E+02  0.23340506634E+02  0.12700000000E+01 0.  1.
         25    2    1    2    0    0  0.00000000000E+00  0.00000000000E+00  0.14413874300E+03  0.19078999528E+03  0.12499938027E+03 0.  0.
    9000005    1    3    3    0    0 -0.28759499539E+01 -0.97718984367E+01 -0.22037728195E+02  0.24298612125E+02  0.10000000000E+01 0.  0.
    9000005    1    3    3    0    0  0.28759499539E+01  0.97718984367E+01  0.16617647119E+03  0.16649138316E+03  0.10000000000E+01 0.  0.
<mgrwt>
<rscale>  0 0.12499938E+03</rscale>
<asrwt>0</asrwt>
<pdfrwt beam="2">  1        4 0.35885578E-02 0.12499938E+03</pdfrwt>
<pdfrwt beam="1">  1       -4 0.25763750E-01 0.12499938E+03</pdfrwt>
<totfact> 0.91711312E+03</totfact>
</mgrwt>
</event>
<event>
 5    1  0.3261711E-002  0.1249862E+03  0.7818608E-02  0.1235091E+00
         -4   -1    0    0    0  501 -0.00000000000E+00  0.00000000000E+00  0.40607907259E+01  0.42547527918E+01  0.12700000000E+01 0.  1.
          4   -1    0    0  501    0  0.00000000000E+00 -0.00000000000E+00 -0.93910354412E+03  0.93910440286E+03  0.12700000000E+01 0.  1.
         25    2    1    2    0    0  0.00000000000E+00  0.00000000000E+00 -0.93504275339E+03  0.94335915566E+03  0.12498618278E+03 0.  0.
    9000005    1    3    3    0    0 -0.50266910018E+02 -0.36280666478E+02 -0.40840905893E+03  0.41308837846E+03  0.10000000000E+01 0.  0.
    9000005    1    3    3    0    0  0.50266910018E+02  0.36280666478E+02 -0.52663369447E+03  0.53027077720E+03  0.10000000000E+01 0.  0.
<mgrwt>
<rscale>  0 0.12498618E+03</rscale>
<asrwt>0</asrwt>
<pdfrwt beam="2">  1        4 0.14449229E+00 0.12498618E+03</pdfrwt>
<pdfrwt beam="1">  1       -4 0.63972400E-03 0.12498618E+03</pdfrwt>
<totfact> 0.32562781E+03</totfact>
</mgrwt>
</event>
<event>
 5    1  0.3261711E-002  0.1249958E+03  0.7818608E-02  0.1235076E+00
         -4   -1    0    0    0  501 -0.00000000000E+00  0.00000000000E+00  0.16658368604E+02  0.16706709567E+02  0.12700000000E+01 0. -1.
          4   -1    0    0  501    0  0.00000000000E+00 -0.00000000000E+00 -0.23408628273E+03  0.23408972780E+03  0.12700000000E+01 0. -1.
         25    2    1    2    0    0  0.00000000000E+00  0.00000000000E+00 -0.21742791413E+03  0.25079643737E+03  0.12499582055E+03 0.  0.
    9000005    1    3    3    0    0  0.77193945468E+01 -0.26349190056E+02  0.39171457904E+01  0.27752709776E+02  0.10000000000E+01 0.  0.
    9000005    1    3    3    0    0 -0.77193945468E+01  0.26349190056E+02 -0.22134505992E+03  0.22304372759E+03  0.10000000000E+01 0.  0.
<mgrwt>
<rscale>  0 0.12499582E+03</rscale>
<asrwt>0</asrwt>
<pdfrwt beam="2">  1        4 0.36017255E-01 0.12499582E+03</pdfrwt>
<pdfrwt beam="1">  1       -4 0.25668097E-02 0.12499582E+03</pdfrwt>
<totfact> 0.82222910E+03</totfact>
</mgrwt>
</event>
<event>
 5    1  0.3261711E-002  0.1250016E+03  0.7818608E-02  0.1235067E+00
          4   -1    0    0  501    0  0.00000000000E+00  0.00000000000E+00  0.21055228191E+02  0.21093495068E+02  0.12700000000E+01 0.  1.
         -4   -1    0    0    0  501 -0.00000000000E+00 -0.00000000000E+00 -0.18531984540E+03  0.18532419701E+03  0.12700000000E+01 0.  1.
         25    2    1    2    0    0  0.00000000000E+00  0.00000000000E+00 -0.16426461721E+03  0.20641769208E+03  0.12500159654E+03 0.  0.
    9000005    1    3    3    0    0  0.18649941999E+02 -0.57928153040E+02 -0.58670855090E+02  0.84538514821E+02  0.10000000000E+01 0.  0.
    9000005    1    3    3    0    0 -0.18649941999E+02  0.57928153040E+02 -0.10559376212E+03  0.12187917726E+03  0.10000000000E+01 0.  0.
<mgrwt>
<rscale>  0 0.12500160E+03</rscale>
<asrwt>0</asrwt>
<pdfrwt beam="1">  1        4 0.32425444E-02 0.12500160E+03</pdfrwt>
<pdfrwt beam="2">  1       -4 0.28514023E-01 0.12500160E+03</pdfrwt>
<totfact> 0.89061101E+03</totfact>
</mgrwt>
</event>
<event>
 5    1  0.3261711E-002  0.1250042E+03  0.7818608E-02  0.1235063E+00
          4   -1    0    0  501    0  0.00000000000E+00  0.00000000000E+00  0.13319553379E+04  0.13319559434E+04  0.12700000000E+01 0.  1.
         -4   -1    0    0    0  501 -0.00000000000E+00 -0.00000000000E+00 -0.27948006631E+01  0.30698225920E+01  0.12700000000E+01 0.  1.
         25    2    1    2    0    0  0.00000000000E+00  0.00000000000E+00  0.13291605373E+04  0.13350257660E+04  0.12500424799E+03 0.  0.
    9000005    1    3    3    0    0  0.34250341694E+02  0.50688629866E+02  0.52819051718E+03  0.53172233876E+03  0.10000000000E+01 0.  0.
    9000005    1    3    3    0    0 -0.34250341694E+02 -0.50688629866E+02  0.80097002008E+03  0.80330342722E+03  0.10000000000E+01 0.  0.
<mgrwt>
<rscale>  0 0.12500425E+03</rscale>
<asrwt>0</asrwt>
<pdfrwt beam="1">  1        4 0.20493764E+00 0.12500425E+03</pdfrwt>
<pdfrwt beam="2">  1       -4 0.45117093E-03 0.12500425E+03</pdfrwt>
<totfact> 0.21414613E+03</totfact>
</mgrwt>
</event>
<event>
 5    1  0.3261711E-002  0.1249907E+03  0.7818608E-02  0.1235084E+00
          4   -1    0    0  501    0  0.00000000000E+00  0.00000000000E+00  0.12983728603E+03  0.12984349712E+03  0.12700000000E+01 0. -1.
         -4   -1    0    0    0  501 -0.00000000000E+00 -0.00000000000E+00 -0.30060895996E+02  0.30087711247E+02  0.12700000000E+01 0. -1.
         25    2    1    2    0    0  0.00000000000E+00  0.00000000000E+00  0.99776390036E+02  0.15993120837E+03  0.12499065325E+03 0.  0.
    9000005    1    3    3    0    0 -0.55870754206E+02  0.15001339561E+01  0.85643973495E+02  0.10227258564E+03  0.10000000000E+01 0.  0.
    9000005    1    3    3    0    0  0.55870754206E+02 -0.15001339561E+01  0.14132416541E+02  0.57658622726E+02  0.10000000000E+01 0.  0.
<mgrwt>
<rscale>  0 0.12499065E+03</rscale>
<asrwt>0</asrwt>
<pdfrwt beam="1">  1        4 0.19977507E-01 0.12499065E+03</pdfrwt>
<pdfrwt beam="2">  1       -4 0.46272938E-02 0.12499065E+03</pdfrwt>
<totfact> 0.97376506E+03</totfact>
</mgrwt>
</event>
<event>
 5    1  0.3261711E-002  0.1249743E+03  0.7818608E-02  0.1235109E+00
         -4   -1    0    0    0  501 -0.00000000000E+00  0.00000000000E+00  0.17932273588E+02  0.17977189325E+02  0.12700000000E+01 0. -1.
          4   -1    0    0  501    0  0.00000000000E+00 -0.00000000000E+00 -0.21742480815E+03  0.21742851721E+03  0.12700000000E+01 0. -1.
         25    2    1    2    0    0  0.00000000000E+00  0.00000000000E+00 -0.19949253456E+03  0.23540570654E+03  0.12497429866E+03 0.  0.
    9000005    1    3    3    0    0 -0.43382160833E+02  0.44411582698E+02 -0.86528145642E+02  0.10650127015E+03  0.10000000000E+01 0.  0.
    9000005    1    3    3    0    0  0.43382160833E+02 -0.44411582698E+02 -0.11296438892E+03  0.12890443638E+03  0.10000000000E+01 0.  0.
<mgrwt>
<rscale>  0 0.12497430E+03</rscale>
<asrwt>0</asrwt>
<pdfrwt beam="2">  1        4 0.33453709E-01 0.12497430E+03</pdfrwt>
<pdfrwt beam="1">  1       -4 0.27625518E-02 0.12497430E+03</pdfrwt>
<totfact> 0.84534844E+03</totfact>
</mgrwt>
</event>
<event>
 5    1  0.3261711E-002  0.1249978E+03  0.7818608E-02  0.1235073E+00
         -4   -1    0    0    0  501 -0.00000000000E+00  0.00000000000E+00  0.10867870329E+03  0.10868612354E+03  0.12700000000E+01 0.  1.
          4   -1    0    0  501    0  0.00000000000E+00 -0.00000000000E+00 -0.35921980196E+02  0.35944423229E+02  0.12700000000E+01 0.  1.
         25    2    1    2    0    0  0.00000000000E+00  0.00000000000E+00  0.72756723096E+02  0.14463054677E+03  0.12499781719E+03 0.  0.
    9000005    1    3    3    0    0 -0.14144407074E+02 -0.60342437230E+02  0.45623270837E+02  0.76965945873E+02  0.10000000000E+01 0.  0.
    9000005    1    3    3    0    0  0.14144407074E+02  0.60342437230E+02  0.27133452259E+02  0.67664600892E+02  0.10000000000E+01 0.  0.
<mgrwt>
<rscale>  0 0.12499782E+03</rscale>
<asrwt>0</asrwt>
<pdfrwt beam="2">  1        4 0.55287556E-02 0.12499782E+03</pdfrwt>
<pdfrwt beam="1">  1       -4 0.16722098E-01 0.12499782E+03</pdfrwt>
<totfact> 0.10038994E+04</totfact>
</mgrwt>
</event>
<event>
 5    1  0.3261711E-002  0.1250005E+03  0.7818608E-02  0.1235069E+00
          4   -1    0    0  501    0  0.00000000000E+00  0.00000000000E+00  0.31736812153E+03  0.31737066257E+03  0.12700000000E+01 0. -1.
         -4   -1    0    0    0  501 -0.00000000000E+00 -0.00000000000E+00 -0.12272998422E+02  0.12338532744E+02  0.12700000000E+01 0. -1.
         25    2    1    2    0    0  0.00000000000E+00  0.00000000000E+00  0.30509512310E+03  0.32970919531E+03  0.12500047733E+03 0.  0.
    9000005    1    3    3    0    0  0.18758164904E+02  0.26522542491E+02  0.11735708436E+02  0.34554896371E+02  0.10000000000E+01 0.  0.
    9000005    1    3    3    0    0 -0.18758164904E+02 -0.26522542491E+02  0.29335941467E+03  0.29515429894E+03  0.10000000000E+01 0.  0.
<mgrwt>
<rscale>  0 0.12500048E+03</rscale>
<asrwt>0</asrwt>
<pdfrwt beam="1">  1        4 0.48831093E-01 0.12500048E+03</pdfrwt>
<pdfrwt beam="2">  1       -4 0.18933905E-02 0.12500048E+03</pdfrwt>
<totfact> 0.72015277E+03</totfact>
</mgrwt>
</event>
<event>
 5    1  0.3261711E-002  0.1250015E+03  0.7818608E-02  0.1235067E+00
         -4   -1    0    0    0  501 -0.00000000000E+00  0.00000000000E+00  0.93148256774E+02  0.93156914076E+02  0.12700000000E+01 0. -1.
          4   -1    0    0  501    0  0.00000000000E+00 -0.00000000000E+00 -0.41916638402E+02  0.41935873365E+02  0.12700000000E+01 0. -1.
         25    2    1    2    0    0  0.00000000000E+00  0.00000000000E+00  0.51231618373E+02  0.13509278744E+03  0.12500152998E+03 0.  0.
    9000005    1    3    3    0    0 -0.10189578672E+01  0.52292183452E+02  0.62579822736E+02  0.81564360716E+02  0.10000000000E+01 0.  0.
    9000005    1    3    3    0    0  0.10189578672E+01 -0.52292183452E+02 -0.11348204363E+02  0.53528426725E+02  0.10000000000E+01 0.  0.
<mgrwt>
<rscale>  0 0.12500153E+03</rscale>
<asrwt>0</asrwt>
<pdfrwt beam="2">  1        4 0.64508592E-02 0.12500153E+03</pdfrwt>
<pdfrwt beam="1">  1       -4 0.14332647E-01 0.12500153E+03</pdfrwt>
<totfact> 0.10235762E+04</totfact>
</mgrwt>
</event>
<event>
 5    1  0.3261711E-002  0.1250263E+03  0.7818608E-02  0.1235028E+00
          4   -1    0    0  501    0  0.00000000000E+00  0.00000000000E+00  0.24060832659E+02  0.24094326474E+02  0.12700000000E+01 0.  1.
         -4   -1    0    0    0  501 -0.00000000000E+00 -0.00000000000E+00 -0.16226817936E+03  0.16227314914E+03  0.12700000000E+01 0.  1.
         25    2    1    2    0    0  0.00000000000E+00  0.00000000000E+00 -0.13820734670E+03  0.18636747562E+03  0.12502625839E+03 0.  0.
    9000005    1    3    3    0    0 -0.48836914661E+02  0.30411866182E+02 -0.32683375044E+02  0.66174986532E+02  0.10000000000E+01 0.  0.
    9000005    1    3    3    0    0  0.48836914661E+02 -0.30411866182E+02 -0.10552397166E+03  0.12019248909E+03  0.10000000000E+01 0.  0.
<mgrwt>
<rscale>  0 0.12502626E+03</rscale>
<asrwt>0</asrwt>
<pdfrwt beam="1">  1        4 0.37046254E-02 0.12502626E+03</pdfrwt>
<pdfrwt beam="2">  1       -4 0.24967293E-01 0.12502626E+03</pdfrwt>
<totfact> 0.92428836E+03</totfact>
</mgrwt>
</event>
<event>
 5    1  0.3261711E-002  0.1250132E+03  0.7818608E-02  0.1235049E+00
          4   -1    0    0  501    0  0.00000000000E+00  0.00000000000E+00  0.20576273446E+02  0.20615429390E+02  0.12700000000E+01 0. -1.
         -4   -1    0    0    0  501 -0.00000000000E+00 -0.00000000000E+00 -0.18966064649E+03  0.18966489851E+03  0.12700000000E+01 0. -1.
         25    2    1    2    0    0  0.00000000000E+00  0.00000000000E+00 -0.16908437304E+03  0.21028032790E+03  0.12501316368E+03 0.  0.
    9000005    1    3    3    0    0  0.31636643399E+02  0.40215316231E+02 -0.24176797704E+02  0.56600940030E+02  0.10000000000E+01 0.  0.
    9000005    1    3    3    0    0 -0.31636643399E+02 -0.40215316231E+02 -0.14490757534E+03  0.15367938787E+03  0.10000000000E+01 0.  0.
<mgrwt>
<rscale>  0 0.12501316E+03</rscale>
<asrwt>0</asrwt>
<pdfrwt beam="1">  1        4 0.31689197E-02 0.12501316E+03</pdfrwt>
<pdfrwt beam="2">  1       -4 0.29181899E-01 0.12501316E+03</pdfrwt>
<totfact> 0.88404102E+03</totfact>
</mgrwt>
</event>
<event>
 5    1  0.3261711E-002  0.1250102E+03  0.7818608E-02  0.1235053E+00
          4   -1    0    0  501    0  0.00000000000E+00  0.00000000000E+00  0.38681338196E+02  0.38702181135E+02  0.12700000000E+01 0.  1.
         -4   -1    0    0    0  501 -0.00000000000E+00 -0.00000000000E+00 -0.10094976638E+03  0.10095775469E+03  0.12700000000E+01 0.  1.
         25    2    1    2    0    0  0.00000000000E+00  0.00000000000E+00 -0.62268428184E+02  0.13965993583E+03  0.12501016169E+03 0.  0.
    9000005    1    3    3    0    0 -0.15386209184E+02 -0.55226898621E+02 -0.58932673677E+02  0.82224119278E+02  0.10000000000E+01 0.  0.
    9000005    1    3    3    0    0  0.15386209184E+02  0.55226898621E+02 -0.33357545064E+01  0.57435816547E+02  0.10000000000E+01 0.  0.
<mgrwt>
<rscale>  0 0.12501016E+03</rscale>
<asrwt>0</asrwt>
<pdfrwt beam="1">  1        4 0.59531929E-02 0.12501016E+03</pdfrwt>
<pdfrwt beam="2">  1       -4 0.15532951E-01 0.12501016E+03</pdfrwt>
<totfact> 0.10138317E+04</totfact>
</mgrwt>
</event>
<event>
 5    1  0.3261711E-002  0.1250030E+03  0.7818608E-02  0.1235065E+00
          4   -1    0    0  501    0  0.00000000000E+00  0.00000000000E+00  0.33498111967E+02  0.33522177813E+02  0.12700000000E+01 0. -1.
         -4   -1    0    0    0  501 -0.00000000000E+00 -0.00000000000E+00 -0.11654719869E+03  0.11655411800E+03  0.12700000000E+01 0. -1.
         25    2    1    2    0    0  0.00000000000E+00  0.00000000000E+00 -0.83049086726E+02  0.15007629581E+03  0.12500297500E+03 0.  0.
    9000005    1    3    3    0    0 -0.42824693310E+02  0.41830018345E+01  0.12886905349E+02  0.44927988948E+02  0.10000000000E+01 0.  0.
    9000005    1    3    3    0    0  0.42824693310E+02 -0.41830018345E+01 -0.95935992075E+02  0.10514830687E+03  0.10000000000E+01 0.  0.
<mgrwt>
<rscale>  0 0.12500298E+03</rscale>
<asrwt>0</asrwt>
<pdfrwt beam="1">  1        4 0.51559392E-02 0.12500298E+03</pdfrwt>
<pdfrwt beam="2">  1       -4 0.17932722E-01 0.12500298E+03</pdfrwt>
<totfact> 0.99281844E+03</totfact>
</mgrwt>
</event>
<event>
 5    1  0.3261711E-002  0.1250019E+03  0.7818608E-02  0.1235066E+00
         -4   -1    0    0    0  501 -0.00000000000E+00  0.00000000000E+00  0.54799585313E+03  0.54799732476E+03  0.12700000000E+01 0. -1.
          4   -1    0    0  501    0  0.00000000000E+00 -0.00000000000E+00 -0.70704023281E+01  0.71835568545E+01  0.12700000000E+01 0. -1.
         25    2    1    2    0    0  0.00000000000E+00  0.00000000000E+00  0.54092545080E+03  0.55518088161E+03  0.12500187194E+03 0.  0.
    9000005    1    3    3    0    0 -0.98596347474E+01 -0.57949686979E+02  0.36467741779E+03  0.36938597383E+03  0.10000000000E+01 0.  0.
    9000005    1    3    3    0    0  0.98596347474E+01  0.57949686979E+02  0.17624803301E+03  0.18579490778E+03  0.10000000000E+01 0.  0.
<mgrwt>
<rscale>  0 0.12500187E+03</rscale>
<asrwt>0</asrwt>
<pdfrwt beam="2">  1        4 0.10965717E-02 0.12500187E+03</pdfrwt>
<pdfrwt beam="1">  1       -4 0.84315868E-01 0.12500187E+03</pdfrwt>
<totfact> 0.51822589E+03</totfact>
</mgrwt>
</event>
<event>
 5    1  0.3261711E-002  0.1250023E+03  0.7818608E-02  0.1235066E+00
          4   -1    0    0  501    0  0.00000000000E+00  0.00000000000E+00  0.11002739927E+03  0.11003472856E+03  0.12700000000E+01 0.  1.
         -4   -1    0    0    0  501 -0.00000000000E+00 -0.00000000000E+00 -0.35483945202E+02  0.35506665108E+02  0.12700000000E+01 0.  1.
         25    2    1    2    0    0  0.00000000000E+00  0.00000000000E+00  0.74543454065E+02  0.14554139367E+03  0.12500228289E+03 0.  0.
    9000005    1    3    3    0    0  0.42852512052E+02  0.43287942792E+02  0.21004317753E+02  0.64438848101E+02  0.10000000000E+01 0.  0.
    9000005    1    3    3    0    0 -0.42852512052E+02 -0.43287942792E+02  0.53539136312E+02  0.81102545567E+02  0.10000000000E+01 0.  0.
<mgrwt>
<rscale>  0 0.12500228E+03</rscale>
<asrwt>0</asrwt>
<pdfrwt beam="1">  1        4 0.16929603E-01 0.12500228E+03</pdfrwt>
<pdfrwt beam="2">  1       -4 0.54613801E-02 0.12500228E+03</pdfrwt>
<totfact> 0.10019485E+04</totfact>
</mgrwt>
</event>
<event>
 5    1  0.3261711E-002  0.1249866E+03  0.7818608E-02  0.1235090E+00
         -4   -1    0    0    0  501 -0.00000000000E+00  0.00000000000E+00  0.60325023849E+01  0.61647372226E+01  0.12700000000E+01 0. -1.
          4   -1    0    0  501    0  0.00000000000E+00 -0.00000000000E+00 -0.64024320843E+03  0.64024446802E+03  0.12700000000E+01 0. -1.
         25    2    1    2    0    0  0.00000000000E+00  0.00000000000E+00 -0.63421070604E+03  0.64640920525E+03  0.12498656316E+03 0.  0.
    9000005    1    3    3    0    0  0.34224071031E+02  0.15641456602E+02 -0.59110976390E+02  0.70078882214E+02  0.10000000000E+01 0.  0.
    9000005    1    3    3    0    0 -0.34224071031E+02 -0.15641456602E+02 -0.57509972965E+03  0.57633032303E+03  0.10000000000E+01 0.  0.
<mgrwt>
<rscale>  0 0.12498656E+03</rscale>
<asrwt>0</asrwt>
<pdfrwt beam="2">  1        4 0.98509171E-01 0.12498656E+03</pdfrwt>
<pdfrwt beam="1">  1       -4 0.93834660E-03 0.12498656E+03</pdfrwt>
<totfact> 0.46076759E+03</totfact>
</mgrwt>
</event>
<event>
 5    1  0.3261711E-002  0.1249919E+03  0.7818608E-02  0.1235082E+00
         -4   -1    0    0    0  501 -0.00000000000E+00  0.00000000000E+00  0.10244374295E+02  0.10322795392E+02  0.12700000000E+01 0.  1.
          4   -1    0    0  501    0  0.00000000000E+00 -0.00000000000E+00 -0.37972436152E+03  0.37972648529E+03  0.12700000000E+01 0.  1.
         25    2    1    2    0    0  0.00000000000E+00  0.00000000000E+00 -0.36947998722E+03  0.39004928068E+03  0.12499192134E+03 0.  0.
    9000005    1    3    3    0    0 -0.18920421177E+02 -0.36488212741E+02 -0.33161942269E+03  0.33415836591E+03  0.10000000000E+01 0.  0.
    9000005    1    3    3    0    0  0.18920421177E+02  0.36488212741E+02 -0.37860564535E+02  0.55890914767E+02  0.10000000000E+01 0.  0.
<mgrwt>
<rscale>  0 0.12499192E+03</rscale>
<asrwt>0</asrwt>
<pdfrwt beam="2">  1        4 0.58425318E-01 0.12499192E+03</pdfrwt>
<pdfrwt beam="1">  1       -4 0.15822536E-02 0.12499192E+03</pdfrwt>
<totfact> 0.65543927E+03</totfact>
</mgrwt>
</event>
<event>
 5    1  0.3261711E-002  0.1250006E+03  0.7818608E-02  0.1235068E+00
          4   -1    0    0  501    0  0.00000000000E+00  0.00000000000E+00  0.19377258027E+03  0.19377674207E+03  0.12700000000E+01 0.  1.
         -4   -1    0    0    0  501 -0.00000000000E+00 -0.00000000000E+00 -0.20134761539E+02  0.20174774403E+02  0.12700000000E+01 0.  1.
         25    2    1    2    0    0  0.00000000000E+00  0.00000000000E+00  0.17363781873E+03  0.21395151647E+03  0.12500063722E+03 0.  0.
    9000005    1    3    3    0    0  0.95749628557E+01 -0.59533120513E+02  0.58724751239E+02  0.84175226521E+02  0.10000000000E+01 0.  0.
    9000005    1    3    3    0    0 -0.95749628557E+01  0.59533120513E+02  0.11491306750E+03  0.12977628995E+03  0.10000000000E+01 0.  0.
<mgrwt>
<rscale>  0 0.12500064E+03</rscale>
<asrwt>0</asrwt>
<pdfrwt beam="1">  1        4 0.29814564E-01 0.12500064E+03</pdfrwt>
<pdfrwt beam="2">  1       -4 0.31010537E-02 0.12500064E+03</pdfrwt>
<totfact> 0.87833334E+03</totfact>
</mgrwt>
</event>
<event>
 5    1  0.3261711E-002  0.1250060E+03  0.7818608E-02  0.1235060E+00
          4   -1    0    0  501    0  0.00000000000E+00  0.00000000000E+00  0.25305199233E+03  0.25305517921E+03  0.12700000000E+01 0.  1.
         -4   -1    0    0    0  501 -0.00000000000E+00 -0.00000000000E+00 -0.15408620338E+02  0.15460869339E+02  0.12700000000E+01 0.  1.
         25    2    1    2    0    0  0.00000000000E+00  0.00000000000E+00  0.23764337199E+03  0.26851604855E+03  0.12500598415E+03 0.  0.
    9000005    1    3    3    0    0 -0.11383290296E+02  0.59862600085E+02  0.89017970235E+02  0.10788099560E+03  0.10000000000E+01 0.  0.
    9000005    1    3    3    0    0  0.11383290296E+02 -0.59862600085E+02  0.14862540176E+03  0.16063505295E+03  0.10000000000E+01 0.  0.
<mgrwt>
<rscale>  0 0.12500598E+03</rscale>
<asrwt>0</asrwt>
<pdfrwt beam="1">  1        4 0.38935336E-01 0.12500598E+03</pdfrwt>
<pdfrwt beam="2">  1       -4 0.23748215E-02 0.12500598E+03</pdfrwt>
<totfact> 0.79715001E+03</totfact>
</mgrwt>
</event>
<event>
 5    1  0.3261711E-002  0.1249979E+03  0.7818608E-02  0.1235073E+00
         -4   -1    0    0    0  501 -0.00000000000E+00  0.00000000000E+00  0.97160942901E+03  0.97161025902E+03  0.12700000000E+01 0.  1.
          4   -1    0    0  501    0  0.00000000000E+00 -0.00000000000E+00 -0.39191046604E+01  0.41197428729E+01  0.12700000000E+01 0.  1.
         25    2    1    2    0    0  0.00000000000E+00  0.00000000000E+00  0.96769032435E+03  0.97573000189E+03  0.12499789103E+03 0.  0.
    9000005    1    3    3    0    0  0.38655807101E+01  0.59297598722E+02  0.33289085553E+03  0.33815450555E+03  0.10000000000E+01 0.  0.
    9000005    1    3    3    0    0 -0.38655807101E+01 -0.59297598722E+02  0.63479946882E+03  0.63757549635E+03  0.10000000000E+01 0.  0.
<mgrwt>
<rscale>  0 0.12499789E+03</rscale>
<asrwt>0</asrwt>
<pdfrwt beam="2">  1        4 0.61843601E-03 0.12499789E+03</pdfrwt>
<pdfrwt beam="1">  1       -4 0.14949405E+00 0.12499789E+03</pdfrwt>
<totfact> 0.31421113E+03</totfact>
</mgrwt>
</event>
<event>
 5    1  0.3261711E-002  0.1250032E+03  0.7818608E-02  0.1235064E+00
          4   -1    0    0  501    0  0.00000000000E+00  0.00000000000E+00  0.48869104153E+01  0.50492369134E+01  0.12700000000E+01 0. -1.
         -4   -1    0    0    0  501 -0.00000000000E+00 -0.00000000000E+00 -0.78614742791E+03  0.78614845373E+03  0.12700000000E+01 0. -1.
         25    2    1    2    0    0  0.00000000000E+00  0.00000000000E+00 -0.78126051749E+03  0.79119769064E+03  0.12500315792E+03 0.  0.
    9000005    1    3    3    0    0 -0.33645670003E+02 -0.26945511234E+02 -0.67702212264E+03  0.67839372508E+03  0.10000000000E+01 0.  0.
    9000005    1    3    3    0    0  0.33645670003E+02  0.26945511234E+02 -0.10423839485E+03  0.11280396556E+03  0.10000000000E+01 0.  0.
<mgrwt>
<rscale>  0 0.12500316E+03</rscale>
<asrwt>0</asrwt>
<pdfrwt beam="1">  1        4 0.76439856E-03 0.12500316E+03</pdfrwt>
<pdfrwt beam="2">  1       -4 0.12095822E+00 0.12500316E+03</pdfrwt>
<totfact> 0.38658079E+03</totfact>
</mgrwt>
</event>
<event>
 5    1  0.3261711E-002  0.1249990E+03  0.7818608E-02  0.1235071E+00
         -4   -1    0    0    0  501 -0.00000000000E+00  0.00000000000E+00  0.25276117142E+03  0.25276436196E+03  0.12700000000E+01 0.  1.
          4   -1    0    0  501    0  0.00000000000E+00 -0.00000000000E+00 -0.15424690653E+02  0.15476885402E+02  0.12700000000E+01 0.  1.
         25    2    1    2    0    0  0.00000000000E+00  0.00000000000E+00  0.23733648076E+03  0.26824124736E+03  0.12499904673E+03 0.  0.
    9000005    1    3    3    0    0  0.14312125518E+01  0.61254987471E+02  0.14503532527E+03  0.15744988865E+03  0.10000000000E+01 0.  0.
    9000005    1    3    3    0    0 -0.14312125518E+01 -0.61254987471E+02  0.92301155493E+02  0.11079135871E+03  0.10000000000E+01 0.  0.
<mgrwt>
<rscale>  0 0.12499905E+03</rscale>
<asrwt>0</asrwt>
<pdfrwt beam="2">  1        4 0.23772899E-02 0.12499905E+03</pdfrwt>
<pdfrwt beam="1">  1       -4 0.38890593E-01 0.12499905E+03</pdfrwt>
<totfact> 0.79764944E+03</totfact>
</mgrwt>
</event>
<event>
 5    1  0.3261711E-002  0.1249994E+03  0.7818608E-02  0.1235070E+00
         -4   -1    0    0    0  501 -0.00000000000E+00  0.00000000000E+00  0.26182033554E+02  0.26212817114E+02  0.12700000000E+01 0. -1.
          4   -1    0    0  501    0  0.00000000000E+00 -0.00000000000E+00 -0.14907319791E+03  0.14907860757E+03  0.12700000000E+01 0. -1.
         25    2    1    2    0    0  0.00000000000E+00  0.00000000000E+00 -0.12289116436E+03  0.17529142469E+03  0.12499938116E+03 0.  0.
    9000005    1    3    3    0    0 -0.44675729722E+02  0.15458857068E+01 -0.20816701586E+00  0.44714135598E+02  0.10000000000E+01 0.  0.
    9000005    1    3    3    0    0  0.44675729722E+02 -0.15458857068E+01 -0.12268299734E+03  0.13057728909E+03  0.10000000000E+01 0.  0.
<mgrwt>
<rscale>  0 0.12499938E+03</rscale>
<asrwt>0</asrwt>
<pdfrwt beam="2">  1        4 0.22937122E-01 0.12499938E+03</pdfrwt>
<pdfrwt beam="1">  1       -4 0.40307893E-02 0.12499938E+03</pdfrwt>
<totfact> 0.94472806E+03</totfact>
</mgrwt>
</event>
<event>
 5    1  0.3261711E-002  0.1250002E+03  0.7818608E-02  0.1235069E+00
          4   -1    0    0  501    0  0.00000000000E+00  0.00000000000E+00  0.36131051305E+02  0.36153364551E+02  0.12700000000E+01 0.  1.
         -4   -1    0    0    0  501 -0.00000000000E+00 -0.00000000000E+00 -0.10805428500E+03  0.10806174812E+03  0.12700000000E+01 0.  1.
         25    2    1    2    0    0  0.00000000000E+00  0.00000000000E+00 -0.71923233693E+02  0.14421511267E+03  0.12500018871E+03 0.  0.
    9000005    1    3    3    0    0  0.14411058612E+02  0.43892508142E+02  0.12591059671E+02  0.47893273692E+02  0.10000000000E+01 0.  0.
    9000005    1    3    3    0    0 -0.14411058612E+02 -0.43892508142E+02 -0.84514293364E+02  0.96321838978E+02  0.10000000000E+01 0.  0.
<mgrwt>
<rscale>  0 0.12500019E+03</rscale>
<asrwt>0</asrwt>
<pdfrwt beam="1">  1        4 0.55609138E-02 0.12500019E+03</pdfrwt>
<pdfrwt beam="2">  1       -4 0.16626026E-01 0.12500019E+03</pdfrwt>
<totfact> 0.10046917E+04</totfact>
</mgrwt>
</event>
<event>
 5    1  0.3261711E-002  0.1250001E+03  0.7818608E-02  0.1235069E+00
         -4   -1    0    0    0  501 -0.00000000000E+00  0.00000000000E+00  0.28950619426E+02  0.28978462091E+02  0.12700000000E+01 0. -1.
          4   -1    0    0  501    0  0.00000000000E+00 -0.00000000000E+00 -0.13483266359E+03  0.13483864457E+03  0.12700000000E+01 0. -1.
         25    2    1    2    0    0  0.00000000000E+00  0.00000000000E+00 -0.10588204416E+03  0.16381710666E+03  0.12500014864E+03 0.  0.
    9000005    1    3    3    0    0 -0.20226284231E+02  0.53805630702E+02 -0.85072151743E+02  0.10267628485E+03  0.10000000000E+01 0.  0.
    9000005    1    3    3    0    0  0.20226284231E+02 -0.53805630702E+02 -0.20809892417E+02  0.61140821809E+02  0.10000000000E+01 0.  0.
<mgrwt>
<rscale>  0 0.12500015E+03</rscale>
<asrwt>0</asrwt>
<pdfrwt beam="2">  1        4 0.20746088E-01 0.12500015E+03</pdfrwt>
<pdfrwt beam="1">  1       -4 0.44565433E-02 0.12500015E+03</pdfrwt>
<totfact> 0.96611561E+03</totfact>
</mgrwt>
</event>
<event>
 5    1  0.3261711E-002  0.1249985E+03  0.7818608E-02  0.1235072E+00
         -4   -1    0    0    0  501 -0.00000000000E+00  0.00000000000E+00  0.72193441892E+03  0.72193553599E+03  0.12700000000E+01 0. -1.
          4   -1    0    0  501    0  0.00000000000E+00 -0.00000000000E+00 -0.53350184474E+01  0.54840971758E+01  0.12700000000E+01 0. -1.
         25    2    1    2    0    0  0.00000000000E+00  0.00000000000E+00  0.71659940047E+03  0.72741963317E+03  0.12499848781E+03 0.  0.
    9000005    1    3    3    0    0  0.84478881653E+01 -0.51396359377E+02  0.55923458839E+03  0.56165583539E+03  0.10000000000E+01 0.  0.
    9000005    1    3    3    0    0 -0.84478881653E+01  0.51396359377E+02  0.15736481209E+03  0.16576379778E+03  0.10000000000E+01 0.  0.
<mgrwt>
<rscale>  0 0.12499849E+03</rscale>
<asrwt>0</asrwt>
<pdfrwt beam="2">  1        4 0.83232554E-03 0.12499849E+03</pdfrwt>
<pdfrwt beam="1">  1       -4 0.11107839E+00 0.12499849E+03</pdfrwt>
<totfact> 0.41679508E+03</totfact>
</mgrwt>
</event>
<event>
 5    1  0.3261711E-002  0.1249955E+03  0.7818608E-02  0.1235076E+00
          4   -1    0    0  501    0  0.00000000000E+00  0.00000000000E+00  0.19726955087E+01  0.23461516511E+01  0.12700000000E+01 0. -1.
         -4   -1    0    0    0  501 -0.00000000000E+00 -0.00000000000E+00 -0.18084267626E+04  0.18084272085E+04  0.12700000000E+01 0. -1.
         25    2    1    2    0    0  0.00000000000E+00  0.00000000000E+00 -0.18064540671E+04  0.18107733602E+04  0.12499546179E+03 0.  0.
    9000005    1    3    3    0    0  0.34569499852E+02 -0.49949791061E+02 -0.69084252499E+03  0.69350877881E+03  0.10000000000E+01 0.  0.
    9000005    1    3    3    0    0 -0.34569499852E+02  0.49949791061E+02 -0.11156115421E+04  0.11172645814E+04  0.10000000000E+01 0.  0.
<mgrwt>
<rscale>  0 0.12499546E+03</rscale>
<asrwt>0</asrwt>
<pdfrwt beam="1">  1        4 0.33225476E-03 0.12499546E+03</pdfrwt>
<pdfrwt beam="2">  1       -4 0.27824705E+00 0.12499546E+03</pdfrwt>
<totfact> 0.12539612E+03</totfact>
</mgrwt>
</event>
<event>
 5    1  0.3261711E-002  0.1249785E+03  0.7818608E-02  0.1235103E+00
          4   -1    0    0  501    0  0.00000000000E+00  0.00000000000E+00  0.17191391997E+02  0.17238238274E+02  0.12700000000E+01 0.  1.
         -4   -1    0    0    0  501 -0.00000000000E+00 -0.00000000000E+00 -0.22678527106E+03  0.22678882704E+03  0.12700000000E+01 0.  1.
         25    2    1    2    0    0  0.00000000000E+00  0.00000000000E+00 -0.20959387907E+03  0.24402706532E+03  0.12497845600E+03 0.  0.
    9000005    1    3    3    0    0 -0.43921582522E+02 -0.53707504324E+01 -0.19092983418E+03  0.19599273444E+03  0.10000000000E+01 0.  0.
    9000005    1    3    3    0    0  0.43921582522E+02  0.53707504324E+01 -0.18664044884E+02  0.48034330878E+02  0.10000000000E+01 0.  0.
<mgrwt>
<rscale>  0 0.12497846E+03</rscale>
<asrwt>0</asrwt>
<pdfrwt beam="1">  1        4 0.26487068E-02 0.12497846E+03</pdfrwt>
<pdfrwt beam="2">  1       -4 0.34893917E-01 0.12497846E+03</pdfrwt>
<totfact> 0.83241201E+03</totfact>
</mgrwt>
</event>
<event>
 5    1  0.3261711E-002  0.1250074E+03  0.7818608E-02  0.1235058E+00
         -4   -1    0    0    0  501 -0.00000000000E+00  0.00000000000E+00  0.31284516025E+02  0.31310283341E+02  0.12700000000E+01 0.  1.
          4   -1    0    0  501    0  0.00000000000E+00 -0.00000000000E+00 -0.12479654317E+03  0.12480300512E+03  0.12700000000E+01 0.  1.
         25    2    1    2    0    0  0.00000000000E+00  0.00000000000E+00 -0.93512027149E+02  0.15611328847E+03  0.12500743824E+03 0.  0.
    9000005    1    3    3    0    0  0.12594454359E+02  0.55258332582E+02 -0.13866148059E+02  0.58355579530E+02  0.10000000000E+01 0.  0.
    9000005    1    3    3    0    0 -0.12594454359E+02 -0.55258332582E+02 -0.79645879090E+02  0.97757708936E+02  0.10000000000E+01 0.  0.
<mgrwt>
<rscale>  0 0.12500744E+03</rscale>
<asrwt>0</asrwt>
<pdfrwt beam="2">  1        4 0.19201947E-01 0.12500744E+03</pdfrwt>
<pdfrwt beam="1">  1       -4 0.48154817E-02 0.12500744E+03</pdfrwt>
<totfact> 0.98080983E+03</totfact>
</mgrwt>
</event>
<event>
 5    1  0.3261711E-002  0.1249986E+03  0.7818608E-02  0.1235072E+00
          4   -1    0    0  501    0  0.00000000000E+00  0.00000000000E+00  0.78281694358E+02  0.78291995578E+02  0.12700000000E+01 0. -1.
         -4   -1    0    0    0  501 -0.00000000000E+00 -0.00000000000E+00 -0.49877091793E+02  0.49893257918E+02  0.12700000000E+01 0. -1.
         25    2    1    2    0    0  0.00000000000E+00  0.00000000000E+00  0.28404602566E+02  0.12818525350E+03  0.12499855106E+03 0.  0.
    9000005    1    3    3    0    0 -0.53465667174E+02  0.22470221721E+02  0.38069468985E+02  0.69381358443E+02  0.10000000000E+01 0.  0.
    9000005    1    3    3    0    0  0.53465667174E+02 -0.22470221721E+02 -0.96648664194E+01  0.58803895054E+02  0.10000000000E+01 0.  0.
<mgrwt>
<rscale>  0 0.12499855E+03</rscale>
<asrwt>0</asrwt>
<pdfrwt beam="1">  1        4 0.12045373E-01 0.12499855E+03</pdfrwt>
<pdfrwt beam="2">  1       -4 0.76754347E-02 0.12499855E+03</pdfrwt>
<totfact> 0.10383828E+04</totfact>
</mgrwt>
</event>
<event>
 5    1  0.3261711E-002  0.1249983E+03  0.7818608E-02  0.1235072E+00
         -4   -1    0    0    0  501 -0.00000000000E+00  0.00000000000E+00  0.38167163645E+03  0.38167374938E+03  0.12700000000E+01 0. -1.
          4   -1    0    0  501    0  0.00000000000E+00 -0.00000000000E+00 -0.10192748892E+02  0.10271564144E+02  0.12700000000E+01 0. -1.
         25    2    1    2    0    0  0.00000000000E+00  0.00000000000E+00  0.37147888756E+03  0.39194531353E+03  0.12499825958E+03 0.  0.
    9000005    1    3    3    0    0  0.61998654318E+02  0.77746322470E+01  0.18865265715E+03  0.19873374925E+03  0.10000000000E+01 0.  0.
    9000005    1    3    3    0    0 -0.61998654318E+02 -0.77746322470E+01  0.18282623041E+03  0.19321156428E+03  0.10000000000E+01 0.  0.
<mgrwt>
<rscale>  0 0.12499826E+03</rscale>
<asrwt>0</asrwt>
<pdfrwt beam="2">  1        4 0.15743408E-02 0.12499826E+03</pdfrwt>
<pdfrwt beam="1">  1       -4 0.58724927E-01 0.12499826E+03</pdfrwt>
<totfact> 0.65346307E+03</totfact>
</mgrwt>
</event>
<event>
 5    1  0.3261711E-002  0.1249874E+03  0.7818608E-02  0.1235089E+00
          4   -1    0    0  501    0  0.00000000000E+00  0.00000000000E+00  0.18485686593E+03  0.18486122845E+03  0.12700000000E+01 0. -1.
         -4   -1    0    0    0  501 -0.00000000000E+00 -0.00000000000E+00 -0.21103263042E+02  0.21141442974E+02  0.12700000000E+01 0. -1.
         25    2    1    2    0    0  0.00000000000E+00  0.00000000000E+00  0.16375360289E+03  0.20600267142E+03  0.12498743206E+03 0.  0.
    9000005    1    3    3    0    0 -0.31064383722E+02 -0.16409714930E+02  0.16704502296E+03  0.17070241468E+03  0.10000000000E+01 0.  0.
    9000005    1    3    3    0    0  0.31064383722E+02  0.16409714930E+02 -0.32914200700E+01  0.35300256744E+02  0.10000000000E+01 0.  0.
<mgrwt>
<rscale>  0 0.12498743E+03</rscale>
<asrwt>0</asrwt>
<pdfrwt beam="1">  1        4 0.28442789E-01 0.12498743E+03</pdfrwt>
<pdfrwt beam="2">  1       -4 0.32499285E-02 0.12498743E+03</pdfrwt>
<totfact> 0.89157945E+03</totfact>
</mgrwt>
</event>
<event>
 5    1  0.3261711E-002  0.1250018E+03  0.7818608E-02  0.1235067E+00
          4   -1    0    0  501    0  0.00000000000E+00  0.00000000000E+00  0.15643457598E+03  0.15643973109E+03  0.12700000000E+01 0.  1.
         -4   -1    0    0    0  501 -0.00000000000E+00 -0.00000000000E+00 -0.24949488979E+02  0.24981791375E+02  0.12700000000E+01 0.  1.
         25    2    1    2    0    0  0.00000000000E+00  0.00000000000E+00  0.13148508701E+03  0.18142152246E+03  0.12500176282E+03 0.  0.
    9000005    1    3    3    0    0 -0.98986400319E+01 -0.21041947361E+02 -0.18443532012E+02  0.29696977899E+02  0.10000000000E+01 0.  0.
    9000005    1    3    3    0    0  0.98986400319E+01  0.21041947361E+02  0.14992861902E+03  0.15172454457E+03  0.10000000000E+01 0.  0.
<mgrwt>
<rscale>  0 0.12500176E+03</rscale>
<asrwt>0</asrwt>
<pdfrwt beam="1">  1        4 0.24069740E-01 0.12500176E+03</pdfrwt>
<pdfrwt beam="2">  1       -4 0.38412642E-02 0.12500176E+03</pdfrwt>
<totfact> 0.93358058E+03</totfact>
</mgrwt>
</event>
<event>
 5    1  0.3261711E-002  0.1250003E+03  0.7818608E-02  0.1235069E+00
          4   -1    0    0  501    0  0.00000000000E+00  0.00000000000E+00  0.22531658080E+02  0.22567421559E+02  0.12700000000E+01 0.  1.
         -4   -1    0    0    0  501 -0.00000000000E+00 -0.00000000000E+00 -0.17319235827E+03  0.17319701459E+03  0.12700000000E+01 0.  1.
         25    2    1    2    0    0  0.00000000000E+00  0.00000000000E+00 -0.15066070019E+03  0.19576443615E+03  0.12500027152E+03 0.  0.
    9000005    1    3    3    0    0  0.25726116426E+02  0.34221885283E+02 -0.40370390026E+01  0.43014743782E+02  0.10000000000E+01 0.  0.
    9000005    1    3    3    0    0 -0.25726116426E+02 -0.34221885283E+02 -0.14662366119E+03  0.15274969237E+03  0.10000000000E+01 0.  0.
<mgrwt>
<rscale>  0 0.12500027E+03</rscale>
<asrwt>0</asrwt>
<pdfrwt beam="1">  1        4 0.34695183E-02 0.12500027E+03</pdfrwt>
<pdfrwt beam="2">  1       -4 0.26648087E-01 0.12500027E+03</pdfrwt>
<totfact> 0.90853331E+03</totfact>
</mgrwt>
</event>
<event>
 5    1  0.3261711E-002  0.1249998E+03  0.7818608E-02  0.1235070E+00
         -4   -1    0    0    0  501 -0.00000000000E+00  0.00000000000E+00  0.50408327059E+03  0.50408487042E+03  0.12700000000E+01 0. -1.
          4   -1    0    0  501    0  0.00000000000E+00 -0.00000000000E+00 -0.76955379085E+01  0.77996284335E+01  0.12700000000E+01 0. -1.
         25    2    1    2    0    0  0.00000000000E+00  0.00000000000E+00  0.49638773268E+03  0.51188449886E+03  0.12499983605E+03 0.  0.
    9000005    1    3    3    0    0  0.15093459802E+02 -0.25594776184E+02  0.23063638745E+02  0.37627603284E+02  0.10000000000E+01 0.  0.
    9000005    1    3    3    0    0 -0.15093459802E+02  0.25594776184E+02  0.47332409394E+03  0.47425689557E+03  0.10000000000E+01 0.  0.
<mgrwt>
<rscale>  0 0.12499984E+03</rscale>
<asrwt>0</asrwt>
<pdfrwt beam="2">  1        4 0.11920588E-02 0.12499984E+03</pdfrwt>
<pdfrwt beam="1">  1       -4 0.77559411E-01 0.12499984E+03</pdfrwt>
<totfact> 0.54954116E+03</totfact>
</mgrwt>
</event>
<event>
 5    1  0.3261711E-002  0.1250034E+03  0.7818608E-02  0.1235064E+00
         -4   -1    0    0    0  501 -0.00000000000E+00  0.00000000000E+00  0.28374284758E+02  0.28402692399E+02  0.12700000000E+01 0. -1.
          4   -1    0    0  501    0  0.00000000000E+00 -0.00000000000E+00 -0.13757584651E+03  0.13758170824E+03  0.12700000000E+01 0. -1.
         25    2    1    2    0    0  0.00000000000E+00  0.00000000000E+00 -0.10920156175E+03  0.16598440064E+03  0.12500336062E+03 0.  0.
    9000005    1    3    3    0    0 -0.67461072973E+01 -0.36446291099E+02  0.12209710870E+02  0.39037406907E+02  0.10000000000E+01 0.  0.
    9000005    1    3    3    0    0  0.67461072973E+01  0.36446291099E+02 -0.12141127262E+03  0.12694699373E+03  0.10000000000E+01 0.  0.
<mgrwt>
<rscale>  0 0.12500336E+03</rscale>
<asrwt>0</asrwt>
<pdfrwt beam="2">  1        4 0.21168151E-01 0.12500336E+03</pdfrwt>
<pdfrwt beam="1">  1       -4 0.43679108E-02 0.12500336E+03</pdfrwt>
<totfact> 0.96194025E+03</totfact>
</mgrwt>
</event>
<event>
 5    1  0.3261711E-002  0.1249973E+03  0.7818608E-02  0.1235074E+00
         -4   -1    0    0    0  501 -0.00000000000E+00  0.00000000000E+00  0.31602719837E+02  0.31628227915E+02  0.12700000000E+01 0. -1.
          4   -1    0    0  501    0  0.00000000000E+00 -0.00000000000E+00 -0.12352087321E+03  0.12352740189E+03  0.12700000000E+01 0. -1.
         25    2    1    2    0    0  0.00000000000E+00  0.00000000000E+00 -0.91918153369E+02  0.15515562980E+03  0.12499729014E+03 0.  0.
    9000005    1    3    3    0    0  0.58792546575E+02 -0.12245129856E+01 -0.72203031790E+02  0.93125403433E+02  0.10000000000E+01 0.  0.
    9000005    1    3    3    0    0 -0.58792546575E+02  0.12245129856E+01 -0.19715121579E+02  0.62030226372E+02  0.10000000000E+01 0.  0.
<mgrwt>
<rscale>  0 0.12499729E+03</rscale>
<asrwt>0</asrwt>
<pdfrwt beam="2">  1        4 0.19005675E-01 0.12499729E+03</pdfrwt>
<pdfrwt beam="1">  1       -4 0.48644214E-02 0.12499729E+03</pdfrwt>
<totfact> 0.98290946E+03</totfact>
</mgrwt>
</event>
<event>
 5    1  0.3261711E-002  0.1249975E+03  0.7818608E-02  0.1235073E+00
          4   -1    0    0  501    0  0.00000000000E+00  0.00000000000E+00  0.54516926748E+02  0.54531717395E+02  0.12700000000E+01 0. -1.
         -4   -1    0    0    0  501 -0.00000000000E+00 -0.00000000000E+00 -0.71619102864E+02  0.71630362243E+02  0.12700000000E+01 0. -1.
         25    2    1    2    0    0  0.00000000000E+00  0.00000000000E+00 -0.17102176116E+02  0.12616207964E+03  0.12499754362E+03 0.  0.
    9000005    1    3    3    0    0 -0.12965728856E+02  0.57150992561E+02  0.13347832622E+02  0.60112483821E+02  0.10000000000E+01 0.  0.
    9000005    1    3    3    0    0  0.12965728856E+02 -0.57150992561E+02 -0.30450008738E+02  0.66049595817E+02  0.10000000000E+01 0.  0.
<mgrwt>
<rscale>  0 0.12499754E+03</rscale>
<asrwt>0</asrwt>
<pdfrwt beam="1">  1        4 0.83892234E-02 0.12499754E+03</pdfrwt>
<pdfrwt beam="2">  1       -4 0.11020327E-01 0.12499754E+03</pdfrwt>
<totfact> 0.10427986E+04</totfact>
</mgrwt>
</event>
<event>
 5    1  0.3261711E-002  0.1250014E+03  0.7818608E-02  0.1235067E+00
          4   -1    0    0  501    0  0.00000000000E+00  0.00000000000E+00  0.41893970157E+02  0.41913215524E+02  0.12700000000E+01 0.  1.
         -4   -1    0    0    0  501 -0.00000000000E+00 -0.00000000000E+00 -0.93198415996E+02  0.93207068638E+02  0.12700000000E+01 0.  1.
         25    2    1    2    0    0  0.00000000000E+00  0.00000000000E+00 -0.51304445839E+02  0.13512028416E+03  0.12500138011E+03 0.  0.
    9000005    1    3    3    0    0 -0.14252078782E+02  0.24985177767E+02 -0.85622617065E+02  0.90330578492E+02  0.10000000000E+01 0.  0.
    9000005    1    3    3    0    0  0.14252078782E+02 -0.24985177767E+02  0.34318171226E+02  0.44789705670E+02  0.10000000000E+01 0.  0.
<mgrwt>
<rscale>  0 0.12500138E+03</rscale>
<asrwt>0</asrwt>
<pdfrwt beam="1">  1        4 0.64473722E-02 0.12500138E+03</pdfrwt>
<pdfrwt beam="2">  1       -4 0.14340364E-01 0.12500138E+03</pdfrwt>
<totfact> 0.10235218E+04</totfact>
</mgrwt>
</event>
<event>
 5    1  0.3261711E-002  0.1249988E+03  0.7818608E-02  0.1235071E+00
         -4   -1    0    0    0  501 -0.00000000000E+00  0.00000000000E+00  0.40637004121E+03  0.40637202573E+03  0.12700000000E+01 0. -1.
          4   -1    0    0  501    0  0.00000000000E+00 -0.00000000000E+00 -0.95683986629E+01  0.96523133483E+01  0.12700000000E+01 0. -1.
         25    2    1    2    0    0  0.00000000000E+00  0.00000000000E+00  0.39680164255E+03  0.41602433908E+03  0.12499882869E+03 0.  0.
    9000005    1    3    3    0    0 -0.51889382509E+02 -0.33982598278E+02  0.22371542884E+03  0.23215709789E+03  0.10000000000E+01 0.  0.
    9000005    1    3    3    0    0  0.51889382509E+02  0.33982598278E+02  0.17308621371E+03  0.18386724118E+03  0.10000000000E+01 0.  0.
<mgrwt>
<rscale>  0 0.12499883E+03</rscale>
<asrwt>0</asrwt>
<pdfrwt beam="2">  1        4 0.14786691E-02 0.12499883E+03</pdfrwt>
<pdfrwt beam="1">  1       -4 0.62525068E-01 0.12499883E+03</pdfrwt>
<totfact> 0.63025190E+03</totfact>
</mgrwt>
</event>
<event>
 5    1  0.3261711E-002  0.1249770E+03  0.7818608E-02  0.1235105E+00
         -4   -1    0    0    0  501 -0.00000000000E+00  0.00000000000E+00  0.36223476749E+02  0.36245733097E+02  0.12700000000E+01 0. -1.
          4   -1    0    0  501    0  0.00000000000E+00 -0.00000000000E+00 -0.10773870931E+03  0.10774619429E+03  0.12700000000E+01 0. -1.
         25    2    1    2    0    0  0.00000000000E+00  0.00000000000E+00 -0.71515232565E+02  0.14399192739E+03  0.12497698454E+03 0.  0.
    9000005    1    3    3    0    0  0.22109088918E+02  0.33038315062E+02  0.19778639900E+02  0.44413248826E+02  0.10000000000E+01 0.  0.
    9000005    1    3    3    0    0 -0.22109088918E+02 -0.33038315062E+02 -0.91293872465E+02  0.99578678565E+02  0.10000000000E+01 0.  0.
<mgrwt>
<rscale>  0 0.12497698E+03</rscale>
<asrwt>0</asrwt>
<pdfrwt beam="2">  1        4 0.16577474E-01 0.12497698E+03</pdfrwt>
<pdfrwt beam="1">  1       -4 0.55751304E-02 0.12497698E+03</pdfrwt>
<totfact> 0.10056722E+04</totfact>
</mgrwt>
</event>
<event>
 5    1  0.3261711E-002  0.1249992E+03  0.7818608E-02  0.1235070E+00
          4   -1    0    0  501    0  0.00000000000E+00  0.00000000000E+00  0.88875008688E+03  0.88875099428E+03  0.12700000000E+01 0.  1.
         -4   -1    0    0    0  501 -0.00000000000E+00 -0.00000000000E+00 -0.43024919837E+01  0.44860157456E+01  0.12700000000E+01 0.  1.
         25    2    1    2    0    0  0.00000000000E+00  0.00000000000E+00  0.88444759490E+03  0.89323701003E+03  0.12499923183E+03 0.  0.
    9000005    1    3    3    0    0 -0.55605706574E+02  0.25729782293E+02  0.35435904162E+03  0.35961833474E+03  0.10000000000E+01 0.  0.
    9000005    1    3    3    0    0  0.55605706574E+02 -0.25729782293E+02  0.53008855328E+03  0.53361867529E+03  0.10000000000E+01 0.  0.
<mgrwt>
<rscale>  0 0.12499923E+03</rscale>
<asrwt>0</asrwt>
<pdfrwt beam="1">  1        4 0.13674520E+00 0.12499923E+03</pdfrwt>
<pdfrwt beam="2">  1       -4 0.67610771E-03 0.12499923E+03</pdfrwt>
<totfact> 0.34420724E+03</totfact>
</mgrwt>
</event>
<event>
 5    1  0.3261711E-002  0.1249990E+03  0.7818608E-02  0.1235071E+00
         -4   -1    0    0    0  501 -0.00000000000E+00  0.00000000000E+00  0.19978271342E+02  0.20018596999E+02  0.12700000000E+01 0.  1.
          4   -1    0    0  501    0  0.00000000000E+00 -0.00000000000E+00 -0.19528225468E+03  0.19528638430E+03  0.12700000000E+01 0.  1.
         25    2    1    2    0    0  0.00000000000E+00  0.00000000000E+00 -0.17530398333E+03  0.21530498130E+03  0.12499899359E+03 0.  0.
    9000005    1    3    3    0    0 -0.12851682569E+02  0.60742094465E+02 -0.99882542871E+02  0.11761075697E+03  0.10000000000E+01 0.  0.
    9000005    1    3    3    0    0  0.12851682569E+02 -0.60742094465E+02 -0.75421440464E+02  0.97694224325E+02  0.10000000000E+01 0.  0.
<mgrwt>
<rscale>  0 0.12499899E+03</rscale>
<asrwt>0</asrwt>
<pdfrwt beam="2">  1        4 0.30046842E-01 0.12499899E+03</pdfrwt>
<pdfrwt beam="1">  1       -4 0.30770000E-02 0.12499899E+03</pdfrwt>
<totfact> 0.87618742E+03</totfact>
</mgrwt>
</event>
<event>
 5    1  0.3261711E-002  0.1250029E+03  0.7818608E-02  0.1235065E+00
          4   -1    0    0  501    0  0.00000000000E+00  0.00000000000E+00  0.21684844399E+02  0.21722002131E+02  0.12700000000E+01 0. -1.
         -4   -1    0    0    0  501 -0.00000000000E+00 -0.00000000000E+00 -0.17995200342E+03  0.17995648483E+03  0.12700000000E+01 0. -1.
         25    2    1    2    0    0  0.00000000000E+00  0.00000000000E+00 -0.15826715902E+03  0.20167848697E+03  0.12500287389E+03 0.  0.
    9000005    1    3    3    0    0  0.40285180899E+00  0.36711091220E+02 -0.16072655225E+03  0.16486931524E+03  0.10000000000E+01 0.  0.
    9000005    1    3    3    0    0 -0.40285180899E+00 -0.36711091220E+02  0.24593932342E+01  0.36809171727E+02  0.10000000000E+01 0.  0.
<mgrwt>
<rscale>  0 0.12500287E+03</rscale>
<asrwt>0</asrwt>
<pdfrwt beam="1">  1        4 0.33393330E-02 0.12500287E+03</pdfrwt>
<pdfrwt beam="2">  1       -4 0.27688126E-01 0.12500287E+03</pdfrwt>
<totfact> 0.89847409E+03</totfact>
</mgrwt>
</event>
<event>
 5    1  0.3261711E-002  0.1250026E+03  0.7818608E-02  0.1235065E+00
          4   -1    0    0  501    0  0.00000000000E+00  0.00000000000E+00  0.27632342008E+02  0.27661511616E+02  0.12700000000E+01 0.  1.
         -4   -1    0    0    0  501 -0.00000000000E+00 -0.00000000000E+00 -0.14126447221E+03  0.14127018089E+03  0.12700000000E+01 0.  1.
         25    2    1    2    0    0  0.00000000000E+00  0.00000000000E+00 -0.11363213020E+03  0.16893169250E+03  0.12500262285E+03 0.  0.
    9000005    1    3    3    0    0 -0.53211352563E+02  0.12584520880E+02 -0.97708586072E+02  0.11197225549E+03  0.10000000000E+01 0.  0.
    9000005    1    3    3    0    0  0.53211352563E+02 -0.12584520880E+02 -0.15923544128E+02  0.56959437014E+02  0.10000000000E+01 0.  0.
<mgrwt>
<rscale>  0 0.12500262E+03</rscale>
<asrwt>0</asrwt>
<pdfrwt beam="1">  1        4 0.42538126E-02 0.12500262E+03</pdfrwt>
<pdfrwt beam="2">  1       -4 0.21735678E-01 0.12500262E+03</pdfrwt>
<totfact> 0.95642297E+03</totfact>
</mgrwt>
</event>
<event>
 5    1  0.3261711E-002  0.1249998E+03  0.7818608E-02  0.1235070E+00
          4   -1    0    0  501    0  0.00000000000E+00  0.00000000000E+00  0.31875616479E+02  0.31900906350E+02  0.12700000000E+01 0. -1.
         -4   -1    0    0    0  501 -0.00000000000E+00 -0.00000000000E+00 -0.12246909048E+03  0.12247567523E+03  0.12700000000E+01 0. -1.
         25    2    1    2    0    0  0.00000000000E+00  0.00000000000E+00 -0.90593474004E+02  0.15437658158E+03  0.12499980564E+03 0.  0.
    9000005    1    3    3    0    0 -0.30499493514E+02 -0.53158541795E+02 -0.30211946156E+02  0.68336018036E+02  0.10000000000E+01 0.  0.
    9000005    1    3    3    0    0  0.30499493514E+02  0.53158541795E+02 -0.60381527848E+02  0.86040563548E+02  0.10000000000E+01 0.  0.
<mgrwt>
<rscale>  0 0.12499981E+03</rscale>
<asrwt>0</asrwt>
<pdfrwt beam="1">  1        4 0.49063929E-02 0.12499981E+03</pdfrwt>
<pdfrwt beam="2">  1       -4 0.18843850E-01 0.12499981E+03</pdfrwt>
<totfact> 0.98438453E+03</totfact>
</mgrwt>
</event>
<event>
 5    1  0.3261711E-002  0.1249979E+03  0.7818608E-02  0.1235073E+00
         -4   -1    0    0    0  501 -0.00000000000E+00  0.00000000000E+00  0.60208735068E+01  0.61533582526E+01  0.12700000000E+01 0. -1.
          4   -1    0    0  501    0  0.00000000000E+00 -0.00000000000E+00 -0.64156976633E+03  0.64157102332E+03  0.12700000000E+01 0. -1.
         25    2    1    2    0    0  0.00000000000E+00  0.00000000000E+00 -0.63554889282E+03  0.64772438158E+03  0.12499791726E+03 0.  0.
    9000005    1    3    3    0    0  0.62161019152E+02  0.60123349225E+01 -0.30621135160E+03  0.31251645129E+03  0.10000000000E+01 0.  0.
    9000005    1    3    3    0    0 -0.62161019152E+02 -0.60123349225E+01 -0.32933754122E+03  0.33520793029E+03  0.10000000000E+01 0.  0.
<mgrwt>
<rscale>  0 0.12499792E+03</rscale>
<asrwt>0</asrwt>
<pdfrwt beam="2">  1        4 0.98713275E-01 0.12499792E+03</pdfrwt>
<pdfrwt beam="1">  1       -4 0.93657657E-03 0.12499792E+03</pdfrwt>
<totfact> 0.45989294E+03</totfact>
</mgrwt>
</event>
<event>
 5    1  0.3261711E-002  0.1249998E+03  0.7818608E-02  0.1235070E+00
         -4   -1    0    0    0  501 -0.00000000000E+00  0.00000000000E+00  0.27968850658E+02  0.27997669673E+02  0.12700000000E+01 0. -1.
          4   -1    0    0  501    0  0.00000000000E+00 -0.00000000000E+00 -0.13956020051E+03  0.13956597890E+03  0.12700000000E+01 0. -1.
         25    2    1    2    0    0  0.00000000000E+00  0.00000000000E+00 -0.11159134985E+03  0.16756364857E+03  0.12499978785E+03 0.  0.
    9000005    1    3    3    0    0  0.41940466545E+02  0.36011265497E+02 -0.94864691550E+02  0.10980038105E+03  0.10000000000E+01 0.  0.
    9000005    1    3    3    0    0 -0.41940466545E+02 -0.36011265497E+02 -0.16726658304E+02  0.57763267521E+02  0.10000000000E+01 0.  0.
<mgrwt>
<rscale>  0 0.12499979E+03</rscale>
<asrwt>0</asrwt>
<pdfrwt beam="2">  1        4 0.21473461E-01 0.12499979E+03</pdfrwt>
<pdfrwt beam="1">  1       -4 0.43055615E-02 0.12499979E+03</pdfrwt>
<totfact> 0.95904526E+03</totfact>
</mgrwt>
</event>
<event>
 5    1  0.3261711E-002  0.1250019E+03  0.7818608E-02  0.1235066E+00
          4   -1    0    0  501    0  0.00000000000E+00  0.00000000000E+00  0.15558222695E+02  0.15609970962E+02  0.12700000000E+01 0.  1.
         -4   -1    0    0    0  501 -0.00000000000E+00 -0.00000000000E+00 -0.25061029529E+03  0.25061351321E+03  0.12700000000E+01 0.  1.
         25    2    1    2    0    0  0.00000000000E+00  0.00000000000E+00 -0.23505207259E+03  0.26622348417E+03  0.12500186677E+03 0.  0.
    9000005    1    3    3    0    0  0.50992346935E+02 -0.85430107709E+01 -0.42766920454E+02  0.67105975621E+02  0.10000000000E+01 0.  0.
    9000005    1    3    3    0    0 -0.50992346935E+02  0.85430107709E+01 -0.19228515214E+03  0.19911750855E+03  0.10000000000E+01 0.  0.
<mgrwt>
<rscale>  0 0.12500187E+03</rscale>
<asrwt>0</asrwt>
<pdfrwt beam="1">  1        4 0.23978011E-02 0.12500187E+03</pdfrwt>
<pdfrwt beam="2">  1       -4 0.38559655E-01 0.12500187E+03</pdfrwt>
<totfact> 0.80037216E+03</totfact>
</mgrwt>
</event>
<event>
 5    1  0.3261711E-002  0.1250016E+03  0.7818608E-02  0.1235067E+00
          4   -1    0    0  501    0  0.00000000000E+00  0.00000000000E+00  0.16928712755E+03  0.16929189128E+03  0.12700000000E+01 0. -1.
         -4   -1    0    0    0  501 -0.00000000000E+00 -0.00000000000E+00 -0.23052724225E+02  0.23087680572E+02  0.12700000000E+01 0. -1.
         25    2    1    2    0    0  0.00000000000E+00  0.00000000000E+00  0.14623440332E+03  0.19237957185E+03  0.12500159580E+03 0.  0.
    9000005    1    3    3    0    0 -0.26833611406E+02  0.51969275460E+02  0.10699310889E+03  0.12194004118E+03  0.10000000000E+01 0.  0.
    9000005    1    3    3    0    0  0.26833611406E+02 -0.51969275460E+02  0.39241294436E+02  0.70439530677E+02  0.10000000000E+01 0.  0.
<mgrwt>
<rscale>  0 0.12500160E+03</rscale>
<asrwt>0</asrwt>
<pdfrwt beam="1">  1        4 0.26047229E-01 0.12500160E+03</pdfrwt>
<pdfrwt beam="2">  1       -4 0.35496284E-02 0.12500160E+03</pdfrwt>
<totfact> 0.91431650E+03</totfact>
</mgrwt>
</event>
<event>
 5    1  0.3261711E-002  0.1250034E+03  0.7818608E-02  0.1235064E+00
          4   -1    0    0  501    0  0.00000000000E+00  0.00000000000E+00  0.82622255036E+01  0.83592625435E+01  0.12700000000E+01 0. -1.
         -4   -1    0    0    0  501 -0.00000000000E+00 -0.00000000000E+00 -0.46995214493E+03  0.46995386096E+03  0.12700000000E+01 0. -1.
         25    2    1    2    0    0  0.00000000000E+00  0.00000000000E+00 -0.46168991943E+03  0.47831312350E+03  0.12500344959E+03 0.  0.
    9000005    1    3    3    0    0 -0.33235304835E+01  0.62016361683E+02 -0.20422723425E+03  0.21346390369E+03  0.10000000000E+01 0.  0.
    9000005    1    3    3    0    0  0.33235304835E+01 -0.62016361683E+02 -0.25746268518E+03  0.26484921981E+03  0.10000000000E+01 0.  0.
<mgrwt>
<rscale>  0 0.12500345E+03</rscale>
<asrwt>0</asrwt>
<pdfrwt beam="1">  1        4 0.12787084E-02 0.12500345E+03</pdfrwt>
<pdfrwt beam="2">  1       -4 0.72307906E-01 0.12500345E+03</pdfrwt>
<totfact> 0.57582795E+03</totfact>
</mgrwt>
</event>
<event>
 5    1  0.3261711E-002  0.1250044E+03  0.7818608E-02  0.1235062E+00
          4   -1    0    0  501    0  0.00000000000E+00  0.00000000000E+00  0.45092549631E+02  0.45110430415E+02  0.12700000000E+01 0. -1.
         -4   -1    0    0    0  501 -0.00000000000E+00 -0.00000000000E+00 -0.86593770073E+02  0.86603082598E+02  0.12700000000E+01 0. -1.
         25    2    1    2    0    0  0.00000000000E+00  0.00000000000E+00 -0.41501220443E+02  0.13171351301E+03  0.12500439277E+03 0.  0.
    9000005    1    3    3    0    0  0.42392602285E+02  0.21612028801E+02  0.21936881375E+02  0.52406481297E+02  0.10000000000E+01 0.  0.
    9000005    1    3    3    0    0 -0.42392602285E+02 -0.21612028801E+02 -0.63438101818E+02  0.79307031716E+02  0.10000000000E+01 0.  0.
<mgrwt>
<rscale>  0 0.12500439E+03</rscale>
<asrwt>0</asrwt>
<pdfrwt beam="1">  1        4 0.69394071E-02 0.12500439E+03</pdfrwt>
<pdfrwt beam="2">  1       -4 0.13324210E-01 0.12500439E+03</pdfrwt>
<totfact> 0.10306796E+04</totfact>
</mgrwt>
</event>
<event>
 5    1  0.3261711E-002  0.1250025E+03  0.7818608E-02  0.1235065E+00
          4   -1    0    0  501    0  0.00000000000E+00  0.00000000000E+00  0.30157541113E+03  0.30157808525E+03  0.12700000000E+01 0. -1.
         -4   -1    0    0    0  501 -0.00000000000E+00 -0.00000000000E+00 -0.12919457951E+02  0.12981729228E+02  0.12700000000E+01 0. -1.
         25    2    1    2    0    0  0.00000000000E+00  0.00000000000E+00  0.28865595318E+03  0.31455981447E+03  0.12500247027E+03 0.  0.
    9000005    1    3    3    0    0 -0.32728207737E+02 -0.39725902153E+02  0.55141199397E+02  0.75437621611E+02  0.10000000000E+01 0.  0.
    9000005    1    3    3    0    0  0.32728207737E+02  0.39725902153E+02  0.23351475379E+03  0.23912219286E+03  0.10000000000E+01 0.  0.
<mgrwt>
<rscale>  0 0.12500247E+03</rscale>
<asrwt>0</asrwt>
<pdfrwt beam="1">  1        4 0.46401210E-01 0.12500247E+03</pdfrwt>
<pdfrwt beam="2">  1       -4 0.19926049E-02 0.12500247E+03</pdfrwt>
<totfact> 0.73803827E+03</totfact>
</mgrwt>
</event>
<event>
 5    1  0.3261711E-002  0.1250288E+03  0.7818608E-02  0.1235024E+00
         -4   -1    0    0    0  501 -0.00000000000E+00  0.00000000000E+00  0.96815186929E+03  0.96815270227E+03  0.12700000000E+01 0.  1.
          4   -1    0    0  501    0  0.00000000000E+00 -0.00000000000E+00 -0.39358612220E+01  0.41356865886E+01  0.12700000000E+01 0.  1.
         25    2    1    2    0    0  0.00000000000E+00  0.00000000000E+00  0.96421600807E+03  0.97228838886E+03  0.12502880025E+03 0.  0.
    9000005    1    3    3    0    0  0.37775965100E+02  0.89265655572E+01  0.86310512881E+03  0.86397810765E+03  0.10000000000E+01 0.  0.
    9000005    1    3    3    0    0 -0.37775965100E+02 -0.89265655572E+01  0.10111087926E+03  0.10831028121E+03  0.10000000000E+01 0.  0.
<mgrwt>
<rscale>  0 0.12502880E+03</rscale>
<asrwt>0</asrwt>
<pdfrwt beam="2">  1        4 0.62095316E-03 0.12502880E+03</pdfrwt>
<pdfrwt beam="1">  1       -4 0.14896169E+00 0.12502880E+03</pdfrwt>
<totfact> 0.31517864E+03</totfact>
</mgrwt>
</event>
<event>
 5    1  0.3261711E-002  0.1249978E+03  0.7818608E-02  0.1235073E+00
         -4   -1    0    0    0  501 -0.00000000000E+00  0.00000000000E+00  0.16572203228E+03  0.16572689849E+03  0.12700000000E+01 0.  1.
          4   -1    0    0  501    0  0.00000000000E+00 -0.00000000000E+00 -0.23547952232E+02  0.23582174504E+02  0.12700000000E+01 0.  1.
         25    2    1    2    0    0  0.00000000000E+00  0.00000000000E+00  0.14217408005E+03  0.18930907300E+03  0.12499782430E+03 0.  0.
    9000005    1    3    3    0    0  0.61191091175E+02 -0.34408434071E+01  0.52604879130E+02  0.80774144074E+02  0.10000000000E+01 0.  0.
    9000005    1    3    3    0    0 -0.61191091175E+02  0.34408434071E+01  0.89569200920E+02  0.10853492892E+03  0.10000000000E+01 0.  0.
<mgrwt>
<rscale>  0 0.12499782E+03</rscale>
<asrwt>0</asrwt>
<pdfrwt beam="2">  1        4 0.36257688E-02 0.12499782E+03</pdfrwt>
<pdfrwt beam="1">  1       -4 0.25498703E-01 0.12499782E+03</pdfrwt>
<totfact> 0.91972156E+03</totfact>
</mgrwt>
</event>
<event>
 5    1  0.3261711E-002  0.1249990E+03  0.7818608E-02  0.1235071E+00
         -4   -1    0    0    0  501 -0.00000000000E+00  0.00000000000E+00  0.70327271203E+02  0.70338737371E+02  0.12700000000E+01 0.  1.
          4   -1    0    0  501    0  0.00000000000E+00 -0.00000000000E+00 -0.55519742497E+02  0.55534266061E+02  0.12700000000E+01 0.  1.
         25    2    1    2    0    0  0.00000000000E+00  0.00000000000E+00  0.14807528707E+02  0.12587300343E+03  0.12499900034E+03 0.  0.
    9000005    1    3    3    0    0 -0.49697355344E+02  0.36939142079E+02  0.15880471279E+02  0.63933689975E+02  0.10000000000E+01 0.  0.
    9000005    1    3    3    0    0  0.49697355344E+02 -0.36939142079E+02 -0.10729425724E+01  0.61939313457E+02  0.10000000000E+01 0.  0.
<mgrwt>
<rscale>  0 0.12499900E+03</rscale>
<asrwt>0</asrwt>
<pdfrwt beam="2">  1        4 0.85434980E-02 0.12499900E+03</pdfrwt>
<pdfrwt beam="1">  1       -4 0.10821579E-01 0.12499900E+03</pdfrwt>
<totfact> 0.10433977E+04</totfact>
</mgrwt>
</event>
<event>
 5    1  0.3261711E-002  0.1249987E+03  0.7818608E-02  0.1235071E+00
         -4   -1    0    0    0  501 -0.00000000000E+00  0.00000000000E+00  0.60958212562E+03  0.60958344858E+03  0.12700000000E+01 0.  1.
          4   -1    0    0  501    0  0.00000000000E+00 -0.00000000000E+00 -0.63436810963E+01  0.64695587061E+01  0.12700000000E+01 0.  1.
         25    2    1    2    0    0  0.00000000000E+00  0.00000000000E+00  0.60323844453E+03  0.61605300728E+03  0.12499874730E+03 0.  0.
    9000005    1    3    3    0    0 -0.12944686148E+02 -0.68897573202E+01  0.22316778598E+01  0.14866541006E+02  0.10000000000E+01 0.  0.
    9000005    1    3    3    0    0  0.12944686148E+02  0.68897573202E+01  0.60100676667E+03  0.60118646628E+03  0.10000000000E+01 0.  0.
<mgrwt>
<rscale>  0 0.12499875E+03</rscale>
<asrwt>0</asrwt>
<pdfrwt beam="2">  1        4 0.98573585E-03 0.12499875E+03</pdfrwt>
<pdfrwt beam="1">  1       -4 0.93791626E-01 0.12499875E+03</pdfrwt>
<totfact> 0.47871051E+03</totfact>
</mgrwt>
</event>
<event>
 5    1  0.3261711E-002  0.1249996E+03  0.7818608E-02  0.1235070E+00
          4   -1    0    0  501    0  0.00000000000E+00  0.00000000000E+00  0.27181946486E+03  0.27182243171E+03  0.12700000000E+01 0. -1.
         -4   -1    0    0    0  501 -0.00000000000E+00 -0.00000000000E+00 -0.14339539607E+02  0.14395669354E+02  0.12700000000E+01 0. -1.
         25    2    1    2    0    0  0.00000000000E+00  0.00000000000E+00  0.25747992526E+03  0.28621810106E+03  0.12499955786E+03 0.  0.
    9000005    1    3    3    0    0 -0.65833211704E+01  0.61052130368E+02  0.10218281396E+03  0.11921841388E+03  0.10000000000E+01 0.  0.
    9000005    1    3    3    0    0  0.65833211704E+01 -0.61052130368E+02  0.15529711130E+03  0.16699968718E+03  0.10000000000E+01 0.  0.
<mgrwt>
<rscale>  0 0.12499956E+03</rscale>
<asrwt>0</asrwt>
<pdfrwt beam="1">  1        4 0.41822921E-01 0.12499956E+03</pdfrwt>
<pdfrwt beam="2">  1       -4 0.22106291E-02 0.12499956E+03</pdfrwt>
<totfact> 0.77361550E+03</totfact>
</mgrwt>
</event>
<event>
 5    1  0.3261711E-002  0.1249986E+03  0.7818608E-02  0.1235071E+00
         -4   -1    0    0    0  501 -0.00000000000E+00  0.00000000000E+00  0.27225851829E+03  0.27226148035E+03  0.12700000000E+01 0.  1.
          4   -1    0    0  501    0  0.00000000000E+00 -0.00000000000E+00 -0.14316101779E+02  0.14372323060E+02  0.12700000000E+01 0.  1.
         25    2    1    2    0    0  0.00000000000E+00  0.00000000000E+00  0.25794241651E+03  0.28663380341E+03  0.12499858808E+03 0.  0.
    9000005    1    3    3    0    0 -0.50239102913E+02 -0.13415396812E+02  0.20844681155E+03  0.21483717923E+03  0.10000000000E+01 0.  0.
    9000005    1    3    3    0    0  0.50239102913E+02  0.13415396812E+02  0.49495604957E+02  0.71796624177E+02  0.10000000000E+01 0.  0.
<mgrwt>
<rscale>  0 0.12499859E+03</rscale>
<asrwt>0</asrwt>
<pdfrwt beam="2">  1        4 0.22070299E-02 0.12499859E+03</pdfrwt>
<pdfrwt beam="1">  1       -4 0.41890476E-01 0.12499859E+03</pdfrwt>
<totfact> 0.77309080E+03</totfact>
</mgrwt>
</event>
<event>
 5    1  0.3261711E-002  0.1249990E+03  0.7818608E-02  0.1235071E+00
          4   -1    0    0  501    0  0.00000000000E+00  0.00000000000E+00  0.23635312616E+01  0.26831287753E+01  0.12700000000E+01 0.  1.
         -4   -1    0    0    0  501 -0.00000000000E+00 -0.00000000000E+00 -0.15477077046E+04  0.15477082256E+04  0.12700000000E+01 0.  1.
         25    2    1    2    0    0  0.00000000000E+00  0.00000000000E+00 -0.15453441733E+04  0.15503913544E+04  0.12499895135E+03 0.  0.
    9000005    1    3    3    0    0 -0.23290233348E+02 -0.54548599475E+02 -0.10167354110E+04  0.10184644720E+04  0.10000000000E+01 0.  0.
    9000005    1    3    3    0    0  0.23290233348E+02  0.54548599475E+02 -0.52860876231E+03  0.53192688244E+03  0.10000000000E+01 0.  0.
<mgrwt>
<rscale>  0 0.12499895E+03</rscale>
<asrwt>0</asrwt>
<pdfrwt beam="1">  1        4 0.38824593E-03 0.12499895E+03</pdfrwt>
<pdfrwt beam="2">  1       -4 0.23813274E+00 0.12499895E+03</pdfrwt>
<totfact> 0.16961344E+03</totfact>
</mgrwt>
</event>
<event>
 5    1  0.3261711E-002  0.1249948E+03  0.7818608E-02  0.1235077E+00
         -4   -1    0    0    0  501 -0.00000000000E+00  0.00000000000E+00  0.30602073248E+02  0.30628414701E+02  0.12700000000E+01 0. -1.
          4   -1    0    0  501    0  0.00000000000E+00 -0.00000000000E+00 -0.12755156008E+03  0.12755788247E+03  0.12700000000E+01 0. -1.
         25    2    1    2    0    0  0.00000000000E+00  0.00000000000E+00 -0.96949486833E+02  0.15818629717E+03  0.12499480635E+03 0.  0.
    9000005    1    3    3    0    0  0.48832971699E+02 -0.38971616097E+02 -0.50014039791E+02  0.80036555163E+02  0.10000000000E+01 0.  0.
    9000005    1    3    3    0    0 -0.48832971699E+02  0.38971616097E+02 -0.46935447042E+02  0.78149742003E+02  0.10000000000E+01 0.  0.
<mgrwt>
<rscale>  0 0.12499481E+03</rscale>
<asrwt>0</asrwt>
<pdfrwt beam="2">  1        4 0.19625829E-01 0.12499481E+03</pdfrwt>
<pdfrwt beam="1">  1       -4 0.47105239E-02 0.12499481E+03</pdfrwt>
<totfact> 0.97705004E+03</totfact>
</mgrwt>
</event>
<event>
 5    1  0.3261711E-002  0.1250001E+03  0.7818608E-02  0.1235069E+00
          4   -1    0    0  501    0  0.00000000000E+00  0.00000000000E+00  0.42377351849E+03  0.42377542151E+03  0.12700000000E+01 0.  1.
         -4   -1    0    0    0  501 -0.00000000000E+00 -0.00000000000E+00 -0.91721216858E+01  0.92596282981E+01  0.12700000000E+01 0.  1.
         25    2    1    2    0    0  0.00000000000E+00  0.00000000000E+00  0.41460139680E+03  0.43303504980E+03  0.12500014451E+03 0.  0.
    9000005    1    3    3    0    0  0.56863904658E+02  0.10505990679E+02  0.28938135543E+03  0.29510413139E+03  0.10000000000E+01 0.  0.
    9000005    1    3    3    0    0 -0.56863904658E+02 -0.10505990679E+02  0.12522004138E+03  0.13793091842E+03  0.10000000000E+01 0.  0.
<mgrwt>
<rscale>  0 0.12500014E+03</rscale>
<asrwt>0</asrwt>
<pdfrwt beam="1">  1        4 0.65202809E-01 0.12500014E+03</pdfrwt>
<pdfrwt beam="2">  1       -4 0.14179732E-02 0.12500014E+03</pdfrwt>
<totfact> 0.61461643E+03</totfact>
</mgrwt>
</event>
<event>
 5    1  0.3261711E-002  0.1249988E+03  0.7818608E-02  0.1235071E+00
         -4   -1    0    0    0  501 -0.00000000000E+00  0.00000000000E+00  0.18752634781E+02  0.18795590207E+02  0.12700000000E+01 0.  1.
          4   -1    0    0  501    0  0.00000000000E+00 -0.00000000000E+00 -0.20801674270E+03  0.20802061952E+03  0.12700000000E+01 0.  1.
         25    2    1    2    0    0  0.00000000000E+00  0.00000000000E+00 -0.18926410792E+03  0.22681620972E+03  0.12499876178E+03 0.  0.
    9000005    1    3    3    0    0 -0.49079958520E+02  0.25279176608E+02 -0.41502869846E+02  0.69075084536E+02  0.10000000000E+01 0.  0.
    9000005    1    3    3    0    0  0.49079958520E+02 -0.25279176608E+02 -0.14776123807E+03  0.15774112519E+03  0.10000000000E+01 0.  0.
<mgrwt>
<rscale>  0 0.12499876E+03</rscale>
<asrwt>0</asrwt>
<pdfrwt beam="2">  1        4 0.32006177E-01 0.12499876E+03</pdfrwt>
<pdfrwt beam="1">  1       -4 0.28886234E-02 0.12499876E+03</pdfrwt>
<totfact> 0.85803252E+03</totfact>
</mgrwt>
</event>
<event>
 5    1  0.3261711E-002  0.1250020E+03  0.7818608E-02  0.1235066E+00
          4   -1    0    0  501    0  0.00000000000E+00  0.00000000000E+00  0.12182320177E+02  0.12248339679E+02  0.12700000000E+01 0.  1.
         -4   -1    0    0    0  501 -0.00000000000E+00 -0.00000000000E+00 -0.31972537245E+03  0.31972789476E+03  0.12700000000E+01 0.  1.
         25    2    1    2    0    0  0.00000000000E+00  0.00000000000E+00 -0.30754305227E+03  0.33197623444E+03  0.12500196491E+03 0.  0.
    9000005    1    3    3    0    0 -0.29729885721E+02 -0.54935100188E+02 -0.15883943195E+03  0.17068302927E+03  0.10000000000E+01 0.  0.
    9000005    1    3    3    0    0  0.29729885721E+02  0.54935100188E+02 -0.14870362032E+03  0.16129320517E+03  0.10000000000E+01 0.  0.
<mgrwt>
<rscale>  0 0.12500196E+03</rscale>
<asrwt>0</asrwt>
<pdfrwt beam="1">  1        4 0.18794758E-02 0.12500196E+03</pdfrwt>
<pdfrwt beam="2">  1       -4 0.49193785E-01 0.12500196E+03</pdfrwt>
<totfact> 0.71750872E+03</totfact>
</mgrwt>
</event>
<event>
 4    1  0.3261711E-002  0.1249147E+03  0.7818608E-02  0.1235203E+00
         -4   -1    0    0    0  501 -0.00000000000E+00  0.00000000000E+00  0.95508279605E+02  0.95516723003E+02  0.12700000000E+01 0. -1.
          4   -1    0    0  501    0  0.00000000000E+00 -0.00000000000E+00 -0.40823678305E+02  0.40843427994E+02  0.12700000000E+01 0. -1.
    9000005    1    1    2    0    0  0.56433100843E+02  0.26400605367E+02  0.22680858654E+02  0.66310694340E+02  0.10000000000E+01 0.  0.
    9000005    1    1    2    0    0 -0.56433100843E+02 -0.26400605367E+02  0.32003742646E+02  0.70049456657E+02  0.10000000000E+01 0.  0.
<mgrwt>
<rscale>  0 0.12491471E+03</rscale>
<asrwt>0</asrwt>
<pdfrwt beam="2">  1        4 0.62827346E-02 0.12491471E+03</pdfrwt>
<pdfrwt beam="1">  1       -4 0.14695750E-01 0.12491471E+03</pdfrwt>
<totfact> 0.10229141E+04</totfact>
</mgrwt>
</event>
<event>
 5    1  0.3261711E-002  0.1249959E+03  0.7818608E-02  0.1235076E+00
          4   -1    0    0  501    0  0.00000000000E+00  0.00000000000E+00  0.86339769749E+01  0.87268813675E+01  0.12700000000E+01 0.  1.
         -4   -1    0    0    0  501 -0.00000000000E+00 -0.00000000000E+00 -0.44988331304E+03  0.44988510561E+03  0.12700000000E+01 0.  1.
         25    2    1    2    0    0  0.00000000000E+00  0.00000000000E+00 -0.44124933606E+03  0.45861198698E+03  0.12499591203E+03 0.  0.
    9000005    1    3    3    0    0  0.41933354096E+02  0.44551262731E+02 -0.17395840473E+03  0.18440647433E+03  0.10000000000E+01 0.  0.
    9000005    1    3    3    0    0 -0.41933354096E+02 -0.44551262731E+02 -0.26729093133E+03  0.27420551265E+03  0.10000000000E+01 0.  0.
<mgrwt>
<rscale>  0 0.12499591E+03</rscale>
<asrwt>0</asrwt>
<pdfrwt beam="1">  1        4 0.13355889E-02 0.12499591E+03</pdfrwt>
<pdfrwt beam="2">  1       -4 0.69220084E-01 0.12499591E+03</pdfrwt>
<totfact> 0.59230272E+03</totfact>
</mgrwt>
</event>
<event>
 4    1  0.3261711E-002  0.1245076E+03  0.7818608E-02  0.1235841E+00
          4   -1    0    0  501    0  0.00000000000E+00  0.00000000000E+00  0.25524750590E+03  0.25525066537E+03  0.12700000000E+01 0. -1.
         -4   -1    0    0    0  501 -0.00000000000E+00 -0.00000000000E+00 -0.15153618614E+02  0.15206743803E+02  0.12700000000E+01 0. -1.
    9000005    1    1    2    0    0 -0.17853098892E+02  0.32156352535E+02  0.10964255396E+02  0.38392434734E+02  0.10000000000E+01 0.  0.
    9000005    1    1    2    0    0  0.17853098892E+02 -0.32156352535E+02  0.22912963189E+03  0.23206497444E+03  0.10000000000E+01 0.  0.
<mgrwt>
<rscale>  0 0.12450757E+03</rscale>
<asrwt>0</asrwt>
<pdfrwt beam="1">  1        4 0.39273174E-01 0.12450757E+03</pdfrwt>
<pdfrwt beam="2">  1       -4 0.23356557E-02 0.12450757E+03</pdfrwt>
<totfact> 0.80337213E+03</totfact>
</mgrwt>
</event>
<event>
 5    1  0.3261711E-002  0.1249997E+03  0.7818608E-02  0.1235070E+00
          4   -1    0    0  501    0  0.00000000000E+00  0.00000000000E+00  0.97282782402E+02  0.97291071799E+02  0.12700000000E+01 0. -1.
         -4   -1    0    0    0  501 -0.00000000000E+00 -0.00000000000E+00 -0.40133301107E+02  0.40153390364E+02  0.12700000000E+01 0. -1.
         25    2    1    2    0    0  0.00000000000E+00  0.00000000000E+00  0.57149481295E+02  0.13744446216E+03  0.12499966787E+03 0.  0.
    9000005    1    3    3    0    0  0.25289095031E+02  0.57100699445E+02  0.26067111163E+02  0.67679557393E+02  0.10000000000E+01 0.  0.
    9000005    1    3    3    0    0 -0.25289095031E+02 -0.57100699445E+02  0.31082370132E+02  0.69764904770E+02  0.10000000000E+01 0.  0.
<mgrwt>
<rscale>  0 0.12499967E+03</rscale>
<asrwt>0</asrwt>
<pdfrwt beam="1">  1        4 0.14968765E-01 0.12499967E+03</pdfrwt>
<pdfrwt beam="2">  1       -4 0.61765371E-02 0.12499967E+03</pdfrwt>
<totfact> 0.10186877E+04</totfact>
</mgrwt>
</event>
<event>
 5    1  0.3261711E-002  0.1249957E+03  0.7818608E-02  0.1235076E+00
          4   -1    0    0  501    0  0.00000000000E+00  0.00000000000E+00  0.43954772205E+02  0.43973115646E+02  0.12700000000E+01 0.  1.
         -4   -1    0    0    0  501 -0.00000000000E+00 -0.00000000000E+00 -0.88822274619E+02  0.88831353521E+02  0.12700000000E+01 0.  1.
         25    2    1    2    0    0  0.00000000000E+00  0.00000000000E+00 -0.44867502414E+02  0.13280446917E+03  0.12499573696E+03 0.  0.
    9000005    1    3    3    0    0  0.50350140908E+02 -0.28642707393E+02  0.24707868367E+01  0.57988327824E+02  0.10000000000E+01 0.  0.
    9000005    1    3    3    0    0 -0.50350140908E+02  0.28642707393E+02 -0.47338289251E+02  0.74816141343E+02  0.10000000000E+01 0.  0.
<mgrwt>
<rscale>  0 0.12499574E+03</rscale>
<asrwt>0</asrwt>
<pdfrwt beam="1">  1        4 0.67643820E-02 0.12499574E+03</pdfrwt>
<pdfrwt beam="2">  1       -4 0.13667075E-01 0.12499574E+03</pdfrwt>
<totfact> 0.10285546E+04</totfact>
</mgrwt>
</event>
<event>
 5    1  0.3261711E-002  0.1250060E+03  0.7818608E-02  0.1235060E+00
          4   -1    0    0  501    0  0.00000000000E+00  0.00000000000E+00  0.29066761367E+03  0.29067038813E+03  0.12700000000E+01 0. -1.
         -4   -1    0    0    0  501 -0.00000000000E+00 -0.00000000000E+00 -0.13407325732E+02  0.13467341359E+02  0.12700000000E+01 0. -1.
         25    2    1    2    0    0  0.00000000000E+00  0.00000000000E+00  0.27726028793E+03  0.30413772949E+03  0.12500596479E+03 0.  0.
    9000005    1    3    3    0    0  0.60792514216E+02  0.10107554637E+02  0.16388289075E+03  0.17508996067E+03  0.10000000000E+01 0.  0.
    9000005    1    3    3    0    0 -0.60792514216E+02 -0.10107554637E+02  0.11337739718E+03  0.12904776882E+03  0.10000000000E+01 0.  0.
<mgrwt>
<rscale>  0 0.12500596E+03</rscale>
<asrwt>0</asrwt>
<pdfrwt beam="1">  1        4 0.44722925E-01 0.12500596E+03</pdfrwt>
<pdfrwt beam="2">  1       -4 0.20674955E-02 0.12500596E+03</pdfrwt>
<totfact> 0.75072783E+03</totfact>
</mgrwt>
</event>
<event>
 5    1  0.3261711E-002  0.1249969E+03  0.7818608E-02  0.1235074E+00
          4   -1    0    0  501    0  0.00000000000E+00  0.00000000000E+00  0.82991635073E+02  0.83001351749E+02  0.12700000000E+01 0. -1.
         -4   -1    0    0    0  501 -0.00000000000E+00 -0.00000000000E+00 -0.47044591516E+02  0.47061730641E+02  0.12700000000E+01 0. -1.
         25    2    1    2    0    0  0.00000000000E+00  0.00000000000E+00  0.35947043558E+02  0.13006308239E+03  0.12499686180E+03 0.  0.
    9000005    1    3    3    0    0  0.98905764396E+01 -0.49080890639E+02 -0.20935881781E+02  0.54277697761E+02  0.10000000000E+01 0.  0.
    9000005    1    3    3    0    0 -0.98905764396E+01  0.49080890639E+02  0.56882925339E+02  0.75785384629E+02  0.10000000000E+01 0.  0.
<mgrwt>
<rscale>  0 0.12499686E+03</rscale>
<asrwt>0</asrwt>
<pdfrwt beam="1">  1        4 0.12770010E-01 0.12499686E+03</pdfrwt>
<pdfrwt beam="2">  1       -4 0.72396954E-02 0.12499686E+03</pdfrwt>
<totfact> 0.10343891E+04</totfact>
</mgrwt>
</event>
<event>
 5    1  0.3261711E-002  0.1249982E+03  0.7818608E-02  0.1235072E+00
          4   -1    0    0  501    0  0.00000000000E+00  0.00000000000E+00  0.53631370362E+03  0.53631520731E+03  0.12700000000E+01 0. -1.
         -4   -1    0    0    0  501 -0.00000000000E+00 -0.00000000000E+00 -0.72264223948E+01  0.73371711598E+01  0.12700000000E+01 0. -1.
         25    2    1    2    0    0  0.00000000000E+00  0.00000000000E+00  0.52908728123E+03  0.54365237847E+03  0.12499822983E+03 0.  0.
    9000005    1    3    3    0    0  0.26244599043E+02  0.56689706407E+02  0.27160713695E+03  0.27870044606E+03  0.10000000000E+01 0.  0.
    9000005    1    3    3    0    0 -0.26244599043E+02 -0.56689706407E+02  0.25748014428E+03  0.26495193241E+03  0.10000000000E+01 0.  0.
<mgrwt>
<rscale>  0 0.12499823E+03</rscale>
<asrwt>0</asrwt>
<pdfrwt beam="1">  1        4 0.82518418E-01 0.12499823E+03</pdfrwt>
<pdfrwt beam="2">  1       -4 0.11203923E-02 0.12499823E+03</pdfrwt>
<totfact> 0.52631773E+03</totfact>
</mgrwt>
</event>
<event>
 5    1  0.3261711E-002  0.1250050E+03  0.7818608E-02  0.1235061E+00
          4   -1    0    0  501    0  0.00000000000E+00  0.00000000000E+00  0.75358236695E+02  0.75368937486E+02  0.12700000000E+01 0.  1.
         -4   -1    0    0    0  501 -0.00000000000E+00 -0.00000000000E+00 -0.51817723046E+02  0.51833283917E+02  0.12700000000E+01 0.  1.
         25    2    1    2    0    0  0.00000000000E+00  0.00000000000E+00  0.23540513649E+02  0.12720222140E+03  0.12500499729E+03 0.  0.
    9000005    1    3    3    0    0  0.26449833111E+02 -0.15307056313E+02 -0.43700881311E+02  0.53335416675E+02  0.10000000000E+01 0.  0.
    9000005    1    3    3    0    0 -0.26449833111E+02  0.15307056313E+02  0.67241394960E+02  0.73866804728E+02  0.10000000000E+01 0.  0.
<mgrwt>
<rscale>  0 0.12500500E+03</rscale>
<asrwt>0</asrwt>
<pdfrwt beam="1">  1        4 0.11595595E-01 0.12500500E+03</pdfrwt>
<pdfrwt beam="2">  1       -4 0.79739775E-02 0.12500500E+03</pdfrwt>
<totfact> 0.10403582E+04</totfact>
</mgrwt>
</event>
<event>
 5    1  0.3261711E-002  0.1250020E+03  0.7818608E-02  0.1235066E+00
          4   -1    0    0  501    0  0.00000000000E+00  0.00000000000E+00  0.12841240104E+02  0.12903888849E+02  0.12700000000E+01 0.  1.
         -4   -1    0    0    0  501 -0.00000000000E+00 -0.00000000000E+00 -0.30340122721E+03  0.30340388523E+03  0.12700000000E+01 0.  1.
         25    2    1    2    0    0  0.00000000000E+00  0.00000000000E+00 -0.29055998711E+03  0.31630777408E+03  0.12500200733E+03 0.  0.
    9000005    1    3    3    0    0  0.60630254607E+02  0.66850436381E+01 -0.17966560866E+03  0.18974047675E+03  0.10000000000E+01 0.  0.
    9000005    1    3    3    0    0 -0.60630254607E+02 -0.66850436381E+01 -0.11089437844E+03  0.12656729733E+03  0.10000000000E+01 0.  0.
<mgrwt>
<rscale>  0 0.12500201E+03</rscale>
<asrwt>0</asrwt>
<pdfrwt beam="1">  1        4 0.19805992E-02 0.12500201E+03</pdfrwt>
<pdfrwt beam="2">  1       -4 0.46682130E-01 0.12500201E+03</pdfrwt>
<totfact> 0.73594156E+03</totfact>
</mgrwt>
</event>
<event>
 5    1  0.3261711E-002  0.1250021E+03  0.7818608E-02  0.1235066E+00
         -4   -1    0    0    0  501 -0.00000000000E+00  0.00000000000E+00  0.10463959790E+02  0.10540747340E+02  0.12700000000E+01 0. -1.
          4   -1    0    0  501    0  0.00000000000E+00 -0.00000000000E+00 -0.37187484259E+03  0.37187701119E+03  0.12700000000E+01 0. -1.
         25    2    1    2    0    0  0.00000000000E+00  0.00000000000E+00 -0.36141088280E+03  0.38241775853E+03  0.12500206331E+03 0.  0.
    9000005    1    3    3    0    0  0.42496329944E+01 -0.59255833314E+02 -0.12137838681E+03  0.13514076346E+03  0.10000000000E+01 0.  0.
    9000005    1    3    3    0    0 -0.42496329944E+01  0.59255833314E+02 -0.24003249598E+03  0.24727699507E+03  0.10000000000E+01 0.  0.
<mgrwt>
<rscale>  0 0.12500206E+03</rscale>
<asrwt>0</asrwt>
<pdfrwt beam="2">  1        4 0.57217577E-01 0.12500206E+03</pdfrwt>
<pdfrwt beam="1">  1       -4 0.16159138E-02 0.12500206E+03</pdfrwt>
<totfact> 0.66296492E+03</totfact>
</mgrwt>
</event>
<event>
 5    1  0.3261711E-002  0.1249999E+03  0.7818608E-02  0.1235069E+00
          4   -1    0    0  501    0  0.00000000000E+00  0.00000000000E+00  0.74163633005E+01  0.75243168863E+01  0.12700000000E+01 0.  1.
         -4   -1    0    0    0  501 -0.00000000000E+00 -0.00000000000E+00 -0.52279188058E+03  0.52279342316E+03  0.12700000000E+01 0.  1.
         25    2    1    2    0    0  0.00000000000E+00  0.00000000000E+00 -0.51537551728E+03  0.53031774005E+03  0.12499992639E+03 0.  0.
    9000005    1    3    3    0    0  0.57149312378E+02  0.17361438892E+02 -0.17971469349E+03  0.18938277250E+03  0.10000000000E+01 0.  0.
    9000005    1    3    3    0    0 -0.57149312378E+02 -0.17361438892E+02 -0.33566082379E+03  0.34093496754E+03  0.10000000000E+01 0.  0.
<mgrwt>
<rscale>  0 0.12499993E+03</rscale>
<asrwt>0</asrwt>
<pdfrwt beam="1">  1        4 0.11494022E-02 0.12499993E+03</pdfrwt>
<pdfrwt beam="2">  1       -4 0.80437914E-01 0.12499993E+03</pdfrwt>
<totfact> 0.53586591E+03</totfact>
</mgrwt>
</event>
<event>
 5    1  0.3261711E-002  0.1250201E+03  0.7818608E-02  0.1235038E+00
          4   -1    0    0  501    0  0.00000000000E+00  0.00000000000E+00  0.90293568135E+02  0.90302499116E+02  0.12700000000E+01 0. -1.
         -4   -1    0    0    0  501 -0.00000000000E+00 -0.00000000000E+00 -0.43255183965E+02  0.43273823957E+02  0.12700000000E+01 0. -1.
         25    2    1    2    0    0  0.00000000000E+00  0.00000000000E+00  0.47038384170E+02  0.13357632307E+03  0.12502009639E+03 0.  0.
    9000005    1    3    3    0    0  0.34076666012E+02 -0.26031707204E+02  0.72102470918E+02  0.83896574774E+02  0.10000000000E+01 0.  0.
    9000005    1    3    3    0    0 -0.34076666012E+02  0.26031707204E+02 -0.25064086748E+02  0.49679748298E+02  0.10000000000E+01 0.  0.
<mgrwt>
<rscale>  0 0.12502010E+03</rscale>
<asrwt>0</asrwt>
<pdfrwt beam="1">  1        4 0.13893439E-01 0.12502010E+03</pdfrwt>
<pdfrwt beam="2">  1       -4 0.66567646E-02 0.12502010E+03</pdfrwt>
<totfact> 0.10263513E+04</totfact>
</mgrwt>
</event>
<event>
 5    1  0.3261711E-002  0.1250020E+03  0.7818608E-02  0.1235066E+00
          4   -1    0    0  501    0  0.00000000000E+00  0.00000000000E+00  0.71893592799E+02  0.71904809196E+02  0.12700000000E+01 0. -1.
         -4   -1    0    0    0  501 -0.00000000000E+00 -0.00000000000E+00 -0.54312667255E+02  0.54327513512E+02  0.12700000000E+01 0. -1.
         25    2    1    2    0    0  0.00000000000E+00  0.00000000000E+00  0.17580925544E+02  0.12623232271E+03  0.12500204140E+03 0.  0.
    9000005    1    3    3    0    0  0.51704386955E+02  0.34653725134E+02  0.31540155791E+01  0.62331148797E+02  0.10000000000E+01 0.  0.
    9000005    1    3    3    0    0 -0.51704386955E+02 -0.34653725134E+02  0.14426909965E+02  0.63901173911E+02  0.10000000000E+01 0.  0.
<mgrwt>
<rscale>  0 0.12500204E+03</rscale>
<asrwt>0</asrwt>
<pdfrwt beam="1">  1        4 0.11062557E-01 0.12500204E+03</pdfrwt>
<pdfrwt beam="2">  1       -4 0.83577998E-02 0.12500204E+03</pdfrwt>
<totfact> 0.10425392E+04</totfact>
</mgrwt>
</event>
<event>
 5    1  0.3261711E-002  0.1250003E+03  0.7818608E-02  0.1235069E+00
          4   -1    0    0  501    0  0.00000000000E+00  0.00000000000E+00  0.62883250248E+03  0.62883378494E+03  0.12700000000E+01 0.  1.
         -4   -1    0    0    0  501 -0.00000000000E+00 -0.00000000000E+00 -0.61457261592E+01  0.62755756727E+01  0.12700000000E+01 0.  1.
         25    2    1    2    0    0  0.00000000000E+00  0.00000000000E+00  0.62268677632E+03  0.63510936061E+03  0.12500031411E+03 0.  0.
    9000005    1    3    3    0    0  0.18047294996E+02  0.51616382011E+02  0.15762619911E+03  0.16684416201E+03  0.10000000000E+01 0.  0.
    9000005    1    3    3    0    0 -0.18047294996E+02 -0.51616382011E+02  0.46506057721E+03  0.46826519860E+03  0.10000000000E+01 0.  0.
<mgrwt>
<rscale>  0 0.12500031E+03</rscale>
<asrwt>0</asrwt>
<pdfrwt beam="1">  1        4 0.96753513E-01 0.12500031E+03</pdfrwt>
<pdfrwt beam="2">  1       -4 0.95558376E-03 0.12500031E+03</pdfrwt>
<totfact> 0.46723536E+03</totfact>
</mgrwt>
</event>
<event>
 5    1  0.3261711E-002  0.1250088E+03  0.7818608E-02  0.1235056E+00
         -4   -1    0    0    0  501 -0.00000000000E+00  0.00000000000E+00  0.22642730830E+02  0.22678319150E+02  0.12700000000E+01 0.  1.
          4   -1    0    0  501    0  0.00000000000E+00 -0.00000000000E+00 -0.17236756691E+03  0.17237224551E+03  0.12700000000E+01 0.  1.
         25    2    1    2    0    0  0.00000000000E+00  0.00000000000E+00 -0.14972483608E+03  0.19505056466E+03  0.12500878463E+03 0.  0.
    9000005    1    3    3    0    0 -0.28428707020E+02 -0.30081376808E+01 -0.16157549852E+03  0.16408803124E+03  0.10000000000E+01 0.  0.
    9000005    1    3    3    0    0  0.28428707020E+02  0.30081376808E+01  0.11850662443E+02  0.30962533415E+02  0.10000000000E+01 0.  0.
<mgrwt>
<rscale>  0 0.12500878E+03</rscale>
<asrwt>0</asrwt>
<pdfrwt beam="2">  1        4 0.26521184E-01 0.12500878E+03</pdfrwt>
<pdfrwt beam="1">  1       -4 0.34865946E-02 0.12500878E+03</pdfrwt>
<totfact> 0.90957993E+03</totfact>
</mgrwt>
</event>
<event>
 5    1  0.3261711E-002  0.1250018E+03  0.7818608E-02  0.1235067E+00
         -4   -1    0    0    0  501 -0.00000000000E+00  0.00000000000E+00  0.10621684373E+02  0.10697339805E+02  0.12700000000E+01 0.  1.
          4   -1    0    0  501    0  0.00000000000E+00 -0.00000000000E+00 -0.36639038832E+03  0.36639258938E+03  0.12700000000E+01 0.  1.
         25    2    1    2    0    0  0.00000000000E+00  0.00000000000E+00 -0.35576870395E+03  0.37708992919E+03  0.12500177593E+03 0.  0.
    9000005    1    3    3    0    0 -0.13986009258E+02  0.41391667126E+02 -0.43093165064E+02  0.61375071794E+02  0.10000000000E+01 0.  0.
    9000005    1    3    3    0    0  0.13986009258E+02 -0.41391667126E+02 -0.31267553889E+03  0.31571485739E+03  0.10000000000E+01 0.  0.
<mgrwt>
<rscale>  0 0.12500178E+03</rscale>
<asrwt>0</asrwt>
<pdfrwt beam="2">  1        4 0.56373732E-01 0.12500178E+03</pdfrwt>
<pdfrwt beam="1">  1       -4 0.16400945E-02 0.12500178E+03</pdfrwt>
<totfact> 0.66841044E+03</totfact>
</mgrwt>
</event>
<event>
 5    1  0.3261711E-002  0.1250012E+03  0.7818608E-02  0.1235067E+00
         -4   -1    0    0    0  501 -0.00000000000E+00  0.00000000000E+00  0.21944140058E+02  0.21980859467E+02  0.12700000000E+01 0.  1.
          4   -1    0    0  501    0  0.00000000000E+00 -0.00000000000E+00 -0.17782444043E+03  0.17782897547E+03  0.12700000000E+01 0.  1.
         25    2    1    2    0    0  0.00000000000E+00  0.00000000000E+00 -0.15588030038E+03  0.19980983493E+03  0.12500120836E+03 0.  0.
    9000005    1    3    3    0    0  0.58648110949E+02 -0.16380766479E+02 -0.55482163114E+02  0.82384469726E+02  0.10000000000E+01 0.  0.
    9000005    1    3    3    0    0 -0.58648110949E+02  0.16380766479E+02 -0.10039813726E+03  0.11742536521E+03  0.10000000000E+01 0.  0.
<mgrwt>
<rscale>  0 0.12500121E+03</rscale>
<asrwt>0</asrwt>
<pdfrwt beam="2">  1        4 0.27360779E-01 0.12500121E+03</pdfrwt>
<pdfrwt beam="1">  1       -4 0.33791951E-02 0.12500121E+03</pdfrwt>
<totfact> 0.90165151E+03</totfact>
</mgrwt>
</event>
<event>
 5    1  0.3261711E-002  0.1250013E+03  0.7818608E-02  0.1235067E+00
         -4   -1    0    0    0  501 -0.00000000000E+00  0.00000000000E+00  0.22466512206E+03  0.22466871160E+03  0.12700000000E+01 0. -1.
          4   -1    0    0  501    0  0.00000000000E+00 -0.00000000000E+00 -0.17360426891E+02  0.17406818257E+02  0.12700000000E+01 0. -1.
         25    2    1    2    0    0  0.00000000000E+00  0.00000000000E+00  0.20730469517E+03  0.24207552985E+03  0.12500130205E+03 0.  0.
    9000005    1    3    3    0    0  0.19642019926E+02 -0.59175596052E+02  0.11181620689E+03  0.12802899765E+03  0.10000000000E+01 0.  0.
    9000005    1    3    3    0    0 -0.19642019926E+02  0.59175596052E+02  0.95488488278E+02  0.11404653221E+03  0.10000000000E+01 0.  0.
<mgrwt>
<rscale>  0 0.12500130E+03</rscale>
<asrwt>0</asrwt>
<pdfrwt beam="2">  1        4 0.26746797E-02 0.12500130E+03</pdfrwt>
<pdfrwt beam="1">  1       -4 0.34567708E-01 0.12500130E+03</pdfrwt>
<totfact> 0.83486799E+03</totfact>
</mgrwt>
</event>
<event>
 5    1  0.3261711E-002  0.1250064E+03  0.7818608E-02  0.1235059E+00
         -4   -1    0    0    0  501 -0.00000000000E+00  0.00000000000E+00  0.40843131533E+02  0.40862871821E+02  0.12700000000E+01 0.  1.
          4   -1    0    0  501    0  0.00000000000E+00 -0.00000000000E+00 -0.95603095094E+02  0.95611530118E+02  0.12700000000E+01 0.  1.
         25    2    1    2    0    0  0.00000000000E+00  0.00000000000E+00 -0.54759963561E+02  0.13647440194E+03  0.12500643494E+03 0.  0.
    9000005    1    3    3    0    0 -0.28917510426E+01  0.15659768599E+02  0.38596306360E+02  0.41764403998E+02  0.10000000000E+01 0.  0.
    9000005    1    3    3    0    0  0.28917510426E+01 -0.15659768599E+02 -0.93356269920E+02  0.94709997942E+02  0.10000000000E+01 0.  0.
<mgrwt>
<rscale>  0 0.12500643E+03</rscale>
<asrwt>0</asrwt>
<pdfrwt beam="2">  1        4 0.14710336E-01 0.12500643E+03</pdfrwt>
<pdfrwt beam="1">  1       -4 0.62857261E-02 0.12500643E+03</pdfrwt>
<totfact> 0.10205606E+04</totfact>
</mgrwt>
</event>
<event>
 5    1  0.3261711E-002  0.1250033E+03  0.7818608E-02  0.1235064E+00
          4   -1    0    0  501    0  0.00000000000E+00  0.00000000000E+00  0.33553541371E+02  0.33577567490E+02  0.12700000000E+01 0. -1.
         -4   -1    0    0    0  501 -0.00000000000E+00 -0.00000000000E+00 -0.11635537674E+03  0.11636230745E+03  0.12700000000E+01 0. -1.
         25    2    1    2    0    0  0.00000000000E+00  0.00000000000E+00 -0.82801835365E+02  0.14993987494E+03  0.12500328859E+03 0.  0.
    9000005    1    3    3    0    0  0.25700317501E+02  0.20235534280E+01 -0.10968594213E+03  0.11267922164E+03  0.10000000000E+01 0.  0.
    9000005    1    3    3    0    0 -0.25700317501E+02 -0.20235534280E+01  0.26884106764E+02  0.37260653304E+02  0.10000000000E+01 0.  0.
<mgrwt>
<rscale>  0 0.12500329E+03</rscale>
<asrwt>0</asrwt>
<pdfrwt beam="1">  1        4 0.51644646E-02 0.12500329E+03</pdfrwt>
<pdfrwt beam="2">  1       -4 0.17903208E-01 0.12500329E+03</pdfrwt>
<totfact> 0.99308334E+03</totfact>
</mgrwt>
</event>
<event>
 5    1  0.3261711E-002  0.1250007E+03  0.7818608E-02  0.1235068E+00
          4   -1    0    0  501    0  0.00000000000E+00  0.00000000000E+00  0.13971800232E+03  0.13972377418E+03  0.12700000000E+01 0.  1.
         -4   -1    0    0    0  501 -0.00000000000E+00 -0.00000000000E+00 -0.27937654973E+02  0.27966506135E+02  0.12700000000E+01 0.  1.
         25    2    1    2    0    0  0.00000000000E+00  0.00000000000E+00  0.11178034734E+03  0.16769028032E+03  0.12500073624E+03 0.  0.
    9000005    1    3    3    0    0  0.52462442111E+02 -0.31149888294E+02  0.74021604389E+02  0.95931336326E+02  0.10000000000E+01 0.  0.
    9000005    1    3    3    0    0 -0.52462442111E+02  0.31149888294E+02  0.37758742955E+02  0.71758943990E+02  0.10000000000E+01 0.  0.
<mgrwt>
<rscale>  0 0.12500074E+03</rscale>
<asrwt>0</asrwt>
<pdfrwt beam="1">  1        4 0.21497740E-01 0.12500074E+03</pdfrwt>
<pdfrwt beam="2">  1       -4 0.43007642E-02 0.12500074E+03</pdfrwt>
<totfact> 0.95878723E+03</totfact>
</mgrwt>
</event>
<event>
 5    1  0.3261711E-002  0.1249965E+03  0.7818608E-02  0.1235075E+00
          4   -1    0    0  501    0  0.00000000000E+00  0.00000000000E+00  0.30964161299E+02  0.30990194981E+02  0.12700000000E+01 0. -1.
         -4   -1    0    0    0  501 -0.00000000000E+00 -0.00000000000E+00 -0.12606463538E+03  0.12607103234E+03  0.12700000000E+01 0. -1.
         25    2    1    2    0    0  0.00000000000E+00  0.00000000000E+00 -0.95100474085E+02  0.15706122732E+03  0.12499651577E+03 0.  0.
    9000005    1    3    3    0    0 -0.65882677746E+01  0.61399132083E+02 -0.35512916219E+02  0.71242023492E+02  0.10000000000E+01 0.  0.
    9000005    1    3    3    0    0  0.65882677746E+01 -0.61399132083E+02 -0.59587557866E+02  0.85819203826E+02  0.10000000000E+01 0.  0.
<mgrwt>
<rscale>  0 0.12499652E+03</rscale>
<asrwt>0</asrwt>
<pdfrwt beam="1">  1        4 0.47662119E-02 0.12499652E+03</pdfrwt>
<pdfrwt beam="2">  1       -4 0.19397054E-01 0.12499652E+03</pdfrwt>
<totfact> 0.97920039E+03</totfact>
</mgrwt>
</event>
<event>
 5    1  0.3261711E-002  0.1249983E+03  0.7818608E-02  0.1235072E+00
          4   -1    0    0  501    0  0.00000000000E+00  0.00000000000E+00  0.89048098957E+02  0.89057154838E+02  0.12700000000E+01 0.  1.
         -4   -1    0    0    0  501 -0.00000000000E+00 -0.00000000000E+00 -0.43845099853E+02  0.43863489158E+02  0.12700000000E+01 0.  1.
         25    2    1    2    0    0  0.00000000000E+00  0.00000000000E+00  0.45202999103E+02  0.13292064400E+03  0.12499834588E+03 0.  0.
    9000005    1    3    3    0    0  0.17755342865E+02  0.41483817938E+02  0.68573281925E+02  0.82094179726E+02  0.10000000000E+01 0.  0.
    9000005    1    3    3    0    0 -0.17755342865E+02 -0.41483817938E+02 -0.23370282822E+02  0.50826464270E+02  0.10000000000E+01 0.  0.
<mgrwt>
<rscale>  0 0.12499835E+03</rscale>
<asrwt>0</asrwt>
<pdfrwt beam="1">  1        4 0.13701819E-01 0.12499835E+03</pdfrwt>
<pdfrwt beam="2">  1       -4 0.67475112E-02 0.12499835E+03</pdfrwt>
<totfact> 0.10282470E+04</totfact>
</mgrwt>
</event>
<event>
 5    1  0.3261711E-002  0.1249930E+03  0.7818608E-02  0.1235080E+00
          4   -1    0    0  501    0  0.00000000000E+00  0.00000000000E+00  0.78814410108E+02  0.78824641710E+02  0.12700000000E+01 0.  1.
         -4   -1    0    0    0  501 -0.00000000000E+00 -0.00000000000E+00 -0.49535532438E+02  0.49551809997E+02  0.12700000000E+01 0.  1.
         25    2    1    2    0    0  0.00000000000E+00  0.00000000000E+00  0.29278877670E+02  0.12837645171E+03  0.12499304251E+03 0.  0.
    9000005    1    3    3    0    0  0.25139900654E+01 -0.59922143987E+02 -0.33806192433E+01  0.60078382739E+02  0.10000000000E+01 0.  0.
    9000005    1    3    3    0    0 -0.25139900654E+01  0.59922143987E+02  0.32659496913E+02  0.68298068968E+02  0.10000000000E+01 0.  0.
<mgrwt>
<rscale>  0 0.12499304E+03</rscale>
<asrwt>0</asrwt>
<pdfrwt beam="1">  1        4 0.12127333E-01 0.12499304E+03</pdfrwt>
<pdfrwt beam="2">  1       -4 0.76228904E-02 0.12499304E+03</pdfrwt>
<totfact> 0.10380996E+04</totfact>
</mgrwt>
</event>
<event>
 5    1  0.3261711E-002  0.1250015E+03  0.7818608E-02  0.1235067E+00
         -4   -1    0    0    0  501 -0.00000000000E+00  0.00000000000E+00  0.80400848943E+02  0.80410878684E+02  0.12700000000E+01 0.  1.
          4   -1    0    0  501    0  0.00000000000E+00 -0.00000000000E+00 -0.48564478019E+02  0.48581080940E+02  0.12700000000E+01 0.  1.
         25    2    1    2    0    0  0.00000000000E+00  0.00000000000E+00  0.31836370923E+02  0.12899195962E+03  0.12500148453E+03 0.  0.
    9000005    1    3    3    0    0  0.22065091877E+02  0.20171321740E+02  0.72548054542E+02  0.78472738694E+02  0.10000000000E+01 0.  0.
    9000005    1    3    3    0    0 -0.22065091877E+02 -0.20171321740E+02 -0.40711683618E+02  0.50519220930E+02  0.10000000000E+01 0.  0.
<mgrwt>
<rscale>  0 0.12500148E+03</rscale>
<asrwt>0</asrwt>
<pdfrwt beam="2">  1        4 0.74735068E-02 0.12500148E+03</pdfrwt>
<pdfrwt beam="1">  1       -4 0.12371410E-01 0.12500148E+03</pdfrwt>
<totfact> 0.10365772E+04</totfact>
</mgrwt>
</event>
<event>
 5    1  0.3261711E-002  0.1250147E+03  0.7818608E-02  0.1235046E+00
          4   -1    0    0  501    0  0.00000000000E+00  0.00000000000E+00  0.20350956662E+03  0.20351352930E+03  0.12700000000E+01 0.  1.
         -4   -1    0    0    0  501 -0.00000000000E+00 -0.00000000000E+00 -0.19173785148E+02  0.19215799148E+02  0.12700000000E+01 0.  1.
         25    2    1    2    0    0  0.00000000000E+00  0.00000000000E+00  0.18433578148E+03  0.22272932845E+03  0.12501469281E+03 0.  0.
    9000005    1    3    3    0    0  0.17993974986E+02  0.18886529263E+02 -0.90197045665E+01  0.27619543694E+02  0.10000000000E+01 0.  0.
    9000005    1    3    3    0    0 -0.17993974986E+02 -0.18886529263E+02  0.19335548604E+03  0.19510978475E+03  0.10000000000E+01 0.  0.
<mgrwt>
<rscale>  0 0.12501469E+03</rscale>
<asrwt>0</asrwt>
<pdfrwt beam="1">  1        4 0.31312700E-01 0.12501469E+03</pdfrwt>
<pdfrwt beam="2">  1       -4 0.29533498E-02 0.12501469E+03</pdfrwt>
<totfact> 0.86409948E+03</totfact>
</mgrwt>
</event>
<event>
 5    1  0.3261711E-002  0.1249988E+03  0.7818608E-02  0.1235071E+00
          4   -1    0    0  501    0  0.00000000000E+00  0.00000000000E+00  0.82216241047E+01  0.83191347459E+01  0.12700000000E+01 0.  1.
         -4   -1    0    0    0  501 -0.00000000000E+00 -0.00000000000E+00 -0.47221079219E+03  0.47221250000E+03  0.12700000000E+01 0.  1.
         25    2    1    2    0    0  0.00000000000E+00  0.00000000000E+00 -0.46398916808E+03  0.48053163475E+03  0.12499881558E+03 0.  0.
    9000005    1    3    3    0    0 -0.40139123352E+02  0.12564680680E+02 -0.40967212002E+03  0.41182674311E+03  0.10000000000E+01 0.  0.
    9000005    1    3    3    0    0  0.40139123352E+02 -0.12564680680E+02 -0.54317048067E+02  0.68704891636E+02  0.10000000000E+01 0.  0.
<mgrwt>
<rscale>  0 0.12499882E+03</rscale>
<asrwt>0</asrwt>
<pdfrwt beam="1">  1        4 0.12724978E-02 0.12499882E+03</pdfrwt>
<pdfrwt beam="2">  1       -4 0.72655425E-01 0.12499882E+03</pdfrwt>
<totfact> 0.57408662E+03</totfact>
</mgrwt>
</event>
<event>
 5    1  0.3261711E-002  0.1250003E+03  0.7818608E-02  0.1235069E+00
         -4   -1    0    0    0  501 -0.00000000000E+00  0.00000000000E+00  0.37492597746E+02  0.37514101159E+02  0.12700000000E+01 0. -1.
          4   -1    0    0  501    0  0.00000000000E+00 -0.00000000000E+00 -0.10413252607E+03  0.10414027024E+03  0.12700000000E+01 0. -1.
         25    2    1    2    0    0  0.00000000000E+00  0.00000000000E+00 -0.66639928328E+02  0.14165437140E+03  0.12500032356E+03 0.  0.
    9000005    1    3    3    0    0 -0.33249322108E+02 -0.15341844136E+02 -0.90706510306E+02  0.97824131041E+02  0.10000000000E+01 0.  0.
    9000005    1    3    3    0    0  0.33249322108E+02  0.15341844136E+02  0.24066581977E+02  0.43830240362E+02  0.10000000000E+01 0.  0.
<mgrwt>
<rscale>  0 0.12500032E+03</rscale>
<asrwt>0</asrwt>
<pdfrwt beam="2">  1        4 0.16022638E-01 0.12500032E+03</pdfrwt>
<pdfrwt beam="1">  1       -4 0.57703418E-02 0.12500032E+03</pdfrwt>
<totfact> 0.10099339E+04</totfact>
</mgrwt>
</event>
<event>
 5    1  0.3261711E-002  0.1249910E+03  0.7818608E-02  0.1235083E+00
         -4   -1    0    0    0  501 -0.00000000000E+00  0.00000000000E+00  0.29118239650E+03  0.29118516606E+03  0.12700000000E+01 0. -1.
          4   -1    0    0  501    0  0.00000000000E+00 -0.00000000000E+00 -0.13380287533E+02  0.13440423894E+02  0.12700000000E+01 0. -1.
         25    2    1    2    0    0  0.00000000000E+00  0.00000000000E+00  0.27780210897E+03  0.30462558995E+03  0.12499095290E+03 0.  0.
    9000005    1    3    3    0    0  0.55252322212E+02 -0.12896983389E+02  0.20271301352E+03  0.21050586011E+03  0.10000000000E+01 0.  0.
    9000005    1    3    3    0    0 -0.55252322212E+02  0.12896983389E+02  0.75089095452E+02  0.94119729846E+02  0.10000000000E+01 0.  0.
<mgrwt>
<rscale>  0 0.12499095E+03</rscale>
<asrwt>0</asrwt>
<pdfrwt beam="2">  1        4 0.20633447E-02 0.12499095E+03</pdfrwt>
<pdfrwt beam="1">  1       -4 0.44802131E-01 0.12499095E+03</pdfrwt>
<totfact> 0.75037316E+03</totfact>
</mgrwt>
</event>
<event>
 5    1  0.3261711E-002  0.1249964E+03  0.7818608E-02  0.1235075E+00
         -4   -1    0    0    0  501 -0.00000000000E+00  0.00000000000E+00  0.79638960867E+02  0.79649086548E+02  0.12700000000E+01 0.  1.
          4   -1    0    0  501    0  0.00000000000E+00 -0.00000000000E+00 -0.49025219443E+02  0.49041666381E+02  0.12700000000E+01 0.  1.
         25    2    1    2    0    0  0.00000000000E+00  0.00000000000E+00  0.30613741424E+02  0.12869075293E+03  0.12499643485E+03 0.  0.
    9000005    1    3    3    0    0  0.40909212801E+02  0.46713117094E+02  0.80744232238E+01  0.62624877732E+02  0.10000000000E+01 0.  0.
    9000005    1    3    3    0    0 -0.40909212801E+02 -0.46713117094E+02  0.22539318200E+02  0.66065875197E+02  0.10000000000E+01 0.  0.
<mgrwt>
<rscale>  0 0.12499643E+03</rscale>
<asrwt>0</asrwt>
<pdfrwt beam="2">  1        4 0.75443855E-02 0.12499643E+03</pdfrwt>
<pdfrwt beam="1">  1       -4 0.12254192E-01 0.12499643E+03</pdfrwt>
<totfact> 0.10373432E+04</totfact>
</mgrwt>
</event>
<event>
 5    1  0.3261711E-002  0.1250028E+03  0.7818608E-02  0.1235065E+00
          4   -1    0    0  501    0  0.00000000000E+00  0.00000000000E+00  0.14941733881E+03  0.14942273601E+03  0.12700000000E+01 0. -1.
         -4   -1    0    0    0  501 -0.00000000000E+00 -0.00000000000E+00 -0.26123080119E+02  0.26153933068E+02  0.12700000000E+01 0. -1.
         25    2    1    2    0    0  0.00000000000E+00  0.00000000000E+00  0.12329425869E+03  0.17557666908E+03  0.12500276996E+03 0.  0.
    9000005    1    3    3    0    0  0.57746261341E+02 -0.16862926721E+02  0.37875467160E+02  0.71095288234E+02  0.10000000000E+01 0.  0.
    9000005    1    3    3    0    0 -0.57746261341E+02  0.16862926721E+02  0.85418791530E+02  0.10448138084E+03  0.10000000000E+01 0.  0.
<mgrwt>
<rscale>  0 0.12500277E+03</rscale>
<asrwt>0</asrwt>
<pdfrwt beam="1">  1        4 0.22990072E-01 0.12500277E+03</pdfrwt>
<pdfrwt beam="2">  1       -4 0.40217238E-02 0.12500277E+03</pdfrwt>
<totfact> 0.94413464E+03</totfact>
</mgrwt>
</event>
<event>
 5    1  0.3261711E-002  0.1250010E+03  0.7818608E-02  0.1235068E+00
         -4   -1    0    0    0  501 -0.00000000000E+00  0.00000000000E+00  0.29744092072E+03  0.29744363200E+03  0.12700000000E+01 0.  1.
          4   -1    0    0  501    0  0.00000000000E+00 -0.00000000000E+00 -0.13099594150E+02  0.13161013140E+02  0.12700000000E+01 0.  1.
         25    2    1    2    0    0  0.00000000000E+00  0.00000000000E+00  0.28434132657E+03  0.31060464514E+03  0.12500102235E+03 0.  0.
    9000005    1    3    3    0    0 -0.56325850784E+02 -0.25886912787E+02  0.16182746128E+03  0.17329703097E+03  0.10000000000E+01 0.  0.
    9000005    1    3    3    0    0  0.56325850784E+02  0.25886912787E+02  0.12251386529E+03  0.13730761417E+03  0.10000000000E+01 0.  0.
<mgrwt>
<rscale>  0 0.12500102E+03</rscale>
<asrwt>0</asrwt>
<pdfrwt beam="2">  1        4 0.20202555E-02 0.12500102E+03</pdfrwt>
<pdfrwt beam="1">  1       -4 0.45765069E-01 0.12500102E+03</pdfrwt>
<totfact> 0.74285896E+03</totfact>
</mgrwt>
</event>
<event>
 5    1  0.3261711E-002  0.1249844E+03  0.7818608E-02  0.1235094E+00
          4   -1    0    0  501    0  0.00000000000E+00  0.00000000000E+00  0.30366287711E+03  0.30366553284E+03  0.12700000000E+01 0. -1.
         -4   -1    0    0    0  501 -0.00000000000E+00 -0.00000000000E+00 -0.12826486743E+02  0.12889207197E+02  0.12700000000E+01 0. -1.
         25    2    1    2    0    0  0.00000000000E+00  0.00000000000E+00  0.29083639037E+03  0.31655474004E+03  0.12498438894E+03 0.  0.
    9000005    1    3    3    0    0  0.44921785343E+02 -0.21444041942E+01  0.25528570786E+03  0.25921874528E+03  0.10000000000E+01 0.  0.
    9000005    1    3    3    0    0 -0.44921785343E+02  0.21444041942E+01  0.35550682504E+02  0.57335994752E+02  0.10000000000E+01 0.  0.
<mgrwt>
<rscale>  0 0.12498439E+03</rscale>
<asrwt>0</asrwt>
<pdfrwt beam="1">  1        4 0.46722390E-01 0.12498439E+03</pdfrwt>
<pdfrwt beam="2">  1       -4 0.19783348E-02 0.12498439E+03</pdfrwt>
<totfact> 0.73593247E+03</totfact>
</mgrwt>
</event>
<event>
 5    1  0.3261711E-002  0.1250003E+03  0.7818608E-02  0.1235069E+00
          4   -1    0    0  501    0  0.00000000000E+00  0.00000000000E+00  0.47968328130E+03  0.47968496251E+03  0.12700000000E+01 0.  1.
         -4   -1    0    0    0  501 -0.00000000000E+00 -0.00000000000E+00 -0.80922133193E+01  0.81912646401E+01  0.12700000000E+01 0.  1.
         25    2    1    2    0    0  0.00000000000E+00  0.00000000000E+00  0.47159106798E+03  0.48787622715E+03  0.12500031048E+03 0.  0.
    9000005    1    3    3    0    0  0.54879368805E+02 -0.15942008733E+02  0.33448639733E+03  0.33933470610E+03  0.10000000000E+01 0.  0.
    9000005    1    3    3    0    0 -0.54879368805E+02  0.15942008733E+02  0.13710467065E+03  0.14854152105E+03  0.10000000000E+01 0.  0.
<mgrwt>
<rscale>  0 0.12500031E+03</rscale>
<asrwt>0</asrwt>
<pdfrwt beam="1">  1        4 0.73805196E-01 0.12500031E+03</pdfrwt>
<pdfrwt beam="2">  1       -4 0.12527042E-02 0.12500031E+03</pdfrwt>
<totfact> 0.56817046E+03</totfact>
</mgrwt>
</event>
<event>
 5    1  0.3261711E-002  0.1249983E+03  0.7818608E-02  0.1235072E+00
         -4   -1    0    0    0  501 -0.00000000000E+00  0.00000000000E+00  0.20836280754E+03  0.20836667792E+03  0.12700000000E+01 0.  1.
          4   -1    0    0  501    0  0.00000000000E+00 -0.00000000000E+00 -0.18721279033E+02  0.18764306239E+02  0.12700000000E+01 0.  1.
         25    2    1    2    0    0  0.00000000000E+00  0.00000000000E+00  0.18964152851E+03  0.22713098415E+03  0.12499829850E+03 0.  0.
    9000005    1    3    3    0    0  0.86077803138E+01  0.83129970328E+01 -0.16628815752E+02  0.20511394758E+02  0.10000000000E+01 0.  0.
    9000005    1    3    3    0    0 -0.86077803138E+01 -0.83129970328E+01  0.20627034426E+03  0.20661958940E+03  0.10000000000E+01 0.  0.
<mgrwt>
<rscale>  0 0.12499830E+03</rscale>
<asrwt>0</asrwt>
<pdfrwt beam="2">  1        4 0.28838043E-02 0.12499830E+03</pdfrwt>
<pdfrwt beam="1">  1       -4 0.32059424E-01 0.12499830E+03</pdfrwt>
<totfact> 0.85755348E+03</totfact>
</mgrwt>
</event>
<event>
 5    1  0.3261711E-002  0.1249986E+03  0.7818608E-02  0.1235071E+00
          4   -1    0    0  501    0  0.00000000000E+00  0.00000000000E+00  0.79247986956E+03  0.79248088719E+03  0.12700000000E+01 0. -1.
         -4   -1    0    0    0  501 -0.00000000000E+00 -0.00000000000E+00 -0.48461964757E+01  0.50098423410E+01  0.12700000000E+01 0. -1.
         25    2    1    2    0    0  0.00000000000E+00  0.00000000000E+00  0.78763367309E+03  0.79749072953E+03  0.12499864282E+03 0.  0.
    9000005    1    3    3    0    0 -0.17591924648E+02  0.56365323302E+02  0.26327775661E+03  0.26981975948E+03  0.10000000000E+01 0.  0.
    9000005    1    3    3    0    0  0.17591924648E+02 -0.56365323302E+02  0.52435591648E+03  0.52767097005E+03  0.10000000000E+01 0.  0.
<mgrwt>
<rscale>  0 0.12499864E+03</rscale>
<asrwt>0</asrwt>
<pdfrwt beam="1">  1        4 0.12193265E+00 0.12499864E+03</pdfrwt>
<pdfrwt beam="2">  1       -4 0.75823509E-03 0.12499864E+03</pdfrwt>
<totfact> 0.38378127E+03</totfact>
</mgrwt>
</event>
<event>
 5    1  0.3261711E-002  0.1249866E+03  0.7818608E-02  0.1235090E+00
         -4   -1    0    0    0  501 -0.00000000000E+00  0.00000000000E+00  0.16158929399E+01  0.20552396437E+01  0.12700000000E+01 0.  1.
          4   -1    0    0  501    0  0.00000000000E+00 -0.00000000000E+00 -0.21271952493E+04  0.21271956284E+04  0.12700000000E+01 0.  1.
         25    2    1    2    0    0  0.00000000000E+00  0.00000000000E+00 -0.21255793564E+04  0.21292508681E+04  0.12498663505E+03 0.  0.
    9000005    1    3    3    0    0  0.28491404769E+02 -0.25073528848E+02 -0.19084212839E+04  0.19087988995E+04  0.10000000000E+01 0.  0.
    9000005    1    3    3    0    0 -0.28491404769E+02  0.25073528848E+02 -0.21715807250E+03  0.22045196857E+03  0.10000000000E+01 0.  0.
<mgrwt>
<rscale>  0 0.12498664E+03</rscale>
<asrwt>0</asrwt>
<pdfrwt beam="2">  1        4 0.32729266E+00 0.12498664E+03</pdfrwt>
<pdfrwt beam="1">  1       -4 0.28242568E-03 0.12498664E+03</pdfrwt>
<totfact> 0.82697364E+02</totfact>
</mgrwt>
</event>
<event>
 5    1  0.3261711E-002  0.1250292E+03  0.7818608E-02  0.1235024E+00
          4   -1    0    0  501    0  0.00000000000E+00  0.00000000000E+00  0.16367288883E+02  0.16416486999E+02  0.12700000000E+01 0.  1.
         -4   -1    0    0    0  501 -0.00000000000E+00 -0.00000000000E+00 -0.23836426087E+03  0.23836764411E+03  0.12700000000E+01 0.  1.
         25    2    1    2    0    0  0.00000000000E+00  0.00000000000E+00 -0.22199697199E+03  0.25478413111E+03  0.12502918817E+03 0.  0.
    9000005    1    3    3    0    0  0.40608685858E+02 -0.46627574215E+02 -0.92335286044E+02  0.11113055877E+03  0.10000000000E+01 0.  0.
    9000005    1    3    3    0    0 -0.40608685858E+02  0.46627574215E+02 -0.12966168594E+03  0.14365357234E+03  0.10000000000E+01 0.  0.
<mgrwt>
<rscale>  0 0.12502919E+03</rscale>
<asrwt>0</asrwt>
<pdfrwt beam="1">  1        4 0.25220893E-02 0.12502919E+03</pdfrwt>
<pdfrwt beam="2">  1       -4 0.36675467E-01 0.12502919E+03</pdfrwt>
<totfact> 0.81590609E+03</totfact>
</mgrwt>
</event>
<event>
 5    1  0.3261711E-002  0.1249933E+03  0.7818608E-02  0.1235080E+00
          4   -1    0    0  501    0  0.00000000000E+00  0.00000000000E+00  0.98119413476E+02  0.98127632198E+02  0.12700000000E+01 0.  1.
         -4   -1    0    0    0  501 -0.00000000000E+00 -0.00000000000E+00 -0.39786917219E+02  0.39807181284E+02  0.12700000000E+01 0.  1.
         25    2    1    2    0    0  0.00000000000E+00  0.00000000000E+00  0.58332496257E+02  0.13793481348E+03  0.12499333043E+03 0.  0.
    9000005    1    3    3    0    0  0.19557534449E+02 -0.44231042950E+02 -0.14503040293E+02  0.50499707840E+02  0.10000000000E+01 0.  0.
    9000005    1    3    3    0    0 -0.19557534449E+02  0.44231042950E+02  0.72835536550E+02  0.87435105642E+02  0.10000000000E+01 0.  0.
<mgrwt>
<rscale>  0 0.12499333E+03</rscale>
<asrwt>0</asrwt>
<pdfrwt beam="1">  1        4 0.15097485E-01 0.12499333E+03</pdfrwt>
<pdfrwt beam="2">  1       -4 0.61232553E-02 0.12499333E+03</pdfrwt>
<totfact> 0.10178098E+04</totfact>
</mgrwt>
</event>
<event>
 5    1  0.3261711E-002  0.1249947E+03  0.7818608E-02  0.1235078E+00
         -4   -1    0    0    0  501 -0.00000000000E+00  0.00000000000E+00  0.39372445039E+03  0.39372649864E+03  0.12700000000E+01 0. -1.
          4   -1    0    0  501    0  0.00000000000E+00 -0.00000000000E+00 -0.98777112792E+01  0.99590200379E+01  0.12700000000E+01 0. -1.
         25    2    1    2    0    0  0.00000000000E+00  0.00000000000E+00  0.38384673911E+03  0.40368551868E+03  0.12499471536E+03 0.  0.
    9000005    1    3    3    0    0 -0.65353040958E+01  0.39811172546E+02  0.34604363203E+03  0.34838891332E+03  0.10000000000E+01 0.  0.
    9000005    1    3    3    0    0  0.65353040958E+01 -0.39811172546E+02  0.37803107081E+02  0.55296605358E+02  0.10000000000E+01 0.  0.
<mgrwt>
<rscale>  0 0.12499472E+03</rscale>
<asrwt>0</asrwt>
<pdfrwt beam="2">  1        4 0.15260598E-02 0.12499472E+03</pdfrwt>
<pdfrwt beam="1">  1       -4 0.60579412E-01 0.12499472E+03</pdfrwt>
<totfact> 0.64203394E+03</totfact>
</mgrwt>
</event>
<event>
 5    1  0.3261711E-002  0.1250346E+03  0.7818608E-02  0.1235015E+00
         -4   -1    0    0    0  501 -0.00000000000E+00  0.00000000000E+00  0.35906491226E+03  0.35906715822E+03  0.12700000000E+01 0.  1.
          4   -1    0    0  501    0  0.00000000000E+00 -0.00000000000E+00 -0.10845651663E+02  0.10919755491E+02  0.12700000000E+01 0.  1.
         25    2    1    2    0    0  0.00000000000E+00  0.00000000000E+00  0.34821926060E+03  0.36998691372E+03  0.12503464668E+03 0.  0.
    9000005    1    3    3    0    0 -0.89077708695E+01  0.81115233837E+00  0.35717594971E+03  0.35728933009E+03  0.10000000000E+01 0.  0.
    9000005    1    3    3    0    0  0.89077708695E+01 -0.81115233837E+00 -0.89566891114E+01  0.12697583621E+02  0.10000000000E+01 0.  0.
<mgrwt>
<rscale>  0 0.12503465E+03</rscale>
<asrwt>0</asrwt>
<pdfrwt beam="2">  1        4 0.16744351E-02 0.12503465E+03</pdfrwt>
<pdfrwt beam="1">  1       -4 0.55246622E-01 0.12503465E+03</pdfrwt>
<totfact> 0.67528571E+03</totfact>
</mgrwt>
</event>
<event>
 5    1  0.3261711E-002  0.1249941E+03  0.7818608E-02  0.1235079E+00
          4   -1    0    0  501    0  0.00000000000E+00  0.00000000000E+00  0.86753260588E+02  0.86762555994E+02  0.12700000000E+01 0.  1.
         -4   -1    0    0    0  501 -0.00000000000E+00 -0.00000000000E+00 -0.45002201853E+02  0.45020118521E+02  0.12700000000E+01 0.  1.
         25    2    1    2    0    0  0.00000000000E+00  0.00000000000E+00  0.41751058735E+02  0.13178267452E+03  0.12499408945E+03 0.  0.
    9000005    1    3    3    0    0 -0.19007665377E+02 -0.18551810968E+02 -0.38759912061E+02  0.46997785227E+02  0.10000000000E+01 0.  0.
    9000005    1    3    3    0    0  0.19007665377E+02  0.18551810968E+02  0.80510970795E+02  0.84784889289E+02  0.10000000000E+01 0.  0.
<mgrwt>
<rscale>  0 0.12499409E+03</rscale>
<asrwt>0</asrwt>
<pdfrwt beam="1">  1        4 0.13348749E-01 0.12499409E+03</pdfrwt>
<pdfrwt beam="2">  1       -4 0.69255089E-02 0.12499409E+03</pdfrwt>
<totfact> 0.10307714E+04</totfact>
</mgrwt>
</event>
<event>
 5    1  0.3261711E-002  0.1249991E+03  0.7818608E-02  0.1235071E+00
          4   -1    0    0  501    0  0.00000000000E+00  0.00000000000E+00  0.11971694864E+04  0.11971701600E+04  0.12700000000E+01 0. -1.
         -4   -1    0    0    0  501 -0.00000000000E+00 -0.00000000000E+00 -0.31385748407E+01  0.33857867669E+01  0.12700000000E+01 0. -1.
         25    2    1    2    0    0  0.00000000000E+00  0.00000000000E+00  0.11940309115E+04  0.12005559468E+04  0.12499905452E+03 0.  0.
    9000005    1    3    3    0    0  0.36928759585E+02  0.25543190977E+02  0.10144534751E+04  0.10154472123E+04  0.10000000000E+01 0.  0.
    9000005    1    3    3    0    0 -0.36928759585E+02 -0.25543190977E+02  0.17957743642E+03  0.18510873443E+03  0.10000000000E+01 0.  0.
<mgrwt>
<rscale>  0 0.12499905E+03</rscale>
<asrwt>0</asrwt>
<pdfrwt beam="1">  1        4 0.18419909E+00 0.12499905E+03</pdfrwt>
<pdfrwt beam="2">  1       -4 0.50192551E-03 0.12499905E+03</pdfrwt>
<totfact> 0.24698692E+03</totfact>
</mgrwt>
</event>
<event>
 5    1  0.3261711E-002  0.1250011E+03  0.7818608E-02  0.1235068E+00
          4   -1    0    0  501    0  0.00000000000E+00  0.00000000000E+00  0.43646988403E+02  0.43665461140E+02  0.12700000000E+01 0. -1.
         -4   -1    0    0    0  501 -0.00000000000E+00 -0.00000000000E+00 -0.89456112192E+02  0.89465126773E+02  0.12700000000E+01 0. -1.
         25    2    1    2    0    0  0.00000000000E+00  0.00000000000E+00 -0.45809123789E+02  0.13313058791E+03  0.12500111046E+03 0.  0.
    9000005    1    3    3    0    0 -0.48994440723E+02  0.38785528981E+02 -0.22116922520E+02  0.66294273824E+02  0.10000000000E+01 0.  0.
    9000005    1    3    3    0    0  0.48994440723E+02 -0.38785528981E+02 -0.23692201270E+02  0.66836314090E+02  0.10000000000E+01 0.  0.
<mgrwt>
<rscale>  0 0.12500111E+03</rscale>
<asrwt>0</asrwt>
<pdfrwt beam="1">  1        4 0.67170357E-02 0.12500111E+03</pdfrwt>
<pdfrwt beam="2">  1       -4 0.13764593E-01 0.12500111E+03</pdfrwt>
<totfact> 0.10277368E+04</totfact>
</mgrwt>
</event>
<event>
 5    1  0.3261711E-002  0.1249996E+03  0.7818608E-02  0.1235070E+00
         -4   -1    0    0    0  501 -0.00000000000E+00  0.00000000000E+00  0.87491696950E+02  0.87500913911E+02  0.12700000000E+01 0. -1.
          4   -1    0    0  501    0  0.00000000000E+00 -0.00000000000E+00 -0.44626219584E+02  0.44644287141E+02  0.12700000000E+01 0. -1.
         25    2    1    2    0    0  0.00000000000E+00  0.00000000000E+00  0.42865477366E+02  0.13214520105E+03  0.12499962004E+03 0.  0.
    9000005    1    3    3    0    0  0.18551183574E+02  0.38777304997E+02 -0.26518752713E+02  0.50518016987E+02  0.10000000000E+01 0.  0.
    9000005    1    3    3    0    0 -0.18551183574E+02 -0.38777304997E+02  0.69384230080E+02  0.81627184066E+02  0.10000000000E+01 0.  0.
<mgrwt>
<rscale>  0 0.12499962E+03</rscale>
<asrwt>0</asrwt>
<pdfrwt beam="2">  1        4 0.68676711E-02 0.12499962E+03</pdfrwt>
<pdfrwt beam="1">  1       -4 0.13462360E-01 0.12499962E+03</pdfrwt>
<totfact> 0.10298688E+04</totfact>
</mgrwt>
</event>
<event>
 5    1  0.3261711E-002  0.1249945E+03  0.7818608E-02  0.1235078E+00
          4   -1    0    0  501    0  0.00000000000E+00  0.00000000000E+00  0.10692870965E+04  0.10692878507E+04  0.12700000000E+01 0. -1.
         -4   -1    0    0    0  501 -0.00000000000E+00 -0.00000000000E+00 -0.35416452664E+01  0.37624661052E+01  0.12700000000E+01 0. -1.
         25    2    1    2    0    0  0.00000000000E+00  0.00000000000E+00  0.10657454512E+04  0.10730503168E+04  0.12499446211E+03 0.  0.
    9000005    1    3    3    0    0  0.22072654361E+02 -0.49738060777E+02  0.79661244717E+03  0.79846945323E+03  0.10000000000E+01 0.  0.
    9000005    1    3    3    0    0 -0.22072654361E+02  0.49738060777E+02  0.26913300408E+03  0.27458086358E+03  0.10000000000E+01 0.  0.
<mgrwt>
<rscale>  0 0.12499446E+03</rscale>
<asrwt>0</asrwt>
<pdfrwt beam="1">  1        4 0.16452263E+00 0.12499446E+03</pdfrwt>
<pdfrwt beam="2">  1       -4 0.56191316E-03 0.12499446E+03</pdfrwt>
<totfact> 0.28289266E+03</totfact>
</mgrwt>
</event>
<event>
 5    1  0.3261711E-002  0.1250014E+03  0.7818608E-02  0.1235067E+00
          4   -1    0    0  501    0  0.00000000000E+00  0.00000000000E+00  0.67198918073E+02  0.67210917938E+02  0.12700000000E+01 0.  1.
         -4   -1    0    0    0  501 -0.00000000000E+00 -0.00000000000E+00 -0.58106797088E+02  0.58120674185E+02  0.12700000000E+01 0.  1.
         25    2    1    2    0    0  0.00000000000E+00  0.00000000000E+00  0.90921209851E+01  0.12533159212E+03  0.12500136527E+03 0.  0.
    9000005    1    3    3    0    0 -0.62146529712E+02  0.28479289108E+00  0.11125642178E+02  0.63143108699E+02  0.10000000000E+01 0.  0.
    9000005    1    3    3    0    0  0.62146529712E+02 -0.28479289108E+00 -0.20335211928E+01  0.62188483425E+02  0.10000000000E+01 0.  0.
<mgrwt>
<rscale>  0 0.12500137E+03</rscale>
<asrwt>0</asrwt>
<pdfrwt beam="1">  1        4 0.10340286E-01 0.12500137E+03</pdfrwt>
<pdfrwt beam="2">  1       -4 0.89414977E-02 0.12500137E+03</pdfrwt>
<totfact> 0.10445342E+04</totfact>
</mgrwt>
</event>
<event>
 5    1  0.3261711E-002  0.1249972E+03  0.7818608E-02  0.1235074E+00
          4   -1    0    0  501    0  0.00000000000E+00  0.00000000000E+00  0.13925894180E+01  0.18847294997E+01  0.12700000000E+01 0.  1.
         -4   -1    0    0    0  501 -0.00000000000E+00 -0.00000000000E+00 -0.23832105009E+04  0.23832108393E+04  0.12700000000E+01 0.  1.
         25    2    1    2    0    0  0.00000000000E+00  0.00000000000E+00 -0.23818179115E+04  0.23850955688E+04  0.12499723515E+03 0.  0.
    9000005    1    3    3    0    0 -0.51253207395E+02 -0.66221149904E+01 -0.52052804242E+03  0.52308812510E+03  0.10000000000E+01 0.  0.
    9000005    1    3    3    0    0  0.51253207395E+02  0.66221149904E+01 -0.18612898690E+04  0.18620074437E+04  0.10000000000E+01 0.  0.
<mgrwt>
<rscale>  0 0.12499724E+03</rscale>
<asrwt>0</asrwt>
<pdfrwt beam="1">  1        4 0.25212939E-03 0.12499724E+03</pdfrwt>
<pdfrwt beam="2">  1       -4 0.36668288E+00 0.12499724E+03</pdfrwt>
<totfact> 0.56364817E+02</totfact>
</mgrwt>
</event>
<event>
 4    1  0.3261711E-002  0.1247689E+03  0.7818608E-02  0.1235431E+00
          4   -1    0    0  501    0  0.00000000000E+00  0.00000000000E+00  0.32475418454E+02  0.32500241595E+02  0.12700000000E+01 0.  1.
         -4   -1    0    0    0  501 -0.00000000000E+00 -0.00000000000E+00 -0.11976497628E+03  0.11977170970E+03  0.12700000000E+01 0.  1.
    9000005    1    1    2    0    0  0.18630499579E+01  0.52747986882E+02 -0.84213795556E+02  0.99392074318E+02  0.10000000000E+01 0.  0.
    9000005    1    1    2    0    0 -0.18630499579E+01 -0.52747986882E+02 -0.30757622712E+01  0.52879876974E+02  0.10000000000E+01 0.  0.
<mgrwt>
<rscale>  0 0.12476891E+03</rscale>
<asrwt>0</asrwt>
<pdfrwt beam="1">  1        4 0.49986457E-02 0.12476891E+03</pdfrwt>
<pdfrwt beam="2">  1       -4 0.18427808E-01 0.12476891E+03</pdfrwt>
<totfact> 0.99368484E+03</totfact>
</mgrwt>
</event>
<event>
 5    1  0.3261711E-002  0.1249943E+03  0.7818608E-02  0.1235078E+00
          4   -1    0    0  501    0  0.00000000000E+00  0.00000000000E+00  0.79441096799E+01  0.80449846865E+01  0.12700000000E+01 0. -1.
         -4   -1    0    0    0  501 -0.00000000000E+00 -0.00000000000E+00 -0.48846766591E+03  0.48846931688E+03  0.12700000000E+01 0. -1.
         25    2    1    2    0    0  0.00000000000E+00  0.00000000000E+00 -0.48052355623E+03  0.49651430157E+03  0.12499425417E+03 0.  0.
    9000005    1    3    3    0    0  0.62191263249E+02  0.44792591392E+01 -0.25667554133E+03  0.26414229215E+03  0.10000000000E+01 0.  0.
    9000005    1    3    3    0    0 -0.62191263249E+02 -0.44792591392E+01 -0.22384801489E+03  0.23237200941E+03  0.10000000000E+01 0.  0.
<mgrwt>
<rscale>  0 0.12499425E+03</rscale>
<asrwt>0</asrwt>
<pdfrwt beam="1">  1        4 0.12300577E-02 0.12499425E+03</pdfrwt>
<pdfrwt beam="2">  1       -4 0.75156735E-01 0.12499425E+03</pdfrwt>
<totfact> 0.56142935E+03</totfact>
</mgrwt>
</event>
<event>
 5    1  0.3261711E-002  0.1249995E+03  0.7818608E-02  0.1235070E+00
          4   -1    0    0  501    0  0.00000000000E+00  0.00000000000E+00  0.28520259576E+02  0.28548521963E+02  0.12700000000E+01 0.  1.
         -4   -1    0    0    0  501 -0.00000000000E+00 -0.00000000000E+00 -0.13686390257E+03  0.13686979479E+03  0.12700000000E+01 0.  1.
         25    2    1    2    0    0  0.00000000000E+00  0.00000000000E+00 -0.10834364299E+03  0.16541831675E+03  0.12499949816E+03 0.  0.
    9000005    1    3    3    0    0  0.54343835366E+02 -0.13215243243E+02 -0.91067562533E+02  0.10687467447E+03  0.10000000000E+01 0.  0.
    9000005    1    3    3    0    0 -0.54343835366E+02  0.13215243243E+02 -0.17276080457E+02  0.58543642287E+02  0.10000000000E+01 0.  0.
<mgrwt>
<rscale>  0 0.12499950E+03</rscale>
<asrwt>0</asrwt>
<pdfrwt beam="1">  1        4 0.43903596E-02 0.12499950E+03</pdfrwt>
<pdfrwt beam="2">  1       -4 0.21058612E-01 0.12499950E+03</pdfrwt>
<totfact> 0.96309314E+03</totfact>
</mgrwt>
</event>
<event>
 5    1  0.3261711E-002  0.1249980E+03  0.7818608E-02  0.1235072E+00
         -4   -1    0    0    0  501 -0.00000000000E+00  0.00000000000E+00  0.24823359270E+02  0.24855825583E+02  0.12700000000E+01 0.  1.
          4   -1    0    0  501    0  0.00000000000E+00 -0.00000000000E+00 -0.15721889225E+03  0.15722402163E+03  0.12700000000E+01 0.  1.
         25    2    1    2    0    0  0.00000000000E+00  0.00000000000E+00 -0.13239553298E+03  0.18207984722E+03  0.12499797443E+03 0.  0.
    9000005    1    3    3    0    0 -0.56256274076E+02  0.27208868498E+02 -0.66460389492E+02  0.91230884405E+02  0.10000000000E+01 0.  0.
    9000005    1    3    3    0    0  0.56256274076E+02 -0.27208868498E+02 -0.65935143484E+02  0.90848962812E+02  0.10000000000E+01 0.  0.
<mgrwt>
<rscale>  0 0.12499797E+03</rscale>
<asrwt>0</asrwt>
<pdfrwt beam="2">  1        4 0.24190413E-01 0.12499797E+03</pdfrwt>
<pdfrwt beam="1">  1       -4 0.38218704E-02 0.12499797E+03</pdfrwt>
<totfact> 0.93248192E+03</totfact>
</mgrwt>
</event>
<event>
 5    1  0.3261711E-002  0.1249960E+03  0.7818608E-02  0.1235076E+00
         -4   -1    0    0    0  501 -0.00000000000E+00  0.00000000000E+00  0.22153944750E+02  0.22190316987E+02  0.12700000000E+01 0. -1.
          4   -1    0    0  501    0  0.00000000000E+00 -0.00000000000E+00 -0.17612837186E+03  0.17613295056E+03  0.12700000000E+01 0. -1.
         25    2    1    2    0    0  0.00000000000E+00  0.00000000000E+00 -0.15397442711E+03  0.19832326755E+03  0.12499597693E+03 0.  0.
    9000005    1    3    3    0    0  0.40545420460E+02  0.44767499343E+02 -0.51554530501E+02  0.79416180549E+02  0.10000000000E+01 0.  0.
    9000005    1    3    3    0    0 -0.40545420460E+02 -0.44767499343E+02 -0.10241989661E+03  0.11890708700E+03  0.10000000000E+01 0.  0.
<mgrwt>
<rscale>  0 0.12499598E+03</rscale>
<asrwt>0</asrwt>
<pdfrwt beam="2">  1        4 0.27099822E-01 0.12499598E+03</pdfrwt>
<pdfrwt beam="1">  1       -4 0.34114494E-02 0.12499598E+03</pdfrwt>
<totfact> 0.90427065E+03</totfact>
</mgrwt>
</event>
<event>
 5    1  0.3261711E-002  0.1250181E+03  0.7818608E-02  0.1235041E+00
          4   -1    0    0  501    0  0.00000000000E+00  0.00000000000E+00  0.19058662924E+03  0.19059086061E+03  0.12700000000E+01 0. -1.
         -4   -1    0    0    0  501 -0.00000000000E+00 -0.00000000000E+00 -0.20477749151E+02  0.20517093125E+02  0.12700000000E+01 0. -1.
         25    2    1    2    0    0  0.00000000000E+00  0.00000000000E+00  0.17010888009E+03  0.21110795373E+03  0.12501814685E+03 0.  0.
    9000005    1    3    3    0    0 -0.38685960198E+02  0.48620179941E+02  0.96489622611E+02  0.11476834357E+03  0.10000000000E+01 0.  0.
    9000005    1    3    3    0    0  0.38685960198E+02 -0.48620179941E+02  0.73619257482E+02  0.96339610162E+02  0.10000000000E+01 0.  0.
<mgrwt>
<rscale>  0 0.12501815E+03</rscale>
<asrwt>0</asrwt>
<pdfrwt beam="1">  1        4 0.29324372E-01 0.12501815E+03</pdfrwt>
<pdfrwt beam="2">  1       -4 0.31537749E-02 0.12501815E+03</pdfrwt>
<totfact> 0.88259448E+03</totfact>
</mgrwt>
</event>
<event>
 5    1  0.3261711E-002  0.1249962E+03  0.7818608E-02  0.1235075E+00
          4   -1    0    0  501    0  0.00000000000E+00  0.00000000000E+00  0.41219168253E+01  0.43131309178E+01  0.12700000000E+01 0.  1.
         -4   -1    0    0    0  501 -0.00000000000E+00 -0.00000000000E+00 -0.92594735119E+03  0.92594822213E+03  0.12700000000E+01 0.  1.
         25    2    1    2    0    0  0.00000000000E+00  0.00000000000E+00 -0.92182543436E+03  0.93026135305E+03  0.12499621411E+03 0.  0.
    9000005    1    3    3    0    0  0.23717533386E+02  0.43555617079E+02 -0.17796761713E+03  0.18475141655E+03  0.10000000000E+01 0.  0.
    9000005    1    3    3    0    0 -0.23717533386E+02 -0.43555617079E+02 -0.74385781723E+03  0.74550993650E+03  0.10000000000E+01 0.  0.
<mgrwt>
<rscale>  0 0.12499621E+03</rscale>
<asrwt>0</asrwt>
<pdfrwt beam="1">  1        4 0.64891756E-03 0.12499621E+03</pdfrwt>
<pdfrwt beam="2">  1       -4 0.14246805E+00 0.12499621E+03</pdfrwt>
<totfact> 0.33030066E+03</totfact>
</mgrwt>
</event>
<event>
 5    1  0.3261711E-002  0.1250013E+03  0.7818608E-02  0.1235067E+00
          4   -1    0    0  501    0  0.00000000000E+00  0.00000000000E+00  0.40829769640E+02  0.40849516384E+02  0.12700000000E+01 0.  1.
         -4   -1    0    0    0  501 -0.00000000000E+00 -0.00000000000E+00 -0.95626522433E+02  0.95634955391E+02  0.12700000000E+01 0.  1.
         25    2    1    2    0    0  0.00000000000E+00  0.00000000000E+00 -0.54796752794E+02  0.13648447178E+03  0.12500130767E+03 0.  0.
    9000005    1    3    3    0    0  0.45739645310E+02  0.32779010441E+02 -0.57075262559E+02  0.80157122420E+02  0.10000000000E+01 0.  0.
    9000005    1    3    3    0    0 -0.45739645310E+02 -0.32779010441E+02  0.22785097652E+01  0.56327349355E+02  0.10000000000E+01 0.  0.
<mgrwt>
<rscale>  0 0.12500131E+03</rscale>
<asrwt>0</asrwt>
<pdfrwt beam="1">  1        4 0.62836707E-02 0.12500131E+03</pdfrwt>
<pdfrwt beam="2">  1       -4 0.14713940E-01 0.12500131E+03</pdfrwt>
<totfact> 0.10206575E+04</totfact>
</mgrwt>
</event>
<event>
 5    1  0.3261711E-002  0.1249994E+03  0.7818608E-02  0.1235070E+00
         -4   -1    0    0    0  501 -0.00000000000E+00  0.00000000000E+00  0.34824758506E+03  0.34824990079E+03  0.12700000000E+01 0.  1.
          4   -1    0    0  501    0  0.00000000000E+00 -0.00000000000E+00 -0.11178456946E+02  0.11250368870E+02  0.12700000000E+01 0.  1.
         25    2    1    2    0    0  0.00000000000E+00  0.00000000000E+00  0.33706912812E+03  0.35950026966E+03  0.12499938703E+03 0.  0.
    9000005    1    3    3    0    0  0.34496294374E+02 -0.11338121315E+02  0.31480662399E+03  0.31689549985E+03  0.10000000000E+01 0.  0.
    9000005    1    3    3    0    0 -0.34496294374E+02  0.11338121315E+02  0.22262504131E+02  0.42604769812E+02  0.10000000000E+01 0.  0.
<mgrwt>
<rscale>  0 0.12499939E+03</rscale>
<asrwt>0</asrwt>
<pdfrwt beam="2">  1        4 0.17254727E-02 0.12499939E+03</pdfrwt>
<pdfrwt beam="1">  1       -4 0.53582253E-01 0.12499939E+03</pdfrwt>
<totfact> 0.68692836E+03</totfact>
</mgrwt>
</event>
<event>
 5    1  0.3261711E-002  0.1249957E+03  0.7818608E-02  0.1235076E+00
          4   -1    0    0  501    0  0.00000000000E+00  0.00000000000E+00  0.41047385077E+02  0.41067027183E+02  0.12700000000E+01 0. -1.
         -4   -1    0    0    0  501 -0.00000000000E+00 -0.00000000000E+00 -0.95111264889E+02  0.95119743528E+02  0.12700000000E+01 0. -1.
         25    2    1    2    0    0  0.00000000000E+00  0.00000000000E+00 -0.54063879812E+02  0.13618677071E+03  0.12499573359E+03 0.  0.
    9000005    1    3    3    0    0  0.41069019344E+02  0.36786672080E+02 -0.59077125246E+02  0.80814790230E+02  0.10000000000E+01 0.  0.
    9000005    1    3    3    0    0 -0.41069019344E+02 -0.36786672080E+02  0.50132454342E+01  0.55371980481E+02  0.10000000000E+01 0.  0.
<mgrwt>
<rscale>  0 0.12499573E+03</rscale>
<asrwt>0</asrwt>
<pdfrwt beam="1">  1        4 0.63171455E-02 0.12499573E+03</pdfrwt>
<pdfrwt beam="2">  1       -4 0.14634665E-01 0.12499573E+03</pdfrwt>
<totfact> 0.10214100E+04</totfact>
</mgrwt>
</event>
<event>
 5    1  0.3261711E-002  0.1249826E+03  0.7818608E-02  0.1235097E+00
          4   -1    0    0  501    0  0.00000000000E+00  0.00000000000E+00  0.47378516570E+03  0.47378686784E+03  0.12700000000E+01 0. -1.
         -4   -1    0    0    0  501 -0.00000000000E+00 -0.00000000000E+00 -0.81918233299E+01  0.82896845217E+01  0.12700000000E+01 0. -1.
         25    2    1    2    0    0  0.00000000000E+00  0.00000000000E+00  0.46559334237E+03  0.48207655237E+03  0.12498256629E+03 0.  0.
    9000005    1    3    3    0    0 -0.54661241260E+02  0.30173105468E+02  0.24216000184E+03  0.25008145489E+03  0.10000000000E+01 0.  0.
    9000005    1    3    3    0    0  0.54661241260E+02 -0.30173105468E+02  0.22343334054E+03  0.23199509748E+03  0.10000000000E+01 0.  0.
<mgrwt>
<rscale>  0 0.12498257E+03</rscale>
<asrwt>0</asrwt>
<pdfrwt beam="1">  1        4 0.72897695E-01 0.12498257E+03</pdfrwt>
<pdfrwt beam="2">  1       -4 0.12679390E-02 0.12498257E+03</pdfrwt>
<totfact> 0.57304295E+03</totfact>
</mgrwt>
</event>
<event>
 5    1  0.3261711E-002  0.1250075E+03  0.7818608E-02  0.1235058E+00
          4   -1    0    0  501    0  0.00000000000E+00  0.00000000000E+00  0.43624426277E+02  0.43642908565E+02  0.12700000000E+01 0. -1.
         -4   -1    0    0    0  501 -0.00000000000E+00 -0.00000000000E+00 -0.89511554498E+02  0.89520563496E+02  0.12700000000E+01 0. -1.
         25    2    1    2    0    0  0.00000000000E+00  0.00000000000E+00 -0.45887128221E+02  0.13316347206E+03  0.12500752679E+03 0.  0.
    9000005    1    3    3    0    0 -0.70627868235E+01  0.62092038808E+02 -0.22256339422E+02  0.66344923585E+02  0.10000000000E+01 0.  0.
    9000005    1    3    3    0    0  0.70627868235E+01 -0.62092038808E+02 -0.23630788799E+02  0.66818548475E+02  0.10000000000E+01 0.  0.
<mgrwt>
<rscale>  0 0.12500753E+03</rscale>
<asrwt>0</asrwt>
<pdfrwt beam="1">  1        4 0.67135649E-02 0.12500753E+03</pdfrwt>
<pdfrwt beam="2">  1       -4 0.13773123E-01 0.12500753E+03</pdfrwt>
<totfact> 0.10275182E+04</totfact>
</mgrwt>
</event>
<event>
 5    1  0.3261711E-002  0.1250059E+03  0.7818608E-02  0.1235060E+00
          4   -1    0    0  501    0  0.00000000000E+00  0.00000000000E+00  0.21910481985E+02  0.21947257706E+02  0.12700000000E+01 0.  1.
         -4   -1    0    0    0  501 -0.00000000000E+00 -0.00000000000E+00 -0.17811043446E+03  0.17811496221E+03  0.12700000000E+01 0.  1.
         25    2    1    2    0    0  0.00000000000E+00  0.00000000000E+00 -0.15619995247E+03  0.20006221992E+03  0.12500586660E+03 0.  0.
    9000005    1    3    3    0    0  0.55234829336E+02  0.29005377394E+02 -0.72237450543E+02  0.95453902751E+02  0.10000000000E+01 0.  0.
    9000005    1    3    3    0    0 -0.55234829336E+02 -0.29005377394E+02 -0.83962501932E+02  0.10460831717E+03  0.10000000000E+01 0.  0.
<mgrwt>
<rscale>  0 0.12500587E+03</rscale>
<asrwt>0</asrwt>
<pdfrwt beam="1">  1        4 0.33740207E-02 0.12500587E+03</pdfrwt>
<pdfrwt beam="2">  1       -4 0.27404782E-01 0.12500587E+03</pdfrwt>
<totfact> 0.90113183E+03</totfact>
</mgrwt>
</event>
<event>
 5    1  0.3261711E-002  0.1250024E+03  0.7818608E-02  0.1235066E+00
         -4   -1    0    0    0  501 -0.00000000000E+00  0.00000000000E+00  0.22222152366E+02  0.22258413146E+02  0.12700000000E+01 0. -1.
          4   -1    0    0  501    0  0.00000000000E+00 -0.00000000000E+00 -0.17560670715E+03  0.17561129946E+03  0.12700000000E+01 0. -1.
         25    2    1    2    0    0  0.00000000000E+00  0.00000000000E+00 -0.15338455479E+03  0.19786971260E+03  0.12500240605E+03 0.  0.
    9000005    1    3    3    0    0 -0.60378629102E+02 -0.16117827448E+02 -0.76387114040E+02  0.98698299911E+02  0.10000000000E+01 0.  0.
    9000005    1    3    3    0    0  0.60378629102E+02  0.16117827448E+02 -0.76997440746E+02  0.99171412692E+02  0.10000000000E+01 0.  0.
<mgrwt>
<rscale>  0 0.12500241E+03</rscale>
<asrwt>0</asrwt>
<pdfrwt beam="2">  1        4 0.27019558E-01 0.12500241E+03</pdfrwt>
<pdfrwt beam="1">  1       -4 0.34219353E-02 0.12500241E+03</pdfrwt>
<totfact> 0.90490881E+03</totfact>
</mgrwt>
</event>
<event>
 5    1  0.3261711E-002  0.1250002E+03  0.7818608E-02  0.1235069E+00
          4   -1    0    0  501    0  0.00000000000E+00  0.00000000000E+00  0.29881445178E+03  0.29881715060E+03  0.12700000000E+01 0. -1.
         -4   -1    0    0    0  501 -0.00000000000E+00 -0.00000000000E+00 -0.13038915694E+02  0.13100619164E+02  0.12700000000E+01 0. -1.
         25    2    1    2    0    0  0.00000000000E+00  0.00000000000E+00  0.28577553609E+03  0.31191776977E+03  0.12500015228E+03 0.  0.
    9000005    1    3    3    0    0 -0.17641633739E+02 -0.59092635650E+02  0.11767463041E+03  0.13285889308E+03  0.10000000000E+01 0.  0.
    9000005    1    3    3    0    0  0.17641633739E+02  0.59092635650E+02  0.16810090568E+03  0.17905887668E+03  0.10000000000E+01 0.  0.
<mgrwt>
<rscale>  0 0.12500015E+03</rscale>
<asrwt>0</asrwt>
<pdfrwt beam="1">  1        4 0.45976408E-01 0.12500015E+03</pdfrwt>
<pdfrwt beam="2">  1       -4 0.20109410E-02 0.12500015E+03</pdfrwt>
<totfact> 0.74127555E+03</totfact>
</mgrwt>
</event>
<event>
 5    1  0.3261711E-002  0.1249796E+03  0.7818608E-02  0.1235101E+00
         -4   -1    0    0    0  501 -0.00000000000E+00  0.00000000000E+00  0.26991536991E+02  0.27021398357E+02  0.12700000000E+01 0.  1.
          4   -1    0    0  501    0  0.00000000000E+00 -0.00000000000E+00 -0.14456150302E+03  0.14456708151E+03  0.12700000000E+01 0.  1.
         25    2    1    2    0    0  0.00000000000E+00  0.00000000000E+00 -0.11756996603E+03  0.17158847986E+03  0.12497963638E+03 0.  0.
    9000005    1    3    3    0    0 -0.36499022914E+02 -0.44548717198E+02 -0.25515521145E+02  0.62998481704E+02  0.10000000000E+01 0.  0.
    9000005    1    3    3    0    0  0.36499022914E+02  0.44548717198E+02 -0.92054444884E+02  0.10858999816E+03  0.10000000000E+01 0.  0.
<mgrwt>
<rscale>  0 0.12497964E+03</rscale>
<asrwt>0</asrwt>
<pdfrwt beam="2">  1        4 0.22242957E-01 0.12497964E+03</pdfrwt>
<pdfrwt beam="1">  1       -4 0.41552704E-02 0.12497964E+03</pdfrwt>
<totfact> 0.95196889E+03</totfact>
</mgrwt>
</event>
<event>
 5    1  0.3261711E-002  0.1250038E+03  0.7818608E-02  0.1235063E+00
         -4   -1    0    0    0  501 -0.00000000000E+00  0.00000000000E+00  0.12778889114E+02  0.12841842040E+02  0.12700000000E+01 0.  1.
          4   -1    0    0  501    0  0.00000000000E+00 -0.00000000000E+00 -0.30488288700E+03  0.30488553211E+03  0.12700000000E+01 0.  1.
         25    2    1    2    0    0  0.00000000000E+00  0.00000000000E+00 -0.29210399789E+03  0.31772737415E+03  0.12500375474E+03 0.  0.
    9000005    1    3    3    0    0  0.22269849018E+02 -0.15313612088E+01  0.23124918602E+01  0.22464168380E+02  0.10000000000E+01 0.  0.
    9000005    1    3    3    0    0 -0.22269849018E+02  0.15313612088E+01 -0.29441648975E+03  0.29526320577E+03  0.10000000000E+01 0.  0.
<mgrwt>
<rscale>  0 0.12500375E+03</rscale>
<asrwt>0</asrwt>
<pdfrwt beam="2">  1        4 0.46910100E-01 0.12500375E+03</pdfrwt>
<pdfrwt beam="1">  1       -4 0.19710292E-02 0.12500375E+03</pdfrwt>
<totfact> 0.73421132E+03</totfact>
</mgrwt>
</event>
<event>
 5    1  0.3261711E-002  0.1250081E+03  0.7818608E-02  0.1235057E+00
          4   -1    0    0  501    0  0.00000000000E+00  0.00000000000E+00  0.14182493445E+02  0.14239242267E+02  0.12700000000E+01 0.  1.
         -4   -1    0    0    0  501 -0.00000000000E+00 -0.00000000000E+00 -0.27485492626E+03  0.27485786034E+03  0.12700000000E+01 0.  1.
         25    2    1    2    0    0  0.00000000000E+00  0.00000000000E+00 -0.26067243282E+03  0.28909710261E+03  0.12500806976E+03 0.  0.
    9000005    1    3    3    0    0  0.10768493960E+02 -0.60352325684E+02 -0.10225986119E+03  0.11923272574E+03  0.10000000000E+01 0.  0.
    9000005    1    3    3    0    0 -0.10768493960E+02  0.60352325684E+02 -0.15841257163E+03  0.16986437687E+03  0.10000000000E+01 0.  0.
<mgrwt>
<rscale>  0 0.12500807E+03</rscale>
<asrwt>0</asrwt>
<pdfrwt beam="1">  1        4 0.21865133E-02 0.12500807E+03</pdfrwt>
<pdfrwt beam="2">  1       -4 0.42289960E-01 0.12500807E+03</pdfrwt>
<totfact> 0.76973355E+03</totfact>
</mgrwt>
</event>
<event>
 5    1  0.3261711E-002  0.1250056E+03  0.7818608E-02  0.1235061E+00
          4   -1    0    0  501    0  0.00000000000E+00  0.00000000000E+00  0.57595576727E+03  0.57595716746E+03  0.12700000000E+01 0. -1.
         -4   -1    0    0    0  501 -0.00000000000E+00 -0.00000000000E+00 -0.67219398669E+01  0.68408607334E+01  0.12700000000E+01 0. -1.
         25    2    1    2    0    0  0.00000000000E+00  0.00000000000E+00  0.56923382740E+03  0.58279802820E+03  0.12500556551E+03 0.  0.
    9000005    1    3    3    0    0 -0.51276626421E+02  0.35657362955E+02  0.27434117358E+03  0.28136243437E+03  0.10000000000E+01 0.  0.
    9000005    1    3    3    0    0  0.51276626421E+02 -0.35657362955E+02  0.29489265382E+03  0.30143559383E+03  0.10000000000E+01 0.  0.
<mgrwt>
<rscale>  0 0.12500557E+03</rscale>
<asrwt>0</asrwt>
<pdfrwt beam="1">  1        4 0.88617827E-01 0.12500557E+03</pdfrwt>
<pdfrwt beam="2">  1       -4 0.10434002E-02 0.12500557E+03</pdfrwt>
<totfact> 0.49965671E+03</totfact>
</mgrwt>
</event>
<event>
 5    1  0.3261711E-002  0.1250015E+03  0.7818608E-02  0.1235067E+00
          4   -1    0    0  501    0  0.00000000000E+00  0.00000000000E+00  0.19294339901E+02  0.19336091958E+02  0.12700000000E+01 0. -1.
         -4   -1    0    0    0  501 -0.00000000000E+00 -0.00000000000E+00 -0.20219807184E+03  0.20220206022E+03  0.12700000000E+01 0. -1.
         25    2    1    2    0    0  0.00000000000E+00  0.00000000000E+00 -0.18290373194E+03  0.22153815217E+03  0.12500151084E+03 0.  0.
    9000005    1    3    3    0    0  0.37867966230E+02 -0.59194685405E+01 -0.39735202544E+01  0.38546229873E+02  0.10000000000E+01 0.  0.
    9000005    1    3    3    0    0 -0.37867966230E+02  0.59194685405E+01 -0.17893021168E+03  0.18299192230E+03  0.10000000000E+01 0.  0.
<mgrwt>
<rscale>  0 0.12500151E+03</rscale>
<asrwt>0</asrwt>
<pdfrwt beam="1">  1        4 0.29718786E-02 0.12500151E+03</pdfrwt>
<pdfrwt beam="2">  1       -4 0.31110913E-01 0.12500151E+03</pdfrwt>
<totfact> 0.86622619E+03</totfact>
</mgrwt>
</event>
<event>
 5    1  0.3261711E-002  0.1249982E+03  0.7818608E-02  0.1235072E+00
         -4   -1    0    0    0  501 -0.00000000000E+00  0.00000000000E+00  0.21417487586E+02  0.21455108354E+02  0.12700000000E+01 0.  1.
          4   -1    0    0  501    0  0.00000000000E+00 -0.00000000000E+00 -0.18218092491E+03  0.18218535150E+03  0.12700000000E+01 0.  1.
         25    2    1    2    0    0  0.00000000000E+00  0.00000000000E+00 -0.16076343732E+03  0.20364045985E+03  0.12499821642E+03 0.  0.
    9000005    1    3    3    0    0 -0.38425936300E+02 -0.37228177093E+02 -0.13298699084E+03  0.14334932676E+03  0.10000000000E+01 0.  0.
    9000005    1    3    3    0    0  0.38425936300E+02  0.37228177093E+02 -0.27776446481E+02  0.60291133090E+02  0.10000000000E+01 0.  0.
<mgrwt>
<rscale>  0 0.12499822E+03</rscale>
<asrwt>0</asrwt>
<pdfrwt beam="2">  1        4 0.28031068E-01 0.12499822E+03</pdfrwt>
<pdfrwt beam="1">  1       -4 0.32982326E-02 0.12499822E+03</pdfrwt>
<totfact> 0.89528697E+03</totfact>
</mgrwt>
</event>
<event>
 5    1  0.3261711E-002  0.1249946E+03  0.7818608E-02  0.1235078E+00
         -4   -1    0    0    0  501 -0.00000000000E+00  0.00000000000E+00  0.18134021200E+02  0.18178438461E+02  0.12700000000E+01 0.  1.
          4   -1    0    0  501    0  0.00000000000E+00 -0.00000000000E+00 -0.21508181158E+03  0.21508556106E+03  0.12700000000E+01 0.  1.
         25    2    1    2    0    0  0.00000000000E+00  0.00000000000E+00 -0.19694779038E+03  0.23326399952E+03  0.12499464522E+03 0.  0.
    9000005    1    3    3    0    0 -0.25518621991E+02 -0.54729909934E+02 -0.12846983072E+03  0.14195795334E+03  0.10000000000E+01 0.  0.
    9000005    1    3    3    0    0  0.25518621991E+02  0.54729909934E+02 -0.68477959663E+02  0.91306046182E+02  0.10000000000E+01 0.  0.
<mgrwt>
<rscale>  0 0.12499465E+03</rscale>
<asrwt>0</asrwt>
<pdfrwt beam="2">  1        4 0.33093213E-01 0.12499465E+03</pdfrwt>
<pdfrwt beam="1">  1       -4 0.27935547E-02 0.12499465E+03</pdfrwt>
<totfact> 0.84821045E+03</totfact>
</mgrwt>
</event>
<event>
 5    1  0.3261711E-002  0.1249978E+03  0.7818608E-02  0.1235073E+00
         -4   -1    0    0    0  501 -0.00000000000E+00  0.00000000000E+00  0.14680166007E+03  0.14680715343E+03  0.12700000000E+01 0. -1.
          4   -1    0    0  501    0  0.00000000000E+00 -0.00000000000E+00 -0.26586948139E+02  0.26617263408E+02  0.12700000000E+01 0. -1.
         25    2    1    2    0    0  0.00000000000E+00  0.00000000000E+00  0.12021471193E+03  0.17342441684E+03  0.12499780555E+03 0.  0.
    9000005    1    3    3    0    0 -0.41907786810E+02 -0.32614420654E+02  0.10581119749E+03  0.11839329603E+03  0.10000000000E+01 0.  0.
    9000005    1    3    3    0    0  0.41907786810E+02  0.32614420654E+02  0.14403514442E+02  0.55031120816E+02  0.10000000000E+01 0.  0.
<mgrwt>
<rscale>  0 0.12499781E+03</rscale>
<asrwt>0</asrwt>
<pdfrwt beam="2">  1        4 0.40930542E-02 0.12499781E+03</pdfrwt>
<pdfrwt beam="1">  1       -4 0.22587625E-01 0.12499781E+03</pdfrwt>
<totfact> 0.94818868E+03</totfact>
</mgrwt>
</event>
<event>
 5    1  0.3261711E-002  0.1250022E+03  0.7818608E-02  0.1235066E+00
          4   -1    0    0  501    0  0.00000000000E+00  0.00000000000E+00  0.16738629056E+03  0.16739110839E+03  0.12700000000E+01 0. -1.
         -4   -1    0    0    0  501 -0.00000000000E+00 -0.00000000000E+00 -0.23315135023E+02  0.23349698523E+02  0.12700000000E+01 0. -1.
         25    2    1    2    0    0  0.00000000000E+00  0.00000000000E+00  0.14407115553E+03  0.19074080691E+03  0.12500223023E+03 0.  0.
    9000005    1    3    3    0    0  0.31819191772E+02  0.52331774442E+02  0.90990772495E+02  0.10968772156E+03  0.10000000000E+01 0.  0.
    9000005    1    3    3    0    0 -0.31819191772E+02 -0.52331774442E+02  0.53080383040E+02  0.81053085351E+02  0.10000000000E+01 0.  0.
<mgrwt>
<rscale>  0 0.12500223E+03</rscale>
<asrwt>0</asrwt>
<pdfrwt beam="1">  1        4 0.25754766E-01 0.12500223E+03</pdfrwt>
<pdfrwt beam="2">  1       -4 0.35899732E-02 0.12500223E+03</pdfrwt>
<totfact> 0.91713995E+03</totfact>
</mgrwt>
</event>
<event>
 5    1  0.3261711E-002  0.1249969E+03  0.7818608E-02  0.1235074E+00
          4   -1    0    0  501    0  0.00000000000E+00  0.00000000000E+00  0.15089419878E+03  0.15089954316E+03  0.12700000000E+01 0.  1.
         -4   -1    0    0    0  501 -0.00000000000E+00 -0.00000000000E+00 -0.25864667629E+02  0.25895828459E+02  0.12700000000E+01 0.  1.
         25    2    1    2    0    0  0.00000000000E+00  0.00000000000E+00  0.12502953115E+03  0.17679537162E+03  0.12499687903E+03 0.  0.
    9000005    1    3    3    0    0 -0.40982285483E+02  0.33136530159E+02  0.11000733656E+03  0.12198439020E+03  0.10000000000E+01 0.  0.
    9000005    1    3    3    0    0  0.40982285483E+02 -0.33136530159E+02  0.15022194593E+02  0.54810981425E+02  0.10000000000E+01 0.  0.
<mgrwt>
<rscale>  0 0.12499688E+03</rscale>
<asrwt>0</asrwt>
<pdfrwt beam="1">  1        4 0.23217300E-01 0.12499688E+03</pdfrwt>
<pdfrwt beam="2">  1       -4 0.39819878E-02 0.12499688E+03</pdfrwt>
<totfact> 0.94203642E+03</totfact>
</mgrwt>
</event>
<event>
 5    1  0.3261711E-002  0.1249972E+03  0.7818608E-02  0.1235074E+00
          4   -1    0    0  501    0  0.00000000000E+00  0.00000000000E+00  0.44917775080E+02  0.44935725410E+02  0.12700000000E+01 0.  1.
         -4   -1    0    0    0  501 -0.00000000000E+00 -0.00000000000E+00 -0.86920669814E+02  0.86929947319E+02  0.12700000000E+01 0.  1.
         25    2    1    2    0    0  0.00000000000E+00  0.00000000000E+00 -0.42002894734E+02  0.13186567273E+03  0.12499724988E+03 0.  0.
    9000005    1    3    3    0    0  0.19443316830E+02 -0.24922132424E+02 -0.77870152253E+02  0.84047105041E+02  0.10000000000E+01 0.  0.
    9000005    1    3    3    0    0 -0.19443316830E+02  0.24922132424E+02  0.35867257518E+02  0.47818567689E+02  0.10000000000E+01 0.  0.
<mgrwt>
<rscale>  0 0.12499725E+03</rscale>
<asrwt>0</asrwt>
<pdfrwt beam="1">  1        4 0.69125214E-02 0.12499725E+03</pdfrwt>
<pdfrwt beam="2">  1       -4 0.13374505E-01 0.12499725E+03</pdfrwt>
<totfact> 0.10305206E+04</totfact>
</mgrwt>
</event>
<event>
 5    1  0.3261711E-002  0.1249913E+03  0.7818608E-02  0.1235083E+00
          4   -1    0    0  501    0  0.00000000000E+00  0.00000000000E+00  0.14816095227E+03  0.14816639524E+03  0.12700000000E+01 0.  1.
         -4   -1    0    0    0  501 -0.00000000000E+00 -0.00000000000E+00 -0.26340019124E+02  0.26370618260E+02  0.12700000000E+01 0.  1.
         25    2    1    2    0    0  0.00000000000E+00  0.00000000000E+00  0.12182093315E+03  0.17453701350E+03  0.12499131701E+03 0.  0.
    9000005    1    3    3    0    0  0.33517422137E+02  0.49152735525E+02  0.87599419958E+02  0.10589649368E+03  0.10000000000E+01 0.  0.
    9000005    1    3    3    0    0 -0.33517422137E+02 -0.49152735525E+02  0.34221513188E+02  0.68640519820E+02  0.10000000000E+01 0.  0.
<mgrwt>
<rscale>  0 0.12499132E+03</rscale>
<asrwt>0</asrwt>
<pdfrwt beam="1">  1        4 0.22796766E-01 0.12499132E+03</pdfrwt>
<pdfrwt beam="2">  1       -4 0.40550830E-02 0.12499132E+03</pdfrwt>
<totfact> 0.94628135E+03</totfact>
</mgrwt>
</event>
<event>
 5    1  0.3261711E-002  0.1250008E+03  0.7818608E-02  0.1235068E+00
         -4   -1    0    0    0  501 -0.00000000000E+00  0.00000000000E+00  0.27874172334E+02  0.27903089135E+02  0.12700000000E+01 0.  1.
          4   -1    0    0  501    0  0.00000000000E+00 -0.00000000000E+00 -0.14003605227E+03  0.14004181103E+03  0.12700000000E+01 0.  1.
         25    2    1    2    0    0  0.00000000000E+00  0.00000000000E+00 -0.11216187994E+03  0.16794490016E+03  0.12500080871E+03 0.  0.
    9000005    1    3    3    0    0  0.21856842121E+02  0.56883995770E+02 -0.74687539175E+02  0.96398853884E+02  0.10000000000E+01 0.  0.
    9000005    1    3    3    0    0 -0.21856842121E+02 -0.56883995770E+02 -0.37474340761E+02  0.71546046276E+02  0.10000000000E+01 0.  0.
<mgrwt>
<rscale>  0 0.12500081E+03</rscale>
<asrwt>0</asrwt>
<pdfrwt beam="2">  1        4 0.21546675E-01 0.12500081E+03</pdfrwt>
<pdfrwt beam="1">  1       -4 0.42910016E-02 0.12500081E+03</pdfrwt>
<totfact> 0.95830823E+03</totfact>
</mgrwt>
</event>
<event>
 5    1  0.3261711E-002  0.1250104E+03  0.7818608E-02  0.1235053E+00
          4   -1    0    0  501    0  0.00000000000E+00  0.00000000000E+00  0.12789837430E+02  0.12852736732E+02  0.12700000000E+01 0.  1.
         -4   -1    0    0    0  501 -0.00000000000E+00 -0.00000000000E+00 -0.30465541885E+03  0.30465806592E+03  0.12700000000E+01 0.  1.
         25    2    1    2    0    0  0.00000000000E+00  0.00000000000E+00 -0.29186558142E+03  0.31751080266E+03  0.12501036832E+03 0.  0.
    9000005    1    3    3    0    0 -0.39951049831E+01 -0.38484504126E+02 -0.21274816399E+02  0.44166002020E+02  0.10000000000E+01 0.  0.
    9000005    1    3    3    0    0  0.39951049831E+01  0.38484504126E+02 -0.27059076502E+03  0.27334480063E+03  0.10000000000E+01 0.  0.
<mgrwt>
<rscale>  0 0.12501037E+03</rscale>
<asrwt>0</asrwt>
<pdfrwt beam="1">  1        4 0.19727096E-02 0.12501037E+03</pdfrwt>
<pdfrwt beam="2">  1       -4 0.46875101E-01 0.12501037E+03</pdfrwt>
<totfact> 0.73436283E+03</totfact>
</mgrwt>
</event>
<event>
 5    1  0.3261711E-002  0.1249909E+03  0.7818608E-02  0.1235084E+00
          4   -1    0    0  501    0  0.00000000000E+00  0.00000000000E+00  0.95421058272E+02  0.95429509387E+02  0.12700000000E+01 0.  1.
         -4   -1    0    0    0  501 -0.00000000000E+00 -0.00000000000E+00 -0.40910891168E+02  0.40930598776E+02  0.12700000000E+01 0.  1.
         25    2    1    2    0    0  0.00000000000E+00  0.00000000000E+00  0.54510167105E+02  0.13636010816E+03  0.12499088279E+03 0.  0.
    9000005    1    3    3    0    0 -0.32730978413E+02  0.27045527365E+02 -0.22761647641E+02  0.48185787340E+02  0.10000000000E+01 0.  0.
    9000005    1    3    3    0    0  0.32730978413E+02 -0.27045527365E+02  0.77271814746E+02  0.88174320822E+02  0.10000000000E+01 0.  0.
<mgrwt>
<rscale>  0 0.12499088E+03</rscale>
<asrwt>0</asrwt>
<pdfrwt beam="1">  1        4 0.14682329E-01 0.12499088E+03</pdfrwt>
<pdfrwt beam="2">  1       -4 0.62961494E-02 0.12499088E+03</pdfrwt>
<totfact> 0.10211581E+04</totfact>
</mgrwt>
</event>
<event>
 5    1  0.3261711E-002  0.1250436E+03  0.7818608E-02  0.1235001E+00
          4   -1    0    0  501    0  0.00000000000E+00  0.00000000000E+00  0.20971065645E+03  0.20971450195E+03  0.12700000000E+01 0. -1.
         -4   -1    0    0    0  501 -0.00000000000E+00 -0.00000000000E+00 -0.18614186089E+02  0.18657460270E+02  0.12700000000E+01 0. -1.
         25    2    1    2    0    0  0.00000000000E+00  0.00000000000E+00  0.19109647036E+03  0.22837196222E+03  0.12504356099E+03 0.  0.
    9000005    1    3    3    0    0 -0.12561184349E+02  0.48600797451E+02  0.27502644441E+02  0.57246976482E+02  0.10000000000E+01 0.  0.
    9000005    1    3    3    0    0  0.12561184349E+02 -0.48600797451E+02  0.16359382592E+03  0.17112498574E+03  0.10000000000E+01 0.  0.
<mgrwt>
<rscale>  0 0.12504356E+03</rscale>
<asrwt>0</asrwt>
<pdfrwt beam="1">  1        4 0.32266801E-01 0.12504356E+03</pdfrwt>
<pdfrwt beam="2">  1       -4 0.28673456E-02 0.12504356E+03</pdfrwt>
<totfact> 0.85477097E+03</totfact>
</mgrwt>
</event>
<event>
 5    1  0.3261711E-002  0.1249969E+03  0.7818608E-02  0.1235074E+00
          4   -1    0    0  501    0  0.00000000000E+00  0.00000000000E+00  0.70720231177E+01  0.71851521192E+01  0.12700000000E+01 0. -1.
         -4   -1    0    0    0  501 -0.00000000000E+00 -0.00000000000E+00 -0.54782896269E+03  0.54783043477E+03  0.12700000000E+01 0. -1.
         25    2    1    2    0    0  0.00000000000E+00  0.00000000000E+00 -0.54075693957E+03  0.55501558689E+03  0.12499693595E+03 0.  0.
    9000005    1    3    3    0    0  0.40299738369E+02 -0.26966610842E+00 -0.48243934083E+03  0.48412070728E+03  0.10000000000E+01 0.  0.
    9000005    1    3    3    0    0 -0.40299738369E+02  0.26966610842E+00 -0.58317598737E+02  0.70894879610E+02  0.10000000000E+01 0.  0.
<mgrwt>
<rscale>  0 0.12499694E+03</rscale>
<asrwt>0</asrwt>
<pdfrwt beam="1">  1        4 0.10968195E-02 0.12499694E+03</pdfrwt>
<pdfrwt beam="2">  1       -4 0.84290161E-01 0.12499694E+03</pdfrwt>
<totfact> 0.51839620E+03</totfact>
</mgrwt>
</event>
<event>
 5    1  0.3261711E-002  0.1249990E+03  0.7818608E-02  0.1235071E+00
          4   -1    0    0  501    0  0.00000000000E+00  0.00000000000E+00  0.40122820269E+02  0.40142914771E+02  0.12700000000E+01 0. -1.
         -4   -1    0    0    0  501 -0.00000000000E+00 -0.00000000000E+00 -0.97307088206E+02  0.97315375533E+02  0.12700000000E+01 0. -1.
         25    2    1    2    0    0  0.00000000000E+00  0.00000000000E+00 -0.57184267937E+02  0.13745829030E+03  0.12499896429E+03 0.  0.
    9000005    1    3    3    0    0  0.52889527494E+02  0.24555918842E+02 -0.38826936947E+01  0.58449726937E+02  0.10000000000E+01 0.  0.
    9000005    1    3    3    0    0 -0.52889527494E+02 -0.24555918842E+02 -0.53301574243E+02  0.79008563368E+02  0.10000000000E+01 0.  0.
<mgrwt>
<rscale>  0 0.12499896E+03</rscale>
<asrwt>0</asrwt>
<pdfrwt beam="1">  1        4 0.61749248E-02 0.12499896E+03</pdfrwt>
<pdfrwt beam="2">  1       -4 0.14972504E-01 0.12499896E+03</pdfrwt>
<totfact> 0.10186750E+04</totfact>
</mgrwt>
</event>
<event>
 5    1  0.3261711E-002  0.1249883E+03  0.7818608E-02  0.1235088E+00
          4   -1    0    0  501    0  0.00000000000E+00  0.00000000000E+00  0.40870909906E+02  0.40890636783E+02  0.12700000000E+01 0.  1.
         -4   -1    0    0    0  501 -0.00000000000E+00 -0.00000000000E+00 -0.95510469705E+02  0.95518912909E+02  0.12700000000E+01 0.  1.
         25    2    1    2    0    0  0.00000000000E+00  0.00000000000E+00 -0.54639559800E+02  0.13640954969E+03  0.12498833446E+03 0.  0.
    9000005    1    3    3    0    0  0.16286126172E+02 -0.51117265784E+02  0.76436626786E+01  0.54199984742E+02  0.10000000000E+01 0.  0.
    9000005    1    3    3    0    0 -0.16286126172E+02  0.51117265784E+02 -0.62283222478E+02  0.82209564950E+02  0.10000000000E+01 0.  0.
<mgrwt>
<rscale>  0 0.12498833E+03</rscale>
<asrwt>0</asrwt>
<pdfrwt beam="1">  1        4 0.62899992E-02 0.12498833E+03</pdfrwt>
<pdfrwt beam="2">  1       -4 0.14696085E-01 0.12498833E+03</pdfrwt>
<totfact> 0.10211132E+04</totfact>
</mgrwt>
</event>
<event>
 5    1  0.3261711E-002  0.1249937E+03  0.7818608E-02  0.1235079E+00
         -4   -1    0    0    0  501 -0.00000000000E+00  0.00000000000E+00  0.99272061128E+02  0.99280184431E+02  0.12700000000E+01 0.  1.
          4   -1    0    0  501    0  0.00000000000E+00 -0.00000000000E+00 -0.39325014084E+02  0.39345516043E+02  0.12700000000E+01 0.  1.
         25    2    1    2    0    0  0.00000000000E+00  0.00000000000E+00  0.59947047044E+02  0.13862570047E+03  0.12499374537E+03 0.  0.
    9000005    1    3    3    0    0 -0.44127928166E+02  0.36019177739E+02  0.58470219578E+02  0.81635909910E+02  0.10000000000E+01 0.  0.
    9000005    1    3    3    0    0  0.44127928166E+02 -0.36019177739E+02  0.14768274655E+01  0.56989790565E+02  0.10000000000E+01 0.  0.
<mgrwt>
<rscale>  0 0.12499375E+03</rscale>
<asrwt>0</asrwt>
<pdfrwt beam="2">  1        4 0.60522042E-02 0.12499375E+03</pdfrwt>
<pdfrwt beam="1">  1       -4 0.15274827E-01 0.12499375E+03</pdfrwt>
<totfact> 0.10163581E+04</totfact>
</mgrwt>
</event>
<event>
 5    1  0.3261711E-002  0.1250038E+03  0.7818608E-02  0.1235063E+00
         -4   -1    0    0    0  501 -0.00000000000E+00  0.00000000000E+00  0.31982481340E+03  0.31982733493E+03  0.12700000000E+01 0. -1.
          4   -1    0    0  501    0  0.00000000000E+00 -0.00000000000E+00 -0.12178870132E+02  0.12244908235E+02  0.12700000000E+01 0. -1.
         25    2    1    2    0    0  0.00000000000E+00  0.00000000000E+00  0.30764594327E+03  0.33207224316E+03  0.12500379302E+03 0.  0.
    9000005    1    3    3    0    0  0.49106399244E+01  0.57934923105E+02  0.21468618192E+03  0.22242240536E+03  0.10000000000E+01 0.  0.
    9000005    1    3    3    0    0 -0.49106399244E+01 -0.57934923105E+02  0.92959761349E+02  0.10964983780E+03  0.10000000000E+01 0.  0.
<mgrwt>
<rscale>  0 0.12500379E+03</rscale>
<asrwt>0</asrwt>
<pdfrwt beam="2">  1        4 0.18789461E-02 0.12500379E+03</pdfrwt>
<pdfrwt beam="1">  1       -4 0.49209092E-01 0.12500379E+03</pdfrwt>
<totfact> 0.71736899E+03</totfact>
</mgrwt>
</event>
<event>
 5    1  0.3261711E-002  0.1249955E+03  0.7818608E-02  0.1235076E+00
          4   -1    0    0  501    0  0.00000000000E+00  0.00000000000E+00  0.20970681291E+02  0.21009102166E+02  0.12700000000E+01 0. -1.
         -4   -1    0    0    0  501 -0.00000000000E+00 -0.00000000000E+00 -0.18604759583E+03  0.18605193042E+03  0.12700000000E+01 0. -1.
         25    2    1    2    0    0  0.00000000000E+00  0.00000000000E+00 -0.16507691453E+03  0.20706103258E+03  0.12499553393E+03 0.  0.
    9000005    1    3    3    0    0 -0.39768324168E+02  0.46532387681E+02 -0.61703583485E+02  0.86920164089E+02  0.10000000000E+01 0.  0.
    9000005    1    3    3    0    0  0.39768324168E+02 -0.46532387681E+02 -0.10337333105E+03  0.12014086849E+03  0.10000000000E+01 0.  0.
<mgrwt>
<rscale>  0 0.12499553E+03</rscale>
<asrwt>0</asrwt>
<pdfrwt beam="1">  1        4 0.32295477E-02 0.12499553E+03</pdfrwt>
<pdfrwt beam="2">  1       -4 0.28625995E-01 0.12499553E+03</pdfrwt>
<totfact> 0.88966999E+03</totfact>
</mgrwt>
</event>
<event>
 5    1  0.3261711E-002  0.1249979E+03  0.7818608E-02  0.1235073E+00
         -4   -1    0    0    0  501 -0.00000000000E+00  0.00000000000E+00  0.13536066081E+02  0.13595513412E+02  0.12700000000E+01 0.  1.
          4   -1    0    0  501    0  0.00000000000E+00 -0.00000000000E+00 -0.28787791362E+03  0.28788071497E+03  0.12700000000E+01 0.  1.
         25    2    1    2    0    0  0.00000000000E+00  0.00000000000E+00 -0.27434184754E+03  0.30147622838E+03  0.12499786785E+03 0.  0.
    9000005    1    3    3    0    0 -0.35381053224E+02  0.49895002564E+02 -0.16803757852E+03  0.17882661436E+03  0.10000000000E+01 0.  0.
    9000005    1    3    3    0    0  0.35381053224E+02 -0.49895002564E+02 -0.10630426902E+03  0.12264961403E+03  0.10000000000E+01 0.  0.
<mgrwt>
<rscale>  0 0.12499787E+03</rscale>
<asrwt>0</asrwt>
<pdfrwt beam="2">  1        4 0.44293694E-01 0.12499787E+03</pdfrwt>
<pdfrwt beam="1">  1       -4 0.20872603E-02 0.12499787E+03</pdfrwt>
<totfact> 0.75417607E+03</totfact>
</mgrwt>
</event>
<event>
 5    1  0.3261711E-002  0.1249932E+03  0.7818608E-02  0.1235080E+00
         -4   -1    0    0    0  501 -0.00000000000E+00  0.00000000000E+00  0.93000317498E+03  0.93000404213E+03  0.12700000000E+01 0. -1.
          4   -1    0    0  501    0  0.00000000000E+00 -0.00000000000E+00 -0.41028980345E+01  0.42949589383E+01  0.12700000000E+01 0. -1.
         25    2    1    2    0    0  0.00000000000E+00  0.00000000000E+00  0.92590027695E+03  0.93429900107E+03  0.12499320199E+03 0.  0.
    9000005    1    3    3    0    0 -0.27203855856E+02  0.17916739851E+02  0.64341777475E+02  0.72124362520E+02  0.10000000000E+01 0.  0.
    9000005    1    3    3    0    0  0.27203855856E+02 -0.17916739851E+02  0.86155849947E+03  0.86217463855E+03  0.10000000000E+01 0.  0.
<mgrwt>
<rscale>  0 0.12499320E+03</rscale>
<asrwt>0</asrwt>
<pdfrwt beam="2">  1        4 0.64605495E-03 0.12499320E+03</pdfrwt>
<pdfrwt beam="1">  1       -4 0.14309242E+00 0.12499320E+03</pdfrwt>
<totfact> 0.32884899E+03</totfact>
</mgrwt>
</event>
<event>
 5    1  0.3261711E-002  0.1250037E+03  0.7818608E-02  0.1235063E+00
          4   -1    0    0  501    0  0.00000000000E+00  0.00000000000E+00  0.12719456554E+02  0.12782702180E+02  0.12700000000E+01 0.  1.
         -4   -1    0    0    0  501 -0.00000000000E+00 -0.00000000000E+00 -0.30630034645E+03  0.30630297931E+03  0.12700000000E+01 0.  1.
         25    2    1    2    0    0  0.00000000000E+00  0.00000000000E+00 -0.29358088990E+03  0.31908568149E+03  0.12500373283E+03 0.  0.
    9000005    1    3    3    0    0 -0.12344036015E+02 -0.14681578124E+02 -0.29861296691E+03  0.29923005860E+03  0.10000000000E+01 0.  0.
    9000005    1    3    3    0    0  0.12344036015E+02  0.14681578124E+02  0.50320770159E+01  0.19855622892E+02  0.10000000000E+01 0.  0.
<mgrwt>
<rscale>  0 0.12500373E+03</rscale>
<asrwt>0</asrwt>
<pdfrwt beam="1">  1        4 0.19619073E-02 0.12500373E+03</pdfrwt>
<pdfrwt beam="2">  1       -4 0.47128192E-01 0.12500373E+03</pdfrwt>
<totfact> 0.73258943E+03</totfact>
</mgrwt>
</event>
<event>
 5    1  0.3261711E-002  0.1250029E+03  0.7818608E-02  0.1235065E+00
         -4   -1    0    0    0  501 -0.00000000000E+00  0.00000000000E+00  0.46817449911E+03  0.46817622164E+03  0.12700000000E+01 0.  1.
          4   -1    0    0  501    0  0.00000000000E+00 -0.00000000000E+00 -0.82938972388E+01  0.83905680027E+01  0.12700000000E+01 0.  1.
         25    2    1    2    0    0  0.00000000000E+00  0.00000000000E+00  0.45988060187E+03  0.47656678965E+03  0.12500294805E+03 0.  0.
    9000005    1    3    3    0    0 -0.66810726621E+00  0.39736360965E+02  0.41380961742E+03  0.41571483522E+03  0.10000000000E+01 0.  0.
    9000005    1    3    3    0    0  0.66810726621E+00 -0.39736360965E+02  0.46070984447E+02  0.60851954430E+02  0.10000000000E+01 0.  0.
<mgrwt>
<rscale>  0 0.12500295E+03</rscale>
<asrwt>0</asrwt>
<pdfrwt beam="2">  1        4 0.12835526E-02 0.12500295E+03</pdfrwt>
<pdfrwt beam="1">  1       -4 0.72034432E-01 0.12500295E+03</pdfrwt>
<totfact> 0.57725710E+03</totfact>
</mgrwt>
</event>
<event>
 5    1  0.3261711E-002  0.1249996E+03  0.7818608E-02  0.1235070E+00
          4   -1    0    0  501    0  0.00000000000E+00  0.00000000000E+00  0.49827282636E+02  0.49843464916E+02  0.12700000000E+01 0.  1.
         -4   -1    0    0    0  501 -0.00000000000E+00 -0.00000000000E+00 -0.78361207400E+02  0.78371498169E+02  0.12700000000E+01 0.  1.
         25    2    1    2    0    0  0.00000000000E+00  0.00000000000E+00 -0.28533924765E+02  0.12821496309E+03  0.12499956759E+03 0.  0.
    9000005    1    3    3    0    0  0.16993285308E+02 -0.44627620711E+02 -0.55612983707E+02  0.73308936922E+02  0.10000000000E+01 0.  0.
    9000005    1    3    3    0    0 -0.16993285308E+02  0.44627620711E+02  0.27079058942E+02  0.54906026163E+02  0.10000000000E+01 0.  0.
<mgrwt>
<rscale>  0 0.12499957E+03</rscale>
<asrwt>0</asrwt>
<pdfrwt beam="1">  1        4 0.76677722E-02 0.12499957E+03</pdfrwt>
<pdfrwt beam="2">  1       -4 0.12057607E-01 0.12499957E+03</pdfrwt>
<totfact> 0.10382949E+04</totfact>
</mgrwt>
</event>
<event>
 5    1  0.3261711E-002  0.1249994E+03  0.7818608E-02  0.1235070E+00
          4   -1    0    0  501    0  0.00000000000E+00  0.00000000000E+00  0.63968206763E+02  0.63980812565E+02  0.12700000000E+01 0.  1.
         -4   -1    0    0    0  501 -0.00000000000E+00 -0.00000000000E+00 -0.61039644411E+02  0.61052854887E+02  0.12700000000E+01 0.  1.
         25    2    1    2    0    0  0.00000000000E+00  0.00000000000E+00  0.29285623520E+01  0.12503366745E+03  0.12499936607E+03 0.  0.
    9000005    1    3    3    0    0 -0.53138588472E+02 -0.31677105725E+02 -0.73734004157E+01  0.62309835866E+02  0.10000000000E+01 0.  0.
    9000005    1    3    3    0    0  0.53138588472E+02  0.31677105725E+02  0.10301962768E+02  0.62723831586E+02  0.10000000000E+01 0.  0.
<mgrwt>
<rscale>  0 0.12499937E+03</rscale>
<asrwt>0</asrwt>
<pdfrwt beam="1">  1        4 0.98432485E-02 0.12499937E+03</pdfrwt>
<pdfrwt beam="2">  1       -4 0.93927004E-02 0.12499937E+03</pdfrwt>
<totfact> 0.10452281E+04</totfact>
</mgrwt>
</event>
<event>
 5    1  0.3261711E-002  0.1250033E+03  0.7818608E-02  0.1235064E+00
          4   -1    0    0  501    0  0.00000000000E+00  0.00000000000E+00  0.21564723720E+01  0.25026532103E+01  0.12700000000E+01 0. -1.
         -4   -1    0    0    0  501 -0.00000000000E+00 -0.00000000000E+00 -0.16765577284E+04  0.16765582095E+04  0.12700000000E+01 0. -1.
         25    2    1    2    0    0  0.00000000000E+00  0.00000000000E+00 -0.16744012561E+04  0.16790608627E+04  0.12500325681E+03 0.  0.
    9000005    1    3    3    0    0 -0.60087474826E+02  0.10440766903E+02 -0.10203606626E+04  0.10221821736E+04  0.10000000000E+01 0.  0.
    9000005    1    3    3    0    0  0.60087474826E+02 -0.10440766903E+02 -0.65404059350E+03  0.65687868910E+03  0.10000000000E+01 0.  0.
<mgrwt>
<rscale>  0 0.12500326E+03</rscale>
<asrwt>0</asrwt>
<pdfrwt beam="1">  1        4 0.35843262E-03 0.12500326E+03</pdfrwt>
<pdfrwt beam="2">  1       -4 0.25795766E+00 0.12500326E+03</pdfrwt>
<totfact> 0.14659330E+03</totfact>
</mgrwt>
</event>
<event>
 5    1  0.3261711E-002  0.1250020E+03  0.7818608E-02  0.1235066E+00
          4   -1    0    0  501    0  0.00000000000E+00  0.00000000000E+00  0.81554240121E+03  0.81554339006E+03  0.12700000000E+01 0. -1.
         -4   -1    0    0    0  501 -0.00000000000E+00 -0.00000000000E+00 -0.47047179260E+01  0.48731171506E+01  0.12700000000E+01 0. -1.
         25    2    1    2    0    0  0.00000000000E+00  0.00000000000E+00  0.81083768328E+03  0.82041650721E+03  0.12500198667E+03 0.  0.
    9000005    1    3    3    0    0 -0.39507687242E+02  0.76823375824E+01  0.71918633305E+03  0.72031233317E+03  0.10000000000E+01 0.  0.
    9000005    1    3    3    0    0  0.39507687242E+02 -0.76823375824E+01  0.91651350229E+02  0.10010417404E+03  0.10000000000E+01 0.  0.
<mgrwt>
<rscale>  0 0.12500199E+03</rscale>
<asrwt>0</asrwt>
<pdfrwt beam="1">  1        4 0.12548112E+00 0.12500199E+03</pdfrwt>
<pdfrwt beam="2">  1       -4 0.73683242E-03 0.12500199E+03</pdfrwt>
<totfact> 0.37367741E+03</totfact>
</mgrwt>
</event>
<event>
 5    1  0.3261711E-002  0.1250014E+03  0.7818608E-02  0.1235067E+00
          4   -1    0    0  501    0  0.00000000000E+00  0.00000000000E+00  0.59756992241E+03  0.59757127196E+03  0.12700000000E+01 0.  1.
         -4   -1    0    0    0  501 -0.00000000000E+00 -0.00000000000E+00 -0.64739891336E+01  0.65973809426E+01  0.12700000000E+01 0.  1.
         25    2    1    2    0    0  0.00000000000E+00  0.00000000000E+00  0.59109593328E+03  0.60416865290E+03  0.12500143524E+03 0.  0.
    9000005    1    3    3    0    0 -0.56561870430E+02  0.23975992905E+02  0.35091951794E+03  0.35625777394E+03  0.10000000000E+01 0.  0.
    9000005    1    3    3    0    0  0.56561870430E+02 -0.23975992905E+02  0.24017641534E+03  0.24791087896E+03  0.10000000000E+01 0.  0.
<mgrwt>
<rscale>  0 0.12500144E+03</rscale>
<asrwt>0</asrwt>
<pdfrwt beam="1">  1        4 0.91943406E-01 0.12500144E+03</pdfrwt>
<pdfrwt beam="2">  1       -4 0.10055941E-02 0.12500144E+03</pdfrwt>
<totfact> 0.48604006E+03</totfact>
</mgrwt>
</event>
<event>
 5    1  0.3261711E-002  0.1250001E+03  0.7818608E-02  0.1235069E+00
          4   -1    0    0  501    0  0.00000000000E+00  0.00000000000E+00  0.63374108830E+02  0.63386832781E+02  0.12700000000E+01 0. -1.
         -4   -1    0    0    0  501 -0.00000000000E+00 -0.00000000000E+00 -0.61612595311E+02  0.61625682966E+02  0.12700000000E+01 0. -1.
         25    2    1    2    0    0  0.00000000000E+00  0.00000000000E+00  0.17615135184E+01  0.12501251575E+03  0.12500010465E+03 0.  0.
    9000005    1    3    3    0    0 -0.79836691938E+01  0.29525574028E+02 -0.53620140493E+02  0.61738302227E+02  0.10000000000E+01 0.  0.
    9000005    1    3    3    0    0  0.79836691938E+01 -0.29525574028E+02  0.55381654011E+02  0.63274213519E+02  0.10000000000E+01 0.  0.
<mgrwt>
<rscale>  0 0.12500010E+03</rscale>
<asrwt>0</asrwt>
<pdfrwt beam="1">  1        4 0.97518484E-02 0.12500010E+03</pdfrwt>
<pdfrwt beam="2">  1       -4 0.94808463E-02 0.12500010E+03</pdfrwt>
<totfact> 0.10452566E+04</totfact>
</mgrwt>
</event>
<event>
 5    1  0.3261711E-002  0.1250035E+03  0.7818608E-02  0.1235064E+00
          4   -1    0    0  501    0  0.00000000000E+00  0.00000000000E+00  0.34942589862E+02  0.34965661530E+02  0.12700000000E+01 0.  1.
         -4   -1    0    0    0  501 -0.00000000000E+00 -0.00000000000E+00 -0.11173316507E+03  0.11174038247E+03  0.12700000000E+01 0.  1.
         25    2    1    2    0    0  0.00000000000E+00  0.00000000000E+00 -0.76790575204E+02  0.14670604401E+03  0.12500348358E+03 0.  0.
    9000005    1    3    3    0    0 -0.10716595391E+02  0.60285071204E+02 -0.23721219621E+02  0.65672151535E+02  0.10000000000E+01 0.  0.
    9000005    1    3    3    0    0  0.10716595391E+02 -0.60285071204E+02 -0.53069355583E+02  0.81033892470E+02  0.10000000000E+01 0.  0.
<mgrwt>
<rscale>  0 0.12500348E+03</rscale>
<asrwt>0</asrwt>
<pdfrwt beam="1">  1        4 0.53781130E-02 0.12500348E+03</pdfrwt>
<pdfrwt beam="2">  1       -4 0.17192048E-01 0.12500348E+03</pdfrwt>
<totfact> 0.99956559E+03</totfact>
</mgrwt>
</event>
<event>
 5    1  0.3261711E-002  0.1250003E+03  0.7818608E-02  0.1235069E+00
          4   -1    0    0  501    0  0.00000000000E+00  0.00000000000E+00  0.74594963484E+01  0.75668345939E+01  0.12700000000E+01 0.  1.
         -4   -1    0    0    0  501 -0.00000000000E+00 -0.00000000000E+00 -0.51981530188E+03  0.51981685329E+03  0.12700000000E+01 0.  1.
         25    2    1    2    0    0  0.00000000000E+00  0.00000000000E+00 -0.51235580553E+03  0.52738368789E+03  0.12500033115E+03 0.  0.
    9000005    1    3    3    0    0  0.44458689233E+02  0.22026888581E+02 -0.41647501652E+03  0.41942126586E+03  0.10000000000E+01 0.  0.
    9000005    1    3    3    0    0 -0.44458689233E+02 -0.22026888581E+02 -0.95880789008E+02  0.10796242203E+03  0.10000000000E+01 0.  0.
<mgrwt>
<rscale>  0 0.12500033E+03</rscale>
<asrwt>0</asrwt>
<pdfrwt beam="1">  1        4 0.11559914E-02 0.12500033E+03</pdfrwt>
<pdfrwt beam="2">  1       -4 0.79979933E-01 0.12500033E+03</pdfrwt>
<totfact> 0.53800232E+03</totfact>
</mgrwt>
</event>
<event>
 5    1  0.3261711E-002  0.1250020E+03  0.7818608E-02  0.1235066E+00
         -4   -1    0    0    0  501 -0.00000000000E+00  0.00000000000E+00  0.20146463826E+02  0.20186453495E+02  0.12700000000E+01 0.  1.
          4   -1    0    0  501    0  0.00000000000E+00 -0.00000000000E+00 -0.19366455220E+03  0.19366871632E+03  0.12700000000E+01 0.  1.
         25    2    1    2    0    0  0.00000000000E+00  0.00000000000E+00 -0.17351808838E+03  0.21385516981E+03  0.12500202663E+03 0.  0.
    9000005    1    3    3    0    0 -0.30227013027E+02 -0.97300862572E+01 -0.17884198450E+03  0.18164196188E+03  0.10000000000E+01 0.  0.
    9000005    1    3    3    0    0  0.30227013027E+02  0.97300862572E+01  0.53238961277E+01  0.32213207929E+02  0.10000000000E+01 0.  0.
<mgrwt>
<rscale>  0 0.12500203E+03</rscale>
<asrwt>0</asrwt>
<pdfrwt beam="2">  1        4 0.29797942E-01 0.12500203E+03</pdfrwt>
<pdfrwt beam="1">  1       -4 0.31028526E-02 0.12500203E+03</pdfrwt>
<totfact> 0.87846148E+03</totfact>
</mgrwt>
</event>
<event>
 5    1  0.3261711E-002  0.1250028E+03  0.7818608E-02  0.1235065E+00
         -4   -1    0    0    0  501 -0.00000000000E+00  0.00000000000E+00  0.23669895800E+01  0.26861756592E+01  0.12700000000E+01 0.  1.
          4   -1    0    0  501    0  0.00000000000E+00 -0.00000000000E+00 -0.15458115697E+04  0.15458120914E+04  0.12700000000E+01 0.  1.
         25    2    1    2    0    0  0.00000000000E+00  0.00000000000E+00 -0.15434445802E+04  0.15484982671E+04  0.12500284470E+03 0.  0.
    9000005    1    3    3    0    0  0.16466989527E+02 -0.78799385201E+01 -0.31338254099E+02  0.36281418731E+02  0.10000000000E+01 0.  0.
    9000005    1    3    3    0    0 -0.16466989527E+02  0.78799385201E+01 -0.15121063261E+04  0.15122168484E+04  0.10000000000E+01 0.  0.
<mgrwt>
<rscale>  0 0.12500284E+03</rscale>
<asrwt>0</asrwt>
<pdfrwt beam="2">  1        4 0.23784100E+00 0.12500284E+03</pdfrwt>
<pdfrwt beam="1">  1       -4 0.38874638E-03 0.12500284E+03</pdfrwt>
<totfact> 0.16995569E+03</totfact>
</mgrwt>
</event>
<event>
 5    1  0.3261711E-002  0.1249999E+03  0.7818608E-02  0.1235069E+00
          4   -1    0    0  501    0  0.00000000000E+00  0.00000000000E+00  0.28751230951E+02  0.28779266516E+02  0.12700000000E+01 0. -1.
         -4   -1    0    0    0  501 -0.00000000000E+00 -0.00000000000E+00 -0.13576641759E+03  0.13577235744E+03  0.12700000000E+01 0. -1.
         25    2    1    2    0    0  0.00000000000E+00  0.00000000000E+00 -0.10701518664E+03  0.16455162396E+03  0.12499994710E+03 0.  0.
    9000005    1    3    3    0    0 -0.44188753144E+02 -0.21215727220E+02 -0.24807532746E+01  0.49090804869E+02  0.10000000000E+01 0.  0.
    9000005    1    3    3    0    0  0.44188753144E+02  0.21215727220E+02 -0.10453443337E+03  0.11546081909E+03  0.10000000000E+01 0.  0.
<mgrwt>
<rscale>  0 0.12499995E+03</rscale>
<asrwt>0</asrwt>
<pdfrwt beam="1">  1        4 0.44258798E-02 0.12499995E+03</pdfrwt>
<pdfrwt beam="2">  1       -4 0.20889754E-01 0.12499995E+03</pdfrwt>
<totfact> 0.96472490E+03</totfact>
</mgrwt>
</event>
<event>
 5    1  0.3261711E-002  0.1249942E+03  0.7818608E-02  0.1235078E+00
         -4   -1    0    0    0  501 -0.00000000000E+00  0.00000000000E+00  0.14361625430E+03  0.14362186950E+03  0.12700000000E+01 0. -1.
          4   -1    0    0  501    0  0.00000000000E+00 -0.00000000000E+00 -0.27175732862E+02  0.27205392049E+02  0.12700000000E+01 0. -1.
         25    2    1    2    0    0  0.00000000000E+00  0.00000000000E+00  0.11644052143E+03  0.17082726155E+03  0.12499423289E+03 0.  0.
    9000005    1    3    3    0    0 -0.41787866977E+02  0.23428888872E+02  0.11305383326E+03  0.12278968962E+03  0.10000000000E+01 0.  0.
    9000005    1    3    3    0    0  0.41787866977E+02 -0.23428888872E+02  0.33866881707E+01  0.48037571931E+02  0.10000000000E+01 0.  0.
<mgrwt>
<rscale>  0 0.12499423E+03</rscale>
<asrwt>0</asrwt>
<pdfrwt beam="2">  1        4 0.41835955E-02 0.12499423E+03</pdfrwt>
<pdfrwt beam="1">  1       -4 0.22097521E-01 0.12499423E+03</pdfrwt>
<totfact> 0.95307006E+03</totfact>
</mgrwt>
</event>
<event>
 5    1  0.3261711E-002  0.1249953E+03  0.7818608E-02  0.1235077E+00
          4   -1    0    0  501    0  0.00000000000E+00  0.00000000000E+00  0.93821600792E+02  0.93830195967E+02  0.12700000000E+01 0. -1.
         -4   -1    0    0    0  501 -0.00000000000E+00 -0.00000000000E+00 -0.41611547248E+02  0.41630923174E+02  0.12700000000E+01 0. -1.
         25    2    1    2    0    0  0.00000000000E+00  0.00000000000E+00  0.52210053545E+02  0.13546111914E+03  0.12499530034E+03 0.  0.
    9000005    1    3    3    0    0  0.42486233825E+02 -0.35328818646E+02 -0.55233749480E+01  0.55540194115E+02  0.10000000000E+01 0.  0.
    9000005    1    3    3    0    0 -0.42486233825E+02  0.35328818646E+02  0.57733428493E+02  0.79920925026E+02  0.10000000000E+01 0.  0.
<mgrwt>
<rscale>  0 0.12499530E+03</rscale>
<asrwt>0</asrwt>
<pdfrwt beam="1">  1        4 0.14436244E-01 0.12499530E+03</pdfrwt>
<pdfrwt beam="2">  1       -4 0.64039282E-02 0.12499530E+03</pdfrwt>
<totfact> 0.10229445E+04</totfact>
</mgrwt>
</event>
<event>
 5    1  0.3261711E-002  0.1249932E+03  0.7818608E-02  0.1235080E+00
          4   -1    0    0  501    0  0.00000000000E+00  0.00000000000E+00  0.40702682576E+03  0.40702880707E+03  0.12700000000E+01 0. -1.
         -4   -1    0    0    0  501 -0.00000000000E+00 -0.00000000000E+00 -0.95519546629E+01  0.96360125510E+01  0.12700000000E+01 0. -1.
         25    2    1    2    0    0  0.00000000000E+00  0.00000000000E+00  0.39747487109E+03  0.41666481962E+03  0.12499319485E+03 0.  0.
    9000005    1    3    3    0    0  0.36895878062E+01  0.17865403203E+02 -0.49431926974E+00  0.18276488758E+02  0.10000000000E+01 0.  0.
    9000005    1    3    3    0    0 -0.36895878062E+01 -0.17865403203E+02  0.39796919036E+03  0.39838833086E+03  0.10000000000E+01 0.  0.
<mgrwt>
<rscale>  0 0.12499319E+03</rscale>
<asrwt>0</asrwt>
<pdfrwt beam="1">  1        4 0.62626126E-01 0.12499319E+03</pdfrwt>
<pdfrwt beam="2">  1       -4 0.14761500E-02 0.12499319E+03</pdfrwt>
<totfact> 0.62973084E+03</totfact>
</mgrwt>
</event>
<event>
 5    1  0.3261711E-002  0.1250051E+03  0.7818608E-02  0.1235061E+00
         -4   -1    0    0    0  501 -0.00000000000E+00  0.00000000000E+00  0.66188680236E+03  0.66188802077E+03  0.12700000000E+01 0. -1.
          4   -1    0    0  501    0  0.00000000000E+00 -0.00000000000E+00 -0.58326165176E+01  0.59692809819E+01  0.12700000000E+01 0. -1.
         25    2    1    2    0    0  0.00000000000E+00  0.00000000000E+00  0.65605418584E+03  0.66785730175E+03  0.12500512286E+03 0.  0.
    9000005    1    3    3    0    0  0.51494541779E+02 -0.45925629024E+00  0.51719511925E+03  0.51975348977E+03  0.10000000000E+01 0.  0.
    9000005    1    3    3    0    0 -0.51494541779E+02  0.45925629024E+00  0.13885906660E+03  0.14810381199E+03  0.10000000000E+01 0.  0.
<mgrwt>
<rscale>  0 0.12500512E+03</rscale>
<asrwt>0</asrwt>
<pdfrwt beam="2">  1        4 0.90793243E-03 0.12500512E+03</pdfrwt>
<pdfrwt beam="1">  1       -4 0.10183930E+00 0.12500512E+03</pdfrwt>
<totfact> 0.44833594E+03</totfact>
</mgrwt>
</event>
<event>
 5    1  0.3261711E-002  0.1249945E+03  0.7818608E-02  0.1235078E+00
          4   -1    0    0  501    0  0.00000000000E+00  0.00000000000E+00  0.38822594379E+02  0.38843361521E+02  0.12700000000E+01 0.  1.
         -4   -1    0    0    0  501 -0.00000000000E+00 -0.00000000000E+00 -0.10055747852E+03  0.10056549800E+03  0.12700000000E+01 0.  1.
         25    2    1    2    0    0  0.00000000000E+00  0.00000000000E+00 -0.61734884146E+02  0.13940885952E+03  0.12499453665E+03 0.  0.
    9000005    1    3    3    0    0 -0.47780122127E+02  0.40168209419E+02 -0.27618925622E+02  0.68265878526E+02  0.10000000000E+01 0.  0.
    9000005    1    3    3    0    0  0.47780122127E+02 -0.40168209419E+02 -0.34115958523E+02  0.71142980991E+02  0.10000000000E+01 0.  0.
<mgrwt>
<rscale>  0 0.12499454E+03</rscale>
<asrwt>0</asrwt>
<pdfrwt beam="1">  1        4 0.59749212E-02 0.12499454E+03</pdfrwt>
<pdfrwt beam="2">  1       -4 0.15472596E-01 0.12499454E+03</pdfrwt>
<totfact> 0.10147101E+04</totfact>
</mgrwt>
</event>
<event>
 5    1  0.3261711E-002  0.1250009E+03  0.7818608E-02  0.1235068E+00
         -4   -1    0    0    0  501 -0.00000000000E+00  0.00000000000E+00  0.12415061659E+03  0.12415711216E+03  0.12700000000E+01 0. -1.
          4   -1    0    0  501    0  0.00000000000E+00 -0.00000000000E+00 -0.31444118695E+02  0.31469755329E+02  0.12700000000E+01 0. -1.
         25    2    1    2    0    0  0.00000000000E+00  0.00000000000E+00  0.92706497898E+02  0.15562686749E+03  0.12500090853E+03 0.  0.
    9000005    1    3    3    0    0 -0.51376423751E+02  0.28672304254E+02  0.20129132317E+02  0.62191799431E+02  0.10000000000E+01 0.  0.
    9000005    1    3    3    0    0  0.51376423751E+02 -0.28672304254E+02  0.72577365582E+02  0.93435068060E+02  0.10000000000E+01 0.  0.
<mgrwt>
<rscale>  0 0.12500091E+03</rscale>
<asrwt>0</asrwt>
<pdfrwt beam="2">  1        4 0.48400285E-02 0.12500091E+03</pdfrwt>
<pdfrwt beam="1">  1       -4 0.19102566E-01 0.12500091E+03</pdfrwt>
<totfact> 0.98190571E+03</totfact>
</mgrwt>
</event>
<event>
 5    1  0.3261711E-002  0.1249990E+03  0.7818608E-02  0.1235071E+00
         -4   -1    0    0    0  501 -0.00000000000E+00  0.00000000000E+00  0.18643169388E+02  0.18686376450E+02  0.12700000000E+01 0. -1.
          4   -1    0    0  501    0  0.00000000000E+00 -0.00000000000E+00 -0.20923604046E+03  0.20923989468E+03  0.12700000000E+01 0. -1.
         25    2    1    2    0    0  0.00000000000E+00  0.00000000000E+00 -0.19059287107E+03  0.22792627113E+03  0.12499897027E+03 0.  0.
    9000005    1    3    3    0    0  0.43457128693E+02 -0.41623536550E+02 -0.64559694611E+02  0.88260948315E+02  0.10000000000E+01 0.  0.
    9000005    1    3    3    0    0 -0.43457128693E+02  0.41623536550E+02 -0.12603317646E+03  0.13966532282E+03  0.10000000000E+01 0.  0.
<mgrwt>
<rscale>  0 0.12499897E+03</rscale>
<asrwt>0</asrwt>
<pdfrwt beam="2">  1        4 0.32193779E-01 0.12499897E+03</pdfrwt>
<pdfrwt beam="1">  1       -4 0.28718002E-02 0.12499897E+03</pdfrwt>
<totfact> 0.85631009E+03</totfact>
</mgrwt>
</event>
<event>
 4    1  0.3261711E-002  0.1244656E+03  0.7818608E-02  0.1235907E+00
          4   -1    0    0  501    0  0.00000000000E+00  0.00000000000E+00  0.66345254314E+02  0.66357408554E+02  0.12700000000E+01 0. -1.
         -4   -1    0    0    0  501 -0.00000000000E+00 -0.00000000000E+00 -0.58350840146E+02  0.58364659219E+02  0.12700000000E+01 0. -1.
    9000005    1    1    2    0    0  0.39951428560E+02  0.21823897532E+02 -0.38510976006E+02  0.59636351501E+02  0.10000000000E+01 0.  0.
    9000005    1    1    2    0    0 -0.39951428560E+02 -0.21823897532E+02  0.46505390173E+02  0.65085716272E+02  0.10000000000E+01 0.  0.
<mgrwt>
<rscale>  0 0.12446559E+03</rscale>
<asrwt>0</asrwt>
<pdfrwt beam="1">  1        4 0.10208960E-01 0.12446559E+03</pdfrwt>
<pdfrwt beam="2">  1       -4 0.89790503E-02 0.12446559E+03</pdfrwt>
<totfact> 0.10586236E+04</totfact>
</mgrwt>
</event>
<event>
 5    1  0.3261711E-002  0.1249996E+03  0.7818608E-02  0.1235070E+00
         -4   -1    0    0    0  501 -0.00000000000E+00  0.00000000000E+00  0.83835445649E+01  0.84791933267E+01  0.12700000000E+01 0. -1.
          4   -1    0    0  501    0  0.00000000000E+00 -0.00000000000E+00 -0.46319987380E+03  0.46320161483E+03  0.12700000000E+01 0. -1.
         25    2    1    2    0    0  0.00000000000E+00  0.00000000000E+00 -0.45481632923E+03  0.47168080816E+03  0.12499956581E+03 0.  0.
    9000005    1    3    3    0    0  0.28130319048E+02 -0.24498406386E+02 -0.38217569921E+02  0.53414131237E+02  0.10000000000E+01 0.  0.
    9000005    1    3    3    0    0 -0.28130319048E+02  0.24498406386E+02 -0.41659875931E+03  0.41826667692E+03  0.10000000000E+01 0.  0.
<mgrwt>
<rscale>  0 0.12499957E+03</rscale>
<asrwt>0</asrwt>
<pdfrwt beam="2">  1        4 0.71268990E-01 0.12499957E+03</pdfrwt>
<pdfrwt beam="1">  1       -4 0.12972680E-02 0.12499957E+03</pdfrwt>
<totfact> 0.58131108E+03</totfact>
</mgrwt>
</event>
<event>
 5    1  0.3261711E-002  0.1250009E+03  0.7818608E-02  0.1235068E+00
         -4   -1    0    0    0  501 -0.00000000000E+00  0.00000000000E+00  0.18297414857E+03  0.18297855597E+03  0.12700000000E+01 0. -1.
          4   -1    0    0  501    0  0.00000000000E+00 -0.00000000000E+00 -0.21325389310E+02  0.21363172265E+02  0.12700000000E+01 0. -1.
         25    2    1    2    0    0  0.00000000000E+00  0.00000000000E+00  0.16164875926E+03  0.20434172824E+03  0.12500088211E+03 0.  0.
    9000005    1    3    3    0    0 -0.42499484851E+02  0.21707122867E+02  0.14867847867E+02  0.49994582666E+02  0.10000000000E+01 0.  0.
    9000005    1    3    3    0    0  0.42499484851E+02 -0.21707122867E+02  0.14678091140E+03  0.15434714557E+03  0.10000000000E+01 0.  0.
<mgrwt>
<rscale>  0 0.12500088E+03</rscale>
<asrwt>0</asrwt>
<pdfrwt beam="2">  1        4 0.32840747E-02 0.12500088E+03</pdfrwt>
<pdfrwt beam="1">  1       -4 0.28153113E-01 0.12500088E+03</pdfrwt>
<totfact> 0.89406606E+03</totfact>
</mgrwt>
</event>
<event>
 5    1  0.3261711E-002  0.1249991E+03  0.7818608E-02  0.1235071E+00
         -4   -1    0    0    0  501 -0.00000000000E+00  0.00000000000E+00  0.52189079178E+02  0.52204529358E+02  0.12700000000E+01 0. -1.
          4   -1    0    0  501    0  0.00000000000E+00 -0.00000000000E+00 -0.74815059359E+02  0.74825837830E+02  0.12700000000E+01 0. -1.
         25    2    1    2    0    0  0.00000000000E+00  0.00000000000E+00 -0.22625980181E+02  0.12703036719E+03  0.12499911683E+03 0.  0.
    9000005    1    3    3    0    0 -0.41706113154E+02 -0.45936423854E+02 -0.37325617697E+01  0.62164997613E+02  0.10000000000E+01 0.  0.
    9000005    1    3    3    0    0  0.41706113154E+02  0.45936423854E+02 -0.18893418411E+02  0.64865369575E+02  0.10000000000E+01 0.  0.
<mgrwt>
<rscale>  0 0.12499912E+03</rscale>
<asrwt>0</asrwt>
<pdfrwt beam="2">  1        4 0.11512027E-01 0.12499912E+03</pdfrwt>
<pdfrwt beam="1">  1       -4 0.80311067E-02 0.12499912E+03</pdfrwt>
<totfact> 0.10408693E+04</totfact>
</mgrwt>
</event>
<event>
 5    1  0.3261711E-002  0.1249997E+03  0.7818608E-02  0.1235070E+00
          4   -1    0    0  501    0  0.00000000000E+00  0.00000000000E+00  0.43945338282E+02  0.43963685659E+02  0.12700000000E+01 0.  1.
         -4   -1    0    0    0  501 -0.00000000000E+00 -0.00000000000E+00 -0.88846910899E+02  0.88855987284E+02  0.12700000000E+01 0.  1.
         25    2    1    2    0    0  0.00000000000E+00  0.00000000000E+00 -0.44901572617E+02  0.13281967294E+03  0.12499965719E+03 0.  0.
    9000005    1    3    3    0    0 -0.19231742864E+02 -0.55497439875E+02  0.22442989399E+00  0.58744158305E+02  0.10000000000E+01 0.  0.
    9000005    1    3    3    0    0  0.19231742864E+02  0.55497439875E+02 -0.45126002511E+02  0.74075514638E+02  0.10000000000E+01 0.  0.
<mgrwt>
<rscale>  0 0.12499966E+03</rscale>
<asrwt>0</asrwt>
<pdfrwt beam="1">  1        4 0.67629308E-02 0.12499966E+03</pdfrwt>
<pdfrwt beam="2">  1       -4 0.13670865E-01 0.12499966E+03</pdfrwt>
<totfact> 0.10284313E+04</totfact>
</mgrwt>
</event>
<event>
 5    1  0.3261711E-002  0.1250043E+03  0.7818608E-02  0.1235063E+00
         -4   -1    0    0    0  501 -0.00000000000E+00  0.00000000000E+00  0.81863179232E+01  0.82842441501E+01  0.12700000000E+01 0.  1.
          4   -1    0    0  501    0  0.00000000000E+00 -0.00000000000E+00 -0.47426489762E+03  0.47426659803E+03  0.12700000000E+01 0.  1.
         25    2    1    2    0    0  0.00000000000E+00  0.00000000000E+00 -0.46607857969E+03  0.48255084218E+03  0.12500429130E+03 0.  0.
    9000005    1    3    3    0    0  0.37783613673E+02  0.13096661238E+02 -0.41842870122E+03  0.42033641527E+03  0.10000000000E+01 0.  0.
    9000005    1    3    3    0    0 -0.37783613673E+02 -0.13096661238E+02 -0.47649878475E+02  0.62214426916E+02  0.10000000000E+01 0.  0.
<mgrwt>
<rscale>  0 0.12500429E+03</rscale>
<asrwt>0</asrwt>
<pdfrwt beam="2">  1        4 0.72971473E-01 0.12500429E+03</pdfrwt>
<pdfrwt beam="1">  1       -4 0.12670975E-02 0.12500429E+03</pdfrwt>
<totfact> 0.57238691E+03</totfact>
</mgrwt>
</event>
<event>
 5    1  0.3261711E-002  0.1250001E+03  0.7818608E-02  0.1235069E+00
          4   -1    0    0  501    0  0.00000000000E+00  0.00000000000E+00  0.14246046748E+03  0.14246612824E+03  0.12700000000E+01 0. -1.
         -4   -1    0    0    0  501 -0.00000000000E+00 -0.00000000000E+00 -0.27399024498E+02  0.27428442235E+02  0.12700000000E+01 0. -1.
         25    2    1    2    0    0  0.00000000000E+00  0.00000000000E+00  0.11506144298E+03  0.16989457047E+03  0.12500011766E+03 0.  0.
    9000005    1    3    3    0    0  0.53732663596E+02 -0.30987675340E+02  0.47195581593E+02  0.77947790745E+02  0.10000000000E+01 0.  0.
    9000005    1    3    3    0    0 -0.53732663596E+02  0.30987675340E+02  0.67865861391E+02  0.91946779728E+02  0.10000000000E+01 0.  0.
<mgrwt>
<rscale>  0 0.12500012E+03</rscale>
<asrwt>0</asrwt>
<pdfrwt beam="1">  1        4 0.21919694E-01 0.12500012E+03</pdfrwt>
<pdfrwt beam="2">  1       -4 0.42179328E-02 0.12500012E+03</pdfrwt>
<totfact> 0.95468038E+03</totfact>
</mgrwt>
</event>
<event>
 5    1  0.3261711E-002  0.1249984E+03  0.7818608E-02  0.1235072E+00
          4   -1    0    0  501    0  0.00000000000E+00  0.00000000000E+00  0.73582056398E+03  0.73582165997E+03  0.12700000000E+01 0. -1.
         -4   -1    0    0    0  501 -0.00000000000E+00 -0.00000000000E+00 -0.52314869478E+01  0.53834334476E+01  0.12700000000E+01 0. -1.
         25    2    1    2    0    0  0.00000000000E+00  0.00000000000E+00  0.73058907703E+03  0.74120509341E+03  0.12499836409E+03 0.  0.
    9000005    1    3    3    0    0  0.16121689090E+02 -0.55466047018E+02  0.50671011944E+03  0.50999268267E+03  0.10000000000E+01 0.  0.
    9000005    1    3    3    0    0 -0.16121689090E+02  0.55466047018E+02  0.22387895759E+03  0.23121241074E+03  0.10000000000E+01 0.  0.
<mgrwt>
<rscale>  0 0.12499836E+03</rscale>
<asrwt>0</asrwt>
<pdfrwt beam="1">  1        4 0.11321495E+00 0.12499836E+03</pdfrwt>
<pdfrwt beam="2">  1       -4 0.81661653E-03 0.12499836E+03</pdfrwt>
<totfact> 0.40999832E+03</totfact>
</mgrwt>
</event>
<event>
 5    1  0.3261711E-002  0.1250010E+03  0.7818608E-02  0.1235068E+00
          4   -1    0    0  501    0  0.00000000000E+00  0.00000000000E+00  0.30456906185E+02  0.30483373081E+02  0.12700000000E+01 0.  1.
         -4   -1    0    0    0  501 -0.00000000000E+00 -0.00000000000E+00 -0.12817177236E+03  0.12817806415E+03  0.12700000000E+01 0.  1.
         25    2    1    2    0    0  0.00000000000E+00  0.00000000000E+00 -0.97714866170E+02  0.15866143723E+03  0.12500102637E+03 0.  0.
    9000005    1    3    3    0    0 -0.94472614305E+01 -0.14323261326E+02  0.27414717462E+02  0.32356966747E+02  0.10000000000E+01 0.  0.
    9000005    1    3    3    0    0  0.94472614305E+01  0.14323261326E+02 -0.12512958363E+03  0.12630447048E+03  0.10000000000E+01 0.  0.
<mgrwt>
<rscale>  0 0.12500103E+03</rscale>
<asrwt>0</asrwt>
<pdfrwt beam="1">  1        4 0.46881979E-02 0.12500103E+03</pdfrwt>
<pdfrwt beam="2">  1       -4 0.19721254E-01 0.12500103E+03</pdfrwt>
<totfact> 0.97599220E+03</totfact>
</mgrwt>
</event>
<event>
 5    1  0.3261711E-002  0.1249985E+03  0.7818608E-02  0.1235072E+00
         -4   -1    0    0    0  501 -0.00000000000E+00  0.00000000000E+00  0.53149615192E+02  0.53164786232E+02  0.12700000000E+01 0.  1.
          4   -1    0    0  501    0  0.00000000000E+00 -0.00000000000E+00 -0.73462418246E+02  0.73473395148E+02  0.12700000000E+01 0.  1.
         25    2    1    2    0    0  0.00000000000E+00  0.00000000000E+00 -0.20312803054E+02  0.12663818138E+03  0.12499847605E+03 0.  0.
    9000005    1    3    3    0    0 -0.58156619412E+02 -0.22722070593E+02 -0.75399121883E+01  0.62899404999E+02  0.10000000000E+01 0.  0.
    9000005    1    3    3    0    0  0.58156619412E+02  0.22722070593E+02 -0.12772890866E+02  0.63738776381E+02  0.10000000000E+01 0.  0.
<mgrwt>
<rscale>  0 0.12499848E+03</rscale>
<asrwt>0</asrwt>
<pdfrwt beam="2">  1        4 0.11303922E-01 0.12499848E+03</pdfrwt>
<pdfrwt beam="1">  1       -4 0.81788752E-02 0.12499848E+03</pdfrwt>
<totfact> 0.10417375E+04</totfact>
</mgrwt>
</event>
<event>
 5    1  0.3261711E-002  0.1249998E+03  0.7818608E-02  0.1235070E+00
          4   -1    0    0  501    0  0.00000000000E+00  0.00000000000E+00  0.71575992334E+02  0.71587258493E+02  0.12700000000E+01 0. -1.
         -4   -1    0    0    0  501 -0.00000000000E+00 -0.00000000000E+00 -0.54551773020E+02  0.54566554221E+02  0.12700000000E+01 0. -1.
         25    2    1    2    0    0  0.00000000000E+00  0.00000000000E+00  0.17024219314E+02  0.12615381271E+03  0.12499984168E+03 0.  0.
    9000005    1    3    3    0    0  0.24175106150E+02 -0.19261081373E+02  0.63325708152E+02  0.70473898189E+02  0.10000000000E+01 0.  0.
    9000005    1    3    3    0    0 -0.24175106150E+02  0.19261081373E+02 -0.46301488838E+02  0.55679914526E+02  0.10000000000E+01 0.  0.
<mgrwt>
<rscale>  0 0.12499984E+03</rscale>
<asrwt>0</asrwt>
<pdfrwt beam="1">  1        4 0.11013695E-01 0.12499984E+03</pdfrwt>
<pdfrwt beam="2">  1       -4 0.83945841E-02 0.12499984E+03</pdfrwt>
<totfact> 0.10427626E+04</totfact>
</mgrwt>
</event>
<event>
 5    1  0.3261711E-002  0.1249947E+03  0.7818608E-02  0.1235078E+00
          4   -1    0    0  501    0  0.00000000000E+00  0.00000000000E+00  0.21917229953E+03  0.21917597903E+03  0.12700000000E+01 0.  1.
         -4   -1    0    0    0  501 -0.00000000000E+00 -0.00000000000E+00 -0.17794759570E+02  0.17840021529E+02  0.12700000000E+01 0.  1.
         25    2    1    2    0    0  0.00000000000E+00  0.00000000000E+00  0.20137753996E+03  0.23701600056E+03  0.12499468356E+03 0.  0.
    9000005    1    3    3    0    0  0.60990131022E+02 -0.10152272799E+02  0.11786521833E+03  0.13310174461E+03  0.10000000000E+01 0.  0.
    9000005    1    3    3    0    0 -0.60990131022E+02  0.10152272799E+02  0.83512321630E+02  0.10391425595E+03  0.10000000000E+01 0.  0.
<mgrwt>
<rscale>  0 0.12499468E+03</rscale>
<asrwt>0</asrwt>
<pdfrwt beam="1">  1        4 0.33722580E-01 0.12499468E+03</pdfrwt>
<pdfrwt beam="2">  1       -4 0.27414200E-02 0.12499468E+03</pdfrwt>
<totfact> 0.84253785E+03</totfact>
</mgrwt>
</event>
<event>
 5    1  0.3261711E-002  0.1250000E+03  0.7818608E-02  0.1235069E+00
          4   -1    0    0  501    0  0.00000000000E+00  0.00000000000E+00  0.81506775296E+02  0.81516668965E+02  0.12700000000E+01 0.  1.
         -4   -1    0    0    0  501 -0.00000000000E+00 -0.00000000000E+00 -0.47904252543E+02  0.47921084209E+02  0.12700000000E+01 0.  1.
         25    2    1    2    0    0  0.00000000000E+00  0.00000000000E+00  0.33602522752E+02  0.12943775317E+03  0.12500000965E+03 0.  0.
    9000005    1    3    3    0    0  0.62321736556E+02 -0.35818460850E+00  0.21560455721E+02  0.65954381162E+02  0.10000000000E+01 0.  0.
    9000005    1    3    3    0    0 -0.62321736556E+02  0.35818460850E+00  0.12042067031E+02  0.63483372012E+02  0.10000000000E+01 0.  0.
<mgrwt>
<rscale>  0 0.12500001E+03</rscale>
<asrwt>0</asrwt>
<pdfrwt beam="1">  1        4 0.12541560E-01 0.12500001E+03</pdfrwt>
<pdfrwt beam="2">  1       -4 0.73719409E-02 0.12500001E+03</pdfrwt>
<totfact> 0.10356548E+04</totfact>
</mgrwt>
</event>
<event>
 5    1  0.3261711E-002  0.1250016E+03  0.7818608E-02  0.1235067E+00
         -4   -1    0    0    0  501 -0.00000000000E+00  0.00000000000E+00  0.32059984070E+01  0.34483801684E+01  0.12700000000E+01 0.  1.
          4   -1    0    0  501    0  0.00000000000E+00 -0.00000000000E+00 -0.11738265515E+04  0.11738272386E+04  0.12700000000E+01 0.  1.
         25    2    1    2    0    0  0.00000000000E+00  0.00000000000E+00 -0.11706205531E+04  0.11772756187E+04  0.12500161219E+03 0.  0.
    9000005    1    3    3    0    0  0.22226423229E+02 -0.37813555646E+02 -0.10045442725E+04  0.10055019017E+04  0.10000000000E+01 0.  0.
    9000005    1    3    3    0    0 -0.22226423229E+02  0.37813555646E+02 -0.16607628064E+03  0.17177371705E+03  0.10000000000E+01 0.  0.
<mgrwt>
<rscale>  0 0.12500161E+03</rscale>
<asrwt>0</asrwt>
<pdfrwt beam="2">  1        4 0.18060707E+00 0.12500161E+03</pdfrwt>
<pdfrwt beam="1">  1       -4 0.51192906E-03 0.12500161E+03</pdfrwt>
<totfact> 0.25314594E+03</totfact>
</mgrwt>
</event>
<event>
 5    1  0.3261711E-002  0.1249962E+03  0.7818608E-02  0.1235075E+00
         -4   -1    0    0    0  501 -0.00000000000E+00  0.00000000000E+00  0.88094942422E+03  0.88095033965E+03  0.12700000000E+01 0.  1.
          4   -1    0    0  501    0  0.00000000000E+00 -0.00000000000E+00 -0.43419891997E+01  0.45239109419E+01  0.12700000000E+01 0.  1.
         25    2    1    2    0    0  0.00000000000E+00  0.00000000000E+00  0.87660743502E+03  0.88547425059E+03  0.12499621327E+03 0.  0.
    9000005    1    3    3    0    0  0.26179374526E+02 -0.37597115232E+02  0.73936246602E+03  0.74078118151E+03  0.10000000000E+01 0.  0.
    9000005    1    3    3    0    0 -0.26179374526E+02  0.37597115232E+02  0.13724496900E+03  0.14469306908E+03  0.10000000000E+01 0.  0.
<mgrwt>
<rscale>  0 0.12499621E+03</rscale>
<asrwt>0</asrwt>
<pdfrwt beam="2">  1        4 0.68206265E-03 0.12499621E+03</pdfrwt>
<pdfrwt beam="1">  1       -4 0.13554476E+00 0.12499621E+03</pdfrwt>
<totfact> 0.34720839E+03</totfact>
</mgrwt>
</event>
<event>
 5    1  0.3261711E-002  0.1250027E+03  0.7818608E-02  0.1235065E+00
          4   -1    0    0  501    0  0.00000000000E+00  0.00000000000E+00  0.29234663426E+03  0.29234939279E+03  0.12700000000E+01 0. -1.
         -4   -1    0    0    0  501 -0.00000000000E+00 -0.00000000000E+00 -0.13329285663E+02  0.13389651089E+02  0.12700000000E+01 0. -1.
         25    2    1    2    0    0  0.00000000000E+00  0.00000000000E+00  0.27901734860E+03  0.30573904388E+03  0.12500272850E+03 0.  0.
    9000005    1    3    3    0    0  0.22382987555E+02  0.23344010504E+02  0.27029878573E+03  0.27222853364E+03  0.10000000000E+01 0.  0.
    9000005    1    3    3    0    0 -0.22382987555E+02 -0.23344010504E+02  0.87185628698E+01  0.33510510244E+02  0.10000000000E+01 0.  0.
<mgrwt>
<rscale>  0 0.12500273E+03</rscale>
<asrwt>0</asrwt>
<pdfrwt beam="1">  1        4 0.44981256E-01 0.12500273E+03</pdfrwt>
<pdfrwt beam="2">  1       -4 0.20555152E-02 0.12500273E+03</pdfrwt>
<totfact> 0.74880005E+03</totfact>
</mgrwt>
</event>
<event>
 5    1  0.3261711E-002  0.1249992E+03  0.7818608E-02  0.1235071E+00
          4   -1    0    0  501    0  0.00000000000E+00  0.00000000000E+00  0.62777928406E+02  0.62790773167E+02  0.12700000000E+01 0. -1.
         -4   -1    0    0    0  501 -0.00000000000E+00 -0.00000000000E+00 -0.62196778169E+02  0.62209742923E+02  0.12700000000E+01 0. -1.
         25    2    1    2    0    0  0.00000000000E+00  0.00000000000E+00  0.58115023710E+00  0.12500051609E+03  0.12499916515E+03 0.  0.
    9000005    1    3    3    0    0 -0.44572619057E+02  0.18781089575E+01  0.44051214412E+02  0.62703709252E+02  0.10000000000E+01 0.  0.
    9000005    1    3    3    0    0  0.44572619057E+02 -0.18781089575E+01 -0.43470064175E+02  0.62296806838E+02  0.10000000000E+01 0.  0.
<mgrwt>
<rscale>  0 0.12499917E+03</rscale>
<asrwt>0</asrwt>
<pdfrwt beam="1">  1        4 0.96601281E-02 0.12499917E+03</pdfrwt>
<pdfrwt beam="2">  1       -4 0.95707205E-02 0.12499917E+03</pdfrwt>
<totfact> 0.10453049E+04</totfact>
</mgrwt>
</event>
<event>
 5    1  0.3261711E-002  0.1249990E+03  0.7818608E-02  0.1235071E+00
          4   -1    0    0  501    0  0.00000000000E+00  0.00000000000E+00  0.16882095188E+02  0.16929797339E+02  0.12700000000E+01 0.  1.
         -4   -1    0    0    0  501 -0.00000000000E+00 -0.00000000000E+00 -0.23100445308E+03  0.23100794411E+03  0.12700000000E+01 0.  1.
         25    2    1    2    0    0  0.00000000000E+00  0.00000000000E+00 -0.21412235790E+03  0.24793774145E+03  0.12499895794E+03 0.  0.
    9000005    1    3    3    0    0  0.43482622756E+02 -0.23276010754E+02 -0.18317955525E+03  0.18970572110E+03  0.10000000000E+01 0.  0.
    9000005    1    3    3    0    0 -0.43482622756E+02  0.23276010754E+02 -0.30942802646E+02  0.58232020349E+02  0.10000000000E+01 0.  0.
<mgrwt>
<rscale>  0 0.12499896E+03</rscale>
<asrwt>0</asrwt>
<pdfrwt beam="1">  1        4 0.26011835E-02 0.12499896E+03</pdfrwt>
<pdfrwt beam="2">  1       -4 0.35543082E-01 0.12499896E+03</pdfrwt>
<totfact> 0.82631124E+03</totfact>
</mgrwt>
</event>
<event>
 5    1  0.3261711E-002  0.1250013E+03  0.7818608E-02  0.1235067E+00
          4   -1    0    0  501    0  0.00000000000E+00  0.00000000000E+00  0.24324142336E+02  0.24357274075E+02  0.12700000000E+01 0. -1.
         -4   -1    0    0    0  501 -0.00000000000E+00 -0.00000000000E+00 -0.16044999032E+03  0.16045501642E+03  0.12700000000E+01 0. -1.
         25    2    1    2    0    0  0.00000000000E+00  0.00000000000E+00 -0.13612584798E+03  0.18481229049E+03  0.12500134490E+03 0.  0.
    9000005    1    3    3    0    0  0.55153557750E+02 -0.43614260194E+01 -0.25100425763E+02  0.60761569622E+02  0.10000000000E+01 0.  0.
    9000005    1    3    3    0    0 -0.55153557750E+02  0.43614260194E+01 -0.11102542222E+03  0.12405072087E+03  0.10000000000E+01 0.  0.
<mgrwt>
<rscale>  0 0.12500134E+03</rscale>
<asrwt>0</asrwt>
<pdfrwt beam="1">  1        4 0.37451111E-02 0.12500134E+03</pdfrwt>
<pdfrwt beam="2">  1       -4 0.24687548E-01 0.12500134E+03</pdfrwt>
<totfact> 0.92755082E+03</totfact>
</mgrwt>
</event>
<event>
 5    1  0.3261711E-002  0.1250125E+03  0.7818608E-02  0.1235050E+00
         -4   -1    0    0    0  501 -0.00000000000E+00  0.00000000000E+00  0.58755077517E+02  0.58768801536E+02  0.12700000000E+01 0.  1.
          4   -1    0    0  501    0  0.00000000000E+00 -0.00000000000E+00 -0.66469335270E+02  0.66481466825E+02  0.12700000000E+01 0.  1.
         25    2    1    2    0    0  0.00000000000E+00  0.00000000000E+00 -0.77142577531E+01  0.12525026836E+03  0.12501247919E+03 0.  0.
    9000005    1    3    3    0    0  0.53936014794E+02  0.22035599860E+02  0.18799346085E+02  0.61229704934E+02  0.10000000000E+01 0.  0.
    9000005    1    3    3    0    0 -0.53936014794E+02 -0.22035599860E+02 -0.26513603838E+02  0.64020563428E+02  0.10000000000E+01 0.  0.
<mgrwt>
<rscale>  0 0.12501248E+03</rscale>
<asrwt>0</asrwt>
<pdfrwt beam="2">  1        4 0.10228040E-01 0.12501248E+03</pdfrwt>
<pdfrwt beam="1">  1       -4 0.90412317E-02 0.12501248E+03</pdfrwt>
<totfact> 0.10444483E+04</totfact>
</mgrwt>
</event>
<event>
 5    1  0.3261711E-002  0.1250018E+03  0.7818608E-02  0.1235066E+00
         -4   -1    0    0    0  501 -0.00000000000E+00  0.00000000000E+00  0.21778343202E+02  0.21815341680E+02  0.12700000000E+01 0. -1.
          4   -1    0    0  501    0  0.00000000000E+00 -0.00000000000E+00 -0.17917773573E+03  0.17918223651E+03  0.12700000000E+01 0. -1.
         25    2    1    2    0    0  0.00000000000E+00  0.00000000000E+00 -0.15739939253E+03  0.20099757819E+03  0.12500183067E+03 0.  0.
    9000005    1    3    3    0    0  0.14214931156E+02 -0.48813873021E+02 -0.13713087300E+03  0.14625571714E+03  0.10000000000E+01 0.  0.
    9000005    1    3    3    0    0 -0.14214931156E+02  0.48813873021E+02 -0.20268519527E+02  0.54741861047E+02  0.10000000000E+01 0.  0.
<mgrwt>
<rscale>  0 0.12500183E+03</rscale>
<asrwt>0</asrwt>
<pdfrwt beam="2">  1        4 0.27568997E-01 0.12500183E+03</pdfrwt>
<pdfrwt beam="1">  1       -4 0.33537067E-02 0.12500183E+03</pdfrwt>
<totfact> 0.89963844E+03</totfact>
</mgrwt>
</event>
<event>
 5    1  0.3261711E-002  0.1250013E+03  0.7818608E-02  0.1235067E+00
         -4   -1    0    0    0  501 -0.00000000000E+00  0.00000000000E+00  0.70962979810E+02  0.70974343276E+02  0.12700000000E+01 0.  1.
          4   -1    0    0  501    0  0.00000000000E+00 -0.00000000000E+00 -0.55024360031E+02  0.55039014315E+02  0.12700000000E+01 0.  1.
         25    2    1    2    0    0  0.00000000000E+00  0.00000000000E+00  0.15938619779E+02  0.12601335759E+03  0.12500130676E+03 0.  0.
    9000005    1    3    3    0    0 -0.42064098648E+02 -0.16115692940E+02  0.51635450021E+02  0.68529728241E+02  0.10000000000E+01 0.  0.
    9000005    1    3    3    0    0  0.42064098648E+02  0.16115692940E+02 -0.35696830242E+02  0.57483629350E+02  0.10000000000E+01 0.  0.
<mgrwt>
<rscale>  0 0.12500131E+03</rscale>
<asrwt>0</asrwt>
<pdfrwt beam="2">  1        4 0.84672876E-02 0.12500131E+03</pdfrwt>
<pdfrwt beam="1">  1       -4 0.10919383E-01 0.12500131E+03</pdfrwt>
<totfact> 0.10430357E+04</totfact>
</mgrwt>
</event>
<event>
 5    1  0.3261711E-002  0.1250014E+03  0.7818608E-02  0.1235067E+00
          4   -1    0    0  501    0  0.00000000000E+00  0.00000000000E+00  0.51814298636E+01  0.53348022861E+01  0.12700000000E+01 0.  1.
         -4   -1    0    0    0  501 -0.00000000000E+00 -0.00000000000E+00 -0.74276244313E+03  0.74276352887E+03  0.12700000000E+01 0.  1.
         25    2    1    2    0    0  0.00000000000E+00  0.00000000000E+00 -0.73758101326E+03  0.74809833116E+03  0.12500144780E+03 0.  0.
    9000005    1    3    3    0    0 -0.15311793554E+02 -0.40355889771E+02 -0.63925018123E+03  0.64070651867E+03  0.10000000000E+01 0.  0.
    9000005    1    3    3    0    0  0.15311793554E+02  0.40355889771E+02 -0.98330832028E+02  0.10739181248E+03  0.10000000000E+01 0.  0.
<mgrwt>
<rscale>  0 0.12500145E+03</rscale>
<asrwt>0</asrwt>
<pdfrwt beam="1">  1        4 0.80902504E-03 0.12500145E+03</pdfrwt>
<pdfrwt beam="2">  1       -4 0.11428294E+00 0.12500145E+03</pdfrwt>
<totfact> 0.40663995E+03</totfact>
</mgrwt>
</event>
<event>
 5    1  0.3261711E-002  0.1250011E+03  0.7818608E-02  0.1235068E+00
          4   -1    0    0  501    0  0.00000000000E+00  0.00000000000E+00  0.19471955739E+02  0.19513327761E+02  0.12700000000E+01 0.  1.
         -4   -1    0    0    0  501 -0.00000000000E+00 -0.00000000000E+00 -0.20035614849E+03  0.20036017353E+03  0.12700000000E+01 0.  1.
         25    2    1    2    0    0  0.00000000000E+00  0.00000000000E+00 -0.18088419275E+03  0.21987350130E+03  0.12500106153E+03 0.  0.
    9000005    1    3    3    0    0  0.38466994806E+01  0.62296045217E+02 -0.84957597068E+02  0.10542479616E+03  0.10000000000E+01 0.  0.
    9000005    1    3    3    0    0 -0.38466994806E+01 -0.62296045217E+02 -0.95926595685E+02  0.11444870513E+03  0.10000000000E+01 0.  0.
<mgrwt>
<rscale>  0 0.12500106E+03</rscale>
<asrwt>0</asrwt>
<pdfrwt beam="1">  1        4 0.29991777E-02 0.12500106E+03</pdfrwt>
<pdfrwt beam="2">  1       -4 0.30827513E-01 0.12500106E+03</pdfrwt>
<totfact> 0.86886311E+03</totfact>
</mgrwt>
</event>
<event>
 5    1  0.3261711E-002  0.1249976E+03  0.7818608E-02  0.1235073E+00
         -4   -1    0    0    0  501 -0.00000000000E+00  0.00000000000E+00  0.21983575458E+02  0.22020229107E+02  0.12700000000E+01 0.  1.
          4   -1    0    0  501    0  0.00000000000E+00 -0.00000000000E+00 -0.17749570802E+03  0.17750025145E+03  0.12700000000E+01 0.  1.
         25    2    1    2    0    0  0.00000000000E+00  0.00000000000E+00 -0.15551213256E+03  0.19952048056E+03  0.12499759513E+03 0.  0.
    9000005    1    3    3    0    0  0.16890901557E+02  0.11353195746E+02 -0.17206539609E+03  0.17326770657E+03  0.10000000000E+01 0.  0.
    9000005    1    3    3    0    0 -0.16890901557E+02 -0.11353195746E+02  0.16553263522E+02  0.26252773992E+02  0.10000000000E+01 0.  0.
<mgrwt>
<rscale>  0 0.12499760E+03</rscale>
<asrwt>0</asrwt>
<pdfrwt beam="2">  1        4 0.27310200E-01 0.12499760E+03</pdfrwt>
<pdfrwt beam="1">  1       -4 0.33852577E-02 0.12499760E+03</pdfrwt>
<totfact> 0.90221300E+03</totfact>
</mgrwt>
</event>
<event>
 5    1  0.3261711E-002  0.1249992E+03  0.7818608E-02  0.1235071E+00
          4   -1    0    0  501    0  0.00000000000E+00  0.00000000000E+00  0.42687601139E+02  0.42706488863E+02  0.12700000000E+01 0.  1.
         -4   -1    0    0    0  501 -0.00000000000E+00 -0.00000000000E+00 -0.91463131150E+02  0.91471947939E+02  0.12700000000E+01 0.  1.
         25    2    1    2    0    0  0.00000000000E+00  0.00000000000E+00 -0.48775530011E+02  0.13417843680E+03  0.12499920230E+03 0.  0.
    9000005    1    3    3    0    0 -0.55507711435E+02 -0.18199448361E+01  0.63653686708E+01  0.55910071957E+02  0.10000000000E+01 0.  0.
    9000005    1    3    3    0    0  0.55507711435E+02  0.18199448361E+01 -0.55140898682E+02  0.78268364844E+02  0.10000000000E+01 0.  0.
<mgrwt>
<rscale>  0 0.12499920E+03</rscale>
<asrwt>0</asrwt>
<pdfrwt beam="1">  1        4 0.65694544E-02 0.12499920E+03</pdfrwt>
<pdfrwt beam="2">  1       -4 0.14073382E-01 0.12499920E+03</pdfrwt>
<totfact> 0.10255601E+04</totfact>
</mgrwt>
</event>
<event>
 5    1  0.3261711E-002  0.1250027E+03  0.7818608E-02  0.1235065E+00
         -4   -1    0    0    0  501 -0.00000000000E+00  0.00000000000E+00  0.38618884987E+02  0.38639761614E+02  0.12700000000E+01 0. -1.
          4   -1    0    0  501    0  0.00000000000E+00 -0.00000000000E+00 -0.10110094642E+03  0.10110892278E+03  0.12700000000E+01 0. -1.
         25    2    1    2    0    0  0.00000000000E+00  0.00000000000E+00 -0.62482061430E+02  0.13974868440E+03  0.12500274713E+03 0.  0.
    9000005    1    3    3    0    0  0.92862374855E+01  0.35552840294E+02 -0.87752835666E+02  0.95140941907E+02  0.10000000000E+01 0.  0.
    9000005    1    3    3    0    0 -0.92862374855E+01 -0.35552840294E+02  0.25270774235E+02  0.44607742490E+02  0.10000000000E+01 0.  0.
<mgrwt>
<rscale>  0 0.12500275E+03</rscale>
<asrwt>0</asrwt>
<pdfrwt beam="2">  1        4 0.15556211E-01 0.12500275E+03</pdfrwt>
<pdfrwt beam="1">  1       -4 0.59435864E-02 0.12500275E+03</pdfrwt>
<totfact> 0.10138170E+04</totfact>
</mgrwt>
</event>
<event>
 5    1  0.3261711E-002  0.1249997E+03  0.7818608E-02  0.1235070E+00
         -4   -1    0    0    0  501 -0.00000000000E+00  0.00000000000E+00  0.15550076945E+03  0.15550595551E+03  0.12700000000E+01 0. -1.
          4   -1    0    0  501    0  0.00000000000E+00 -0.00000000000E+00 -0.25098673323E+02  0.25130783962E+02  0.12700000000E+01 0. -1.
         25    2    1    2    0    0  0.00000000000E+00  0.00000000000E+00  0.13040209613E+03  0.18063673947E+03  0.12499969989E+03 0.  0.
    9000005    1    3    3    0    0 -0.17619475136E+02  0.11992726401E+02 -0.19691011218E+02  0.29034588225E+02  0.10000000000E+01 0.  0.
    9000005    1    3    3    0    0  0.17619475136E+02 -0.11992726401E+02  0.15009310735E+03  0.15160215125E+03  0.10000000000E+01 0.  0.
<mgrwt>
<rscale>  0 0.12499970E+03</rscale>
<asrwt>0</asrwt>
<pdfrwt beam="2">  1        4 0.38642034E-02 0.12499970E+03</pdfrwt>
<pdfrwt beam="1">  1       -4 0.23926064E-01 0.12499970E+03</pdfrwt>
<totfact> 0.93503143E+03</totfact>
</mgrwt>
</event>
<event>
 5    1  0.3261711E-002  0.1250056E+03  0.7818608E-02  0.1235060E+00
          4   -1    0    0  501    0  0.00000000000E+00  0.00000000000E+00  0.11120782982E+02  0.11193065448E+02  0.12700000000E+01 0.  1.
         -4   -1    0    0    0  501 -0.00000000000E+00 -0.00000000000E+00 -0.35007699116E+03  0.35007929479E+03  0.12700000000E+01 0.  1.
         25    2    1    2    0    0  0.00000000000E+00  0.00000000000E+00 -0.33895620818E+03  0.36127236023E+03  0.12500562871E+03 0.  0.
    9000005    1    3    3    0    0 -0.19699571671E+01  0.61454837047E+02 -0.13716326545E+03  0.15031746112E+03  0.10000000000E+01 0.  0.
    9000005    1    3    3    0    0  0.19699571671E+01 -0.61454837047E+02 -0.20179294272E+03  0.21095489911E+03  0.10000000000E+01 0.  0.
<mgrwt>
<rscale>  0 0.12500563E+03</rscale>
<asrwt>0</asrwt>
<pdfrwt beam="1">  1        4 0.17166273E-02 0.12500563E+03</pdfrwt>
<pdfrwt beam="2">  1       -4 0.53863728E-01 0.12500563E+03</pdfrwt>
<totfact> 0.68493481E+03</totfact>
</mgrwt>
</event>
<event>
 5    1  0.3261711E-002  0.1249989E+03  0.7818608E-02  0.1235071E+00
         -4   -1    0    0    0  501 -0.00000000000E+00  0.00000000000E+00  0.45217455649E+02  0.45235287060E+02  0.12700000000E+01 0.  1.
          4   -1    0    0  501    0  0.00000000000E+00 -0.00000000000E+00 -0.86347032543E+02  0.86356371675E+02  0.12700000000E+01 0.  1.
         25    2    1    2    0    0  0.00000000000E+00  0.00000000000E+00 -0.41129576894E+02  0.13159165874E+03  0.12499889021E+03 0.  0.
    9000005    1    3    3    0    0  0.19658477751E+02  0.49012065838E+02 -0.55741868997E+02  0.76790587343E+02  0.10000000000E+01 0.  0.
    9000005    1    3    3    0    0 -0.19658477751E+02 -0.49012065838E+02  0.14612292103E+02  0.54801071392E+02  0.10000000000E+01 0.  0.
<mgrwt>
<rscale>  0 0.12499889E+03</rscale>
<asrwt>0</asrwt>
<pdfrwt beam="2">  1        4 0.13286249E-01 0.12499889E+03</pdfrwt>
<pdfrwt beam="1">  1       -4 0.69586217E-02 0.12499889E+03</pdfrwt>
<totfact> 0.10310680E+04</totfact>
</mgrwt>
</event>
<event>
 5    1  0.3261711E-002  0.1250017E+03  0.7818608E-02  0.1235067E+00
         -4   -1    0    0    0  501 -0.00000000000E+00  0.00000000000E+00  0.91527565833E+03  0.91527653943E+03  0.12700000000E+01 0. -1.
          4   -1    0    0  501    0  0.00000000000E+00 -0.00000000000E+00 -0.41725732487E+01  0.43615670941E+01  0.12700000000E+01 0. -1.
         25    2    1    2    0    0  0.00000000000E+00  0.00000000000E+00  0.91110308509E+03  0.91963810653E+03  0.12500166130E+03 0.  0.
    9000005    1    3    3    0    0 -0.19571102665E+02 -0.66262255720E+01  0.21649079717E+02  0.29943573225E+02  0.10000000000E+01 0.  0.
    9000005    1    3    3    0    0  0.19571102665E+02  0.66262255720E+01  0.88945400537E+03  0.88969453330E+03  0.10000000000E+01 0.  0.
<mgrwt>
<rscale>  0 0.12500166E+03</rscale>
<asrwt>0</asrwt>
<pdfrwt beam="2">  1        4 0.65653943E-03 0.12500166E+03</pdfrwt>
<pdfrwt beam="1">  1       -4 0.14082639E+00 0.12500166E+03</pdfrwt>
<totfact> 0.33417779E+03</totfact>
</mgrwt>
</event>
<event>
 5    1  0.3261711E-002  0.1250021E+03  0.7818608E-02  0.1235066E+00
          4   -1    0    0  501    0  0.00000000000E+00  0.00000000000E+00  0.29983088666E+02  0.30009973441E+02  0.12700000000E+01 0.  1.
         -4   -1    0    0    0  501 -0.00000000000E+00 -0.00000000000E+00 -0.13019779938E+03  0.13020399327E+03  0.12700000000E+01 0.  1.
         25    2    1    2    0    0  0.00000000000E+00  0.00000000000E+00 -0.10021471071E+03  0.16021396671E+03  0.12500210752E+03 0.  0.
    9000005    1    3    3    0    0 -0.23022714611E+02 -0.34501567236E+02 -0.11001835847E+03  0.11758164283E+03  0.10000000000E+01 0.  0.
    9000005    1    3    3    0    0  0.23022714611E+02  0.34501567236E+02  0.98036477602E+01  0.42632323878E+02  0.10000000000E+01 0.  0.
<mgrwt>
<rscale>  0 0.12500211E+03</rscale>
<asrwt>0</asrwt>
<pdfrwt beam="1">  1        4 0.46153275E-02 0.12500211E+03</pdfrwt>
<pdfrwt beam="2">  1       -4 0.20032975E-01 0.12500211E+03</pdfrwt>
<totfact> 0.97296941E+03</totfact>
</mgrwt>
</event>
<event>
 5    1  0.3261711E-002  0.1249991E+03  0.7818608E-02  0.1235071E+00
          4   -1    0    0  501    0  0.00000000000E+00  0.00000000000E+00  0.56670733349E+02  0.56684962012E+02  0.12700000000E+01 0.  1.
         -4   -1    0    0    0  501 -0.00000000000E+00 -0.00000000000E+00 -0.68899167529E+02  0.68910871320E+02  0.12700000000E+01 0.  1.
         25    2    1    2    0    0  0.00000000000E+00  0.00000000000E+00 -0.12228434180E+02  0.12559583333E+03  0.12499911499E+03 0.  0.
    9000005    1    3    3    0    0  0.17157374955E+02  0.12973852035E+02 -0.65067115655E+02  0.68537769818E+02  0.10000000000E+01 0.  0.
    9000005    1    3    3    0    0 -0.17157374955E+02 -0.12973852035E+02  0.52838681475E+02  0.57058063514E+02  0.10000000000E+01 0.  0.
<mgrwt>
<rscale>  0 0.12499911E+03</rscale>
<asrwt>0</asrwt>
<pdfrwt beam="1">  1        4 0.87205692E-02 0.12499911E+03</pdfrwt>
<pdfrwt beam="2">  1       -4 0.10601867E-01 0.12499911E+03</pdfrwt>
<totfact> 0.10440047E+04</totfact>
</mgrwt>
</event>
<event>
 5    1  0.3261711E-002  0.1249991E+03  0.7818608E-02  0.1235071E+00
         -4   -1    0    0    0  501 -0.00000000000E+00  0.00000000000E+00  0.26382814762E+03  0.26383120432E+03  0.12700000000E+01 0. -1.
          4   -1    0    0  501    0  0.00000000000E+00 -0.00000000000E+00 -0.14775442075E+02  0.14829922067E+02  0.12700000000E+01 0. -1.
         25    2    1    2    0    0  0.00000000000E+00  0.00000000000E+00  0.24905270554E+03  0.27866112639E+03  0.12499909289E+03 0.  0.
    9000005    1    3    3    0    0  0.21912812297E+02  0.21435242465E+02  0.24592736948E+03  0.24783242730E+03  0.10000000000E+01 0.  0.
    9000005    1    3    3    0    0 -0.21912812297E+02 -0.21435242465E+02  0.31253360641E+01  0.30828699093E+02  0.10000000000E+01 0.  0.
<mgrwt>
<rscale>  0 0.12499909E+03</rscale>
<asrwt>0</asrwt>
<pdfrwt beam="2">  1        4 0.22775711E-02 0.12499909E+03</pdfrwt>
<pdfrwt beam="1">  1       -4 0.40593367E-01 0.12499909E+03</pdfrwt>
<totfact> 0.78357549E+03</totfact>
</mgrwt>
</event>
<event>
 5    1  0.3261711E-002  0.1250010E+03  0.7818608E-02  0.1235068E+00
          4   -1    0    0  501    0  0.00000000000E+00  0.00000000000E+00  0.19790200021E+03  0.19790607517E+03  0.12700000000E+01 0. -1.
         -4   -1    0    0    0  501 -0.00000000000E+00 -0.00000000000E+00 -0.19713918146E+02  0.19754783438E+02  0.12700000000E+01 0. -1.
         25    2    1    2    0    0  0.00000000000E+00  0.00000000000E+00  0.17818808207E+03  0.21766085861E+03  0.12500102711E+03 0.  0.
    9000005    1    3    3    0    0  0.26699927217E+02 -0.56183003551E+02  0.78661188915E+02  0.10028957395E+03  0.10000000000E+01 0.  0.
    9000005    1    3    3    0    0 -0.26699927217E+02  0.56183003551E+02  0.99526893152E+02  0.11737128466E+03  0.10000000000E+01 0.  0.
<mgrwt>
<rscale>  0 0.12500103E+03</rscale>
<asrwt>0</asrwt>
<pdfrwt beam="1">  1        4 0.30449920E-01 0.12500103E+03</pdfrwt>
<pdfrwt beam="2">  1       -4 0.30363673E-02 0.12500103E+03</pdfrwt>
<totfact> 0.87237843E+03</totfact>
</mgrwt>
</event>
<event>
 5    1  0.3261711E-002  0.1250007E+03  0.7818608E-02  0.1235068E+00
          4   -1    0    0  501    0  0.00000000000E+00  0.00000000000E+00  0.17585415675E+03  0.17585874259E+03  0.12700000000E+01 0.  1.
         -4   -1    0    0    0  501 -0.00000000000E+00 -0.00000000000E+00 -0.22190218024E+02  0.22226530902E+02  0.12700000000E+01 0.  1.
         25    2    1    2    0    0  0.00000000000E+00  0.00000000000E+00  0.15366393872E+03  0.19808527349E+03  0.12500067804E+03 0.  0.
    9000005    1    3    3    0    0  0.21972457816E+02  0.45754065958E+02  0.19060478874E+02  0.54226610710E+02  0.10000000000E+01 0.  0.
    9000005    1    3    3    0    0 -0.21972457816E+02 -0.45754065958E+02  0.13460345985E+03  0.14385866278E+03  0.10000000000E+01 0.  0.
<mgrwt>
<rscale>  0 0.12500068E+03</rscale>
<asrwt>0</asrwt>
<pdfrwt beam="1">  1        4 0.27057632E-01 0.12500068E+03</pdfrwt>
<pdfrwt beam="2">  1       -4 0.34170257E-02 0.12500068E+03</pdfrwt>
<totfact> 0.90457850E+03</totfact>
</mgrwt>
</event>
<event>
 5    1  0.3261711E-002  0.1249993E+03  0.7818608E-02  0.1235070E+00
          4   -1    0    0  501    0  0.00000000000E+00  0.00000000000E+00  0.72845486744E+02  0.72856556596E+02  0.12700000000E+01 0.  1.
         -4   -1    0    0    0  501 -0.00000000000E+00 -0.00000000000E+00 -0.53600545966E+02  0.53615589410E+02  0.12700000000E+01 0.  1.
         25    2    1    2    0    0  0.00000000000E+00  0.00000000000E+00  0.19244940779E+02  0.12647214601E+03  0.12499934388E+03 0.  0.
    9000005    1    3    3    0    0 -0.52024842093E+01  0.57389154136E+02 -0.14841503890E+02  0.59513453034E+02  0.10000000000E+01 0.  0.
    9000005    1    3    3    0    0  0.52024842093E+01 -0.57389154136E+02  0.34086444669E+02  0.66958692972E+02  0.10000000000E+01 0.  0.
<mgrwt>
<rscale>  0 0.12499934E+03</rscale>
<asrwt>0</asrwt>
<pdfrwt beam="1">  1        4 0.11209007E-01 0.12499934E+03</pdfrwt>
<pdfrwt beam="2">  1       -4 0.82482465E-02 0.12499934E+03</pdfrwt>
<totfact> 0.10420790E+04</totfact>
</mgrwt>
</event>
<event>
 5    1  0.3261711E-002  0.1249959E+03  0.7818608E-02  0.1235076E+00
         -4   -1    0    0    0  501 -0.00000000000E+00  0.00000000000E+00  0.17800752070E+02  0.17845998831E+02  0.12700000000E+01 0. -1.
          4   -1    0    0  501    0  0.00000000000E+00 -0.00000000000E+00 -0.21910305322E+03  0.21910673388E+03  0.12700000000E+01 0. -1.
         25    2    1    2    0    0  0.00000000000E+00  0.00000000000E+00 -0.20130230115E+03  0.23695273271E+03  0.12499592429E+03 0.  0.
    9000005    1    3    3    0    0  0.23921729731E+02  0.53316787708E+02 -0.58685566272E+02  0.82824662350E+02  0.10000000000E+01 0.  0.
    9000005    1    3    3    0    0 -0.23921729731E+02 -0.53316787708E+02 -0.14261673488E+03  0.15412807036E+03  0.10000000000E+01 0.  0.
<mgrwt>
<rscale>  0 0.12499592E+03</rscale>
<asrwt>0</asrwt>
<pdfrwt beam="2">  1        4 0.33711924E-01 0.12499592E+03</pdfrwt>
<pdfrwt beam="1">  1       -4 0.27423410E-02 0.12499592E+03</pdfrwt>
<totfact> 0.84260966E+03</totfact>
</mgrwt>
</event>
<event>
 5    1  0.3261711E-002  0.1250003E+03  0.7818608E-02  0.1235069E+00
          4   -1    0    0  501    0  0.00000000000E+00  0.00000000000E+00  0.13371409721E+02  0.13431585830E+02  0.12700000000E+01 0. -1.
         -4   -1    0    0    0  501 -0.00000000000E+00 -0.00000000000E+00 -0.29141857134E+03  0.29142133865E+03  0.12700000000E+01 0. -1.
         25    2    1    2    0    0  0.00000000000E+00  0.00000000000E+00 -0.27804716161E+03  0.30485292448E+03  0.12500032592E+03 0.  0.
    9000005    1    3    3    0    0  0.30342461770E+01 -0.21932989531E+02 -0.28154333454E+03  0.28241443289E+03  0.10000000000E+01 0.  0.
    9000005    1    3    3    0    0 -0.30342461770E+01  0.21932989531E+02  0.34961729269E+01  0.22438491588E+02  0.10000000000E+01 0.  0.
<mgrwt>
<rscale>  0 0.12500033E+03</rscale>
<asrwt>0</asrwt>
<pdfrwt beam="1">  1        4 0.20619820E-02 0.12500033E+03</pdfrwt>
<pdfrwt beam="2">  1       -4 0.44838464E-01 0.12500033E+03</pdfrwt>
<totfact> 0.74993561E+03</totfact>
</mgrwt>
</event>
<event>
 5    1  0.3261711E-002  0.1249969E+03  0.7818608E-02  0.1235074E+00
          4   -1    0    0  501    0  0.00000000000E+00  0.00000000000E+00  0.13024261833E+04  0.13024268024E+04  0.12700000000E+01 0.  1.
         -4   -1    0    0    0  501 -0.00000000000E+00 -0.00000000000E+00 -0.28639612201E+01  0.31329177886E+01  0.12700000000E+01 0.  1.
         25    2    1    2    0    0  0.00000000000E+00  0.00000000000E+00  0.12995622220E+04  0.13055597202E+04  0.12499685659E+03 0.  0.
    9000005    1    3    3    0    0  0.42603337437E+02 -0.24875066855E+02  0.24915481982E+03  0.25399397149E+03  0.10000000000E+01 0.  0.
    9000005    1    3    3    0    0 -0.42603337437E+02  0.24875066855E+02  0.10504074022E+04  0.10515657487E+04  0.10000000000E+01 0.  0.
<mgrwt>
<rscale>  0 0.12499686E+03</rscale>
<asrwt>0</asrwt>
<pdfrwt beam="1">  1        4 0.20039389E+00 0.12499686E+03</pdfrwt>
<pdfrwt beam="2">  1       -4 0.46134625E-03 0.12499686E+03</pdfrwt>
<totfact> 0.22099206E+03</totfact>
</mgrwt>
</event>
<event>
 5    1  0.3261711E-002  0.1250006E+03  0.7818608E-02  0.1235068E+00
         -4   -1    0    0    0  501 -0.00000000000E+00  0.00000000000E+00  0.43181973818E+02  0.43200645398E+02  0.12700000000E+01 0.  1.
          4   -1    0    0  501    0  0.00000000000E+00 -0.00000000000E+00 -0.90418450367E+02  0.90427369014E+02  0.12700000000E+01 0.  1.
         25    2    1    2    0    0  0.00000000000E+00  0.00000000000E+00 -0.47236476549E+02  0.13362801441E+03  0.12500064607E+03 0.  0.
    9000005    1    3    3    0    0  0.58708521452E+02  0.17619492385E+01 -0.80288139044E+00  0.58748953818E+02  0.10000000000E+01 0.  0.
    9000005    1    3    3    0    0 -0.58708521452E+02 -0.17619492385E+01 -0.46433595158E+02  0.74879060594E+02  0.10000000000E+01 0.  0.
<mgrwt>
<rscale>  0 0.12500065E+03</rscale>
<asrwt>0</asrwt>
<pdfrwt beam="2">  1        4 0.13912653E-01 0.12500065E+03</pdfrwt>
<pdfrwt beam="1">  1       -4 0.66455029E-02 0.12500065E+03</pdfrwt>
<totfact> 0.10266921E+04</totfact>
</mgrwt>
</event>
<event>
 5    1  0.3261711E-002  0.1250005E+03  0.7818608E-02  0.1235068E+00
         -4   -1    0    0    0  501 -0.00000000000E+00  0.00000000000E+00  0.42025647995E+02  0.42044833088E+02  0.12700000000E+01 0.  1.
          4   -1    0    0  501    0  0.00000000000E+00 -0.00000000000E+00 -0.92905238916E+02  0.92913918861E+02  0.12700000000E+01 0.  1.
         25    2    1    2    0    0  0.00000000000E+00  0.00000000000E+00 -0.50879590922E+02  0.13495875195E+03  0.12500052782E+03 0.  0.
    9000005    1    3    3    0    0 -0.39103952541E+02 -0.86286625527E+01 -0.77237977211E+02  0.87007344779E+02  0.10000000000E+01 0.  0.
    9000005    1    3    3    0    0  0.39103952541E+02  0.86286625527E+01  0.26358386289E+02  0.47951407170E+02  0.10000000000E+01 0.  0.
<mgrwt>
<rscale>  0 0.12500053E+03</rscale>
<asrwt>0</asrwt>
<pdfrwt beam="2">  1        4 0.14295257E-01 0.12500053E+03</pdfrwt>
<pdfrwt beam="1">  1       -4 0.64676278E-02 0.12500053E+03</pdfrwt>
<totfact> 0.10238818E+04</totfact>
</mgrwt>
</event>
<event>
 5    1  0.3261711E-002  0.1249974E+03  0.7818608E-02  0.1235073E+00
         -4   -1    0    0    0  501 -0.00000000000E+00  0.00000000000E+00  0.15702858500E+02  0.15754131683E+02  0.12700000000E+01 0.  1.
          4   -1    0    0  501    0  0.00000000000E+00 -0.00000000000E+00 -0.24829186377E+03  0.24829511174E+03  0.12700000000E+01 0.  1.
         25    2    1    2    0    0  0.00000000000E+00  0.00000000000E+00 -0.23258900527E+03  0.26404924342E+03  0.12499743029E+03 0.  0.
    9000005    1    3    3    0    0 -0.32177129384E+02 -0.33418273315E+01 -0.33520960075E+01  0.32538777066E+02  0.10000000000E+01 0.  0.
    9000005    1    3    3    0    0  0.32177129384E+02  0.33418273315E+01 -0.22923690926E+03  0.23151046636E+03  0.10000000000E+01 0.  0.
<mgrwt>
<rscale>  0 0.12499743E+03</rscale>
<asrwt>0</asrwt>
<pdfrwt beam="2">  1        4 0.38202939E-01 0.12499743E+03</pdfrwt>
<pdfrwt beam="1">  1       -4 0.24200185E-02 0.12499743E+03</pdfrwt>
<totfact> 0.80345740E+03</totfact>
</mgrwt>
</event>
<event>
 5    1  0.3261711E-002  0.1250061E+03  0.7818608E-02  0.1235060E+00
         -4   -1    0    0    0  501 -0.00000000000E+00  0.00000000000E+00  0.16796258765E+02  0.16844204003E+02  0.12700000000E+01 0. -1.
          4   -1    0    0  501    0  0.00000000000E+00 -0.00000000000E+00 -0.23220821299E+03  0.23221168593E+03  0.12700000000E+01 0. -1.
         25    2    1    2    0    0  0.00000000000E+00  0.00000000000E+00 -0.21541195423E+03  0.24905588993E+03  0.12500610499E+03 0.  0.
    9000005    1    3    3    0    0 -0.54376605395E+02  0.29940580763E+02 -0.12212513736E+03  0.13699928016E+03  0.10000000000E+01 0.  0.
    9000005    1    3    3    0    0  0.54376605395E+02 -0.29940580763E+02 -0.93286816875E+02  0.11205660977E+03  0.10000000000E+01 0.  0.
<mgrwt>
<rscale>  0 0.12500610E+03</rscale>
<asrwt>0</asrwt>
<pdfrwt beam="2">  1        4 0.35728293E-01 0.12500610E+03</pdfrwt>
<pdfrwt beam="1">  1       -4 0.25879952E-02 0.12500610E+03</pdfrwt>
<totfact> 0.82455659E+03</totfact>
</mgrwt>
</event>
<event>
 5    1  0.3261711E-002  0.1250043E+03  0.7818608E-02  0.1235063E+00
          4   -1    0    0  501    0  0.00000000000E+00  0.00000000000E+00  0.39249910536E+02  0.39270451704E+02  0.12700000000E+01 0. -1.
         -4   -1    0    0    0  501 -0.00000000000E+00 -0.00000000000E+00 -0.99478730343E+02  0.99486836770E+02  0.12700000000E+01 0. -1.
         25    2    1    2    0    0  0.00000000000E+00  0.00000000000E+00 -0.60228819807E+02  0.13875728847E+03  0.12500429740E+03 0.  0.
    9000005    1    3    3    0    0  0.47344351832E+02  0.92389362595E+01 -0.74218305510E+02  0.88522327503E+02  0.10000000000E+01 0.  0.
    9000005    1    3    3    0    0 -0.47344351832E+02 -0.92389362595E+01  0.13989485703E+02  0.50234960972E+02  0.10000000000E+01 0.  0.
<mgrwt>
<rscale>  0 0.12500430E+03</rscale>
<asrwt>0</asrwt>
<pdfrwt beam="1">  1        4 0.60406515E-02 0.12500430E+03</pdfrwt>
<pdfrwt beam="2">  1       -4 0.15306624E-01 0.12500430E+03</pdfrwt>
<totfact> 0.10158423E+04</totfact>
</mgrwt>
</event>
<event>
 5    1  0.3261711E-002  0.1250016E+03  0.7818608E-02  0.1235067E+00
          4   -1    0    0  501    0  0.00000000000E+00  0.00000000000E+00  0.95831103888E+01  0.96668973680E+01  0.12700000000E+01 0.  1.
         -4   -1    0    0    0  501 -0.00000000000E+00 -0.00000000000E+00 -0.40576940382E+03  0.40577139127E+03  0.12700000000E+01 0.  1.
         25    2    1    2    0    0  0.00000000000E+00  0.00000000000E+00 -0.39618629343E+03  0.41543828864E+03  0.12500157026E+03 0.  0.
    9000005    1    3    3    0    0 -0.16881022731E+02 -0.20949325429E+02 -0.38555260403E+03  0.38649146645E+03  0.10000000000E+01 0.  0.
    9000005    1    3    3    0    0  0.16881022731E+02  0.20949325429E+02 -0.10633689392E+02  0.28946822183E+02  0.10000000000E+01 0.  0.
<mgrwt>
<rscale>  0 0.12500157E+03</rscale>
<asrwt>0</asrwt>
<pdfrwt beam="1">  1        4 0.14809230E-02 0.12500157E+03</pdfrwt>
<pdfrwt beam="2">  1       -4 0.62432647E-01 0.12500157E+03</pdfrwt>
<totfact> 0.63076295E+03</totfact>
</mgrwt>
</event>
<event>
 5    1  0.3261711E-002  0.1249926E+03  0.7818608E-02  0.1235081E+00
          4   -1    0    0  501    0  0.00000000000E+00  0.00000000000E+00  0.62486546832E+03  0.62486675891E+03  0.12700000000E+01 0.  1.
         -4   -1    0    0    0  501 -0.00000000000E+00 -0.00000000000E+00 -0.61847861306E+01  0.63138323926E+01  0.12700000000E+01 0.  1.
         25    2    1    2    0    0  0.00000000000E+00  0.00000000000E+00  0.61868068219E+03  0.63118059131E+03  0.12499260910E+03 0.  0.
    9000005    1    3    3    0    0 -0.55532199682E+01  0.22894379479E+02  0.60160651965E+03  0.60206843079E+03  0.10000000000E+01 0.  0.
    9000005    1    3    3    0    0  0.55532199682E+01 -0.22894379479E+02  0.17074162533E+02  0.29112160517E+02  0.10000000000E+01 0.  0.
<mgrwt>
<rscale>  0 0.12499261E+03</rscale>
<asrwt>0</asrwt>
<pdfrwt beam="1">  1        4 0.96143185E-01 0.12499261E+03</pdfrwt>
<pdfrwt beam="2">  1       -4 0.96153137E-03 0.12499261E+03</pdfrwt>
<totfact> 0.46964354E+03</totfact>
</mgrwt>
</event>
<event>
 5    1  0.3261711E-002  0.1249993E+03  0.7818608E-02  0.1235070E+00
          4   -1    0    0  501    0  0.00000000000E+00  0.00000000000E+00  0.58456322882E+03  0.58456460840E+03  0.12700000000E+01 0. -1.
         -4   -1    0    0    0  501 -0.00000000000E+00 -0.00000000000E+00 -0.66205182426E+01  0.67412285083E+01  0.12700000000E+01 0. -1.
         25    2    1    2    0    0  0.00000000000E+00  0.00000000000E+00  0.57794271058E+03  0.59130583691E+03  0.12499926419E+03 0.  0.
    9000005    1    3    3    0    0 -0.10910843403E+02  0.53789782582E+02  0.43031812439E+03  0.43380534274E+03  0.10000000000E+01 0.  0.
    9000005    1    3    3    0    0  0.10910843403E+02 -0.53789782582E+02  0.14762458619E+03  0.15750049417E+03  0.10000000000E+01 0.  0.
<mgrwt>
<rscale>  0 0.12499926E+03</rscale>
<asrwt>0</asrwt>
<pdfrwt beam="1">  1        4 0.89942210E-01 0.12499926E+03</pdfrwt>
<pdfrwt beam="2">  1       -4 0.10279326E-02 0.12499926E+03</pdfrwt>
<totfact> 0.49421842E+03</totfact>
</mgrwt>
</event>
<event>
 5    1  0.3261711E-002  0.1249996E+03  0.7818608E-02  0.1235070E+00
         -4   -1    0    0    0  501 -0.00000000000E+00  0.00000000000E+00  0.35019437903E+02  0.35042458975E+02  0.12700000000E+01 0. -1.
          4   -1    0    0  501    0  0.00000000000E+00 -0.00000000000E+00 -0.11148115721E+03  0.11148839094E+03  0.12700000000E+01 0. -1.
         25    2    1    2    0    0  0.00000000000E+00  0.00000000000E+00 -0.76461719310E+02  0.14653084991E+03  0.12499958182E+03 0.  0.
    9000005    1    3    3    0    0  0.13508633317E+02 -0.59831598762E+02 -0.52245041246E+02  0.80578208713E+02  0.10000000000E+01 0.  0.
    9000005    1    3    3    0    0 -0.13508633317E+02  0.59831598762E+02 -0.24216678063E+02  0.65952641198E+02  0.10000000000E+01 0.  0.
<mgrwt>
<rscale>  0 0.12499958E+03</rscale>
<asrwt>0</asrwt>
<pdfrwt beam="2">  1        4 0.17153274E-01 0.12499958E+03</pdfrwt>
<pdfrwt beam="1">  1       -4 0.53899332E-02 0.12499958E+03</pdfrwt>
<totfact> 0.10000071E+04</totfact>
</mgrwt>
</event>
<event>
 5    1  0.3261711E-002  0.1250047E+03  0.7818608E-02  0.1235062E+00
          4   -1    0    0  501    0  0.00000000000E+00  0.00000000000E+00  0.51452251758E+01  0.52996454701E+01  0.12700000000E+01 0. -1.
         -4   -1    0    0    0  501 -0.00000000000E+00 -0.00000000000E+00 -0.74787603306E+03  0.74787711137E+03  0.12700000000E+01 0. -1.
         25    2    1    2    0    0  0.00000000000E+00  0.00000000000E+00 -0.74273080788E+03  0.75317675684E+03  0.12500469622E+03 0.  0.
    9000005    1    3    3    0    0 -0.14539692924E+01 -0.34376244566E+02 -0.57031685407E+02  0.66614212879E+02  0.10000000000E+01 0.  0.
    9000005    1    3    3    0    0  0.14539692924E+01  0.34376244566E+02 -0.68569912247E+03  0.68656254397E+03  0.10000000000E+01 0.  0.
<mgrwt>
<rscale>  0 0.12500470E+03</rscale>
<asrwt>0</asrwt>
<pdfrwt beam="1">  1        4 0.80353513E-03 0.12500470E+03</pdfrwt>
<pdfrwt beam="2">  1       -4 0.11506973E+00 0.12500470E+03</pdfrwt>
<totfact> 0.40418526E+03</totfact>
</mgrwt>
</event>
<event>
 5    1  0.3261711E-002  0.1249997E+03  0.7818608E-02  0.1235070E+00
         -4   -1    0    0    0  501 -0.00000000000E+00  0.00000000000E+00  0.99990437955E+02  0.99998502901E+02  0.12700000000E+01 0.  1.
          4   -1    0    0  501    0  0.00000000000E+00 -0.00000000000E+00 -0.39046057894E+02  0.39066706248E+02  0.12700000000E+01 0.  1.
         25    2    1    2    0    0  0.00000000000E+00  0.00000000000E+00  0.60944380062E+02  0.13906520915E+03  0.12499965974E+03 0.  0.
    9000005    1    3    3    0    0  0.32135281291E+02  0.20839802542E+02  0.85407202770E+02  0.93607499478E+02  0.10000000000E+01 0.  0.
    9000005    1    3    3    0    0 -0.32135281291E+02 -0.20839802542E+02 -0.24462822708E+02  0.45457709671E+02  0.10000000000E+01 0.  0.
<mgrwt>
<rscale>  0 0.12499966E+03</rscale>
<asrwt>0</asrwt>
<pdfrwt beam="2">  1        4 0.60092947E-02 0.12499966E+03</pdfrwt>
<pdfrwt beam="1">  1       -4 0.15385353E-01 0.12499966E+03</pdfrwt>
<totfact> 0.10153074E+04</totfact>
</mgrwt>
</event>
<event>
 5    1  0.3261711E-002  0.1249894E+03  0.7818608E-02  0.1235086E+00
          4   -1    0    0  501    0  0.00000000000E+00  0.00000000000E+00  0.17803998091E+02  0.17849236623E+02  0.12700000000E+01 0. -1.
         -4   -1    0    0    0  501 -0.00000000000E+00 -0.00000000000E+00 -0.21904033045E+03  0.21904401217E+03  0.12700000000E+01 0. -1.
         25    2    1    2    0    0  0.00000000000E+00  0.00000000000E+00 -0.20123633236E+03  0.23689324879E+03  0.12498939898E+03 0.  0.
    9000005    1    3    3    0    0 -0.27752261480E+02  0.21309144914E+02 -0.24947159064E+01  0.35092610072E+02  0.10000000000E+01 0.  0.
    9000005    1    3    3    0    0  0.27752261480E+02 -0.21309144914E+02 -0.19874161646E+03  0.20180063872E+03  0.10000000000E+01 0.  0.
<mgrwt>
<rscale>  0 0.12498940E+03</rscale>
<asrwt>0</asrwt>
<pdfrwt beam="1">  1        4 0.27428399E-02 0.12498940E+03</pdfrwt>
<pdfrwt beam="2">  1       -4 0.33702274E-01 0.12498940E+03</pdfrwt>
<totfact> 0.84282172E+03</totfact>
</mgrwt>
</event>
<event>
 5    1  0.3261711E-002  0.1249985E+03  0.7818608E-02  0.1235072E+00
         -4   -1    0    0    0  501 -0.00000000000E+00  0.00000000000E+00  0.11702348055E+03  0.11703037170E+03  0.12700000000E+01 0. -1.
          4   -1    0    0  501    0  0.00000000000E+00 -0.00000000000E+00 -0.33359294977E+02  0.33383460896E+02  0.12700000000E+01 0. -1.
         25    2    1    2    0    0  0.00000000000E+00  0.00000000000E+00  0.83664185571E+02  0.15041383259E+03  0.12499850034E+03 0.  0.
    9000005    1    3    3    0    0 -0.56672320029E+02 -0.26322378339E+02  0.42713739379E+02  0.75697311647E+02  0.10000000000E+01 0.  0.
    9000005    1    3    3    0    0  0.56672320029E+02  0.26322378339E+02  0.40950446193E+02  0.74716520946E+02  0.10000000000E+01 0.  0.
<mgrwt>
<rscale>  0 0.12499850E+03</rscale>
<asrwt>0</asrwt>
<pdfrwt beam="2">  1        4 0.51345883E-02 0.12499850E+03</pdfrwt>
<pdfrwt beam="1">  1       -4 0.18006001E-01 0.12499850E+03</pdfrwt>
<totfact> 0.99224620E+03</totfact>
</mgrwt>
</event>
<event>
 5    1  0.3261711E-002  0.1250074E+03  0.7818608E-02  0.1235058E+00
         -4   -1    0    0    0  501 -0.00000000000E+00  0.00000000000E+00  0.47722364344E+02  0.47739260138E+02  0.12700000000E+01 0.  1.
          4   -1    0    0  501    0  0.00000000000E+00 -0.00000000000E+00 -0.81827095849E+02  0.81836950793E+02  0.12700000000E+01 0.  1.
         25    2    1    2    0    0  0.00000000000E+00  0.00000000000E+00 -0.34104731505E+02  0.12957621093E+03  0.12500744669E+03 0.  0.
    9000005    1    3    3    0    0 -0.45746479623E+02 -0.40745559857E+02 -0.42404325698E+01  0.61415977680E+02  0.10000000000E+01 0.  0.
    9000005    1    3    3    0    0  0.45746479623E+02  0.40745559857E+02 -0.29864298935E+02  0.68160233251E+02  0.10000000000E+01 0.  0.
<mgrwt>
<rscale>  0 0.12500745E+03</rscale>
<asrwt>0</asrwt>
<pdfrwt beam="2">  1        4 0.12590842E-01 0.12500745E+03</pdfrwt>
<pdfrwt beam="1">  1       -4 0.73439599E-02 0.12500745E+03</pdfrwt>
<totfact> 0.10351841E+04</totfact>
</mgrwt>
</event>
<event>
 5    1  0.3261711E-002  0.1250098E+03  0.7818608E-02  0.1235054E+00
         -4   -1    0    0    0  501 -0.00000000000E+00  0.00000000000E+00  0.87242320160E+01  0.88161853582E+01  0.12700000000E+01 0.  1.
          4   -1    0    0  501    0  0.00000000000E+00 -0.00000000000E+00 -0.44537694831E+03  0.44537875902E+03  0.12700000000E+01 0.  1.
         25    2    1    2    0    0  0.00000000000E+00  0.00000000000E+00 -0.43665271629E+03  0.45419494438E+03  0.12500981102E+03 0.  0.
    9000005    1    3    3    0    0  0.53852569661E+02  0.19518081602E+02 -0.12750841905E+03  0.13978716571E+03  0.10000000000E+01 0.  0.
    9000005    1    3    3    0    0 -0.53852569661E+02 -0.19518081602E+02 -0.30914429725E+03  0.31440777867E+03  0.10000000000E+01 0.  0.
<mgrwt>
<rscale>  0 0.12500981E+03</rscale>
<asrwt>0</asrwt>
<pdfrwt beam="2">  1        4 0.68526726E-01 0.12500981E+03</pdfrwt>
<pdfrwt beam="1">  1       -4 0.13494025E-02 0.12500981E+03</pdfrwt>
<totfact> 0.59589233E+03</totfact>
</mgrwt>
</event>
<event>
 5    1  0.3261711E-002  0.1249997E+03  0.7818608E-02  0.1235070E+00
          4   -1    0    0  501    0  0.00000000000E+00  0.00000000000E+00  0.40647275120E+03  0.40647473521E+03  0.12700000000E+01 0.  1.
         -4   -1    0    0    0  501 -0.00000000000E+00 -0.00000000000E+00 -0.95660908339E+01  0.96500255876E+01  0.12700000000E+01 0.  1.
         25    2    1    2    0    0  0.00000000000E+00  0.00000000000E+00  0.39690666036E+03  0.41612476080E+03  0.12499967804E+03 0.  0.
    9000005    1    3    3    0    0  0.13043444824E+02 -0.42175042047E+02  0.34569797999E+03  0.34850675602E+03  0.10000000000E+01 0.  0.
    9000005    1    3    3    0    0 -0.13043444824E+02  0.42175042047E+02  0.51208680376E+02  0.67618004780E+02  0.10000000000E+01 0.  0.
<mgrwt>
<rscale>  0 0.12499968E+03</rscale>
<asrwt>0</asrwt>
<pdfrwt beam="1">  1        4 0.62540876E-01 0.12499968E+03</pdfrwt>
<pdfrwt beam="2">  1       -4 0.14783155E-02 0.12499968E+03</pdfrwt>
<totfact> 0.63014604E+03</totfact>
</mgrwt>
</event>
<event>
 5    1  0.3261711E-002  0.1249999E+03  0.7818608E-02  0.1235069E+00
          4   -1    0    0  501    0  0.00000000000E+00  0.00000000000E+00  0.16596515512E+02  0.16645036111E+02  0.12700000000E+01 0.  1.
         -4   -1    0    0    0  501 -0.00000000000E+00 -0.00000000000E+00 -0.23497154497E+03  0.23497497707E+03  0.12700000000E+01 0.  1.
         25    2    1    2    0    0  0.00000000000E+00  0.00000000000E+00 -0.21837502946E+03  0.25162001318E+03  0.12499991016E+03 0.  0.
    9000005    1    3    3    0    0  0.71504523464E+01  0.28341244739E+02 -0.22037315521E+03  0.22230538153E+03  0.10000000000E+01 0.  0.
    9000005    1    3    3    0    0 -0.71504523464E+01 -0.28341244739E+02  0.19981257443E+01  0.29314631647E+02  0.10000000000E+01 0.  0.
<mgrwt>
<rscale>  0 0.12499991E+03</rscale>
<asrwt>0</asrwt>
<pdfrwt beam="1">  1        4 0.25573066E-02 0.12499991E+03</pdfrwt>
<pdfrwt beam="2">  1       -4 0.36153462E-01 0.12499991E+03</pdfrwt>
<totfact> 0.82096813E+03</totfact>
</mgrwt>
</event>
<event>
 5    1  0.3261711E-002  0.1249981E+03  0.7818608E-02  0.1235072E+00
         -4   -1    0    0    0  501 -0.00000000000E+00  0.00000000000E+00  0.88996882513E+01  0.89898471049E+01  0.12700000000E+01 0. -1.
          4   -1    0    0  501    0  0.00000000000E+00 -0.00000000000E+00 -0.43660376780E+03  0.43660561489E+03  0.12700000000E+01 0. -1.
         25    2    1    2    0    0  0.00000000000E+00  0.00000000000E+00 -0.42770407955E+03  0.44559546200E+03  0.12499814435E+03 0.  0.
    9000005    1    3    3    0    0  0.29668834819E+02  0.53908846311E+02 -0.25269554722E+03  0.26008160845E+03  0.10000000000E+01 0.  0.
    9000005    1    3    3    0    0 -0.29668834819E+02 -0.53908846311E+02 -0.17500853233E+03  0.18551385355E+03  0.10000000000E+01 0.  0.
<mgrwt>
<rscale>  0 0.12499814E+03</rscale>
<asrwt>0</asrwt>
<pdfrwt beam="2">  1        4 0.67176871E-01 0.12499814E+03</pdfrwt>
<pdfrwt beam="1">  1       -4 0.13762605E-02 0.12499814E+03</pdfrwt>
<totfact> 0.60349742E+03</totfact>
</mgrwt>
</event>
<event>
 5    1  0.3261711E-002  0.1250009E+03  0.7818608E-02  0.1235068E+00
         -4   -1    0    0    0  501 -0.00000000000E+00  0.00000000000E+00  0.10425844436E+03  0.10426617918E+03  0.12700000000E+01 0. -1.
          4   -1    0    0  501    0  0.00000000000E+00 -0.00000000000E+00 -0.37447664923E+02  0.37469194122E+02  0.12700000000E+01 0. -1.
         25    2    1    2    0    0  0.00000000000E+00  0.00000000000E+00  0.66810779440E+02  0.14173537330E+03  0.12500094318E+03 0.  0.
    9000005    1    3    3    0    0  0.13926524430E+02 -0.47475631503E+01 -0.35461232600E+02  0.38405552412E+02  0.10000000000E+01 0.  0.
    9000005    1    3    3    0    0 -0.13926524430E+02  0.47475631503E+01  0.10227201204E+03  0.10332982089E+03  0.10000000000E+01 0.  0.
<mgrwt>
<rscale>  0 0.12500094E+03</rscale>
<asrwt>0</asrwt>
<pdfrwt beam="2">  1        4 0.57634303E-02 0.12500094E+03</pdfrwt>
<pdfrwt beam="1">  1       -4 0.16042012E-01 0.12500094E+03</pdfrwt>
<totfact> 0.10097531E+04</totfact>
</mgrwt>
</event>
<event>
 5    1  0.3261711E-002  0.1250027E+03  0.7818608E-02  0.1235065E+00
         -4   -1    0    0    0  501 -0.00000000000E+00  0.00000000000E+00  0.46564540637E+02  0.46581856390E+02  0.12700000000E+01 0.  1.
          4   -1    0    0  501    0  0.00000000000E+00 -0.00000000000E+00 -0.83854886165E+02  0.83864502823E+02  0.12700000000E+01 0.  1.
         25    2    1    2    0    0  0.00000000000E+00  0.00000000000E+00 -0.37290345528E+02  0.13044635921E+03  0.12500273102E+03 0.  0.
    9000005    1    3    3    0    0  0.12342311605E+02  0.25774863718E+01 -0.82518879253E+02  0.83482582165E+02  0.10000000000E+01 0.  0.
    9000005    1    3    3    0    0 -0.12342311605E+02 -0.25774863718E+01  0.45228533724E+02  0.46963777048E+02  0.10000000000E+01 0.  0.
<mgrwt>
<rscale>  0 0.12500273E+03</rscale>
<asrwt>0</asrwt>
<pdfrwt beam="2">  1        4 0.12902823E-01 0.12500273E+03</pdfrwt>
<pdfrwt beam="1">  1       -4 0.71658472E-02 0.12500273E+03</pdfrwt>
<totfact> 0.10334331E+04</totfact>
</mgrwt>
</event>
<event>
 5    1  0.3261711E-002  0.1250027E+03  0.7818608E-02  0.1235065E+00
         -4   -1    0    0    0  501 -0.00000000000E+00  0.00000000000E+00  0.10103871350E+03  0.10104669478E+03  0.12700000000E+01 0. -1.
          4   -1    0    0  501    0  0.00000000000E+00 -0.00000000000E+00 -0.38642671437E+02  0.38663535221E+02  0.12700000000E+01 0. -1.
         25    2    1    2    0    0  0.00000000000E+00  0.00000000000E+00  0.62396042061E+02  0.13971023000E+03  0.12500272918E+03 0.  0.
    9000005    1    3    3    0    0  0.22559144747E+02 -0.47108364951E+02  0.69546988102E+02  0.86982162621E+02  0.10000000000E+01 0.  0.
    9000005    1    3    3    0    0 -0.22559144747E+02  0.47108364951E+02 -0.71509460415E+01  0.52728067378E+02  0.10000000000E+01 0.  0.
<mgrwt>
<rscale>  0 0.12500273E+03</rscale>
<asrwt>0</asrwt>
<pdfrwt beam="2">  1        4 0.59472453E-02 0.12500273E+03</pdfrwt>
<pdfrwt beam="1">  1       -4 0.15546636E-01 0.12500273E+03</pdfrwt>
<totfact> 0.10138971E+04</totfact>
</mgrwt>
</event>
<event>
 5    1  0.3261711E-002  0.1250003E+03  0.7818608E-02  0.1235069E+00
         -4   -1    0    0    0  501 -0.00000000000E+00  0.00000000000E+00  0.10133060455E+03  0.10133856284E+03  0.12700000000E+01 0.  1.
          4   -1    0    0  501    0  0.00000000000E+00 -0.00000000000E+00 -0.38529829067E+02  0.38550753921E+02  0.12700000000E+01 0.  1.
         25    2    1    2    0    0  0.00000000000E+00  0.00000000000E+00  0.62800775486E+02  0.13988931676E+03  0.12500033417E+03 0.  0.
    9000005    1    3    3    0    0 -0.96273988691E+01  0.25425535112E+01 -0.37641806404E+02  0.38949415615E+02  0.10000000000E+01 0.  0.
    9000005    1    3    3    0    0  0.96273988691E+01 -0.25425535112E+01  0.10044258189E+03  0.10093990115E+03  0.10000000000E+01 0.  0.
<mgrwt>
<rscale>  0 0.12500033E+03</rscale>
<asrwt>0</asrwt>
<pdfrwt beam="2">  1        4 0.59298877E-02 0.12500033E+03</pdfrwt>
<pdfrwt beam="1">  1       -4 0.15591546E-01 0.12500033E+03</pdfrwt>
<totfact> 0.10135804E+04</totfact>
</mgrwt>
</event>
<event>
 5    1  0.3261711E-002  0.1249844E+03  0.7818608E-02  0.1235094E+00
         -4   -1    0    0    0  501 -0.00000000000E+00  0.00000000000E+00  0.15388511110E+03  0.15389035161E+03  0.12700000000E+01 0.  1.
          4   -1    0    0  501    0  0.00000000000E+00 -0.00000000000E+00 -0.25356285632E+02  0.25388070448E+02  0.12700000000E+01 0.  1.
         25    2    1    2    0    0  0.00000000000E+00  0.00000000000E+00  0.12852882547E+03  0.17927842206E+03  0.12498437358E+03 0.  0.
    9000005    1    3    3    0    0 -0.47337086013E+02 -0.18747828256E+02  0.11622068709E+03  0.12688785948E+03  0.10000000000E+01 0.  0.
    9000005    1    3    3    0    0  0.47337086013E+02  0.18747828256E+02  0.12308138377E+02  0.52390562574E+02  0.10000000000E+01 0.  0.
<mgrwt>
<rscale>  0 0.12498437E+03</rscale>
<asrwt>0</asrwt>
<pdfrwt beam="2">  1        4 0.39038152E-02 0.12498437E+03</pdfrwt>
<pdfrwt beam="1">  1       -4 0.23677480E-01 0.12498437E+03</pdfrwt>
<totfact> 0.93779907E+03</totfact>
</mgrwt>
</event>
<event>
 5    1  0.3261711E-002  0.1249983E+03  0.7818608E-02  0.1235072E+00
          4   -1    0    0  501    0  0.00000000000E+00  0.00000000000E+00  0.12088489976E+02  0.12155019124E+02  0.12700000000E+01 0. -1.
         -4   -1    0    0    0  501 -0.00000000000E+00 -0.00000000000E+00 -0.32217458550E+03  0.32217708863E+03  0.12700000000E+01 0. -1.
         25    2    1    2    0    0  0.00000000000E+00  0.00000000000E+00 -0.31008609552E+03  0.33433210776E+03  0.12499828656E+03 0.  0.
    9000005    1    3    3    0    0  0.12730747694E+01  0.15615485656E+02  0.67632836963E+01  0.17094037498E+02  0.10000000000E+01 0.  0.
    9000005    1    3    3    0    0 -0.12730747694E+01 -0.15615485656E+02 -0.31684937922E+03  0.31723807026E+03  0.10000000000E+01 0.  0.
<mgrwt>
<rscale>  0 0.12499829E+03</rscale>
<asrwt>0</asrwt>
<pdfrwt beam="1">  1        4 0.18650781E-02 0.12499829E+03</pdfrwt>
<pdfrwt beam="2">  1       -4 0.49570625E-01 0.12499829E+03</pdfrwt>
<totfact> 0.71486037E+03</totfact>
</mgrwt>
</event>
<event>
 5    1  0.3261711E-002  0.1249966E+03  0.7818608E-02  0.1235075E+00
         -4   -1    0    0    0  501 -0.00000000000E+00  0.00000000000E+00  0.31946224721E+01  0.34378063848E+01  0.12700000000E+01 0. -1.
          4   -1    0    0  501    0  0.00000000000E+00 -0.00000000000E+00 -0.11776162574E+04  0.11776169422E+04  0.12700000000E+01 0. -1.
         25    2    1    2    0    0  0.00000000000E+00  0.00000000000E+00 -0.11744216349E+04  0.11810547486E+04  0.12499657037E+03 0.  0.
    9000005    1    3    3    0    0 -0.18068532149E+02  0.42948033752E+02 -0.98067052125E+03  0.98177730505E+03  0.10000000000E+01 0.  0.
    9000005    1    3    3    0    0  0.18068532149E+02 -0.42948033752E+02 -0.19375111364E+03  0.19927744352E+03  0.10000000000E+01 0.  0.
<mgrwt>
<rscale>  0 0.12499657E+03</rscale>
<asrwt>0</asrwt>
<pdfrwt beam="2">  1        4 0.18119016E+00 0.12499657E+03</pdfrwt>
<pdfrwt beam="1">  1       -4 0.51024045E-03 0.12499657E+03</pdfrwt>
<totfact> 0.25216039E+03</totfact>
</mgrwt>
</event>
<event>
 5    1  0.3261711E-002  0.1249984E+03  0.7818608E-02  0.1235072E+00
          4   -1    0    0  501    0  0.00000000000E+00  0.00000000000E+00  0.20928848185E+03  0.20929233511E+03  0.12700000000E+01 0.  1.
         -4   -1    0    0    0  501 -0.00000000000E+00 -0.00000000000E+00 -0.18638327923E+02  0.18681546183E+02  0.12700000000E+01 0.  1.
         25    2    1    2    0    0  0.00000000000E+00  0.00000000000E+00  0.19065015392E+03  0.22797388129E+03  0.12499843742E+03 0.  0.
    9000005    1    3    3    0    0  0.27713777392E+02 -0.12389310227E+02 -0.42959674285E+01  0.30675785261E+02  0.10000000000E+01 0.  0.
    9000005    1    3    3    0    0 -0.27713777392E+02  0.12389310227E+02  0.19494612135E+03  0.19729809603E+03  0.10000000000E+01 0.  0.
<mgrwt>
<rscale>  0 0.12499844E+03</rscale>
<asrwt>0</asrwt>
<pdfrwt beam="1">  1        4 0.32201850E-01 0.12499844E+03</pdfrwt>
<pdfrwt beam="2">  1       -4 0.28710559E-02 0.12499844E+03</pdfrwt>
<totfact> 0.85624667E+03</totfact>
</mgrwt>
</event>
<event>
 5    1  0.3261711E-002  0.1250018E+03  0.7818608E-02  0.1235066E+00
          4   -1    0    0  501    0  0.00000000000E+00  0.00000000000E+00  0.45985508204E+02  0.46003041908E+02  0.12700000000E+01 0.  1.
         -4   -1    0    0    0  501 -0.00000000000E+00 -0.00000000000E+00 -0.84909215993E+02  0.84918713253E+02  0.12700000000E+01 0.  1.
         25    2    1    2    0    0  0.00000000000E+00  0.00000000000E+00 -0.38923707788E+02  0.13092175516E+03  0.12500180377E+03 0.  0.
    9000005    1    3    3    0    0  0.72352191682E+01  0.24656166276E+01 -0.84422893624E+02  0.84774127124E+02  0.10000000000E+01 0.  0.
    9000005    1    3    3    0    0 -0.72352191682E+01 -0.24656166276E+01  0.45499185836E+02  0.46147628037E+02  0.10000000000E+01 0.  0.
<mgrwt>
<rscale>  0 0.12500180E+03</rscale>
<asrwt>0</asrwt>
<pdfrwt beam="1">  1        4 0.70767729E-02 0.12500180E+03</pdfrwt>
<pdfrwt beam="2">  1       -4 0.13065036E-01 0.12500180E+03</pdfrwt>
<totfact> 0.10324347E+04</totfact>
</mgrwt>
</event>
<event>
 5    1  0.3261711E-002  0.1250064E+03  0.7818608E-02  0.1235059E+00
         -4   -1    0    0    0  501 -0.00000000000E+00  0.00000000000E+00  0.13583294346E+03  0.13583888040E+03  0.12700000000E+01 0. -1.
          4   -1    0    0  501    0  0.00000000000E+00 -0.00000000000E+00 -0.28740106804E+02  0.28768153209E+02  0.12700000000E+01 0. -1.
         25    2    1    2    0    0  0.00000000000E+00  0.00000000000E+00  0.10709283666E+03  0.16460703361E+03  0.12500639924E+03 0.  0.
    9000005    1    3    3    0    0 -0.13295290560E+02  0.39271318635E+02 -0.80287567602E+01  0.42242894710E+02  0.10000000000E+01 0.  0.
    9000005    1    3    3    0    0  0.13295290560E+02 -0.39271318635E+02  0.11512159342E+03  0.12236413890E+03  0.10000000000E+01 0.  0.
<mgrwt>
<rscale>  0 0.12500640E+03</rscale>
<asrwt>0</asrwt>
<pdfrwt beam="2">  1        4 0.44241690E-02 0.12500640E+03</pdfrwt>
<pdfrwt beam="1">  1       -4 0.20899990E-01 0.12500640E+03</pdfrwt>
<totfact> 0.96447999E+03</totfact>
</mgrwt>
</event>
<event>
 5    1  0.3261711E-002  0.1250000E+03  0.7818608E-02  0.1235069E+00
          4   -1    0    0  501    0  0.00000000000E+00  0.00000000000E+00  0.46656184048E+02  0.46673465801E+02  0.12700000000E+01 0. -1.
         -4   -1    0    0    0  501 -0.00000000000E+00 -0.00000000000E+00 -0.83686504849E+02  0.83696140854E+02  0.12700000000E+01 0. -1.
         25    2    1    2    0    0  0.00000000000E+00  0.00000000000E+00 -0.37030320801E+02  0.13036960666E+03  0.12499995872E+03 0.  0.
    9000005    1    3    3    0    0 -0.56000385571E+02 -0.27282780461E+02 -0.13315610658E+02  0.63707917726E+02  0.10000000000E+01 0.  0.
    9000005    1    3    3    0    0  0.56000385571E+02  0.27282780461E+02 -0.23714710143E+02  0.66661688929E+02  0.10000000000E+01 0.  0.
<mgrwt>
<rscale>  0 0.12499996E+03</rscale>
<asrwt>0</asrwt>
<pdfrwt beam="1">  1        4 0.71799451E-02 0.12499996E+03</pdfrwt>
<pdfrwt beam="2">  1       -4 0.12876917E-01 0.12499996E+03</pdfrwt>
<totfact> 0.10336617E+04</totfact>
</mgrwt>
</event>
<event>
 5    1  0.3261711E-002  0.1250008E+03  0.7818608E-02  0.1235068E+00
          4   -1    0    0  501    0  0.00000000000E+00  0.00000000000E+00  0.61430652460E+01  0.62729698402E+01  0.12700000000E+01 0. -1.
         -4   -1    0    0    0  501 -0.00000000000E+00 -0.00000000000E+00 -0.62910436896E+03  0.62910565086E+03  0.12700000000E+01 0. -1.
         25    2    1    2    0    0  0.00000000000E+00  0.00000000000E+00 -0.62296130371E+03  0.63537862070E+03  0.12500082287E+03 0.  0.
    9000005    1    3    3    0    0 -0.29437501950E+02  0.15569056122E+02 -0.58027161689E+03  0.58122724592E+03  0.10000000000E+01 0.  0.
    9000005    1    3    3    0    0  0.29437501950E+02 -0.15569056122E+02 -0.42689686821E+02  0.54151374780E+02  0.10000000000E+01 0.  0.
<mgrwt>
<rscale>  0 0.12500082E+03</rscale>
<asrwt>0</asrwt>
<pdfrwt beam="1">  1        4 0.95517872E-03 0.12500082E+03</pdfrwt>
<pdfrwt beam="2">  1       -4 0.96795329E-01 0.12500082E+03</pdfrwt>
<totfact> 0.46707120E+03</totfact>
</mgrwt>
</event>
<event>
 5    1  0.3261711E-002  0.1250026E+03  0.7818608E-02  0.1235065E+00
         -4   -1    0    0    0  501 -0.00000000000E+00  0.00000000000E+00  0.31677029410E+03  0.31677283994E+03  0.12700000000E+01 0.  1.
          4   -1    0    0  501    0  0.00000000000E+00 -0.00000000000E+00 -0.12296700591E+02  0.12362109263E+02  0.12700000000E+01 0.  1.
         25    2    1    2    0    0  0.00000000000E+00  0.00000000000E+00  0.30447359351E+03  0.32913494921E+03  0.12500258255E+03 0.  0.
    9000005    1    3    3    0    0 -0.69602239427E+01  0.47724976934E+02  0.47599525131E+02  0.67770442918E+02  0.10000000000E+01 0.  0.
    9000005    1    3    3    0    0  0.69602239427E+01 -0.47724976934E+02  0.25687406838E+03  0.26136450629E+03  0.10000000000E+01 0.  0.
<mgrwt>
<rscale>  0 0.12500258E+03</rscale>
<asrwt>0</asrwt>
<pdfrwt beam="2">  1        4 0.18970275E-02 0.12500258E+03</pdfrwt>
<pdfrwt beam="1">  1       -4 0.48739115E-01 0.12500258E+03</pdfrwt>
<totfact> 0.72078533E+03</totfact>
</mgrwt>
</event>
<event>
 5    1  0.3261711E-002  0.1249973E+03  0.7818608E-02  0.1235073E+00
          4   -1    0    0  501    0  0.00000000000E+00  0.00000000000E+00  0.31702740439E+02  0.31728168106E+02  0.12700000000E+01 0. -1.
         -4   -1    0    0    0  501 -0.00000000000E+00 -0.00000000000E+00 -0.12313154317E+03  0.12313809250E+03  0.12700000000E+01 0. -1.
         25    2    1    2    0    0  0.00000000000E+00  0.00000000000E+00 -0.91428802733E+02  0.15486626060E+03  0.12499733079E+03 0.  0.
    9000005    1    3    3    0    0 -0.11805405750E+02 -0.61010904146E+02 -0.53875086217E+02  0.82250975341E+02  0.10000000000E+01 0.  0.
    9000005    1    3    3    0    0  0.11805405750E+02  0.61010904146E+02 -0.37553716516E+02  0.72615285263E+02  0.10000000000E+01 0.  0.
<mgrwt>
<rscale>  0 0.12499733E+03</rscale>
<asrwt>0</asrwt>
<pdfrwt beam="1">  1        4 0.48798045E-02 0.12499733E+03</pdfrwt>
<pdfrwt beam="2">  1       -4 0.18945774E-01 0.12499733E+03</pdfrwt>
<totfact> 0.98347664E+03</totfact>
</mgrwt>
</event>
<event>
 5    1  0.3261711E-002  0.1249962E+03  0.7818608E-02  0.1235075E+00
          4   -1    0    0  501    0  0.00000000000E+00  0.00000000000E+00  0.90055066117E+01  0.90946165028E+01  0.12700000000E+01 0. -1.
         -4   -1    0    0    0  501 -0.00000000000E+00 -0.00000000000E+00 -0.43151073599E+03  0.43151260488E+03  0.12700000000E+01 0. -1.
         25    2    1    2    0    0  0.00000000000E+00  0.00000000000E+00 -0.42250522937E+03  0.44060722138E+03  0.12499621869E+03 0.  0.
    9000005    1    3    3    0    0 -0.55051237302E+00 -0.31888733205E+02 -0.21826547319E+02  0.38659960387E+02  0.10000000000E+01 0.  0.
    9000005    1    3    3    0    0  0.55051237302E+00  0.31888733205E+02 -0.40067868206E+03  0.40194726100E+03  0.10000000000E+01 0.  0.
<mgrwt>
<rscale>  0 0.12499622E+03</rscale>
<asrwt>0</asrwt>
<pdfrwt beam="1">  1        4 0.13924613E-02 0.12499622E+03</pdfrwt>
<pdfrwt beam="2">  1       -4 0.66393250E-01 0.12499622E+03</pdfrwt>
<totfact> 0.60791213E+03</totfact>
</mgrwt>
</event>
<event>
 5    1  0.3261711E-002  0.1249970E+03  0.7818608E-02  0.1235074E+00
          4   -1    0    0  501    0  0.00000000000E+00  0.00000000000E+00  0.16097069529E+04  0.16097074539E+04  0.12700000000E+01 0. -1.
         -4   -1    0    0    0  501 -0.00000000000E+00 -0.00000000000E+00 -0.22598595111E+01  0.25922702424E+01  0.12700000000E+01 0. -1.
         25    2    1    2    0    0  0.00000000000E+00  0.00000000000E+00  0.16074470934E+04  0.16122997242E+04  0.12499696956E+03 0.  0.
    9000005    1    3    3    0    0 -0.31642323359E+02  0.50790618419E+02  0.10359494363E+04  0.10376768081E+04  0.10000000000E+01 0.  0.
    9000005    1    3    3    0    0  0.31642323359E+02 -0.50790618419E+02  0.57149765715E+03  0.57462291607E+03  0.10000000000E+01 0.  0.
<mgrwt>
<rscale>  0 0.12499697E+03</rscale>
<asrwt>0</asrwt>
<pdfrwt beam="1">  1        4 0.24767271E+00 0.12499697E+03</pdfrwt>
<pdfrwt beam="2">  1       -4 0.37327947E-03 0.12499697E+03</pdfrwt>
<totfact> 0.15825954E+03</totfact>
</mgrwt>
</event>
<event>
 5    1  0.3261711E-002  0.1250211E+03  0.7818608E-02  0.1235036E+00
         -4   -1    0    0    0  501 -0.00000000000E+00  0.00000000000E+00  0.22699333984E+03  0.22699689256E+03  0.12700000000E+01 0. -1.
          4   -1    0    0  501    0  0.00000000000E+00 -0.00000000000E+00 -0.17187340420E+02  0.17234197710E+02  0.12700000000E+01 0. -1.
         25    2    1    2    0    0  0.00000000000E+00  0.00000000000E+00  0.20980599942E+03  0.24423109027E+03  0.12502107047E+03 0.  0.
    9000005    1    3    3    0    0  0.55480797927E+02 -0.21541765376E+01  0.48832989888E+02  0.73948768188E+02  0.10000000000E+01 0.  0.
    9000005    1    3    3    0    0 -0.55480797927E+02  0.21541765376E+01  0.16097300953E+03  0.17028232208E+03  0.10000000000E+01 0.  0.
<mgrwt>
<rscale>  0 0.12502107E+03</rscale>
<asrwt>0</asrwt>
<pdfrwt beam="2">  1        4 0.26480837E-02 0.12502107E+03</pdfrwt>
<pdfrwt beam="1">  1       -4 0.34925933E-01 0.12502107E+03</pdfrwt>
<totfact> 0.83132183E+03</totfact>
</mgrwt>
</event>
<event>
 5    1  0.3261711E-002  0.1249969E+03  0.7818608E-02  0.1235074E+00
         -4   -1    0    0    0  501 -0.00000000000E+00  0.00000000000E+00  0.11395924504E+03  0.11396632147E+03  0.12700000000E+01 0. -1.
          4   -1    0    0  501    0  0.00000000000E+00 -0.00000000000E+00 -0.34256006443E+02  0.34279540216E+02  0.12700000000E+01 0. -1.
         25    2    1    2    0    0  0.00000000000E+00  0.00000000000E+00  0.79703238595E+02  0.14824586169E+03  0.12499691702E+03 0.  0.
    9000005    1    3    3    0    0  0.53440599535E+02 -0.40109248076E+01  0.77971242383E+02  0.94617650759E+02  0.10000000000E+01 0.  0.
    9000005    1    3    3    0    0 -0.53440599535E+02  0.40109248076E+01  0.17319962120E+01  0.53628210928E+02  0.10000000000E+01 0.  0.
<mgrwt>
<rscale>  0 0.12499692E+03</rscale>
<asrwt>0</asrwt>
<pdfrwt beam="2">  1        4 0.52725095E-02 0.12499692E+03</pdfrwt>
<pdfrwt beam="1">  1       -4 0.17534546E-01 0.12499692E+03</pdfrwt>
<totfact> 0.99661431E+03</totfact>
</mgrwt>
</event>
<event>
 5    1  0.3261711E-002  0.1249997E+03  0.7818608E-02  0.1235070E+00
         -4   -1    0    0    0  501 -0.00000000000E+00  0.00000000000E+00  0.13897490130E+02  0.13955397949E+02  0.12700000000E+01 0. -1.
          4   -1    0    0  501    0  0.00000000000E+00 -0.00000000000E+00 -0.28043075751E+03  0.28043363325E+03  0.12700000000E+01 0. -1.
         25    2    1    2    0    0  0.00000000000E+00  0.00000000000E+00 -0.26653326738E+03  0.29438903120E+03  0.12499967628E+03 0.  0.
    9000005    1    3    3    0    0 -0.47577324976E+02 -0.38348042653E+02 -0.10246446402E+03  0.11930691771E+03  0.10000000000E+01 0.  0.
    9000005    1    3    3    0    0  0.47577324976E+02  0.38348042653E+02 -0.16406880336E+03  0.17508211349E+03  0.10000000000E+01 0.  0.
<mgrwt>
<rscale>  0 0.12499968E+03</rscale>
<asrwt>0</asrwt>
<pdfrwt beam="2">  1        4 0.43147865E-01 0.12499968E+03</pdfrwt>
<pdfrwt beam="1">  1       -4 0.21427513E-02 0.12499968E+03</pdfrwt>
<totfact> 0.76308652E+03</totfact>
</mgrwt>
</event>
<event>
 5    1  0.3261711E-002  0.1250009E+03  0.7818608E-02  0.1235068E+00
          4   -1    0    0  501    0  0.00000000000E+00  0.00000000000E+00  0.26819256260E+03  0.26819556956E+03  0.12700000000E+01 0. -1.
         -4   -1    0    0    0  501 -0.00000000000E+00 -0.00000000000E+00 -0.14534526325E+02  0.14589905946E+02  0.12700000000E+01 0. -1.
         25    2    1    2    0    0  0.00000000000E+00  0.00000000000E+00  0.25365803627E+03  0.28278547551E+03  0.12500090317E+03 0.  0.
    9000005    1    3    3    0    0 -0.59632047353E+02 -0.18001570724E+02  0.11545702737E+03  0.13119208356E+03  0.10000000000E+01 0.  0.
    9000005    1    3    3    0    0  0.59632047353E+02  0.18001570724E+02  0.13820100891E+03  0.15159339195E+03  0.10000000000E+01 0.  0.
<mgrwt>
<rscale>  0 0.12500090E+03</rscale>
<asrwt>0</asrwt>
<pdfrwt beam="1">  1        4 0.41264882E-01 0.12500090E+03</pdfrwt>
<pdfrwt beam="2">  1       -4 0.22405724E-02 0.12500090E+03</pdfrwt>
<totfact> 0.77808655E+03</totfact>
</mgrwt>
</event>
<event>
 5    1  0.3261711E-002  0.1249942E+03  0.7818608E-02  0.1235078E+00
         -4   -1    0    0    0  501 -0.00000000000E+00  0.00000000000E+00  0.76822269068E+02  0.76832765958E+02  0.12700000000E+01 0.  1.
          4   -1    0    0  501    0  0.00000000000E+00 -0.00000000000E+00 -0.50821232243E+02  0.50837098134E+02  0.12700000000E+01 0.  1.
         25    2    1    2    0    0  0.00000000000E+00  0.00000000000E+00  0.26001036825E+02  0.12766986409E+03  0.12499416099E+03 0.  0.
    9000005    1    3    3    0    0 -0.61991089182E+02  0.77527027673E+01  0.11597977164E+02  0.63549292777E+02  0.10000000000E+01 0.  0.
    9000005    1    3    3    0    0  0.61991089182E+02 -0.77527027673E+01  0.14403059661E+02  0.64120571315E+02  0.10000000000E+01 0.  0.
<mgrwt>
<rscale>  0 0.12499416E+03</rscale>
<asrwt>0</asrwt>
<pdfrwt beam="2">  1        4 0.78206790E-02 0.12499416E+03</pdfrwt>
<pdfrwt beam="1">  1       -4 0.11820839E-01 0.12499416E+03</pdfrwt>
<totfact> 0.10395994E+04</totfact>
</mgrwt>
</event>
<event>
 5    1  0.3261711E-002  0.1249949E+03  0.7818608E-02  0.1235077E+00
          4   -1    0    0  501    0  0.00000000000E+00  0.00000000000E+00  0.36461421741E+03  0.36461642920E+03  0.12700000000E+01 0. -1.
         -4   -1    0    0    0  501 -0.00000000000E+00 -0.00000000000E+00 -0.10672613583E+02  0.10747910527E+02  0.12700000000E+01 0. -1.
         25    2    1    2    0    0  0.00000000000E+00  0.00000000000E+00  0.35394160383E+03  0.37536433972E+03  0.12499491435E+03 0.  0.
    9000005    1    3    3    0    0  0.44809847478E+02  0.59749728777E+01  0.47411095256E+02  0.65516674864E+02  0.10000000000E+01 0.  0.
    9000005    1    3    3    0    0 -0.44809847478E+02 -0.59749728777E+01  0.30653050857E+03  0.30984766486E+03  0.10000000000E+01 0.  0.
<mgrwt>
<rscale>  0 0.12499491E+03</rscale>
<asrwt>0</asrwt>
<pdfrwt beam="1">  1        4 0.56100456E-01 0.12499491E+03</pdfrwt>
<pdfrwt beam="2">  1       -4 0.16479028E-02 0.12499491E+03</pdfrwt>
<totfact> 0.67028969E+03</totfact>
</mgrwt>
</event>
<event>
 5    1  0.3261711E-002  0.1250035E+03  0.7818608E-02  0.1235064E+00
         -4   -1    0    0    0  501 -0.00000000000E+00  0.00000000000E+00  0.18881196047E+03  0.18881623160E+03  0.12700000000E+01 0. -1.
          4   -1    0    0  501    0  0.00000000000E+00 -0.00000000000E+00 -0.20665724049E+02  0.20704710827E+02  0.12700000000E+01 0. -1.
         25    2    1    2    0    0  0.00000000000E+00  0.00000000000E+00  0.16814623642E+03  0.20952094243E+03  0.12500347393E+03 0.  0.
    9000005    1    3    3    0    0  0.44852927329E+02 -0.35618501444E+02  0.42169947162E+02  0.71132040452E+02  0.10000000000E+01 0.  0.
    9000005    1    3    3    0    0 -0.44852927329E+02  0.35618501444E+02  0.12597628926E+03  0.13838890198E+03  0.10000000000E+01 0.  0.
<mgrwt>
<rscale>  0 0.12500347E+03</rscale>
<asrwt>0</asrwt>
<pdfrwt beam="2">  1        4 0.31826697E-02 0.12500347E+03</pdfrwt>
<pdfrwt beam="1">  1       -4 0.29051322E-01 0.12500347E+03</pdfrwt>
<totfact> 0.88547299E+03</totfact>
</mgrwt>
</event>
<event>
 5    1  0.3261711E-002  0.1250019E+03  0.7818608E-02  0.1235066E+00
         -4   -1    0    0    0  501 -0.00000000000E+00  0.00000000000E+00  0.10575610446E+02  0.10651593135E+02  0.12700000000E+01 0.  1.
          4   -1    0    0  501    0  0.00000000000E+00 -0.00000000000E+00 -0.36797598714E+03  0.36797817871E+03  0.12700000000E+01 0.  1.
         25    2    1    2    0    0  0.00000000000E+00  0.00000000000E+00 -0.35740037669E+03  0.37862977185E+03  0.12500189947E+03 0.  0.
    9000005    1    3    3    0    0  0.34983075794E+02  0.41336889766E+02 -0.27317438399E+03  0.27849200727E+03  0.10000000000E+01 0.  0.
    9000005    1    3    3    0    0 -0.34983075794E+02 -0.41336889766E+02 -0.84225992703E+02  0.10013776458E+03  0.10000000000E+01 0.  0.
<mgrwt>
<rscale>  0 0.12500190E+03</rscale>
<asrwt>0</asrwt>
<pdfrwt beam="2">  1        4 0.56617694E-01 0.12500190E+03</pdfrwt>
<pdfrwt beam="1">  1       -4 0.16330307E-02 0.12500190E+03</pdfrwt>
<totfact> 0.66682867E+03</totfact>
</mgrwt>
</event>
<event>
 5    1  0.3261711E-002  0.1249990E+03  0.7818608E-02  0.1235071E+00
         -4   -1    0    0    0  501 -0.00000000000E+00  0.00000000000E+00  0.19745756213E+03  0.19746164625E+03  0.12700000000E+01 0. -1.
          4   -1    0    0  501    0  0.00000000000E+00 -0.00000000000E+00 -0.19757732196E+02  0.19798507053E+02  0.12700000000E+01 0. -1.
         25    2    1    2    0    0  0.00000000000E+00  0.00000000000E+00  0.17769982993E+03  0.21726015331E+03  0.12499897862E+03 0.  0.
    9000005    1    3    3    0    0  0.48604007225E+02 -0.26224268730E+02  0.38023642482E+02  0.67058624922E+02  0.10000000000E+01 0.  0.
    9000005    1    3    3    0    0 -0.48604007225E+02  0.26224268730E+02  0.13967618745E+03  0.15020152839E+03  0.10000000000E+01 0.  0.
<mgrwt>
<rscale>  0 0.12499898E+03</rscale>
<asrwt>0</asrwt>
<pdfrwt beam="2">  1        4 0.30431018E-02 0.12499898E+03</pdfrwt>
<pdfrwt beam="1">  1       -4 0.30381537E-01 0.12499898E+03</pdfrwt>
<totfact> 0.87305751E+03</totfact>
</mgrwt>
</event>
<event>
 5    1  0.3261711E-002  0.1249938E+03  0.7818608E-02  0.1235079E+00
         -4   -1    0    0    0  501 -0.00000000000E+00  0.00000000000E+00  0.43612655057E+03  0.43612839969E+03  0.12700000000E+01 0.  1.
          4   -1    0    0  501    0  0.00000000000E+00 -0.00000000000E+00 -0.89088948769E+01  0.89989614916E+01  0.12700000000E+01 0.  1.
         25    2    1    2    0    0  0.00000000000E+00  0.00000000000E+00  0.42721765570E+03  0.44512736118E+03  0.12499376917E+03 0.  0.
    9000005    1    3    3    0    0  0.22359121956E+02  0.15211264089E+02  0.41422615537E+03  0.41510916719E+03  0.10000000000E+01 0.  0.
    9000005    1    3    3    0    0 -0.22359121956E+02 -0.15211264089E+02  0.12991500324E+02  0.30018193992E+02  0.10000000000E+01 0.  0.
<mgrwt>
<rscale>  0 0.12499377E+03</rscale>
<asrwt>0</asrwt>
<pdfrwt beam="2">  1        4 0.13776699E-02 0.12499377E+03</pdfrwt>
<pdfrwt beam="1">  1       -4 0.67103449E-01 0.12499377E+03</pdfrwt>
<totfact> 0.60396544E+03</totfact>
</mgrwt>
</event>
<event>
 5    1  0.3261711E-002  0.1249998E+03  0.7818608E-02  0.1235070E+00
         -4   -1    0    0    0  501 -0.00000000000E+00  0.00000000000E+00  0.68415944664E+02  0.68427731106E+02  0.12700000000E+01 0.  1.
          4   -1    0    0  501    0  0.00000000000E+00 -0.00000000000E+00 -0.57071621192E+02  0.57085749934E+02  0.12700000000E+01 0.  1.
         25    2    1    2    0    0  0.00000000000E+00  0.00000000000E+00  0.11344323472E+02  0.12551348104E+03  0.12499976099E+03 0.  0.
    9000005    1    3    3    0    0  0.51474295440E+02  0.68542232524E+01 -0.29236383991E+02  0.59601590720E+02  0.10000000000E+01 0.  0.
    9000005    1    3    3    0    0 -0.51474295440E+02 -0.68542232524E+01  0.40580707463E+02  0.65911890320E+02  0.10000000000E+01 0.  0.
<mgrwt>
<rscale>  0 0.12499976E+03</rscale>
<asrwt>0</asrwt>
<pdfrwt beam="2">  1        4 0.87822429E-02 0.12499976E+03</pdfrwt>
<pdfrwt beam="1">  1       -4 0.10527523E-01 0.12499976E+03</pdfrwt>
<totfact> 0.10441713E+04</totfact>
</mgrwt>
</event>
<event>
 5    1  0.3261711E-002  0.1249991E+03  0.7818608E-02  0.1235071E+00
          4   -1    0    0  501    0  0.00000000000E+00  0.00000000000E+00  0.78133493865E+02  0.78143814621E+02  0.12700000000E+01 0.  1.
         -4   -1    0    0    0  501 -0.00000000000E+00 -0.00000000000E+00 -0.49972154032E+02  0.49988289415E+02  0.12700000000E+01 0.  1.
         25    2    1    2    0    0  0.00000000000E+00  0.00000000000E+00  0.28161339833E+02  0.12813210404E+03  0.12499910009E+03 0.  0.
    9000005    1    3    3    0    0 -0.30763665931E+02 -0.27377397593E+01 -0.41606790338E+02  0.51826859472E+02  0.10000000000E+01 0.  0.
    9000005    1    3    3    0    0  0.30763665931E+02  0.27377397593E+01  0.69768130171E+02  0.76305244564E+02  0.10000000000E+01 0.  0.
<mgrwt>
<rscale>  0 0.12499910E+03</rscale>
<asrwt>0</asrwt>
<pdfrwt beam="1">  1        4 0.12022573E-01 0.12499910E+03</pdfrwt>
<pdfrwt beam="2">  1       -4 0.76900587E-02 0.12499910E+03</pdfrwt>
<totfact> 0.10384847E+04</totfact>
</mgrwt>
</event>
<event>
 5    1  0.3261711E-002  0.1249995E+03  0.7818608E-02  0.1235070E+00
          4   -1    0    0  501    0  0.00000000000E+00  0.00000000000E+00  0.57330824668E+02  0.57344889546E+02  0.12700000000E+01 0.  1.
         -4   -1    0    0    0  501 -0.00000000000E+00 -0.00000000000E+00 -0.68106406322E+02  0.68118246323E+02  0.12700000000E+01 0.  1.
         25    2    1    2    0    0  0.00000000000E+00  0.00000000000E+00 -0.10775581655E+02  0.12546313587E+03  0.12499954121E+03 0.  0.
    9000005    1    3    3    0    0  0.46416839838E+00  0.16793960696E+02 -0.65802127813E+02  0.67920340053E+02  0.10000000000E+01 0.  0.
    9000005    1    3    3    0    0 -0.46416839838E+00 -0.16793960696E+02  0.55026546159E+02  0.57542795816E+02  0.10000000000E+01 0.  0.
<mgrwt>
<rscale>  0 0.12499954E+03</rscale>
<asrwt>0</asrwt>
<pdfrwt beam="1">  1        4 0.88221196E-02 0.12499954E+03</pdfrwt>
<pdfrwt beam="2">  1       -4 0.10479901E-01 0.12499954E+03</pdfrwt>
<totfact> 0.10442877E+04</totfact>
</mgrwt>
</event>
<event>
 5    1  0.3261711E-002  0.1249908E+03  0.7818608E-02  0.1235084E+00
          4   -1    0    0  501    0  0.00000000000E+00  0.00000000000E+00  0.22511516274E+02  0.22547311701E+02  0.12700000000E+01 0.  1.
         -4   -1    0    0    0  501 -0.00000000000E+00 -0.00000000000E+00 -0.17332087491E+03  0.17332552778E+03  0.12700000000E+01 0.  1.
         25    2    1    2    0    0  0.00000000000E+00  0.00000000000E+00 -0.15080935863E+03  0.19587283948E+03  0.12499082604E+03 0.  0.
    9000005    1    3    3    0    0  0.59233282045E+02 -0.14816933502E+02 -0.96227241046E+02  0.11396843923E+03  0.10000000000E+01 0.  0.
    9000005    1    3    3    0    0 -0.59233282045E+02  0.14816933502E+02 -0.54582117589E+02  0.81904400252E+02  0.10000000000E+01 0.  0.
<mgrwt>
<rscale>  0 0.12499083E+03</rscale>
<asrwt>0</asrwt>
<pdfrwt beam="1">  1        4 0.34664217E-02 0.12499083E+03</pdfrwt>
<pdfrwt beam="2">  1       -4 0.26667861E-01 0.12499083E+03</pdfrwt>
<totfact> 0.90854040E+03</totfact>
</mgrwt>
</event>
<event>
 4    1  0.3261711E-002  0.1251939E+03  0.7818608E-02  0.1234767E+00
         -4   -1    0    0    0  501 -0.00000000000E+00  0.00000000000E+00  0.37133183220E+03  0.37133400397E+03  0.12700000000E+01 0. -1.
          4   -1    0    0  501    0  0.00000000000E+00 -0.00000000000E+00 -0.10511797986E+02  0.10588238611E+02  0.12700000000E+01 0. -1.
    9000005    1    1    2    0    0 -0.89335998136E+01  0.13695114011E+02 -0.38957674784E+01  0.16838716033E+02  0.10000000000E+01 0.  0.
    9000005    1    1    2    0    0  0.89335998136E+01 -0.13695114011E+02  0.36471580169E+03  0.36508352655E+03  0.10000000000E+01 0.  0.
<mgrwt>
<rscale>  0 0.12519386E+03</rscale>
<asrwt>0</asrwt>
<pdfrwt beam="2">  1        4 0.16232472E-02 0.12519386E+03</pdfrwt>
<pdfrwt beam="1">  1       -4 0.57134009E-01 0.12519386E+03</pdfrwt>
<totfact> 0.66066429E+03</totfact>
</mgrwt>
</event>
<event>
 5    1  0.3261711E-002  0.1250117E+03  0.7818608E-02  0.1235051E+00
          4   -1    0    0  501    0  0.00000000000E+00  0.00000000000E+00  0.31215952053E+02  0.31241775919E+02  0.12700000000E+01 0.  1.
         -4   -1    0    0    0  501 -0.00000000000E+00 -0.00000000000E+00 -0.12507906467E+03  0.12508551203E+03  0.12700000000E+01 0.  1.
         25    2    1    2    0    0  0.00000000000E+00  0.00000000000E+00 -0.93863112618E+02  0.15632728795E+03  0.12501174763E+03 0.  0.
    9000005    1    3    3    0    0  0.59226390304E+02  0.22436499610E+01 -0.71727602172E+02  0.93051857514E+02  0.10000000000E+01 0.  0.
    9000005    1    3    3    0    0 -0.59226390304E+02 -0.22436499610E+01 -0.22135510446E+02  0.63275430432E+02  0.10000000000E+01 0.  0.
<mgrwt>
<rscale>  0 0.12501175E+03</rscale>
<asrwt>0</asrwt>
<pdfrwt beam="1">  1        4 0.48049366E-02 0.12501175E+03</pdfrwt>
<pdfrwt beam="2">  1       -4 0.19245415E-01 0.12501175E+03</pdfrwt>
<totfact> 0.98029666E+03</totfact>
</mgrwt>
</event>
<event>
 5    1  0.3261711E-002  0.1249968E+03  0.7818608E-02  0.1235074E+00
         -4   -1    0    0    0  501 -0.00000000000E+00  0.00000000000E+00  0.43023005761E+02  0.43041746301E+02  0.12700000000E+01 0.  1.
          4   -1    0    0  501    0  0.00000000000E+00 -0.00000000000E+00 -0.90746883322E+02  0.90755769694E+02  0.12700000000E+01 0.  1.
         25    2    1    2    0    0  0.00000000000E+00  0.00000000000E+00 -0.47723877562E+02  0.13379751600E+03  0.12499682715E+03 0.  0.
    9000005    1    3    3    0    0 -0.45335494906E+02 -0.33971043302E+02  0.43715186070E+01  0.56828241714E+02  0.10000000000E+01 0.  0.
    9000005    1    3    3    0    0  0.45335494906E+02  0.33971043302E+02 -0.52095396169E+02  0.76969274281E+02  0.10000000000E+01 0.  0.
<mgrwt>
<rscale>  0 0.12499683E+03</rscale>
<asrwt>0</asrwt>
<pdfrwt beam="2">  1        4 0.13963184E-01 0.12499683E+03</pdfrwt>
<pdfrwt beam="1">  1       -4 0.66210491E-02 0.12499683E+03</pdfrwt>
<totfact> 0.10264213E+04</totfact>
</mgrwt>
</event>
<event>
 5    1  0.3261711E-002  0.1249887E+03  0.7818608E-02  0.1235087E+00
          4   -1    0    0  501    0  0.00000000000E+00  0.00000000000E+00  0.25011954720E+03  0.25012277144E+03  0.12700000000E+01 0.  1.
         -4   -1    0    0    0  501 -0.00000000000E+00 -0.00000000000E+00 -0.15585562134E+02  0.15637219926E+02  0.12700000000E+01 0.  1.
         25    2    1    2    0    0  0.00000000000E+00  0.00000000000E+00  0.23453398507E+03  0.26575999136E+03  0.12498873093E+03 0.  0.
    9000005    1    3    3    0    0  0.59328701840E+02 -0.31032210211E+01  0.76090773817E+02  0.96541859848E+02  0.10000000000E+01 0.  0.
    9000005    1    3    3    0    0 -0.59328701840E+02  0.31032210211E+01  0.15844321125E+03  0.16921813152E+03  0.10000000000E+01 0.  0.
<mgrwt>
<rscale>  0 0.12498873E+03</rscale>
<asrwt>0</asrwt>
<pdfrwt beam="1">  1        4 0.38484149E-01 0.12498873E+03</pdfrwt>
<pdfrwt beam="2">  1       -4 0.24020007E-02 0.12498873E+03</pdfrwt>
<totfact> 0.80124553E+03</totfact>
</mgrwt>
</event>
<event>
 5    1  0.3261711E-002  0.1249962E+03  0.7818608E-02  0.1235075E+00
         -4   -1    0    0    0  501 -0.00000000000E+00  0.00000000000E+00  0.29964190298E+02  0.29991092014E+02  0.12700000000E+01 0.  1.
          4   -1    0    0  501    0  0.00000000000E+00 -0.00000000000E+00 -0.13026757048E+03  0.13027376105E+03  0.12700000000E+01 0.  1.
         25    2    1    2    0    0  0.00000000000E+00  0.00000000000E+00 -0.10030338018E+03  0.16026485306E+03  0.12499622015E+03 0.  0.
    9000005    1    3    3    0    0  0.19825810057E+00 -0.50913526331E+02 -0.96607345504E+02  0.10920716861E+03  0.10000000000E+01 0.  0.
    9000005    1    3    3    0    0 -0.19825810057E+00  0.50913526331E+02 -0.36960346751E+01  0.51057684457E+02  0.10000000000E+01 0.  0.
<mgrwt>
<rscale>  0 0.12499622E+03</rscale>
<asrwt>0</asrwt>
<pdfrwt beam="2">  1        4 0.20043710E-01 0.12499622E+03</pdfrwt>
<pdfrwt beam="1">  1       -4 0.46124211E-02 0.12499622E+03</pdfrwt>
<totfact> 0.97300014E+03</totfact>
</mgrwt>
</event>
<event>
 5    1  0.3261711E-002  0.1250001E+03  0.7818608E-02  0.1235069E+00
         -4   -1    0    0    0  501 -0.00000000000E+00  0.00000000000E+00  0.99338148802E+02  0.99346266700E+02  0.12700000000E+01 0.  1.
          4   -1    0    0  501    0  0.00000000000E+00 -0.00000000000E+00 -0.39302843042E+02  0.39323356560E+02  0.12700000000E+01 0.  1.
         25    2    1    2    0    0  0.00000000000E+00  0.00000000000E+00  0.60035305760E+02  0.13866962326E+03  0.12500010591E+03 0.  0.
    9000005    1    3    3    0    0  0.61393986991E+02 -0.87149165010E+01  0.38616787549E+02  0.73057701092E+02  0.10000000000E+01 0.  0.
    9000005    1    3    3    0    0 -0.61393986991E+02  0.87149165010E+01  0.21418518211E+02  0.65611922168E+02  0.10000000000E+01 0.  0.
<mgrwt>
<rscale>  0 0.12500011E+03</rscale>
<asrwt>0</asrwt>
<pdfrwt beam="2">  1        4 0.60487938E-02 0.12500011E+03</pdfrwt>
<pdfrwt beam="1">  1       -4 0.15284994E-01 0.12500011E+03</pdfrwt>
<totfact> 0.10161209E+04</totfact>
</mgrwt>
</event>
<event>
 5    1  0.3261711E-002  0.1250004E+03  0.7818608E-02  0.1235069E+00
         -4   -1    0    0    0  501 -0.00000000000E+00  0.00000000000E+00  0.11188803424E+03  0.11189524166E+03  0.12700000000E+01 0.  1.
          4   -1    0    0  501    0  0.00000000000E+00 -0.00000000000E+00 -0.34892445782E+02  0.34915550585E+02  0.12700000000E+01 0.  1.
         25    2    1    2    0    0  0.00000000000E+00  0.00000000000E+00  0.76995588458E+02  0.14681079225E+03  0.12500035231E+03 0.  0.
    9000005    1    3    3    0    0 -0.21733014099E+02  0.52818682706E+02  0.68282805957E+02  0.89026281142E+02  0.10000000000E+01 0.  0.
    9000005    1    3    3    0    0  0.21733014099E+02 -0.52818682706E+02  0.87127825014E+01  0.57784511104E+02  0.10000000000E+01 0.  0.
<mgrwt>
<rscale>  0 0.12500035E+03</rscale>
<asrwt>0</asrwt>
<pdfrwt beam="2">  1        4 0.53704003E-02 0.12500035E+03</pdfrwt>
<pdfrwt beam="1">  1       -4 0.17215876E-01 0.12500035E+03</pdfrwt>
<totfact> 0.99942468E+03</totfact>
</mgrwt>
</event>
<event>
 5    1  0.3261711E-002  0.1249997E+03  0.7818608E-02  0.1235070E+00
          4   -1    0    0  501    0  0.00000000000E+00  0.00000000000E+00  0.17114480801E+02  0.17161537026E+02  0.12700000000E+01 0.  1.
         -4   -1    0    0    0  501 -0.00000000000E+00 -0.00000000000E+00 -0.22787927152E+03  0.22788281043E+03  0.12700000000E+01 0.  1.
         25    2    1    2    0    0  0.00000000000E+00  0.00000000000E+00 -0.21076479072E+03  0.24504434745E+03  0.12499974085E+03 0.  0.
    9000005    1    3    3    0    0  0.42967402598E+02 -0.45368368989E+02 -0.10368783289E+03  0.12106466570E+03  0.10000000000E+01 0.  0.
    9000005    1    3    3    0    0 -0.42967402598E+02  0.45368368989E+02 -0.10707695783E+03  0.12397968175E+03  0.10000000000E+01 0.  0.
<mgrwt>
<rscale>  0 0.12499974E+03</rscale>
<asrwt>0</asrwt>
<pdfrwt beam="1">  1        4 0.26368891E-02 0.12499974E+03</pdfrwt>
<pdfrwt beam="2">  1       -4 0.35062239E-01 0.12499974E+03</pdfrwt>
<totfact> 0.83052271E+03</totfact>
</mgrwt>
</event>
<event>
 5    1  0.3261711E-002  0.1249964E+03  0.7818608E-02  0.1235075E+00
         -4   -1    0    0    0  501 -0.00000000000E+00  0.00000000000E+00  0.15810336178E+02  0.15861261932E+02  0.12700000000E+01 0. -1.
          4   -1    0    0  501    0  0.00000000000E+00 -0.00000000000E+00 -0.24660522285E+03  0.24660849303E+03  0.12700000000E+01 0. -1.
         25    2    1    2    0    0  0.00000000000E+00  0.00000000000E+00 -0.23079488667E+03  0.26246975496E+03  0.12499637018E+03 0.  0.
    9000005    1    3    3    0    0  0.18066069611E+02  0.39153094850E+02 -0.20424427523E+02  0.47723211828E+02  0.10000000000E+01 0.  0.
    9000005    1    3    3    0    0 -0.18066069611E+02 -0.39153094850E+02 -0.21037045914E+03  0.21474654313E+03  0.10000000000E+01 0.  0.
<mgrwt>
<rscale>  0 0.12499637E+03</rscale>
<asrwt>0</asrwt>
<pdfrwt beam="2">  1        4 0.37943431E-01 0.12499637E+03</pdfrwt>
<pdfrwt beam="1">  1       -4 0.24365285E-02 0.12499637E+03</pdfrwt>
<totfact> 0.80567220E+03</totfact>
</mgrwt>
</event>
<event>
 5    1  0.3261711E-002  0.1249983E+03  0.7818608E-02  0.1235072E+00
          4   -1    0    0  501    0  0.00000000000E+00  0.00000000000E+00  0.47919278784E+03  0.47919447077E+03  0.12700000000E+01 0. -1.
         -4   -1    0    0    0  501 -0.00000000000E+00 -0.00000000000E+00 -0.81003381769E+01  0.81992913462E+01  0.12700000000E+01 0. -1.
         25    2    1    2    0    0  0.00000000000E+00  0.00000000000E+00  0.47109244966E+03  0.48739376212E+03  0.12499833287E+03 0.  0.
    9000005    1    3    3    0    0 -0.30130391561E+02 -0.42345562800E+02  0.10024005657E+03  0.11291614643E+03  0.10000000000E+01 0.  0.
    9000005    1    3    3    0    0  0.30130391561E+02  0.42345562800E+02  0.37085239310E+03  0.37447761569E+03  0.10000000000E+01 0.  0.
<mgrwt>
<rscale>  0 0.12499833E+03</rscale>
<asrwt>0</asrwt>
<pdfrwt beam="1">  1        4 0.73729728E-01 0.12499833E+03</pdfrwt>
<pdfrwt beam="2">  1       -4 0.12539468E-02 0.12499833E+03</pdfrwt>
<totfact> 0.56857968E+03</totfact>
</mgrwt>
</event>
<event>
 5    1  0.3261711E-002  0.1249897E+03  0.7818608E-02  0.1235085E+00
          4   -1    0    0  501    0  0.00000000000E+00  0.00000000000E+00  0.86991538007E+02  0.87000807955E+02  0.12700000000E+01 0.  1.
         -4   -1    0    0    0  501 -0.00000000000E+00 -0.00000000000E+00 -0.44875777390E+02  0.44893744512E+02  0.12700000000E+01 0.  1.
         25    2    1    2    0    0  0.00000000000E+00  0.00000000000E+00  0.42115760617E+02  0.13189455247E+03  0.12498974229E+03 0.  0.
    9000005    1    3    3    0    0 -0.55042985785E+02  0.65111733245E+01 -0.93888205260E+01  0.56225222214E+02  0.10000000000E+01 0.  0.
    9000005    1    3    3    0    0  0.55042985785E+02 -0.65111733245E+01  0.51504581143E+02  0.75669330253E+02  0.10000000000E+01 0.  0.
<mgrwt>
<rscale>  0 0.12498974E+03</rscale>
<asrwt>0</asrwt>
<pdfrwt beam="1">  1        4 0.13385409E-01 0.12498974E+03</pdfrwt>
<pdfrwt beam="2">  1       -4 0.69060609E-02 0.12498974E+03</pdfrwt>
<totfact> 0.10306334E+04</totfact>
</mgrwt>
</event>
<event>
 5    1  0.3261711E-002  0.1249926E+03  0.7818608E-02  0.1235081E+00
         -4   -1    0    0    0  501 -0.00000000000E+00  0.00000000000E+00  0.70583588834E+03  0.70583703089E+03  0.12700000000E+01 0.  1.
          4   -1    0    0  501    0  0.00000000000E+00 -0.00000000000E+00 -0.54595283350E+01  0.56052965703E+01  0.12700000000E+01 0.  1.
         25    2    1    2    0    0  0.00000000000E+00  0.00000000000E+00  0.70037636001E+03  0.71144232746E+03  0.12499255834E+03 0.  0.
    9000005    1    3    3    0    0  0.16757595249E+02  0.31779798047E+02  0.64119914977E+03  0.64220566973E+03  0.10000000000E+01 0.  0.
    9000005    1    3    3    0    0 -0.16757595249E+02 -0.31779798047E+02  0.59177210240E+02  0.69236657735E+02  0.10000000000E+01 0.  0.
<mgrwt>
<rscale>  0 0.12499256E+03</rscale>
<asrwt>0</asrwt>
<pdfrwt beam="2">  1        4 0.85122843E-03 0.12499256E+03</pdfrwt>
<pdfrwt beam="1">  1       -4 0.10860142E+00 0.12499256E+03</pdfrwt>
<totfact> 0.42496441E+03</totfact>
</mgrwt>
</event>
<event>
 5    1  0.3261711E-002  0.1250034E+03  0.7818608E-02  0.1235064E+00
         -4   -1    0    0    0  501 -0.00000000000E+00  0.00000000000E+00  0.97528370193E+01  0.98351781847E+01  0.12700000000E+01 0.  1.
          4   -1    0    0  501    0  0.00000000000E+00 -0.00000000000E+00 -0.39877922543E+03  0.39878124772E+03  0.12700000000E+01 0.  1.
         25    2    1    2    0    0  0.00000000000E+00  0.00000000000E+00 -0.38902638841E+03  0.40861642590E+03  0.12500341052E+03 0.  0.
    9000005    1    3    3    0    0  0.29425721492E+02  0.53082592250E+02 -0.14582736118E+03  0.15795649387E+03  0.10000000000E+01 0.  0.
    9000005    1    3    3    0    0 -0.29425721492E+02 -0.53082592250E+02 -0.24319902723E+03  0.25065993204E+03  0.10000000000E+01 0.  0.
<mgrwt>
<rscale>  0 0.12500341E+03</rscale>
<asrwt>0</asrwt>
<pdfrwt beam="2">  1        4 0.61357127E-01 0.12500341E+03</pdfrwt>
<pdfrwt beam="1">  1       -4 0.15069263E-02 0.12500341E+03</pdfrwt>
<totfact> 0.63718515E+03</totfact>
</mgrwt>
</event>
<event>
 5    1  0.3261711E-002  0.1250000E+03  0.7818608E-02  0.1235069E+00
         -4   -1    0    0    0  501 -0.00000000000E+00  0.00000000000E+00  0.69822988827E+03  0.69823104326E+03  0.12700000000E+01 0. -1.
          4   -1    0    0  501    0  0.00000000000E+00 -0.00000000000E+00 -0.55212503198E+01  0.56654307069E+01  0.12700000000E+01 0. -1.
         25    2    1    2    0    0  0.00000000000E+00  0.00000000000E+00  0.69270863795E+03  0.70389647396E+03  0.12499995589E+03 0.  0.
    9000005    1    3    3    0    0  0.82482704277E+01  0.61294628700E+02  0.29593038191E+03  0.30232574553E+03  0.10000000000E+01 0.  0.
    9000005    1    3    3    0    0 -0.82482704277E+01 -0.61294628700E+02  0.39677825603E+03  0.40157072843E+03  0.10000000000E+01 0.  0.
<mgrwt>
<rscale>  0 0.12499996E+03</rscale>
<asrwt>0</asrwt>
<pdfrwt beam="2">  1        4 0.86060306E-03 0.12499996E+03</pdfrwt>
<pdfrwt beam="1">  1       -4 0.10743113E+00 0.12499996E+03</pdfrwt>
<totfact> 0.42881853E+03</totfact>
</mgrwt>
</event>
<event>
 5    1  0.3261711E-002  0.1249996E+03  0.7818608E-02  0.1235070E+00
         -4   -1    0    0    0  501 -0.00000000000E+00  0.00000000000E+00  0.22786362905E+02  0.22821727245E+02  0.12700000000E+01 0. -1.
          4   -1    0    0  501    0  0.00000000000E+00 -0.00000000000E+00 -0.17125758586E+03  0.17126229478E+03  0.12700000000E+01 0. -1.
         25    2    1    2    0    0  0.00000000000E+00  0.00000000000E+00 -0.14847122295E+03  0.19408402202E+03  0.12499961424E+03 0.  0.
    9000005    1    3    3    0    0  0.14986139178E+02  0.60249056315E+02 -0.85290490034E+02  0.10549881916E+03  0.10000000000E+01 0.  0.
    9000005    1    3    3    0    0 -0.14986139178E+02 -0.60249056315E+02 -0.63180732916E+02  0.88585202862E+02  0.10000000000E+01 0.  0.
<mgrwt>
<rscale>  0 0.12499961E+03</rscale>
<asrwt>0</asrwt>
<pdfrwt beam="2">  1        4 0.26350403E-01 0.12499961E+03</pdfrwt>
<pdfrwt beam="1">  1       -4 0.35086770E-02 0.12499961E+03</pdfrwt>
<totfact> 0.91142312E+03</totfact>
</mgrwt>
</event>
<event>
 5    1  0.3261711E-002  0.1250098E+03  0.7818608E-02  0.1235054E+00
         -4   -1    0    0    0  501 -0.00000000000E+00  0.00000000000E+00  0.26020670635E+02  0.26051644868E+02  0.12700000000E+01 0.  1.
          4   -1    0    0  501    0  0.00000000000E+00 -0.00000000000E+00 -0.15002151028E+03  0.15002688574E+03  0.12700000000E+01 0.  1.
         25    2    1    2    0    0  0.00000000000E+00  0.00000000000E+00 -0.12400083964E+03  0.17607853061E+03  0.12500976246E+03 0.  0.
    9000005    1    3    3    0    0 -0.29905701783E+02 -0.12919234036E+02 -0.13712348062E+03  0.14094362896E+03  0.10000000000E+01 0.  0.
    9000005    1    3    3    0    0  0.29905701783E+02  0.12919234036E+02  0.13122640984E+02  0.35134901645E+02  0.10000000000E+01 0.  0.
<mgrwt>
<rscale>  0 0.12500976E+03</rscale>
<asrwt>0</asrwt>
<pdfrwt beam="2">  1        4 0.23083028E-01 0.12500976E+03</pdfrwt>
<pdfrwt beam="1">  1       -4 0.40059763E-02 0.12500976E+03</pdfrwt>
<totfact> 0.94307028E+03</totfact>
</mgrwt>
</event>
<event>
 5    1  0.3261711E-002  0.1249998E+03  0.7818608E-02  0.1235070E+00
         -4   -1    0    0    0  501 -0.00000000000E+00  0.00000000000E+00  0.16809214207E+03  0.16809693967E+03  0.12700000000E+01 0.  1.
          4   -1    0    0  501    0  0.00000000000E+00 -0.00000000000E+00 -0.23216185133E+02  0.23250895727E+02  0.12700000000E+01 0.  1.
         25    2    1    2    0    0  0.00000000000E+00  0.00000000000E+00  0.14487595694E+03  0.19134783540E+03  0.12499980485E+03 0.  0.
    9000005    1    3    3    0    0  0.36314823240E+02  0.35425326187E+02  0.16579681902E+02  0.53381700745E+02  0.10000000000E+01 0.  0.
    9000005    1    3    3    0    0 -0.36314823240E+02 -0.35425326187E+02  0.12829627504E+03  0.13796613465E+03  0.10000000000E+01 0.  0.
<mgrwt>
<rscale>  0 0.12499980E+03</rscale>
<asrwt>0</asrwt>
<pdfrwt beam="2">  1        4 0.35747599E-02 0.12499980E+03</pdfrwt>
<pdfrwt beam="1">  1       -4 0.25863369E-01 0.12499980E+03</pdfrwt>
<totfact> 0.91613723E+03</totfact>
</mgrwt>
</event>
<event>
 5    1  0.3261711E-002  0.1250023E+03  0.7818608E-02  0.1235066E+00
          4   -1    0    0  501    0  0.00000000000E+00  0.00000000000E+00  0.41177435922E+02  0.41197016022E+02  0.12700000000E+01 0.  1.
         -4   -1    0    0    0  501 -0.00000000000E+00 -0.00000000000E+00 -0.94820965012E+02  0.94829469606E+02  0.12700000000E+01 0.  1.
         25    2    1    2    0    0  0.00000000000E+00  0.00000000000E+00 -0.53643529090E+02  0.13602648563E+03  0.12500230630E+03 0.  0.
    9000005    1    3    3    0    0 -0.16378223046E+02  0.55568932673E+02 -0.52324525133E+02  0.78070534769E+02  0.10000000000E+01 0.  0.
    9000005    1    3    3    0    0  0.16378223046E+02 -0.55568932673E+02 -0.13190039570E+01  0.57955950860E+02  0.10000000000E+01 0.  0.
<mgrwt>
<rscale>  0 0.12500231E+03</rscale>
<asrwt>0</asrwt>
<pdfrwt beam="1">  1        4 0.63371505E-02 0.12500231E+03</pdfrwt>
<pdfrwt beam="2">  1       -4 0.14590001E-01 0.12500231E+03</pdfrwt>
<totfact> 0.10215949E+04</totfact>
</mgrwt>
</event>
<event>
 4    1  0.3261711E-002  0.1249294E+03  0.7818608E-02  0.1235180E+00
         -4   -1    0    0    0  501 -0.00000000000E+00  0.00000000000E+00  0.80338263542E+03  0.80338363923E+03  0.12700000000E+01 0. -1.
          4   -1    0    0  501    0  0.00000000000E+00 -0.00000000000E+00 -0.47727165900E+01  0.49387977938E+01  0.12700000000E+01 0. -1.
    9000005    1    1    2    0    0  0.32289830850E+02 -0.48865005518E+02  0.53963862780E+03  0.54280868688E+03  0.10000000000E+01 0.  0.
    9000005    1    1    2    0    0 -0.32289830850E+02  0.48865005518E+02  0.25897129103E+03  0.26551375015E+03  0.10000000000E+01 0.  0.
<mgrwt>
<rscale>  0 0.12492942E+03</rscale>
<asrwt>0</asrwt>
<pdfrwt beam="2">  1        4 0.74711660E-03 0.12492942E+03</pdfrwt>
<pdfrwt beam="1">  1       -4 0.12361021E+00 0.12492942E+03</pdfrwt>
<totfact> 0.37954360E+03</totfact>
</mgrwt>
</event>
<event>
 5    1  0.3261711E-002  0.1250133E+03  0.7818608E-02  0.1235049E+00
          4   -1    0    0  501    0  0.00000000000E+00  0.00000000000E+00  0.45324977181E+02  0.45342766308E+02  0.12700000000E+01 0.  1.
         -4   -1    0    0    0  501 -0.00000000000E+00 -0.00000000000E+00 -0.86162102124E+02  0.86171461299E+02  0.12700000000E+01 0.  1.
         25    2    1    2    0    0  0.00000000000E+00  0.00000000000E+00 -0.40837124943E+02  0.13151422761E+03  0.12501328445E+03 0.  0.
    9000005    1    3    3    0    0 -0.40919044252E+01  0.16335827280E+02 -0.83735429108E+02  0.85417943213E+02  0.10000000000E+01 0.  0.
    9000005    1    3    3    0    0  0.40919044252E+01 -0.16335827280E+02  0.42898304165E+02  0.46096284394E+02  0.10000000000E+01 0.  0.
<mgrwt>
<rscale>  0 0.12501328E+03</rscale>
<asrwt>0</asrwt>
<pdfrwt beam="1">  1        4 0.69751617E-02 0.12501328E+03</pdfrwt>
<pdfrwt beam="2">  1       -4 0.13257796E-01 0.12501328E+03</pdfrwt>
<totfact> 0.10308988E+04</totfact>
</mgrwt>
</event>
<event>
 5    1  0.3261711E-002  0.1249910E+03  0.7818608E-02  0.1235083E+00
         -4   -1    0    0    0  501 -0.00000000000E+00  0.00000000000E+00  0.11668996723E+02  0.11737903754E+02  0.12700000000E+01 0.  1.
          4   -1    0    0  501    0  0.00000000000E+00 -0.00000000000E+00 -0.33365107988E+03  0.33365349692E+03  0.12700000000E+01 0.  1.
         25    2    1    2    0    0  0.00000000000E+00  0.00000000000E+00 -0.32198208316E+03  0.34539140067E+03  0.12499103081E+03 0.  0.
    9000005    1    3    3    0    0 -0.50314657354E+02 -0.33646224633E+02 -0.20389445895E+03  0.21269128701E+03  0.10000000000E+01 0.  0.
    9000005    1    3    3    0    0  0.50314657354E+02  0.33646224633E+02 -0.11808762421E+03  0.13270011367E+03  0.10000000000E+01 0.  0.
<mgrwt>
<rscale>  0 0.12499103E+03</rscale>
<asrwt>0</asrwt>
<pdfrwt beam="2">  1        4 0.51336414E-01 0.12499103E+03</pdfrwt>
<pdfrwt beam="1">  1       -4 0.18007170E-02 0.12499103E+03</pdfrwt>
<totfact> 0.70248501E+03</totfact>
</mgrwt>
</event>
<event>
 5    1  0.3261711E-002  0.1250031E+03  0.7818608E-02  0.1235065E+00
         -4   -1    0    0    0  501 -0.00000000000E+00  0.00000000000E+00  0.80956822554E+01  0.81946916464E+01  0.12700000000E+01 0.  1.
          4   -1    0    0  501    0  0.00000000000E+00 -0.00000000000E+00 -0.47950128489E+03  0.47950296674E+03  0.12700000000E+01 0.  1.
         25    2    1    2    0    0  0.00000000000E+00  0.00000000000E+00 -0.47140560264E+03  0.48769765839E+03  0.12500305516E+03 0.  0.
    9000005    1    3    3    0    0 -0.46689001497E+02 -0.40952009892E+02 -0.20852902203E+03  0.21758281873E+03  0.10000000000E+01 0.  0.
    9000005    1    3    3    0    0  0.46689001497E+02  0.40952009892E+02 -0.26287658060E+03  0.27011483966E+03  0.10000000000E+01 0.  0.
<mgrwt>
<rscale>  0 0.12500306E+03</rscale>
<asrwt>0</asrwt>
<pdfrwt beam="2">  1        4 0.73777152E-01 0.12500306E+03</pdfrwt>
<pdfrwt beam="1">  1       -4 0.12532354E-02 0.12500306E+03</pdfrwt>
<totfact> 0.56827862E+03</totfact>
</mgrwt>
</event>
<event>
 5    1  0.3261711E-002  0.1250079E+03  0.7818608E-02  0.1235057E+00
         -4   -1    0    0    0  501 -0.00000000000E+00  0.00000000000E+00  0.19396739258E+03  0.19397155019E+03  0.12700000000E+01 0.  1.
          4   -1    0    0  501    0  0.00000000000E+00 -0.00000000000E+00 -0.20116838439E+02  0.20156886882E+02  0.12700000000E+01 0.  1.
         25    2    1    2    0    0  0.00000000000E+00  0.00000000000E+00  0.17385055414E+03  0.21412843707E+03  0.12500788931E+03 0.  0.
    9000005    1    3    3    0    0 -0.19771248111E+02  0.33254653244E+02  0.28530562406E+01  0.38806109624E+02  0.10000000000E+01 0.  0.
    9000005    1    3    3    0    0  0.19771248111E+02 -0.33254653244E+02  0.17099749790E+03  0.17532232745E+03  0.10000000000E+01 0.  0.
<mgrwt>
<rscale>  0 0.12500789E+03</rscale>
<asrwt>0</asrwt>
<pdfrwt beam="2">  1        4 0.30982985E-02 0.12500789E+03</pdfrwt>
<pdfrwt beam="1">  1       -4 0.29844539E-01 0.12500789E+03</pdfrwt>
<totfact> 0.87790579E+03</totfact>
</mgrwt>
</event>
<event>
 5    1  0.3261711E-002  0.1249985E+03  0.7818608E-02  0.1235072E+00
          4   -1    0    0  501    0  0.00000000000E+00  0.00000000000E+00  0.74783896748E+01  0.75854605746E+01  0.12700000000E+01 0.  1.
         -4   -1    0    0    0  501 -0.00000000000E+00 -0.00000000000E+00 -0.51850529436E+03  0.51850684969E+03  0.12700000000E+01 0.  1.
         25    2    1    2    0    0  0.00000000000E+00  0.00000000000E+00 -0.51102690468E+03  0.52609231027E+03  0.12499848644E+03 0.  0.
    9000005    1    3    3    0    0 -0.54041373416E+02 -0.31371519560E+02 -0.25249858796E+03  0.26011762571E+03  0.10000000000E+01 0.  0.
    9000005    1    3    3    0    0  0.54041373416E+02  0.31371519560E+02 -0.25852831672E+03  0.26597468456E+03  0.10000000000E+01 0.  0.
<mgrwt>
<rscale>  0 0.12499849E+03</rscale>
<asrwt>0</asrwt>
<pdfrwt beam="1">  1        4 0.11588778E-02 0.12499849E+03</pdfrwt>
<pdfrwt beam="2">  1       -4 0.79778373E-01 0.12499849E+03</pdfrwt>
<totfact> 0.53897075E+03</totfact>
</mgrwt>
</event>
<event>
 5    1  0.3261711E-002  0.1249946E+03  0.7818608E-02  0.1235078E+00
          4   -1    0    0  501    0  0.00000000000E+00  0.00000000000E+00  0.27721779924E+02  0.27750855522E+02  0.12700000000E+01 0. -1.
         -4   -1    0    0    0  501 -0.00000000000E+00 -0.00000000000E+00 -0.14079108808E+03  0.14079681596E+03  0.12700000000E+01 0. -1.
         25    2    1    2    0    0  0.00000000000E+00  0.00000000000E+00 -0.11306930816E+03  0.16854767148E+03  0.12499459634E+03 0.  0.
    9000005    1    3    3    0    0 -0.30187974207E+02 -0.54433377276E+02 -0.63994576454E+02  0.89278284952E+02  0.10000000000E+01 0.  0.
    9000005    1    3    3    0    0  0.30187974207E+02  0.54433377276E+02 -0.49074731705E+02  0.79269386527E+02  0.10000000000E+01 0.  0.
<mgrwt>
<rscale>  0 0.12499460E+03</rscale>
<asrwt>0</asrwt>
<pdfrwt beam="1">  1        4 0.42675665E-02 0.12499460E+03</pdfrwt>
<pdfrwt beam="2">  1       -4 0.21662844E-01 0.12499460E+03</pdfrwt>
<totfact> 0.95731322E+03</totfact>
</mgrwt>
</event>
<event>
 5    1  0.3261711E-002  0.1250021E+03  0.7818608E-02  0.1235066E+00
          4   -1    0    0  501    0  0.00000000000E+00  0.00000000000E+00  0.30721842510E+02  0.30748081358E+02  0.12700000000E+01 0.  1.
         -4   -1    0    0    0  501 -0.00000000000E+00 -0.00000000000E+00 -0.12706951502E+03  0.12707586139E+03  0.12700000000E+01 0.  1.
         25    2    1    2    0    0  0.00000000000E+00  0.00000000000E+00 -0.96347672512E+02  0.15782394275E+03  0.12500209161E+03 0.  0.
    9000005    1    3    3    0    0  0.34307817320E+02  0.31107735145E+02 -0.10115161603E+03  0.11125361541E+03  0.10000000000E+01 0.  0.
    9000005    1    3    3    0    0 -0.34307817320E+02 -0.31107735145E+02  0.48039435217E+01  0.46570327339E+02  0.10000000000E+01 0.  0.
<mgrwt>
<rscale>  0 0.12500209E+03</rscale>
<asrwt>0</asrwt>
<pdfrwt beam="1">  1        4 0.47289439E-02 0.12500209E+03</pdfrwt>
<pdfrwt beam="2">  1       -4 0.19551663E-01 0.12500209E+03</pdfrwt>
<totfact> 0.97759362E+03</totfact>
</mgrwt>
</event>
<event>
 5    1  0.3261711E-002  0.1250014E+03  0.7818608E-02  0.1235067E+00
         -4   -1    0    0    0  501 -0.00000000000E+00  0.00000000000E+00  0.42179208201E+03  0.42179399397E+03  0.12700000000E+01 0.  1.
          4   -1    0    0  501    0  0.00000000000E+00 -0.00000000000E+00 -0.92158036917E+01  0.93028994235E+01  0.12700000000E+01 0.  1.
         25    2    1    2    0    0  0.00000000000E+00  0.00000000000E+00  0.41257627832E+03  0.43109689339E+03  0.12500138423E+03 0.  0.
    9000005    1    3    3    0    0  0.26370632284E+02  0.19069032554E+02  0.22295573683E+02  0.39460497405E+02  0.10000000000E+01 0.  0.
    9000005    1    3    3    0    0 -0.26370632284E+02 -0.19069032554E+02  0.39028070464E+03  0.39163639599E+03  0.10000000000E+01 0.  0.
<mgrwt>
<rscale>  0 0.12500138E+03</rscale>
<asrwt>0</asrwt>
<pdfrwt beam="2">  1        4 0.14246624E-02 0.12500138E+03</pdfrwt>
<pdfrwt beam="1">  1       -4 0.64897951E-01 0.12500138E+03</pdfrwt>
<totfact> 0.61634799E+03</totfact>
</mgrwt>
</event>
<event>
 5    1  0.3261711E-002  0.1249999E+03  0.7818608E-02  0.1235069E+00
         -4   -1    0    0    0  501 -0.00000000000E+00  0.00000000000E+00  0.18128007643E+03  0.18128452502E+03  0.12700000000E+01 0. -1.
          4   -1    0    0  501    0  0.00000000000E+00 -0.00000000000E+00 -0.21524688414E+02  0.21562122144E+02  0.12700000000E+01 0. -1.
         25    2    1    2    0    0  0.00000000000E+00  0.00000000000E+00  0.15975538802E+03  0.20284664716E+03  0.12499991306E+03 0.  0.
    9000005    1    3    3    0    0  0.47619038258E+02  0.31970192038E+02  0.39615274150E+02  0.69713957925E+02  0.10000000000E+01 0.  0.
    9000005    1    3    3    0    0 -0.47619038258E+02 -0.31970192038E+02  0.12014011387E+03  0.13313268924E+03  0.10000000000E+01 0.  0.
<mgrwt>
<rscale>  0 0.12499991E+03</rscale>
<asrwt>0</asrwt>
<pdfrwt beam="2">  1        4 0.33147124E-02 0.12499991E+03</pdfrwt>
<pdfrwt beam="1">  1       -4 0.27892463E-01 0.12499991E+03</pdfrwt>
<totfact> 0.89657782E+03</totfact>
</mgrwt>
</event>
<event>
 5    1  0.3261711E-002  0.1249990E+03  0.7818608E-02  0.1235071E+00
          4   -1    0    0  501    0  0.00000000000E+00  0.00000000000E+00  0.15676731044E+03  0.15677245460E+03  0.12700000000E+01 0.  1.
         -4   -1    0    0    0  501 -0.00000000000E+00 -0.00000000000E+00 -0.24895348690E+02  0.24927721244E+02  0.12700000000E+01 0.  1.
         25    2    1    2    0    0  0.00000000000E+00  0.00000000000E+00  0.13187196175E+03  0.18170017584E+03  0.12499895842E+03 0.  0.
    9000005    1    3    3    0    0  0.52972629812E+02 -0.29856063673E+02  0.86885212327E+02  0.10605434535E+03  0.10000000000E+01 0.  0.
    9000005    1    3    3    0    0 -0.52972629812E+02  0.29856063673E+02  0.44986749418E+02  0.75645830490E+02  0.10000000000E+01 0.  0.
<mgrwt>
<rscale>  0 0.12499896E+03</rscale>
<asrwt>0</asrwt>
<pdfrwt beam="1">  1        4 0.24120934E-01 0.12499896E+03</pdfrwt>
<pdfrwt beam="2">  1       -4 0.38329395E-02 0.12499896E+03</pdfrwt>
<totfact> 0.93314036E+03</totfact>
</mgrwt>
</event>
<event>
 5    1  0.3261711E-002  0.1249981E+03  0.7818608E-02  0.1235072E+00
         -4   -1    0    0    0  501 -0.00000000000E+00  0.00000000000E+00  0.43515858933E+03  0.43516044256E+03  0.12700000000E+01 0. -1.
          4   -1    0    0  501    0  0.00000000000E+00 -0.00000000000E+00 -0.89295406686E+01  0.90194011193E+01  0.12700000000E+01 0. -1.
         25    2    1    2    0    0  0.00000000000E+00  0.00000000000E+00  0.42622904866E+03  0.44417984368E+03  0.12499812641E+03 0.  0.
    9000005    1    3    3    0    0  0.61433655017E+02  0.48899856787E+01  0.17633511416E+03  0.18679689080E+03  0.10000000000E+01 0.  0.
    9000005    1    3    3    0    0 -0.61433655017E+02 -0.48899856787E+01  0.24989393450E+03  0.25738295287E+03  0.10000000000E+01 0.  0.
<mgrwt>
<rscale>  0 0.12499813E+03</rscale>
<asrwt>0</asrwt>
<pdfrwt beam="2">  1        4 0.13808304E-02 0.12499813E+03</pdfrwt>
<pdfrwt beam="1">  1       -4 0.66954527E-01 0.12499813E+03</pdfrwt>
<totfact> 0.60473828E+03</totfact>
</mgrwt>
</event>
<event>
 5    1  0.3261711E-002  0.1249942E+03  0.7818608E-02  0.1235078E+00
         -4   -1    0    0    0  501 -0.00000000000E+00  0.00000000000E+00  0.15512769147E+02  0.15564668535E+02  0.12700000000E+01 0.  1.
          4   -1    0    0  501    0  0.00000000000E+00 -0.00000000000E+00 -0.25131122423E+03  0.25131443318E+03  0.12700000000E+01 0.  1.
         25    2    1    2    0    0  0.00000000000E+00  0.00000000000E+00 -0.23579845509E+03  0.26687910172E+03  0.12499417391E+03 0.  0.
    9000005    1    3    3    0    0  0.44688618118E+02  0.42257935969E+02 -0.94308175999E+02  0.11259590491E+03  0.10000000000E+01 0.  0.
    9000005    1    3    3    0    0 -0.44688618118E+02 -0.42257935969E+02 -0.14149027909E+03  0.15428319681E+03  0.10000000000E+01 0.  0.
<mgrwt>
<rscale>  0 0.12499417E+03</rscale>
<asrwt>0</asrwt>
<pdfrwt beam="2">  1        4 0.38667501E-01 0.12499417E+03</pdfrwt>
<pdfrwt beam="1">  1       -4 0.23908192E-02 0.12499417E+03</pdfrwt>
<totfact> 0.79960631E+03</totfact>
</mgrwt>
</event>
<event>
 5    1  0.3261711E-002  0.1249989E+03  0.7818608E-02  0.1235071E+00
          4   -1    0    0  501    0  0.00000000000E+00  0.00000000000E+00  0.56559657538E+02  0.56573914137E+02  0.12700000000E+01 0.  1.
         -4   -1    0    0    0  501 -0.00000000000E+00 -0.00000000000E+00 -0.69034265145E+02  0.69045946036E+02  0.12700000000E+01 0.  1.
         25    2    1    2    0    0  0.00000000000E+00  0.00000000000E+00 -0.12474607606E+02  0.12561986017E+03  0.12499893374E+03 0.  0.
    9000005    1    3    3    0    0 -0.10024077126E+02 -0.29073160619E+02 -0.60908388324E+02  0.68239010535E+02  0.10000000000E+01 0.  0.
    9000005    1    3    3    0    0  0.10024077126E+02  0.29073160619E+02  0.48433780718E+02  0.57380849638E+02  0.10000000000E+01 0.  0.
<mgrwt>
<rscale>  0 0.12499893E+03</rscale>
<asrwt>0</asrwt>
<pdfrwt beam="1">  1        4 0.87034809E-02 0.12499893E+03</pdfrwt>
<pdfrwt beam="2">  1       -4 0.10622651E-01 0.12499893E+03</pdfrwt>
<totfact> 0.10439560E+04</totfact>
</mgrwt>
</event>
<event>
 5    1  0.3261711E-002  0.1249981E+03  0.7818608E-02  0.1235072E+00
          4   -1    0    0  501    0  0.00000000000E+00  0.00000000000E+00  0.97280471399E+02  0.97288760993E+02  0.12700000000E+01 0. -1.
         -4   -1    0    0    0  501 -0.00000000000E+00 -0.00000000000E+00 -0.40133275982E+02  0.40153365252E+02  0.12700000000E+01 0. -1.
         25    2    1    2    0    0  0.00000000000E+00  0.00000000000E+00  0.57147195416E+02  0.13744212624E+03  0.12499814448E+03 0.  0.
    9000005    1    3    3    0    0  0.31407761741E+02  0.27800245469E+02 -0.22361160305E+02  0.47542850524E+02  0.10000000000E+01 0.  0.
    9000005    1    3    3    0    0 -0.31407761741E+02 -0.27800245469E+02  0.79508355721E+02  0.89899275721E+02  0.10000000000E+01 0.  0.
<mgrwt>
<rscale>  0 0.12499814E+03</rscale>
<asrwt>0</asrwt>
<pdfrwt beam="1">  1        4 0.14968409E-01 0.12499814E+03</pdfrwt>
<pdfrwt beam="2">  1       -4 0.61765332E-02 0.12499814E+03</pdfrwt>
<totfact> 0.10187276E+04</totfact>
</mgrwt>
</event>
<event>
 5    1  0.3261711E-002  0.1249975E+03  0.7818608E-02  0.1235073E+00
          4   -1    0    0  501    0  0.00000000000E+00  0.00000000000E+00  0.65216544447E+02  0.65228909002E+02  0.12700000000E+01 0. -1.
         -4   -1    0    0    0  501 -0.00000000000E+00 -0.00000000000E+00 -0.59869434790E+02  0.59882903420E+02  0.12700000000E+01 0. -1.
         25    2    1    2    0    0  0.00000000000E+00  0.00000000000E+00  0.53471096567E+01  0.12511181242E+03  0.12499749608E+03 0.  0.
    9000005    1    3    3    0    0 -0.46252989236E+02  0.37015647243E+02 -0.17234239320E+02  0.61705074013E+02  0.10000000000E+01 0.  0.
    9000005    1    3    3    0    0  0.46252989236E+02 -0.37015647243E+02  0.22581348977E+02  0.63406738409E+02  0.10000000000E+01 0.  0.
<mgrwt>
<rscale>  0 0.12499750E+03</rscale>
<asrwt>0</asrwt>
<pdfrwt beam="1">  1        4 0.10035302E-01 0.12499750E+03</pdfrwt>
<pdfrwt beam="2">  1       -4 0.92126694E-02 0.12499750E+03</pdfrwt>
<totfact> 0.10451026E+04</totfact>
</mgrwt>
</event>
<event>
 5    1  0.3261711E-002  0.1250011E+03  0.7818608E-02  0.1235068E+00
         -4   -1    0    0    0  501 -0.00000000000E+00  0.00000000000E+00  0.36060029851E+03  0.36060253491E+03  0.12700000000E+01 0.  1.
          4   -1    0    0  501    0  0.00000000000E+00 -0.00000000000E+00 -0.10793327648E+02  0.10867788263E+02  0.12700000000E+01 0.  1.
         25    2    1    2    0    0  0.00000000000E+00  0.00000000000E+00  0.34980697086E+03  0.37147032318E+03  0.12500113654E+03 0.  0.
    9000005    1    3    3    0    0  0.56474512344E+02 -0.19121365479E+02  0.23052528400E+03  0.23811321619E+03  0.10000000000E+01 0.  0.
    9000005    1    3    3    0    0 -0.56474512344E+02  0.19121365479E+02  0.11928168686E+03  0.13335710698E+03  0.10000000000E+01 0.  0.
<mgrwt>
<rscale>  0 0.12500114E+03</rscale>
<asrwt>0</asrwt>
<pdfrwt beam="2">  1        4 0.16664116E-02 0.12500114E+03</pdfrwt>
<pdfrwt beam="1">  1       -4 0.55482871E-01 0.12500114E+03</pdfrwt>
<totfact> 0.67423696E+03</totfact>
</mgrwt>
</event>
<event>
 5    1  0.3261711E-002  0.1250007E+03  0.7818608E-02  0.1235068E+00
          4   -1    0    0  501    0  0.00000000000E+00  0.00000000000E+00  0.16886531091E+03  0.16887008654E+03  0.12700000000E+01 0.  1.
         -4   -1    0    0    0  501 -0.00000000000E+00 -0.00000000000E+00 -0.23110079303E+02  0.23144949026E+02  0.12700000000E+01 0.  1.
         25    2    1    2    0    0  0.00000000000E+00  0.00000000000E+00  0.14575523161E+03  0.19201503557E+03  0.12500074537E+03 0.  0.
    9000005    1    3    3    0    0  0.63828983487E+01  0.42677145241E+02  0.34423944081E+01  0.43300464161E+02  0.10000000000E+01 0.  0.
    9000005    1    3    3    0    0 -0.63828983487E+01 -0.42677145241E+02  0.14231283720E+03  0.14871457141E+03  0.10000000000E+01 0.  0.
<mgrwt>
<rscale>  0 0.12500075E+03</rscale>
<asrwt>0</asrwt>
<pdfrwt beam="1">  1        4 0.25982328E-01 0.12500075E+03</pdfrwt>
<pdfrwt beam="2">  1       -4 0.35584465E-02 0.12500075E+03</pdfrwt>
<totfact> 0.91496356E+03</totfact>
</mgrwt>
</event>
<event>
 5    1  0.3261711E-002  0.1250027E+03  0.7818608E-02  0.1235065E+00
         -4   -1    0    0    0  501 -0.00000000000E+00  0.00000000000E+00  0.40734006988E+01  0.42667895721E+01  0.12700000000E+01 0. -1.
          4   -1    0    0  501    0  0.00000000000E+00 -0.00000000000E+00 -0.93657660390E+03  0.93657746496E+03  0.12700000000E+01 0. -1.
         25    2    1    2    0    0  0.00000000000E+00  0.00000000000E+00 -0.93250320320E+03  0.94084425453E+03  0.12500274920E+03 0.  0.
    9000005    1    3    3    0    0 -0.50718542964E+02  0.23961535303E+02 -0.67359457365E+03  0.67592690095E+03  0.10000000000E+01 0.  0.
    9000005    1    3    3    0    0  0.50718542964E+02 -0.23961535303E+02 -0.25890862955E+03  0.26491735358E+03  0.10000000000E+01 0.  0.
<mgrwt>
<rscale>  0 0.12500275E+03</rscale>
<asrwt>0</asrwt>
<pdfrwt beam="2">  1        4 0.14410348E+00 0.12500275E+03</pdfrwt>
<pdfrwt beam="1">  1       -4 0.64162008E-03 0.12500275E+03</pdfrwt>
<totfact> 0.32641364E+03</totfact>
</mgrwt>
</event>
<event>
 5    1  0.3261711E-002  0.1250003E+03  0.7818608E-02  0.1235069E+00
          4   -1    0    0  501    0  0.00000000000E+00  0.00000000000E+00  0.79430234150E+03  0.79430335680E+03  0.12700000000E+01 0. -1.
         -4   -1    0    0    0  501 -0.00000000000E+00 -0.00000000000E+00 -0.48348300817E+01  0.49988480592E+01  0.12700000000E+01 0. -1.
         25    2    1    2    0    0  0.00000000000E+00  0.00000000000E+00  0.78946751142E+03  0.79930220486E+03  0.12500025238E+03 0.  0.
    9000005    1    3    3    0    0 -0.59965872230E+02 -0.13512624142E+02  0.32273805974E+03  0.32854124862E+03  0.10000000000E+01 0.  0.
    9000005    1    3    3    0    0  0.59965872230E+02  0.13512624142E+02  0.46672945168E+03  0.47076095623E+03  0.10000000000E+01 0.  0.
<mgrwt>
<rscale>  0 0.12500025E+03</rscale>
<asrwt>0</asrwt>
<pdfrwt beam="1">  1        4 0.12221315E+00 0.12500025E+03</pdfrwt>
<pdfrwt beam="2">  1       -4 0.75651431E-03 0.12500025E+03</pdfrwt>
<totfact> 0.38295656E+03</totfact>
</mgrwt>
</event>
<event>
 5    1  0.3261711E-002  0.1250000E+03  0.7818608E-02  0.1235069E+00
          4   -1    0    0  501    0  0.00000000000E+00  0.00000000000E+00  0.12389676624E+03  0.12390327511E+03  0.12700000000E+01 0.  1.
         -4   -1    0    0    0  501 -0.00000000000E+00 -0.00000000000E+00 -0.31508128904E+02  0.31533713499E+02  0.12700000000E+01 0.  1.
         25    2    1    2    0    0  0.00000000000E+00  0.00000000000E+00  0.92388637334E+02  0.15543698861E+03  0.12499998848E+03 0.  0.
    9000005    1    3    3    0    0  0.50161114406E+02 -0.34663835717E+02  0.63222968381E+02  0.87839983128E+02  0.10000000000E+01 0.  0.
    9000005    1    3    3    0    0 -0.50161114406E+02  0.34663835717E+02  0.29165668954E+02  0.67597005485E+02  0.10000000000E+01 0.  0.
<mgrwt>
<rscale>  0 0.12499999E+03</rscale>
<asrwt>0</asrwt>
<pdfrwt beam="1">  1        4 0.19063510E-01 0.12499999E+03</pdfrwt>
<pdfrwt beam="2">  1       -4 0.48498730E-02 0.12499999E+03</pdfrwt>
<totfact> 0.98229806E+03</totfact>
</mgrwt>
</event>
<event>
 5    1  0.3261711E-002  0.1250058E+03  0.7818608E-02  0.1235060E+00
          4   -1    0    0  501    0  0.00000000000E+00  0.00000000000E+00  0.20590055396E+02  0.20629185180E+02  0.12700000000E+01 0. -1.
         -4   -1    0    0    0  501 -0.00000000000E+00 -0.00000000000E+00 -0.18951173680E+03  0.18951599216E+03  0.12700000000E+01 0. -1.
         25    2    1    2    0    0  0.00000000000E+00  0.00000000000E+00 -0.16892168141E+03  0.21014517735E+03  0.12500584431E+03 0.  0.
    9000005    1    3    3    0    0 -0.20777947574E+02 -0.27771342925E+02 -0.17185523696E+03  0.17532311047E+03  0.10000000000E+01 0.  0.
    9000005    1    3    3    0    0  0.20777947574E+02  0.27771342925E+02  0.29335555558E+01  0.34822066875E+02  0.10000000000E+01 0.  0.
<mgrwt>
<rscale>  0 0.12500584E+03</rscale>
<asrwt>0</asrwt>
<pdfrwt beam="1">  1        4 0.31710383E-02 0.12500584E+03</pdfrwt>
<pdfrwt beam="2">  1       -4 0.29158988E-01 0.12500584E+03</pdfrwt>
<totfact> 0.88440622E+03</totfact>
</mgrwt>
</event>
<event>
 5    1  0.3261711E-002  0.1250258E+03  0.7818608E-02  0.1235029E+00
          4   -1    0    0  501    0  0.00000000000E+00  0.00000000000E+00  0.27985964850E+01  0.30732787517E+01  0.12700000000E+01 0. -1.
         -4   -1    0    0    0  501 -0.00000000000E+00 -0.00000000000E+00 -0.13307702205E+04  0.13307708265E+04  0.12700000000E+01 0. -1.
         25    2    1    2    0    0  0.00000000000E+00  0.00000000000E+00 -0.13279716240E+04  0.13338441052E+04  0.12502584905E+03 0.  0.
    9000005    1    3    3    0    0 -0.26749645395E+02 -0.51773139354E+02 -0.90511957046E+03  0.90699417767E+03  0.10000000000E+01 0.  0.
    9000005    1    3    3    0    0  0.26749645395E+02  0.51773139354E+02 -0.42285205351E+03  0.42684992755E+03  0.10000000000E+01 0.  0.
<mgrwt>
<rscale>  0 0.12502585E+03</rscale>
<asrwt>0</asrwt>
<pdfrwt beam="1">  1        4 0.45173039E-03 0.12502585E+03</pdfrwt>
<pdfrwt beam="2">  1       -4 0.20475457E+00 0.12502585E+03</pdfrwt>
<totfact> 0.21431530E+03</totfact>
</mgrwt>
</event>
<event>
 5    1  0.3261711E-002  0.1249923E+03  0.7818608E-02  0.1235081E+00
         -4   -1    0    0    0  501 -0.00000000000E+00  0.00000000000E+00  0.34842561930E+01  0.37084958162E+01  0.12700000000E+01 0.  1.
          4   -1    0    0  501    0  0.00000000000E+00 -0.00000000000E+00 -0.10858052569E+04  0.10858059996E+04  0.12700000000E+01 0.  1.
         25    2    1    2    0    0  0.00000000000E+00  0.00000000000E+00 -0.10823210007E+04  0.10895144954E+04  0.12499234854E+03 0.  0.
    9000005    1    3    3    0    0  0.62160542471E+02 -0.11013580673E+01 -0.48629006138E+03  0.49024908958E+03  0.10000000000E+01 0.  0.
    9000005    1    3    3    0    0 -0.62160542471E+02  0.11013580673E+01 -0.59603093928E+03  0.59926540582E+03  0.10000000000E+01 0.  0.
<mgrwt>
<rscale>  0 0.12499235E+03</rscale>
<asrwt>0</asrwt>
<pdfrwt beam="2">  1        4 0.16706401E+00 0.12499235E+03</pdfrwt>
<pdfrwt beam="1">  1       -4 0.55334661E-03 0.12499235E+03</pdfrwt>
<totfact> 0.27796998E+03</totfact>
</mgrwt>
</event>
<event>
 5    1  0.3261711E-002  0.1250008E+03  0.7818608E-02  0.1235068E+00
          4   -1    0    0  501    0  0.00000000000E+00  0.00000000000E+00  0.28141999780E+02  0.28170641661E+02  0.12700000000E+01 0.  1.
         -4   -1    0    0    0  501 -0.00000000000E+00 -0.00000000000E+00 -0.13870470653E+03  0.13871052056E+03  0.12700000000E+01 0.  1.
         25    2    1    2    0    0  0.00000000000E+00  0.00000000000E+00 -0.11056270675E+03  0.16688116222E+03  0.12500084072E+03 0.  0.
    9000005    1    3    3    0    0 -0.74663877679E+01  0.52524350498E+02 -0.99373032163E+02  0.11265235844E+03  0.10000000000E+01 0.  0.
    9000005    1    3    3    0    0  0.74663877679E+01 -0.52524350498E+02 -0.11189674586E+02  0.54228803775E+02  0.10000000000E+01 0.  0.
<mgrwt>
<rscale>  0 0.12500084E+03</rscale>
<asrwt>0</asrwt>
<pdfrwt beam="1">  1        4 0.43321890E-02 0.12500084E+03</pdfrwt>
<pdfrwt beam="2">  1       -4 0.21341836E-01 0.12500084E+03</pdfrwt>
<totfact> 0.96030499E+03</totfact>
</mgrwt>
</event>
<event>
 5    1  0.3261711E-002  0.1250038E+03  0.7818608E-02  0.1235063E+00
          4   -1    0    0  501    0  0.00000000000E+00  0.00000000000E+00  0.76819339198E+01  0.77862063130E+01  0.12700000000E+01 0.  1.
         -4   -1    0    0    0  501 -0.00000000000E+00 -0.00000000000E+00 -0.50499626176E+03  0.50499785870E+03  0.12700000000E+01 0.  1.
         25    2    1    2    0    0  0.00000000000E+00  0.00000000000E+00 -0.49731432784E+03  0.51278406501E+03  0.12500382657E+03 0.  0.
    9000005    1    3    3    0    0 -0.41519400322E+02 -0.91423092821E+01 -0.60760619583E+02  0.74163975853E+02  0.10000000000E+01 0.  0.
    9000005    1    3    3    0    0  0.41519400322E+02  0.91423092821E+01 -0.43655370825E+03  0.43862008916E+03  0.10000000000E+01 0.  0.
<mgrwt>
<rscale>  0 0.12500383E+03</rscale>
<asrwt>0</asrwt>
<pdfrwt beam="1">  1        4 0.11899802E-02 0.12500383E+03</pdfrwt>
<pdfrwt beam="2">  1       -4 0.77699850E-01 0.12500383E+03</pdfrwt>
<totfact> 0.54881341E+03</totfact>
</mgrwt>
</event>
<event>
 5    1  0.3261711E-002  0.1250022E+03  0.7818608E-02  0.1235066E+00
          4   -1    0    0  501    0  0.00000000000E+00  0.00000000000E+00  0.45521207855E+03  0.45521385014E+03  0.12700000000E+01 0.  1.
         -4   -1    0    0    0  501 -0.00000000000E+00 -0.00000000000E+00 -0.85326804690E+01  0.86266758364E+01  0.12700000000E+01 0.  1.
         25    2    1    2    0    0  0.00000000000E+00  0.00000000000E+00  0.44667939808E+03  0.46384052598E+03  0.12500219545E+03 0.  0.
    9000005    1    3    3    0    0  0.23531691306E+01 -0.72127697103E+01  0.45351501551E+03  0.45357957488E+03  0.10000000000E+01 0.  0.
    9000005    1    3    3    0    0 -0.23531691306E+01  0.72127697103E+01 -0.68356174278E+01  0.10260951100E+02  0.10000000000E+01 0.  0.
<mgrwt>
<rscale>  0 0.12500220E+03</rscale>
<asrwt>0</asrwt>
<pdfrwt beam="1">  1        4 0.70039980E-01 0.12500220E+03</pdfrwt>
<pdfrwt beam="2">  1       -4 0.13200870E-02 0.12500220E+03</pdfrwt>
<totfact> 0.58780431E+03</totfact>
</mgrwt>
</event>
<event>
 5    1  0.3261711E-002  0.1249972E+03  0.7818608E-02  0.1235074E+00
         -4   -1    0    0    0  501 -0.00000000000E+00  0.00000000000E+00  0.10789185114E+02  0.10863674122E+02  0.12700000000E+01 0.  1.
          4   -1    0    0  501    0  0.00000000000E+00 -0.00000000000E+00 -0.36071516935E+03  0.36071740504E+03  0.12700000000E+01 0.  1.
         25    2    1    2    0    0  0.00000000000E+00  0.00000000000E+00 -0.34992598424E+03  0.37158107917E+03  0.12499721576E+03 0.  0.
    9000005    1    3    3    0    0  0.28789702503E+02  0.52377491450E+02 -0.12073009657E+03  0.13471824226E+03  0.10000000000E+01 0.  0.
    9000005    1    3    3    0    0 -0.28789702503E+02 -0.52377491450E+02 -0.22919588767E+03  0.23686283690E+03  0.10000000000E+01 0.  0.
<mgrwt>
<rscale>  0 0.12499722E+03</rscale>
<asrwt>0</asrwt>
<pdfrwt beam="2">  1        4 0.55500534E-01 0.12499722E+03</pdfrwt>
<pdfrwt beam="1">  1       -4 0.16657768E-02 0.12499722E+03</pdfrwt>
<totfact> 0.67418004E+03</totfact>
</mgrwt>
</event>
<event>
 5    1  0.3261711E-002  0.1249996E+03  0.7818608E-02  0.1235070E+00
          4   -1    0    0  501    0  0.00000000000E+00  0.00000000000E+00  0.57089435776E+01  0.58484986768E+01  0.12700000000E+01 0. -1.
         -4   -1    0    0    0  501 -0.00000000000E+00 -0.00000000000E+00 -0.67582720769E+03  0.67582840097E+03  0.12700000000E+01 0. -1.
         25    2    1    2    0    0  0.00000000000E+00  0.00000000000E+00 -0.67011826412E+03  0.68167689965E+03  0.12499963045E+03 0.  0.
    9000005    1    3    3    0    0 -0.26884223196E+02 -0.53713951096E+02 -0.42908566714E+03  0.43327065415E+03  0.10000000000E+01 0.  0.
    9000005    1    3    3    0    0  0.26884223196E+02  0.53713951096E+02 -0.24103259697E+03  0.24840624550E+03  0.10000000000E+01 0.  0.
<mgrwt>
<rscale>  0 0.12499963E+03</rscale>
<asrwt>0</asrwt>
<pdfrwt beam="1">  1        4 0.88912634E-03 0.12499963E+03</pdfrwt>
<pdfrwt beam="2">  1       -4 0.10398418E+00 0.12499963E+03</pdfrwt>
<totfact> 0.44072138E+03</totfact>
</mgrwt>
</event>
<event>
 5    1  0.3261711E-002  0.1249999E+03  0.7818608E-02  0.1235069E+00
          4   -1    0    0  501    0  0.00000000000E+00  0.00000000000E+00  0.57804032494E+02  0.57817982260E+02  0.12700000000E+01 0.  1.
         -4   -1    0    0    0  501 -0.00000000000E+00 -0.00000000000E+00 -0.67549330658E+02  0.67561268286E+02  0.12700000000E+01 0.  1.
         25    2    1    2    0    0  0.00000000000E+00  0.00000000000E+00 -0.97452981641E+01  0.12537925055E+03  0.12499994252E+03 0.  0.
    9000005    1    3    3    0    0  0.34687640677E+02  0.38415355120E+02 -0.39997112778E+02  0.65419729099E+02  0.10000000000E+01 0.  0.
    9000005    1    3    3    0    0 -0.34687640677E+02 -0.38415355120E+02  0.30251814614E+02  0.59959521447E+02  0.10000000000E+01 0.  0.
<mgrwt>
<rscale>  0 0.12499994E+03</rscale>
<asrwt>0</asrwt>
<pdfrwt beam="1">  1        4 0.88949195E-02 0.12499994E+03</pdfrwt>
<pdfrwt beam="2">  1       -4 0.10394196E-01 0.12499994E+03</pdfrwt>
<totfact> 0.10444640E+04</totfact>
</mgrwt>
</event>
<event>
 5    1  0.3261711E-002  0.1249868E+03  0.7818608E-02  0.1235090E+00
          4   -1    0    0  501    0  0.00000000000E+00  0.00000000000E+00  0.43678412548E+01  0.45487291882E+01  0.12700000000E+01 0.  1.
         -4   -1    0    0    0  501 -0.00000000000E+00 -0.00000000000E+00 -0.87581182861E+03  0.87581274941E+03  0.12700000000E+01 0.  1.
         25    2    1    2    0    0  0.00000000000E+00  0.00000000000E+00 -0.87144398735E+03  0.88036147860E+03  0.12498683893E+03 0.  0.
    9000005    1    3    3    0    0 -0.50344360774E+02  0.23752840433E+02 -0.23579253287E+03  0.24227643436E+03  0.10000000000E+01 0.  0.
    9000005    1    3    3    0    0  0.50344360774E+02 -0.23752840433E+02 -0.63565145448E+03  0.63808504424E+03  0.10000000000E+01 0.  0.
<mgrwt>
<rscale>  0 0.12498684E+03</rscale>
<asrwt>0</asrwt>
<pdfrwt beam="1">  1        4 0.68596156E-03 0.12498684E+03</pdfrwt>
<pdfrwt beam="2">  1       -4 0.13475413E+00 0.12498684E+03</pdfrwt>
<totfact> 0.34926141E+03</totfact>
</mgrwt>
</event>
<event>
 5    1  0.3261711E-002  0.1249998E+03  0.7818608E-02  0.1235070E+00
         -4   -1    0    0    0  501 -0.00000000000E+00  0.00000000000E+00  0.19376595298E+03  0.19377011491E+03  0.12700000000E+01 0. -1.
          4   -1    0    0  501    0  0.00000000000E+00 -0.00000000000E+00 -0.20135179435E+02  0.20175191471E+02  0.12700000000E+01 0. -1.
         25    2    1    2    0    0  0.00000000000E+00  0.00000000000E+00  0.17363077354E+03  0.21394530638E+03  0.12499979441E+03 0.  0.
    9000005    1    3    3    0    0 -0.62431326135E+02 -0.10377497597E+01  0.91175594869E+02  0.11051125059E+03  0.10000000000E+01 0.  0.
    9000005    1    3    3    0    0  0.62431326135E+02  0.10377497597E+01  0.82455178672E+02  0.10343405579E+03  0.10000000000E+01 0.  0.
<mgrwt>
<rscale>  0 0.12499979E+03</rscale>
<asrwt>0</asrwt>
<pdfrwt beam="2">  1        4 0.31011178E-02 0.12499979E+03</pdfrwt>
<pdfrwt beam="1">  1       -4 0.29813546E-01 0.12499979E+03</pdfrwt>
<totfact> 0.87835989E+03</totfact>
</mgrwt>
</event>
<event>
 5    1  0.3261711E-002  0.1249878E+03  0.7818608E-02  0.1235088E+00
         -4   -1    0    0    0  501 -0.00000000000E+00  0.00000000000E+00  0.70199744767E+02  0.70211231761E+02  0.12700000000E+01 0. -1.
          4   -1    0    0  501    0  0.00000000000E+00 -0.00000000000E+00 -0.55610659326E+02  0.55625159152E+02  0.12700000000E+01 0. -1.
         25    2    1    2    0    0  0.00000000000E+00  0.00000000000E+00  0.14589085442E+02  0.12583639091E+03  0.12498782286E+03 0.  0.
    9000005    1    3    3    0    0 -0.39326002163E+01 -0.36258860402E+02 -0.43787670241E+02  0.56995880266E+02  0.10000000000E+01 0.  0.
    9000005    1    3    3    0    0  0.39326002163E+01  0.36258860402E+02  0.58376755683E+02  0.68840510647E+02  0.10000000000E+01 0.  0.
<mgrwt>
<rscale>  0 0.12498782E+03</rscale>
<asrwt>0</asrwt>
<pdfrwt beam="2">  1        4 0.85574851E-02 0.12498782E+03</pdfrwt>
<pdfrwt beam="1">  1       -4 0.10801960E-01 0.12498782E+03</pdfrwt>
<totfact> 0.10437414E+04</totfact>
</mgrwt>
</event>
<event>
 5    1  0.3261711E-002  0.1249985E+03  0.7818608E-02  0.1235072E+00
         -4   -1    0    0    0  501 -0.00000000000E+00  0.00000000000E+00  0.70331571524E+03  0.70331686188E+03  0.12700000000E+01 0.  1.
          4   -1    0    0  501    0  0.00000000000E+00 -0.00000000000E+00 -0.54801470298E+01  0.56253810065E+01  0.12700000000E+01 0.  1.
         25    2    1    2    0    0  0.00000000000E+00  0.00000000000E+00  0.69783556821E+03  0.70894224288E+03  0.12499849394E+03 0.  0.
    9000005    1    3    3    0    0 -0.22950460171E+02 -0.57622598124E+02  0.30569864248E+03  0.31192907439E+03  0.10000000000E+01 0.  0.
    9000005    1    3    3    0    0  0.22950460171E+02  0.57622598124E+02  0.39213692573E+03  0.39701316850E+03  0.10000000000E+01 0.  0.
<mgrwt>
<rscale>  0 0.12499849E+03</rscale>
<asrwt>0</asrwt>
<pdfrwt beam="2">  1        4 0.85435984E-03 0.12499849E+03</pdfrwt>
<pdfrwt beam="1">  1       -4 0.10821365E+00 0.12499849E+03</pdfrwt>
<totfact> 0.42620248E+03</totfact>
</mgrwt>
</event>
<event>
 5    1  0.3261711E-002  0.1250000E+03  0.7818608E-02  0.1235069E+00
         -4   -1    0    0    0  501 -0.00000000000E+00  0.00000000000E+00  0.97641848242E+01  0.98464310936E+01  0.12700000000E+01 0. -1.
          4   -1    0    0  501    0  0.00000000000E+00 -0.00000000000E+00 -0.39829759569E+03  0.39829962043E+03  0.12700000000E+01 0. -1.
         25    2    1    2    0    0  0.00000000000E+00  0.00000000000E+00 -0.38853341087E+03  0.40814605152E+03  0.12499995205E+03 0.  0.
    9000005    1    3    3    0    0 -0.56771848197E+01 -0.54269858138E+02 -0.29372310203E+03  0.29875024451E+03  0.10000000000E+01 0.  0.
    9000005    1    3    3    0    0  0.56771848197E+01  0.54269858138E+02 -0.94810308841E+02  0.10939580701E+03  0.10000000000E+01 0.  0.
<mgrwt>
<rscale>  0 0.12499995E+03</rscale>
<asrwt>0</asrwt>
<pdfrwt beam="2">  1        4 0.61283023E-01 0.12499995E+03</pdfrwt>
<pdfrwt beam="1">  1       -4 0.15086650E-02 0.12499995E+03</pdfrwt>
<totfact> 0.63768224E+03</totfact>
</mgrwt>
</event>
<event>
 5    1  0.3261711E-002  0.1249848E+03  0.7818608E-02  0.1235093E+00
         -4   -1    0    0    0  501 -0.00000000000E+00  0.00000000000E+00  0.20365529719E+02  0.20405090069E+02  0.12700000000E+01 0. -1.
          4   -1    0    0  501    0  0.00000000000E+00 -0.00000000000E+00 -0.19153252315E+03  0.19153673361E+03  0.12700000000E+01 0. -1.
         25    2    1    2    0    0  0.00000000000E+00  0.00000000000E+00 -0.17116699343E+03  0.21194182368E+03  0.12498478702E+03 0.  0.
    9000005    1    3    3    0    0 -0.85729022803E+01  0.27768140606E+02 -0.17938318969E+03  0.18172477274E+03  0.10000000000E+01 0.  0.
    9000005    1    3    3    0    0  0.85729022803E+01 -0.27768140606E+02  0.82161962622E+01  0.30217050936E+02  0.10000000000E+01 0.  0.
<mgrwt>
<rscale>  0 0.12498479E+03</rscale>
<asrwt>0</asrwt>
<pdfrwt beam="2">  1        4 0.29469908E-01 0.12498479E+03</pdfrwt>
<pdfrwt beam="1">  1       -4 0.31365255E-02 0.12498479E+03</pdfrwt>
<totfact> 0.88189720E+03</totfact>
</mgrwt>
</event>
<event>
 5    1  0.3261711E-002  0.1249994E+03  0.7818608E-02  0.1235070E+00
         -4   -1    0    0    0  501 -0.00000000000E+00  0.00000000000E+00  0.72664979977E+01  0.73766451149E+01  0.12700000000E+01 0.  1.
          4   -1    0    0  501    0  0.00000000000E+00 -0.00000000000E+00 -0.53341027787E+03  0.53341178974E+03  0.12700000000E+01 0.  1.
         25    2    1    2    0    0  0.00000000000E+00  0.00000000000E+00 -0.52614377987E+03  0.54078843485E+03  0.12499941671E+03 0.  0.
    9000005    1    3    3    0    0  0.29201137309E+02 -0.52818113852E+02 -0.19294346981E+03  0.20216488843E+03  0.10000000000E+01 0.  0.
    9000005    1    3    3    0    0 -0.29201137309E+02  0.52818113852E+02 -0.33320031006E+03  0.33862354643E+03  0.10000000000E+01 0.  0.
<mgrwt>
<rscale>  0 0.12499942E+03</rscale>
<asrwt>0</asrwt>
<pdfrwt beam="2">  1        4 0.82071679E-01 0.12499942E+03</pdfrwt>
<pdfrwt beam="1">  1       -4 0.11265123E-02 0.12499942E+03</pdfrwt>
<totfact> 0.52833670E+03</totfact>
</mgrwt>
</event>
<event>
 5    1  0.3261711E-002  0.1250000E+03  0.7818608E-02  0.1235069E+00
          4   -1    0    0  501    0  0.00000000000E+00  0.00000000000E+00  0.93721417223E+02  0.93730021585E+02  0.12700000000E+01 0. -1.
         -4   -1    0    0    0  501 -0.00000000000E+00 -0.00000000000E+00 -0.41659193904E+02  0.41678547680E+02  0.12700000000E+01 0. -1.
         25    2    1    2    0    0  0.00000000000E+00  0.00000000000E+00  0.52062223319E+02  0.13540856927E+03  0.12500002213E+03 0.  0.
    9000005    1    3    3    0    0  0.27317148147E+02 -0.52355969178E+02  0.38868887147E+01  0.59190218747E+02  0.10000000000E+01 0.  0.
    9000005    1    3    3    0    0 -0.27317148147E+02  0.52355969178E+02  0.48175334604E+02  0.76218350518E+02  0.10000000000E+01 0.  0.
<mgrwt>
<rscale>  0 0.12500002E+03</rscale>
<asrwt>0</asrwt>
<pdfrwt beam="1">  1        4 0.14420830E-01 0.12500002E+03</pdfrwt>
<pdfrwt beam="2">  1       -4 0.64112574E-02 0.12500002E+03</pdfrwt>
<totfact> 0.10229461E+04</totfact>
</mgrwt>
</event>
<event>
 5    1  0.3261711E-002  0.1250058E+03  0.7818608E-02  0.1235060E+00
         -4   -1    0    0    0  501 -0.00000000000E+00  0.00000000000E+00  0.11458612493E+02  0.11528777050E+02  0.12700000000E+01 0.  1.
          4   -1    0    0  501    0  0.00000000000E+00 -0.00000000000E+00 -0.33982027104E+03  0.33982264420E+03  0.12700000000E+01 0.  1.
         25    2    1    2    0    0  0.00000000000E+00  0.00000000000E+00 -0.32836165854E+03  0.35135142125E+03  0.12500576951E+03 0.  0.
    9000005    1    3    3    0    0  0.22810585209E+02 -0.34165395198E+02 -0.29655210573E+03  0.29938561829E+03  0.10000000000E+01 0.  0.
    9000005    1    3    3    0    0 -0.22810585209E+02  0.34165395198E+02 -0.31809552817E+02  0.51965802957E+02  0.10000000000E+01 0.  0.
<mgrwt>
<rscale>  0 0.12500577E+03</rscale>
<asrwt>0</asrwt>
<pdfrwt beam="2">  1        4 0.52285614E-01 0.12500577E+03</pdfrwt>
<pdfrwt beam="1">  1       -4 0.17684435E-02 0.12500577E+03</pdfrwt>
<totfact> 0.69567260E+03</totfact>
</mgrwt>
</event>
<event>
 5    1  0.3261711E-002  0.1250106E+03  0.7818608E-02  0.1235053E+00
         -4   -1    0    0    0  501 -0.00000000000E+00  0.00000000000E+00  0.43156180788E+02  0.43174863523E+02  0.12700000000E+01 0.  1.
          4   -1    0    0  501    0  0.00000000000E+00 -0.00000000000E+00 -0.90486863918E+02  0.90495775823E+02  0.12700000000E+01 0.  1.
         25    2    1    2    0    0  0.00000000000E+00  0.00000000000E+00 -0.47330683130E+02  0.13367063935E+03  0.12501058458E+03 0.  0.
    9000005    1    3    3    0    0  0.32892581589E+02 -0.52243051939E+02 -0.13262384428E+02  0.63151795226E+02  0.10000000000E+01 0.  0.
    9000005    1    3    3    0    0 -0.32892581589E+02  0.52243051939E+02 -0.34068298702E+02  0.70518844120E+02  0.10000000000E+01 0.  0.
<mgrwt>
<rscale>  0 0.12501058E+03</rscale>
<asrwt>0</asrwt>
<pdfrwt beam="2">  1        4 0.13923179E-01 0.12501058E+03</pdfrwt>
<pdfrwt beam="1">  1       -4 0.66415351E-02 0.12501058E+03</pdfrwt>
<totfact> 0.10263716E+04</totfact>
</mgrwt>
</event>
<event>
 5    1  0.3261711E-002  0.1249720E+03  0.7818608E-02  0.1235113E+00
          4   -1    0    0  501    0  0.00000000000E+00  0.00000000000E+00  0.19015500189E+02  0.19057863139E+02  0.12700000000E+01 0. -1.
         -4   -1    0    0    0  501 -0.00000000000E+00 -0.00000000000E+00 -0.20505970714E+03  0.20506363986E+03  0.12700000000E+01 0. -1.
         25    2    1    2    0    0  0.00000000000E+00  0.00000000000E+00 -0.18604420696E+03  0.22412150300E+03  0.12497200153E+03 0.  0.
    9000005    1    3    3    0    0  0.11388680116E+02  0.45841935339E+02 -0.16636024026E+03  0.17293904883E+03  0.10000000000E+01 0.  0.
    9000005    1    3    3    0    0 -0.11388680116E+02 -0.45841935339E+02 -0.19683966696E+02  0.51182454175E+02  0.10000000000E+01 0.  0.
<mgrwt>
<rscale>  0 0.12497200E+03</rscale>
<asrwt>0</asrwt>
<pdfrwt beam="1">  1        4 0.29290229E-02 0.12497200E+03</pdfrwt>
<pdfrwt beam="2">  1       -4 0.31551207E-01 0.12497200E+03</pdfrwt>
<totfact> 0.86274273E+03</totfact>
</mgrwt>
</event>
<event>
 5    1  0.3261711E-002  0.1250011E+03  0.7818608E-02  0.1235067E+00
         -4   -1    0    0    0  501 -0.00000000000E+00  0.00000000000E+00  0.53111304515E+03  0.53111456356E+03  0.12700000000E+01 0.  1.
          4   -1    0    0  501    0  0.00000000000E+00 -0.00000000000E+00 -0.72986079292E+01  0.74082776476E+01  0.12700000000E+01 0.  1.
         25    2    1    2    0    0  0.00000000000E+00  0.00000000000E+00  0.52381443722E+03  0.53852284121E+03  0.12500114345E+03 0.  0.
    9000005    1    3    3    0    0  0.45673755929E+02  0.15493984156E+02  0.90707113514E+02  0.10273721803E+03  0.10000000000E+01 0.  0.
    9000005    1    3    3    0    0 -0.45673755929E+02 -0.15493984156E+02  0.43310732370E+03  0.43578562318E+03  0.10000000000E+01 0.  0.
<mgrwt>
<rscale>  0 0.12500114E+03</rscale>
<asrwt>0</asrwt>
<pdfrwt beam="2">  1        4 0.11314159E-02 0.12500114E+03</pdfrwt>
<pdfrwt beam="1">  1       -4 0.81718238E-01 0.12500114E+03</pdfrwt>
<totfact> 0.52993306E+03</totfact>
</mgrwt>
</event>
<event>
 5    1  0.3261711E-002  0.1249977E+03  0.7818608E-02  0.1235073E+00
         -4   -1    0    0    0  501 -0.00000000000E+00  0.00000000000E+00  0.83563572386E+01  0.84523136654E+01  0.12700000000E+01 0. -1.
          4   -1    0    0  501    0  0.00000000000E+00 -0.00000000000E+00 -0.46467619082E+03  0.46467792632E+03  0.12700000000E+01 0. -1.
         25    2    1    2    0    0  0.00000000000E+00  0.00000000000E+00 -0.45631983358E+03  0.47313023999E+03  0.12499773388E+03 0.  0.
    9000005    1    3    3    0    0  0.43391416454E+02 -0.33052245207E+02 -0.11273933799E+03  0.12524545606E+03  0.10000000000E+01 0.  0.
    9000005    1    3    3    0    0 -0.43391416454E+02  0.33052245207E+02 -0.34358049559E+03  0.34788478392E+03  0.10000000000E+01 0.  0.
<mgrwt>
<rscale>  0 0.12499773E+03</rscale>
<asrwt>0</asrwt>
<pdfrwt beam="2">  1        4 0.71496140E-01 0.12499773E+03</pdfrwt>
<pdfrwt beam="1">  1       -4 0.12931085E-02 0.12499773E+03</pdfrwt>
<totfact> 0.58014014E+03</totfact>
</mgrwt>
</event>
<event>
 5    1  0.3261711E-002  0.1250006E+03  0.7818608E-02  0.1235068E+00
         -4   -1    0    0    0  501 -0.00000000000E+00  0.00000000000E+00  0.36773121606E+01  0.38904401713E+01  0.12700000000E+01 0.  1.
          4   -1    0    0  501    0  0.00000000000E+00 -0.00000000000E+00 -0.10321373300E+04  0.10321381113E+04  0.12700000000E+01 0.  1.
         25    2    1    2    0    0  0.00000000000E+00  0.00000000000E+00 -0.10284600178E+04  0.10360285515E+04  0.12500060500E+03 0.  0.
    9000005    1    3    3    0    0 -0.35506506340E+02  0.27134873508E+01 -0.88600042144E+02  0.95493677665E+02  0.10000000000E+01 0.  0.
    9000005    1    3    3    0    0  0.35506506340E+02 -0.27134873508E+01 -0.93985997565E+03  0.94053487380E+03  0.10000000000E+01 0.  0.
<mgrwt>
<rscale>  0 0.12500061E+03</rscale>
<asrwt>0</asrwt>
<pdfrwt beam="2">  1        4 0.15880659E+00 0.12500061E+03</pdfrwt>
<pdfrwt beam="1">  1       -4 0.58219572E-03 0.12500061E+03</pdfrwt>
<totfact> 0.29434708E+03</totfact>
</mgrwt>
</event>
<event>
 5    1  0.3261711E-002  0.1250018E+03  0.7818608E-02  0.1235066E+00
         -4   -1    0    0    0  501 -0.00000000000E+00  0.00000000000E+00  0.21854388961E+02  0.21891258914E+02  0.12700000000E+01 0.  1.
          4   -1    0    0  501    0  0.00000000000E+00 -0.00000000000E+00 -0.17855523683E+03  0.17855975330E+03  0.12700000000E+01 0.  1.
         25    2    1    2    0    0  0.00000000000E+00  0.00000000000E+00 -0.15670084787E+03  0.20045101221E+03  0.12500181029E+03 0.  0.
    9000005    1    3    3    0    0 -0.61428229675E+02  0.11423170000E+02 -0.80279350637E+02  0.10173342790E+03  0.10000000000E+01 0.  0.
    9000005    1    3    3    0    0  0.61428229675E+02 -0.11423170000E+02 -0.76421497229E+02  0.98717584313E+02  0.10000000000E+01 0.  0.
<mgrwt>
<rscale>  0 0.12500181E+03</rscale>
<asrwt>0</asrwt>
<pdfrwt beam="2">  1        4 0.27473219E-01 0.12500181E+03</pdfrwt>
<pdfrwt beam="1">  1       -4 0.33653974E-02 0.12500181E+03</pdfrwt>
<totfact> 0.90055847E+03</totfact>
</mgrwt>
</event>
<event>
 5    1  0.3261711E-002  0.1250008E+03  0.7818608E-02  0.1235068E+00
         -4   -1    0    0    0  501 -0.00000000000E+00  0.00000000000E+00  0.12536855110E+03  0.12537498357E+03  0.12700000000E+01 0. -1.
          4   -1    0    0  501    0  0.00000000000E+00 -0.00000000000E+00 -0.31138375361E+02  0.31164263510E+02  0.12700000000E+01 0. -1.
         25    2    1    2    0    0  0.00000000000E+00  0.00000000000E+00  0.94230175740E+02  0.15653924708E+03  0.12500083942E+03 0.  0.
    9000005    1    3    3    0    0  0.54785462622E+02 -0.26038710339E+02  0.28295426094E+02  0.66940962712E+02  0.10000000000E+01 0.  0.
    9000005    1    3    3    0    0 -0.54785462622E+02  0.26038710339E+02  0.65934749645E+02  0.89598284368E+02  0.10000000000E+01 0.  0.
<mgrwt>
<rscale>  0 0.12500084E+03</rscale>
<asrwt>0</asrwt>
<pdfrwt beam="2">  1        4 0.47930056E-02 0.12500084E+03</pdfrwt>
<pdfrwt beam="1">  1       -4 0.19289955E-01 0.12500084E+03</pdfrwt>
<totfact> 0.98012320E+03</totfact>
</mgrwt>
</event>
<event>
 5    1  0.3261711E-002  0.1249965E+03  0.7818608E-02  0.1235075E+00
          4   -1    0    0  501    0  0.00000000000E+00  0.00000000000E+00  0.12323926340E+02  0.12389191275E+02  0.12700000000E+01 0. -1.
         -4   -1    0    0    0  501 -0.00000000000E+00 -0.00000000000E+00 -0.31604332329E+03  0.31604587499E+03  0.12700000000E+01 0. -1.
         25    2    1    2    0    0  0.00000000000E+00  0.00000000000E+00 -0.30371939695E+03  0.32843506627E+03  0.12499648262E+03 0.  0.
    9000005    1    3    3    0    0 -0.10333500560E+02  0.60465321085E+02 -0.18319199140E+03  0.19319198224E+03  0.10000000000E+01 0.  0.
    9000005    1    3    3    0    0  0.10333500560E+02 -0.60465321085E+02 -0.12052740555E+03  0.13524308402E+03  0.10000000000E+01 0.  0.
<mgrwt>
<rscale>  0 0.12499648E+03</rscale>
<asrwt>0</asrwt>
<pdfrwt beam="1">  1        4 0.19012056E-02 0.12499648E+03</pdfrwt>
<pdfrwt beam="2">  1       -4 0.48627260E-01 0.12499648E+03</pdfrwt>
<totfact> 0.72169618E+03</totfact>
</mgrwt>
</event>
<event>
 5    1  0.3261711E-002  0.1249993E+03  0.7818608E-02  0.1235070E+00
         -4   -1    0    0    0  501 -0.00000000000E+00  0.00000000000E+00  0.29932166103E+02  0.29959096576E+02  0.12700000000E+01 0.  1.
          4   -1    0    0  501    0  0.00000000000E+00 -0.00000000000E+00 -0.13041329299E+03  0.13041947665E+03  0.12700000000E+01 0.  1.
         25    2    1    2    0    0  0.00000000000E+00  0.00000000000E+00 -0.10048112689E+03  0.16037857322E+03  0.12499931955E+03 0.  0.
    9000005    1    3    3    0    0 -0.13414712318E+02 -0.26629913717E+02  0.20222514922E+02  0.36042432228E+02  0.10000000000E+01 0.  0.
    9000005    1    3    3    0    0  0.13414712318E+02  0.26629913717E+02 -0.12070364181E+03  0.12433614099E+03  0.10000000000E+01 0.  0.
<mgrwt>
<rscale>  0 0.12499932E+03</rscale>
<asrwt>0</asrwt>
<pdfrwt beam="2">  1        4 0.20066130E-01 0.12499932E+03</pdfrwt>
<pdfrwt beam="1">  1       -4 0.46074960E-02 0.12499932E+03</pdfrwt>
<totfact> 0.97271337E+03</totfact>
</mgrwt>
</event>
<event>
 5    1  0.3261711E-002  0.1249977E+03  0.7818608E-02  0.1235073E+00
          4   -1    0    0  501    0  0.00000000000E+00  0.00000000000E+00  0.16915409154E+02  0.16963017622E+02  0.12700000000E+01 0.  1.
         -4   -1    0    0    0  501 -0.00000000000E+00 -0.00000000000E+00 -0.23054627804E+03  0.23054977601E+03  0.12700000000E+01 0.  1.
         25    2    1    2    0    0  0.00000000000E+00  0.00000000000E+00 -0.21363086888E+03  0.24751279363E+03  0.12499773946E+03 0.  0.
    9000005    1    3    3    0    0  0.35344728562E+02 -0.71932548029E+00 -0.47789045419E+01  0.35687605620E+02  0.10000000000E+01 0.  0.
    9000005    1    3    3    0    0 -0.35344728562E+02  0.71932548029E+00 -0.20885196434E+03  0.21182518801E+03  0.10000000000E+01 0.  0.
<mgrwt>
<rscale>  0 0.12499774E+03</rscale>
<asrwt>0</asrwt>
<pdfrwt beam="1">  1        4 0.26063021E-02 0.12499774E+03</pdfrwt>
<pdfrwt beam="2">  1       -4 0.35472587E-01 0.12499774E+03</pdfrwt>
<totfact> 0.82695206E+03</totfact>
</mgrwt>
</event>
<event>
 5    1  0.3261711E-002  0.1250013E+03  0.7818608E-02  0.1235067E+00
          4   -1    0    0  501    0  0.00000000000E+00  0.00000000000E+00  0.18111568802E+03  0.18112014064E+03  0.12700000000E+01 0.  1.
         -4   -1    0    0    0  501 -0.00000000000E+00 -0.00000000000E+00 -0.21544743013E+02  0.21582141958E+02  0.12700000000E+01 0.  1.
         25    2    1    2    0    0  0.00000000000E+00  0.00000000000E+00  0.15957094501E+03  0.20270228260E+03  0.12500131552E+03 0.  0.
    9000005    1    3    3    0    0  0.61602728060E+02  0.82574287716E+01  0.69244941734E+02  0.93053442656E+02  0.10000000000E+01 0.  0.
    9000005    1    3    3    0    0 -0.61602728060E+02 -0.82574287716E+01  0.90326003273E+02  0.10964883995E+03  0.10000000000E+01 0.  0.
<mgrwt>
<rscale>  0 0.12500132E+03</rscale>
<asrwt>0</asrwt>
<pdfrwt beam="1">  1        4 0.27867172E-01 0.12500132E+03</pdfrwt>
<pdfrwt beam="2">  1       -4 0.33177951E-02 0.12500132E+03</pdfrwt>
<totfact> 0.89679097E+03</totfact>
</mgrwt>
</event>
<event>
 5    1  0.3261711E-002  0.1250004E+03  0.7818608E-02  0.1235069E+00
          4   -1    0    0  501    0  0.00000000000E+00  0.00000000000E+00  0.15446541338E+02  0.15498662500E+02  0.12700000000E+01 0.  1.
         -4   -1    0    0    0  501 -0.00000000000E+00 -0.00000000000E+00 -0.25241041234E+03  0.25241360731E+03  0.12700000000E+01 0.  1.
         25    2    1    2    0    0  0.00000000000E+00  0.00000000000E+00 -0.23696387100E+03  0.26791226981E+03  0.12500043263E+03 0.  0.
    9000005    1    3    3    0    0  0.55431826478E+02  0.16073853725E+02 -0.16984141072E+03  0.17938272201E+03  0.10000000000E+01 0.  0.
    9000005    1    3    3    0    0 -0.55431826478E+02 -0.16073853725E+02 -0.67122460281E+02  0.88529547805E+02  0.10000000000E+01 0.  0.
<mgrwt>
<rscale>  0 0.12500043E+03</rscale>
<asrwt>0</asrwt>
<pdfrwt beam="1">  1        4 0.23806462E-02 0.12500043E+03</pdfrwt>
<pdfrwt beam="2">  1       -4 0.38836623E-01 0.12500043E+03</pdfrwt>
<totfact> 0.79807584E+03</totfact>
</mgrwt>
</event>
<event>
 5    1  0.3261711E-002  0.1250002E+03  0.7818608E-02  0.1235069E+00
          4   -1    0    0  501    0  0.00000000000E+00  0.00000000000E+00  0.67551443579E+03  0.67551562962E+03  0.12700000000E+01 0. -1.
         -4   -1    0    0    0  501 -0.00000000000E+00 -0.00000000000E+00 -0.57117002727E+01  0.58511896231E+01  0.12700000000E+01 0. -1.
         25    2    1    2    0    0  0.00000000000E+00  0.00000000000E+00  0.66980273552E+03  0.68136681924E+03  0.12500015143E+03 0.  0.
    9000005    1    3    3    0    0  0.52803646505E+02  0.12143291666E+02  0.50463234512E+03  0.50753373125E+03  0.10000000000E+01 0.  0.
    9000005    1    3    3    0    0 -0.52803646505E+02 -0.12143291666E+02  0.16517039040E+03  0.17383308799E+03  0.10000000000E+01 0.  0.
<mgrwt>
<rscale>  0 0.12500015E+03</rscale>
<asrwt>0</asrwt>
<pdfrwt beam="1">  1        4 0.10393614E+00 0.12500015E+03</pdfrwt>
<pdfrwt beam="2">  1       -4 0.88954469E-03 0.12500015E+03</pdfrwt>
<totfact> 0.44088584E+03</totfact>
</mgrwt>
</event>
<event>
 5    1  0.3261711E-002  0.1249999E+03  0.7818608E-02  0.1235069E+00
         -4   -1    0    0    0  501 -0.00000000000E+00  0.00000000000E+00  0.17335476155E+04  0.17335480807E+04  0.12700000000E+01 0.  1.
          4   -1    0    0  501    0  0.00000000000E+00 -0.00000000000E+00 -0.20738754150E+01  0.24318427657E+01  0.12700000000E+01 0.  1.
         25    2    1    2    0    0  0.00000000000E+00  0.00000000000E+00  0.17314737401E+04  0.17359799234E+04  0.12499992832E+03 0.  0.
    9000005    1    3    3    0    0  0.52219977552E+02 -0.93517044429E+01  0.13244281202E+04  0.13254905605E+04  0.10000000000E+01 0.  0.
    9000005    1    3    3    0    0 -0.52219977552E+02  0.93517044429E+01  0.40704561985E+03  0.41048936292E+03  0.10000000000E+01 0.  0.
<mgrwt>
<rscale>  0 0.12499993E+03</rscale>
<asrwt>0</asrwt>
<pdfrwt beam="2">  1        4 0.34662851E-03 0.12499993E+03</pdfrwt>
<pdfrwt beam="1">  1       -4 0.26672796E+00 0.12499993E+03</pdfrwt>
<totfact> 0.13715999E+03</totfact>
</mgrwt>
</event>
<event>
 5    1  0.3261711E-002  0.1249997E+03  0.7818608E-02  0.1235070E+00
         -4   -1    0    0    0  501 -0.00000000000E+00  0.00000000000E+00  0.15416509834E+02  0.15468732187E+02  0.12700000000E+01 0. -1.
          4   -1    0    0  501    0  0.00000000000E+00 -0.00000000000E+00 -0.25289758182E+03  0.25290077064E+03  0.12700000000E+01 0. -1.
         25    2    1    2    0    0  0.00000000000E+00  0.00000000000E+00 -0.23748107199E+03  0.26836950283E+03  0.12499972198E+03 0.  0.
    9000005    1    3    3    0    0  0.32941352553E+02 -0.37804588849E+02 -0.38669749529E+02  0.63329844266E+02  0.10000000000E+01 0.  0.
    9000005    1    3    3    0    0 -0.32941352553E+02  0.37804588849E+02 -0.19881132246E+03  0.20503965856E+03  0.10000000000E+01 0.  0.
<mgrwt>
<rscale>  0 0.12499972E+03</rscale>
<asrwt>0</asrwt>
<pdfrwt beam="2">  1        4 0.38911579E-01 0.12499972E+03</pdfrwt>
<pdfrwt beam="1">  1       -4 0.23760333E-02 0.12499972E+03</pdfrwt>
<totfact> 0.79746175E+03</totfact>
</mgrwt>
</event>
<event>
 5    1  0.3261711E-002  0.1250014E+03  0.7818608E-02  0.1235067E+00
          4   -1    0    0  501    0  0.00000000000E+00  0.00000000000E+00  0.14662314286E+02  0.14717213059E+02  0.12700000000E+01 0.  1.
         -4   -1    0    0    0  501 -0.00000000000E+00 -0.00000000000E+00 -0.26586583114E+03  0.26586886442E+03  0.12700000000E+01 0.  1.
         25    2    1    2    0    0  0.00000000000E+00  0.00000000000E+00 -0.25120351686E+03  0.28058607748E+03  0.12500135997E+03 0.  0.
    9000005    1    3    3    0    0  0.53121870108E+02 -0.15744388105E+02 -0.19048444234E+03  0.19838130359E+03  0.10000000000E+01 0.  0.
    9000005    1    3    3    0    0 -0.53121870108E+02  0.15744388105E+02 -0.60719074521E+02  0.82204773896E+02  0.10000000000E+01 0.  0.
<mgrwt>
<rscale>  0 0.12500136E+03</rscale>
<asrwt>0</asrwt>
<pdfrwt beam="1">  1        4 0.22601972E-02 0.12500136E+03</pdfrwt>
<pdfrwt beam="2">  1       -4 0.40906888E-01 0.12500136E+03</pdfrwt>
<totfact> 0.78098101E+03</totfact>
</mgrwt>
</event>
<event>
 5    1  0.3261711E-002  0.1250012E+03  0.7818608E-02  0.1235067E+00
          4   -1    0    0  501    0  0.00000000000E+00  0.00000000000E+00  0.97785116931E+03  0.97785199403E+03  0.12700000000E+01 0. -1.
         -4   -1    0    0    0  501 -0.00000000000E+00 -0.00000000000E+00 -0.38930226700E+01  0.40949390116E+01  0.12700000000E+01 0. -1.
         25    2    1    2    0    0  0.00000000000E+00  0.00000000000E+00  0.97395814664E+03  0.98194693304E+03  0.12500123158E+03 0.  0.
    9000005    1    3    3    0    0 -0.15519861706E+02 -0.23242718219E+02  0.47897000277E+02  0.55463615940E+02  0.10000000000E+01 0.  0.
    9000005    1    3    3    0    0  0.15519861706E+02  0.23242718219E+02  0.92606114636E+03  0.92648331710E+03  0.10000000000E+01 0.  0.
<mgrwt>
<rscale>  0 0.12500123E+03</rscale>
<asrwt>0</asrwt>
<pdfrwt beam="1">  1        4 0.15045427E+00 0.12500123E+03</pdfrwt>
<pdfrwt beam="2">  1       -4 0.61452190E-03 0.12500123E+03</pdfrwt>
<totfact> 0.31207335E+03</totfact>
</mgrwt>
</event>
<event>
 5    1  0.3261711E-002  0.1250006E+03  0.7818608E-02  0.1235068E+00
         -4   -1    0    0    0  501 -0.00000000000E+00  0.00000000000E+00  0.41703530993E+02  0.41722864202E+02  0.12700000000E+01 0.  1.
          4   -1    0    0  501    0  0.00000000000E+00 -0.00000000000E+00 -0.93622725797E+02  0.93631339228E+02  0.12700000000E+01 0.  1.
         25    2    1    2    0    0  0.00000000000E+00  0.00000000000E+00 -0.51919194804E+02  0.13535420343E+03  0.12500063039E+03 0.  0.
    9000005    1    3    3    0    0 -0.10671296858E+01 -0.19873498010E+01  0.41664743134E+02  0.41737742458E+02  0.10000000000E+01 0.  0.
    9000005    1    3    3    0    0  0.10671296858E+01  0.19873498010E+01 -0.93583937938E+02  0.93616460973E+02  0.10000000000E+01 0.  0.
<mgrwt>
<rscale>  0 0.12500063E+03</rscale>
<asrwt>0</asrwt>
<pdfrwt beam="2">  1        4 0.14405646E-01 0.12500063E+03</pdfrwt>
<pdfrwt beam="1">  1       -4 0.64180776E-02 0.12500063E+03</pdfrwt>
<totfact> 0.10230465E+04</totfact>
</mgrwt>
</event>
<event>
 5    1  0.3261711E-002  0.1249993E+03  0.7818608E-02  0.1235070E+00
         -4   -1    0    0    0  501 -0.00000000000E+00  0.00000000000E+00  0.81032418214E+02  0.81042369792E+02  0.12700000000E+01 0.  1.
          4   -1    0    0  501    0  0.00000000000E+00 -0.00000000000E+00 -0.48184202882E+02  0.48200936790E+02  0.12700000000E+01 0.  1.
         25    2    1    2    0    0  0.00000000000E+00  0.00000000000E+00  0.32848215331E+02  0.12924330658E+03  0.12499930818E+03 0.  0.
    9000005    1    3    3    0    0 -0.21350138310E+01  0.66109683169E+00 -0.48147935206E+02  0.48210154508E+02  0.10000000000E+01 0.  0.
    9000005    1    3    3    0    0  0.21350138310E+01 -0.66109683169E+00  0.80996150538E+02  0.81033152074E+02  0.10000000000E+01 0.  0.
<mgrwt>
<rscale>  0 0.12499931E+03</rscale>
<asrwt>0</asrwt>
<pdfrwt beam="2">  1        4 0.74150070E-02 0.12499931E+03</pdfrwt>
<pdfrwt beam="1">  1       -4 0.12468579E-01 0.12499931E+03</pdfrwt>
<totfact> 0.10360883E+04</totfact>
</mgrwt>
</event>
<event>
 5    1  0.3261711E-002  0.1250001E+03  0.7818608E-02  0.1235069E+00
          4   -1    0    0  501    0  0.00000000000E+00  0.00000000000E+00  0.26078576970E+02  0.26109482507E+02  0.12700000000E+01 0.  1.
         -4   -1    0    0    0  501 -0.00000000000E+00 -0.00000000000E+00 -0.14966551932E+03  0.14967090758E+03  0.12700000000E+01 0.  1.
         25    2    1    2    0    0  0.00000000000E+00  0.00000000000E+00 -0.12358694235E+03  0.17578039008E+03  0.12500005287E+03 0.  0.
    9000005    1    3    3    0    0 -0.34504228809E+02  0.51959839975E+02 -0.67219185734E+02  0.91704883766E+02  0.10000000000E+01 0.  0.
    9000005    1    3    3    0    0  0.34504228809E+02 -0.51959839975E+02 -0.56367756621E+02  0.84075506317E+02  0.10000000000E+01 0.  0.
<mgrwt>
<rscale>  0 0.12500005E+03</rscale>
<asrwt>0</asrwt>
<pdfrwt beam="1">  1        4 0.40148807E-02 0.12500005E+03</pdfrwt>
<pdfrwt beam="2">  1       -4 0.23028256E-01 0.12500005E+03</pdfrwt>
<totfact> 0.94381996E+03</totfact>
</mgrwt>
</event>
<event>
 5    1  0.3261711E-002  0.1249998E+03  0.7818608E-02  0.1235070E+00
         -4   -1    0    0    0  501 -0.00000000000E+00  0.00000000000E+00  0.18411730664E+03  0.18412168667E+03  0.12700000000E+01 0. -1.
          4   -1    0    0  501    0  0.00000000000E+00 -0.00000000000E+00 -0.21192372647E+02  0.21230392329E+02  0.12700000000E+01 0. -1.
         25    2    1    2    0    0  0.00000000000E+00  0.00000000000E+00  0.16292493399E+03  0.20535207900E+03  0.12499976894E+03 0.  0.
    9000005    1    3    3    0    0 -0.59723915222E+02 -0.18168163927E+02  0.76756045612E+02  0.98941996988E+02  0.10000000000E+01 0.  0.
    9000005    1    3    3    0    0  0.59723915222E+02  0.18168163927E+02  0.86168888378E+02  0.10641008201E+03  0.10000000000E+01 0.  0.
<mgrwt>
<rscale>  0 0.12499977E+03</rscale>
<asrwt>0</asrwt>
<pdfrwt beam="2">  1        4 0.32636265E-02 0.12499977E+03</pdfrwt>
<pdfrwt beam="1">  1       -4 0.28329001E-01 0.12499977E+03</pdfrwt>
<totfact> 0.89241078E+03</totfact>
</mgrwt>
</event>
<event>
 5    1  0.3261711E-002  0.1249979E+03  0.7818608E-02  0.1235073E+00
          4   -1    0    0  501    0  0.00000000000E+00  0.00000000000E+00  0.55705929513E+02  0.55720404547E+02  0.12700000000E+01 0. -1.
         -4   -1    0    0    0  501 -0.00000000000E+00 -0.00000000000E+00 -0.70091029813E+02  0.70102534621E+02  0.12700000000E+01 0. -1.
         25    2    1    2    0    0  0.00000000000E+00  0.00000000000E+00 -0.14385100300E+02  0.12582293917E+03  0.12499792362E+03 0.  0.
    9000005    1    3    3    0    0  0.43294403909E+02  0.44511078185E+02 -0.11201100785E+00  0.62101964844E+02  0.10000000000E+01 0.  0.
    9000005    1    3    3    0    0 -0.43294403909E+02 -0.44511078185E+02 -0.14273089292E+02  0.63720974325E+02  0.10000000000E+01 0.  0.
<mgrwt>
<rscale>  0 0.12499792E+03</rscale>
<asrwt>0</asrwt>
<pdfrwt beam="1">  1        4 0.85721415E-02 0.12499792E+03</pdfrwt>
<pdfrwt beam="2">  1       -4 0.10785234E-01 0.12499792E+03</pdfrwt>
<totfact> 0.10435330E+04</totfact>
</mgrwt>
</event>
<event>
 5    1  0.3261711E-002  0.1249872E+03  0.7818608E-02  0.1235089E+00
         -4   -1    0    0    0  501 -0.00000000000E+00  0.00000000000E+00  0.70544521110E+02  0.70555951972E+02  0.12700000000E+01 0.  1.
          4   -1    0    0  501    0  0.00000000000E+00 -0.00000000000E+00 -0.55338273058E+02  0.55352844236E+02  0.12700000000E+01 0.  1.
         25    2    1    2    0    0  0.00000000000E+00  0.00000000000E+00  0.15206248052E+02  0.12590879621E+03  0.12498717927E+03 0.  0.
    9000005    1    3    3    0    0  0.39984735351E+02 -0.20731549713E+02 -0.36027584614E+02  0.57685033308E+02  0.10000000000E+01 0.  0.
    9000005    1    3    3    0    0 -0.39984735351E+02  0.20731549713E+02  0.51233832666E+02  0.68223762900E+02  0.10000000000E+01 0.  0.
<mgrwt>
<rscale>  0 0.12498718E+03</rscale>
<asrwt>0</asrwt>
<pdfrwt beam="2">  1        4 0.85155806E-02 0.12498718E+03</pdfrwt>
<pdfrwt beam="1">  1       -4 0.10855003E-01 0.12498718E+03</pdfrwt>
<totfact> 0.10435976E+04</totfact>
</mgrwt>
</event>
<event>
 5    1  0.3261711E-002  0.1249951E+03  0.7818608E-02  0.1235077E+00
         -4   -1    0    0    0  501 -0.00000000000E+00  0.00000000000E+00  0.54821212430E+02  0.54835921003E+02  0.12700000000E+01 0. -1.
          4   -1    0    0  501    0  0.00000000000E+00 -0.00000000000E+00 -0.71218882147E+02  0.71230204789E+02  0.12700000000E+01 0. -1.
         25    2    1    2    0    0  0.00000000000E+00  0.00000000000E+00 -0.16397669717E+02  0.12606612579E+03  0.12499513791E+03 0.  0.
    9000005    1    3    3    0    0 -0.89307686619E+01  0.52298815841E+02 -0.41497190713E+02  0.67364245741E+02  0.10000000000E+01 0.  0.
    9000005    1    3    3    0    0  0.89307686619E+01 -0.52298815841E+02  0.25099520996E+02  0.58701880050E+02  0.10000000000E+01 0.  0.
<mgrwt>
<rscale>  0 0.12499514E+03</rscale>
<asrwt>0</asrwt>
<pdfrwt beam="2">  1        4 0.10958754E-01 0.12499514E+03</pdfrwt>
<pdfrwt beam="1">  1       -4 0.84360351E-02 0.12499514E+03</pdfrwt>
<totfact> 0.10430653E+04</totfact>
</mgrwt>
</event>
<event>
 5    1  0.3261711E-002  0.1249978E+03  0.7818608E-02  0.1235073E+00
         -4   -1    0    0    0  501 -0.00000000000E+00  0.00000000000E+00  0.11440869258E+03  0.11441574122E+03  0.12700000000E+01 0.  1.
          4   -1    0    0  501    0  0.00000000000E+00 -0.00000000000E+00 -0.34121823711E+02  0.34145449966E+02  0.12700000000E+01 0.  1.
         25    2    1    2    0    0  0.00000000000E+00  0.00000000000E+00  0.80286868873E+02  0.14856119118E+03  0.12499778483E+03 0.  0.
    9000005    1    3    3    0    0  0.75755785261E+01  0.42639167813E+02  0.93687433086E+02  0.10321735871E+03  0.10000000000E+01 0.  0.
    9000005    1    3    3    0    0 -0.75755785261E+01 -0.42639167813E+02 -0.13400564214E+02  0.45343832470E+02  0.10000000000E+01 0.  0.
<mgrwt>
<rscale>  0 0.12499778E+03</rscale>
<asrwt>0</asrwt>
<pdfrwt beam="2">  1        4 0.52518709E-02 0.12499778E+03</pdfrwt>
<pdfrwt beam="1">  1       -4 0.17603697E-01 0.12499778E+03</pdfrwt>
<totfact> 0.99596245E+03</totfact>
</mgrwt>
</event>
<event>
 5    1  0.3261711E-002  0.1250097E+03  0.7818608E-02  0.1235054E+00
         -4   -1    0    0    0  501 -0.00000000000E+00  0.00000000000E+00  0.17334925493E+03  0.17335390703E+03  0.12700000000E+01 0. -1.
          4   -1    0    0  501    0  0.00000000000E+00 -0.00000000000E+00 -0.22514624739E+02  0.22550415232E+02  0.12700000000E+01 0. -1.
         25    2    1    2    0    0  0.00000000000E+00  0.00000000000E+00  0.15083463019E+03  0.19590432227E+03  0.12500967090E+03 0.  0.
    9000005    1    3    3    0    0  0.47254253655E+02  0.16335443079E+02  0.13417974531E+03  0.14319572354E+03  0.10000000000E+01 0.  0.
    9000005    1    3    3    0    0 -0.47254253655E+02 -0.16335443079E+02  0.16654884876E+02  0.52708598722E+02  0.10000000000E+01 0.  0.
<mgrwt>
<rscale>  0 0.12500967E+03</rscale>
<asrwt>0</asrwt>
<pdfrwt beam="2">  1        4 0.34668994E-02 0.12500967E+03</pdfrwt>
<pdfrwt beam="1">  1       -4 0.26672227E-01 0.12500967E+03</pdfrwt>
<totfact> 0.90810348E+03</totfact>
</mgrwt>
</event>
<event>
 5    1  0.3261711E-002  0.1250032E+03  0.7818608E-02  0.1235064E+00
          4   -1    0    0  501    0  0.00000000000E+00  0.00000000000E+00  0.36225606607E+03  0.36225829225E+03  0.12700000000E+01 0.  1.
         -4   -1    0    0    0  501 -0.00000000000E+00 -0.00000000000E+00 -0.10744010672E+02  0.10818810716E+02  0.12700000000E+01 0.  1.
         25    2    1    2    0    0  0.00000000000E+00  0.00000000000E+00  0.35151205540E+03  0.37307710297E+03  0.12500319863E+03 0.  0.
    9000005    1    3    3    0    0 -0.32108650266E+02 -0.47412195616E+02  0.10104896779E+03  0.11614979814E+03  0.10000000000E+01 0.  0.
    9000005    1    3    3    0    0  0.32108650266E+02  0.47412195616E+02  0.25046308761E+03  0.25692730483E+03  0.10000000000E+01 0.  0.
<mgrwt>
<rscale>  0 0.12500320E+03</rscale>
<asrwt>0</asrwt>
<pdfrwt beam="1">  1        4 0.55737636E-01 0.12500320E+03</pdfrwt>
<pdfrwt beam="2">  1       -4 0.16588496E-02 0.12500320E+03</pdfrwt>
<totfact> 0.67253476E+03</totfact>
</mgrwt>
</event>
<event>
 5    1  0.3261711E-002  0.1249997E+03  0.7818608E-02  0.1235070E+00
          4   -1    0    0  501    0  0.00000000000E+00  0.00000000000E+00  0.12084579740E+03  0.12085247060E+03  0.12700000000E+01 0.  1.
         -4   -1    0    0    0  501 -0.00000000000E+00 -0.00000000000E+00 -0.32304072650E+02  0.32329027356E+02  0.12700000000E+01 0.  1.
         25    2    1    2    0    0  0.00000000000E+00  0.00000000000E+00  0.88541724752E+02  0.15318149796E+03  0.12499973717E+03 0.  0.
    9000005    1    3    3    0    0 -0.15181652744E+02 -0.52747406339E+02  0.76615048184E+01  0.55429866603E+02  0.10000000000E+01 0.  0.
    9000005    1    3    3    0    0  0.15181652744E+02  0.52747406339E+02  0.80880219934E+02  0.97751631352E+02  0.10000000000E+01 0.  0.
<mgrwt>
<rscale>  0 0.12499974E+03</rscale>
<asrwt>0</asrwt>
<pdfrwt beam="1">  1        4 0.18594094E-01 0.12499974E+03</pdfrwt>
<pdfrwt beam="2">  1       -4 0.49722903E-02 0.12499974E+03</pdfrwt>
<totfact> 0.98673836E+03</totfact>
</mgrwt>
</event>
<event>
 5    1  0.3261711E-002  0.1250022E+03  0.7818608E-02  0.1235066E+00
         -4   -1    0    0    0  501 -0.00000000000E+00  0.00000000000E+00  0.50084718681E+03  0.50084879698E+03  0.12700000000E+01 0.  1.
          4   -1    0    0  501    0  0.00000000000E+00 -0.00000000000E+00 -0.77462321533E+01  0.78496504746E+01  0.12700000000E+01 0.  1.
         25    2    1    2    0    0  0.00000000000E+00  0.00000000000E+00  0.49310095465E+03  0.50869844745E+03  0.12500223581E+03 0.  0.
    9000005    1    3    3    0    0  0.27284765297E+02 -0.24037015988E+01  0.17962765466E+02  0.32770369877E+02  0.10000000000E+01 0.  0.
    9000005    1    3    3    0    0 -0.27284765297E+02  0.24037015988E+01  0.47513818919E+03  0.47592807757E+03  0.10000000000E+01 0.  0.
<mgrwt>
<rscale>  0 0.12500224E+03</rscale>
<asrwt>0</asrwt>
<pdfrwt beam="2">  1        4 0.11998074E-02 0.12500224E+03</pdfrwt>
<pdfrwt beam="1">  1       -4 0.77061478E-01 0.12500224E+03</pdfrwt>
<totfact> 0.55193027E+03</totfact>
</mgrwt>
</event>
<event>
 5    1  0.3261711E-002  0.1250014E+03  0.7818608E-02  0.1235067E+00
         -4   -1    0    0    0  501 -0.00000000000E+00  0.00000000000E+00  0.73131167690E+01  0.74225721200E+01  0.12700000000E+01 0.  1.
          4   -1    0    0  501    0  0.00000000000E+00 -0.00000000000E+00 -0.53007712631E+03  0.53007864769E+03  0.12700000000E+01 0.  1.
         25    2    1    2    0    0  0.00000000000E+00  0.00000000000E+00 -0.52276400954E+03  0.53750121981E+03  0.12500140650E+03 0.  0.
    9000005    1    3    3    0    0 -0.46760022876E+01  0.41816593813E+02 -0.62704924693E+02  0.75520858684E+02  0.10000000000E+01 0.  0.
    9000005    1    3    3    0    0  0.46760022876E+01 -0.41816593813E+02 -0.46005908484E+03  0.46198036112E+03  0.10000000000E+01 0.  0.
<mgrwt>
<rscale>  0 0.12500141E+03</rscale>
<asrwt>0</asrwt>
<pdfrwt beam="2">  1        4 0.81558834E-01 0.12500141E+03</pdfrwt>
<pdfrwt beam="1">  1       -4 0.11336320E-02 0.12500141E+03</pdfrwt>
<totfact> 0.53066148E+03</totfact>
</mgrwt>
</event>
<event>
 5    1  0.3261711E-002  0.1249920E+03  0.7818608E-02  0.1235082E+00
          4   -1    0    0  501    0  0.00000000000E+00  0.00000000000E+00  0.23677950535E+02  0.23711985188E+02  0.12700000000E+01 0.  1.
         -4   -1    0    0    0  501 -0.00000000000E+00 -0.00000000000E+00 -0.16479804889E+03  0.16480294238E+03  0.12700000000E+01 0.  1.
         25    2    1    2    0    0  0.00000000000E+00  0.00000000000E+00 -0.14112009835E+03  0.18851492757E+03  0.12499198277E+03 0.  0.
    9000005    1    3    3    0    0 -0.49119479250E+02 -0.14289217265E+02 -0.12468471303E+03  0.13477456227E+03  0.10000000000E+01 0.  0.
    9000005    1    3    3    0    0  0.49119479250E+02  0.14289217265E+02 -0.16435385326E+02  0.53740365300E+02  0.10000000000E+01 0.  0.
<mgrwt>
<rscale>  0 0.12499198E+03</rscale>
<asrwt>0</asrwt>
<pdfrwt beam="1">  1        4 0.36457562E-02 0.12499198E+03</pdfrwt>
<pdfrwt beam="2">  1       -4 0.25356540E-01 0.12499198E+03</pdfrwt>
<totfact> 0.92122901E+03</totfact>
</mgrwt>
</event>
<event>
 5    1  0.3261711E-002  0.1250005E+03  0.7818608E-02  0.1235069E+00
         -4   -1    0    0    0  501 -0.00000000000E+00  0.00000000000E+00  0.71150501376E+02  0.71161834898E+02  0.12700000000E+01 0.  1.
          4   -1    0    0  501    0  0.00000000000E+00 -0.00000000000E+00 -0.54878575703E+02  0.54893268906E+02  0.12700000000E+01 0.  1.
         25    2    1    2    0    0  0.00000000000E+00  0.00000000000E+00  0.16271925673E+02  0.12605510380E+03  0.12500045452E+03 0.  0.
    9000005    1    3    3    0    0  0.29005103652E+02  0.17754548195E+02 -0.44734988628E+02  0.56202662100E+02  0.10000000000E+01 0.  0.
    9000005    1    3    3    0    0 -0.29005103652E+02 -0.17754548195E+02  0.61006914301E+02  0.69852441704E+02  0.10000000000E+01 0.  0.
<mgrwt>
<rscale>  0 0.12500045E+03</rscale>
<asrwt>0</asrwt>
<pdfrwt beam="2">  1        4 0.84448599E-02 0.12500045E+03</pdfrwt>
<pdfrwt beam="1">  1       -4 0.10948233E-01 0.12500045E+03</pdfrwt>
<totfact> 0.10429643E+04</totfact>
</mgrwt>
</event>
<event>
 5    1  0.3261711E-002  0.1249985E+03  0.7818608E-02  0.1235072E+00
         -4   -1    0    0    0  501 -0.00000000000E+00  0.00000000000E+00  0.71421115691E+02  0.71432406277E+02  0.12700000000E+01 0.  1.
          4   -1    0    0  501    0  0.00000000000E+00 -0.00000000000E+00 -0.54668892696E+02  0.54683642240E+02  0.12700000000E+01 0.  1.
         25    2    1    2    0    0  0.00000000000E+00  0.00000000000E+00  0.16752222995E+02  0.12611604852E+03  0.12499848286E+03 0.  0.
    9000005    1    3    3    0    0  0.20881509445E+01  0.14328914286E+02 -0.52957828791E+02  0.54910925955E+02  0.10000000000E+01 0.  0.
    9000005    1    3    3    0    0 -0.20881509445E+01 -0.14328914286E+02  0.69710051786E+02  0.71205122562E+02  0.10000000000E+01 0.  0.
<mgrwt>
<rscale>  0 0.12499848E+03</rscale>
<asrwt>0</asrwt>
<pdfrwt beam="2">  1        4 0.84126020E-02 0.12499848E+03</pdfrwt>
<pdfrwt beam="1">  1       -4 0.10989867E-01 0.12499848E+03</pdfrwt>
<totfact> 0.10428772E+04</totfact>
</mgrwt>
</event>
<event>
 5    1  0.3261711E-002  0.1250021E+03  0.7818608E-02  0.1235066E+00
         -4   -1    0    0    0  501 -0.00000000000E+00  0.00000000000E+00  0.14905388111E+03  0.14905929147E+03  0.12700000000E+01 0. -1.
          4   -1    0    0  501    0  0.00000000000E+00 -0.00000000000E+00 -0.26186586276E+02  0.26217364490E+02  0.12700000000E+01 0. -1.
         25    2    1    2    0    0  0.00000000000E+00  0.00000000000E+00  0.12286729483E+03  0.17527665596E+03  0.12500213592E+03 0.  0.
    9000005    1    3    3    0    0  0.10928643069E+02 -0.49892869545E+02  0.11192511545E+03  0.12303237435E+03  0.10000000000E+01 0.  0.
    9000005    1    3    3    0    0 -0.10928643069E+02  0.49892869545E+02  0.10942179381E+02  0.52244281604E+02  0.10000000000E+01 0.  0.
<mgrwt>
<rscale>  0 0.12500214E+03</rscale>
<asrwt>0</asrwt>
<pdfrwt beam="2">  1        4 0.40314893E-02 0.12500214E+03</pdfrwt>
<pdfrwt beam="1">  1       -4 0.22934150E-01 0.12500214E+03</pdfrwt>
<totfact> 0.94469669E+03</totfact>
</mgrwt>
</event>
<event>
 5    1  0.3261711E-002  0.1250165E+03  0.7818608E-02  0.1235043E+00
         -4   -1    0    0    0  501 -0.00000000000E+00  0.00000000000E+00  0.89338228014E+02  0.89347254489E+02  0.12700000000E+01 0. -1.
          4   -1    0    0  501    0  0.00000000000E+00 -0.00000000000E+00 -0.43715381305E+02  0.43733825154E+02  0.12700000000E+01 0. -1.
         25    2    1    2    0    0  0.00000000000E+00  0.00000000000E+00  0.45622846709E+02  0.13308107964E+03  0.12501651738E+03 0.  0.
    9000005    1    3    3    0    0  0.44342180211E+02 -0.43871244251E+02  0.18638418176E+02  0.65109950469E+02  0.10000000000E+01 0.  0.
    9000005    1    3    3    0    0 -0.44342180211E+02  0.43871244251E+02  0.26984428533E+02  0.67971129174E+02  0.10000000000E+01 0.  0.
<mgrwt>
<rscale>  0 0.12501652E+03</rscale>
<asrwt>0</asrwt>
<pdfrwt beam="2">  1        4 0.67275564E-02 0.12501652E+03</pdfrwt>
<pdfrwt beam="1">  1       -4 0.13746456E-01 0.12501652E+03</pdfrwt>
<totfact> 0.10274848E+04</totfact>
</mgrwt>
</event>
<event>
 5    1  0.3261711E-002  0.1249885E+03  0.7818608E-02  0.1235087E+00
          4   -1    0    0  501    0  0.00000000000E+00  0.00000000000E+00  0.75280839162E+02  0.75291550953E+02  0.12700000000E+01 0. -1.
         -4   -1    0    0    0  501 -0.00000000000E+00 -0.00000000000E+00 -0.51857285515E+02  0.51872834519E+02  0.12700000000E+01 0. -1.
         25    2    1    2    0    0  0.00000000000E+00  0.00000000000E+00  0.23423553647E+02  0.12716438547E+03  0.12498847174E+03 0.  0.
    9000005    1    3    3    0    0  0.58939519978E+01  0.62133726620E+02  0.86273555951E+01  0.63014045406E+02  0.10000000000E+01 0.  0.
    9000005    1    3    3    0    0 -0.58939519978E+01 -0.62133726620E+02  0.14796198052E+02  0.64150340066E+02  0.10000000000E+01 0.  0.
<mgrwt>
<rscale>  0 0.12498847E+03</rscale>
<asrwt>0</asrwt>
<pdfrwt beam="1">  1        4 0.11583688E-01 0.12498847E+03</pdfrwt>
<pdfrwt beam="2">  1       -4 0.79800640E-02 0.12498847E+03</pdfrwt>
<totfact> 0.10408285E+04</totfact>
</mgrwt>
</event>
<event>
 5    1  0.3261711E-002  0.1250003E+03  0.7818608E-02  0.1235069E+00
         -4   -1    0    0    0  501 -0.00000000000E+00  0.00000000000E+00  0.58847936559E+02  0.58861638928E+02  0.12700000000E+01 0.  1.
          4   -1    0    0  501    0  0.00000000000E+00 -0.00000000000E+00 -0.66351537799E+02  0.66363690889E+02  0.12700000000E+01 0.  1.
         25    2    1    2    0    0  0.00000000000E+00  0.00000000000E+00 -0.75036012405E+01  0.12522532982E+03  0.12500031678E+03 0.  0.
    9000005    1    3    3    0    0 -0.34369106042E+02  0.17554254163E+02 -0.52991906193E+02  0.65563171150E+02  0.10000000000E+01 0.  0.
    9000005    1    3    3    0    0  0.34369106042E+02 -0.17554254163E+02  0.45488304952E+02  0.59662158666E+02  0.10000000000E+01 0.  0.
<mgrwt>
<rscale>  0 0.12500032E+03</rscale>
<asrwt>0</asrwt>
<pdfrwt beam="2">  1        4 0.10209918E-01 0.12500032E+03</pdfrwt>
<pdfrwt beam="1">  1       -4 0.90555176E-02 0.12500032E+03</pdfrwt>
<totfact> 0.10447896E+04</totfact>
</mgrwt>
</event>
<event>
 5    1  0.3261711E-002  0.1250020E+03  0.7818608E-02  0.1235066E+00
         -4   -1    0    0    0  501 -0.00000000000E+00  0.00000000000E+00  0.33641840775E+03  0.33642080490E+03  0.12700000000E+01 0. -1.
          4   -1    0    0  501    0  0.00000000000E+00 -0.00000000000E+00 -0.11574485277E+02  0.11643951624E+02  0.12700000000E+01 0. -1.
         25    2    1    2    0    0  0.00000000000E+00  0.00000000000E+00  0.32484392247E+03  0.34806475653E+03  0.12500200306E+03 0.  0.
    9000005    1    3    3    0    0 -0.47576708136E+02  0.31288578167E+02  0.23411103562E+03  0.24093877912E+03  0.10000000000E+01 0.  0.
    9000005    1    3    3    0    0  0.47576708136E+02 -0.31288578167E+02  0.90732886845E+02  0.10712597741E+03  0.10000000000E+01 0.  0.
<mgrwt>
<rscale>  0 0.12500200E+03</rscale>
<asrwt>0</asrwt>
<pdfrwt beam="2">  1        4 0.17862182E-02 0.12500200E+03</pdfrwt>
<pdfrwt beam="1">  1       -4 0.51762201E-01 0.12500200E+03</pdfrwt>
<totfact> 0.69934883E+03</totfact>
</mgrwt>
</event>
<event>
 5    1  0.3261711E-002  0.1249918E+03  0.7818608E-02  0.1235082E+00
         -4   -1    0    0    0  501 -0.00000000000E+00  0.00000000000E+00  0.34106472379E+02  0.34130109261E+02  0.12700000000E+01 0. -1.
          4   -1    0    0  501    0  0.00000000000E+00 -0.00000000000E+00 -0.11444916838E+03  0.11445621453E+03  0.12700000000E+01 0. -1.
         25    2    1    2    0    0  0.00000000000E+00  0.00000000000E+00 -0.80342696003E+02  0.14858632379E+03  0.12499178699E+03 0.  0.
    9000005    1    3    3    0    0 -0.53808469762E+02  0.65729610679E+01 -0.77122391924E+02  0.94273106300E+02  0.10000000000E+01 0.  0.
    9000005    1    3    3    0    0  0.53808469762E+02 -0.65729610679E+01 -0.32203040785E+01  0.54313217486E+02  0.10000000000E+01 0.  0.
<mgrwt>
<rscale>  0 0.12499179E+03</rscale>
<asrwt>0</asrwt>
<pdfrwt beam="2">  1        4 0.17609924E-01 0.12499179E+03</pdfrwt>
<pdfrwt beam="1">  1       -4 0.52495099E-02 0.12499179E+03</pdfrwt>
<totfact> 0.99604655E+03</totfact>
</mgrwt>
</event>
<event>
 5    1  0.3261711E-002  0.1250006E+03  0.7818608E-02  0.1235068E+00
         -4   -1    0    0    0  501 -0.00000000000E+00  0.00000000000E+00  0.29082809012E+02  0.29110525244E+02  0.12700000000E+01 0. -1.
          4   -1    0    0  501    0  0.00000000000E+00 -0.00000000000E+00 -0.13422123508E+03  0.13422724330E+03  0.12700000000E+01 0. -1.
         25    2    1    2    0    0  0.00000000000E+00  0.00000000000E+00 -0.10513842606E+03  0.16333776855E+03  0.12500055200E+03 0.  0.
    9000005    1    3    3    0    0 -0.29294287108E+02  0.52942542661E+02 -0.72989512974E+02  0.94813169364E+02  0.10000000000E+01 0.  0.
    9000005    1    3    3    0    0  0.29294287108E+02 -0.52942542661E+02 -0.32148913089E+02  0.68524599185E+02  0.10000000000E+01 0.  0.
<mgrwt>
<rscale>  0 0.12500055E+03</rscale>
<asrwt>0</asrwt>
<pdfrwt beam="2">  1        4 0.20652015E-01 0.12500055E+03</pdfrwt>
<pdfrwt beam="1">  1       -4 0.44768726E-02 0.12500055E+03</pdfrwt>
<totfact> 0.96701922E+03</totfact>
</mgrwt>
</event>
<event>
 5    1  0.3261711E-002  0.1250037E+03  0.7818608E-02  0.1235063E+00
          4   -1    0    0  501    0  0.00000000000E+00  0.00000000000E+00  0.10195606021E+04  0.10195613931E+04  0.12700000000E+01 0.  1.
         -4   -1    0    0    0  501 -0.00000000000E+00 -0.00000000000E+00 -0.37254837710E+01  0.39360042337E+01  0.12700000000E+01 0.  1.
         25    2    1    2    0    0  0.00000000000E+00  0.00000000000E+00  0.10158351184E+04  0.10234973973E+04  0.12500373864E+03 0.  0.
    9000005    1    3    3    0    0  0.61150690007E+02 -0.10596017557E+02  0.44786110476E+03  0.45214184902E+03  0.10000000000E+01 0.  0.
    9000005    1    3    3    0    0 -0.61150690007E+02  0.10596017557E+02  0.56797401361E+03  0.57135554833E+03  0.10000000000E+01 0.  0.
<mgrwt>
<rscale>  0 0.12500374E+03</rscale>
<asrwt>0</asrwt>
<pdfrwt beam="1">  1        4 0.15687198E+00 0.12500374E+03</pdfrwt>
<pdfrwt beam="2">  1       -4 0.58940513E-03 0.12500374E+03</pdfrwt>
<totfact> 0.29834429E+03</totfact>
</mgrwt>
</event>
<event>
 5    1  0.3261711E-002  0.1249999E+03  0.7818608E-02  0.1235069E+00
          4   -1    0    0  501    0  0.00000000000E+00  0.00000000000E+00  0.60421729140E+02  0.60435074685E+02  0.12700000000E+01 0. -1.
         -4   -1    0    0    0  501 -0.00000000000E+00 -0.00000000000E+00 -0.64622952029E+02  0.64635430136E+02  0.12700000000E+01 0. -1.
         25    2    1    2    0    0  0.00000000000E+00  0.00000000000E+00 -0.42012228890E+01  0.12507050482E+03  0.12499992361E+03 0.  0.
    9000005    1    3    3    0    0  0.20918728473E+02 -0.41641692526E+02  0.39559679000E+02  0.61135848402E+02  0.10000000000E+01 0.  0.
    9000005    1    3    3    0    0 -0.20918728473E+02  0.41641692526E+02 -0.43760901889E+02  0.63934656419E+02  0.10000000000E+01 0.  0.
<mgrwt>
<rscale>  0 0.12499992E+03</rscale>
<asrwt>0</asrwt>
<pdfrwt beam="1">  1        4 0.92976370E-02 0.12499992E+03</pdfrwt>
<pdfrwt beam="2">  1       -4 0.99439791E-02 0.12499992E+03</pdfrwt>
<totfact> 0.10451349E+04</totfact>
</mgrwt>
</event>
<event>
 5    1  0.3261711E-002  0.1249998E+03  0.7818608E-02  0.1235070E+00
          4   -1    0    0  501    0  0.00000000000E+00  0.00000000000E+00  0.78533585291E+02  0.78543853474E+02  0.12700000000E+01 0. -1.
         -4   -1    0    0    0  501 -0.00000000000E+00 -0.00000000000E+00 -0.49718073296E+02  0.49734291110E+02  0.12700000000E+01 0. -1.
         25    2    1    2    0    0  0.00000000000E+00  0.00000000000E+00  0.28815511995E+02  0.12827814458E+03  0.12499979459E+03 0.  0.
    9000005    1    3    3    0    0 -0.56650526207E+02 -0.16032622058E+02 -0.70918818204E+01  0.59309542886E+02  0.10000000000E+01 0.  0.
    9000005    1    3    3    0    0  0.56650526207E+02  0.16032622058E+02  0.35907393815E+02  0.68968601698E+02  0.10000000000E+01 0.  0.
<mgrwt>
<rscale>  0 0.12499979E+03</rscale>
<asrwt>0</asrwt>
<pdfrwt beam="1">  1        4 0.12084127E-01 0.12499979E+03</pdfrwt>
<pdfrwt beam="2">  1       -4 0.76509718E-02 0.12499979E+03</pdfrwt>
<totfact> 0.10381533E+04</totfact>
</mgrwt>
</event>
<event>
 5    1  0.3261711E-002  0.1249996E+03  0.7818608E-02  0.1235070E+00
          4   -1    0    0  501    0  0.00000000000E+00  0.00000000000E+00  0.95748774125E+01  0.96587358109E+01  0.12700000000E+01 0.  1.
         -4   -1    0    0    0  501 -0.00000000000E+00 -0.00000000000E+00 -0.40610218220E+03  0.40610416802E+03  0.12700000000E+01 0.  1.
         25    2    1    2    0    0  0.00000000000E+00  0.00000000000E+00 -0.39652730478E+03  0.41576290383E+03  0.12499955506E+03 0.  0.
    9000005    1    3    3    0    0 -0.32304570440E+02 -0.35874162213E+02 -0.66275904201E+02  0.82000221118E+02  0.10000000000E+01 0.  0.
    9000005    1    3    3    0    0  0.32304570440E+02  0.35874162213E+02 -0.33025140058E+03  0.33376268271E+03  0.10000000000E+01 0.  0.
<mgrwt>
<rscale>  0 0.12499956E+03</rscale>
<asrwt>0</asrwt>
<pdfrwt beam="1">  1        4 0.14796618E-02 0.12499956E+03</pdfrwt>
<pdfrwt beam="2">  1       -4 0.62483849E-01 0.12499956E+03</pdfrwt>
<totfact> 0.63048672E+03</totfact>
</mgrwt>
</event>
<event>
 5    1  0.3261711E-002  0.1249983E+03  0.7818608E-02  0.1235072E+00
          4   -1    0    0  501    0  0.00000000000E+00  0.00000000000E+00  0.11235533411E+03  0.11236251155E+03  0.12700000000E+01 0.  1.
         -4   -1    0    0    0  501 -0.00000000000E+00 -0.00000000000E+00 -0.34746095433E+02  0.34769297488E+02  0.12700000000E+01 0.  1.
         25    2    1    2    0    0  0.00000000000E+00  0.00000000000E+00  0.77609238677E+02  0.14713180904E+03  0.12499830121E+03 0.  0.
    9000005    1    3    3    0    0 -0.32049588003E+02 -0.14168176851E+02 -0.22099314646E+02  0.41440234487E+02  0.10000000000E+01 0.  0.
    9000005    1    3    3    0    0  0.32049588003E+02  0.14168176851E+02  0.99708553323E+02  0.10569157456E+03  0.10000000000E+01 0.  0.
<mgrwt>
<rscale>  0 0.12499830E+03</rscale>
<asrwt>0</asrwt>
<pdfrwt beam="1">  1        4 0.17287773E-01 0.12499830E+03</pdfrwt>
<pdfrwt beam="2">  1       -4 0.53478900E-02 0.12499830E+03</pdfrwt>
<totfact> 0.99882352E+03</totfact>
</mgrwt>
</event>
<event>
 4    1  0.3261711E-002  0.1251330E+03  0.7818608E-02  0.1234862E+00
         -4   -1    0    0    0  501 -0.00000000000E+00  0.00000000000E+00  0.33511710083E+02  0.33535766171E+02  0.12700000000E+01 0. -1.
          4   -1    0    0  501    0  0.00000000000E+00 -0.00000000000E+00 -0.11674248434E+03  0.11674939207E+03  0.12700000000E+01 0. -1.
    9000005    1    1    2    0    0 -0.18367461297E+02  0.10775238527E+02  0.29030747530E+02  0.36017408318E+02  0.10000000000E+01 0.  0.
    9000005    1    1    2    0    0  0.18367461297E+02 -0.10775238527E+02 -0.11226152179E+03  0.11426774993E+03  0.10000000000E+01 0.  0.
<mgrwt>
<rscale>  0 0.12513300E+03</rscale>
<asrwt>0</asrwt>
<pdfrwt beam="2">  1        4 0.17962764E-01 0.12513300E+03</pdfrwt>
<pdfrwt beam="1">  1       -4 0.51580296E-02 0.12513300E+03</pdfrwt>
<totfact> 0.98950415E+03</totfact>
</mgrwt>
</event>
<event>
 5    1  0.3261711E-002  0.1249863E+03  0.7818608E-02  0.1235091E+00
         -4   -1    0    0    0  501 -0.00000000000E+00  0.00000000000E+00  0.44832272700E+03  0.44832452581E+03  0.12700000000E+01 0. -1.
          4   -1    0    0  501    0  0.00000000000E+00 -0.00000000000E+00 -0.86630122916E+01  0.87556086005E+01  0.12700000000E+01 0. -1.
         25    2    1    2    0    0  0.00000000000E+00  0.00000000000E+00  0.43965971470E+03  0.45708013441E+03  0.12498633740E+03 0.  0.
    9000005    1    3    3    0    0  0.98883826275E+01  0.61458403219E+02  0.19997354120E+03  0.20944052286E+03  0.10000000000E+01 0.  0.
    9000005    1    3    3    0    0 -0.98883826275E+01 -0.61458403219E+02  0.23968617350E+03  0.24763961155E+03  0.10000000000E+01 0.  0.
<mgrwt>
<rscale>  0 0.12498634E+03</rscale>
<asrwt>0</asrwt>
<pdfrwt beam="2">  1        4 0.13400322E-02 0.12498634E+03</pdfrwt>
<pdfrwt beam="1">  1       -4 0.68979995E-01 0.12498634E+03</pdfrwt>
<totfact> 0.59373170E+03</totfact>
</mgrwt>
</event>
<event>
 5    1  0.3261711E-002  0.1250026E+03  0.7818608E-02  0.1235065E+00
         -4   -1    0    0    0  501 -0.00000000000E+00  0.00000000000E+00  0.11948947851E+03  0.11949622745E+03  0.12700000000E+01 0.  1.
          4   -1    0    0  501    0  0.00000000000E+00 -0.00000000000E+00 -0.32672503415E+02  0.32697176933E+02  0.12700000000E+01 0.  1.
         25    2    1    2    0    0  0.00000000000E+00  0.00000000000E+00  0.86816975092E+02  0.15219340438E+03  0.12500258066E+03 0.  0.
    9000005    1    3    3    0    0  0.21639431082E+02  0.57539960137E+02  0.57091361602E+02  0.83901940142E+02  0.10000000000E+01 0.  0.
    9000005    1    3    3    0    0 -0.21639431082E+02 -0.57539960137E+02  0.29725613490E+02  0.68291464236E+02  0.10000000000E+01 0.  0.
<mgrwt>
<rscale>  0 0.12500258E+03</rscale>
<asrwt>0</asrwt>
<pdfrwt beam="2">  1        4 0.50289562E-02 0.12500258E+03</pdfrwt>
<pdfrwt beam="1">  1       -4 0.18385414E-01 0.12500258E+03</pdfrwt>
<totfact> 0.98862519E+03</totfact>
</mgrwt>
</event>
<event>
 5    1  0.3261711E-002  0.1249999E+03  0.7818608E-02  0.1235069E+00
          4   -1    0    0  501    0  0.00000000000E+00  0.00000000000E+00  0.79471035173E+02  0.79481182248E+02  0.12700000000E+01 0.  1.
         -4   -1    0    0    0  501 -0.00000000000E+00 -0.00000000000E+00 -0.49131542387E+02  0.49147953745E+02  0.12700000000E+01 0.  1.
         25    2    1    2    0    0  0.00000000000E+00  0.00000000000E+00  0.30339492786E+02  0.12862913599E+03  0.12499987921E+03 0.  0.
    9000005    1    3    3    0    0  0.40302233140E+02 -0.36460637360E+02  0.46913310941E+02  0.71801858027E+02  0.10000000000E+01 0.  0.
    9000005    1    3    3    0    0 -0.40302233140E+02  0.36460637360E+02 -0.16573818154E+02  0.56827277965E+02  0.10000000000E+01 0.  0.
<mgrwt>
<rscale>  0 0.12499988E+03</rscale>
<asrwt>0</asrwt>
<pdfrwt beam="1">  1        4 0.12228356E-01 0.12499988E+03</pdfrwt>
<pdfrwt beam="2">  1       -4 0.75607419E-02 0.12499988E+03</pdfrwt>
<totfact> 0.10373951E+04</totfact>
</mgrwt>
</event>
<event>
 5    1  0.3261711E-002  0.1250007E+03  0.7818608E-02  0.1235068E+00
         -4   -1    0    0    0  501 -0.00000000000E+00  0.00000000000E+00  0.39940683889E+03  0.39940885800E+03  0.12700000000E+01 0. -1.
          4   -1    0    0  501    0  0.00000000000E+00 -0.00000000000E+00 -0.97369532022E+01  0.98194275629E+01  0.12700000000E+01 0. -1.
         25    2    1    2    0    0  0.00000000000E+00  0.00000000000E+00  0.38966988569E+03  0.40922828557E+03  0.12500067958E+03 0.  0.
    9000005    1    3    3    0    0  0.47072183441E+02 -0.58478351827E+01  0.61638611528E+02  0.77783713342E+02  0.10000000000E+01 0.  0.
    9000005    1    3    3    0    0 -0.47072183441E+02  0.58478351827E+01  0.32803127416E+03  0.33144457222E+03  0.10000000000E+01 0.  0.
<mgrwt>
<rscale>  0 0.12500068E+03</rscale>
<asrwt>0</asrwt>
<pdfrwt beam="2">  1        4 0.15044929E-02 0.12500068E+03</pdfrwt>
<pdfrwt beam="1">  1       -4 0.61453682E-01 0.12500068E+03</pdfrwt>
<totfact> 0.63664103E+03</totfact>
</mgrwt>
</event>
<event>
 5    1  0.3261711E-002  0.1249974E+03  0.7818608E-02  0.1235073E+00
          4   -1    0    0  501    0  0.00000000000E+00  0.00000000000E+00  0.61495038497E+01  0.62792752446E+01  0.12700000000E+01 0. -1.
         -4   -1    0    0    0  501 -0.00000000000E+00 -0.00000000000E+00 -0.62842453554E+03  0.62842581883E+03  0.12700000000E+01 0. -1.
         25    2    1    2    0    0  0.00000000000E+00  0.00000000000E+00 -0.62227503169E+03  0.63470509407E+03  0.12499736548E+03 0.  0.
    9000005    1    3    3    0    0  0.56544758480E+02 -0.19871370351E+02 -0.22131672573E+03  0.22929080696E+03  0.10000000000E+01 0.  0.
    9000005    1    3    3    0    0 -0.56544758480E+02  0.19871370351E+02 -0.40095830597E+03  0.40541428711E+03  0.10000000000E+01 0.  0.
<mgrwt>
<rscale>  0 0.12499737E+03</rscale>
<asrwt>0</asrwt>
<pdfrwt beam="1">  1        4 0.95615914E-03 0.12499737E+03</pdfrwt>
<pdfrwt beam="2">  1       -4 0.96690729E-01 0.12499737E+03</pdfrwt>
<totfact> 0.46750449E+03</totfact>
</mgrwt>
</event>
<event>
 5    1  0.3261711E-002  0.1250066E+03  0.7818608E-02  0.1235059E+00
         -4   -1    0    0    0  501 -0.00000000000E+00  0.00000000000E+00  0.28658087515E+03  0.28658368918E+03  0.12700000000E+01 0. -1.
          4   -1    0    0  501    0  0.00000000000E+00 -0.00000000000E+00 -0.13599495163E+02  0.13658666431E+02  0.12700000000E+01 0. -1.
         25    2    1    2    0    0  0.00000000000E+00  0.00000000000E+00  0.27298137999E+03  0.30024235561E+03  0.12500655295E+03 0.  0.
    9000005    1    3    3    0    0  0.48478764736E+02  0.38939131209E+02  0.15153091098E+03  0.16379579834E+03  0.10000000000E+01 0.  0.
    9000005    1    3    3    0    0 -0.48478764736E+02 -0.38939131209E+02  0.12145046901E+03  0.13644655728E+03  0.10000000000E+01 0.  0.
<mgrwt>
<rscale>  0 0.12500655E+03</rscale>
<asrwt>0</asrwt>
<pdfrwt beam="2">  1        4 0.20969981E-02 0.12500655E+03</pdfrwt>
<pdfrwt beam="1">  1       -4 0.44094134E-01 0.12500655E+03</pdfrwt>
<totfact> 0.75557455E+03</totfact>
</mgrwt>
</event>
<event>
 5    1  0.3261711E-002  0.1250011E+03  0.7818608E-02  0.1235068E+00
         -4   -1    0    0    0  501 -0.00000000000E+00  0.00000000000E+00  0.25097008048E+02  0.25129120815E+02  0.12700000000E+01 0.  1.
          4   -1    0    0  501    0  0.00000000000E+00 -0.00000000000E+00 -0.15551449675E+03  0.15551968235E+03  0.12700000000E+01 0.  1.
         25    2    1    2    0    0  0.00000000000E+00  0.00000000000E+00 -0.13041748870E+03  0.18064880317E+03  0.12500107490E+03 0.  0.
    9000005    1    3    3    0    0 -0.26910012600E+02  0.49878057398E+02 -0.10326244610E+03  0.11779686822E+03  0.10000000000E+01 0.  0.
    9000005    1    3    3    0    0  0.26910012600E+02 -0.49878057398E+02 -0.27155042599E+02  0.62851934946E+02  0.10000000000E+01 0.  0.
<mgrwt>
<rscale>  0 0.12500107E+03</rscale>
<asrwt>0</asrwt>
<pdfrwt beam="2">  1        4 0.23928176E-01 0.12500107E+03</pdfrwt>
<pdfrwt beam="1">  1       -4 0.38639474E-02 0.12500107E+03</pdfrwt>
<totfact> 0.93498094E+03</totfact>
</mgrwt>
</event>
<event>
 5    1  0.3261711E-002  0.1249937E+03  0.7818608E-02  0.1235079E+00
         -4   -1    0    0    0  501 -0.00000000000E+00  0.00000000000E+00  0.78691583942E+02  0.78701831512E+02  0.12700000000E+01 0. -1.
          4   -1    0    0  501    0  0.00000000000E+00 -0.00000000000E+00 -0.49613412579E+02  0.49629664594E+02  0.12700000000E+01 0. -1.
         25    2    1    2    0    0  0.00000000000E+00  0.00000000000E+00  0.29078171363E+02  0.12833149611E+03  0.12499373121E+03 0.  0.
    9000005    1    3    3    0    0  0.56454686479E+02  0.15892577168E+02  0.36682405884E+02  0.69183123202E+02  0.10000000000E+01 0.  0.
    9000005    1    3    3    0    0 -0.56454686479E+02 -0.15892577168E+02 -0.76042345216E+01  0.59148372904E+02  0.10000000000E+01 0.  0.
<mgrwt>
<rscale>  0 0.12499373E+03</rscale>
<asrwt>0</asrwt>
<pdfrwt beam="2">  1        4 0.76348712E-02 0.12499373E+03</pdfrwt>
<pdfrwt beam="1">  1       -4 0.12108436E-01 0.12499373E+03</pdfrwt>
<totfact> 0.10381804E+04</totfact>
</mgrwt>
</event>
<event>
 5    1  0.3261711E-002  0.1250065E+03  0.7818608E-02  0.1235059E+00
          4   -1    0    0  501    0  0.00000000000E+00  0.00000000000E+00  0.11978506509E+04  0.11978513242E+04  0.12700000000E+01 0. -1.
         -4   -1    0    0    0  501 -0.00000000000E+00 -0.00000000000E+00 -0.31370551430E+01  0.33843780773E+01  0.12700000000E+01 0. -1.
         25    2    1    2    0    0  0.00000000000E+00  0.00000000000E+00  0.11947135958E+04  0.12012357022E+04  0.12500654548E+03 0.  0.
    9000005    1    3    3    0    0 -0.16780015533E+02 -0.24937646226E+02  0.70835944985E+02  0.76955741972E+02  0.10000000000E+01 0.  0.
    9000005    1    3    3    0    0  0.16780015533E+02  0.24937646226E+02  0.11238776508E+04  0.11242799603E+04  0.10000000000E+01 0.  0.
<mgrwt>
<rscale>  0 0.12500655E+03</rscale>
<asrwt>0</asrwt>
<pdfrwt beam="1">  1        4 0.18430390E+00 0.12500655E+03</pdfrwt>
<pdfrwt beam="2">  1       -4 0.50170021E-03 0.12500655E+03</pdfrwt>
<totfact> 0.24676884E+03</totfact>
</mgrwt>
</event>
<event>
 5    1  0.3261711E-002  0.1250000E+03  0.7818608E-02  0.1235069E+00
         -4   -1    0    0    0  501 -0.00000000000E+00  0.00000000000E+00  0.45514104653E+01  0.47252764177E+01  0.12700000000E+01 0. -1.
          4   -1    0    0  501    0  0.00000000000E+00 -0.00000000000E+00 -0.84199099316E+03  0.84199195095E+03  0.12700000000E+01 0. -1.
         25    2    1    2    0    0  0.00000000000E+00  0.00000000000E+00 -0.83743958269E+03  0.84671722736E+03  0.12500003382E+03 0.  0.
    9000005    1    3    3    0    0 -0.21343595729E+02  0.57522482103E+02 -0.49911553075E+03  0.50287344140E+03  0.10000000000E+01 0.  0.
    9000005    1    3    3    0    0  0.21343595729E+02 -0.57522482103E+02 -0.33832405194E+03  0.34384378597E+03  0.10000000000E+01 0.  0.
<mgrwt>
<rscale>  0 0.12500003E+03</rscale>
<asrwt>0</asrwt>
<pdfrwt beam="2">  1        4 0.12955040E+00 0.12500003E+03</pdfrwt>
<pdfrwt beam="1">  1       -4 0.71366564E-03 0.12500003E+03</pdfrwt>
<totfact> 0.36262039E+03</totfact>
</mgrwt>
</event>
<event>
 5    1  0.3261711E-002  0.1249995E+03  0.7818608E-02  0.1235070E+00
          4   -1    0    0  501    0  0.00000000000E+00  0.00000000000E+00  0.31255307724E+01  0.33736986542E+01  0.12700000000E+01 0.  1.
         -4   -1    0    0    0  501 -0.00000000000E+00 -0.00000000000E+00 -0.12018071949E+04  0.12018078659E+04  0.12700000000E+01 0.  1.
         25    2    1    2    0    0  0.00000000000E+00  0.00000000000E+00 -0.11986816641E+04  0.12051815646E+04  0.12499948680E+03 0.  0.
    9000005    1    3    3    0    0  0.35296981678E+02  0.23889090873E+02 -0.15870751796E+03  0.16433393391E+03  0.10000000000E+01 0.  0.
    9000005    1    3    3    0    0 -0.35296981678E+02 -0.23889090873E+02 -0.10399741461E+04  0.10408476306E+04  0.10000000000E+01 0.  0.
<mgrwt>
<rscale>  0 0.12499949E+03</rscale>
<asrwt>0</asrwt>
<pdfrwt beam="1">  1        4 0.49999330E-03 0.12499949E+03</pdfrwt>
<pdfrwt beam="2">  1       -4 0.18491220E+00 0.12499949E+03</pdfrwt>
<totfact> 0.24577858E+03</totfact>
</mgrwt>
</event>
<event>
 5    1  0.3261711E-002  0.1249938E+03  0.7818608E-02  0.1235079E+00
         -4   -1    0    0    0  501 -0.00000000000E+00  0.00000000000E+00  0.25027893856E+03  0.25028216074E+03  0.12700000000E+01 0. -1.
          4   -1    0    0  501    0  0.00000000000E+00 -0.00000000000E+00 -0.15576871846E+02  0.15628558363E+02  0.12700000000E+01 0. -1.
         25    2    1    2    0    0  0.00000000000E+00  0.00000000000E+00  0.23470206671E+03  0.26591071910E+03  0.12499380151E+03 0.  0.
    9000005    1    3    3    0    0  0.38092013910E+02  0.43717671334E+02  0.16690720914E+03  0.17669536715E+03  0.10000000000E+01 0.  0.
    9000005    1    3    3    0    0 -0.38092013910E+02 -0.43717671334E+02  0.67794857574E+02  0.89215351952E+02  0.10000000000E+01 0.  0.
<mgrwt>
<rscale>  0 0.12499380E+03</rscale>
<asrwt>0</asrwt>
<pdfrwt beam="2">  1        4 0.24006657E-02 0.12499380E+03</pdfrwt>
<pdfrwt beam="1">  1       -4 0.38508673E-01 0.12499380E+03</pdfrwt>
<totfact> 0.80094712E+03</totfact>
</mgrwt>
</event>
<event>
 5    1  0.3261711E-002  0.1250000E+03  0.7818608E-02  0.1235069E+00
         -4   -1    0    0    0  501 -0.00000000000E+00  0.00000000000E+00  0.29343264143E+02  0.29370734593E+02  0.12700000000E+01 0. -1.
          4   -1    0    0  501    0  0.00000000000E+00 -0.00000000000E+00 -0.13302984872E+03  0.13303591075E+03  0.12700000000E+01 0. -1.
         25    2    1    2    0    0  0.00000000000E+00  0.00000000000E+00 -0.10368658457E+03  0.16240664534E+03  0.12500004253E+03 0.  0.
    9000005    1    3    3    0    0 -0.33944299487E+00  0.41624449646E+02 -0.11240216583E+03  0.11986641278E+03  0.10000000000E+01 0.  0.
    9000005    1    3    3    0    0  0.33944299487E+00 -0.41624449646E+02  0.87155812564E+01  0.42540232563E+02  0.10000000000E+01 0.  0.
<mgrwt>
<rscale>  0 0.12500004E+03</rscale>
<asrwt>0</asrwt>
<pdfrwt beam="2">  1        4 0.20468710E-01 0.12500004E+03</pdfrwt>
<pdfrwt beam="1">  1       -4 0.45169278E-02 0.12500004E+03</pdfrwt>
<totfact> 0.96880707E+03</totfact>
</mgrwt>
</event>
<event>
 5    1  0.3261711E-002  0.1250007E+03  0.7818608E-02  0.1235068E+00
         -4   -1    0    0    0  501 -0.00000000000E+00  0.00000000000E+00  0.78817120322E+02  0.78827351572E+02  0.12700000000E+01 0. -1.
          4   -1    0    0  501    0  0.00000000000E+00 -0.00000000000E+00 -0.49539937860E+02  0.49556213972E+02  0.12700000000E+01 0. -1.
         25    2    1    2    0    0  0.00000000000E+00  0.00000000000E+00  0.29277182462E+02  0.12838356554E+03  0.12500074595E+03 0.  0.
    9000005    1    3    3    0    0 -0.37522677893E+02  0.49258207328E+02  0.23291204958E+02  0.66164964852E+02  0.10000000000E+01 0.  0.
    9000005    1    3    3    0    0  0.37522677893E+02 -0.49258207328E+02  0.59859775039E+01  0.62218600692E+02  0.10000000000E+01 0.  0.
<mgrwt>
<rscale>  0 0.12500075E+03</rscale>
<asrwt>0</asrwt>
<pdfrwt beam="2">  1        4 0.76235680E-02 0.12500075E+03</pdfrwt>
<pdfrwt beam="1">  1       -4 0.12127750E-01 0.12500075E+03</pdfrwt>
<totfact> 0.10379038E+04</totfact>
</mgrwt>
</event>
<event>
 5    1  0.3261711E-002  0.1249944E+03  0.7818608E-02  0.1235078E+00
          4   -1    0    0  501    0  0.00000000000E+00  0.00000000000E+00  0.84104994468E+02  0.84114582532E+02  0.12700000000E+01 0.  1.
         -4   -1    0    0    0  501 -0.00000000000E+00 -0.00000000000E+00 -0.46419859091E+02  0.46437228793E+02  0.12700000000E+01 0.  1.
         25    2    1    2    0    0  0.00000000000E+00  0.00000000000E+00  0.37685135377E+02  0.13055181132E+03  0.12499442392E+03 0.  0.
    9000005    1    3    3    0    0 -0.49355240260E+01 -0.22331631173E+02 -0.41896596794E+02  0.47742915403E+02  0.10000000000E+01 0.  0.
    9000005    1    3    3    0    0  0.49355240260E+01  0.22331631173E+02  0.79581732172E+02  0.82808895921E+02  0.10000000000E+01 0.  0.
<mgrwt>
<rscale>  0 0.12499442E+03</rscale>
<asrwt>0</asrwt>
<pdfrwt beam="1">  1        4 0.12941303E-01 0.12499442E+03</pdfrwt>
<pdfrwt beam="2">  1       -4 0.71435905E-02 0.12499442E+03</pdfrwt>
<totfact> 0.10334007E+04</totfact>
</mgrwt>
</event>
<event>
 5    1  0.3261711E-002  0.1250005E+03  0.7818608E-02  0.1235068E+00
          4   -1    0    0  501    0  0.00000000000E+00  0.00000000000E+00  0.25865524504E+03  0.25865836287E+03  0.12700000000E+01 0.  1.
         -4   -1    0    0    0  501 -0.00000000000E+00 -0.00000000000E+00 -0.15072364131E+02  0.15125774707E+02  0.12700000000E+01 0.  1.
         25    2    1    2    0    0  0.00000000000E+00  0.00000000000E+00  0.24358288090E+03  0.27378413758E+03  0.12500053648E+03 0.  0.
    9000005    1    3    3    0    0 -0.16288620285E+02 -0.30472829599E+02  0.77425979929E+01  0.35424007654E+02  0.10000000000E+01 0.  0.
    9000005    1    3    3    0    0  0.16288620285E+02  0.30472829599E+02  0.23584028291E+03  0.23836012993E+03  0.10000000000E+01 0.  0.
<mgrwt>
<rscale>  0 0.12500054E+03</rscale>
<asrwt>0</asrwt>
<pdfrwt beam="1">  1        4 0.39797461E-01 0.12500054E+03</pdfrwt>
<pdfrwt beam="2">  1       -4 0.23231737E-02 0.12500054E+03</pdfrwt>
<totfact> 0.79008626E+03</totfact>
</mgrwt>
</event>
<event>
 5    1  0.3261711E-002  0.1250108E+03  0.7818608E-02  0.1235052E+00
          4   -1    0    0  501    0  0.00000000000E+00  0.00000000000E+00  0.26316228328E+02  0.26346855095E+02  0.12700000000E+01 0. -1.
         -4   -1    0    0    0  501 -0.00000000000E+00 -0.00000000000E+00 -0.14834105586E+03  0.14834649222E+03  0.12700000000E+01 0. -1.
         25    2    1    2    0    0  0.00000000000E+00  0.00000000000E+00 -0.12202482753E+03  0.17469334732E+03  0.12501082778E+03 0.  0.
    9000005    1    3    3    0    0 -0.45910957289E+02 -0.31650316799E+02 -0.10044776324E+03  0.11489260939E+03  0.10000000000E+01 0.  0.
    9000005    1    3    3    0    0  0.45910957289E+02  0.31650316799E+02 -0.21577064291E+02  0.59800737923E+02  0.10000000000E+01 0.  0.
<mgrwt>
<rscale>  0 0.12501083E+03</rscale>
<asrwt>0</asrwt>
<pdfrwt beam="1">  1        4 0.40514247E-02 0.12501083E+03</pdfrwt>
<pdfrwt beam="2">  1       -4 0.22824475E-01 0.12501083E+03</pdfrwt>
<totfact> 0.94558062E+03</totfact>
</mgrwt>
</event>
<event>
 4    1  0.3261711E-002  0.1246079E+03  0.7818608E-02  0.1235683E+00
          4   -1    0    0  501    0  0.00000000000E+00  0.00000000000E+00  0.85945785268E+01  0.86879042382E+01  0.12700000000E+01 0. -1.
         -4   -1    0    0    0  501 -0.00000000000E+00 -0.00000000000E+00 -0.44912122819E+03  0.44912302381E+03  0.12700000000E+01 0. -1.
    9000005    1    1    2    0    0  0.14643565028E+02 -0.25478319855E+02 -0.42207339104E+03  0.42309635570E+03  0.10000000000E+01 0.  0.
    9000005    1    1    2    0    0 -0.14643565028E+02  0.25478319855E+02 -0.18453258624E+02  0.34714572346E+02  0.10000000000E+01 0.  0.
<mgrwt>
<rscale>  0 0.12460785E+03</rscale>
<asrwt>0</asrwt>
<pdfrwt beam="1">  1        4 0.13295602E-02 0.12460785E+03</pdfrwt>
<pdfrwt beam="2">  1       -4 0.69102872E-01 0.12460785E+03</pdfrwt>
<totfact> 0.59808017E+03</totfact>
</mgrwt>
</event>
<event>
 5    1  0.3261711E-002  0.1250007E+03  0.7818608E-02  0.1235068E+00
          4   -1    0    0  501    0  0.00000000000E+00  0.00000000000E+00  0.85168693649E+03  0.85168788337E+03  0.12700000000E+01 0.  1.
         -4   -1    0    0    0  501 -0.00000000000E+00 -0.00000000000E+00 -0.44976516894E+01  0.46735180239E+01  0.12700000000E+01 0.  1.
         25    2    1    2    0    0  0.00000000000E+00  0.00000000000E+00  0.84718928480E+03  0.85636140140E+03  0.12500066210E+03 0.  0.
    9000005    1    3    3    0    0 -0.11638376992E+01  0.38620225438E+02  0.76008357573E+03  0.76106564660E+03  0.10000000000E+01 0.  0.
    9000005    1    3    3    0    0  0.11638376992E+01 -0.38620225438E+02  0.87105709067E+02  0.95295754801E+02  0.10000000000E+01 0.  0.
<mgrwt>
<rscale>  0 0.12500066E+03</rscale>
<asrwt>0</asrwt>
<pdfrwt beam="1">  1        4 0.13104241E+00 0.12500066E+03</pdfrwt>
<pdfrwt beam="2">  1       -4 0.70554716E-03 0.12500066E+03</pdfrwt>
<totfact> 0.35867881E+03</totfact>
</mgrwt>
</event>
<event>
 5    1  0.3261711E-002  0.1250018E+03  0.7818608E-02  0.1235066E+00
          4   -1    0    0  501    0  0.00000000000E+00  0.00000000000E+00  0.47000444066E+03  0.47000615649E+03  0.12700000000E+01 0.  1.
         -4   -1    0    0    0  501 -0.00000000000E+00 -0.00000000000E+00 -0.82610776542E+01  0.83581280206E+01  0.12700000000E+01 0.  1.
         25    2    1    2    0    0  0.00000000000E+00  0.00000000000E+00  0.46174336300E+03  0.47836428451E+03  0.12500182165E+03 0.  0.
    9000005    1    3    3    0    0 -0.30878617945E+02 -0.43581575504E+02  0.35502484991E+03  0.35902156874E+03  0.10000000000E+01 0.  0.
    9000005    1    3    3    0    0  0.30878617945E+02  0.43581575504E+02  0.10671851310E+03  0.11934271577E+03  0.10000000000E+01 0.  0.
<mgrwt>
<rscale>  0 0.12500182E+03</rscale>
<asrwt>0</asrwt>
<pdfrwt beam="1">  1        4 0.72316008E-01 0.12500182E+03</pdfrwt>
<pdfrwt beam="2">  1       -4 0.12785318E-02 0.12500182E+03</pdfrwt>
<totfact> 0.57580668E+03</totfact>
</mgrwt>
</event>
<event>
 5    1  0.3261711E-002  0.1250008E+03  0.7818608E-02  0.1235068E+00
         -4   -1    0    0    0  501 -0.00000000000E+00  0.00000000000E+00  0.28528769357E+03  0.28529052035E+03  0.12700000000E+01 0. -1.
          4   -1    0    0  501    0  0.00000000000E+00 -0.00000000000E+00 -0.13660146164E+02  0.13719055843E+02  0.12700000000E+01 0. -1.
         25    2    1    2    0    0  0.00000000000E+00  0.00000000000E+00  0.27162754741E+03  0.29900957619E+03  0.12500080858E+03 0.  0.
    9000005    1    3    3    0    0 -0.91686723001E+01  0.48928503986E+02  0.45444582272E+02  0.67411223931E+02  0.10000000000E+01 0.  0.
    9000005    1    3    3    0    0  0.91686723001E+01 -0.48928503986E+02  0.22618296513E+03  0.23159835226E+03  0.10000000000E+01 0.  0.
<mgrwt>
<rscale>  0 0.12500081E+03</rscale>
<asrwt>0</asrwt>
<pdfrwt beam="2">  1        4 0.21063099E-02 0.12500081E+03</pdfrwt>
<pdfrwt beam="1">  1       -4 0.43895163E-01 0.12500081E+03</pdfrwt>
<totfact> 0.75721883E+03</totfact>
</mgrwt>
</event>
<event>
 5    1  0.3261711E-002  0.1249992E+03  0.7818608E-02  0.1235071E+00
         -4   -1    0    0    0  501 -0.00000000000E+00  0.00000000000E+00  0.26003298072E+02  0.26034292974E+02  0.12700000000E+01 0. -1.
          4   -1    0    0  501    0  0.00000000000E+00 -0.00000000000E+00 -0.15009622219E+03  0.15010159498E+03  0.12700000000E+01 0. -1.
         25    2    1    2    0    0  0.00000000000E+00  0.00000000000E+00 -0.12409292412E+03  0.17613588796E+03  0.12499918884E+03 0.  0.
    9000005    1    3    3    0    0  0.44379494467E+02 -0.32255027005E+02 -0.19884733935E+02  0.58363763929E+02  0.10000000000E+01 0.  0.
    9000005    1    3    3    0    0 -0.44379494467E+02  0.32255027005E+02 -0.10420819019E+03  0.11777212403E+03  0.10000000000E+01 0.  0.
<mgrwt>
<rscale>  0 0.12499919E+03</rscale>
<asrwt>0</asrwt>
<pdfrwt beam="2">  1        4 0.23094524E-01 0.12499919E+03</pdfrwt>
<pdfrwt beam="1">  1       -4 0.40033050E-02 0.12499919E+03</pdfrwt>
<totfact> 0.94318933E+03</totfact>
</mgrwt>
</event>
<event>
 5    1  0.3261711E-002  0.1250004E+03  0.7818608E-02  0.1235069E+00
          4   -1    0    0  501    0  0.00000000000E+00  0.00000000000E+00  0.32607044780E+03  0.32607292103E+03  0.12700000000E+01 0. -1.
         -4   -1    0    0    0  501 -0.00000000000E+00 -0.00000000000E+00 -0.11943674296E+02  0.12011005607E+02  0.12700000000E+01 0. -1.
         25    2    1    2    0    0  0.00000000000E+00  0.00000000000E+00  0.31412677350E+03  0.33808392663E+03  0.12500044647E+03 0.  0.
    9000005    1    3    3    0    0 -0.37578786702E+02  0.13238961125E+02  0.28727656225E+03  0.29002803058E+03  0.10000000000E+01 0.  0.
    9000005    1    3    3    0    0  0.37578786702E+02 -0.13238961125E+02  0.26850211250E+02  0.48055896057E+02  0.10000000000E+01 0.  0.
<mgrwt>
<rscale>  0 0.12500045E+03</rscale>
<asrwt>0</asrwt>
<pdfrwt beam="1">  1        4 0.50170045E-01 0.12500045E+03</pdfrwt>
<pdfrwt beam="2">  1       -4 0.18428583E-02 0.12500045E+03</pdfrwt>
<totfact> 0.71054977E+03</totfact>
</mgrwt>
</event>
<event>
 5    1  0.3261711E-002  0.1250015E+03  0.7818608E-02  0.1235067E+00
          4   -1    0    0  501    0  0.00000000000E+00  0.00000000000E+00  0.10998779563E+03  0.10999512757E+03  0.12700000000E+01 0.  1.
         -4   -1    0    0    0  501 -0.00000000000E+00 -0.00000000000E+00 -0.35496266647E+02  0.35518978671E+02  0.12700000000E+01 0.  1.
         25    2    1    2    0    0  0.00000000000E+00  0.00000000000E+00  0.74491528986E+02  0.14551410624E+03  0.12500146888E+03 0.  0.
    9000005    1    3    3    0    0 -0.50276372888E+02  0.55188624261E+01  0.79972649162E+02  0.94629784568E+02  0.10000000000E+01 0.  0.
    9000005    1    3    3    0    0  0.50276372888E+02 -0.55188624261E+01 -0.54811201764E+01  0.50884321669E+02  0.10000000000E+01 0.  0.
<mgrwt>
<rscale>  0 0.12500147E+03</rscale>
<asrwt>0</asrwt>
<pdfrwt beam="1">  1        4 0.16923510E-01 0.12500147E+03</pdfrwt>
<pdfrwt beam="2">  1       -4 0.54632752E-02 0.12500147E+03</pdfrwt>
<totfact> 0.10020222E+04</totfact>
</mgrwt>
</event>
<event>
 5    1  0.3261711E-002  0.1249881E+03  0.7818608E-02  0.1235088E+00
         -4   -1    0    0    0  501 -0.00000000000E+00  0.00000000000E+00  0.77599879723E+02  0.77610271440E+02  0.12700000000E+01 0. -1.
          4   -1    0    0  501    0  0.00000000000E+00 -0.00000000000E+00 -0.50306967460E+02  0.50322995489E+02  0.12700000000E+01 0. -1.
         25    2    1    2    0    0  0.00000000000E+00  0.00000000000E+00  0.27292912263E+02  0.12793326693E+03  0.12498807034E+03 0.  0.
    9000005    1    3    3    0    0  0.32084229896E+02 -0.77746616363E+01  0.67949977774E+02  0.75551589335E+02  0.10000000000E+01 0.  0.
    9000005    1    3    3    0    0 -0.32084229896E+02  0.77746616363E+01 -0.40657065511E+02  0.52381677594E+02  0.10000000000E+01 0.  0.
<mgrwt>
<rscale>  0 0.12498807E+03</rscale>
<asrwt>0</asrwt>
<pdfrwt beam="2">  1        4 0.77415658E-02 0.12498807E+03</pdfrwt>
<pdfrwt beam="1">  1       -4 0.11940475E-01 0.12498807E+03</pdfrwt>
<totfact> 0.10391727E+04</totfact>
</mgrwt>
</event>
<event>
 5    1  0.3261711E-002  0.1250003E+03  0.7818608E-02  0.1235069E+00
          4   -1    0    0  501    0  0.00000000000E+00  0.00000000000E+00  0.29430106871E+02  0.29457496337E+02  0.12700000000E+01 0.  1.
         -4   -1    0    0    0  501 -0.00000000000E+00 -0.00000000000E+00 -0.13263825670E+03  0.13264433663E+03  0.12700000000E+01 0.  1.
         25    2    1    2    0    0  0.00000000000E+00  0.00000000000E+00 -0.10320814983E+03  0.16210183297E+03  0.12500032824E+03 0.  0.
    9000005    1    3    3    0    0 -0.22295745474E+01  0.40181088687E+02 -0.11360439773E+03  0.12052572371E+03  0.10000000000E+01 0.  0.
    9000005    1    3    3    0    0  0.22295745474E+01 -0.40181088687E+02  0.10396247905E+02  0.41576109261E+02  0.10000000000E+01 0.  0.
<mgrwt>
<rscale>  0 0.12500033E+03</rscale>
<asrwt>0</asrwt>
<pdfrwt beam="1">  1        4 0.45302834E-02 0.12500033E+03</pdfrwt>
<pdfrwt beam="2">  1       -4 0.20408460E-01 0.12500033E+03</pdfrwt>
<totfact> 0.96938377E+03</totfact>
</mgrwt>
</event>
<event>
 5    1  0.3261711E-002  0.1249951E+03  0.7818608E-02  0.1235077E+00
         -4   -1    0    0    0  501 -0.00000000000E+00  0.00000000000E+00  0.64588781327E+02  0.64601266035E+02  0.12700000000E+01 0.  1.
          4   -1    0    0  501    0  0.00000000000E+00 -0.00000000000E+00 -0.60449040333E+02  0.60462379850E+02  0.12700000000E+01 0.  1.
         25    2    1    2    0    0  0.00000000000E+00  0.00000000000E+00  0.41397409940E+01  0.12506364588E+03  0.12499511217E+03 0.  0.
    9000005    1    3    3    0    0 -0.37556344947E+02 -0.49938542877E+02  0.28496604359E+01  0.62557634827E+02  0.10000000000E+01 0.  0.
    9000005    1    3    3    0    0  0.37556344947E+02  0.49938542877E+02  0.12900805581E+01  0.62506011058E+02  0.10000000000E+01 0.  0.
<mgrwt>
<rscale>  0 0.12499511E+03</rscale>
<asrwt>0</asrwt>
<pdfrwt beam="2">  1        4 0.93018389E-02 0.12499511E+03</pdfrwt>
<pdfrwt beam="1">  1       -4 0.99387220E-02 0.12499511E+03</pdfrwt>
<totfact> 0.10452635E+04</totfact>
</mgrwt>
</event>
<event>
 5    1  0.3261711E-002  0.1249979E+03  0.7818608E-02  0.1235073E+00
          4   -1    0    0  501    0  0.00000000000E+00  0.00000000000E+00  0.78433830159E+01  0.79455369318E+01  0.12700000000E+01 0.  1.
         -4   -1    0    0    0  501 -0.00000000000E+00 -0.00000000000E+00 -0.49468907957E+03  0.49469070979E+03  0.12700000000E+01 0.  1.
         25    2    1    2    0    0  0.00000000000E+00  0.00000000000E+00 -0.48684569656E+03  0.50263624672E+03  0.12499785702E+03 0.  0.
    9000005    1    3    3    0    0  0.38661749062E+02 -0.10644031538E+02 -0.50696885201E+02  0.64646735548E+02  0.10000000000E+01 0.  0.
    9000005    1    3    3    0    0 -0.38661749062E+02  0.10644031538E+02 -0.43614881136E+03  0.43798951117E+03  0.10000000000E+01 0.  0.
<mgrwt>
<rscale>  0 0.12499786E+03</rscale>
<asrwt>0</asrwt>
<pdfrwt beam="1">  1        4 0.12146581E-02 0.12499786E+03</pdfrwt>
<pdfrwt beam="2">  1       -4 0.76113971E-01 0.12499786E+03</pdfrwt>
<totfact> 0.55663038E+03</totfact>
</mgrwt>
</event>
<event>
 5    1  0.3261711E-002  0.1249976E+03  0.7818608E-02  0.1235073E+00
          4   -1    0    0  501    0  0.00000000000E+00  0.00000000000E+00  0.83833041720E+02  0.83842660883E+02  0.12700000000E+01 0. -1.
         -4   -1    0    0    0  501 -0.00000000000E+00 -0.00000000000E+00 -0.46572884122E+02  0.46590196774E+02  0.12700000000E+01 0. -1.
         25    2    1    2    0    0  0.00000000000E+00  0.00000000000E+00  0.37260157598E+02  0.13043285766E+03  0.12499764403E+03 0.  0.
    9000005    1    3    3    0    0  0.87136125301E+01  0.35269600365E+01 -0.45836000412E+02  0.46800698971E+02  0.10000000000E+01 0.  0.
    9000005    1    3    3    0    0 -0.87136125301E+01 -0.35269600365E+01  0.83096158010E+02  0.83632158686E+02  0.10000000000E+01 0.  0.
<mgrwt>
<rscale>  0 0.12499764E+03</rscale>
<asrwt>0</asrwt>
<pdfrwt beam="1">  1        4 0.12899463E-01 0.12499764E+03</pdfrwt>
<pdfrwt beam="2">  1       -4 0.71671308E-02 0.12499764E+03</pdfrwt>
<totfact> 0.10335806E+04</totfact>
</mgrwt>
</event>
<event>
 5    1  0.3261711E-002  0.1249998E+03  0.7818608E-02  0.1235070E+00
         -4   -1    0    0    0  501 -0.00000000000E+00  0.00000000000E+00  0.93962879901E+03  0.93962965728E+03  0.12700000000E+01 0.  1.
          4   -1    0    0  501    0  0.00000000000E+00 -0.00000000000E+00 -0.40593363087E+01  0.42533646995E+01  0.12700000000E+01 0.  1.
         25    2    1    2    0    0  0.00000000000E+00  0.00000000000E+00  0.93556946270E+03  0.94388302198E+03  0.12499975852E+03 0.  0.
    9000005    1    3    3    0    0  0.67784263563E+01 -0.50074706766E+02  0.74541517206E+03  0.74712663053E+03  0.10000000000E+01 0.  0.
    9000005    1    3    3    0    0 -0.67784263563E+01  0.50074706766E+02  0.19015429065E+03  0.19675639144E+03  0.10000000000E+01 0.  0.
<mgrwt>
<rscale>  0 0.12499976E+03</rscale>
<asrwt>0</asrwt>
<pdfrwt beam="2">  1        4 0.63950432E-03 0.12499976E+03</pdfrwt>
<pdfrwt beam="1">  1       -4 0.14457332E+00 0.12499976E+03</pdfrwt>
<totfact> 0.32534306E+03</totfact>
</mgrwt>
</event>
<event>
 5    1  0.3261711E-002  0.1250162E+03  0.7818608E-02  0.1235044E+00
         -4   -1    0    0    0  501 -0.00000000000E+00  0.00000000000E+00  0.39555149587E+02  0.39575532325E+02  0.12700000000E+01 0. -1.
          4   -1    0    0  501    0  0.00000000000E+00 -0.00000000000E+00 -0.98730271699E+02  0.98738439575E+02  0.12700000000E+01 0. -1.
         25    2    1    2    0    0  0.00000000000E+00  0.00000000000E+00 -0.59175122112E+02  0.13831397190E+03  0.12501623793E+03 0.  0.
    9000005    1    3    3    0    0  0.36318133931E+02 -0.48986244728E+02 -0.44741407665E+02  0.75640284139E+02  0.10000000000E+01 0.  0.
    9000005    1    3    3    0    0 -0.36318133931E+02  0.48986244728E+02 -0.14433714447E+02  0.62673687761E+02  0.10000000000E+01 0.  0.
<mgrwt>
<rscale>  0 0.12501624E+03</rscale>
<asrwt>0</asrwt>
<pdfrwt beam="2">  1        4 0.15191469E-01 0.12501624E+03</pdfrwt>
<pdfrwt beam="1">  1       -4 0.60876039E-02 0.12501624E+03</pdfrwt>
<totfact> 0.10164930E+04</totfact>
</mgrwt>
</event>
<event>
 5    1  0.3261711E-002  0.1249828E+03  0.7818608E-02  0.1235096E+00
          4   -1    0    0  501    0  0.00000000000E+00  0.00000000000E+00  0.69002626356E+02  0.69014312602E+02  0.12700000000E+01 0. -1.
         -4   -1    0    0    0  501 -0.00000000000E+00 -0.00000000000E+00 -0.56571001227E+02  0.56585254969E+02  0.12700000000E+01 0. -1.
         25    2    1    2    0    0  0.00000000000E+00  0.00000000000E+00  0.12431625128E+02  0.12559956757E+03  0.12498282310E+03 0.  0.
    9000005    1    3    3    0    0  0.58548274032E+02 -0.20233611158E+02  0.14434009544E+02  0.63613206523E+02  0.10000000000E+01 0.  0.
    9000005    1    3    3    0    0 -0.58548274032E+02  0.20233611158E+02 -0.20023844157E+01  0.61986361048E+02  0.10000000000E+01 0.  0.
<mgrwt>
<rscale>  0 0.12498282E+03</rscale>
<asrwt>0</asrwt>
<pdfrwt beam="1">  1        4 0.10617784E-01 0.12498282E+03</pdfrwt>
<pdfrwt beam="2">  1       -4 0.87052264E-02 0.12498282E+03</pdfrwt>
<totfact> 0.10443803E+04</totfact>
</mgrwt>
</event>
<event>
 5    1  0.3261711E-002  0.1249991E+03  0.7818608E-02  0.1235071E+00
         -4   -1    0    0    0  501 -0.00000000000E+00  0.00000000000E+00  0.40687756565E+01  0.42623743786E+01  0.12700000000E+01 0.  1.
          4   -1    0    0  501    0  0.00000000000E+00 -0.00000000000E+00 -0.93753848109E+03  0.93753934127E+03  0.12700000000E+01 0.  1.
         25    2    1    2    0    0  0.00000000000E+00  0.00000000000E+00 -0.93346970543E+03  0.94180171565E+03  0.12499912253E+03 0.  0.
    9000005    1    3    3    0    0  0.15563636728E+02 -0.35025063216E+02 -0.94848561537E+02  0.10230460140E+03  0.10000000000E+01 0.  0.
    9000005    1    3    3    0    0 -0.15563636728E+02  0.35025063216E+02 -0.83862114390E+03  0.83949711425E+03  0.10000000000E+01 0.  0.
<mgrwt>
<rscale>  0 0.12499912E+03</rscale>
<asrwt>0</asrwt>
<pdfrwt beam="2">  1        4 0.14425148E+00 0.12499912E+03</pdfrwt>
<pdfrwt beam="1">  1       -4 0.64092461E-03 0.12499912E+03</pdfrwt>
<totfact> 0.32609506E+03</totfact>
</mgrwt>
</event>
<event>
 5    1  0.3261711E-002  0.1250073E+03  0.7818608E-02  0.1235058E+00
          4   -1    0    0  501    0  0.00000000000E+00  0.00000000000E+00  0.72822905894E+01  0.73922023936E+01  0.12700000000E+01 0. -1.
         -4   -1    0    0    0  501 -0.00000000000E+00 -0.00000000000E+00 -0.53233815609E+03  0.53233967101E+03  0.12700000000E+01 0. -1.
         25    2    1    2    0    0  0.00000000000E+00  0.00000000000E+00 -0.52505586550E+03  0.53973187340E+03  0.12500733286E+03 0.  0.
    9000005    1    3    3    0    0  0.16266808804E+02  0.36827395978E+02 -0.56146474001E+02  0.69096256816E+02  0.10000000000E+01 0.  0.
    9000005    1    3    3    0    0 -0.16266808804E+02 -0.36827395978E+02 -0.46890939150E+03  0.47063561659E+03  0.10000000000E+01 0.  0.
<mgrwt>
<rscale>  0 0.12500733E+03</rscale>
<asrwt>0</asrwt>
<pdfrwt beam="1">  1        4 0.11289241E-02 0.12500733E+03</pdfrwt>
<pdfrwt beam="2">  1       -4 0.81906719E-01 0.12500733E+03</pdfrwt>
<totfact> 0.52899765E+03</totfact>
</mgrwt>
</event>
<event>
 4    1  0.3261711E-002  0.1250875E+03  0.7818608E-02  0.1234933E+00
         -4   -1    0    0    0  501 -0.00000000000E+00  0.00000000000E+00  0.59324748200E+02  0.59338340463E+02  0.12700000000E+01 0. -1.
          4   -1    0    0  501    0  0.00000000000E+00 -0.00000000000E+00 -0.65910204638E+02  0.65922439089E+02  0.12700000000E+01 0. -1.
    9000005    1    1    2    0    0 -0.51054845435E+02  0.95612397295E+01  0.31579472205E+02  0.60797019765E+02  0.10000000000E+01 0.  0.
    9000005    1    1    2    0    0  0.51054845435E+02 -0.95612397295E+01 -0.38164928644E+02  0.64463759788E+02  0.10000000000E+01 0.  0.
<mgrwt>
<rscale>  0 0.12508755E+03</rscale>
<asrwt>0</asrwt>
<pdfrwt beam="2">  1        4 0.10142018E-01 0.12508755E+03</pdfrwt>
<pdfrwt beam="1">  1       -4 0.91288710E-02 0.12508755E+03</pdfrwt>
<totfact> 0.10426558E+04</totfact>
</mgrwt>
</event>
<event>
 5    1  0.3261711E-002  0.1249917E+03  0.7818608E-02  0.1235082E+00
         -4   -1    0    0    0  501 -0.00000000000E+00  0.00000000000E+00  0.95046989398E+01  0.95891710766E+01  0.12700000000E+01 0.  1.
          4   -1    0    0  501    0  0.00000000000E+00 -0.00000000000E+00 -0.40902309721E+03  0.40902506885E+03  0.12700000000E+01 0.  1.
         25    2    1    2    0    0  0.00000000000E+00  0.00000000000E+00 -0.39951839827E+03  0.41861423993E+03  0.12499172499E+03 0.  0.
    9000005    1    3    3    0    0 -0.50781372611E+02 -0.20792723342E+02 -0.29987806059E+03  0.30485887943E+03  0.10000000000E+01 0.  0.
    9000005    1    3    3    0    0  0.50781372611E+02  0.20792723342E+02 -0.99640337685E+02  0.11375536050E+03  0.10000000000E+01 0.  0.
<mgrwt>
<rscale>  0 0.12499172E+03</rscale>
<asrwt>0</asrwt>
<pdfrwt beam="2">  1        4 0.62933266E-01 0.12499172E+03</pdfrwt>
<pdfrwt beam="1">  1       -4 0.14689112E-02 0.12499172E+03</pdfrwt>
<totfact> 0.62793245E+03</totfact>
</mgrwt>
</event>
<event>
 5    1  0.3261711E-002  0.1249747E+03  0.7818608E-02  0.1235109E+00
          4   -1    0    0  501    0  0.00000000000E+00  0.00000000000E+00  0.11616128571E+03  0.11616822800E+03  0.12700000000E+01 0. -1.
         -4   -1    0    0    0  501 -0.00000000000E+00 -0.00000000000E+00 -0.33594272681E+02  0.33618269690E+02  0.12700000000E+01 0. -1.
         25    2    1    2    0    0  0.00000000000E+00  0.00000000000E+00  0.82567013025E+02  0.14978649769E+03  0.12497473045E+03 0.  0.
    9000005    1    3    3    0    0 -0.80079506757E+01 -0.46154258851E+02 -0.82687175499E+01  0.47578509582E+02  0.10000000000E+01 0.  0.
    9000005    1    3    3    0    0  0.80079506757E+01  0.46154258851E+02  0.90835730575E+02  0.10220798811E+03  0.10000000000E+01 0.  0.
<mgrwt>
<rscale>  0 0.12497473E+03</rscale>
<asrwt>0</asrwt>
<pdfrwt beam="1">  1        4 0.17873347E-01 0.12497473E+03</pdfrwt>
<pdfrwt beam="2">  1       -4 0.51707296E-02 0.12497473E+03</pdfrwt>
<totfact> 0.99402795E+03</totfact>
</mgrwt>
</event>
<event>
 5    1  0.3261711E-002  0.1250007E+03  0.7818608E-02  0.1235068E+00
         -4   -1    0    0    0  501 -0.00000000000E+00  0.00000000000E+00  0.36697693795E+02  0.36719662715E+02  0.12700000000E+01 0. -1.
          4   -1    0    0  501    0  0.00000000000E+00 -0.00000000000E+00 -0.10638762694E+03  0.10639520696E+03  0.12700000000E+01 0. -1.
         25    2    1    2    0    0  0.00000000000E+00  0.00000000000E+00 -0.69689933141E+02  0.14311486968E+03  0.12500071657E+03 0.  0.
    9000005    1    3    3    0    0  0.41373827275E+02  0.46823268904E+02 -0.33653657114E+02  0.70977325474E+02  0.10000000000E+01 0.  0.
    9000005    1    3    3    0    0 -0.41373827275E+02 -0.46823268904E+02 -0.36036276027E+02  0.72137544206E+02  0.10000000000E+01 0.  0.
<mgrwt>
<rscale>  0 0.12500072E+03</rscale>
<asrwt>0</asrwt>
<pdfrwt beam="2">  1        4 0.16369600E-01 0.12500072E+03</pdfrwt>
<pdfrwt beam="1">  1       -4 0.56480721E-02 0.12500072E+03</pdfrwt>
<totfact> 0.10069269E+04</totfact>
</mgrwt>
</event>
<event>
 5    1  0.3261711E-002  0.1249969E+03  0.7818608E-02  0.1235074E+00
         -4   -1    0    0    0  501 -0.00000000000E+00  0.00000000000E+00  0.21075067436E+02  0.21113298355E+02  0.12700000000E+01 0.  1.
          4   -1    0    0  501    0  0.00000000000E+00 -0.00000000000E+00 -0.18513181707E+03  0.18513617311E+03  0.12700000000E+01 0.  1.
         25    2    1    2    0    0  0.00000000000E+00  0.00000000000E+00 -0.16405674964E+03  0.20624947146E+03  0.12499690947E+03 0.  0.
    9000005    1    3    3    0    0 -0.13649521491E+02  0.60192287893E+02 -0.98164676725E+02  0.11596001343E+03  0.10000000000E+01 0.  0.
    9000005    1    3    3    0    0  0.13649521491E+02 -0.60192287893E+02 -0.65892072914E+02  0.90289458032E+02  0.10000000000E+01 0.  0.
<mgrwt>
<rscale>  0 0.12499691E+03</rscale>
<asrwt>0</asrwt>
<pdfrwt beam="2">  1        4 0.28485093E-01 0.12499691E+03</pdfrwt>
<pdfrwt beam="1">  1       -4 0.32455941E-02 0.12499691E+03</pdfrwt>
<totfact> 0.89098236E+03</totfact>
</mgrwt>
</event>
<event>
 5    1  0.3261711E-002  0.1250006E+03  0.7818608E-02  0.1235068E+00
         -4   -1    0    0    0  501 -0.00000000000E+00  0.00000000000E+00  0.65933859900E+03  0.65933982212E+03  0.12700000000E+01 0. -1.
          4   -1    0    0  501    0  0.00000000000E+00 -0.00000000000E+00 -0.58552503775E+01  0.59913985833E+01  0.12700000000E+01 0. -1.
         25    2    1    2    0    0  0.00000000000E+00  0.00000000000E+00  0.65348334862E+03  0.66533122070E+03  0.12500058525E+03 0.  0.
    9000005    1    3    3    0    0 -0.53421314811E+01 -0.45218202695E+02  0.55456384332E+03  0.55643084075E+03  0.10000000000E+01 0.  0.
    9000005    1    3    3    0    0  0.53421314811E+01  0.45218202695E+02  0.98919505306E+02  0.10890037995E+03  0.10000000000E+01 0.  0.
<mgrwt>
<rscale>  0 0.12500059E+03</rscale>
<asrwt>0</asrwt>
<pdfrwt beam="2">  1        4 0.91137512E-03 0.12500059E+03</pdfrwt>
<pdfrwt beam="1">  1       -4 0.10144724E+00 0.12500059E+03</pdfrwt>
<totfact> 0.44980454E+03</totfact>
</mgrwt>
</event>
<event>
 5    1  0.3261711E-002  0.1249998E+03  0.7818608E-02  0.1235070E+00
         -4   -1    0    0    0  501 -0.00000000000E+00  0.00000000000E+00  0.68221755331E+01  0.69393788630E+01  0.12700000000E+01 0.  1.
          4   -1    0    0  501    0  0.00000000000E+00 -0.00000000000E+00 -0.56758488573E+03  0.56758630658E+03  0.12700000000E+01 0.  1.
         25    2    1    2    0    0  0.00000000000E+00  0.00000000000E+00 -0.56076271020E+03  0.57452568544E+03  0.12499978431E+03 0.  0.
    9000005    1    3    3    0    0 -0.37685582467E+02 -0.32128974266E+02 -0.45556658297E+03  0.45825144367E+03  0.10000000000E+01 0.  0.
    9000005    1    3    3    0    0  0.37685582467E+02  0.32128974266E+02 -0.10519612723E+03  0.11627424177E+03  0.10000000000E+01 0.  0.
<mgrwt>
<rscale>  0 0.12499978E+03</rscale>
<asrwt>0</asrwt>
<pdfrwt beam="2">  1        4 0.87329840E-01 0.12499978E+03</pdfrwt>
<pdfrwt beam="1">  1       -4 0.10586909E-02 0.12499978E+03</pdfrwt>
<totfact> 0.50516398E+03</totfact>
</mgrwt>
</event>
<event>
 5    1  0.3261711E-002  0.1250008E+03  0.7818608E-02  0.1235068E+00
         -4   -1    0    0    0  501 -0.00000000000E+00  0.00000000000E+00  0.12447529208E+03  0.12448177071E+03  0.12700000000E+01 0.  1.
          4   -1    0    0  501    0  0.00000000000E+00 -0.00000000000E+00 -0.31361987621E+02  0.31387691338E+02  0.12700000000E+01 0.  1.
         25    2    1    2    0    0  0.00000000000E+00  0.00000000000E+00  0.93113304462E+02  0.15586946205E+03  0.12500080692E+03 0.  0.
    9000005    1    3    3    0    0 -0.22685198272E+02 -0.39235896537E+02 -0.70943717237E+01  0.45884680536E+02  0.10000000000E+01 0.  0.
    9000005    1    3    3    0    0  0.22685198272E+02  0.39235896537E+02  0.10020767619E+03  0.10998478151E+03  0.10000000000E+01 0.  0.
<mgrwt>
<rscale>  0 0.12500081E+03</rscale>
<asrwt>0</asrwt>
<pdfrwt beam="2">  1        4 0.48273967E-02 0.12500081E+03</pdfrwt>
<pdfrwt beam="1">  1       -4 0.19152520E-01 0.12500081E+03</pdfrwt>
<totfact> 0.98143302E+03</totfact>
</mgrwt>
</event>
<event>
 5    1  0.3261711E-002  0.1250057E+03  0.7818608E-02  0.1235060E+00
         -4   -1    0    0    0  501 -0.00000000000E+00  0.00000000000E+00  0.95030181385E+01  0.95875050843E+01  0.12700000000E+01 0.  1.
          4   -1    0    0  501    0  0.00000000000E+00 -0.00000000000E+00 -0.40918604539E+03  0.40918801625E+03  0.12700000000E+01 0.  1.
         25    2    1    2    0    0  0.00000000000E+00  0.00000000000E+00 -0.39968302725E+03  0.41877552133E+03  0.12500565985E+03 0.  0.
    9000005    1    3    3    0    0 -0.45720941214E+02 -0.34578899939E+02 -0.28322343582E+03  0.28896819788E+03  0.10000000000E+01 0.  0.
    9000005    1    3    3    0    0  0.45720941214E+02  0.34578899939E+02 -0.11645959143E+03  0.12980732345E+03  0.10000000000E+01 0.  0.
<mgrwt>
<rscale>  0 0.12500566E+03</rscale>
<asrwt>0</asrwt>
<pdfrwt beam="2">  1        4 0.62958336E-01 0.12500566E+03</pdfrwt>
<pdfrwt beam="1">  1       -4 0.14686537E-02 0.12500566E+03</pdfrwt>
<totfact> 0.62758940E+03</totfact>
</mgrwt>
</event>
<event>
 5    1  0.3261711E-002  0.1250121E+03  0.7818608E-02  0.1235050E+00
          4   -1    0    0  501    0  0.00000000000E+00  0.00000000000E+00  0.29076952104E+03  0.29077229453E+03  0.12700000000E+01 0. -1.
         -4   -1    0    0    0  501 -0.00000000000E+00 -0.00000000000E+00 -0.13403937130E+02  0.13463967862E+02  0.12700000000E+01 0. -1.
         25    2    1    2    0    0  0.00000000000E+00  0.00000000000E+00  0.27736558391E+03  0.30423626239E+03  0.12501214427E+03 0.  0.
    9000005    1    3    3    0    0 -0.79503975195E+01  0.42463068657E+02  0.24859366220E+03  0.25232148126E+03  0.10000000000E+01 0.  0.
    9000005    1    3    3    0    0  0.79503975195E+01 -0.42463068657E+02  0.28771921706E+02  0.51914781124E+02  0.10000000000E+01 0.  0.
<mgrwt>
<rscale>  0 0.12501214E+03</rscale>
<asrwt>0</asrwt>
<pdfrwt beam="1">  1        4 0.44738604E-01 0.12501214E+03</pdfrwt>
<pdfrwt beam="2">  1       -4 0.20669753E-02 0.12501214E+03</pdfrwt>
<totfact> 0.75050273E+03</totfact>
</mgrwt>
</event>
<event>
 5    1  0.3261711E-002  0.1249998E+03  0.7818608E-02  0.1235070E+00
          4   -1    0    0  501    0  0.00000000000E+00  0.00000000000E+00  0.20748500807E+03  0.20748889482E+03  0.12700000000E+01 0. -1.
         -4   -1    0    0    0  501 -0.00000000000E+00 -0.00000000000E+00 -0.18801130315E+02  0.18843975194E+02  0.12700000000E+01 0. -1.
         25    2    1    2    0    0  0.00000000000E+00  0.00000000000E+00  0.18868387776E+03  0.22633287002E+03  0.12499984930E+03 0.  0.
    9000005    1    3    3    0    0 -0.40397537740E+02 -0.47362171368E+02  0.10427657672E+03  0.12144851084E+03  0.10000000000E+01 0.  0.
    9000005    1    3    3    0    0  0.40397537740E+02  0.47362171368E+02  0.84407301033E+02  0.10488435918E+03  0.10000000000E+01 0.  0.
<mgrwt>
<rscale>  0 0.12499985E+03</rscale>
<asrwt>0</asrwt>
<pdfrwt beam="1">  1        4 0.31924366E-01 0.12499985E+03</pdfrwt>
<pdfrwt beam="2">  1       -4 0.28960762E-02 0.12499985E+03</pdfrwt>
<totfact> 0.85876174E+03</totfact>
</mgrwt>
</event>
<event>
 5    1  0.3261711E-002  0.1250060E+03  0.7818608E-02  0.1235060E+00
         -4   -1    0    0    0  501 -0.00000000000E+00  0.00000000000E+00  0.48709403518E+02  0.48725957057E+02  0.12700000000E+01 0.  1.
          4   -1    0    0  501    0  0.00000000000E+00 -0.00000000000E+00 -0.80167517213E+02  0.80177576142E+02  0.12700000000E+01 0.  1.
         25    2    1    2    0    0  0.00000000000E+00  0.00000000000E+00 -0.31458113694E+02  0.12890353320E+03  0.12500603167E+03 0.  0.
    9000005    1    3    3    0    0  0.50543051397E+01  0.29447252152E+02  0.40872596600E+02  0.50638481539E+02  0.10000000000E+01 0.  0.
    9000005    1    3    3    0    0 -0.50543051397E+01 -0.29447252152E+02 -0.72330710294E+02  0.78265051660E+02  0.10000000000E+01 0.  0.
<mgrwt>
<rscale>  0 0.12500603E+03</rscale>
<asrwt>0</asrwt>
<pdfrwt beam="2">  1        4 0.12335511E-01 0.12500603E+03</pdfrwt>
<pdfrwt beam="1">  1       -4 0.74958015E-02 0.12500603E+03</pdfrwt>
<totfact> 0.10366609E+04</totfact>
</mgrwt>
</event>
<event>
 5    1  0.3261711E-002  0.1250045E+03  0.7818608E-02  0.1235062E+00
          4   -1    0    0  501    0  0.00000000000E+00  0.00000000000E+00  0.46768444358E+03  0.46768616792E+03  0.12700000000E+01 0. -1.
         -4   -1    0    0    0  501 -0.00000000000E+00 -0.00000000000E+00 -0.83029015040E+01  0.83994686370E+01  0.12700000000E+01 0. -1.
         25    2    1    2    0    0  0.00000000000E+00  0.00000000000E+00  0.45938154208E+03  0.47608563656E+03  0.12500452847E+03 0.  0.
    9000005    1    3    3    0    0 -0.39238754297E+02  0.48627900968E+02  0.23382868948E+03  0.24203555238E+03  0.10000000000E+01 0.  0.
    9000005    1    3    3    0    0  0.39238754297E+02 -0.48627900968E+02  0.22555285260E+03  0.23405008418E+03  0.10000000000E+01 0.  0.
<mgrwt>
<rscale>  0 0.12500453E+03</rscale>
<asrwt>0</asrwt>
<pdfrwt beam="1">  1        4 0.71959009E-01 0.12500453E+03</pdfrwt>
<pdfrwt beam="2">  1       -4 0.12849304E-02 0.12500453E+03</pdfrwt>
<totfact> 0.57763015E+03</totfact>
</mgrwt>
</event>
<event>
 5    1  0.3261711E-002  0.1249605E+03  0.7818608E-02  0.1235131E+00
          4   -1    0    0  501    0  0.00000000000E+00  0.00000000000E+00  0.87884239272E+01  0.88797125586E+01  0.12700000000E+01 0.  1.
         -4   -1    0    0    0  501 -0.00000000000E+00 -0.00000000000E+00 -0.44180856374E+03  0.44181038908E+03  0.12700000000E+01 0.  1.
         25    2    1    2    0    0  0.00000000000E+00  0.00000000000E+00 -0.43302013982E+03  0.45069010164E+03  0.12496049866E+03 0.  0.
    9000005    1    3    3    0    0  0.82169297158E+01  0.52850476961E+02 -0.10008191047E+03  0.11348162694E+03  0.10000000000E+01 0.  0.
    9000005    1    3    3    0    0 -0.82169297158E+01 -0.52850476961E+02 -0.33293822934E+03  0.33720847469E+03  0.10000000000E+01 0.  0.
<mgrwt>
<rscale>  0 0.12496050E+03</rscale>
<asrwt>0</asrwt>
<pdfrwt beam="1">  1        4 0.13592282E-02 0.12496050E+03</pdfrwt>
<pdfrwt beam="2">  1       -4 0.67977694E-01 0.12496050E+03</pdfrwt>
<totfact> 0.59956216E+03</totfact>
</mgrwt>
</event>
<event>
 5    1  0.3261711E-002  0.1249959E+03  0.7818608E-02  0.1235076E+00
          4   -1    0    0  501    0  0.00000000000E+00  0.00000000000E+00  0.74134221751E+02  0.74145099195E+02  0.12700000000E+01 0. -1.
         -4   -1    0    0    0  501 -0.00000000000E+00 -0.00000000000E+00 -0.52665709444E+02  0.52681019839E+02  0.12700000000E+01 0. -1.
         25    2    1    2    0    0  0.00000000000E+00  0.00000000000E+00  0.21468512307E+02  0.12682611903E+03  0.12499586973E+03 0.  0.
    9000005    1    3    3    0    0 -0.54299579626E+02  0.23755089711E+02 -0.93608713902E+01  0.60011453473E+02  0.10000000000E+01 0.  0.
    9000005    1    3    3    0    0  0.54299579626E+02 -0.23755089711E+02  0.30829383697E+02  0.66814665560E+02  0.10000000000E+01 0.  0.
<mgrwt>
<rscale>  0 0.12499587E+03</rscale>
<asrwt>0</asrwt>
<pdfrwt beam="1">  1        4 0.11407279E-01 0.12499587E+03</pdfrwt>
<pdfrwt beam="2">  1       -4 0.81044313E-02 0.12499587E+03</pdfrwt>
<totfact> 0.10413896E+04</totfact>
</mgrwt>
</event>
<event>
 5    1  0.3261711E-002  0.1250038E+03  0.7818608E-02  0.1235063E+00
          4   -1    0    0  501    0  0.00000000000E+00  0.00000000000E+00  0.54164432326E+02  0.54179319202E+02  0.12700000000E+01 0.  1.
         -4   -1    0    0    0  501 -0.00000000000E+00 -0.00000000000E+00 -0.72092359581E+02  0.72103545058E+02  0.12700000000E+01 0.  1.
         25    2    1    2    0    0  0.00000000000E+00  0.00000000000E+00 -0.17927927256E+02  0.12628286426E+03  0.12500380486E+03 0.  0.
    9000005    1    3    3    0    0  0.17250535644E+02 -0.80418348571E+01 -0.69098118835E+02  0.71678463393E+02  0.10000000000E+01 0.  0.
    9000005    1    3    3    0    0 -0.17250535644E+02  0.80418348571E+01  0.51170191579E+02  0.54604400867E+02  0.10000000000E+01 0.  0.
<mgrwt>
<rscale>  0 0.12500380E+03</rscale>
<asrwt>0</asrwt>
<pdfrwt beam="1">  1        4 0.83349951E-02 0.12500380E+03</pdfrwt>
<pdfrwt beam="2">  1       -4 0.11093138E-01 0.12500380E+03</pdfrwt>
<totfact> 0.10423872E+04</totfact>
</mgrwt>
</event>
