<event>
 5    1  0.1466870E-002  0.1249997E+03  0.7818608E-02  0.1235070E+00
         -4   -1    0    0    0  501 -0.00000000000E+00  0.00000000000E+00  0.14389505857E+02  0.14445441454E+02  0.12700000000E+01 0.  1.
          4   -1    0    0  501    0  0.00000000000E+00 -0.00000000000E+00 -0.27088006670E+03  0.27088304383E+03  0.12700000000E+01 0.  1.
         25    2    1    2    0    0  0.00000000000E+00  0.00000000000E+00 -0.25649056084E+03  0.28532848528E+03  0.12499974685E+03 0.  0.
    9000005    1    3    3    0    0 -0.23724426173E+02 -0.38273117201E+02 -0.22715346898E+03  0.23157585878E+03  0.10000000000E+01 0.  0.
    9000005    1    3    3    0    0  0.23724426173E+02  0.38273117201E+02 -0.29337091857E+02  0.53752626505E+02  0.10000000000E+01 0.  0.
<mgrwt>
<rscale>  0 0.12499975E+03</rscale>
<asrwt>0</asrwt>
<pdfrwt beam="2">  1        4 0.67727364E-01 0.12499975E+03</pdfrwt>
<pdfrwt beam="1">  1       -4 0.36047414E-02 0.12499975E+03</pdfrwt>
<totfact> 0.13392528E+03</totfact>
</mgrwt>
</event>
<event>
 5    1  0.1466870E-002  0.1249992E+03  0.7818608E-02  0.1235070E+00
         -4   -1    0    0    0  501 -0.00000000000E+00  0.00000000000E+00  0.25707845027E+02  0.25739195712E+02  0.12700000000E+01 0.  1.
          4   -1    0    0  501    0  0.00000000000E+00 -0.00000000000E+00 -0.15181928534E+03  0.15182459716E+03  0.12700000000E+01 0.  1.
         25    2    1    2    0    0  0.00000000000E+00  0.00000000000E+00 -0.12611144032E+03  0.17756379287E+03  0.12499922064E+03 0.  0.
    9000005    1    3    3    0    0 -0.49219318114E+02  0.17551679564E+02 -0.14371093957E+02  0.54204530001E+02  0.10000000000E+01 0.  0.
    9000005    1    3    3    0    0  0.49219318114E+02 -0.17551679564E+02 -0.11174034636E+03  0.12335926287E+03  0.10000000000E+01 0.  0.
<mgrwt>
<rscale>  0 0.12499922E+03</rscale>
<asrwt>0</asrwt>
<pdfrwt beam="2">  1        4 0.37959402E-01 0.12499922E+03</pdfrwt>
<pdfrwt beam="1">  1       -4 0.64315445E-02 0.12499922E+03</pdfrwt>
<totfact> 0.17261499E+03</totfact>
</mgrwt>
</event>
<event>
 5    1  0.1466870E-002  0.1249922E+03  0.7818608E-02  0.1235081E+00
         -4   -1    0    0    0  501 -0.00000000000E+00  0.00000000000E+00  0.58672054415E+03  0.58672191865E+03  0.12700000000E+01 0.  1.
          4   -1    0    0  501    0  0.00000000000E+00 -0.00000000000E+00 -0.65949752173E+01  0.67161445873E+01  0.12700000000E+01 0.  1.
         25    2    1    2    0    0  0.00000000000E+00  0.00000000000E+00  0.58012556893E+03  0.59343806324E+03  0.12499223645E+03 0.  0.
    9000005    1    3    3    0    0 -0.19265394037E+01  0.36065099074E+02  0.53217084807E+03  0.53339592655E+03  0.10000000000E+01 0.  0.
    9000005    1    3    3    0    0  0.19265394037E+01 -0.36065099074E+02  0.47954720864E+02  0.60042136691E+02  0.10000000000E+01 0.  0.
<mgrwt>
<rscale>  0 0.12499224E+03</rscale>
<asrwt>0</asrwt>
<pdfrwt beam="2">  1        4 0.16640617E-02 0.12499224E+03</pdfrwt>
<pdfrwt beam="1">  1       -4 0.14669546E+00 0.12499224E+03</pdfrwt>
<totfact> 0.74347823E+02</totfact>
</mgrwt>
</event>
<event>
 5    1  0.1466870E-002  0.1249986E+03  0.7818608E-02  0.1235071E+00
          4   -1    0    0  501    0  0.00000000000E+00  0.00000000000E+00  0.22030629791E+01  0.25429090605E+01  0.12700000000E+01 0. -1.
         -4   -1    0    0    0  501 -0.00000000000E+00 -0.00000000000E+00 -0.16457568562E+04  0.16457573462E+04  0.12700000000E+01 0. -1.
         25    2    1    2    0    0  0.00000000000E+00  0.00000000000E+00 -0.16435537932E+04  0.16483002553E+04  0.12499864135E+03 0.  0.
    9000005    1    3    3    0    0 -0.24347355233E+02 -0.52700705697E+02 -0.51676922404E+03  0.52002075824E+03  0.10000000000E+01 0.  0.
    9000005    1    3    3    0    0  0.24347355233E+02  0.52700705697E+02 -0.11267845692E+04  0.11282794970E+04  0.10000000000E+01 0.  0.
<mgrwt>
<rscale>  0 0.12499864E+03</rscale>
<asrwt>0</asrwt>
<pdfrwt beam="1">  1        4 0.59331341E-03 0.12499864E+03</pdfrwt>
<pdfrwt beam="2">  1       -4 0.41147784E+00 0.12499864E+03</pdfrwt>
<totfact> 0.82616112E+01</totfact>
</mgrwt>
</event>
<event>
 5    1  0.1466870E-002  0.1250046E+03  0.7818608E-02  0.1235062E+00
          4   -1    0    0  501    0  0.00000000000E+00  0.00000000000E+00  0.11881343263E+03  0.11882021996E+03  0.12700000000E+01 0.  1.
         -4   -1    0    0    0  501 -0.00000000000E+00 -0.00000000000E+00 -0.32859592711E+02  0.32884125853E+02  0.12700000000E+01 0.  1.
         25    2    1    2    0    0  0.00000000000E+00  0.00000000000E+00  0.85953839915E+02  0.15170434582E+03  0.12500458369E+03 0.  0.
    9000005    1    3    3    0    0 -0.12507590167E+02  0.27994017771E+02 -0.23110080808E+02  0.38408080891E+02  0.10000000000E+01 0.  0.
    9000005    1    3    3    0    0  0.12507590167E+02 -0.27994017771E+02  0.10906392072E+03  0.11329626493E+03  0.10000000000E+01 0.  0.
<mgrwt>
<rscale>  0 0.12500458E+03</rscale>
<asrwt>0</asrwt>
<pdfrwt beam="1">  1        4 0.29707273E-01 0.12500458E+03</pdfrwt>
<pdfrwt beam="2">  1       -4 0.82188133E-02 0.12500458E+03</pdfrwt>
<totfact> 0.18453326E+03</totfact>
</mgrwt>
</event>
<event>
 5    1  0.1466870E-002  0.1250007E+03  0.7818608E-02  0.1235068E+00
          4   -1    0    0  501    0  0.00000000000E+00  0.00000000000E+00  0.38483088957E+01  0.40524537452E+01  0.12700000000E+01 0.  1.
         -4   -1    0    0    0  501 -0.00000000000E+00 -0.00000000000E+00 -0.98863566267E+03  0.98863647839E+03  0.12700000000E+01 0.  1.
         25    2    1    2    0    0  0.00000000000E+00  0.00000000000E+00 -0.98478735377E+03  0.99268893214E+03  0.12500073532E+03 0.  0.
    9000005    1    3    3    0    0 -0.76044923462E+01  0.19713102542E+02 -0.25339584278E+02  0.33008017921E+02  0.10000000000E+01 0.  0.
    9000005    1    3    3    0    0  0.76044923462E+01 -0.19713102542E+02 -0.95944776950E+03  0.95968091421E+03  0.10000000000E+01 0.  0.
<mgrwt>
<rscale>  0 0.12500074E+03</rscale>
<asrwt>0</asrwt>
<pdfrwt beam="1">  1        4 0.98770068E-03 0.12500074E+03</pdfrwt>
<pdfrwt beam="2">  1       -4 0.24718369E+00 0.12500074E+03</pdfrwt>
<totfact> 0.37603342E+02</totfact>
</mgrwt>
</event>
<event>
 5    1  0.1466870E-002  0.1249939E+03  0.7818608E-02  0.1235079E+00
         -4   -1    0    0    0  501 -0.00000000000E+00  0.00000000000E+00  0.20483599088E+03  0.20483992789E+03  0.12700000000E+01 0.  1.
          4   -1    0    0  501    0  0.00000000000E+00 -0.00000000000E+00 -0.19042987435E+02  0.19085289373E+02  0.12700000000E+01 0.  1.
         25    2    1    2    0    0  0.00000000000E+00  0.00000000000E+00  0.18579300344E+03  0.22392521727E+03  0.12499385104E+03 0.  0.
    9000005    1    3    3    0    0 -0.24210511278E+02 -0.57535206983E+02  0.98093922526E+02  0.11627496091E+03  0.10000000000E+01 0.  0.
    9000005    1    3    3    0    0  0.24210511278E+02  0.57535206983E+02  0.87699080917E+02  0.10765025635E+03  0.10000000000E+01 0.  0.
<mgrwt>
<rscale>  0 0.12499385E+03</rscale>
<asrwt>0</asrwt>
<pdfrwt beam="2">  1        4 0.47665269E-02 0.12499385E+03</pdfrwt>
<pdfrwt beam="1">  1       -4 0.51214776E-01 0.12499385E+03</pdfrwt>
<totfact> 0.15409019E+03</totfact>
</mgrwt>
</event>
<event>
 5    1  0.1466870E-002  0.1250024E+03  0.7818608E-02  0.1235066E+00
          4   -1    0    0  501    0  0.00000000000E+00  0.00000000000E+00  0.93477663335E+02  0.93486290132E+02  0.12700000000E+01 0. -1.
         -4   -1    0    0    0  501 -0.00000000000E+00 -0.00000000000E+00 -0.41769426513E+02  0.41788729237E+02  0.12700000000E+01 0. -1.
         25    2    1    2    0    0  0.00000000000E+00  0.00000000000E+00  0.51708236822E+02  0.13527501937E+03  0.12500235642E+03 0.  0.
    9000005    1    3    3    0    0  0.19738985802E+02  0.13860967998E+02  0.88242914886E+02  0.91485332277E+02  0.10000000000E+01 0.  0.
    9000005    1    3    3    0    0 -0.19738985802E+02 -0.13860967998E+02 -0.36534678064E+02  0.43789687091E+02  0.10000000000E+01 0.  0.
<mgrwt>
<rscale>  0 0.12500236E+03</rscale>
<asrwt>0</asrwt>
<pdfrwt beam="1">  1        4 0.23372907E-01 0.12500236E+03</pdfrwt>
<pdfrwt beam="2">  1       -4 0.10445848E-01 0.12500236E+03</pdfrwt>
<totfact> 0.19283681E+03</totfact>
</mgrwt>
</event>
<event>
 5    1  0.1466870E-002  0.1249975E+03  0.7818608E-02  0.1235073E+00
         -4   -1    0    0    0  501 -0.00000000000E+00  0.00000000000E+00  0.48231426875E+03  0.48231594079E+03  0.12700000000E+01 0. -1.
          4   -1    0    0  501    0  0.00000000000E+00 -0.00000000000E+00 -0.80471583758E+01  0.81467575099E+01  0.12700000000E+01 0. -1.
         25    2    1    2    0    0  0.00000000000E+00  0.00000000000E+00  0.47426711038E+03  0.49046269830E+03  0.12499746574E+03 0.  0.
    9000005    1    3    3    0    0  0.95533176407E+01  0.44550747853E+02  0.40494375222E+03  0.40750027911E+03  0.10000000000E+01 0.  0.
    9000005    1    3    3    0    0 -0.95533176407E+01 -0.44550747853E+02  0.69323358157E+02  0.82962419193E+02  0.10000000000E+01 0.  0.
<mgrwt>
<rscale>  0 0.12499747E+03</rscale>
<asrwt>0</asrwt>
<pdfrwt beam="2">  1        4 0.20244485E-02 0.12499747E+03</pdfrwt>
<pdfrwt beam="1">  1       -4 0.12059122E+00 0.12499747E+03</pdfrwt>
<totfact> 0.89148548E+02</totfact>
</mgrwt>
</event>
<event>
 5    1  0.1466870E-002  0.1250012E+03  0.7818608E-02  0.1235067E+00
         -4   -1    0    0    0  501 -0.00000000000E+00  0.00000000000E+00  0.54517673614E+02  0.54532464058E+02  0.12700000000E+01 0.  1.
          4   -1    0    0  501    0  0.00000000000E+00 -0.00000000000E+00 -0.71622365541E+02  0.71633624407E+02  0.12700000000E+01 0.  1.
         25    2    1    2    0    0  0.00000000000E+00  0.00000000000E+00 -0.17104691927E+02  0.12616608847E+03  0.12500124557E+03 0.  0.
    9000005    1    3    3    0    0  0.45035079711E+02 -0.41591587450E+02 -0.20802551536E+02  0.64743839102E+02  0.10000000000E+01 0.  0.
    9000005    1    3    3    0    0 -0.45035079711E+02  0.41591587450E+02  0.36978596086E+01  0.61422249364E+02  0.10000000000E+01 0.  0.
<mgrwt>
<rscale>  0 0.12500125E+03</rscale>
<asrwt>0</asrwt>
<pdfrwt beam="2">  1        4 0.17908847E-01 0.12500125E+03</pdfrwt>
<pdfrwt beam="1">  1       -4 0.13632675E-01 0.12500125E+03</pdfrwt>
<totfact> 0.19771371E+03</totfact>
</mgrwt>
</event>
<event>
 5    1  0.1466870E-002  0.1250003E+03  0.7818608E-02  0.1235069E+00
          4   -1    0    0  501    0  0.00000000000E+00  0.00000000000E+00  0.22507037123E+02  0.22542839663E+02  0.12700000000E+01 0.  1.
         -4   -1    0    0    0  501 -0.00000000000E+00 -0.00000000000E+00 -0.17338147016E+03  0.17338612140E+03  0.12700000000E+01 0.  1.
         25    2    1    2    0    0  0.00000000000E+00  0.00000000000E+00 -0.15087443304E+03  0.19592896107E+03  0.12500025296E+03 0.  0.
    9000005    1    3    3    0    0 -0.30136194415E+01  0.24268123872E+02  0.14703443920E+02  0.28551970186E+02  0.10000000000E+01 0.  0.
    9000005    1    3    3    0    0  0.30136194415E+01 -0.24268123872E+02 -0.16557787696E+03  0.16737699088E+03  0.10000000000E+01 0.  0.
<mgrwt>
<rscale>  0 0.12500025E+03</rscale>
<asrwt>0</asrwt>
<pdfrwt beam="1">  1        4 0.56318165E-02 0.12500025E+03</pdfrwt>
<pdfrwt beam="2">  1       -4 0.43350420E-01 0.12500025E+03</pdfrwt>
<totfact> 0.16486264E+03</totfact>
</mgrwt>
</event>
<event>
 5    1  0.1466870E-002  0.1250018E+03  0.7818608E-02  0.1235066E+00
          4   -1    0    0  501    0  0.00000000000E+00  0.00000000000E+00  0.27024174592E+02  0.27053999933E+02  0.12700000000E+01 0. -1.
         -4   -1    0    0    0  501 -0.00000000000E+00 -0.00000000000E+00 -0.14443829896E+03  0.14444388220E+03  0.12700000000E+01 0. -1.
         25    2    1    2    0    0  0.00000000000E+00  0.00000000000E+00 -0.11741412436E+03  0.17149788213E+03  0.12500178789E+03 0.  0.
    9000005    1    3    3    0    0  0.34251556508E+02  0.31901477762E+02 -0.11551510201E+03  0.12464193595E+03  0.10000000000E+01 0.  0.
    9000005    1    3    3    0    0 -0.34251556508E+02 -0.31901477762E+02 -0.18990223565E+01  0.46855946181E+02  0.10000000000E+01 0.  0.
<mgrwt>
<rscale>  0 0.12500179E+03</rscale>
<asrwt>0</asrwt>
<pdfrwt beam="1">  1        4 0.67604701E-02 0.12500179E+03</pdfrwt>
<pdfrwt beam="2">  1       -4 0.36113999E-01 0.12500179E+03</pdfrwt>
<totfact> 0.17528970E+03</totfact>
</mgrwt>
</event>
<event>
 5    1  0.1466870E-002  0.1250008E+03  0.7818608E-02  0.1235068E+00
         -4   -1    0    0    0  501 -0.00000000000E+00  0.00000000000E+00  0.15696208140E+02  0.15747502976E+02  0.12700000000E+01 0. -1.
          4   -1    0    0  501    0  0.00000000000E+00 -0.00000000000E+00 -0.24841014295E+03  0.24841338938E+03  0.12700000000E+01 0. -1.
         25    2    1    2    0    0  0.00000000000E+00  0.00000000000E+00 -0.23271393481E+03  0.26416089235E+03  0.12500080637E+03 0.  0.
    9000005    1    3    3    0    0  0.56261822848E+02  0.48430251704E+01 -0.17292218982E+03  0.18191187794E+03  0.10000000000E+01 0.  0.
    9000005    1    3    3    0    0 -0.56261822848E+02 -0.48430251704E+01 -0.59791744995E+02  0.82249014417E+02  0.10000000000E+01 0.  0.
<mgrwt>
<rscale>  0 0.12500081E+03</rscale>
<asrwt>0</asrwt>
<pdfrwt beam="2">  1        4 0.62109341E-01 0.12500081E+03</pdfrwt>
<pdfrwt beam="1">  1       -4 0.39308705E-02 0.12500081E+03</pdfrwt>
<totfact> 0.14038249E+03</totfact>
</mgrwt>
</event>
<event>
 5    1  0.1466870E-002  0.1250007E+03  0.7818608E-02  0.1235068E+00
          4   -1    0    0  501    0  0.00000000000E+00  0.00000000000E+00  0.15596911172E+03  0.15597428221E+03  0.12700000000E+01 0. -1.
         -4   -1    0    0    0  501 -0.00000000000E+00 -0.00000000000E+00 -0.25023631201E+02  0.25055838012E+02  0.12700000000E+01 0. -1.
         25    2    1    2    0    0  0.00000000000E+00  0.00000000000E+00  0.13094548052E+03  0.18103012022E+03  0.12500074223E+03 0.  0.
    9000005    1    3    3    0    0  0.95845982604E+01  0.43106969237E+02  0.12951050765E+03  0.13683583928E+03  0.10000000000E+01 0.  0.
    9000005    1    3    3    0    0 -0.95845982604E+01 -0.43106969237E+02  0.14349728716E+01  0.44194280940E+02  0.10000000000E+01 0.  0.
<mgrwt>
<rscale>  0 0.12500074E+03</rscale>
<asrwt>0</asrwt>
<pdfrwt beam="1">  1        4 0.38996949E-01 0.12500074E+03</pdfrwt>
<pdfrwt beam="2">  1       -4 0.62605801E-02 0.12500074E+03</pdfrwt>
<totfact> 0.17110425E+03</totfact>
</mgrwt>
</event>
<event>
 5    1  0.1466870E-002  0.1249983E+03  0.7818608E-02  0.1235072E+00
          4   -1    0    0  501    0  0.00000000000E+00  0.00000000000E+00  0.46558029100E+03  0.46558202314E+03  0.12700000000E+01 0. -1.
         -4   -1    0    0    0  501 -0.00000000000E+00 -0.00000000000E+00 -0.83400195511E+01  0.84361618116E+01  0.12700000000E+01 0. -1.
         25    2    1    2    0    0  0.00000000000E+00  0.00000000000E+00  0.45724027145E+03  0.47401818495E+03  0.12499829530E+03 0.  0.
    9000005    1    3    3    0    0 -0.37241802454E+02  0.15702903052E+01  0.41882541382E+03  0.42048203876E+03  0.10000000000E+01 0.  0.
    9000005    1    3    3    0    0  0.37241802454E+02 -0.15702903052E+01  0.38414857633E+02  0.53536146188E+02  0.10000000000E+01 0.  0.
<mgrwt>
<rscale>  0 0.12499830E+03</rscale>
<asrwt>0</asrwt>
<pdfrwt beam="1">  1        4 0.11640729E+00 0.12499830E+03</pdfrwt>
<pdfrwt beam="2">  1       -4 0.20972394E-02 0.12499830E+03</pdfrwt>
<totfact> 0.91862444E+02</totfact>
</mgrwt>
</event>
<event>
 5    1  0.1466870E-002  0.1249914E+03  0.7818608E-02  0.1235083E+00
         -4   -1    0    0    0  501 -0.00000000000E+00  0.00000000000E+00  0.10524064239E+03  0.10524830503E+03  0.12700000000E+01 0.  1.
          4   -1    0    0  501    0  0.00000000000E+00 -0.00000000000E+00 -0.37092313044E+02  0.37114048377E+02  0.12700000000E+01 0.  1.
         25    2    1    2    0    0  0.00000000000E+00  0.00000000000E+00  0.68148329347E+02  0.14236235340E+03  0.12499137920E+03 0.  0.
    9000005    1    3    3    0    0  0.35291826499E+02 -0.37635086689E+02  0.74226929033E+02  0.90402155734E+02  0.10000000000E+01 0.  0.
    9000005    1    3    3    0    0 -0.35291826499E+02  0.37635086689E+02 -0.60785996855E+01  0.51960197669E+02  0.10000000000E+01 0.  0.
<mgrwt>
<rscale>  0 0.12499138E+03</rscale>
<asrwt>0</asrwt>
<pdfrwt beam="2">  1        4 0.92767531E-02 0.12499138E+03</pdfrwt>
<pdfrwt beam="1">  1       -4 0.26313835E-01 0.12499138E+03</pdfrwt>
<totfact> 0.18923936E+03</totfact>
</mgrwt>
</event>
<event>
 5    1  0.1466870E-002  0.1249945E+03  0.7818608E-02  0.1235078E+00
         -4   -1    0    0    0  501 -0.00000000000E+00  0.00000000000E+00  0.95987137611E+01  0.96823657165E+01  0.12700000000E+01 0.  1.
          4   -1    0    0  501    0  0.00000000000E+00 -0.00000000000E+00 -0.40506977617E+03  0.40507176705E+03  0.12700000000E+01 0.  1.
         25    2    1    2    0    0  0.00000000000E+00  0.00000000000E+00 -0.39547106241E+03  0.41475413277E+03  0.12499451768E+03 0.  0.
    9000005    1    3    3    0    0  0.17711454413E+02 -0.19023439195E+02 -0.91730291182E+01  0.27581358187E+02  0.10000000000E+01 0.  0.
    9000005    1    3    3    0    0 -0.17711454413E+02  0.19023439195E+02 -0.38629803329E+03  0.38717277458E+03  0.10000000000E+01 0.  0.
<mgrwt>
<rscale>  0 0.12499452E+03</rscale>
<asrwt>0</asrwt>
<pdfrwt beam="2">  1        4 0.10127809E+00 0.12499452E+03</pdfrwt>
<pdfrwt beam="1">  1       -4 0.24103852E-02 0.12499452E+03</pdfrwt>
<totfact> 0.10271532E+03</totfact>
</mgrwt>
</event>
<event>
 5    1  0.1466870E-002  0.1250008E+03  0.7818608E-02  0.1235068E+00
         -4   -1    0    0    0  501 -0.00000000000E+00  0.00000000000E+00  0.52864766545E+03  0.52864919094E+03  0.12700000000E+01 0.  1.
          4   -1    0    0  501    0  0.00000000000E+00 -0.00000000000E+00 -0.73331092529E+01  0.74422705752E+01  0.12700000000E+01 0.  1.
         25    2    1    2    0    0  0.00000000000E+00  0.00000000000E+00  0.52131455619E+03  0.53609146152E+03  0.12500075444E+03 0.  0.
    9000005    1    3    3    0    0 -0.13198916884E+02 -0.28326292923E+02  0.49275143623E+03  0.49374241076E+03  0.10000000000E+01 0.  0.
    9000005    1    3    3    0    0  0.13198916884E+02  0.28326292923E+02  0.28563119962E+02  0.42349050752E+02  0.10000000000E+01 0.  0.
<mgrwt>
<rscale>  0 0.12500075E+03</rscale>
<asrwt>0</asrwt>
<pdfrwt beam="2">  1        4 0.18471132E-02 0.12500075E+03</pdfrwt>
<pdfrwt beam="1">  1       -4 0.13217575E+00 0.12500075E+03</pdfrwt>
<totfact> 0.82137330E+02</totfact>
</mgrwt>
</event>
<event>
 5    1  0.1466870E-002  0.1249977E+03  0.7818608E-02  0.1235073E+00
          4   -1    0    0  501    0  0.00000000000E+00  0.00000000000E+00  0.16881046585E+03  0.16881524303E+03  0.12700000000E+01 0. -1.
         -4   -1    0    0    0  501 -0.00000000000E+00 -0.00000000000E+00 -0.23116457735E+02  0.23151317850E+02  0.12700000000E+01 0. -1.
         25    2    1    2    0    0  0.00000000000E+00  0.00000000000E+00  0.14569400811E+03  0.19196656088E+03  0.12499766597E+03 0.  0.
    9000005    1    3    3    0    0  0.25335026884E+02 -0.53522743518E+02  0.42187254075E+02  0.72713905598E+02  0.10000000000E+01 0.  0.
    9000005    1    3    3    0    0 -0.25335026884E+02  0.53522743518E+02  0.10350675404E+03  0.11925265528E+03  0.10000000000E+01 0.  0.
<mgrwt>
<rscale>  0 0.12499767E+03</rscale>
<asrwt>0</asrwt>
<pdfrwt beam="1">  1        4 0.42207571E-01 0.12499767E+03</pdfrwt>
<pdfrwt beam="2">  1       -4 0.57840691E-02 0.12499767E+03</pdfrwt>
<totfact> 0.16649747E+03</totfact>
</mgrwt>
</event>
<event>
 5    1  0.1466870E-002  0.1249996E+03  0.7818608E-02  0.1235070E+00
          4   -1    0    0  501    0  0.00000000000E+00  0.00000000000E+00  0.15055430422E+02  0.15108900860E+02  0.12700000000E+01 0.  1.
         -4   -1    0    0    0  501 -0.00000000000E+00 -0.00000000000E+00 -0.25894131468E+03  0.25894442908E+03  0.12700000000E+01 0.  1.
         25    2    1    2    0    0  0.00000000000E+00  0.00000000000E+00 -0.24388588426E+03  0.27405332994E+03  0.12499961243E+03 0.  0.
    9000005    1    3    3    0    0  0.11829362632E+01  0.58273665642E+02 -0.17135819015E+03  0.18100234467E+03  0.10000000000E+01 0.  0.
    9000005    1    3    3    0    0 -0.11829362632E+01 -0.58273665642E+02 -0.72527694113E+02  0.93050985266E+02  0.10000000000E+01 0.  0.
<mgrwt>
<rscale>  0 0.12499961E+03</rscale>
<asrwt>0</asrwt>
<pdfrwt beam="1">  1        4 0.37709315E-02 0.12499961E+03</pdfrwt>
<pdfrwt beam="2">  1       -4 0.64742387E-01 0.12499961E+03</pdfrwt>
<totfact> 0.13730864E+03</totfact>
</mgrwt>
</event>
<event>
 5    1  0.1466870E-002  0.1250008E+03  0.7818608E-02  0.1235068E+00
         -4   -1    0    0    0  501 -0.00000000000E+00  0.00000000000E+00  0.18802769137E+03  0.18803198032E+03  0.12700000000E+01 0. -1.
          4   -1    0    0  501    0  0.00000000000E+00 -0.00000000000E+00 -0.20751175886E+02  0.20790002421E+02  0.12700000000E+01 0. -1.
         25    2    1    2    0    0  0.00000000000E+00  0.00000000000E+00  0.16727651549E+03  0.20882198274E+03  0.12500075137E+03 0.  0.
    9000005    1    3    3    0    0 -0.58768026132E+02  0.18858551782E+02  0.67272587171E+02  0.91301297118E+02  0.10000000000E+01 0.  0.
    9000005    1    3    3    0    0  0.58768026132E+02 -0.18858551782E+02  0.10000392832E+03  0.11752068562E+03  0.10000000000E+01 0.  0.
<mgrwt>
<rscale>  0 0.12500075E+03</rscale>
<asrwt>0</asrwt>
<pdfrwt beam="2">  1        4 0.51931835E-02 0.12500075E+03</pdfrwt>
<pdfrwt beam="1">  1       -4 0.47012311E-01 0.12500075E+03</pdfrwt>
<totfact> 0.15974509E+03</totfact>
</mgrwt>
</event>
<event>
 5    1  0.1466870E-002  0.1250064E+03  0.7818608E-02  0.1235059E+00
          4   -1    0    0  501    0  0.00000000000E+00  0.00000000000E+00  0.24395563171E+03  0.24395893741E+03  0.12700000000E+01 0.  1.
         -4   -1    0    0    0  501 -0.00000000000E+00 -0.00000000000E+00 -0.15985168600E+02  0.16035539129E+02  0.12700000000E+01 0.  1.
         25    2    1    2    0    0  0.00000000000E+00  0.00000000000E+00  0.22797046311E+03  0.25999447654E+03  0.12500638296E+03 0.  0.
    9000005    1    3    3    0    0 -0.45007187996E+02  0.40297521469E+02  0.80700376221E+02  0.10081214178E+03  0.10000000000E+01 0.  0.
    9000005    1    3    3    0    0  0.45007187996E+02 -0.40297521469E+02  0.14727008689E+03  0.15918233477E+03  0.10000000000E+01 0.  0.
<mgrwt>
<rscale>  0 0.12500638E+03</rscale>
<asrwt>0</asrwt>
<pdfrwt beam="1">  1        4 0.60995619E-01 0.12500638E+03</pdfrwt>
<pdfrwt beam="2">  1       -4 0.40030016E-02 0.12500638E+03</pdfrwt>
<totfact> 0.14169250E+03</totfact>
</mgrwt>
</event>
<event>
 5    1  0.1466870E-002  0.1249775E+03  0.7818608E-02  0.1235104E+00
          4   -1    0    0  501    0  0.00000000000E+00  0.00000000000E+00  0.45480048145E+02  0.45497776641E+02  0.12700000000E+01 0.  1.
         -4   -1    0    0    0  501 -0.00000000000E+00 -0.00000000000E+00 -0.85819286912E+02  0.85828683469E+02  0.12700000000E+01 0.  1.
         25    2    1    2    0    0  0.00000000000E+00  0.00000000000E+00 -0.40339238767E+02  0.13132646011E+03  0.12497753774E+03 0.  0.
    9000005    1    3    3    0    0  0.52191750607E+02 -0.33237050668E+02 -0.29279875959E+02  0.68461606063E+02  0.10000000000E+01 0.  0.
    9000005    1    3    3    0    0 -0.52191750607E+02  0.33237050668E+02 -0.11059362808E+02  0.62864854047E+02  0.10000000000E+01 0.  0.
<mgrwt>
<rscale>  0 0.12497754E+03</rscale>
<asrwt>0</asrwt>
<pdfrwt beam="1">  1        4 0.11373403E-01 0.12497754E+03</pdfrwt>
<pdfrwt beam="2">  1       -4 0.21458212E-01 0.12497754E+03</pdfrwt>
<totfact> 0.19503559E+03</totfact>
</mgrwt>
</event>
<event>
 5    1  0.1466870E-002  0.1249976E+03  0.7818608E-02  0.1235073E+00
         -4   -1    0    0    0  501 -0.00000000000E+00  0.00000000000E+00  0.39097993440E+03  0.39098199703E+03  0.12700000000E+01 0.  1.
          4   -1    0    0  501    0  0.00000000000E+00 -0.00000000000E+00 -0.99480721231E+01  0.10028810446E+02  0.12700000000E+01 0.  1.
         25    2    1    2    0    0  0.00000000000E+00  0.00000000000E+00  0.38103186228E+03  0.40101080748E+03  0.12499755055E+03 0.  0.
    9000005    1    3    3    0    0 -0.41169543069E+02  0.13590069128E+02  0.46132257223E+02  0.63315135725E+02  0.10000000000E+01 0.  0.
    9000005    1    3    3    0    0  0.41169543069E+02 -0.13590069128E+02  0.33489960505E+03  0.33769567175E+03  0.10000000000E+01 0.  0.
<mgrwt>
<rscale>  0 0.12499755E+03</rscale>
<asrwt>0</asrwt>
<pdfrwt beam="2">  1        4 0.24973680E-02 0.12499755E+03</pdfrwt>
<pdfrwt beam="1">  1       -4 0.97755338E-01 0.12499755E+03</pdfrwt>
<totfact> 0.10548996E+03</totfact>
</mgrwt>
</event>
<event>
 5    1  0.1466870E-002  0.1249990E+03  0.7818608E-02  0.1235071E+00
          4   -1    0    0  501    0  0.00000000000E+00  0.00000000000E+00  0.52435196863E+02  0.52450574545E+02  0.12700000000E+01 0.  1.
         -4   -1    0    0    0  501 -0.00000000000E+00 -0.00000000000E+00 -0.74463855178E+02  0.74474684477E+02  0.12700000000E+01 0.  1.
         25    2    1    2    0    0  0.00000000000E+00  0.00000000000E+00 -0.22028658315E+02  0.12692525902E+03  0.12499903836E+03 0.  0.
    9000005    1    3    3    0    0  0.13656711414E+02 -0.60930474439E+02 -0.84938585434E+01  0.63025186354E+02  0.10000000000E+01 0.  0.
    9000005    1    3    3    0    0 -0.13656711414E+02  0.60930474439E+02 -0.13534799771E+02  0.63900072667E+02  0.10000000000E+01 0.  0.
<mgrwt>
<rscale>  0 0.12499904E+03</rscale>
<asrwt>0</asrwt>
<pdfrwt beam="1">  1        4 0.13112075E-01 0.12499904E+03</pdfrwt>
<pdfrwt beam="2">  1       -4 0.18619240E-01 0.12499904E+03</pdfrwt>
<totfact> 0.19731446E+03</totfact>
</mgrwt>
</event>
<event>
 5    1  0.1466870E-002  0.1250013E+03  0.7818608E-02  0.1235067E+00
          4   -1    0    0  501    0  0.00000000000E+00  0.00000000000E+00  0.33346127082E+03  0.33346368924E+03  0.12700000000E+01 0.  1.
         -4   -1    0    0    0  501 -0.00000000000E+00 -0.00000000000E+00 -0.11677607662E+02  0.11746464179E+02  0.12700000000E+01 0.  1.
         25    2    1    2    0    0  0.00000000000E+00  0.00000000000E+00  0.32178366316E+03  0.34521015342E+03  0.12500129657E+03 0.  0.
    9000005    1    3    3    0    0  0.29520436853E+02 -0.50520774453E+02  0.22149272137E+03  0.22909349721E+03  0.10000000000E+01 0.  0.
    9000005    1    3    3    0    0 -0.29520436853E+02  0.50520774453E+02  0.10029094179E+03  0.11611665620E+03  0.10000000000E+01 0.  0.
<mgrwt>
<rscale>  0 0.12500130E+03</rscale>
<asrwt>0</asrwt>
<pdfrwt beam="1">  1        4 0.83374224E-01 0.12500130E+03</pdfrwt>
<pdfrwt beam="2">  1       -4 0.29283114E-02 0.12500130E+03</pdfrwt>
<totfact> 0.11792042E+03</totfact>
</mgrwt>
</event>
<event>
 5    1  0.1466870E-002  0.1250010E+03  0.7818608E-02  0.1235068E+00
          4   -1    0    0  501    0  0.00000000000E+00  0.00000000000E+00  0.66957437984E+03  0.66957558427E+03  0.12700000000E+01 0. -1.
         -4   -1    0    0    0  501 -0.00000000000E+00 -0.00000000000E+00 -0.57636875671E+01  0.59019483538E+01  0.12700000000E+01 0. -1.
         25    2    1    2    0    0  0.00000000000E+00  0.00000000000E+00  0.66381069228E+03  0.67547753262E+03  0.12500104756E+03 0.  0.
    9000005    1    3    3    0    0 -0.35331266626E+02  0.37733248338E+02  0.52167089312E+03  0.52422668490E+03  0.10000000000E+01 0.  0.
    9000005    1    3    3    0    0  0.35331266626E+02 -0.37733248338E+02  0.14213979915E+03  0.15125084772E+03  0.10000000000E+01 0.  0.
<mgrwt>
<rscale>  0 0.12500105E+03</rscale>
<asrwt>0</asrwt>
<pdfrwt beam="1">  1        4 0.16741104E+00 0.12500105E+03</pdfrwt>
<pdfrwt beam="2">  1       -4 0.14583549E-02 0.12500105E+03</pdfrwt>
<totfact> 0.64668044E+02</totfact>
</mgrwt>
</event>
<event>
 5    1  0.1466870E-002  0.1249990E+03  0.7818608E-02  0.1235071E+00
          4   -1    0    0  501    0  0.00000000000E+00  0.00000000000E+00  0.60243424928E+03  0.60243558793E+03  0.12700000000E+01 0. -1.
         -4   -1    0    0    0  501 -0.00000000000E+00 -0.00000000000E+00 -0.64204643809E+01  0.65448653818E+01  0.12700000000E+01 0. -1.
         25    2    1    2    0    0  0.00000000000E+00  0.00000000000E+00  0.59601378490E+03  0.60898045331E+03  0.12499904290E+03 0.  0.
    9000005    1    3    3    0    0  0.47810691747E+01  0.47996659701E+02  0.49157771580E+03  0.49393945848E+03  0.10000000000E+01 0.  0.
    9000005    1    3    3    0    0 -0.47810691747E+01 -0.47996659701E+02  0.10443606910E+03  0.11504099484E+03  0.10000000000E+01 0.  0.
<mgrwt>
<rscale>  0 0.12499904E+03</rscale>
<asrwt>0</asrwt>
<pdfrwt beam="1">  1        4 0.15062426E+00 0.12499904E+03</pdfrwt>
<pdfrwt beam="2">  1       -4 0.16208338E-02 0.12499904E+03</pdfrwt>
<totfact> 0.72385967E+02</totfact>
</mgrwt>
</event>
<event>
 5    1  0.1466870E-002  0.1250016E+03  0.7818608E-02  0.1235067E+00
          4   -1    0    0  501    0  0.00000000000E+00  0.00000000000E+00  0.27423946239E+02  0.27453337271E+02  0.12700000000E+01 0.  1.
         -4   -1    0    0    0  501 -0.00000000000E+00 -0.00000000000E+00 -0.14233461466E+03  0.14234028042E+03  0.12700000000E+01 0.  1.
         25    2    1    2    0    0  0.00000000000E+00  0.00000000000E+00 -0.11491066842E+03  0.16979361769E+03  0.12500164356E+03 0.  0.
    9000005    1    3    3    0    0 -0.15819740375E+02 -0.49211453029E+02 -0.97525445866E+01  0.52613148744E+02  0.10000000000E+01 0.  0.
    9000005    1    3    3    0    0  0.15819740375E+02  0.49211453029E+02 -0.10515812384E+03  0.11718046895E+03  0.10000000000E+01 0.  0.
<mgrwt>
<rscale>  0 0.12500164E+03</rscale>
<asrwt>0</asrwt>
<pdfrwt beam="1">  1        4 0.68603690E-02 0.12500164E+03</pdfrwt>
<pdfrwt beam="2">  1       -4 0.35588034E-01 0.12500164E+03</pdfrwt>
<totfact> 0.17605688E+03</totfact>
</mgrwt>
</event>
<event>
 5    1  0.1466870E-002  0.1250086E+03  0.7818608E-02  0.1235056E+00
          4   -1    0    0  501    0  0.00000000000E+00  0.00000000000E+00  0.16894232755E+02  0.16941900731E+02  0.12700000000E+01 0. -1.
         -4   -1    0    0    0  501 -0.00000000000E+00 -0.00000000000E+00 -0.23087472127E+03  0.23087821426E+03  0.12700000000E+01 0. -1.
         25    2    1    2    0    0  0.00000000000E+00  0.00000000000E+00 -0.21398048851E+03  0.24782011499E+03  0.12500863942E+03 0.  0.
    9000005    1    3    3    0    0  0.55317957651E+01 -0.22329735662E+02  0.82049976499E+01  0.24444628153E+02  0.10000000000E+01 0.  0.
    9000005    1    3    3    0    0 -0.55317957651E+01  0.22329735662E+02 -0.22218548616E+03  0.22337548684E+03  0.10000000000E+01 0.  0.
<mgrwt>
<rscale>  0 0.12500864E+03</rscale>
<asrwt>0</asrwt>
<pdfrwt beam="1">  1        4 0.42299540E-02 0.12500864E+03</pdfrwt>
<pdfrwt beam="2">  1       -4 0.57725066E-01 0.12500864E+03</pdfrwt>
<totfact> 0.14567890E+03</totfact>
</mgrwt>
</event>
<event>
 5    1  0.1466870E-002  0.1249964E+03  0.7818608E-02  0.1235075E+00
          4   -1    0    0  501    0  0.00000000000E+00  0.00000000000E+00  0.17572891820E+03  0.17573350731E+03  0.12700000000E+01 0. -1.
         -4   -1    0    0    0  501 -0.00000000000E+00 -0.00000000000E+00 -0.22204539204E+02  0.22240828700E+02  0.12700000000E+01 0. -1.
         25    2    1    2    0    0  0.00000000000E+00  0.00000000000E+00  0.15352437899E+03  0.19797433601E+03  0.12499641104E+03 0.  0.
    9000005    1    3    3    0    0 -0.57659291661E+02  0.37714550235E+01  0.39074517122E+02  0.69761276337E+02  0.10000000000E+01 0.  0.
    9000005    1    3    3    0    0  0.57659291661E+02 -0.37714550235E+01  0.11444986187E+03  0.12821305967E+03  0.10000000000E+01 0.  0.
<mgrwt>
<rscale>  0 0.12499641E+03</rscale>
<asrwt>0</asrwt>
<pdfrwt beam="1">  1        4 0.43937338E-01 0.12499641E+03</pdfrwt>
<pdfrwt beam="2">  1       -4 0.55562448E-02 0.12499641E+03</pdfrwt>
<totfact> 0.16404836E+03</totfact>
</mgrwt>
</event>
<event>
 5    1  0.1466870E-002  0.1250016E+03  0.7818608E-02  0.1235067E+00
         -4   -1    0    0    0  501 -0.00000000000E+00  0.00000000000E+00  0.24857656534E+02  0.24890078110E+02  0.12700000000E+01 0.  1.
          4   -1    0    0  501    0  0.00000000000E+00 -0.00000000000E+00 -0.15701123428E+03  0.15701637045E+03  0.12700000000E+01 0.  1.
         25    2    1    2    0    0  0.00000000000E+00  0.00000000000E+00 -0.13215357775E+03  0.18190644856E+03  0.12500155166E+03 0.  0.
    9000005    1    3    3    0    0 -0.33140173573E+02  0.99485246587E+01 -0.14180631839E+03  0.14597012085E+03  0.10000000000E+01 0.  0.
    9000005    1    3    3    0    0  0.33140173573E+02 -0.99485246587E+01  0.96527406418E+01  0.35936327709E+02  0.10000000000E+01 0.  0.
<mgrwt>
<rscale>  0 0.12500155E+03</rscale>
<asrwt>0</asrwt>
<pdfrwt beam="2">  1        4 0.39257500E-01 0.12500155E+03</pdfrwt>
<pdfrwt beam="1">  1       -4 0.62191093E-02 0.12500155E+03</pdfrwt>
<totfact> 0.17072399E+03</totfact>
</mgrwt>
</event>
<event>
 5    1  0.1466870E-002  0.1250024E+03  0.7818608E-02  0.1235066E+00
         -4   -1    0    0    0  501 -0.00000000000E+00  0.00000000000E+00  0.58869171250E+02  0.58882868677E+02  0.12700000000E+01 0.  1.
          4   -1    0    0  501    0  0.00000000000E+00 -0.00000000000E+00 -0.66329765987E+02  0.66341923065E+02  0.12700000000E+01 0.  1.
         25    2    1    2    0    0  0.00000000000E+00  0.00000000000E+00 -0.74605947376E+01  0.12522479174E+03  0.12500235195E+03 0.  0.
    9000005    1    3    3    0    0  0.17483180870E+01  0.50219297523E+02  0.33489046767E+02  0.60394956024E+02  0.10000000000E+01 0.  0.
    9000005    1    3    3    0    0 -0.17483180870E+01 -0.50219297523E+02 -0.40949641504E+02  0.64829835717E+02  0.10000000000E+01 0.  0.
<mgrwt>
<rscale>  0 0.12500235E+03</rscale>
<asrwt>0</asrwt>
<pdfrwt beam="2">  1        4 0.16585673E-01 0.12500235E+03</pdfrwt>
<pdfrwt beam="1">  1       -4 0.14720525E-01 0.12500235E+03</pdfrwt>
<totfact> 0.19821778E+03</totfact>
</mgrwt>
</event>
<event>
 5    1  0.1466870E-002  0.1250008E+03  0.7818608E-02  0.1235068E+00
          4   -1    0    0  501    0  0.00000000000E+00  0.00000000000E+00  0.44589952070E+02  0.44608034317E+02  0.12700000000E+01 0. -1.
         -4   -1    0    0    0  501 -0.00000000000E+00 -0.00000000000E+00 -0.87564531324E+02  0.87573740619E+02  0.12700000000E+01 0. -1.
         25    2    1    2    0    0  0.00000000000E+00  0.00000000000E+00 -0.42974579254E+02  0.13218177494E+03  0.12500082865E+03 0.  0.
    9000005    1    3    3    0    0 -0.53319981870E+02 -0.27786139003E+02 -0.39501541189E+02  0.71947631953E+02  0.10000000000E+01 0.  0.
    9000005    1    3    3    0    0  0.53319981870E+02  0.27786139003E+02 -0.34730380652E+01  0.60234142982E+02  0.10000000000E+01 0.  0.
<mgrwt>
<rscale>  0 0.12500083E+03</rscale>
<asrwt>0</asrwt>
<pdfrwt beam="1">  1        4 0.11150900E-01 0.12500083E+03</pdfrwt>
<pdfrwt beam="2">  1       -4 0.21894544E-01 0.12500083E+03</pdfrwt>
<totfact> 0.19447417E+03</totfact>
</mgrwt>
</event>
<event>
 5    1  0.1466870E-002  0.1249971E+03  0.7818608E-02  0.1235074E+00
         -4   -1    0    0    0  501 -0.00000000000E+00  0.00000000000E+00  0.16812246005E+03  0.16812725678E+03  0.12700000000E+01 0.  1.
          4   -1    0    0  501    0  0.00000000000E+00 -0.00000000000E+00 -0.23210967539E+02  0.23245685924E+02  0.12700000000E+01 0.  1.
         25    2    1    2    0    0  0.00000000000E+00  0.00000000000E+00  0.14491149251E+03  0.19137294271E+03  0.12499705012E+03 0.  0.
    9000005    1    3    3    0    0 -0.29008071017E+02  0.18099264176E+02  0.15253867280E+03  0.15632689547E+03  0.10000000000E+01 0.  0.
    9000005    1    3    3    0    0  0.29008071017E+02 -0.18099264176E+02 -0.76271802877E+01  0.35046047238E+02  0.10000000000E+01 0.  0.
<mgrwt>
<rscale>  0 0.12499705E+03</rscale>
<asrwt>0</asrwt>
<pdfrwt beam="2">  1        4 0.58076814E-02 0.12499705E+03</pdfrwt>
<pdfrwt beam="1">  1       -4 0.42035553E-01 0.12499705E+03</pdfrwt>
<totfact> 0.16674550E+03</totfact>
</mgrwt>
</event>
<event>
 5    1  0.1466870E-002  0.1250027E+03  0.7818608E-02  0.1235065E+00
          4   -1    0    0  501    0  0.00000000000E+00  0.00000000000E+00  0.38142986307E+02  0.38164123263E+02  0.12700000000E+01 0.  1.
         -4   -1    0    0    0  501 -0.00000000000E+00 -0.00000000000E+00 -0.10236172619E+03  0.10236960432E+03  0.12700000000E+01 0.  1.
         25    2    1    2    0    0  0.00000000000E+00  0.00000000000E+00 -0.64218739880E+02  0.14053372758E+03  0.12500272811E+03 0.  0.
    9000005    1    3    3    0    0 -0.49806122874E+02 -0.24723522030E+02 -0.43377763101E-01  0.55613885846E+02  0.10000000000E+01 0.  0.
    9000005    1    3    3    0    0  0.49806122874E+02  0.24723522030E+02 -0.64175362117E+02  0.84919841734E+02  0.10000000000E+01 0.  0.
<mgrwt>
<rscale>  0 0.12500273E+03</rscale>
<asrwt>0</asrwt>
<pdfrwt beam="1">  1        4 0.95393737E-02 0.12500273E+03</pdfrwt>
<pdfrwt beam="2">  1       -4 0.25594058E-01 0.12500273E+03</pdfrwt>
<totfact> 0.19011862E+03</totfact>
</mgrwt>
</event>
<event>
 5    1  0.1466870E-002  0.1249983E+03  0.7818608E-02  0.1235072E+00
         -4   -1    0    0    0  501 -0.00000000000E+00  0.00000000000E+00  0.29661835463E+02  0.29689011149E+02  0.12700000000E+01 0. -1.
          4   -1    0    0  501    0  0.00000000000E+00 -0.00000000000E+00 -0.13159872726E+03  0.13160485521E+03  0.12700000000E+01 0. -1.
         25    2    1    2    0    0  0.00000000000E+00  0.00000000000E+00 -0.10193689179E+03  0.16129386636E+03  0.12499832566E+03 0.  0.
    9000005    1    3    3    0    0  0.57251177712E+02 -0.24900283957E+02 -0.54484282244E+02  0.82868923622E+02  0.10000000000E+01 0.  0.
    9000005    1    3    3    0    0 -0.57251177712E+02  0.24900283957E+02 -0.47452609549E+02  0.78424942739E+02  0.10000000000E+01 0.  0.
<mgrwt>
<rscale>  0 0.12499833E+03</rscale>
<asrwt>0</asrwt>
<pdfrwt beam="2">  1        4 0.32903843E-01 0.12499833E+03</pdfrwt>
<pdfrwt beam="1">  1       -4 0.74196222E-02 0.12499833E+03</pdfrwt>
<totfact> 0.17997733E+03</totfact>
</mgrwt>
</event>
<event>
 5    1  0.1466870E-002  0.1249965E+03  0.7818608E-02  0.1235075E+00
         -4   -1    0    0    0  501 -0.00000000000E+00  0.00000000000E+00  0.36474712277E+02  0.36496815418E+02  0.12700000000E+01 0. -1.
          4   -1    0    0  501    0  0.00000000000E+00 -0.00000000000E+00 -0.10703037850E+03  0.10703791301E+03  0.12700000000E+01 0. -1.
         25    2    1    2    0    0  0.00000000000E+00  0.00000000000E+00 -0.70555666226E+02  0.14353472843E+03  0.12499646487E+03 0.  0.
    9000005    1    3    3    0    0  0.53292407646E+02 -0.25065358171E+02 -0.59273841492E+02  0.83562797812E+02  0.10000000000E+01 0.  0.
    9000005    1    3    3    0    0 -0.53292407646E+02  0.25065358171E+02 -0.11281824734E+02  0.59971930620E+02  0.10000000000E+01 0.  0.
<mgrwt>
<rscale>  0 0.12499646E+03</rscale>
<asrwt>0</asrwt>
<pdfrwt beam="2">  1        4 0.26761299E-01 0.12499646E+03</pdfrwt>
<pdfrwt beam="1">  1       -4 0.91223830E-02 0.12499646E+03</pdfrwt>
<totfact> 0.18862501E+03</totfact>
</mgrwt>
</event>
<event>
 5    1  0.1466870E-002  0.1249988E+03  0.7818608E-02  0.1235071E+00
          4   -1    0    0  501    0  0.00000000000E+00  0.00000000000E+00  0.43886814162E+02  0.43905185995E+02  0.12700000000E+01 0.  1.
         -4   -1    0    0    0  501 -0.00000000000E+00 -0.00000000000E+00 -0.88964109350E+02  0.88973173780E+02  0.12700000000E+01 0.  1.
         25    2    1    2    0    0  0.00000000000E+00  0.00000000000E+00 -0.45077295188E+02  0.13287835978E+03  0.12499878381E+03 0.  0.
    9000005    1    3    3    0    0 -0.10914632150E+02 -0.57884446123E+02 -0.35614796813E+00  0.58914048743E+02  0.10000000000E+01 0.  0.
    9000005    1    3    3    0    0  0.10914632150E+02  0.57884446123E+02 -0.44721147220E+02  0.73964311033E+02  0.10000000000E+01 0.  0.
<mgrwt>
<rscale>  0 0.12499878E+03</rscale>
<asrwt>0</asrwt>
<pdfrwt beam="1">  1        4 0.10975133E-01 0.12499878E+03</pdfrwt>
<pdfrwt beam="2">  1       -4 0.22244457E-01 0.12499878E+03</pdfrwt>
<totfact> 0.19411403E+03</totfact>
</mgrwt>
</event>
<event>
 5    1  0.1466870E-002  0.1249953E+03  0.7818608E-02  0.1235077E+00
         -4   -1    0    0    0  501 -0.00000000000E+00  0.00000000000E+00  0.12467477193E+02  0.12531994556E+02  0.12700000000E+01 0.  1.
          4   -1    0    0  501    0  0.00000000000E+00 -0.00000000000E+00 -0.31241730657E+03  0.31241988789E+03  0.12700000000E+01 0.  1.
         25    2    1    2    0    0  0.00000000000E+00  0.00000000000E+00 -0.29994982938E+03  0.32495188244E+03  0.12499530294E+03 0.  0.
    9000005    1    3    3    0    0 -0.53774811785E+01  0.24956618036E+02 -0.16953953678E+01  0.25605164578E+02  0.10000000000E+01 0.  0.
    9000005    1    3    3    0    0  0.53774811785E+01 -0.24956618036E+02 -0.29825443401E+03  0.29934671786E+03  0.10000000000E+01 0.  0.
<mgrwt>
<rscale>  0 0.12499530E+03</rscale>
<asrwt>0</asrwt>
<pdfrwt beam="2">  1        4 0.78112688E-01 0.12499530E+03</pdfrwt>
<pdfrwt beam="1">  1       -4 0.31252577E-02 0.12499530E+03</pdfrwt>
<totfact> 0.12300789E+03</totfact>
</mgrwt>
</event>
<event>
 5    1  0.1466870E-002  0.1250000E+03  0.7818608E-02  0.1235069E+00
         -4   -1    0    0    0  501 -0.00000000000E+00  0.00000000000E+00  0.12628826704E+02  0.12692523939E+02  0.12700000000E+01 0.  1.
          4   -1    0    0  501    0  0.00000000000E+00 -0.00000000000E+00 -0.30846906132E+03  0.30847167567E+03  0.12700000000E+01 0.  1.
         25    2    1    2    0    0  0.00000000000E+00  0.00000000000E+00 -0.29584023461E+03  0.32116419961E+03  0.12499999478E+03 0.  0.
    9000005    1    3    3    0    0 -0.28862226482E+01 -0.21188275502E+01  0.12377673412E+02  0.12923873663E+02  0.10000000000E+01 0.  0.
    9000005    1    3    3    0    0  0.28862226482E+01  0.21188275502E+01 -0.30821790803E+03  0.30824032595E+03  0.10000000000E+01 0.  0.
<mgrwt>
<rscale>  0 0.12499999E+03</rscale>
<asrwt>0</asrwt>
<pdfrwt beam="2">  1        4 0.77125530E-01 0.12499999E+03</pdfrwt>
<pdfrwt beam="1">  1       -4 0.31654966E-02 0.12499999E+03</pdfrwt>
<totfact> 0.12397960E+03</totfact>
</mgrwt>
</event>
<event>
 5    1  0.1466870E-002  0.1249955E+03  0.7818608E-02  0.1235076E+00
         -4   -1    0    0    0  501 -0.00000000000E+00  0.00000000000E+00  0.21343360319E+02  0.21381111517E+02  0.12700000000E+01 0.  1.
          4   -1    0    0  501    0  0.00000000000E+00 -0.00000000000E+00 -0.18280471296E+03  0.18280912444E+03  0.12700000000E+01 0.  1.
         25    2    1    2    0    0  0.00000000000E+00  0.00000000000E+00 -0.16146135264E+03  0.20419023596E+03  0.12499553618E+03 0.  0.
    9000005    1    3    3    0    0 -0.37063851579E+01 -0.73139049477E+01 -0.18193015399E+03  0.18211757583E+03  0.10000000000E+01 0.  0.
    9000005    1    3    3    0    0  0.37063851579E+01  0.73139049477E+01  0.20468801349E+02  0.22072660130E+02  0.10000000000E+01 0.  0.
<mgrwt>
<rscale>  0 0.12499554E+03</rscale>
<asrwt>0</asrwt>
<pdfrwt beam="2">  1        4 0.45706444E-01 0.12499554E+03</pdfrwt>
<pdfrwt beam="1">  1       -4 0.53411110E-02 0.12499554E+03</pdfrwt>
<totfact> 0.16157289E+03</totfact>
</mgrwt>
</event>
<event>
 5    1  0.1466870E-002  0.1249638E+03  0.7818608E-02  0.1235126E+00
         -4   -1    0    0    0  501 -0.00000000000E+00  0.00000000000E+00  0.18662703836E+02  0.18705865777E+02  0.12700000000E+01 0. -1.
          4   -1    0    0  501    0  0.00000000000E+00 -0.00000000000E+00 -0.20889976252E+03  0.20890362295E+03  0.12700000000E+01 0. -1.
         25    2    1    2    0    0  0.00000000000E+00  0.00000000000E+00 -0.19023705869E+03  0.22760948873E+03  0.12496375819E+03 0.  0.
    9000005    1    3    3    0    0 -0.30742312477E+02  0.23149530120E+02 -0.18475667818E+03  0.18872472190E+03  0.10000000000E+01 0.  0.
    9000005    1    3    3    0    0  0.30742312477E+02 -0.23149530120E+02 -0.54803805050E+01  0.38884766833E+02  0.10000000000E+01 0.  0.
<mgrwt>
<rscale>  0 0.12496376E+03</rscale>
<asrwt>0</asrwt>
<pdfrwt beam="2">  1        4 0.52230811E-01 0.12496376E+03</pdfrwt>
<pdfrwt beam="1">  1       -4 0.46715544E-02 0.12496376E+03</pdfrwt>
<totfact> 0.15285878E+03</totfact>
</mgrwt>
</event>
<event>
 5    1  0.1466870E-002  0.1250288E+03  0.7818608E-02  0.1235024E+00
         -4   -1    0    0    0  501 -0.00000000000E+00  0.00000000000E+00  0.21178419508E+02  0.21216464193E+02  0.12700000000E+01 0.  1.
          4   -1    0    0  501    0  0.00000000000E+00 -0.00000000000E+00 -0.18432411051E+03  0.18432848564E+03  0.12700000000E+01 0.  1.
         25    2    1    2    0    0  0.00000000000E+00  0.00000000000E+00 -0.16314569101E+03  0.20554494983E+03  0.12502883630E+03 0.  0.
    9000005    1    3    3    0    0 -0.22299435789E+02  0.26729896978E+02  0.37765004441E+01  0.35028762247E+02  0.10000000000E+01 0.  0.
    9000005    1    3    3    0    0  0.22299435789E+02 -0.26729896978E+02 -0.16692219145E+03  0.17051618758E+03  0.10000000000E+01 0.  0.
<mgrwt>
<rscale>  0 0.12502884E+03</rscale>
<asrwt>0</asrwt>
<pdfrwt beam="2">  1        4 0.46086325E-01 0.12502884E+03</pdfrwt>
<pdfrwt beam="1">  1       -4 0.52999079E-02 0.12502884E+03</pdfrwt>
<totfact> 0.16091670E+03</totfact>
</mgrwt>
</event>
<event>
 5    1  0.1466870E-002  0.1250001E+03  0.7818608E-02  0.1235069E+00
          4   -1    0    0  501    0  0.00000000000E+00  0.00000000000E+00  0.29630522815E+02  0.29657727193E+02  0.12700000000E+01 0.  1.
         -4   -1    0    0    0  501 -0.00000000000E+00 -0.00000000000E+00 -0.13174132477E+03  0.13174744609E+03  0.12700000000E+01 0.  1.
         25    2    1    2    0    0  0.00000000000E+00  0.00000000000E+00 -0.10211080195E+03  0.16140517328E+03  0.12500005635E+03 0.  0.
    9000005    1    3    3    0    0  0.18521313110E+02  0.12894238582E+02 -0.12630220922E+03  0.12830646313E+03  0.10000000000E+01 0.  0.
    9000005    1    3    3    0    0 -0.18521313110E+02 -0.12894238582E+02  0.24191407269E+02  0.33098710149E+02  0.10000000000E+01 0.  0.
<mgrwt>
<rscale>  0 0.12500006E+03</rscale>
<asrwt>0</asrwt>
<pdfrwt beam="1">  1        4 0.74117968E-02 0.12500006E+03</pdfrwt>
<pdfrwt beam="2">  1       -4 0.32939495E-01 0.12500006E+03</pdfrwt>
<totfact> 0.17991801E+03</totfact>
</mgrwt>
</event>
<event>
 5    1  0.1466870E-002  0.1250049E+03  0.7818608E-02  0.1235062E+00
         -4   -1    0    0    0  501 -0.00000000000E+00  0.00000000000E+00  0.62501658885E+02  0.62514560411E+02  0.12700000000E+01 0. -1.
          4   -1    0    0  501    0  0.00000000000E+00 -0.00000000000E+00 -0.62477456188E+02  0.62490362711E+02  0.12700000000E+01 0. -1.
         25    2    1    2    0    0  0.00000000000E+00  0.00000000000E+00  0.24202696820E-01  0.12500492312E+03  0.12500492078E+03 0.  0.
    9000005    1    3    3    0    0  0.61861402565E+02 -0.26298022230E+01 -0.84618924191E+01  0.62500820877E+02  0.10000000000E+01 0.  0.
    9000005    1    3    3    0    0 -0.61861402565E+02  0.26298022230E+01  0.84860951159E+01  0.62504102244E+02  0.10000000000E+01 0.  0.
<mgrwt>
<rscale>  0 0.12500492E+03</rscale>
<asrwt>0</asrwt>
<pdfrwt beam="2">  1        4 0.15622590E-01 0.12500492E+03</pdfrwt>
<pdfrwt beam="1">  1       -4 0.15628641E-01 0.12500492E+03</pdfrwt>
<totfact> 0.19832505E+03</totfact>
</mgrwt>
</event>
<event>
 5    1  0.1466870E-002  0.1249989E+03  0.7818608E-02  0.1235071E+00
          4   -1    0    0  501    0  0.00000000000E+00  0.00000000000E+00  0.11095630378E+02  0.11168075640E+02  0.12700000000E+01 0.  1.
         -4   -1    0    0    0  501 -0.00000000000E+00 -0.00000000000E+00 -0.35082770060E+03  0.35082999930E+03  0.12700000000E+01 0.  1.
         25    2    1    2    0    0  0.00000000000E+00  0.00000000000E+00 -0.33973207023E+03  0.36199807494E+03  0.12499890688E+03 0.  0.
    9000005    1    3    3    0    0 -0.53087996714E+02  0.16239884757E+02 -0.25295237456E+03  0.25897485022E+03  0.10000000000E+01 0.  0.
    9000005    1    3    3    0    0  0.53087996714E+02 -0.16239884757E+02 -0.86779695667E+02  0.10302322472E+03  0.10000000000E+01 0.  0.
<mgrwt>
<rscale>  0 0.12499891E+03</rscale>
<asrwt>0</asrwt>
<pdfrwt beam="1">  1        4 0.27832518E-02 0.12499891E+03</pdfrwt>
<pdfrwt beam="2">  1       -4 0.87716231E-01 0.12499891E+03</pdfrwt>
<totfact> 0.11396589E+03</totfact>
</mgrwt>
</event>
<event>
 5    1  0.1466870E-002  0.1250037E+03  0.7818608E-02  0.1235063E+00
         -4   -1    0    0    0  501 -0.00000000000E+00  0.00000000000E+00  0.19076448775E+02  0.19118676677E+02  0.12700000000E+01 0.  1.
          4   -1    0    0  501    0  0.00000000000E+00 -0.00000000000E+00 -0.20450979418E+03  0.20451373747E+03  0.12700000000E+01 0.  1.
         25    2    1    2    0    0  0.00000000000E+00  0.00000000000E+00 -0.18543334540E+03  0.22363241415E+03  0.12500372423E+03 0.  0.
    9000005    1    3    3    0    0  0.41832661779E+02 -0.32991516541E+02 -0.34276907668E+02  0.63358647038E+02  0.10000000000E+01 0.  0.
    9000005    1    3    3    0    0 -0.41832661779E+02  0.32991516541E+02 -0.15115643774E+03  0.16027376711E+03  0.10000000000E+01 0.  0.
<mgrwt>
<rscale>  0 0.12500372E+03</rscale>
<asrwt>0</asrwt>
<pdfrwt beam="2">  1        4 0.51133213E-01 0.12500372E+03</pdfrwt>
<pdfrwt beam="1">  1       -4 0.47748842E-02 0.12500372E+03</pdfrwt>
<totfact> 0.15416217E+03</totfact>
</mgrwt>
</event>
<event>
 5    1  0.1466870E-002  0.1249999E+03  0.7818608E-02  0.1235069E+00
         -4   -1    0    0    0  501 -0.00000000000E+00  0.00000000000E+00  0.19526020396E+03  0.19526433405E+03  0.12700000000E+01 0. -1.
          4   -1    0    0  501    0  0.00000000000E+00 -0.00000000000E+00 -0.19980810987E+02  0.20021131529E+02  0.12700000000E+01 0. -1.
         25    2    1    2    0    0  0.00000000000E+00  0.00000000000E+00  0.17527939297E+03  0.21528546558E+03  0.12499986435E+03 0.  0.
    9000005    1    3    3    0    0 -0.13654925510E+02 -0.49077109606E+01 -0.17047771224E+02  0.22409130310E+02  0.10000000000E+01 0.  0.
    9000005    1    3    3    0    0  0.13654925510E+02  0.49077109606E+01  0.19232716420E+03  0.19287633527E+03  0.10000000000E+01 0.  0.
<mgrwt>
<rscale>  0 0.12499986E+03</rscale>
<asrwt>0</asrwt>
<pdfrwt beam="2">  1        4 0.50007592E-02 0.12499986E+03</pdfrwt>
<pdfrwt beam="1">  1       -4 0.48820606E-01 0.12499986E+03</pdfrwt>
<totfact> 0.15727797E+03</totfact>
</mgrwt>
</event>
<event>
 5    1  0.1466870E-002  0.1249992E+03  0.7818608E-02  0.1235071E+00
         -4   -1    0    0    0  501 -0.00000000000E+00  0.00000000000E+00  0.67047931279E+03  0.67048051559E+03  0.12700000000E+01 0. -1.
          4   -1    0    0  501    0  0.00000000000E+00 -0.00000000000E+00 -0.57555474370E+01  0.58939991771E+01  0.12700000000E+01 0. -1.
         25    2    1    2    0    0  0.00000000000E+00  0.00000000000E+00  0.66472376536E+03  0.67637451476E+03  0.12499919998E+03 0.  0.
    9000005    1    3    3    0    0  0.40778452976E+02 -0.14020982406E+02  0.87622342207E+02  0.97663427282E+02  0.10000000000E+01 0.  0.
    9000005    1    3    3    0    0 -0.40778452976E+02  0.14020982406E+02  0.57710142315E+03  0.57871108748E+03  0.10000000000E+01 0.  0.
<mgrwt>
<rscale>  0 0.12499920E+03</rscale>
<asrwt>0</asrwt>
<pdfrwt beam="2">  1        4 0.14563432E-02 0.12499920E+03</pdfrwt>
<pdfrwt beam="1">  1       -4 0.16763734E+00 0.12499920E+03</pdfrwt>
<totfact> 0.64573309E+02</totfact>
</mgrwt>
</event>
<event>
 5    1  0.1466870E-002  0.1250005E+03  0.7818608E-02  0.1235069E+00
          4   -1    0    0  501    0  0.00000000000E+00  0.00000000000E+00  0.20834632585E+03  0.20835019653E+03  0.12700000000E+01 0.  1.
         -4   -1    0    0    0  501 -0.00000000000E+00 -0.00000000000E+00 -0.18723423262E+02  0.18766445552E+02  0.12700000000E+01 0.  1.
         25    2    1    2    0    0  0.00000000000E+00  0.00000000000E+00  0.18962290258E+03  0.22711664208E+03  0.12500049570E+03 0.  0.
    9000005    1    3    3    0    0  0.90048607934E+01 -0.75424332355E+01 -0.16708513526E+02  0.20448722240E+02  0.10000000000E+01 0.  0.
    9000005    1    3    3    0    0 -0.90048607934E+01  0.75424332355E+01  0.20633141611E+03  0.20666791984E+03  0.10000000000E+01 0.  0.
<mgrwt>
<rscale>  0 0.12500050E+03</rscale>
<asrwt>0</asrwt>
<pdfrwt beam="1">  1        4 0.52092442E-01 0.12500050E+03</pdfrwt>
<pdfrwt beam="2">  1       -4 0.46867175E-02 0.12500050E+03</pdfrwt>
<totfact> 0.15290716E+03</totfact>
</mgrwt>
</event>
<event>
 5    1  0.1466870E-002  0.1250115E+03  0.7818608E-02  0.1235051E+00
         -4   -1    0    0    0  501 -0.00000000000E+00  0.00000000000E+00  0.19168903160E+03  0.19169323862E+03  0.12700000000E+01 0.  1.
          4   -1    0    0  501    0  0.00000000000E+00 -0.00000000000E+00 -0.20357588945E+02  0.20397164697E+02  0.12700000000E+01 0.  1.
         25    2    1    2    0    0  0.00000000000E+00  0.00000000000E+00  0.17133144265E+03  0.21209040332E+03  0.12501150323E+03 0.  0.
    9000005    1    3    3    0    0 -0.15034817706E+02  0.27761203853E+01  0.18847567731E+03  0.18909741809E+03  0.10000000000E+01 0.  0.
    9000005    1    3    3    0    0  0.15034817706E+02 -0.27761203853E+01 -0.17144234663E+02  0.22992985235E+02  0.10000000000E+01 0.  0.
<mgrwt>
<rscale>  0 0.12501150E+03</rscale>
<asrwt>0</asrwt>
<pdfrwt beam="2">  1        4 0.50948702E-02 0.12501150E+03</pdfrwt>
<pdfrwt beam="1">  1       -4 0.47927730E-01 0.12501150E+03</pdfrwt>
<totfact> 0.15844894E+03</totfact>
</mgrwt>
</event>
<event>
 5    1  0.1466870E-002  0.1250003E+03  0.7818608E-02  0.1235069E+00
         -4   -1    0    0    0  501 -0.00000000000E+00  0.00000000000E+00  0.92571146620E+01  0.93438253336E+01  0.12700000000E+01 0.  1.
          4   -1    0    0  501    0  0.00000000000E+00 -0.00000000000E+00 -0.41991985856E+03  0.41992177904E+03  0.12700000000E+01 0.  1.
         25    2    1    2    0    0  0.00000000000E+00  0.00000000000E+00 -0.41066274389E+03  0.42926560437E+03  0.12500027949E+03 0.  0.
    9000005    1    3    3    0    0  0.70059304395E+01  0.33074426078E+02 -0.24843545528E+02  0.41966682929E+02  0.10000000000E+01 0.  0.
    9000005    1    3    3    0    0 -0.70059304395E+01 -0.33074426078E+02 -0.38581919837E+03  0.38729892144E+03  0.10000000000E+01 0.  0.
<mgrwt>
<rscale>  0 0.12500028E+03</rscale>
<asrwt>0</asrwt>
<pdfrwt beam="2">  1        4 0.10499098E+00 0.12500028E+03</pdfrwt>
<pdfrwt beam="1">  1       -4 0.23253590E-02 0.12500028E+03</pdfrwt>
<totfact> 0.99861374E+02</totfact>
</mgrwt>
</event>
<event>
 5    1  0.1466870E-002  0.1249955E+03  0.7818608E-02  0.1235076E+00
         -4   -1    0    0    0  501 -0.00000000000E+00  0.00000000000E+00  0.12470304592E+02  0.12534807402E+02  0.12700000000E+01 0.  1.
          4   -1    0    0  501    0  0.00000000000E+00 -0.00000000000E+00 -0.31234793860E+03  0.31235052048E+03  0.12700000000E+01 0.  1.
         25    2    1    2    0    0  0.00000000000E+00  0.00000000000E+00 -0.29987763400E+03  0.32488532788E+03  0.12499552351E+03 0.  0.
    9000005    1    3    3    0    0 -0.57932507947E+02 -0.52379724089E+01 -0.90591126479E+02  0.10766319719E+03  0.10000000000E+01 0.  0.
    9000005    1    3    3    0    0  0.57932507947E+02  0.52379724089E+01 -0.20928650753E+03  0.21722213070E+03  0.10000000000E+01 0.  0.
<mgrwt>
<rscale>  0 0.12499552E+03</rscale>
<asrwt>0</asrwt>
<pdfrwt beam="2">  1        4 0.78095345E-01 0.12499552E+03</pdfrwt>
<pdfrwt beam="1">  1       -4 0.31259628E-02 0.12499552E+03</pdfrwt>
<totfact> 0.12302447E+03</totfact>
</mgrwt>
</event>
<event>
 5    1  0.1466870E-002  0.1250001E+03  0.7818608E-02  0.1235069E+00
         -4   -1    0    0    0  501 -0.00000000000E+00  0.00000000000E+00  0.81979607363E+02  0.81989443975E+02  0.12700000000E+01 0. -1.
          4   -1    0    0  501    0  0.00000000000E+00 -0.00000000000E+00 -0.47627976736E+02  0.47644906002E+02  0.12700000000E+01 0. -1.
         25    2    1    2    0    0  0.00000000000E+00  0.00000000000E+00  0.34351630627E+02  0.12963434998E+03  0.12500012067E+03 0.  0.
    9000005    1    3    3    0    0  0.36228089340E+02 -0.46325624688E+02  0.39095139361E+02  0.70625546947E+02  0.10000000000E+01 0.  0.
    9000005    1    3    3    0    0 -0.36228089340E+02  0.46325624688E+02 -0.47435087338E+01  0.59008803030E+02  0.10000000000E+01 0.  0.
<mgrwt>
<rscale>  0 0.12500012E+03</rscale>
<asrwt>0</asrwt>
<pdfrwt beam="2">  1        4 0.11910340E-01 0.12500012E+03</pdfrwt>
<pdfrwt beam="1">  1       -4 0.20498248E-01 0.12500012E+03</pdfrwt>
<totfact> 0.19584004E+03</totfact>
</mgrwt>
</event>
<event>
 5    1  0.1466870E-002  0.1250024E+03  0.7818608E-02  0.1235066E+00
         -4   -1    0    0    0  501 -0.00000000000E+00  0.00000000000E+00  0.34960293250E+02  0.34983353243E+02  0.12700000000E+01 0. -1.
          4   -1    0    0  501    0  0.00000000000E+00 -0.00000000000E+00 -0.11167466448E+03  0.11168188567E+03  0.12700000000E+01 0. -1.
         25    2    1    2    0    0  0.00000000000E+00  0.00000000000E+00 -0.76714371225E+02  0.14666523891E+03  0.12500239018E+03 0.  0.
    9000005    1    3    3    0    0 -0.24302088599E+02 -0.50008641176E+02 -0.48833055404E+01  0.55823851314E+02  0.10000000000E+01 0.  0.
    9000005    1    3    3    0    0  0.24302088599E+02  0.50008641176E+02 -0.71831065685E+02  0.90841387594E+02  0.10000000000E+01 0.  0.
<mgrwt>
<rscale>  0 0.12500239E+03</rscale>
<asrwt>0</asrwt>
<pdfrwt beam="2">  1        4 0.27922450E-01 0.12500239E+03</pdfrwt>
<pdfrwt beam="1">  1       -4 0.87438587E-02 0.12500239E+03</pdfrwt>
<totfact> 0.18702935E+03</totfact>
</mgrwt>
</event>
<event>
 5    1  0.1466870E-002  0.1250097E+03  0.7818608E-02  0.1235054E+00
         -4   -1    0    0    0  501 -0.00000000000E+00  0.00000000000E+00  0.25816854375E+02  0.25848072846E+02  0.12700000000E+01 0.  1.
          4   -1    0    0  501    0  0.00000000000E+00 -0.00000000000E+00 -0.15120436234E+03  0.15120969576E+03  0.12700000000E+01 0.  1.
         25    2    1    2    0    0  0.00000000000E+00  0.00000000000E+00 -0.12538750796E+03  0.17705776860E+03  0.12500970470E+03 0.  0.
    9000005    1    3    3    0    0  0.15043014016E+02 -0.96069635366E+01 -0.14752450724E+03  0.14860372221E+03  0.10000000000E+01 0.  0.
    9000005    1    3    3    0    0 -0.15043014016E+02  0.96069635366E+01  0.22136999274E+02  0.28454046390E+02  0.10000000000E+01 0.  0.
<mgrwt>
<rscale>  0 0.12500970E+03</rscale>
<asrwt>0</asrwt>
<pdfrwt beam="2">  1        4 0.37805657E-01 0.12500970E+03</pdfrwt>
<pdfrwt beam="1">  1       -4 0.64587830E-02 0.12500970E+03</pdfrwt>
<totfact> 0.17279442E+03</totfact>
</mgrwt>
</event>
<event>
 5    1  0.1466870E-002  0.1249984E+03  0.7818608E-02  0.1235072E+00
          4   -1    0    0  501    0  0.00000000000E+00  0.00000000000E+00  0.54358421364E+02  0.54373255128E+02  0.12700000000E+01 0.  1.
         -4   -1    0    0    0  501 -0.00000000000E+00 -0.00000000000E+00 -0.71828885299E+02  0.71840111799E+02  0.12700000000E+01 0.  1.
         25    2    1    2    0    0  0.00000000000E+00  0.00000000000E+00 -0.17470463934E+02  0.12621336693E+03  0.12499838751E+03 0.  0.
    9000005    1    3    3    0    0  0.58345439576E+02 -0.22024699741E+02 -0.12757860763E+02  0.63663496050E+02  0.10000000000E+01 0.  0.
    9000005    1    3    3    0    0 -0.58345439576E+02  0.22024699741E+02 -0.47126031714E+01  0.62549870877E+02  0.10000000000E+01 0.  0.
<mgrwt>
<rscale>  0 0.12499839E+03</rscale>
<asrwt>0</asrwt>
<pdfrwt beam="1">  1        4 0.13592863E-01 0.12499839E+03</pdfrwt>
<pdfrwt beam="2">  1       -4 0.17960479E-01 0.12499839E+03</pdfrwt>
<totfact> 0.19770140E+03</totfact>
</mgrwt>
</event>
<event>
 5    1  0.1466870E-002  0.1249992E+03  0.7818608E-02  0.1235071E+00
         -4   -1    0    0    0  501 -0.00000000000E+00  0.00000000000E+00  0.34352956295E+03  0.34353191049E+03  0.12700000000E+01 0.  1.
          4   -1    0    0  501    0  0.00000000000E+00 -0.00000000000E+00 -0.11332926931E+02  0.11403864820E+02  0.12700000000E+01 0.  1.
         25    2    1    2    0    0  0.00000000000E+00  0.00000000000E+00  0.33219663602E+03  0.35493577531E+03  0.12499919843E+03 0.  0.
    9000005    1    3    3    0    0 -0.61671913982E+02  0.62966272257E+01  0.18847956006E+03  0.19841526415E+03  0.10000000000E+01 0.  0.
    9000005    1    3    3    0    0  0.61671913982E+02 -0.62966272257E+01  0.14371707596E+03  0.15652051116E+03  0.10000000000E+01 0.  0.
<mgrwt>
<rscale>  0 0.12499920E+03</rscale>
<asrwt>0</asrwt>
<pdfrwt beam="2">  1        4 0.28423925E-02 0.12499920E+03</pdfrwt>
<pdfrwt beam="1">  1       -4 0.85891550E-01 0.12499920E+03</pdfrwt>
<totfact> 0.11560688E+03</totfact>
</mgrwt>
</event>
<event>
 5    1  0.1466870E-002  0.1249992E+03  0.7818608E-02  0.1235071E+00
          4   -1    0    0  501    0  0.00000000000E+00  0.00000000000E+00  0.83150513573E+01  0.84114790064E+01  0.12700000000E+01 0. -1.
         -4   -1    0    0    0  501 -0.00000000000E+00 -0.00000000000E+00 -0.46696918408E+03  0.46697091106E+03  0.12700000000E+01 0. -1.
         25    2    1    2    0    0  0.00000000000E+00  0.00000000000E+00 -0.45865413272E+03  0.47538239007E+03  0.12499921330E+03 0.  0.
    9000005    1    3    3    0    0  0.49851646711E+01  0.22191229289E+02 -0.79661250008E+01  0.24119736145E+02  0.10000000000E+01 0.  0.
    9000005    1    3    3    0    0 -0.49851646711E+01 -0.22191229289E+02 -0.45068800772E+03  0.45126265392E+03  0.10000000000E+01 0.  0.
<mgrwt>
<rscale>  0 0.12499921E+03</rscale>
<asrwt>0</asrwt>
<pdfrwt beam="1">  1        4 0.20910337E-02 0.12499921E+03</pdfrwt>
<pdfrwt beam="2">  1       -4 0.11675448E+00 0.12499921E+03</pdfrwt>
<totfact> 0.91633195E+02</totfact>
</mgrwt>
</event>
<event>
 5    1  0.1466870E-002  0.1249975E+03  0.7818608E-02  0.1235073E+00
          4   -1    0    0  501    0  0.00000000000E+00  0.00000000000E+00  0.13187187183E+03  0.13187798710E+03  0.12700000000E+01 0.  1.
         -4   -1    0    0    0  501 -0.00000000000E+00 -0.00000000000E+00 -0.29599937236E+02  0.29627169699E+02  0.12700000000E+01 0.  1.
         25    2    1    2    0    0  0.00000000000E+00  0.00000000000E+00  0.10227193460E+03  0.16150515680E+03  0.12499746824E+03 0.  0.
    9000005    1    3    3    0    0 -0.48593446397E+02 -0.23124933056E+02  0.10093629026E+02  0.54762824147E+02  0.10000000000E+01 0.  0.
    9000005    1    3    3    0    0  0.48593446397E+02  0.23124933056E+02  0.92178305572E+02  0.10674233265E+03  0.10000000000E+01 0.  0.
<mgrwt>
<rscale>  0 0.12499747E+03</rscale>
<asrwt>0</asrwt>
<pdfrwt beam="1">  1        4 0.32972136E-01 0.12499747E+03</pdfrwt>
<pdfrwt beam="2">  1       -4 0.74041529E-02 0.12499747E+03</pdfrwt>
<totfact> 0.17988207E+03</totfact>
</mgrwt>
</event>
<event>
 5    1  0.1466870E-002  0.1249931E+03  0.7818608E-02  0.1235080E+00
          4   -1    0    0  501    0  0.00000000000E+00  0.00000000000E+00  0.13208375357E+03  0.13208985902E+03  0.12700000000E+01 0.  1.
         -4   -1    0    0    0  501 -0.00000000000E+00 -0.00000000000E+00 -0.29550344968E+02  0.29577623091E+02  0.12700000000E+01 0.  1.
         25    2    1    2    0    0  0.00000000000E+00  0.00000000000E+00  0.10253340860E+03  0.16166748211E+03  0.12499309938E+03 0.  0.
    9000005    1    3    3    0    0 -0.28095322500E+01  0.53310905910E+02  0.92582564207E+01  0.54190972240E+02  0.10000000000E+01 0.  0.
    9000005    1    3    3    0    0  0.28095322500E+01 -0.53310905910E+02  0.93275152178E+02  0.10747650987E+03  0.10000000000E+01 0.  0.
<mgrwt>
<rscale>  0 0.12499310E+03</rscale>
<asrwt>0</asrwt>
<pdfrwt beam="1">  1        4 0.33025110E-01 0.12499310E+03</pdfrwt>
<pdfrwt beam="2">  1       -4 0.73917594E-02 0.12499310E+03</pdfrwt>
<totfact> 0.17982445E+03</totfact>
</mgrwt>
</event>
<event>
 5    1  0.1466870E-002  0.1250003E+03  0.7818608E-02  0.1235069E+00
         -4   -1    0    0    0  501 -0.00000000000E+00  0.00000000000E+00  0.11913041934E+03  0.11913718862E+03  0.12700000000E+01 0.  1.
          4   -1    0    0  501    0  0.00000000000E+00 -0.00000000000E+00 -0.32769844696E+02  0.32794444977E+02  0.12700000000E+01 0.  1.
         25    2    1    2    0    0  0.00000000000E+00  0.00000000000E+00  0.86360574642E+02  0.15193163359E+03  0.12500028974E+03 0.  0.
    9000005    1    3    3    0    0 -0.19647202773E+01 -0.78814123512E+01  0.11849203422E+03  0.11877431945E+03  0.10000000000E+01 0.  0.
    9000005    1    3    3    0    0  0.19647202773E+01  0.78814123512E+01 -0.32131459582E+02  0.33157314144E+02  0.10000000000E+01 0.  0.
<mgrwt>
<rscale>  0 0.12500029E+03</rscale>
<asrwt>0</asrwt>
<pdfrwt beam="2">  1        4 0.81963824E-02 0.12500029E+03</pdfrwt>
<pdfrwt beam="1">  1       -4 0.29786526E-01 0.12500029E+03</pdfrwt>
<totfact> 0.18444084E+03</totfact>
</mgrwt>
</event>
<event>
 5    1  0.1466870E-002  0.1249993E+03  0.7818608E-02  0.1235070E+00
          4   -1    0    0  501    0  0.00000000000E+00  0.00000000000E+00  0.17884037286E+03  0.17884488213E+03  0.12700000000E+01 0. -1.
         -4   -1    0    0    0  501 -0.00000000000E+00 -0.00000000000E+00 -0.21818608767E+02  0.21855539081E+02  0.12700000000E+01 0. -1.
         25    2    1    2    0    0  0.00000000000E+00  0.00000000000E+00  0.15702176410E+03  0.20070042122E+03  0.12499929870E+03 0.  0.
    9000005    1    3    3    0    0  0.65291850340E+01  0.58024762250E+02  0.11425885557E+03  0.12831831267E+03  0.10000000000E+01 0.  0.
    9000005    1    3    3    0    0 -0.65291850340E+01 -0.58024762250E+02  0.42762908526E+02  0.72382108542E+02  0.10000000000E+01 0.  0.
<mgrwt>
<rscale>  0 0.12499930E+03</rscale>
<asrwt>0</asrwt>
<pdfrwt beam="1">  1        4 0.44715271E-01 0.12499930E+03</pdfrwt>
<pdfrwt beam="2">  1       -4 0.54598324E-02 0.12499930E+03</pdfrwt>
<totfact> 0.16294298E+03</totfact>
</mgrwt>
</event>
<event>
 5    1  0.1466870E-002  0.1249642E+03  0.7818608E-02  0.1235125E+00
         -4   -1    0    0    0  501 -0.00000000000E+00  0.00000000000E+00  0.96170707512E+02  0.96179092756E+02  0.12700000000E+01 0. -1.
          4   -1    0    0  501    0  0.00000000000E+00 -0.00000000000E+00 -0.40574539443E+02  0.40594410342E+02  0.12700000000E+01 0. -1.
         25    2    1    2    0    0  0.00000000000E+00  0.00000000000E+00  0.55596168068E+02  0.13677350310E+03  0.12496422386E+03 0.  0.
    9000005    1    3    3    0    0 -0.36998294388E+02 -0.37627172681E+02  0.64399889168E+02  0.83264780288E+02  0.10000000000E+01 0.  0.
    9000005    1    3    3    0    0  0.36998294388E+02  0.37627172681E+02 -0.88037210996E+01  0.53508722810E+02  0.10000000000E+01 0.  0.
<mgrwt>
<rscale>  0 0.12496422E+03</rscale>
<asrwt>0</asrwt>
<pdfrwt beam="2">  1        4 0.10147167E-01 0.12496422E+03</pdfrwt>
<pdfrwt beam="1">  1       -4 0.24046209E-01 0.12496422E+03</pdfrwt>
<totfact> 0.19222680E+03</totfact>
</mgrwt>
</event>
<event>
 5    1  0.1466870E-002  0.1249949E+03  0.7818608E-02  0.1235077E+00
         -4   -1    0    0    0  501 -0.00000000000E+00  0.00000000000E+00  0.41000061582E+03  0.41000258276E+03  0.12700000000E+01 0.  1.
          4   -1    0    0  501    0  0.00000000000E+00 -0.00000000000E+00 -0.94823219675E+01  0.95669916847E+01  0.12700000000E+01 0.  1.
         25    2    1    2    0    0  0.00000000000E+00  0.00000000000E+00  0.40051829385E+03  0.41956957444E+03  0.12499489626E+03 0.  0.
    9000005    1    3    3    0    0 -0.36198824717E+02 -0.26241647047E+02  0.34680302982E+03  0.34967459222E+03  0.10000000000E+01 0.  0.
    9000005    1    3    3    0    0  0.36198824717E+02  0.26241647047E+02  0.53715264025E+02  0.69894982222E+02  0.10000000000E+01 0.  0.
<mgrwt>
<rscale>  0 0.12499490E+03</rscale>
<asrwt>0</asrwt>
<pdfrwt beam="2">  1        4 0.23814103E-02 0.12499490E+03</pdfrwt>
<pdfrwt beam="1">  1       -4 0.10251097E+00 0.12499490E+03</pdfrwt>
<totfact> 0.10175788E+03</totfact>
</mgrwt>
</event>
<event>
 5    1  0.1466870E-002  0.1249994E+03  0.7818608E-02  0.1235070E+00
          4   -1    0    0  501    0  0.00000000000E+00  0.00000000000E+00  0.19725174049E+02  0.19766016069E+02  0.12700000000E+01 0.  1.
         -4   -1    0    0    0  501 -0.00000000000E+00 -0.00000000000E+00 -0.19778415311E+03  0.19778823049E+03  0.12700000000E+01 0.  1.
         25    2    1    2    0    0  0.00000000000E+00  0.00000000000E+00 -0.17805897906E+03  0.21755424656E+03  0.12499940069E+03 0.  0.
    9000005    1    3    3    0    0  0.15586826423E+02  0.23462372426E+02  0.80581873137E+01  0.29314952850E+02  0.10000000000E+01 0.  0.
    9000005    1    3    3    0    0 -0.15586826423E+02 -0.23462372426E+02 -0.18611716638E+03  0.18823929371E+03  0.10000000000E+01 0.  0.
<mgrwt>
<rscale>  0 0.12499940E+03</rscale>
<asrwt>0</asrwt>
<pdfrwt beam="1">  1        4 0.49369091E-02 0.12499940E+03</pdfrwt>
<pdfrwt beam="2">  1       -4 0.49451647E-01 0.12499940E+03</pdfrwt>
<totfact> 0.15642680E+03</totfact>
</mgrwt>
</event>
<event>
 5    1  0.1466870E-002  0.1250019E+03  0.7818608E-02  0.1235066E+00
          4   -1    0    0  501    0  0.00000000000E+00  0.00000000000E+00  0.42861094708E+02  0.42879906011E+02  0.12700000000E+01 0. -1.
         -4   -1    0    0    0  501 -0.00000000000E+00 -0.00000000000E+00 -0.91096953887E+02  0.91105806113E+02  0.12700000000E+01 0. -1.
         25    2    1    2    0    0  0.00000000000E+00  0.00000000000E+00 -0.48235859179E+02  0.13398571212E+03  0.12500189176E+03 0.  0.
    9000005    1    3    3    0    0  0.88230386306E+01  0.29465632471E+02 -0.82427025406E+02  0.87984566970E+02  0.10000000000E+01 0.  0.
    9000005    1    3    3    0    0 -0.88230386306E+01 -0.29465632471E+02  0.34191166226E+02  0.46001145154E+02  0.10000000000E+01 0.  0.
<mgrwt>
<rscale>  0 0.12500189E+03</rscale>
<asrwt>0</asrwt>
<pdfrwt beam="1">  1        4 0.10718732E-01 0.12500189E+03</pdfrwt>
<pdfrwt beam="2">  1       -4 0.22777696E-01 0.12500189E+03</pdfrwt>
<totfact> 0.19351542E+03</totfact>
</mgrwt>
</event>
<event>
 5    1  0.1466870E-002  0.1250012E+03  0.7818608E-02  0.1235067E+00
         -4   -1    0    0    0  501 -0.00000000000E+00  0.00000000000E+00  0.43820616904E+01  0.45623858515E+01  0.12700000000E+01 0.  1.
          4   -1    0    0  501    0  0.00000000000E+00 -0.00000000000E+00 -0.87328325133E+03  0.87328417480E+03  0.12700000000E+01 0.  1.
         25    2    1    2    0    0  0.00000000000E+00  0.00000000000E+00 -0.86890118964E+03  0.87784656065E+03  0.12500122675E+03 0.  0.
    9000005    1    3    3    0    0 -0.10000132181E+02 -0.56343152382E+02 -0.25807399907E+03  0.26434398511E+03  0.10000000000E+01 0.  0.
    9000005    1    3    3    0    0  0.10000132181E+02  0.56343152382E+02 -0.61082719056E+03  0.61350257554E+03  0.10000000000E+01 0.  0.
<mgrwt>
<rscale>  0 0.12500123E+03</rscale>
<asrwt>0</asrwt>
<pdfrwt beam="2">  1        4 0.21834289E+00 0.12500123E+03</pdfrwt>
<pdfrwt beam="1">  1       -4 0.11181744E-02 0.12500123E+03</pdfrwt>
<totfact> 0.45991183E+02</totfact>
</mgrwt>
</event>
<event>
 5    1  0.1466870E-002  0.1249996E+03  0.7818608E-02  0.1235070E+00
          4   -1    0    0  501    0  0.00000000000E+00  0.00000000000E+00  0.29931807947E+02  0.29958738741E+02  0.12700000000E+01 0. -1.
         -4   -1    0    0    0  501 -0.00000000000E+00 -0.00000000000E+00 -0.13041551277E+03  0.13042169632E+03  0.12700000000E+01 0. -1.
         25    2    1    2    0    0  0.00000000000E+00  0.00000000000E+00 -0.10048370482E+03  0.16038043506E+03  0.12499963606E+03 0.  0.
    9000005    1    3    3    0    0 -0.47007259248E+02 -0.60397296070E+01 -0.10250246973E+03  0.11293324160E+03  0.10000000000E+01 0.  0.
    9000005    1    3    3    0    0  0.47007259248E+02  0.60397296070E+01  0.20187649138E+01  0.47447193463E+02  0.10000000000E+01 0.  0.
<mgrwt>
<rscale>  0 0.12499964E+03</rscale>
<asrwt>0</asrwt>
<pdfrwt beam="1">  1        4 0.74870916E-02 0.12499964E+03</pdfrwt>
<pdfrwt beam="2">  1       -4 0.32608016E-01 0.12499964E+03</pdfrwt>
<totfact> 0.18040018E+03</totfact>
</mgrwt>
</event>
<event>
 5    1  0.1466870E-002  0.1250053E+03  0.7818608E-02  0.1235061E+00
         -4   -1    0    0    0  501 -0.00000000000E+00  0.00000000000E+00  0.24583148907E+02  0.24615932040E+02  0.12700000000E+01 0.  1.
          4   -1    0    0  501    0  0.00000000000E+00 -0.00000000000E+00 -0.15877188436E+03  0.15877696357E+03  0.12700000000E+01 0.  1.
         25    2    1    2    0    0  0.00000000000E+00  0.00000000000E+00 -0.13418873545E+03  0.18339289561E+03  0.12500534965E+03 0.  0.
    9000005    1    3    3    0    0  0.25637761330E+02 -0.22926476319E+02 -0.14364541058E+03  0.14770891003E+03  0.10000000000E+01 0.  0.
    9000005    1    3    3    0    0 -0.25637761330E+02  0.22926476319E+02  0.94566751318E+01  0.35683985581E+02  0.10000000000E+01 0.  0.
<mgrwt>
<rscale>  0 0.12500535E+03</rscale>
<asrwt>0</asrwt>
<pdfrwt beam="2">  1        4 0.39697701E-01 0.12500535E+03</pdfrwt>
<pdfrwt beam="1">  1       -4 0.61505205E-02 0.12500535E+03</pdfrwt>
<totfact> 0.17007224E+03</totfact>
</mgrwt>
</event>
<event>
 5    1  0.1466870E-002  0.1249957E+03  0.7818608E-02  0.1235076E+00
          4   -1    0    0  501    0  0.00000000000E+00  0.00000000000E+00  0.30539491889E+03  0.30539755956E+03  0.12700000000E+01 0. -1.
         -4   -1    0    0    0  501 -0.00000000000E+00 -0.00000000000E+00 -0.12755701358E+02  0.12818768160E+02  0.12700000000E+01 0. -1.
         25    2    1    2    0    0  0.00000000000E+00  0.00000000000E+00  0.29263921753E+03  0.31821632772E+03  0.12499567828E+03 0.  0.
    9000005    1    3    3    0    0  0.31829905584E+02  0.17226310646E+01  0.28315279115E+03  0.28494317589E+03  0.10000000000E+01 0.  0.
    9000005    1    3    3    0    0 -0.31829905584E+02 -0.17226310646E+01  0.94864263800E+01  0.33273151831E+02  0.10000000000E+01 0.  0.
<mgrwt>
<rscale>  0 0.12499568E+03</rscale>
<asrwt>0</asrwt>
<pdfrwt beam="1">  1        4 0.76356946E-01 0.12499568E+03</pdfrwt>
<pdfrwt beam="2">  1       -4 0.31971387E-02 0.12499568E+03</pdfrwt>
<totfact> 0.12476675E+03</totfact>
</mgrwt>
</event>
<event>
 5    1  0.1466870E-002  0.1249997E+03  0.7818608E-02  0.1235070E+00
         -4   -1    0    0    0  501 -0.00000000000E+00  0.00000000000E+00  0.41691751626E+01  0.43583163648E+01  0.12700000000E+01 0.  1.
          4   -1    0    0  501    0  0.00000000000E+00 -0.00000000000E+00 -0.91595993447E+03  0.91596081491E+03  0.12700000000E+01 0.  1.
         25    2    1    2    0    0  0.00000000000E+00  0.00000000000E+00 -0.91179075931E+03  0.92031913128E+03  0.12499965854E+03 0.  0.
    9000005    1    3    3    0    0 -0.74869905244E+00 -0.32088064796E+01 -0.91535602900E+03  0.91536250568E+03  0.10000000000E+01 0.  0.
    9000005    1    3    3    0    0  0.74869905244E+00  0.32088064796E+01  0.35652696909E+01  0.49566255924E+01  0.10000000000E+01 0.  0.
<mgrwt>
<rscale>  0 0.12499966E+03</rscale>
<asrwt>0</asrwt>
<pdfrwt beam="2">  1        4 0.22901306E+00 0.12499966E+03</pdfrwt>
<pdfrwt beam="1">  1       -4 0.10660496E-02 0.12499966E+03</pdfrwt>
<totfact> 0.42745484E+02</totfact>
</mgrwt>
</event>
<event>
 5    1  0.1466870E-002  0.1250008E+03  0.7818608E-02  0.1235068E+00
         -4   -1    0    0    0  501 -0.00000000000E+00  0.00000000000E+00  0.31711035529E+02  0.31736456550E+02  0.12700000000E+01 0.  1.
          4   -1    0    0  501    0  0.00000000000E+00 -0.00000000000E+00 -0.12310614243E+03  0.12311269310E+03  0.12700000000E+01 0.  1.
         25    2    1    2    0    0  0.00000000000E+00  0.00000000000E+00 -0.91395106898E+02  0.15484914965E+03  0.12500077433E+03 0.  0.
    9000005    1    3    3    0    0  0.57996485540E+02  0.22874020462E+02 -0.51023646775E+02  0.80568143068E+02  0.10000000000E+01 0.  0.
    9000005    1    3    3    0    0 -0.57996485540E+02 -0.22874020462E+02 -0.40371460123E+02  0.74281006587E+02  0.10000000000E+01 0.  0.
<mgrwt>
<rscale>  0 0.12500077E+03</rscale>
<asrwt>0</asrwt>
<pdfrwt beam="2">  1        4 0.30780531E-01 0.12500077E+03</pdfrwt>
<pdfrwt beam="1">  1       -4 0.79317556E-02 0.12500077E+03</pdfrwt>
<totfact> 0.18302560E+03</totfact>
</mgrwt>
</event>
<event>
 5    1  0.1466870E-002  0.1249950E+03  0.7818608E-02  0.1235077E+00
         -4   -1    0    0    0  501 -0.00000000000E+00  0.00000000000E+00  0.15546460720E+02  0.15598248008E+02  0.12700000000E+01 0.  1.
          4   -1    0    0  501    0  0.00000000000E+00 -0.00000000000E+00 -0.25077182606E+03  0.25077504191E+03  0.12700000000E+01 0.  1.
         25    2    1    2    0    0  0.00000000000E+00  0.00000000000E+00 -0.23522536534E+03  0.26637328992E+03  0.12499502823E+03 0.  0.
    9000005    1    3    3    0    0 -0.62715397700E+01  0.30461198138E+02 -0.21070088411E+01  0.31187438006E+02  0.10000000000E+01 0.  0.
    9000005    1    3    3    0    0  0.62715397700E+01 -0.30461198138E+02 -0.23311835650E+03  0.23518585191E+03  0.10000000000E+01 0.  0.
<mgrwt>
<rscale>  0 0.12499503E+03</rscale>
<asrwt>0</asrwt>
<pdfrwt beam="2">  1        4 0.62699819E-01 0.12499503E+03</pdfrwt>
<pdfrwt beam="1">  1       -4 0.38934914E-02 0.12499503E+03</pdfrwt>
<totfact> 0.13970356E+03</totfact>
</mgrwt>
</event>
<event>
 5    1  0.1466870E-002  0.1249997E+03  0.7818608E-02  0.1235070E+00
         -4   -1    0    0    0  501 -0.00000000000E+00  0.00000000000E+00  0.80328926927E+01  0.81326665376E+01  0.12700000000E+01 0. -1.
          4   -1    0    0  501    0  0.00000000000E+00 -0.00000000000E+00 -0.48317739112E+03  0.48317906017E+03  0.12700000000E+01 0. -1.
         25    2    1    2    0    0  0.00000000000E+00  0.00000000000E+00 -0.47514449843E+03  0.49131172671E+03  0.12499967367E+03 0.  0.
    9000005    1    3    3    0    0 -0.24324853210E+02 -0.16087183376E+02 -0.45480981386E+03  0.45574495361E+03  0.10000000000E+01 0.  0.
    9000005    1    3    3    0    0  0.24324853210E+02  0.16087183376E+02 -0.20334684565E+02  0.35566773103E+02  0.10000000000E+01 0.  0.
<mgrwt>
<rscale>  0 0.12499967E+03</rscale>
<asrwt>0</asrwt>
<pdfrwt beam="2">  1        4 0.12080693E+00 0.12499967E+03</pdfrwt>
<pdfrwt beam="1">  1       -4 0.20209052E-02 0.12499967E+03</pdfrwt>
<totfact> 0.89005780E+02</totfact>
</mgrwt>
</event>
<event>
 5    1  0.1466870E-002  0.1250002E+03  0.7818608E-02  0.1235069E+00
         -4   -1    0    0    0  501 -0.00000000000E+00  0.00000000000E+00  0.61254255603E+01  0.62556964676E+01  0.12700000000E+01 0.  1.
          4   -1    0    0  501    0  0.00000000000E+00 -0.00000000000E+00 -0.63087232944E+03  0.63087360775E+03  0.12700000000E+01 0.  1.
         25    2    1    2    0    0  0.00000000000E+00  0.00000000000E+00 -0.62474690388E+03  0.63712930422E+03  0.12500022553E+03 0.  0.
    9000005    1    3    3    0    0 -0.31145846440E+02 -0.44636122427E+02 -0.46887926313E+03  0.47202882387E+03  0.10000000000E+01 0.  0.
    9000005    1    3    3    0    0  0.31145846440E+02  0.44636122427E+02 -0.15586764075E+03  0.16510048034E+03  0.10000000000E+01 0.  0.
<mgrwt>
<rscale>  0 0.12500023E+03</rscale>
<asrwt>0</asrwt>
<pdfrwt beam="2">  1        4 0.15773431E+00 0.12500023E+03</pdfrwt>
<pdfrwt beam="1">  1       -4 0.15478022E-02 0.12500023E+03</pdfrwt>
<totfact> 0.69002882E+02</totfact>
</mgrwt>
</event>
<event>
 5    1  0.1466870E-002  0.1249958E+03  0.7818608E-02  0.1235076E+00
          4   -1    0    0  501    0  0.00000000000E+00  0.00000000000E+00  0.58274823090E+02  0.58288660185E+02  0.12700000000E+01 0. -1.
         -4   -1    0    0    0  501 -0.00000000000E+00 -0.00000000000E+00 -0.66999226553E+02  0.67011262178E+02  0.12700000000E+01 0. -1.
         25    2    1    2    0    0  0.00000000000E+00  0.00000000000E+00 -0.87244034628E+01  0.12529992236E+03  0.12499582124E+03 0.  0.
    9000005    1    3    3    0    0 -0.11208076348E+02  0.59155517086E+02  0.12411488829E+02  0.61482039915E+02  0.10000000000E+01 0.  0.
    9000005    1    3    3    0    0  0.11208076348E+02 -0.59155517086E+02 -0.21135892292E+02  0.63817882448E+02  0.10000000000E+01 0.  0.
<mgrwt>
<rscale>  0 0.12499582E+03</rscale>
<asrwt>0</asrwt>
<pdfrwt beam="1">  1        4 0.14571940E-01 0.12499582E+03</pdfrwt>
<pdfrwt beam="2">  1       -4 0.16753041E-01 0.12499582E+03</pdfrwt>
<totfact> 0.19820736E+03</totfact>
</mgrwt>
</event>
<event>
 5    1  0.1466870E-002  0.1250042E+03  0.7818608E-02  0.1235063E+00
         -4   -1    0    0    0  501 -0.00000000000E+00  0.00000000000E+00  0.17170594193E+02  0.17217497058E+02  0.12700000000E+01 0. -1.
          4   -1    0    0  501    0  0.00000000000E+00 -0.00000000000E+00 -0.22715273220E+03  0.22715628243E+03  0.12700000000E+01 0. -1.
         25    2    1    2    0    0  0.00000000000E+00  0.00000000000E+00 -0.20998213801E+03  0.24437377949E+03  0.12500418320E+03 0.  0.
    9000005    1    3    3    0    0  0.45312434215E+02  0.42759034355E+02 -0.95421968434E+02  0.11396448470E+03  0.10000000000E+01 0.  0.
    9000005    1    3    3    0    0 -0.45312434215E+02 -0.42759034355E+02 -0.11456016958E+03  0.13040929479E+03  0.10000000000E+01 0.  0.
<mgrwt>
<rscale>  0 0.12500418E+03</rscale>
<asrwt>0</asrwt>
<pdfrwt beam="2">  1        4 0.56794480E-01 0.12500418E+03</pdfrwt>
<pdfrwt beam="1">  1       -4 0.42989559E-02 0.12500418E+03</pdfrwt>
<totfact> 0.14685537E+03</totfact>
</mgrwt>
</event>
<event>
 5    1  0.1466870E-002  0.1249999E+03  0.7818608E-02  0.1235069E+00
          4   -1    0    0  501    0  0.00000000000E+00  0.00000000000E+00  0.29936487358E+02  0.29963413947E+02  0.12700000000E+01 0.  1.
         -4   -1    0    0    0  501 -0.00000000000E+00 -0.00000000000E+00 -0.13039565154E+03  0.13040183603E+03  0.12700000000E+01 0.  1.
         25    2    1    2    0    0  0.00000000000E+00  0.00000000000E+00 -0.10045916418E+03  0.16036524998E+03  0.12499987893E+03 0.  0.
    9000005    1    3    3    0    0  0.41014518243E+02 -0.37254758743E+02 -0.13154772273E+02  0.56957491072E+02  0.10000000000E+01 0.  0.
    9000005    1    3    3    0    0 -0.41014518243E+02  0.37254758743E+02 -0.87304391910E+02  0.10340775891E+03  0.10000000000E+01 0.  0.
<mgrwt>
<rscale>  0 0.12499988E+03</rscale>
<asrwt>0</asrwt>
<pdfrwt beam="1">  1        4 0.74882611E-02 0.12499988E+03</pdfrwt>
<pdfrwt beam="2">  1       -4 0.32603050E-01 0.12499988E+03</pdfrwt>
<totfact> 0.18040630E+03</totfact>
</mgrwt>
</event>
<event>
 5    1  0.1466870E-002  0.1249994E+03  0.7818608E-02  0.1235070E+00
         -4   -1    0    0    0  501 -0.00000000000E+00  0.00000000000E+00  0.11725577896E+03  0.11726265646E+03  0.12700000000E+01 0. -1.
          4   -1    0    0  501    0  0.00000000000E+00 -0.00000000000E+00 -0.33293643388E+02  0.33317856924E+02  0.12700000000E+01 0. -1.
         25    2    1    2    0    0  0.00000000000E+00  0.00000000000E+00  0.83962135573E+02  0.15058051338E+03  0.12499940320E+03 0.  0.
    9000005    1    3    3    0    0  0.58756285990E+02  0.17606069464E+02  0.56383455382E+02  0.83320878933E+02  0.10000000000E+01 0.  0.
    9000005    1    3    3    0    0 -0.58756285990E+02 -0.17606069464E+02  0.27578680191E+02  0.67259634450E+02  0.10000000000E+01 0.  0.
<mgrwt>
<rscale>  0 0.12499940E+03</rscale>
<asrwt>0</asrwt>
<pdfrwt beam="2">  1        4 0.83272973E-02 0.12499940E+03</pdfrwt>
<pdfrwt beam="1">  1       -4 0.29317831E-01 0.12499940E+03</pdfrwt>
<totfact> 0.18510531E+03</totfact>
</mgrwt>
</event>
<event>
 5    1  0.1466870E-002  0.1249974E+03  0.7818608E-02  0.1235073E+00
         -4   -1    0    0    0  501 -0.00000000000E+00  0.00000000000E+00  0.10499092416E+03  0.10499860502E+03  0.12700000000E+01 0.  1.
          4   -1    0    0  501    0  0.00000000000E+00 -0.00000000000E+00 -0.37184194044E+02  0.37205875702E+02  0.12700000000E+01 0.  1.
         25    2    1    2    0    0  0.00000000000E+00  0.00000000000E+00  0.67806730120E+02  0.14220448073E+03  0.12499744673E+03 0.  0.
    9000005    1    3    3    0    0  0.54090352675E+01 -0.39745600057E+02 -0.20610808556E+02  0.45108489398E+02  0.10000000000E+01 0.  0.
    9000005    1    3    3    0    0 -0.54090352675E+01  0.39745600057E+02  0.88417538676E+02  0.97095991328E+02  0.10000000000E+01 0.  0.
<mgrwt>
<rscale>  0 0.12499745E+03</rscale>
<asrwt>0</asrwt>
<pdfrwt beam="2">  1        4 0.92997189E-02 0.12499745E+03</pdfrwt>
<pdfrwt beam="1">  1       -4 0.26251401E-01 0.12499745E+03</pdfrwt>
<totfact> 0.18929253E+03</totfact>
</mgrwt>
</event>
<event>
 5    1  0.1466870E-002  0.1249994E+03  0.7818608E-02  0.1235070E+00
          4   -1    0    0  501    0  0.00000000000E+00  0.00000000000E+00  0.94000408049E+01  0.94854450150E+01  0.12700000000E+01 0.  1.
         -4   -1    0    0    0  501 -0.00000000000E+00 -0.00000000000E+00 -0.41358730029E+03  0.41358925017E+03  0.12700000000E+01 0.  1.
         25    2    1    2    0    0  0.00000000000E+00  0.00000000000E+00 -0.40418725948E+03  0.42307469519E+03  0.12499942792E+03 0.  0.
    9000005    1    3    3    0    0  0.74488422170E+01 -0.31876970034E+01 -0.41181862003E+03  0.41189952958E+03  0.10000000000E+01 0.  0.
    9000005    1    3    3    0    0 -0.74488422170E+01  0.31876970034E+01  0.76313605494E+01  0.11175165609E+02  0.10000000000E+01 0.  0.
<mgrwt>
<rscale>  0 0.12499943E+03</rscale>
<asrwt>0</asrwt>
<pdfrwt beam="1">  1        4 0.23609309E-02 0.12499943E+03</pdfrwt>
<pdfrwt beam="2">  1       -4 0.10340768E+00 0.12499943E+03</pdfrwt>
<totfact> 0.10105990E+03</totfact>
</mgrwt>
</event>
<event>
 5    1  0.1466870E-002  0.1249991E+03  0.7818608E-02  0.1235071E+00
          4   -1    0    0  501    0  0.00000000000E+00  0.00000000000E+00  0.27817177774E+02  0.27846153761E+02  0.12700000000E+01 0. -1.
         -4   -1    0    0    0  501 -0.00000000000E+00 -0.00000000000E+00 -0.14031887396E+03  0.14032462111E+03  0.12700000000E+01 0. -1.
         25    2    1    2    0    0  0.00000000000E+00  0.00000000000E+00 -0.11250169619E+03  0.16817077487E+03  0.12499911150E+03 0.  0.
    9000005    1    3    3    0    0  0.61755417966E+01 -0.61748078783E+02 -0.46343188302E+02  0.77457431224E+02  0.10000000000E+01 0.  0.
    9000005    1    3    3    0    0 -0.61755417966E+01  0.61748078783E+02 -0.66158507885E+02  0.90713343646E+02  0.10000000000E+01 0.  0.
<mgrwt>
<rscale>  0 0.12499911E+03</rscale>
<asrwt>0</asrwt>
<pdfrwt beam="1">  1        4 0.69586352E-02 0.12499911E+03</pdfrwt>
<pdfrwt beam="2">  1       -4 0.35084057E-01 0.12499911E+03</pdfrwt>
<totfact> 0.17680235E+03</totfact>
</mgrwt>
</event>
<event>
 5    1  0.1466870E-002  0.1249916E+03  0.7818608E-02  0.1235082E+00
          4   -1    0    0  501    0  0.00000000000E+00  0.00000000000E+00  0.88090996120E+01  0.89001761766E+01  0.12700000000E+01 0. -1.
         -4   -1    0    0    0  501 -0.00000000000E+00 -0.00000000000E+00 -0.44100190413E+03  0.44100373280E+03  0.12700000000E+01 0. -1.
         25    2    1    2    0    0  0.00000000000E+00  0.00000000000E+00 -0.43219280451E+03  0.44990390897E+03  0.12499162787E+03 0.  0.
    9000005    1    3    3    0    0 -0.44518476862E+02  0.42241112342E+02 -0.25846028130E+03  0.26564811944E+03  0.10000000000E+01 0.  0.
    9000005    1    3    3    0    0  0.44518476862E+02 -0.42241112342E+02 -0.17373252322E+03  0.18425578953E+03  0.10000000000E+01 0.  0.
<mgrwt>
<rscale>  0 0.12499163E+03</rscale>
<asrwt>0</asrwt>
<pdfrwt beam="1">  1        4 0.22138895E-02 0.12499163E+03</pdfrwt>
<pdfrwt beam="2">  1       -4 0.11026202E+00 0.12499163E+03</pdfrwt>
<totfact> 0.96052531E+02</totfact>
</mgrwt>
</event>
<event>
 5    1  0.1466870E-002  0.1249997E+03  0.7818608E-02  0.1235070E+00
          4   -1    0    0  501    0  0.00000000000E+00  0.00000000000E+00  0.24922314822E+03  0.24922638406E+03  0.12700000000E+01 0. -1.
         -4   -1    0    0    0  501 -0.00000000000E+00 -0.00000000000E+00 -0.15644558580E+02  0.15696022208E+02  0.12700000000E+01 0. -1.
         25    2    1    2    0    0  0.00000000000E+00  0.00000000000E+00  0.23357858964E+03  0.26492240626E+03  0.12499969521E+03 0.  0.
    9000005    1    3    3    0    0  0.35671371843E+02  0.21912437489E+02  0.18457411522E+02  0.45763279231E+02  0.10000000000E+01 0.  0.
    9000005    1    3    3    0    0 -0.35671371843E+02 -0.21912437489E+02  0.21512117812E+03  0.21915912703E+03  0.10000000000E+01 0.  0.
<mgrwt>
<rscale>  0 0.12499970E+03</rscale>
<asrwt>0</asrwt>
<pdfrwt beam="1">  1        4 0.62312624E-01 0.12499970E+03</pdfrwt>
<pdfrwt beam="2">  1       -4 0.39179771E-02 0.12499970E+03</pdfrwt>
<totfact> 0.14014538E+03</totfact>
</mgrwt>
</event>
<event>
 5    1  0.1466870E-002  0.1249996E+03  0.7818608E-02  0.1235070E+00
          4   -1    0    0  501    0  0.00000000000E+00  0.00000000000E+00  0.13900643938E+03  0.13901224079E+03  0.12700000000E+01 0.  1.
         -4   -1    0    0    0  501 -0.00000000000E+00 -0.00000000000E+00 -0.28080273375E+02  0.28108978154E+02  0.12700000000E+01 0.  1.
         25    2    1    2    0    0  0.00000000000E+00  0.00000000000E+00  0.11092616601E+03  0.16712121895E+03  0.12499955007E+03 0.  0.
    9000005    1    3    3    0    0 -0.11609567987E+02  0.51425316163E+02  0.10602123891E+02  0.53784293639E+02  0.10000000000E+01 0.  0.
    9000005    1    3    3    0    0  0.11609567987E+02 -0.51425316163E+02  0.10032404212E+03  0.11333692531E+03  0.10000000000E+01 0.  0.
<mgrwt>
<rscale>  0 0.12499955E+03</rscale>
<asrwt>0</asrwt>
<pdfrwt beam="1">  1        4 0.34755922E-01 0.12499955E+03</pdfrwt>
<pdfrwt beam="2">  1       -4 0.70243818E-02 0.12499955E+03</pdfrwt>
<totfact> 0.17727865E+03</totfact>
</mgrwt>
</event>
<event>
 5    1  0.1466870E-002  0.1249997E+03  0.7818608E-02  0.1235070E+00
         -4   -1    0    0    0  501 -0.00000000000E+00  0.00000000000E+00  0.51695465088E+03  0.51695621088E+03  0.12700000000E+01 0.  1.
          4   -1    0    0  501    0  0.00000000000E+00 -0.00000000000E+00 -0.75012950268E+01  0.76080435776E+01  0.12700000000E+01 0.  1.
         25    2    1    2    0    0  0.00000000000E+00  0.00000000000E+00  0.50945335585E+03  0.52456425445E+03  0.12499974105E+03 0.  0.
    9000005    1    3    3    0    0  0.42780154099E+01  0.39832019111E+02  0.45599982899E+03  0.45775728853E+03  0.10000000000E+01 0.  0.
    9000005    1    3    3    0    0 -0.42780154099E+01 -0.39832019111E+02  0.53453526862E+02  0.66806965926E+02  0.10000000000E+01 0.  0.
<mgrwt>
<rscale>  0 0.12499974E+03</rscale>
<asrwt>0</asrwt>
<pdfrwt beam="2">  1        4 0.18888621E-02 0.12499974E+03</pdfrwt>
<pdfrwt beam="1">  1       -4 0.12925222E+00 0.12499974E+03</pdfrwt>
<totfact> 0.83828310E+02</totfact>
</mgrwt>
</event>
<event>
 5    1  0.1466870E-002  0.1249998E+03  0.7818608E-02  0.1235070E+00
         -4   -1    0    0    0  501 -0.00000000000E+00  0.00000000000E+00  0.58834282879E+01  0.60189391439E+01  0.12700000000E+01 0.  1.
          4   -1    0    0  501    0  0.00000000000E+00 -0.00000000000E+00 -0.65624403705E+03  0.65624526593E+03  0.12700000000E+01 0.  1.
         25    2    1    2    0    0  0.00000000000E+00  0.00000000000E+00 -0.65036060876E+03  0.66226420508E+03  0.12499982360E+03 0.  0.
    9000005    1    3    3    0    0  0.82230732890E+01 -0.33414675584E+01  0.25526905166E+01  0.92898099353E+01  0.10000000000E+01 0.  0.
    9000005    1    3    3    0    0 -0.82230732890E+01  0.33414675584E+01 -0.65291329928E+03  0.65297439514E+03  0.10000000000E+01 0.  0.
<mgrwt>
<rscale>  0 0.12499982E+03</rscale>
<asrwt>0</asrwt>
<pdfrwt beam="2">  1        4 0.16407786E+00 0.12499982E+03</pdfrwt>
<pdfrwt beam="1">  1       -4 0.14879518E-02 0.12499982E+03</pdfrwt>
<totfact> 0.66125321E+02</totfact>
</mgrwt>
</event>
<event>
 5    1  0.1466870E-002  0.1250149E+03  0.7818608E-02  0.1235046E+00
         -4   -1    0    0    0  501 -0.00000000000E+00  0.00000000000E+00  0.53237979018E+02  0.53253124884E+02  0.12700000000E+01 0.  1.
          4   -1    0    0  501    0  0.00000000000E+00 -0.00000000000E+00 -0.73359807830E+02  0.73370800083E+02  0.12700000000E+01 0.  1.
         25    2    1    2    0    0  0.00000000000E+00  0.00000000000E+00 -0.20121828812E+02  0.12662392497E+03  0.12501492063E+03 0.  0.
    9000005    1    3    3    0    0 -0.17005182440E+02  0.23038111507E+00 -0.70976071963E+02  0.72992000223E+02  0.10000000000E+01 0.  0.
    9000005    1    3    3    0    0  0.17005182440E+02 -0.23038111507E+00  0.50854243151E+02  0.53631924744E+02  0.10000000000E+01 0.  0.
<mgrwt>
<rscale>  0 0.12501492E+03</rscale>
<asrwt>0</asrwt>
<pdfrwt beam="2">  1        4 0.18343219E-01 0.12501492E+03</pdfrwt>
<pdfrwt beam="1">  1       -4 0.13312762E-01 0.12501492E+03</pdfrwt>
<totfact> 0.19740352E+03</totfact>
</mgrwt>
</event>
<event>
 5    1  0.1466870E-002  0.1249941E+03  0.7818608E-02  0.1235079E+00
         -4   -1    0    0    0  501 -0.00000000000E+00  0.00000000000E+00  0.58296245527E+02  0.58310077539E+02  0.12700000000E+01 0. -1.
          4   -1    0    0  501    0  0.00000000000E+00 -0.00000000000E+00 -0.66972761351E+02  0.66984801731E+02  0.12700000000E+01 0. -1.
         25    2    1    2    0    0  0.00000000000E+00  0.00000000000E+00 -0.86765158233E+01  0.12529487927E+03  0.12499409924E+03 0.  0.
    9000005    1    3    3    0    0 -0.56832679569E+01  0.72800162647E+01 -0.66289752597E+02  0.66937504217E+02  0.10000000000E+01 0.  0.
    9000005    1    3    3    0    0  0.56832679569E+01 -0.72800162647E+01  0.57613236774E+02  0.58357375052E+02  0.10000000000E+01 0.  0.
<mgrwt>
<rscale>  0 0.12499410E+03</rscale>
<asrwt>0</asrwt>
<pdfrwt beam="2">  1        4 0.16746424E-01 0.12499410E+03</pdfrwt>
<pdfrwt beam="1">  1       -4 0.14577295E-01 0.12499410E+03</pdfrwt>
<totfact> 0.19821808E+03</totfact>
</mgrwt>
</event>
<event>
 5    1  0.1466870E-002  0.1250005E+03  0.7818608E-02  0.1235069E+00
          4   -1    0    0  501    0  0.00000000000E+00  0.00000000000E+00  0.52821260595E+02  0.52836525916E+02  0.12700000000E+01 0.  1.
         -4   -1    0    0    0  501 -0.00000000000E+00 -0.00000000000E+00 -0.73921400280E+02  0.73932309035E+02  0.12700000000E+01 0.  1.
         25    2    1    2    0    0  0.00000000000E+00  0.00000000000E+00 -0.21100139685E+02  0.12676883495E+03  0.12500048648E+03 0.  0.
    9000005    1    3    3    0    0 -0.46355721210E+02  0.17528594299E+02 -0.49156651274E+02  0.69810320666E+02  0.10000000000E+01 0.  0.
    9000005    1    3    3    0    0  0.46355721210E+02 -0.17528594299E+02  0.28056511589E+02  0.56958514285E+02  0.10000000000E+01 0.  0.
<mgrwt>
<rscale>  0 0.12500049E+03</rscale>
<asrwt>0</asrwt>
<pdfrwt beam="1">  1        4 0.13208587E-01 0.12500049E+03</pdfrwt>
<pdfrwt beam="2">  1       -4 0.18483622E-01 0.12500049E+03</pdfrwt>
<totfact> 0.19739206E+03</totfact>
</mgrwt>
</event>
<event>
 5    1  0.1466870E-002  0.1249965E+03  0.7818608E-02  0.1235075E+00
         -4   -1    0    0    0  501 -0.00000000000E+00  0.00000000000E+00  0.79476214702E+02  0.79486361116E+02  0.12700000000E+01 0.  1.
          4   -1    0    0  501    0  0.00000000000E+00 -0.00000000000E+00 -0.49125694506E+02  0.49142107817E+02  0.12700000000E+01 0.  1.
         25    2    1    2    0    0  0.00000000000E+00  0.00000000000E+00  0.30350520196E+02  0.12862846893E+03  0.12499651573E+03 0.  0.
    9000005    1    3    3    0    0  0.50144996914E+02 -0.32505919712E+02  0.33978481157E+02  0.68750947002E+02  0.10000000000E+01 0.  0.
    9000005    1    3    3    0    0 -0.50144996914E+02  0.32505919712E+02 -0.36279609612E+01  0.59877521931E+02  0.10000000000E+01 0.  0.
<mgrwt>
<rscale>  0 0.12499652E+03</rscale>
<asrwt>0</asrwt>
<pdfrwt beam="2">  1        4 0.12284744E-01 0.12499652E+03</pdfrwt>
<pdfrwt beam="1">  1       -4 0.19872373E-01 0.12499652E+03</pdfrwt>
<totfact> 0.19640005E+03</totfact>
</mgrwt>
</event>
<event>
 5    1  0.1466870E-002  0.1249990E+03  0.7818608E-02  0.1235071E+00
          4   -1    0    0  501    0  0.00000000000E+00  0.00000000000E+00  0.82743093555E+01  0.83712063235E+01  0.12700000000E+01 0.  1.
         -4   -1    0    0    0  501 -0.00000000000E+00 -0.00000000000E+00 -0.46924058446E+03  0.46924230309E+03  0.12700000000E+01 0.  1.
         25    2    1    2    0    0  0.00000000000E+00  0.00000000000E+00 -0.46096627511E+03  0.47761350941E+03  0.12499903034E+03 0.  0.
    9000005    1    3    3    0    0 -0.54139755084E+02 -0.30358628880E+02 -0.25814999017E+03  0.26550927828E+03  0.10000000000E+01 0.  0.
    9000005    1    3    3    0    0  0.54139755084E+02  0.30358628880E+02 -0.20281628493E+03  0.21210423113E+03  0.10000000000E+01 0.  0.
<mgrwt>
<rscale>  0 0.12499903E+03</rscale>
<asrwt>0</asrwt>
<pdfrwt beam="1">  1        4 0.20809059E-02 0.12499903E+03</pdfrwt>
<pdfrwt beam="2">  1       -4 0.11732238E+00 0.12499903E+03</pdfrwt>
<totfact> 0.91263601E+02</totfact>
</mgrwt>
</event>
<event>
 5    1  0.1466870E-002  0.1250001E+03  0.7818608E-02  0.1235069E+00
         -4   -1    0    0    0  501 -0.00000000000E+00  0.00000000000E+00  0.37961363612E+03  0.37961576052E+03  0.12700000000E+01 0. -1.
          4   -1    0    0  501    0  0.00000000000E+00 -0.00000000000E+00 -0.10248735273E+02  0.10327123254E+02  0.12700000000E+01 0. -1.
         25    2    1    2    0    0  0.00000000000E+00  0.00000000000E+00  0.36936490085E+03  0.38994288377E+03  0.12500009048E+03 0.  0.
    9000005    1    3    3    0    0  0.71604644631E+01  0.32516158914E+02  0.19709675882E+02  0.38704575507E+02  0.10000000000E+01 0.  0.
    9000005    1    3    3    0    0 -0.71604644631E+01 -0.32516158914E+02  0.34965522497E+03  0.35123830826E+03  0.10000000000E+01 0.  0.
<mgrwt>
<rscale>  0 0.12500009E+03</rscale>
<asrwt>0</asrwt>
<pdfrwt beam="2">  1        4 0.25722480E-02 0.12500009E+03</pdfrwt>
<pdfrwt beam="1">  1       -4 0.94913467E-01 0.12500009E+03</pdfrwt>
<totfact> 0.10779312E+03</totfact>
</mgrwt>
</event>
<event>
 5    1  0.1466870E-002  0.1250032E+03  0.7818608E-02  0.1235064E+00
          4   -1    0    0  501    0  0.00000000000E+00  0.00000000000E+00  0.10113920120E+03  0.10114717455E+03  0.12700000000E+01 0. -1.
         -4   -1    0    0    0  501 -0.00000000000E+00 -0.00000000000E+00 -0.38604565537E+02  0.38625449905E+02  0.12700000000E+01 0. -1.
         25    2    1    2    0    0  0.00000000000E+00  0.00000000000E+00  0.62534635663E+02  0.13977262445E+03  0.12500322352E+03 0.  0.
    9000005    1    3    3    0    0  0.27195759431E+02 -0.39524546406E+02 -0.13509788348E+02  0.49852918479E+02  0.10000000000E+01 0.  0.
    9000005    1    3    3    0    0 -0.27195759431E+02  0.39524546406E+02  0.76044424011E+02  0.89919705976E+02  0.10000000000E+01 0.  0.
<mgrwt>
<rscale>  0 0.12500322E+03</rscale>
<asrwt>0</asrwt>
<pdfrwt beam="1">  1        4 0.25288407E-01 0.12500322E+03</pdfrwt>
<pdfrwt beam="2">  1       -4 0.96547487E-02 0.12500322E+03</pdfrwt>
<totfact> 0.19050548E+03</totfact>
</mgrwt>
</event>
<event>
 5    1  0.1466870E-002  0.1250095E+03  0.7818608E-02  0.1235054E+00
         -4   -1    0    0    0  501 -0.00000000000E+00  0.00000000000E+00  0.25601904814E+03  0.25602219808E+03  0.12700000000E+01 0. -1.
          4   -1    0    0  501    0  0.00000000000E+00 -0.00000000000E+00 -0.15230307398E+02  0.15283166015E+02  0.12700000000E+01 0. -1.
         25    2    1    2    0    0  0.00000000000E+00  0.00000000000E+00  0.24078874074E+03  0.27130536410E+03  0.12500953131E+03 0.  0.
    9000005    1    3    3    0    0  0.36476946023E+02 -0.50745411261E+02  0.12131865021E+03  0.13647299823E+03  0.10000000000E+01 0.  0.
    9000005    1    3    3    0    0 -0.36476946023E+02  0.50745411261E+02  0.11947009053E+03  0.13483236587E+03  0.10000000000E+01 0.  0.
<mgrwt>
<rscale>  0 0.12500953E+03</rscale>
<asrwt>0</asrwt>
<pdfrwt beam="2">  1        4 0.38145780E-02 0.12500953E+03</pdfrwt>
<pdfrwt beam="1">  1       -4 0.64011762E-01 0.12500953E+03</pdfrwt>
<totfact> 0.13812159E+03</totfact>
</mgrwt>
</event>
<event>
 5    1  0.1466870E-002  0.1249993E+03  0.7818608E-02  0.1235070E+00
         -4   -1    0    0    0  501 -0.00000000000E+00  0.00000000000E+00  0.16670868952E+03  0.16671352693E+03  0.12700000000E+01 0. -1.
          4   -1    0    0  501    0  0.00000000000E+00 -0.00000000000E+00 -0.23408936693E+02  0.23443361898E+02  0.12700000000E+01 0. -1.
         25    2    1    2    0    0  0.00000000000E+00  0.00000000000E+00  0.14329975282E+03  0.19015688883E+03  0.12499929283E+03 0.  0.
    9000005    1    3    3    0    0  0.15238258270E+02  0.60336563419E+02  0.62977285276E+02  0.88542892775E+02  0.10000000000E+01 0.  0.
    9000005    1    3    3    0    0 -0.15238258270E+02 -0.60336563419E+02  0.80322467548E+02  0.10161399605E+03  0.10000000000E+01 0.  0.
<mgrwt>
<rscale>  0 0.12499929E+03</rscale>
<asrwt>0</asrwt>
<pdfrwt beam="2">  1        4 0.58571420E-02 0.12499929E+03</pdfrwt>
<pdfrwt beam="1">  1       -4 0.41682080E-01 0.12499929E+03</pdfrwt>
<totfact> 0.16724187E+03</totfact>
</mgrwt>
</event>
<event>
 5    1  0.1466870E-002  0.1250024E+03  0.7818608E-02  0.1235066E+00
         -4   -1    0    0    0  501 -0.00000000000E+00  0.00000000000E+00  0.20284604506E+03  0.20285002069E+03  0.12700000000E+01 0. -1.
          4   -1    0    0  501    0  0.00000000000E+00 -0.00000000000E+00 -0.19232851841E+02  0.19274737091E+02  0.12700000000E+01 0. -1.
         25    2    1    2    0    0  0.00000000000E+00  0.00000000000E+00  0.18361319322E+03  0.22212475778E+03  0.12500241317E+03 0.  0.
    9000005    1    3    3    0    0 -0.59388991888E+02  0.19257703872E+02  0.96669542438E+02  0.11508219650E+03  0.10000000000E+01 0.  0.
    9000005    1    3    3    0    0  0.59388991888E+02 -0.19257703872E+02  0.86943650779E+02  0.10704256129E+03  0.10000000000E+01 0.  0.
<mgrwt>
<rscale>  0 0.12500241E+03</rscale>
<asrwt>0</asrwt>
<pdfrwt beam="2">  1        4 0.48139455E-02 0.12500241E+03</pdfrwt>
<pdfrwt beam="1">  1       -4 0.50717244E-01 0.12500241E+03</pdfrwt>
<totfact> 0.15471993E+03</totfact>
</mgrwt>
</event>
<event>
 5    1  0.1466870E-002  0.1249990E+03  0.7818608E-02  0.1235071E+00
          4   -1    0    0  501    0  0.00000000000E+00  0.00000000000E+00  0.16702515046E+02  0.16750728607E+02  0.12700000000E+01 0. -1.
         -4   -1    0    0    0  501 -0.00000000000E+00 -0.00000000000E+00 -0.23348127046E+03  0.23348472446E+03  0.12700000000E+01 0. -1.
         25    2    1    2    0    0  0.00000000000E+00  0.00000000000E+00 -0.21677875542E+03  0.25023545307E+03  0.12499901269E+03 0.  0.
    9000005    1    3    3    0    0 -0.45238887748E+02 -0.38262194777E+02 -0.14815799453E+03  0.15956924471E+03  0.10000000000E+01 0.  0.
    9000005    1    3    3    0    0  0.45238887748E+02  0.38262194777E+02 -0.68620760889E+02  0.90666208362E+02  0.10000000000E+01 0.  0.
<mgrwt>
<rscale>  0 0.12499901E+03</rscale>
<asrwt>0</asrwt>
<pdfrwt beam="1">  1        4 0.41820879E-02 0.12499901E+03</pdfrwt>
<pdfrwt beam="2">  1       -4 0.58376766E-01 0.12499901E+03</pdfrwt>
<totfact> 0.14490488E+03</totfact>
</mgrwt>
</event>
<event>
 5    1  0.1466870E-002  0.1250035E+03  0.7818608E-02  0.1235064E+00
         -4   -1    0    0    0  501 -0.00000000000E+00  0.00000000000E+00  0.27683589457E+02  0.27712705123E+02  0.12700000000E+01 0. -1.
          4   -1    0    0  501    0  0.00000000000E+00 -0.00000000000E+00 -0.14100517477E+03  0.14101089395E+03  0.12700000000E+01 0. -1.
         25    2    1    2    0    0  0.00000000000E+00  0.00000000000E+00 -0.11332158531E+03  0.16872359907E+03  0.12500348469E+03 0.  0.
    9000005    1    3    3    0    0 -0.27052062031E+02 -0.52902455606E+02 -0.30523533897E+02  0.66806960646E+02  0.10000000000E+01 0.  0.
    9000005    1    3    3    0    0  0.27052062031E+02  0.52902455606E+02 -0.82798051417E+02  0.10191663842E+03  0.10000000000E+01 0.  0.
<mgrwt>
<rscale>  0 0.12500348E+03</rscale>
<asrwt>0</asrwt>
<pdfrwt beam="2">  1        4 0.35255646E-01 0.12500348E+03</pdfrwt>
<pdfrwt beam="1">  1       -4 0.69252521E-02 0.12500348E+03</pdfrwt>
<totfact> 0.17653344E+03</totfact>
</mgrwt>
</event>
<event>
 5    1  0.1466870E-002  0.1250029E+03  0.7818608E-02  0.1235065E+00
         -4   -1    0    0    0  501 -0.00000000000E+00  0.00000000000E+00  0.36636990753E+02  0.36658996051E+02  0.12700000000E+01 0.  1.
          4   -1    0    0  501    0  0.00000000000E+00 -0.00000000000E+00 -0.10656759276E+03  0.10657515999E+03  0.12700000000E+01 0.  1.
         25    2    1    2    0    0  0.00000000000E+00  0.00000000000E+00 -0.69930602004E+02  0.14323415604E+03  0.12500293740E+03 0.  0.
    9000005    1    3    3    0    0  0.61518444878E+02  0.10963870766E+02 -0.34001108743E+02  0.71146334538E+02  0.10000000000E+01 0.  0.
    9000005    1    3    3    0    0 -0.61518444878E+02 -0.10963870766E+02 -0.35929493260E+02  0.72087821498E+02  0.10000000000E+01 0.  0.
<mgrwt>
<rscale>  0 0.12500294E+03</rscale>
<asrwt>0</asrwt>
<pdfrwt beam="2">  1        4 0.26645594E-01 0.12500294E+03</pdfrwt>
<pdfrwt beam="1">  1       -4 0.91629445E-02 0.12500294E+03</pdfrwt>
<totfact> 0.18874800E+03</totfact>
</mgrwt>
</event>
<event>
 5    1  0.1466870E-002  0.1250007E+03  0.7818608E-02  0.1235068E+00
          4   -1    0    0  501    0  0.00000000000E+00  0.00000000000E+00  0.18646198227E+02  0.18689398286E+02  0.12700000000E+01 0. -1.
         -4   -1    0    0    0  501 -0.00000000000E+00 -0.00000000000E+00 -0.20920791422E+03  0.20921176896E+03  0.12700000000E+01 0. -1.
         25    2    1    2    0    0  0.00000000000E+00  0.00000000000E+00 -0.19056171599E+03  0.22790116725E+03  0.12500069772E+03 0.  0.
    9000005    1    3    3    0    0  0.60901304280E+02  0.18269851222E+00 -0.69737104703E+02  0.92591932770E+02  0.10000000000E+01 0.  0.
    9000005    1    3    3    0    0 -0.60901304280E+02 -0.18269851222E+00 -0.12082461129E+03  0.13530923448E+03  0.10000000000E+01 0.  0.
<mgrwt>
<rscale>  0 0.12500070E+03</rscale>
<asrwt>0</asrwt>
<pdfrwt beam="1">  1        4 0.46674321E-02 0.12500070E+03</pdfrwt>
<pdfrwt beam="2">  1       -4 0.52307853E-01 0.12500070E+03</pdfrwt>
<totfact> 0.15262354E+03</totfact>
</mgrwt>
</event>
<event>
 5    1  0.1466870E-002  0.1250027E+03  0.7818608E-02  0.1235065E+00
         -4   -1    0    0    0  501 -0.00000000000E+00  0.00000000000E+00  0.17662370541E+03  0.17662827127E+03  0.12700000000E+01 0. -1.
          4   -1    0    0  501    0  0.00000000000E+00 -0.00000000000E+00 -0.22094105968E+02  0.22130576552E+02  0.12700000000E+01 0. -1.
         25    2    1    2    0    0  0.00000000000E+00  0.00000000000E+00  0.15452959944E+03  0.19875884783E+03  0.12500272991E+03 0.  0.
    9000005    1    3    3    0    0 -0.25985207414E+02 -0.67092038072E+01 -0.12472646076E+02  0.29610999987E+02  0.10000000000E+01 0.  0.
    9000005    1    3    3    0    0  0.25985207414E+02  0.67092038072E+01  0.16700224552E+03  0.16914784784E+03  0.10000000000E+01 0.  0.
<mgrwt>
<rscale>  0 0.12500273E+03</rscale>
<asrwt>0</asrwt>
<pdfrwt beam="2">  1        4 0.55286561E-02 0.12500273E+03</pdfrwt>
<pdfrwt beam="1">  1       -4 0.44161056E-01 0.12500273E+03</pdfrwt>
<totfact> 0.16370826E+03</totfact>
</mgrwt>
</event>
<event>
 5    1  0.1466870E-002  0.1250050E+03  0.7818608E-02  0.1235062E+00
         -4   -1    0    0    0  501 -0.00000000000E+00  0.00000000000E+00  0.10000229442E+03  0.10001035841E+03  0.12700000000E+01 0.  1.
          4   -1    0    0  501    0  0.00000000000E+00 -0.00000000000E+00 -0.39044746409E+02  0.39065395456E+02  0.12700000000E+01 0.  1.
         25    2    1    2    0    0  0.00000000000E+00  0.00000000000E+00  0.60957548011E+02  0.13907575387E+03  0.12500497052E+03 0.  0.
    9000005    1    3    3    0    0 -0.38651327849E+02 -0.47140531256E+02  0.15167165579E+02  0.62826727938E+02  0.10000000000E+01 0.  0.
    9000005    1    3    3    0    0  0.38651327849E+02  0.47140531256E+02  0.45790382432E+02  0.76249025927E+02  0.10000000000E+01 0.  0.
<mgrwt>
<rscale>  0 0.12500497E+03</rscale>
<asrwt>0</asrwt>
<pdfrwt beam="2">  1        4 0.97647758E-02 0.12500497E+03</pdfrwt>
<pdfrwt beam="1">  1       -4 0.25004162E-01 0.12500497E+03</pdfrwt>
<totfact> 0.19085513E+03</totfact>
</mgrwt>
</event>
<event>
 5    1  0.1466870E-002  0.1250026E+03  0.7818608E-02  0.1235065E+00
         -4   -1    0    0    0  501 -0.00000000000E+00  0.00000000000E+00  0.76535725618E+02  0.76546261802E+02  0.12700000000E+01 0.  1.
          4   -1    0    0  501    0  0.00000000000E+00 -0.00000000000E+00 -0.51018402732E+02  0.51034207326E+02  0.12700000000E+01 0.  1.
         25    2    1    2    0    0  0.00000000000E+00  0.00000000000E+00  0.25517322885E+02  0.12758046913E+03  0.12500256932E+03 0.  0.
    9000005    1    3    3    0    0  0.44962862677E+02 -0.43392479501E+02  0.11820861551E+02  0.63602665551E+02  0.10000000000E+01 0.  0.
    9000005    1    3    3    0    0 -0.44962862677E+02  0.43392479501E+02  0.13696461334E+02  0.63977803576E+02  0.10000000000E+01 0.  0.
<mgrwt>
<rscale>  0 0.12500257E+03</rscale>
<asrwt>0</asrwt>
<pdfrwt beam="2">  1        4 0.12757893E-01 0.12500257E+03</pdfrwt>
<pdfrwt beam="1">  1       -4 0.19137224E-01 0.12500257E+03</pdfrwt>
<totfact> 0.19694212E+03</totfact>
</mgrwt>
</event>
<event>
 5    1  0.1466870E-002  0.1249996E+03  0.7818608E-02  0.1235070E+00
          4   -1    0    0  501    0  0.00000000000E+00  0.00000000000E+00  0.56273832035E+02  0.56288161028E+02  0.12700000000E+01 0. -1.
         -4   -1    0    0    0  501 -0.00000000000E+00 -0.00000000000E+00 -0.69385653130E+02  0.69397274876E+02  0.12700000000E+01 0. -1.
         25    2    1    2    0    0  0.00000000000E+00  0.00000000000E+00 -0.13111821094E+02  0.12568543590E+03  0.12499963578E+03 0.  0.
    9000005    1    3    3    0    0  0.25779434793E+02 -0.54118596778E+02 -0.24311373263E+02  0.64695012523E+02  0.10000000000E+01 0.  0.
    9000005    1    3    3    0    0 -0.25779434793E+02  0.54118596778E+02  0.11199552169E+02  0.60990423381E+02  0.10000000000E+01 0.  0.
<mgrwt>
<rscale>  0 0.12499964E+03</rscale>
<asrwt>0</asrwt>
<pdfrwt beam="1">  1        4 0.14071702E-01 0.12499964E+03</pdfrwt>
<pdfrwt beam="2">  1       -4 0.17349657E-01 0.12499964E+03</pdfrwt>
<totfact> 0.19798097E+03</totfact>
</mgrwt>
</event>
<event>
 5    1  0.1466870E-002  0.1249991E+03  0.7818608E-02  0.1235071E+00
          4   -1    0    0  501    0  0.00000000000E+00  0.00000000000E+00  0.73303812388E+02  0.73314813037E+02  0.12700000000E+01 0.  1.
         -4   -1    0    0    0  501 -0.00000000000E+00 -0.00000000000E+00 -0.53265187232E+02  0.53280325364E+02  0.12700000000E+01 0.  1.
         25    2    1    2    0    0  0.00000000000E+00  0.00000000000E+00  0.20038625156E+02  0.12659513840E+03  0.12499913027E+03 0.  0.
    9000005    1    3    3    0    0 -0.33166956394E+02  0.21520217060E+01  0.63614917623E+02  0.71781167015E+02  0.10000000000E+01 0.  0.
    9000005    1    3    3    0    0  0.33166956394E+02 -0.21520217060E+01 -0.43576292467E+02  0.54813971386E+02  0.10000000000E+01 0.  0.
<mgrwt>
<rscale>  0 0.12499913E+03</rscale>
<asrwt>0</asrwt>
<pdfrwt beam="1">  1        4 0.18329220E-01 0.12499913E+03</pdfrwt>
<pdfrwt beam="2">  1       -4 0.13319564E-01 0.12499913E+03</pdfrwt>
<totfact> 0.19749195E+03</totfact>
</mgrwt>
</event>
<event>
 5    1  0.1466870E-002  0.1250031E+03  0.7818608E-02  0.1235064E+00
         -4   -1    0    0    0  501 -0.00000000000E+00  0.00000000000E+00  0.12345593827E+03  0.12346247038E+03  0.12700000000E+01 0. -1.
          4   -1    0    0  501    0  0.00000000000E+00 -0.00000000000E+00 -0.31622289496E+02  0.31647781802E+02  0.12700000000E+01 0. -1.
         25    2    1    2    0    0  0.00000000000E+00  0.00000000000E+00  0.91833648770E+02  0.15511025219E+03  0.12500308511E+03 0.  0.
    9000005    1    3    3    0    0  0.14800101625E+02 -0.20956285509E+02  0.11662612785E+03  0.11941885365E+03  0.10000000000E+01 0.  0.
    9000005    1    3    3    0    0 -0.14800101625E+02  0.20956285509E+02 -0.24792479079E+02  0.35691398534E+02  0.10000000000E+01 0.  0.
<mgrwt>
<rscale>  0 0.12500309E+03</rscale>
<asrwt>0</asrwt>
<pdfrwt beam="2">  1        4 0.79095755E-02 0.12500309E+03</pdfrwt>
<pdfrwt beam="1">  1       -4 0.30867987E-01 0.12500309E+03</pdfrwt>
<totfact> 0.18289018E+03</totfact>
</mgrwt>
</event>
<event>
 5    1  0.1466870E-002  0.1250008E+03  0.7818608E-02  0.1235068E+00
          4   -1    0    0  501    0  0.00000000000E+00  0.00000000000E+00  0.75366808857E+03  0.75366915860E+03  0.12700000000E+01 0. -1.
         -4   -1    0    0    0  501 -0.00000000000E+00 -0.00000000000E+00 -0.51041628321E+01  0.52597887996E+01  0.12700000000E+01 0. -1.
         25    2    1    2    0    0  0.00000000000E+00  0.00000000000E+00  0.74856392573E+03  0.75892894740E+03  0.12500078515E+03 0.  0.
    9000005    1    3    3    0    0 -0.31852735446E+01 -0.94383866687E+01  0.74884658952E+03  0.74891350885E+03  0.10000000000E+01 0.  0.
    9000005    1    3    3    0    0  0.31852735446E+01  0.94383866687E+01 -0.28266378242E+00  0.10015438546E+02  0.10000000000E+01 0.  0.
<mgrwt>
<rscale>  0 0.12500079E+03</rscale>
<asrwt>0</asrwt>
<pdfrwt beam="1">  1        4 0.18843667E+00 0.12500079E+03</pdfrwt>
<pdfrwt beam="2">  1       -4 0.12956273E-02 0.12500079E+03</pdfrwt>
<totfact> 0.56223066E+02</totfact>
</mgrwt>
</event>
<event>
 5    1  0.1466870E-002  0.1249991E+03  0.7818608E-02  0.1235071E+00
         -4   -1    0    0    0  501 -0.00000000000E+00  0.00000000000E+00  0.26022493696E+03  0.26022803599E+03  0.12700000000E+01 0. -1.
          4   -1    0    0  501    0  0.00000000000E+00 -0.00000000000E+00 -0.14980770847E+02  0.15034506815E+02  0.12700000000E+01 0. -1.
         25    2    1    2    0    0  0.00000000000E+00  0.00000000000E+00  0.24524416611E+03  0.27526254280E+03  0.12499906583E+03 0.  0.
    9000005    1    3    3    0    0 -0.56332751980E+02  0.26361028392E+02  0.13600052735E+03  0.14955074792E+03  0.10000000000E+01 0.  0.
    9000005    1    3    3    0    0  0.56332751980E+02 -0.26361028392E+02  0.10924363876E+03  0.12571179488E+03  0.10000000000E+01 0.  0.
<mgrwt>
<rscale>  0 0.12499907E+03</rscale>
<asrwt>0</asrwt>
<pdfrwt beam="2">  1        4 0.37522971E-02 0.12499907E+03</pdfrwt>
<pdfrwt beam="1">  1       -4 0.65063338E-01 0.12499907E+03</pdfrwt>
<totfact> 0.13694128E+03</totfact>
</mgrwt>
</event>
<event>
 5    1  0.1466870E-002  0.1250008E+03  0.7818608E-02  0.1235068E+00
          4   -1    0    0  501    0  0.00000000000E+00  0.00000000000E+00  0.48568162818E+03  0.48568328863E+03  0.12700000000E+01 0. -1.
         -4   -1    0    0    0  501 -0.00000000000E+00 -0.00000000000E+00 -0.79910986082E+01  0.80913878269E+01  0.12700000000E+01 0. -1.
         25    2    1    2    0    0  0.00000000000E+00  0.00000000000E+00  0.47769052957E+03  0.49377467645E+03  0.12500075626E+03 0.  0.
    9000005    1    3    3    0    0  0.80915220665E+01  0.59829411443E+02  0.30257248047E+03  0.30853871255E+03  0.10000000000E+01 0.  0.
    9000005    1    3    3    0    0 -0.80915220665E+01 -0.59829411443E+02  0.17511804910E+03  0.18523596390E+03  0.10000000000E+01 0.  0.
<mgrwt>
<rscale>  0 0.12500076E+03</rscale>
<asrwt>0</asrwt>
<pdfrwt beam="1">  1        4 0.12143314E+00 0.12500076E+03</pdfrwt>
<pdfrwt beam="2">  1       -4 0.20105185E-02 0.12500076E+03</pdfrwt>
<totfact> 0.88603953E+02</totfact>
</mgrwt>
</event>
<event>
 5    1  0.1466870E-002  0.1250002E+03  0.7818608E-02  0.1235069E+00
          4   -1    0    0  501    0  0.00000000000E+00  0.00000000000E+00  0.55667185778E+01  0.57097509337E+01  0.12700000000E+01 0.  1.
         -4   -1    0    0    0  501 -0.00000000000E+00 -0.00000000000E+00 -0.69267269681E+03  0.69267386107E+03  0.12700000000E+01 0.  1.
         25    2    1    2    0    0  0.00000000000E+00  0.00000000000E+00 -0.68710597824E+03  0.69838361201E+03  0.12500017676E+03 0.  0.
    9000005    1    3    3    0    0  0.19720831402E+02  0.45228166530E+02 -0.55781971448E+03  0.55999851080E+03  0.10000000000E+01 0.  0.
    9000005    1    3    3    0    0 -0.19720831402E+02 -0.45228166530E+02 -0.12928626376E+03  0.13838510121E+03  0.10000000000E+01 0.  0.
<mgrwt>
<rscale>  0 0.12500018E+03</rscale>
<asrwt>0</asrwt>
<pdfrwt beam="1">  1        4 0.14097066E-02 0.12500018E+03</pdfrwt>
<pdfrwt beam="2">  1       -4 0.17318591E+00 0.12500018E+03</pdfrwt>
<totfact> 0.62234004E+02</totfact>
</mgrwt>
</event>
<event>
 5    1  0.1466870E-002  0.1249995E+03  0.7818608E-02  0.1235070E+00
         -4   -1    0    0    0  501 -0.00000000000E+00  0.00000000000E+00  0.13287941536E+03  0.13288548426E+03  0.12700000000E+01 0. -1.
          4   -1    0    0  501    0  0.00000000000E+00 -0.00000000000E+00 -0.29376257735E+02  0.29403697362E+02  0.12700000000E+01 0. -1.
         25    2    1    2    0    0  0.00000000000E+00  0.00000000000E+00  0.10350315763E+03  0.16228918162E+03  0.12499949933E+03 0.  0.
    9000005    1    3    3    0    0  0.10004433860E+02 -0.57987698386E+02  0.79064353938E+02  0.98563857091E+02  0.10000000000E+01 0.  0.
    9000005    1    3    3    0    0 -0.10004433860E+02  0.57987698386E+02  0.24438803690E+02  0.63725324532E+02  0.10000000000E+01 0.  0.
<mgrwt>
<rscale>  0 0.12499950E+03</rscale>
<asrwt>0</asrwt>
<pdfrwt beam="2">  1        4 0.73482531E-02 0.12499950E+03</pdfrwt>
<pdfrwt beam="1">  1       -4 0.33224042E-01 0.12499950E+03</pdfrwt>
<totfact> 0.17950760E+03</totfact>
</mgrwt>
</event>
<event>
 5    1  0.1466870E-002  0.1249981E+03  0.7818608E-02  0.1235072E+00
         -4   -1    0    0    0  501 -0.00000000000E+00  0.00000000000E+00  0.36294585986E+03  0.36294808181E+03  0.12700000000E+01 0. -1.
          4   -1    0    0  501    0  0.00000000000E+00 -0.00000000000E+00 -0.10722568497E+02  0.10797517084E+02  0.12700000000E+01 0. -1.
         25    2    1    2    0    0  0.00000000000E+00  0.00000000000E+00  0.35222329136E+03  0.37374559889E+03  0.12499810284E+03 0.  0.
    9000005    1    3    3    0    0  0.53941601126E+02  0.26843886842E+02  0.22568100387E+03  0.23358768396E+03  0.10000000000E+01 0.  0.
    9000005    1    3    3    0    0 -0.53941601126E+02 -0.26843886842E+02  0.12654228750E+03  0.14015791493E+03  0.10000000000E+01 0.  0.
<mgrwt>
<rscale>  0 0.12499810E+03</rscale>
<asrwt>0</asrwt>
<pdfrwt beam="2">  1        4 0.26902886E-02 0.12499810E+03</pdfrwt>
<pdfrwt beam="1">  1       -4 0.90746105E-01 0.12499810E+03</pdfrwt>
<totfact> 0.11131253E+03</totfact>
</mgrwt>
</event>
<event>
 5    1  0.1466870E-002  0.1250011E+03  0.7818608E-02  0.1235067E+00
         -4   -1    0    0    0  501 -0.00000000000E+00  0.00000000000E+00  0.23423997302E+03  0.23424341583E+03  0.12700000000E+01 0. -1.
          4   -1    0    0  501    0  0.00000000000E+00 -0.00000000000E+00 -0.16648830258E+02  0.16697198835E+02  0.12700000000E+01 0. -1.
         25    2    1    2    0    0  0.00000000000E+00  0.00000000000E+00  0.21759114276E+03  0.25094061467E+03  0.12500114672E+03 0.  0.
    9000005    1    3    3    0    0  0.57371034733E+02 -0.22473316505E+02  0.12973878990E+03  0.14363021683E+03  0.10000000000E+01 0.  0.
    9000005    1    3    3    0    0 -0.57371034733E+02  0.22473316505E+02  0.87852352858E+02  0.10731039784E+03  0.10000000000E+01 0.  0.
<mgrwt>
<rscale>  0 0.12500115E+03</rscale>
<asrwt>0</asrwt>
<pdfrwt beam="2">  1        4 0.41686840E-02 0.12500115E+03</pdfrwt>
<pdfrwt beam="1">  1       -4 0.58566469E-01 0.12500115E+03</pdfrwt>
<totfact> 0.14466368E+03</totfact>
</mgrwt>
</event>
<event>
 5    1  0.1466870E-002  0.1249996E+03  0.7818608E-02  0.1235070E+00
          4   -1    0    0  501    0  0.00000000000E+00  0.00000000000E+00  0.52239357103E+02  0.52254792417E+02  0.12700000000E+01 0.  1.
         -4   -1    0    0    0  501 -0.00000000000E+00 -0.00000000000E+00 -0.74743604691E+02  0.74754393464E+02  0.12700000000E+01 0.  1.
         25    2    1    2    0    0  0.00000000000E+00  0.00000000000E+00 -0.22504247588E+02  0.12700918588E+03  0.12499956855E+03 0.  0.
    9000005    1    3    3    0    0  0.49404425300E+02  0.29172094174E+02  0.13913269024E+02  0.59045638049E+02  0.10000000000E+01 0.  0.
    9000005    1    3    3    0    0 -0.49404425300E+02 -0.29172094174E+02 -0.36417516612E+02  0.67963547832E+02  0.10000000000E+01 0.  0.
<mgrwt>
<rscale>  0 0.12499957E+03</rscale>
<asrwt>0</asrwt>
<pdfrwt beam="1">  1        4 0.13063117E-01 0.12499957E+03</pdfrwt>
<pdfrwt beam="2">  1       -4 0.18689179E-01 0.12499957E+03</pdfrwt>
<totfact> 0.19726682E+03</totfact>
</mgrwt>
</event>
<event>
 5    1  0.1466870E-002  0.1249988E+03  0.7818608E-02  0.1235071E+00
          4   -1    0    0  501    0  0.00000000000E+00  0.00000000000E+00  0.56260541731E+03  0.56260685073E+03  0.12700000000E+01 0. -1.
         -4   -1    0    0    0  501 -0.00000000000E+00 -0.00000000000E+00 -0.68834754972E+01  0.69996524857E+01  0.12700000000E+01 0. -1.
         25    2    1    2    0    0  0.00000000000E+00  0.00000000000E+00  0.55572194181E+03  0.56960650321E+03  0.12499876756E+03 0.  0.
    9000005    1    3    3    0    0 -0.17628107642E+02 -0.24249116434E+02  0.52771871618E+03  0.52857053762E+03  0.10000000000E+01 0.  0.
    9000005    1    3    3    0    0  0.17628107642E+02  0.24249116434E+02  0.28003225631E+02  0.41035965599E+02  0.10000000000E+01 0.  0.
<mgrwt>
<rscale>  0 0.12499877E+03</rscale>
<asrwt>0</asrwt>
<pdfrwt beam="1">  1        4 0.14066608E+00 0.12499877E+03</pdfrwt>
<pdfrwt beam="2">  1       -4 0.17355699E-02 0.12499877E+03</pdfrwt>
<totfact> 0.77467365E+02</totfact>
</mgrwt>
</event>
<event>
 5    1  0.1466870E-002  0.1249987E+03  0.7818608E-02  0.1235071E+00
         -4   -1    0    0    0  501 -0.00000000000E+00  0.00000000000E+00  0.56644324845E+02  0.56658560140E+02  0.12700000000E+01 0. -1.
          4   -1    0    0  501    0  0.00000000000E+00 -0.00000000000E+00 -0.68930862595E+02  0.68942561006E+02  0.12700000000E+01 0. -1.
         25    2    1    2    0    0  0.00000000000E+00  0.00000000000E+00 -0.12286537750E+02  0.12560112115E+03  0.12499873049E+03 0.  0.
    9000005    1    3    3    0    0  0.29169360337E+02  0.54785804588E+02  0.11605079061E+01  0.62086091401E+02  0.10000000000E+01 0.  0.
    9000005    1    3    3    0    0 -0.29169360337E+02 -0.54785804588E+02 -0.13447045656E+02  0.63515029746E+02  0.10000000000E+01 0.  0.
<mgrwt>
<rscale>  0 0.12499873E+03</rscale>
<asrwt>0</asrwt>
<pdfrwt beam="2">  1        4 0.17235957E-01 0.12499873E+03</pdfrwt>
<pdfrwt beam="1">  1       -4 0.14164323E-01 0.12499873E+03</pdfrwt>
<totfact> 0.19803078E+03</totfact>
</mgrwt>
</event>
<event>
 5    1  0.1466870E-002  0.1249989E+03  0.7818608E-02  0.1235071E+00
          4   -1    0    0  501    0  0.00000000000E+00  0.00000000000E+00  0.90056702705E+01  0.90947785581E+01  0.12700000000E+01 0. -1.
         -4   -1    0    0    0  501 -0.00000000000E+00 -0.00000000000E+00 -0.43152168332E+03  0.43152355217E+03  0.12700000000E+01 0. -1.
         25    2    1    2    0    0  0.00000000000E+00  0.00000000000E+00 -0.42251601305E+03  0.44061833073E+03  0.12499892835E+03 0.  0.
    9000005    1    3    3    0    0 -0.26538932867E+02  0.52112739108E+02 -0.13361800146E+03  0.14585891419E+03  0.10000000000E+01 0.  0.
    9000005    1    3    3    0    0  0.26538932867E+02 -0.52112739108E+02 -0.28889801159E+03  0.29475941654E+03  0.10000000000E+01 0.  0.
<mgrwt>
<rscale>  0 0.12499893E+03</rscale>
<asrwt>0</asrwt>
<pdfrwt beam="1">  1        4 0.22627912E-02 0.12499893E+03</pdfrwt>
<pdfrwt beam="2">  1       -4 0.10789172E+00 0.12499893E+03</pdfrwt>
<totfact> 0.97728516E+02</totfact>
</mgrwt>
</event>
<event>
 5    1  0.1466870E-002  0.1249991E+03  0.7818608E-02  0.1235071E+00
         -4   -1    0    0    0  501 -0.00000000000E+00  0.00000000000E+00  0.16093153248E+02  0.16143186843E+02  0.12700000000E+01 0. -1.
          4   -1    0    0  501    0  0.00000000000E+00 -0.00000000000E+00 -0.24229560818E+03  0.24229893653E+03  0.12700000000E+01 0. -1.
         25    2    1    2    0    0  0.00000000000E+00  0.00000000000E+00 -0.22620245493E+03  0.25844212337E+03  0.12499912206E+03 0.  0.
    9000005    1    3    3    0    0  0.58980762942E+02 -0.19675646714E+02 -0.10013425743E+03  0.11787167167E+03  0.10000000000E+01 0.  0.
    9000005    1    3    3    0    0 -0.58980762942E+02  0.19675646714E+02 -0.12606819750E+03  0.14057045170E+03  0.10000000000E+01 0.  0.
<mgrwt>
<rscale>  0 0.12499912E+03</rscale>
<asrwt>0</asrwt>
<pdfrwt beam="2">  1        4 0.60580561E-01 0.12499912E+03</pdfrwt>
<pdfrwt beam="1">  1       -4 0.40299593E-02 0.12499912E+03</pdfrwt>
<totfact> 0.14221602E+03</totfact>
</mgrwt>
</event>
<event>
 5    1  0.1466870E-002  0.1249955E+03  0.7818608E-02  0.1235076E+00
         -4   -1    0    0    0  501 -0.00000000000E+00  0.00000000000E+00  0.70340273921E+01  0.71477577849E+01  0.12700000000E+01 0.  1.
          4   -1    0    0  501    0  0.00000000000E+00 -0.00000000000E+00 -0.55072881466E+03  0.55073027899E+03  0.12700000000E+01 0.  1.
         25    2    1    2    0    0  0.00000000000E+00  0.00000000000E+00 -0.54369478727E+03  0.55787803678E+03  0.12499552878E+03 0.  0.
    9000005    1    3    3    0    0  0.61023235833E+02  0.10894731588E+02 -0.23657974858E+03  0.24456800266E+03  0.10000000000E+01 0.  0.
    9000005    1    3    3    0    0 -0.61023235833E+02 -0.10894731588E+02 -0.30711503869E+03  0.31331003411E+03  0.10000000000E+01 0.  0.
<mgrwt>
<rscale>  0 0.12499553E+03</rscale>
<asrwt>0</asrwt>
<pdfrwt beam="2">  1        4 0.13769646E+00 0.12499553E+03</pdfrwt>
<pdfrwt beam="1">  1       -4 0.17729081E-02 0.12499553E+03</pdfrwt>
<totfact> 0.79079524E+02</totfact>
</mgrwt>
</event>
<event>
 5    1  0.1466870E-002  0.1249992E+03  0.7818608E-02  0.1235071E+00
          4   -1    0    0  501    0  0.00000000000E+00  0.00000000000E+00  0.37331747585E+03  0.37331963607E+03  0.12700000000E+01 0. -1.
         -4   -1    0    0    0  501 -0.00000000000E+00 -0.00000000000E+00 -0.10422738387E+02  0.10499827403E+02  0.12700000000E+01 0. -1.
         25    2    1    2    0    0  0.00000000000E+00  0.00000000000E+00  0.36289473746E+03  0.38381946347E+03  0.12499916024E+03 0.  0.
    9000005    1    3    3    0    0 -0.19650909553E+02  0.30916172955E+02  0.25989164530E+02  0.44926658783E+02  0.10000000000E+01 0.  0.
    9000005    1    3    3    0    0  0.19650909553E+02 -0.30916172955E+02  0.33690557293E+03  0.33889280469E+03  0.10000000000E+01 0.  0.
<mgrwt>
<rscale>  0 0.12499916E+03</rscale>
<asrwt>0</asrwt>
<pdfrwt beam="1">  1        4 0.93339269E-01 0.12499916E+03</pdfrwt>
<pdfrwt beam="2">  1       -4 0.26155909E-02 0.12499916E+03</pdfrwt>
<totfact> 0.10910471E+03</totfact>
</mgrwt>
</event>
<event>
 5    1  0.1466870E-002  0.1250004E+03  0.7818608E-02  0.1235069E+00
         -4   -1    0    0    0  501 -0.00000000000E+00  0.00000000000E+00  0.57026682254E+01  0.58423732240E+01  0.12700000000E+01 0.  1.
          4   -1    0    0  501    0  0.00000000000E+00 -0.00000000000E+00 -0.67656181677E+03  0.67656300876E+03  0.12700000000E+01 0.  1.
         25    2    1    2    0    0  0.00000000000E+00  0.00000000000E+00 -0.67085914855E+03  0.68240538198E+03  0.12500043265E+03 0.  0.
    9000005    1    3    3    0    0  0.54597148180E+00  0.12856122674E+02 -0.15812081646E+01  0.13003007126E+02  0.10000000000E+01 0.  0.
    9000005    1    3    3    0    0 -0.54597148180E+00 -0.12856122674E+02 -0.66927794038E+03  0.66940237485E+03  0.10000000000E+01 0.  0.
<mgrwt>
<rscale>  0 0.12500043E+03</rscale>
<asrwt>0</asrwt>
<pdfrwt beam="2">  1        4 0.16915780E+00 0.12500043E+03</pdfrwt>
<pdfrwt beam="1">  1       -4 0.14432815E-02 0.12500043E+03</pdfrwt>
<totfact> 0.63921110E+02</totfact>
</mgrwt>
</event>
<event>
 5    1  0.1466870E-002  0.1249994E+03  0.7818608E-02  0.1235070E+00
          4   -1    0    0  501    0  0.00000000000E+00  0.00000000000E+00  0.23945194661E+02  0.23978850000E+02  0.12700000000E+01 0. -1.
         -4   -1    0    0    0  501 -0.00000000000E+00 -0.00000000000E+00 -0.16298063350E+03  0.16298558156E+03  0.12700000000E+01 0. -1.
         25    2    1    2    0    0  0.00000000000E+00  0.00000000000E+00 -0.13903543884E+03  0.18696443156E+03  0.12499938166E+03 0.  0.
    9000005    1    3    3    0    0 -0.36224163589E+02  0.50722428115E+02 -0.62785867797E+02  0.88476098109E+02  0.10000000000E+01 0.  0.
    9000005    1    3    3    0    0  0.36224163589E+02 -0.50722428115E+02 -0.76249571042E+02  0.98488333450E+02  0.10000000000E+01 0.  0.
<mgrwt>
<rscale>  0 0.12499938E+03</rscale>
<asrwt>0</asrwt>
<pdfrwt beam="1">  1        4 0.59911246E-02 0.12499938E+03</pdfrwt>
<pdfrwt beam="2">  1       -4 0.40749981E-01 0.12499938E+03</pdfrwt>
<totfact> 0.16857908E+03</totfact>
</mgrwt>
</event>
<event>
 5    1  0.1466870E-002  0.1249983E+03  0.7818608E-02  0.1235072E+00
         -4   -1    0    0    0  501 -0.00000000000E+00  0.00000000000E+00  0.33942159925E+03  0.33942397519E+03  0.12700000000E+01 0. -1.
          4   -1    0    0  501    0  0.00000000000E+00 -0.00000000000E+00 -0.11470775239E+02  0.11540865851E+02  0.12700000000E+01 0. -1.
         25    2    1    2    0    0  0.00000000000E+00  0.00000000000E+00  0.32795082401E+03  0.35096484104E+03  0.12499830671E+03 0.  0.
    9000005    1    3    3    0    0 -0.58086170141E+02 -0.10064500662E+02  0.22218792510E+03  0.22987773141E+03  0.10000000000E+01 0.  0.
    9000005    1    3    3    0    0  0.58086170141E+02  0.10064500662E+02  0.10576289890E+03  0.12108710963E+03  0.10000000000E+01 0.  0.
<mgrwt>
<rscale>  0 0.12499831E+03</rscale>
<asrwt>0</asrwt>
<pdfrwt beam="2">  1        4 0.28767523E-02 0.12499831E+03</pdfrwt>
<pdfrwt beam="1">  1       -4 0.84864454E-01 0.12499831E+03</pdfrwt>
<totfact> 0.11654792E+03</totfact>
</mgrwt>
</event>
<event>
 5    1  0.1466870E-002  0.1249995E+03  0.7818608E-02  0.1235070E+00
         -4   -1    0    0    0  501 -0.00000000000E+00  0.00000000000E+00  0.83869046337E+03  0.83869142493E+03  0.12700000000E+01 0.  1.
          4   -1    0    0  501    0  0.00000000000E+00 -0.00000000000E+00 -0.45699661830E+01  0.47431520020E+01  0.12700000000E+01 0.  1.
         25    2    1    2    0    0  0.00000000000E+00  0.00000000000E+00  0.83412049719E+03  0.84343457693E+03  0.12499952693E+03 0.  0.
    9000005    1    3    3    0    0  0.10836164338E+01 -0.57373143322E+02  0.25008599890E+03  0.25658694169E+03  0.10000000000E+01 0.  0.
    9000005    1    3    3    0    0 -0.10836164338E+01  0.57373143322E+02  0.58403449829E+03  0.58684763524E+03  0.10000000000E+01 0.  0.
<mgrwt>
<rscale>  0 0.12499953E+03</rscale>
<asrwt>0</asrwt>
<pdfrwt beam="2">  1        4 0.11642600E-02 0.12499953E+03</pdfrwt>
<pdfrwt beam="1">  1       -4 0.20969438E+00 0.12499953E+03</pdfrwt>
<totfact> 0.48771908E+02</totfact>
</mgrwt>
</event>
<event>
 5    1  0.1466870E-002  0.1250000E+03  0.7818608E-02  0.1235069E+00
          4   -1    0    0  501    0  0.00000000000E+00  0.00000000000E+00  0.18129157635E+02  0.18173586782E+02  0.12700000000E+01 0. -1.
         -4   -1    0    0    0  501 -0.00000000000E+00 -0.00000000000E+00 -0.21515774771E+03  0.21516149586E+03  0.12700000000E+01 0. -1.
         25    2    1    2    0    0  0.00000000000E+00  0.00000000000E+00 -0.19702859008E+03  0.23333508264E+03  0.12499998193E+03 0.  0.
    9000005    1    3    3    0    0  0.30290476583E+02 -0.54477089370E+02 -0.10685872066E+03  0.12371359028E+03  0.10000000000E+01 0.  0.
    9000005    1    3    3    0    0 -0.30290476583E+02  0.54477089370E+02 -0.90169869417E+02  0.10962149237E+03  0.10000000000E+01 0.  0.
<mgrwt>
<rscale>  0 0.12499998E+03</rscale>
<asrwt>0</asrwt>
<pdfrwt beam="1">  1        4 0.45383122E-02 0.12499998E+03</pdfrwt>
<pdfrwt beam="2">  1       -4 0.53795451E-01 0.12499998E+03</pdfrwt>
<totfact> 0.15068877E+03</totfact>
</mgrwt>
</event>
<event>
 5    1  0.1466870E-002  0.1249993E+03  0.7818608E-02  0.1235070E+00
         -4   -1    0    0    0  501 -0.00000000000E+00  0.00000000000E+00  0.37672602612E+03  0.37672816679E+03  0.12700000000E+01 0.  1.
          4   -1    0    0  501    0  0.00000000000E+00 -0.00000000000E+00 -0.10327750556E+02  0.10405543308E+02  0.12700000000E+01 0.  1.
         25    2    1    2    0    0  0.00000000000E+00  0.00000000000E+00  0.36639827556E+03  0.38713371010E+03  0.12499925264E+03 0.  0.
    9000005    1    3    3    0    0  0.72647182508E+01 -0.18541312915E+02 -0.25326477032E+00  0.19940425244E+02  0.10000000000E+01 0.  0.
    9000005    1    3    3    0    0 -0.72647182508E+01  0.18541312915E+02  0.36665154033E+03  0.36719328486E+03  0.10000000000E+01 0.  0.
<mgrwt>
<rscale>  0 0.12499925E+03</rscale>
<asrwt>0</asrwt>
<pdfrwt beam="2">  1        4 0.25919297E-02 0.12499925E+03</pdfrwt>
<pdfrwt beam="1">  1       -4 0.94191483E-01 0.12499925E+03</pdfrwt>
<totfact> 0.10839298E+03</totfact>
</mgrwt>
</event>
<event>
 5    1  0.1466870E-002  0.1249997E+03  0.7818608E-02  0.1235070E+00
         -4   -1    0    0    0  501 -0.00000000000E+00  0.00000000000E+00  0.26544909726E+03  0.26545213530E+03  0.12700000000E+01 0.  1.
          4   -1    0    0  501    0  0.00000000000E+00 -0.00000000000E+00 -0.14685028113E+02  0.14739842288E+02  0.12700000000E+01 0.  1.
         25    2    1    2    0    0  0.00000000000E+00  0.00000000000E+00  0.25076406915E+03  0.28019197759E+03  0.12499970372E+03 0.  0.
    9000005    1    3    3    0    0 -0.27506873433E+02  0.42821334146E+02  0.20666492572E+03  0.21284192788E+03  0.10000000000E+01 0.  0.
    9000005    1    3    3    0    0  0.27506873433E+02 -0.42821334146E+02  0.44099143432E+02  0.67350049707E+02  0.10000000000E+01 0.  0.
<mgrwt>
<rscale>  0 0.12499970E+03</rscale>
<asrwt>0</asrwt>
<pdfrwt beam="2">  1        4 0.36784886E-02 0.12499970E+03</pdfrwt>
<pdfrwt beam="1">  1       -4 0.66369506E-01 0.12499970E+03</pdfrwt>
<totfact> 0.13545045E+03</totfact>
</mgrwt>
</event>
<event>
 5    1  0.1466870E-002  0.1250028E+03  0.7818608E-02  0.1235065E+00
          4   -1    0    0  501    0  0.00000000000E+00  0.00000000000E+00  0.15576915672E+02  0.15628602044E+02  0.12700000000E+01 0. -1.
         -4   -1    0    0    0  501 -0.00000000000E+00 -0.00000000000E+00 -0.25031409330E+03  0.25031731503E+03  0.12700000000E+01 0. -1.
         25    2    1    2    0    0  0.00000000000E+00  0.00000000000E+00 -0.23473717763E+03  0.26594591708E+03  0.12500275296E+03 0.  0.
    9000005    1    3    3    0    0 -0.11173307207E+02 -0.18909995884E+02 -0.24184201639E+03  0.24283943591E+03  0.10000000000E+01 0.  0.
    9000005    1    3    3    0    0  0.11173307207E+02  0.18909995884E+02  0.71048387621E+01  0.23106481171E+02  0.10000000000E+01 0.  0.
<mgrwt>
<rscale>  0 0.12500275E+03</rscale>
<asrwt>0</asrwt>
<pdfrwt beam="1">  1        4 0.39010932E-02 0.12500275E+03</pdfrwt>
<pdfrwt beam="2">  1       -4 0.62585374E-01 0.12500275E+03</pdfrwt>
<totfact> 0.13981308E+03</totfact>
</mgrwt>
</event>
<event>
 5    1  0.1466870E-002  0.1249988E+03  0.7818608E-02  0.1235071E+00
          4   -1    0    0  501    0  0.00000000000E+00  0.00000000000E+00  0.26732032294E+03  0.26732333971E+03  0.12700000000E+01 0.  1.
         -4   -1    0    0    0  501 -0.00000000000E+00 -0.00000000000E+00 -0.14581633067E+02  0.14636834456E+02  0.12700000000E+01 0.  1.
         25    2    1    2    0    0  0.00000000000E+00  0.00000000000E+00  0.25273868987E+03  0.28196017417E+03  0.12499877784E+03 0.  0.
    9000005    1    3    3    0    0  0.43465641983E+02 -0.29914244529E+02  0.50843705833E+02  0.73281692677E+02  0.10000000000E+01 0.  0.
    9000005    1    3    3    0    0 -0.43465641983E+02  0.29914244529E+02  0.20189498404E+03  0.20867848149E+03  0.10000000000E+01 0.  0.
<mgrwt>
<rscale>  0 0.12499878E+03</rscale>
<asrwt>0</asrwt>
<pdfrwt beam="1">  1        4 0.66837358E-01 0.12499878E+03</pdfrwt>
<pdfrwt beam="2">  1       -4 0.36526855E-02 0.12499878E+03</pdfrwt>
<totfact> 0.13492533E+03</totfact>
</mgrwt>
</event>
<event>
 5    1  0.1466870E-002  0.1249999E+03  0.7818608E-02  0.1235069E+00
         -4   -1    0    0    0  501 -0.00000000000E+00  0.00000000000E+00  0.95387354450E+02  0.95395808550E+02  0.12700000000E+01 0. -1.
          4   -1    0    0  501    0  0.00000000000E+00 -0.00000000000E+00 -0.40931293903E+02  0.40950991692E+02  0.12700000000E+01 0. -1.
         25    2    1    2    0    0  0.00000000000E+00  0.00000000000E+00  0.54456060547E+02  0.13634680024E+03  0.12499994962E+03 0.  0.
    9000005    1    3    3    0    0 -0.60134391404E+02  0.16197524163E+02  0.32868721443E+02  0.70426256949E+02  0.10000000000E+01 0.  0.
    9000005    1    3    3    0    0  0.60134391404E+02 -0.16197524163E+02  0.21587339104E+02  0.65920543293E+02  0.10000000000E+01 0.  0.
<mgrwt>
<rscale>  0 0.12499995E+03</rscale>
<asrwt>0</asrwt>
<pdfrwt beam="2">  1        4 0.10236343E-01 0.12499995E+03</pdfrwt>
<pdfrwt beam="1">  1       -4 0.23850357E-01 0.12499995E+03</pdfrwt>
<totfact> 0.19228847E+03</totfact>
</mgrwt>
</event>
<event>
 5    1  0.1466870E-002  0.1250014E+03  0.7818608E-02  0.1235067E+00
          4   -1    0    0  501    0  0.00000000000E+00  0.00000000000E+00  0.29253442608E+03  0.29253718284E+03  0.12700000000E+01 0. -1.
         -4   -1    0    0    0  501 -0.00000000000E+00 -0.00000000000E+00 -0.13320400713E+02  0.13380806222E+02  0.12700000000E+01 0. -1.
         25    2    1    2    0    0  0.00000000000E+00  0.00000000000E+00  0.27921402537E+03  0.30591798906E+03  0.12500137626E+03 0.  0.
    9000005    1    3    3    0    0  0.49113017576E+02 -0.28665010867E+02  0.20302816705E+03  0.21084403704E+03  0.10000000000E+01 0.  0.
    9000005    1    3    3    0    0 -0.49113017576E+02  0.28665010867E+02  0.76185858327E+02  0.95073952019E+02  0.10000000000E+01 0.  0.
<mgrwt>
<rscale>  0 0.12500138E+03</rscale>
<asrwt>0</asrwt>
<pdfrwt beam="1">  1        4 0.73141500E-01 0.12500138E+03</pdfrwt>
<pdfrwt beam="2">  1       -4 0.33379956E-02 0.12500138E+03</pdfrwt>
<totfact> 0.12806396E+03</totfact>
</mgrwt>
</event>
<event>
 5    1  0.1466870E-002  0.1249971E+03  0.7818608E-02  0.1235074E+00
         -4   -1    0    0    0  501 -0.00000000000E+00  0.00000000000E+00  0.26100265966E+03  0.26100574946E+03  0.12700000000E+01 0.  1.
          4   -1    0    0  501    0  0.00000000000E+00 -0.00000000000E+00 -0.14935497966E+02  0.14989396235E+02  0.12700000000E+01 0.  1.
         25    2    1    2    0    0  0.00000000000E+00  0.00000000000E+00  0.24606716169E+03  0.27599514569E+03  0.12499708949E+03 0.  0.
    9000005    1    3    3    0    0  0.22510439439E+02 -0.18613103241E+02  0.24501304890E+03  0.24674999823E+03  0.10000000000E+01 0.  0.
    9000005    1    3    3    0    0 -0.22510439439E+02  0.18613103241E+02  0.10541127910E+01  0.29245147457E+02  0.10000000000E+01 0.  0.
<mgrwt>
<rscale>  0 0.12499709E+03</rscale>
<asrwt>0</asrwt>
<pdfrwt beam="2">  1        4 0.37409981E-02 0.12499709E+03</pdfrwt>
<pdfrwt beam="1">  1       -4 0.65257787E-01 0.12499709E+03</pdfrwt>
<totfact> 0.13672462E+03</totfact>
</mgrwt>
</event>
<event>
 5    1  0.1466870E-002  0.1250002E+03  0.7818608E-02  0.1235069E+00
          4   -1    0    0  501    0  0.00000000000E+00  0.00000000000E+00  0.10707613631E+02  0.10782666167E+02  0.12700000000E+01 0.  1.
         -4   -1    0    0    0  501 -0.00000000000E+00 -0.00000000000E+00 -0.36346134520E+03  0.36346356400E+03  0.12700000000E+01 0.  1.
         25    2    1    2    0    0  0.00000000000E+00  0.00000000000E+00 -0.35275373157E+03  0.37424623016E+03  0.12500018263E+03 0.  0.
    9000005    1    3    3    0    0 -0.14913569556E+02  0.43968611832E+02 -0.30160939985E+03  0.30516369945E+03  0.10000000000E+01 0.  0.
    9000005    1    3    3    0    0  0.14913569556E+02 -0.43968611832E+02 -0.51144331718E+02  0.69082530717E+02  0.10000000000E+01 0.  0.
<mgrwt>
<rscale>  0 0.12500018E+03</rscale>
<asrwt>0</asrwt>
<pdfrwt beam="1">  1        4 0.26865635E-02 0.12500018E+03</pdfrwt>
<pdfrwt beam="2">  1       -4 0.90874954E-01 0.12500018E+03</pdfrwt>
<totfact> 0.11119616E+03</totfact>
</mgrwt>
</event>
<event>
 5    1  0.1466870E-002  0.1249971E+03  0.7818608E-02  0.1235074E+00
         -4   -1    0    0    0  501 -0.00000000000E+00  0.00000000000E+00  0.88114708139E+02  0.88123859939E+02  0.12700000000E+01 0. -1.
          4   -1    0    0  501    0  0.00000000000E+00 -0.00000000000E+00 -0.44308800766E+02  0.44326997702E+02  0.12700000000E+01 0. -1.
         25    2    1    2    0    0  0.00000000000E+00  0.00000000000E+00  0.43805907374E+02  0.13245085764E+03  0.12499708864E+03 0.  0.
    9000005    1    3    3    0    0 -0.59856121822E+02 -0.73276362282E+01  0.39269874037E+02  0.71969247454E+02  0.10000000000E+01 0.  0.
    9000005    1    3    3    0    0  0.59856121822E+02  0.73276362282E+01  0.45360333369E+01  0.60481610186E+02  0.10000000000E+01 0.  0.
<mgrwt>
<rscale>  0 0.12499709E+03</rscale>
<asrwt>0</asrwt>
<pdfrwt beam="2">  1        4 0.11080619E-01 0.12499709E+03</pdfrwt>
<pdfrwt beam="1">  1       -4 0.22032095E-01 0.12499709E+03</pdfrwt>
<totfact> 0.19434828E+03</totfact>
</mgrwt>
</event>
<event>
 5    1  0.1466870E-002  0.1249983E+03  0.7818608E-02  0.1235072E+00
         -4   -1    0    0    0  501 -0.00000000000E+00  0.00000000000E+00  0.71981324497E+01  0.73093098691E+01  0.12700000000E+01 0. -1.
          4   -1    0    0  501    0  0.00000000000E+00 -0.00000000000E+00 -0.53838982120E+03  0.53839131909E+03  0.12700000000E+01 0. -1.
         25    2    1    2    0    0  0.00000000000E+00  0.00000000000E+00 -0.53119168875E+03  0.54570062896E+03  0.12499826499E+03 0.  0.
    9000005    1    3    3    0    0 -0.19121232914E+01 -0.26417597068E+02 -0.18497784874E+02  0.32322031118E+02  0.10000000000E+01 0.  0.
    9000005    1    3    3    0    0  0.19121232914E+01  0.26417597068E+02 -0.51269390388E+03  0.51337859785E+03  0.10000000000E+01 0.  0.
<mgrwt>
<rscale>  0 0.12499826E+03</rscale>
<asrwt>0</asrwt>
<pdfrwt beam="2">  1        4 0.13461140E+00 0.12499826E+03</pdfrwt>
<pdfrwt beam="1">  1       -4 0.18136193E-02 0.12499826E+03</pdfrwt>
<totfact> 0.80772196E+02</totfact>
</mgrwt>
</event>
<event>
 5    1  0.1466870E-002  0.1250018E+03  0.7818608E-02  0.1235067E+00
          4   -1    0    0  501    0  0.00000000000E+00  0.00000000000E+00  0.77232612063E+02  0.77243053190E+02  0.12700000000E+01 0. -1.
         -4   -1    0    0    0  501 -0.00000000000E+00 -0.00000000000E+00 -0.50557328191E+02  0.50573276875E+02  0.12700000000E+01 0. -1.
         25    2    1    2    0    0  0.00000000000E+00  0.00000000000E+00  0.26675283872E+02  0.12781633006E+03  0.12500177383E+03 0.  0.
    9000005    1    3    3    0    0 -0.22217603198E+02 -0.48204236340E+02  0.47066581834E+02  0.70947398955E+02  0.10000000000E+01 0.  0.
    9000005    1    3    3    0    0  0.22217603198E+02  0.48204236340E+02 -0.20391297962E+02  0.56868931109E+02  0.10000000000E+01 0.  0.
<mgrwt>
<rscale>  0 0.12500177E+03</rscale>
<asrwt>0</asrwt>
<pdfrwt beam="1">  1        4 0.19311452E-01 0.12500177E+03</pdfrwt>
<pdfrwt beam="2">  1       -4 0.12642631E-01 0.12500177E+03</pdfrwt>
<totfact> 0.19681719E+03</totfact>
</mgrwt>
</event>
<event>
 5    1  0.1466870E-002  0.1250015E+03  0.7818608E-02  0.1235067E+00
          4   -1    0    0  501    0  0.00000000000E+00  0.00000000000E+00  0.11572013755E+02  0.11641494850E+02  0.12700000000E+01 0. -1.
         -4   -1    0    0    0  501 -0.00000000000E+00 -0.00000000000E+00 -0.33648695227E+03  0.33648934894E+03  0.12700000000E+01 0. -1.
         25    2    1    2    0    0  0.00000000000E+00  0.00000000000E+00 -0.32491493852E+03  0.34813084379E+03  0.12500146849E+03 0.  0.
    9000005    1    3    3    0    0  0.33802469075E+01  0.29106931701E+02 -0.31618172305E+03  0.31753822058E+03  0.10000000000E+01 0.  0.
    9000005    1    3    3    0    0 -0.33802469075E+01 -0.29106931701E+02 -0.87332154706E+01  0.30592623207E+02  0.10000000000E+01 0.  0.
<mgrwt>
<rscale>  0 0.12500147E+03</rscale>
<asrwt>0</asrwt>
<pdfrwt beam="1">  1        4 0.29019893E-02 0.12500147E+03</pdfrwt>
<pdfrwt beam="2">  1       -4 0.84130691E-01 0.12500147E+03</pdfrwt>
<totfact> 0.11721640E+03</totfact>
</mgrwt>
</event>
<event>
 5    1  0.1466870E-002  0.1249977E+03  0.7818608E-02  0.1235073E+00
          4   -1    0    0  501    0  0.00000000000E+00  0.00000000000E+00  0.45495494113E+03  0.45495671372E+03  0.12700000000E+01 0.  1.
         -4   -1    0    0    0  501 -0.00000000000E+00 -0.00000000000E+00 -0.85369395658E+01  0.86308885493E+01  0.12700000000E+01 0.  1.
         25    2    1    2    0    0  0.00000000000E+00  0.00000000000E+00  0.44641800156E+03  0.46358760227E+03  0.12499773141E+03 0.  0.
    9000005    1    3    3    0    0 -0.59438525279E+02 -0.10999896360E+02  0.28198709124E+03  0.28839496464E+03  0.10000000000E+01 0.  0.
    9000005    1    3    3    0    0  0.59438525279E+02  0.10999896360E+02  0.16443091033E+03  0.17519263762E+03  0.10000000000E+01 0.  0.
<mgrwt>
<rscale>  0 0.12499773E+03</rscale>
<asrwt>0</asrwt>
<pdfrwt beam="1">  1        4 0.11375069E+00 0.12499773E+03</pdfrwt>
<pdfrwt beam="2">  1       -4 0.21462002E-02 0.12499773E+03</pdfrwt>
<totfact> 0.93632544E+02</totfact>
</mgrwt>
</event>
<event>
 5    1  0.1466870E-002  0.1250118E+03  0.7818608E-02  0.1235051E+00
          4   -1    0    0  501    0  0.00000000000E+00  0.00000000000E+00  0.53875894802E+02  0.53890861384E+02  0.12700000000E+01 0.  1.
         -4   -1    0    0    0  501 -0.00000000000E+00 -0.00000000000E+00 -0.72487687537E+02  0.72498812021E+02  0.12700000000E+01 0.  1.
         25    2    1    2    0    0  0.00000000000E+00  0.00000000000E+00 -0.18611792735E+02  0.12638967341E+03  0.12501180230E+03 0.  0.
    9000005    1    3    3    0    0 -0.35852865997E+02  0.50211803505E+02  0.77062334231E+00  0.61710996360E+02  0.10000000000E+01 0.  0.
    9000005    1    3    3    0    0  0.35852865997E+02 -0.50211803505E+02 -0.19382416078E+02  0.64678677046E+02  0.10000000000E+01 0.  0.
<mgrwt>
<rscale>  0 0.12501180E+03</rscale>
<asrwt>0</asrwt>
<pdfrwt beam="1">  1        4 0.13472235E-01 0.12501180E+03</pdfrwt>
<pdfrwt beam="2">  1       -4 0.18125183E-01 0.12501180E+03</pdfrwt>
<totfact> 0.19754423E+03</totfact>
</mgrwt>
</event>
<event>
 4    1  0.1466870E-002  0.1250910E+03  0.7818608E-02  0.1234927E+00
          4   -1    0    0  501    0  0.00000000000E+00  0.00000000000E+00  0.21643458956E+02  0.21680687618E+02  0.12700000000E+01 0. -1.
         -4   -1    0    0    0  501 -0.00000000000E+00 -0.00000000000E+00 -0.18054980169E+03  0.18055426827E+03  0.12700000000E+01 0. -1.
    9000005    1    1    2    0    0 -0.83394052523E+01 -0.48363845839E+02 -0.14211643574E+03  0.15035520800E+03  0.10000000000E+01 0.  0.
    9000005    1    1    2    0    0  0.83394052523E+01  0.48363845839E+02 -0.16789906993E+02  0.51879747890E+02  0.10000000000E+01 0.  0.
<mgrwt>
<rscale>  0 0.12509097E+03</rscale>
<asrwt>0</asrwt>
<pdfrwt beam="1">  1        4 0.54160772E-02 0.12509097E+03</pdfrwt>
<pdfrwt beam="2">  1       -4 0.45142658E-01 0.12509097E+03</pdfrwt>
<totfact> 0.16198849E+03</totfact>
</mgrwt>
</event>
<event>
 5    1  0.1466870E-002  0.1249962E+03  0.7818608E-02  0.1235075E+00
          4   -1    0    0  501    0  0.00000000000E+00  0.00000000000E+00  0.47438369791E+02  0.47455366698E+02  0.12700000000E+01 0.  1.
         -4   -1    0    0    0  501 -0.00000000000E+00 -0.00000000000E+00 -0.82302039758E+02  0.82311837839E+02  0.12700000000E+01 0.  1.
         25    2    1    2    0    0  0.00000000000E+00  0.00000000000E+00 -0.34863669968E+02  0.12976720454E+03  0.12499620750E+03 0.  0.
    9000005    1    3    3    0    0 -0.61094016859E+02  0.80710653215E+01 -0.66732776228E+01  0.61993174024E+02  0.10000000000E+01 0.  0.
    9000005    1    3    3    0    0  0.61094016859E+02 -0.80710653215E+01 -0.28190392345E+02  0.67774030512E+02  0.10000000000E+01 0.  0.
<mgrwt>
<rscale>  0 0.12499621E+03</rscale>
<asrwt>0</asrwt>
<pdfrwt beam="1">  1        4 0.11862942E-01 0.12499621E+03</pdfrwt>
<pdfrwt beam="2">  1       -4 0.20578859E-01 0.12499621E+03</pdfrwt>
<totfact> 0.19578638E+03</totfact>
</mgrwt>
</event>
<event>
 5    1  0.1466870E-002  0.1250003E+03  0.7818608E-02  0.1235069E+00
          4   -1    0    0  501    0  0.00000000000E+00  0.00000000000E+00  0.12050300875E+03  0.12050970093E+03  0.12700000000E+01 0.  1.
         -4   -1    0    0    0  501 -0.00000000000E+00 -0.00000000000E+00 -0.32396310981E+02  0.32421194690E+02  0.12700000000E+01 0.  1.
         25    2    1    2    0    0  0.00000000000E+00  0.00000000000E+00  0.88106697769E+02  0.15293089562E+03  0.12500027457E+03 0.  0.
    9000005    1    3    3    0    0  0.19416514226E+02  0.36263952990E+02  0.10160977193E+03  0.10962491078E+03  0.10000000000E+01 0.  0.
    9000005    1    3    3    0    0 -0.19416514226E+02 -0.36263952990E+02 -0.13503074162E+02  0.43305984840E+02  0.10000000000E+01 0.  0.
<mgrwt>
<rscale>  0 0.12500027E+03</rscale>
<asrwt>0</asrwt>
<pdfrwt beam="1">  1        4 0.30129699E-01 0.12500027E+03</pdfrwt>
<pdfrwt beam="2">  1       -4 0.81030248E-02 0.12500027E+03</pdfrwt>
<totfact> 0.18395484E+03</totfact>
</mgrwt>
</event>
<event>
 5    1  0.1466870E-002  0.1250006E+03  0.7818608E-02  0.1235068E+00
         -4   -1    0    0    0  501 -0.00000000000E+00  0.00000000000E+00  0.49303487593E+02  0.49319841736E+02  0.12700000000E+01 0. -1.
          4   -1    0    0  501    0  0.00000000000E+00 -0.00000000000E+00 -0.79194813307E+02  0.79204995769E+02  0.12700000000E+01 0. -1.
         25    2    1    2    0    0  0.00000000000E+00  0.00000000000E+00 -0.29891325713E+02  0.12852483750E+03  0.12500057001E+03 0.  0.
    9000005    1    3    3    0    0  0.32502914678E+02 -0.77056744748E+01  0.39358837198E+02  0.51632692621E+02  0.10000000000E+01 0.  0.
    9000005    1    3    3    0    0 -0.32502914678E+02  0.77056744748E+01 -0.69250162911E+02  0.76892144884E+02  0.10000000000E+01 0.  0.
<mgrwt>
<rscale>  0 0.12500057E+03</rscale>
<asrwt>0</asrwt>
<pdfrwt beam="2">  1        4 0.19802020E-01 0.12500057E+03</pdfrwt>
<pdfrwt beam="1">  1       -4 0.12329189E-01 0.12500057E+03</pdfrwt>
<totfact> 0.19643764E+03</totfact>
</mgrwt>
</event>
<event>
 5    1  0.1466870E-002  0.1250009E+03  0.7818608E-02  0.1235068E+00
         -4   -1    0    0    0  501 -0.00000000000E+00  0.00000000000E+00  0.58020618074E+03  0.58020757068E+03  0.12700000000E+01 0.  1.
          4   -1    0    0  501    0  0.00000000000E+00 -0.00000000000E+00 -0.66713205000E+01  0.67911278308E+01  0.12700000000E+01 0.  1.
         25    2    1    2    0    0  0.00000000000E+00  0.00000000000E+00  0.57353486024E+03  0.58699869851E+03  0.12500094455E+03 0.  0.
    9000005    1    3    3    0    0 -0.38645582095E+01 -0.54388742440E+02  0.14338779897E+03  0.15340837985E+03  0.10000000000E+01 0.  0.
    9000005    1    3    3    0    0  0.38645582095E+01  0.54388742440E+02  0.43014706127E+03  0.43359031866E+03  0.10000000000E+01 0.  0.
<mgrwt>
<rscale>  0 0.12500094E+03</rscale>
<asrwt>0</asrwt>
<pdfrwt beam="2">  1        4 0.16829799E-02 0.12500094E+03</pdfrwt>
<pdfrwt beam="1">  1       -4 0.14506669E+00 0.12500094E+03</pdfrwt>
<totfact> 0.75161867E+02</totfact>
</mgrwt>
</event>
<event>
 5    1  0.1466870E-002  0.1250030E+03  0.7818608E-02  0.1235065E+00
          4   -1    0    0  501    0  0.00000000000E+00  0.00000000000E+00  0.68292120114E+02  0.68303927922E+02  0.12700000000E+01 0. -1.
         -4   -1    0    0    0  501 -0.00000000000E+00 -0.00000000000E+00 -0.57178076406E+02  0.57192178849E+02  0.12700000000E+01 0. -1.
         25    2    1    2    0    0  0.00000000000E+00  0.00000000000E+00  0.11114043708E+02  0.12549610677E+03  0.12500300335E+03 0.  0.
    9000005    1    3    3    0    0 -0.44198059409E+02  0.36476406287E+02  0.30584078178E+02  0.64964471130E+02  0.10000000000E+01 0.  0.
    9000005    1    3    3    0    0  0.44198059409E+02 -0.36476406287E+02 -0.19470034470E+02  0.60531635641E+02  0.10000000000E+01 0.  0.
<mgrwt>
<rscale>  0 0.12500300E+03</rscale>
<asrwt>0</asrwt>
<pdfrwt beam="1">  1        4 0.17076269E-01 0.12500300E+03</pdfrwt>
<pdfrwt beam="2">  1       -4 0.14297758E-01 0.12500300E+03</pdfrwt>
<totfact> 0.19806782E+03</totfact>
</mgrwt>
</event>
<event>
 5    1  0.1466870E-002  0.1249865E+03  0.7818608E-02  0.1235090E+00
         -4   -1    0    0    0  501 -0.00000000000E+00  0.00000000000E+00  0.10356356410E+03  0.10357135081E+03  0.12700000000E+01 0.  1.
          4   -1    0    0  501    0  0.00000000000E+00 -0.00000000000E+00 -0.37690320032E+02  0.37711710703E+02  0.12700000000E+01 0.  1.
         25    2    1    2    0    0  0.00000000000E+00  0.00000000000E+00  0.65873244068E+02  0.14128306152E+03  0.12498647602E+03 0.  0.
    9000005    1    3    3    0    0 -0.16570276207E+02 -0.75773486005E+01 -0.34626233631E+02  0.39140341348E+02  0.10000000000E+01 0.  0.
    9000005    1    3    3    0    0  0.16570276207E+02  0.75773486005E+01  0.10049947770E+03  0.10214272017E+03  0.10000000000E+01 0.  0.
<mgrwt>
<rscale>  0 0.12498648E+03</rscale>
<asrwt>0</asrwt>
<pdfrwt beam="2">  1        4 0.94262273E-02 0.12498648E+03</pdfrwt>
<pdfrwt beam="1">  1       -4 0.25894538E-01 0.12498648E+03</pdfrwt>
<totfact> 0.18980878E+03</totfact>
</mgrwt>
</event>
<event>
 5    1  0.1466870E-002  0.1249987E+03  0.7818608E-02  0.1235071E+00
          4   -1    0    0  501    0  0.00000000000E+00  0.00000000000E+00  0.32893752574E+03  0.32893997741E+03  0.12700000000E+01 0. -1.
         -4   -1    0    0    0  501 -0.00000000000E+00 -0.00000000000E+00 -0.11838654620E+02  0.11906579828E+02  0.12700000000E+01 0. -1.
         25    2    1    2    0    0  0.00000000000E+00  0.00000000000E+00  0.31709887112E+03  0.34084655724E+03  0.12499872606E+03 0.  0.
    9000005    1    3    3    0    0 -0.15877621002E+02  0.45734900399E+02  0.50801469826E+02  0.70182400213E+02  0.10000000000E+01 0.  0.
    9000005    1    3    3    0    0  0.15877621002E+02 -0.45734900399E+02  0.26629740129E+03  0.27066415702E+03  0.10000000000E+01 0.  0.
<mgrwt>
<rscale>  0 0.12499873E+03</rscale>
<asrwt>0</asrwt>
<pdfrwt beam="1">  1        4 0.82243175E-01 0.12499873E+03</pdfrwt>
<pdfrwt beam="2">  1       -4 0.29684609E-02 0.12499873E+03</pdfrwt>
<totfact> 0.11899188E+03</totfact>
</mgrwt>
</event>
<event>
 5    1  0.1466870E-002  0.1249974E+03  0.7818608E-02  0.1235073E+00
          4   -1    0    0  501    0  0.00000000000E+00  0.00000000000E+00  0.23123210873E+02  0.23158060823E+02  0.12700000000E+01 0.  1.
         -4   -1    0    0    0  501 -0.00000000000E+00 -0.00000000000E+00 -0.16876044652E+03  0.16876522512E+03  0.12700000000E+01 0.  1.
         25    2    1    2    0    0  0.00000000000E+00  0.00000000000E+00 -0.14563723565E+03  0.19192328594E+03  0.12499737309E+03 0.  0.
    9000005    1    3    3    0    0 -0.19097998184E+02 -0.30126838575E+02  0.59638545936E+01  0.36179103068E+02  0.10000000000E+01 0.  0.
    9000005    1    3    3    0    0  0.19097998184E+02  0.30126838575E+02 -0.15160109024E+03  0.15574418287E+03  0.10000000000E+01 0.  0.
<mgrwt>
<rscale>  0 0.12499737E+03</rscale>
<asrwt>0</asrwt>
<pdfrwt beam="1">  1        4 0.57857568E-02 0.12499737E+03</pdfrwt>
<pdfrwt beam="2">  1       -4 0.42195062E-01 0.12499737E+03</pdfrwt>
<totfact> 0.16651650E+03</totfact>
</mgrwt>
</event>
<event>
 5    1  0.1466870E-002  0.1249955E+03  0.7818608E-02  0.1235076E+00
          4   -1    0    0  501    0  0.00000000000E+00  0.00000000000E+00  0.25458611445E+03  0.25458928212E+03  0.12700000000E+01 0. -1.
         -4   -1    0    0    0  501 -0.00000000000E+00 -0.00000000000E+00 -0.15312872900E+02  0.15365447486E+02  0.12700000000E+01 0. -1.
         25    2    1    2    0    0  0.00000000000E+00  0.00000000000E+00  0.23927324155E+03  0.26995472961E+03  0.12499548758E+03 0.  0.
    9000005    1    3    3    0    0  0.30323692884E+02  0.39300077277E+02  0.20161897615E+03  0.20764208139E+03  0.10000000000E+01 0.  0.
    9000005    1    3    3    0    0 -0.30323692884E+02 -0.39300077277E+02  0.37654265409E+02  0.62312648215E+02  0.10000000000E+01 0.  0.
<mgrwt>
<rscale>  0 0.12499549E+03</rscale>
<asrwt>0</asrwt>
<pdfrwt beam="1">  1        4 0.63653497E-01 0.12499549E+03</pdfrwt>
<pdfrwt beam="2">  1       -4 0.38351860E-02 0.12499549E+03</pdfrwt>
<totfact> 0.13858414E+03</totfact>
</mgrwt>
</event>
<event>
 5    1  0.1466870E-002  0.1249999E+03  0.7818608E-02  0.1235069E+00
         -4   -1    0    0    0  501 -0.00000000000E+00  0.00000000000E+00  0.21428306646E+03  0.21428682991E+03  0.12700000000E+01 0. -1.
          4   -1    0    0  501    0  0.00000000000E+00 -0.00000000000E+00 -0.18203327326E+02  0.18247575886E+02  0.12700000000E+01 0. -1.
         25    2    1    2    0    0  0.00000000000E+00  0.00000000000E+00  0.19607973913E+03  0.23253440579E+03  0.12499994311E+03 0.  0.
    9000005    1    3    3    0    0 -0.33683920924E+02 -0.52608072754E+02  0.10127835165E+03  0.11899798469E+03  0.10000000000E+01 0.  0.
    9000005    1    3    3    0    0  0.33683920924E+02  0.52608072754E+02  0.94801387480E+02  0.11353642110E+03  0.10000000000E+01 0.  0.
<mgrwt>
<rscale>  0 0.12499994E+03</rscale>
<asrwt>0</asrwt>
<pdfrwt beam="2">  1        4 0.45568334E-02 0.12499994E+03</pdfrwt>
<pdfrwt beam="1">  1       -4 0.53576768E-01 0.12499994E+03</pdfrwt>
<totfact> 0.15097192E+03</totfact>
</mgrwt>
</event>
<event>
 5    1  0.1466870E-002  0.1249975E+03  0.7818608E-02  0.1235073E+00
          4   -1    0    0  501    0  0.00000000000E+00  0.00000000000E+00  0.44179136521E+02  0.44197386843E+02  0.12700000000E+01 0. -1.
         -4   -1    0    0    0  501 -0.00000000000E+00 -0.00000000000E+00 -0.88373890572E+02  0.88383015534E+02  0.12700000000E+01 0. -1.
         25    2    1    2    0    0  0.00000000000E+00  0.00000000000E+00 -0.44194754051E+02  0.13258040238E+03  0.12499754721E+03 0.  0.
    9000005    1    3    3    0    0  0.19329739040E+02  0.15991398224E+02 -0.82803443691E+02  0.86526145850E+02  0.10000000000E+01 0.  0.
    9000005    1    3    3    0    0 -0.19329739040E+02 -0.15991398224E+02  0.38608689640E+02  0.46054256527E+02  0.10000000000E+01 0.  0.
<mgrwt>
<rscale>  0 0.12499755E+03</rscale>
<asrwt>0</asrwt>
<pdfrwt beam="1">  1        4 0.11048206E-01 0.12499755E+03</pdfrwt>
<pdfrwt beam="2">  1       -4 0.22096894E-01 0.12499755E+03</pdfrwt>
<totfact> 0.19427749E+03</totfact>
</mgrwt>
</event>
<event>
 5    1  0.1466870E-002  0.1249997E+03  0.7818608E-02  0.1235070E+00
         -4   -1    0    0    0  501 -0.00000000000E+00  0.00000000000E+00  0.94665698494E+03  0.94665783684E+03  0.12700000000E+01 0. -1.
          4   -1    0    0  501    0  0.00000000000E+00 -0.00000000000E+00 -0.40277493335E+01  0.42232291784E+01  0.12700000000E+01 0. -1.
         25    2    1    2    0    0  0.00000000000E+00  0.00000000000E+00  0.94262923561E+03  0.95088106601E+03  0.12499970351E+03 0.  0.
    9000005    1    3    3    0    0 -0.21751433970E+02 -0.44750356039E+02  0.75892936716E+03  0.76055933601E+03  0.10000000000E+01 0.  0.
    9000005    1    3    3    0    0  0.21751433970E+02  0.44750356039E+02  0.18369986845E+03  0.19032173001E+03  0.10000000000E+01 0.  0.
<mgrwt>
<rscale>  0 0.12499970E+03</rscale>
<asrwt>0</asrwt>
<pdfrwt beam="2">  1        4 0.10314782E-02 0.12499970E+03</pdfrwt>
<pdfrwt beam="1">  1       -4 0.23668892E+00 0.12499970E+03</pdfrwt>
<totfact> 0.40514260E+02</totfact>
</mgrwt>
</event>
<event>
 5    1  0.1466870E-002  0.1250045E+03  0.7818608E-02  0.1235062E+00
          4   -1    0    0  501    0  0.00000000000E+00  0.00000000000E+00  0.42635269428E+03  0.42635458579E+03  0.12700000000E+01 0. -1.
         -4   -1    0    0    0  501 -0.00000000000E+00 -0.00000000000E+00 -0.91167506163E+01  0.92047836367E+01  0.12700000000E+01 0. -1.
         25    2    1    2    0    0  0.00000000000E+00  0.00000000000E+00  0.41723594366E+03  0.43555936942E+03  0.12500452634E+03 0.  0.
    9000005    1    3    3    0    0 -0.28302658164E+02  0.14226544037E+02  0.20912190086E+02  0.37970445199E+02  0.10000000000E+01 0.  0.
    9000005    1    3    3    0    0  0.28302658164E+02 -0.14226544037E+02  0.39632375358E+03  0.39758892422E+03  0.10000000000E+01 0.  0.
<mgrwt>
<rscale>  0 0.12500453E+03</rscale>
<asrwt>0</asrwt>
<pdfrwt beam="1">  1        4 0.10659942E+00 0.12500453E+03</pdfrwt>
<pdfrwt beam="2">  1       -4 0.22904281E-02 0.12500453E+03</pdfrwt>
<totfact> 0.98658444E+02</totfact>
</mgrwt>
</event>
<event>
 5    1  0.1466870E-002  0.1249998E+03  0.7818608E-02  0.1235070E+00
         -4   -1    0    0    0  501 -0.00000000000E+00  0.00000000000E+00  0.15404546307E+02  0.15456809080E+02  0.12700000000E+01 0.  1.
          4   -1    0    0  501    0  0.00000000000E+00 -0.00000000000E+00 -0.25309379641E+03  0.25309698276E+03  0.12700000000E+01 0.  1.
         25    2    1    2    0    0  0.00000000000E+00  0.00000000000E+00 -0.23768925010E+03  0.26855379183E+03  0.12499983798E+03 0.  0.
    9000005    1    3    3    0    0  0.34012536144E+01  0.13061369026E+02 -0.24993552816E+03  0.25030169022E+03  0.10000000000E+01 0.  0.
    9000005    1    3    3    0    0 -0.34012536144E+01 -0.13061369026E+02  0.12246278065E+02  0.18252101617E+02  0.10000000000E+01 0.  0.
<mgrwt>
<rscale>  0 0.12499984E+03</rscale>
<asrwt>0</asrwt>
<pdfrwt beam="2">  1        4 0.63280367E-01 0.12499984E+03</pdfrwt>
<pdfrwt beam="1">  1       -4 0.38580685E-02 0.12499984E+03</pdfrwt>
<totfact> 0.13900592E+03</totfact>
</mgrwt>
</event>
<event>
 5    1  0.1466870E-002  0.1250037E+03  0.7818608E-02  0.1235064E+00
          4   -1    0    0  501    0  0.00000000000E+00  0.00000000000E+00  0.34566205797E+02  0.34589528520E+02  0.12700000000E+01 0.  1.
         -4   -1    0    0    0  501 -0.00000000000E+00 -0.00000000000E+00 -0.11294938745E+03  0.11295652715E+03  0.12700000000E+01 0.  1.
         25    2    1    2    0    0  0.00000000000E+00  0.00000000000E+00 -0.78383181652E+02  0.14754605567E+03  0.12500366145E+03 0.  0.
    9000005    1    3    3    0    0 -0.32161165546E+02  0.51482043560E+02 -0.21655091765E+02  0.64456841202E+02  0.10000000000E+01 0.  0.
    9000005    1    3    3    0    0  0.32161165546E+02 -0.51482043560E+02 -0.56728089887E+02  0.83089214466E+02  0.10000000000E+01 0.  0.
<mgrwt>
<rscale>  0 0.12500366E+03</rscale>
<asrwt>0</asrwt>
<pdfrwt beam="1">  1        4 0.86453595E-02 0.12500366E+03</pdfrwt>
<pdfrwt beam="2">  1       -4 0.28241154E-01 0.12500366E+03</pdfrwt>
<totfact> 0.18658513E+03</totfact>
</mgrwt>
</event>
<event>
 5    1  0.1466870E-002  0.1249951E+03  0.7818608E-02  0.1235077E+00
          4   -1    0    0  501    0  0.00000000000E+00  0.00000000000E+00  0.20920958767E+02  0.20959470789E+02  0.12700000000E+01 0.  1.
         -4   -1    0    0    0  501 -0.00000000000E+00 -0.00000000000E+00 -0.18648757511E+03  0.18649189948E+03  0.12700000000E+01 0.  1.
         25    2    1    2    0    0  0.00000000000E+00  0.00000000000E+00 -0.16556661634E+03  0.20745137026E+03  0.12499506621E+03 0.  0.
    9000005    1    3    3    0    0 -0.32382918768E+02  0.26437711217E+02 -0.15987051259E+03  0.16524886323E+03  0.10000000000E+01 0.  0.
    9000005    1    3    3    0    0  0.32382918768E+02 -0.26437711217E+02 -0.56961037532E+01  0.42202507038E+02  0.10000000000E+01 0.  0.
<mgrwt>
<rscale>  0 0.12499507E+03</rscale>
<asrwt>0</asrwt>
<pdfrwt beam="1">  1        4 0.52355948E-02 0.12499507E+03</pdfrwt>
<pdfrwt beam="2">  1       -4 0.46627243E-01 0.12499507E+03</pdfrwt>
<totfact> 0.16029790E+03</totfact>
</mgrwt>
</event>
<event>
 5    1  0.1466870E-002  0.1249952E+03  0.7818608E-02  0.1235077E+00
          4   -1    0    0  501    0  0.00000000000E+00  0.00000000000E+00  0.32674460313E+02  0.32699132354E+02  0.12700000000E+01 0. -1.
         -4   -1    0    0    0  501 -0.00000000000E+00 -0.00000000000E+00 -0.11946815581E+03  0.11947490595E+03  0.12700000000E+01 0. -1.
         25    2    1    2    0    0  0.00000000000E+00  0.00000000000E+00 -0.86793695493E+02  0.15217403830E+03  0.12499516933E+03 0.  0.
    9000005    1    3    3    0    0 -0.12493691627E+02  0.34494669309E+02 -0.10498259777E+03  0.11121295058E+03  0.10000000000E+01 0.  0.
    9000005    1    3    3    0    0  0.12493691627E+02 -0.34494669309E+02  0.18188902282E+02  0.40961087723E+02  0.10000000000E+01 0.  0.
<mgrwt>
<rscale>  0 0.12499517E+03</rscale>
<asrwt>0</asrwt>
<pdfrwt beam="1">  1        4 0.81725431E-02 0.12499517E+03</pdfrwt>
<pdfrwt beam="2">  1       -4 0.29870966E-01 0.12499517E+03</pdfrwt>
<totfact> 0.18434469E+03</totfact>
</mgrwt>
</event>
<event>
 5    1  0.1466870E-002  0.1249973E+03  0.7818608E-02  0.1235073E+00
         -4   -1    0    0    0  501 -0.00000000000E+00  0.00000000000E+00  0.59015508496E+03  0.59015645147E+03  0.12700000000E+01 0.  1.
          4   -1    0    0  501    0  0.00000000000E+00 -0.00000000000E+00 -0.65564300000E+01  0.66782987612E+01  0.12700000000E+01 0.  1.
         25    2    1    2    0    0  0.00000000000E+00  0.00000000000E+00  0.58359865496E+03  0.59683475023E+03  0.12499731599E+03 0.  0.
    9000005    1    3    3    0    0 -0.13878429291E+02  0.60748437004E+02  0.26935336245E+03  0.27646919767E+03  0.10000000000E+01 0.  0.
    9000005    1    3    3    0    0  0.13878429291E+02 -0.60748437004E+02  0.31424529252E+03  0.32036555256E+03  0.10000000000E+01 0.  0.
<mgrwt>
<rscale>  0 0.12499732E+03</rscale>
<asrwt>0</asrwt>
<pdfrwt beam="2">  1        4 0.16545117E-02 0.12499732E+03</pdfrwt>
<pdfrwt beam="1">  1       -4 0.14755419E+00 0.12499732E+03</pdfrwt>
<totfact> 0.73907070E+02</totfact>
</mgrwt>
</event>
<event>
 5    1  0.1466870E-002  0.1249992E+03  0.7818608E-02  0.1235071E+00
          4   -1    0    0  501    0  0.00000000000E+00  0.00000000000E+00  0.21679852215E+02  0.21717018489E+02  0.12700000000E+01 0.  1.
         -4   -1    0    0    0  501 -0.00000000000E+00 -0.00000000000E+00 -0.17998272090E+03  0.17998720156E+03  0.12700000000E+01 0.  1.
         25    2    1    2    0    0  0.00000000000E+00  0.00000000000E+00 -0.15830286869E+03  0.20170422005E+03  0.12499917659E+03 0.  0.
    9000005    1    3    3    0    0  0.25006814067E+02 -0.55899255678E+02 -0.99249632850E+02  0.11662571396E+03  0.10000000000E+01 0.  0.
    9000005    1    3    3    0    0 -0.25006814067E+02  0.55899255678E+02 -0.59053235839E+02  0.85078506088E+02  0.10000000000E+01 0.  0.
<mgrwt>
<rscale>  0 0.12499918E+03</rscale>
<asrwt>0</asrwt>
<pdfrwt beam="1">  1        4 0.54251695E-02 0.12499918E+03</pdfrwt>
<pdfrwt beam="2">  1       -4 0.45000882E-01 0.12499918E+03</pdfrwt>
<totfact> 0.16254338E+03</totfact>
</mgrwt>
</event>
<event>
 5    1  0.1466870E-002  0.1250015E+03  0.7818608E-02  0.1235067E+00
          4   -1    0    0  501    0  0.00000000000E+00  0.00000000000E+00  0.12614896452E+02  0.12678663671E+02  0.12700000000E+01 0.  1.
         -4   -1    0    0    0  501 -0.00000000000E+00 -0.00000000000E+00 -0.30881562184E+03  0.30881823325E+03  0.12700000000E+01 0.  1.
         25    2    1    2    0    0  0.00000000000E+00  0.00000000000E+00 -0.29620072539E+03  0.32149689693E+03  0.12500154005E+03 0.  0.
    9000005    1    3    3    0    0  0.20234008926E+02  0.30092661906E+02 -0.17199737095E+02  0.40147408061E+02  0.10000000000E+01 0.  0.
    9000005    1    3    3    0    0 -0.20234008926E+02 -0.30092661906E+02 -0.27900098829E+03  0.28134948887E+03  0.10000000000E+01 0.  0.
<mgrwt>
<rscale>  0 0.12500154E+03</rscale>
<asrwt>0</asrwt>
<pdfrwt beam="1">  1        4 0.31620225E-02 0.12500154E+03</pdfrwt>
<pdfrwt beam="2">  1       -4 0.77212178E-01 0.12500154E+03</pdfrwt>
<totfact> 0.12388823E+03</totfact>
</mgrwt>
</event>
<event>
 5    1  0.1466870E-002  0.1249985E+03  0.7818608E-02  0.1235072E+00
          4   -1    0    0  501    0  0.00000000000E+00  0.00000000000E+00  0.62032958403E+03  0.62033088406E+03  0.12700000000E+01 0.  1.
         -4   -1    0    0    0  501 -0.00000000000E+00 -0.00000000000E+00 -0.62315504820E+01  0.63596478999E+01  0.12700000000E+01 0.  1.
         25    2    1    2    0    0  0.00000000000E+00  0.00000000000E+00  0.61409803355E+03  0.62669053196E+03  0.12499851217E+03 0.  0.
    9000005    1    3    3    0    0 -0.55792077620E+02 -0.26963015814E+02  0.34759303160E+03  0.35307460368E+03  0.10000000000E+01 0.  0.
    9000005    1    3    3    0    0  0.55792077620E+02  0.26963015814E+02  0.26650500194E+03  0.27361592828E+03  0.10000000000E+01 0.  0.
<mgrwt>
<rscale>  0 0.12499851E+03</rscale>
<asrwt>0</asrwt>
<pdfrwt beam="1">  1        4 0.15509855E+00 0.12499851E+03</pdfrwt>
<pdfrwt beam="2">  1       -4 0.15740625E-02 0.12499851E+03</pdfrwt>
<totfact> 0.70244870E+02</totfact>
</mgrwt>
</event>
<event>
 5    1  0.1466870E-002  0.1249937E+03  0.7818608E-02  0.1235079E+00
          4   -1    0    0  501    0  0.00000000000E+00  0.00000000000E+00  0.22770336023E+03  0.22770690188E+03  0.12700000000E+01 0.  1.
         -4   -1    0    0    0  501 -0.00000000000E+00 -0.00000000000E+00 -0.17126091104E+02  0.17173115515E+02  0.12700000000E+01 0.  1.
         25    2    1    2    0    0  0.00000000000E+00  0.00000000000E+00  0.21057726913E+03  0.24488001739E+03  0.12499374642E+03 0.  0.
    9000005    1    3    3    0    0  0.58629266011E+02  0.20667794426E+02  0.92849942966E+02  0.11174372675E+03  0.10000000000E+01 0.  0.
    9000005    1    3    3    0    0 -0.58629266011E+02 -0.20667794426E+02  0.11772732616E+03  0.13313629064E+03  0.10000000000E+01 0.  0.
<mgrwt>
<rscale>  0 0.12499375E+03</rscale>
<asrwt>0</asrwt>
<pdfrwt beam="1">  1        4 0.56932161E-01 0.12499375E+03</pdfrwt>
<pdfrwt beam="2">  1       -4 0.42878435E-02 0.12499375E+03</pdfrwt>
<totfact> 0.14671909E+03</totfact>
</mgrwt>
</event>
<event>
 5    1  0.1466870E-002  0.1249987E+03  0.7818608E-02  0.1235071E+00
         -4   -1    0    0    0  501 -0.00000000000E+00  0.00000000000E+00  0.23675775914E+02  0.23709813688E+02  0.12700000000E+01 0.  1.
          4   -1    0    0  501    0  0.00000000000E+00 -0.00000000000E+00 -0.16483087170E+03  0.16483576422E+03  0.12700000000E+01 0.  1.
         25    2    1    2    0    0  0.00000000000E+00  0.00000000000E+00 -0.14115509578E+03  0.18854557790E+03  0.12499869552E+03 0.  0.
    9000005    1    3    3    0    0  0.10231557612E+02 -0.56390746426E+02 -0.10815309864E+03  0.12240381448E+03  0.10000000000E+01 0.  0.
    9000005    1    3    3    0    0 -0.10231557612E+02  0.56390746426E+02 -0.33001997146E+02  0.66141763427E+02  0.10000000000E+01 0.  0.
<mgrwt>
<rscale>  0 0.12499870E+03</rscale>
<asrwt>0</asrwt>
<pdfrwt beam="2">  1        4 0.41212581E-01 0.12499870E+03</pdfrwt>
<pdfrwt beam="1">  1       -4 0.59238107E-02 0.12499870E+03</pdfrwt>
<totfact> 0.16791715E+03</totfact>
</mgrwt>
</event>
<event>
 5    1  0.1466870E-002  0.1250011E+03  0.7818608E-02  0.1235068E+00
         -4   -1    0    0    0  501 -0.00000000000E+00  0.00000000000E+00  0.23587932781E+02  0.23622097132E+02  0.12700000000E+01 0. -1.
          4   -1    0    0  501    0  0.00000000000E+00 -0.00000000000E+00 -0.16545016276E+03  0.16545503697E+03  0.12700000000E+01 0. -1.
         25    2    1    2    0    0  0.00000000000E+00  0.00000000000E+00 -0.14186222998E+03  0.18907713410E+03  0.12500108137E+03 0.  0.
    9000005    1    3    3    0    0 -0.36366865808E+02 -0.90048978638E+01 -0.14658672897E+03  0.15130203642E+03  0.10000000000E+01 0.  0.
    9000005    1    3    3    0    0  0.36366865808E+02  0.90048978638E+01  0.47244989874E+01  0.37775097683E+02  0.10000000000E+01 0.  0.
<mgrwt>
<rscale>  0 0.12500108E+03</rscale>
<asrwt>0</asrwt>
<pdfrwt beam="2">  1        4 0.41367417E-01 0.12500108E+03</pdfrwt>
<pdfrwt beam="1">  1       -4 0.59018635E-02 0.12500108E+03</pdfrwt>
<totfact> 0.16768540E+03</totfact>
</mgrwt>
</event>
<event>
 5    1  0.1466870E-002  0.1250065E+03  0.7818608E-02  0.1235059E+00
          4   -1    0    0  501    0  0.00000000000E+00  0.00000000000E+00  0.35371983965E+03  0.35372211955E+03  0.12700000000E+01 0.  1.
         -4   -1    0    0    0  501 -0.00000000000E+00 -0.00000000000E+00 -0.11005653207E+02  0.11078686858E+02  0.12700000000E+01 0.  1.
         25    2    1    2    0    0  0.00000000000E+00  0.00000000000E+00  0.34271418644E+03  0.36480080641E+03  0.12500645891E+03 0.  0.
    9000005    1    3    3    0    0  0.25624565550E+02 -0.58755720849E+01  0.59016996721E+01  0.26962395405E+02  0.10000000000E+01 0.  0.
    9000005    1    3    3    0    0 -0.25624565550E+02  0.58755720849E+01  0.33681248677E+03  0.33783841100E+03  0.10000000000E+01 0.  0.
<mgrwt>
<rscale>  0 0.12500646E+03</rscale>
<asrwt>0</asrwt>
<pdfrwt beam="1">  1        4 0.88439379E-01 0.12500646E+03</pdfrwt>
<pdfrwt beam="2">  1       -4 0.27608274E-02 0.12500646E+03</pdfrwt>
<totfact> 0.11330436E+03</totfact>
</mgrwt>
</event>
<event>
 5    1  0.1466870E-002  0.1250027E+03  0.7818608E-02  0.1235065E+00
          4   -1    0    0  501    0  0.00000000000E+00  0.00000000000E+00  0.30672269093E+03  0.30672532017E+03  0.12700000000E+01 0.  1.
         -4   -1    0    0    0  501 -0.00000000000E+00 -0.00000000000E+00 -0.12701642852E+02  0.12764976738E+02  0.12700000000E+01 0.  1.
         25    2    1    2    0    0  0.00000000000E+00  0.00000000000E+00  0.29402104808E+03  0.31949029691E+03  0.12500269238E+03 0.  0.
    9000005    1    3    3    0    0 -0.59675452865E+02  0.11644931559E+02  0.18392968651E+03  0.19372117511E+03  0.10000000000E+01 0.  0.
    9000005    1    3    3    0    0  0.59675452865E+02 -0.11644931559E+02  0.11009136157E+03  0.12576912180E+03  0.10000000000E+01 0.  0.
<mgrwt>
<rscale>  0 0.12500269E+03</rscale>
<asrwt>0</asrwt>
<pdfrwt beam="1">  1        4 0.76688918E-01 0.12500269E+03</pdfrwt>
<pdfrwt beam="2">  1       -4 0.31836561E-02 0.12500269E+03</pdfrwt>
<totfact> 0.12441098E+03</totfact>
</mgrwt>
</event>
<event>
 5    1  0.1466870E-002  0.1249987E+03  0.7818608E-02  0.1235071E+00
         -4   -1    0    0    0  501 -0.00000000000E+00  0.00000000000E+00  0.23467434895E+03  0.23467778539E+03  0.12700000000E+01 0.  1.
          4   -1    0    0  501    0  0.00000000000E+00 -0.00000000000E+00 -0.16617272589E+02  0.16665732756E+02  0.12700000000E+01 0.  1.
         25    2    1    2    0    0  0.00000000000E+00  0.00000000000E+00  0.21805707637E+03  0.25134351815E+03  0.12499870225E+03 0.  0.
    9000005    1    3    3    0    0 -0.42125823505E+01  0.36356851839E+02  0.71795170701E+01  0.37311017020E+02  0.10000000000E+01 0.  0.
    9000005    1    3    3    0    0  0.42125823505E+01 -0.36356851839E+02  0.21087755930E+03  0.21403250113E+03  0.10000000000E+01 0.  0.
<mgrwt>
<rscale>  0 0.12499870E+03</rscale>
<asrwt>0</asrwt>
<pdfrwt beam="2">  1        4 0.41608052E-02 0.12499870E+03</pdfrwt>
<pdfrwt beam="1">  1       -4 0.58675075E-01 0.12499870E+03</pdfrwt>
<totfact> 0.14453832E+03</totfact>
</mgrwt>
</event>
<event>
 5    1  0.1466870E-002  0.1250165E+03  0.7818608E-02  0.1235043E+00
         -4   -1    0    0    0  501 -0.00000000000E+00  0.00000000000E+00  0.18713569122E+02  0.18756614015E+02  0.12700000000E+01 0.  1.
          4   -1    0    0  501    0  0.00000000000E+00 -0.00000000000E+00 -0.20850928235E+03  0.20851315001E+03  0.12700000000E+01 0.  1.
         25    2    1    2    0    0  0.00000000000E+00  0.00000000000E+00 -0.18979571323E+03  0.22726976402E+03  0.12501653042E+03 0.  0.
    9000005    1    3    3    0    0  0.39533688697E+02 -0.17276095067E+02 -0.17710527747E+03  0.18228728785E+03  0.10000000000E+01 0.  0.
    9000005    1    3    3    0    0 -0.39533688697E+02  0.17276095067E+02 -0.12690435752E+02  0.44982476170E+02  0.10000000000E+01 0.  0.
<mgrwt>
<rscale>  0 0.12501653E+03</rscale>
<asrwt>0</asrwt>
<pdfrwt beam="2">  1        4 0.52133178E-01 0.12501653E+03</pdfrwt>
<pdfrwt beam="1">  1       -4 0.46842570E-02 0.12501653E+03</pdfrwt>
<totfact> 0.15279538E+03</totfact>
</mgrwt>
</event>
<event>
 5    1  0.1466870E-002  0.1250004E+03  0.7818608E-02  0.1235069E+00
         -4   -1    0    0    0  501 -0.00000000000E+00  0.00000000000E+00  0.52299098047E+03  0.52299252247E+03  0.12700000000E+01 0. -1.
          4   -1    0    0  501    0  0.00000000000E+00 -0.00000000000E+00 -0.74135561345E+01  0.75215500104E+01  0.12700000000E+01 0. -1.
         25    2    1    2    0    0  0.00000000000E+00  0.00000000000E+00  0.51557742434E+03  0.53051407248E+03  0.12500040243E+03 0.  0.
    9000005    1    3    3    0    0 -0.52555820254E+02 -0.12772852245E+02  0.39065105099E+03  0.39437862980E+03  0.10000000000E+01 0.  0.
    9000005    1    3    3    0    0  0.52555820254E+02  0.12772852245E+02  0.12492637335E+03  0.13613544268E+03  0.10000000000E+01 0.  0.
<mgrwt>
<rscale>  0 0.12500040E+03</rscale>
<asrwt>0</asrwt>
<pdfrwt beam="2">  1        4 0.18670810E-02 0.12500040E+03</pdfrwt>
<pdfrwt beam="1">  1       -4 0.13076144E+00 0.12500040E+03</pdfrwt>
<totfact> 0.82948808E+02</totfact>
</mgrwt>
</event>
<event>
 5    1  0.1466870E-002  0.1250021E+03  0.7818608E-02  0.1235066E+00
         -4   -1    0    0    0  501 -0.00000000000E+00  0.00000000000E+00  0.40850130131E+02  0.40869867038E+02  0.12700000000E+01 0.  1.
          4   -1    0    0  501    0  0.00000000000E+00 -0.00000000000E+00 -0.95580052885E+02  0.95588489943E+02  0.12700000000E+01 0.  1.
         25    2    1    2    0    0  0.00000000000E+00  0.00000000000E+00 -0.54729922754E+02  0.13645835698E+03  0.12500207496E+03 0.  0.
    9000005    1    3    3    0    0 -0.61632193965E+02 -0.10258576188E+02 -0.28751814177E+02  0.68785409331E+02  0.10000000000E+01 0.  0.
    9000005    1    3    3    0    0  0.61632193965E+02  0.10258576188E+02 -0.25978108578E+02  0.67672947650E+02  0.10000000000E+01 0.  0.
<mgrwt>
<rscale>  0 0.12500207E+03</rscale>
<asrwt>0</asrwt>
<pdfrwt beam="2">  1        4 0.23898535E-01 0.12500207E+03</pdfrwt>
<pdfrwt beam="1">  1       -4 0.10216054E-01 0.12500207E+03</pdfrwt>
<totfact> 0.19222090E+03</totfact>
</mgrwt>
</event>
<event>
 5    1  0.1466870E-002  0.1250003E+03  0.7818608E-02  0.1235069E+00
         -4   -1    0    0    0  501 -0.00000000000E+00  0.00000000000E+00  0.11087635433E+03  0.11088362751E+03  0.12700000000E+01 0.  1.
          4   -1    0    0  501    0  0.00000000000E+00 -0.00000000000E+00 -0.35210989032E+02  0.35233884949E+02  0.12700000000E+01 0.  1.
         25    2    1    2    0    0  0.00000000000E+00  0.00000000000E+00  0.75665365298E+02  0.14611751246E+03  0.12500031976E+03 0.  0.
    9000005    1    3    3    0    0 -0.16629680590E+02 -0.57703997807E+02  0.58044560065E+02  0.83525257213E+02  0.10000000000E+01 0.  0.
    9000005    1    3    3    0    0  0.16629680590E+02  0.57703997807E+02  0.17620805233E+02  0.62592255244E+02  0.10000000000E+01 0.  0.
<mgrwt>
<rscale>  0 0.12500032E+03</rscale>
<asrwt>0</asrwt>
<pdfrwt beam="2">  1        4 0.88065184E-02 0.12500032E+03</pdfrwt>
<pdfrwt beam="1">  1       -4 0.27722860E-01 0.12500032E+03</pdfrwt>
<totfact> 0.18731206E+03</totfact>
</mgrwt>
</event>
<event>
 5    1  0.1466870E-002  0.1249950E+03  0.7818608E-02  0.1235077E+00
         -4   -1    0    0    0  501 -0.00000000000E+00  0.00000000000E+00  0.22422538125E+02  0.22458475371E+02  0.12700000000E+01 0.  1.
          4   -1    0    0  501    0  0.00000000000E+00 -0.00000000000E+00 -0.17401917236E+03  0.17402380656E+03  0.12700000000E+01 0.  1.
         25    2    1    2    0    0  0.00000000000E+00  0.00000000000E+00 -0.15159663424E+03  0.19648228193E+03  0.12499499030E+03 0.  0.
    9000005    1    3    3    0    0  0.31357309307E+02  0.40197224281E+02 -0.18994746074E+02  0.54414134793E+02  0.10000000000E+01 0.  0.
    9000005    1    3    3    0    0 -0.31357309307E+02 -0.40197224281E+02 -0.13260188816E+03  0.14206814714E+03  0.10000000000E+01 0.  0.
<mgrwt>
<rscale>  0 0.12499499E+03</rscale>
<asrwt>0</asrwt>
<pdfrwt beam="2">  1        4 0.43509861E-01 0.12499499E+03</pdfrwt>
<pdfrwt beam="1">  1       -4 0.56107065E-02 0.12499499E+03</pdfrwt>
<totfact> 0.16465780E+03</totfact>
</mgrwt>
</event>
<event>
 5    1  0.1466870E-002  0.1250007E+03  0.7818608E-02  0.1235068E+00
          4   -1    0    0  501    0  0.00000000000E+00  0.00000000000E+00  0.99549456169E+02  0.99557556838E+02  0.12700000000E+01 0. -1.
         -4   -1    0    0    0  501 -0.00000000000E+00 -0.00000000000E+00 -0.39219779083E+02  0.39240336025E+02  0.12700000000E+01 0. -1.
         25    2    1    2    0    0  0.00000000000E+00  0.00000000000E+00  0.60329677086E+02  0.13879789286E+03  0.12500074050E+03 0.  0.
    9000005    1    3    3    0    0 -0.60027175377E+01 -0.48685171423E+02  0.73155455184E+02  0.88085181259E+02  0.10000000000E+01 0.  0.
    9000005    1    3    3    0    0  0.60027175377E+01  0.48685171423E+02 -0.12825778098E+02  0.50712711603E+02  0.10000000000E+01 0.  0.
<mgrwt>
<rscale>  0 0.12500074E+03</rscale>
<asrwt>0</asrwt>
<pdfrwt beam="1">  1        4 0.24890946E-01 0.12500074E+03</pdfrwt>
<pdfrwt beam="2">  1       -4 0.98085270E-02 0.12500074E+03</pdfrwt>
<totfact> 0.19101680E+03</totfact>
</mgrwt>
</event>
<event>
 5    1  0.1466870E-002  0.1250002E+03  0.7818608E-02  0.1235069E+00
          4   -1    0    0  501    0  0.00000000000E+00  0.00000000000E+00  0.14732521637E+02  0.14787159760E+02  0.12700000000E+01 0.  1.
         -4   -1    0    0    0  501 -0.00000000000E+00 -0.00000000000E+00 -0.26459867281E+03  0.26460172062E+03  0.12700000000E+01 0.  1.
         25    2    1    2    0    0  0.00000000000E+00  0.00000000000E+00 -0.24986615118E+03  0.27938888038E+03  0.12500021190E+03 0.  0.
    9000005    1    3    3    0    0 -0.30732227156E+02 -0.11313935999E+02 -0.59718502655E+01  0.33303722455E+02  0.10000000000E+01 0.  0.
    9000005    1    3    3    0    0  0.30732227156E+02  0.11313935999E+02 -0.24389430091E+03  0.24608515792E+03  0.10000000000E+01 0.  0.
<mgrwt>
<rscale>  0 0.12500021E+03</rscale>
<asrwt>0</asrwt>
<pdfrwt beam="1">  1        4 0.36903420E-02 0.12500021E+03</pdfrwt>
<pdfrwt beam="2">  1       -4 0.66156864E-01 0.12500021E+03</pdfrwt>
<totfact> 0.13568974E+03</totfact>
</mgrwt>
</event>
<event>
 5    1  0.1466870E-002  0.1250002E+03  0.7818608E-02  0.1235069E+00
         -4   -1    0    0    0  501 -0.00000000000E+00  0.00000000000E+00  0.12040747866E+02  0.12107539352E+02  0.12700000000E+01 0.  1.
          4   -1    0    0  501    0  0.00000000000E+00 -0.00000000000E+00 -0.32345481235E+03  0.32345730558E+03  0.12700000000E+01 0.  1.
         25    2    1    2    0    0  0.00000000000E+00  0.00000000000E+00 -0.31141406448E+03  0.33556484493E+03  0.12500018238E+03 0.  0.
    9000005    1    3    3    0    0  0.37011810687E+02  0.50351438671E+02 -0.15477750669E+03  0.16691979536E+03  0.10000000000E+01 0.  0.
    9000005    1    3    3    0    0 -0.37011810687E+02 -0.50351438671E+02 -0.15663655780E+03  0.16864504957E+03  0.10000000000E+01 0.  0.
<mgrwt>
<rscale>  0 0.12500018E+03</rscale>
<asrwt>0</asrwt>
<pdfrwt beam="2">  1        4 0.80872335E-01 0.12500018E+03</pdfrwt>
<pdfrwt beam="1">  1       -4 0.30188486E-02 0.12500018E+03</pdfrwt>
<totfact> 0.12029694E+03</totfact>
</mgrwt>
</event>
<event>
 5    1  0.1466870E-002  0.1249906E+03  0.7818608E-02  0.1235084E+00
         -4   -1    0    0    0  501 -0.00000000000E+00  0.00000000000E+00  0.10058552230E+03  0.10059353953E+03  0.12700000000E+01 0. -1.
          4   -1    0    0  501    0  0.00000000000E+00 -0.00000000000E+00 -0.38809310445E+02  0.38830084692E+02  0.12700000000E+01 0. -1.
         25    2    1    2    0    0  0.00000000000E+00  0.00000000000E+00  0.61776211851E+02  0.13942362422E+03  0.12499058621E+03 0.  0.
    9000005    1    3    3    0    0  0.44772006465E+01  0.11552400408E+02  0.99207147220E+02  0.99982805224E+02  0.10000000000E+01 0.  0.
    9000005    1    3    3    0    0 -0.44772006465E+01 -0.11552400408E+02 -0.37430935369E+02  0.39440819001E+02  0.10000000000E+01 0.  0.
<mgrwt>
<rscale>  0 0.12499059E+03</rscale>
<asrwt>0</asrwt>
<pdfrwt beam="2">  1        4 0.97059266E-02 0.12499059E+03</pdfrwt>
<pdfrwt beam="1">  1       -4 0.25149979E-01 0.12499059E+03</pdfrwt>
<totfact> 0.19074054E+03</totfact>
</mgrwt>
</event>
<event>
 5    1  0.1466870E-002  0.1249994E+03  0.7818608E-02  0.1235070E+00
          4   -1    0    0  501    0  0.00000000000E+00  0.00000000000E+00  0.14309718038E+03  0.14310281595E+03  0.12700000000E+01 0.  1.
         -4   -1    0    0    0  501 -0.00000000000E+00 -0.00000000000E+00 -0.27276660327E+02  0.27306209891E+02  0.12700000000E+01 0.  1.
         25    2    1    2    0    0  0.00000000000E+00  0.00000000000E+00  0.11582052006E+03  0.17040902584E+03  0.12499937289E+03 0.  0.
    9000005    1    3    3    0    0 -0.13743485760E+02 -0.25208842186E+02 -0.17758993583E+02  0.33775005230E+02  0.10000000000E+01 0.  0.
    9000005    1    3    3    0    0  0.13743485760E+02  0.25208842186E+02  0.13357951364E+03  0.13663402061E+03  0.10000000000E+01 0.  0.
<mgrwt>
<rscale>  0 0.12499937E+03</rscale>
<asrwt>0</asrwt>
<pdfrwt beam="1">  1        4 0.35778693E-01 0.12499937E+03</pdfrwt>
<pdfrwt beam="2">  1       -4 0.68235634E-02 0.12499937E+03</pdfrwt>
<totfact> 0.17578870E+03</totfact>
</mgrwt>
</event>
<event>
 5    1  0.1466870E-002  0.1249981E+03  0.7818608E-02  0.1235072E+00
          4   -1    0    0  501    0  0.00000000000E+00  0.00000000000E+00  0.12512780468E+03  0.12513424953E+03  0.12700000000E+01 0. -1.
         -4   -1    0    0    0  501 -0.00000000000E+00 -0.00000000000E+00 -0.31196945479E+02  0.31222785065E+02  0.12700000000E+01 0. -1.
         25    2    1    2    0    0  0.00000000000E+00  0.00000000000E+00  0.93930859204E+02  0.15635703459E+03  0.12499806381E+03 0.  0.
    9000005    1    3    3    0    0  0.33260990170E+02  0.27090525574E+02 -0.98763605478E+01  0.44031040649E+02  0.10000000000E+01 0.  0.
    9000005    1    3    3    0    0 -0.33260990170E+02 -0.27090525574E+02  0.10380721975E+03  0.11232599394E+03  0.10000000000E+01 0.  0.
<mgrwt>
<rscale>  0 0.12499806E+03</rscale>
<asrwt>0</asrwt>
<pdfrwt beam="1">  1        4 0.31285986E-01 0.12499806E+03</pdfrwt>
<pdfrwt beam="2">  1       -4 0.78032720E-02 0.12499806E+03</pdfrwt>
<totfact> 0.18231378E+03</totfact>
</mgrwt>
</event>
<event>
 5    1  0.1466870E-002  0.1250014E+03  0.7818608E-02  0.1235067E+00
          4   -1    0    0  501    0  0.00000000000E+00  0.00000000000E+00  0.64232370282E+02  0.64244924251E+02  0.12700000000E+01 0. -1.
         -4   -1    0    0    0  501 -0.00000000000E+00 -0.00000000000E+00 -0.60790541490E+02  0.60803806087E+02  0.12700000000E+01 0. -1.
         25    2    1    2    0    0  0.00000000000E+00  0.00000000000E+00  0.34418287923E+01  0.12504873034E+03  0.12500135509E+03 0.  0.
    9000005    1    3    3    0    0 -0.11927883341E+02  0.40344752285E+02  0.47948397099E+02  0.63796725796E+02  0.10000000000E+01 0.  0.
    9000005    1    3    3    0    0  0.11927883341E+02 -0.40344752285E+02 -0.44506568307E+02  0.61252004542E+02  0.10000000000E+01 0.  0.
<mgrwt>
<rscale>  0 0.12500136E+03</rscale>
<asrwt>0</asrwt>
<pdfrwt beam="1">  1        4 0.16061320E-01 0.12500136E+03</pdfrwt>
<pdfrwt beam="2">  1       -4 0.15200863E-01 0.12500136E+03</pdfrwt>
<totfact> 0.19831784E+03</totfact>
</mgrwt>
</event>
<event>
 5    1  0.1466870E-002  0.1249980E+03  0.7818608E-02  0.1235072E+00
          4   -1    0    0  501    0  0.00000000000E+00  0.00000000000E+00  0.42282539005E+01  0.44148647824E+01  0.12700000000E+01 0. -1.
         -4   -1    0    0    0  501 -0.00000000000E+00 -0.00000000000E+00 -0.90368158311E+03  0.90368247552E+03  0.12700000000E+01 0. -1.
         25    2    1    2    0    0  0.00000000000E+00  0.00000000000E+00 -0.89945332921E+03  0.90809734030E+03  0.12499795210E+03 0.  0.
    9000005    1    3    3    0    0  0.14101406609E+02  0.18493011285E+02 -0.87110832404E+03  0.87141927528E+03  0.10000000000E+01 0.  0.
    9000005    1    3    3    0    0 -0.14101406609E+02 -0.18493011285E+02 -0.28345005178E+02  0.36678065016E+02  0.10000000000E+01 0.  0.
<mgrwt>
<rscale>  0 0.12499795E+03</rscale>
<asrwt>0</asrwt>
<pdfrwt beam="1">  1        4 0.10805045E-02 0.12499795E+03</pdfrwt>
<pdfrwt beam="2">  1       -4 0.22594319E+00 0.12499795E+03</pdfrwt>
<totfact> 0.43662368E+02</totfact>
</mgrwt>
</event>
<event>
 5    1  0.1466870E-002  0.1249990E+03  0.7818608E-02  0.1235071E+00
          4   -1    0    0  501    0  0.00000000000E+00  0.00000000000E+00  0.25376973650E+03  0.25377291436E+03  0.12700000000E+01 0. -1.
         -4   -1    0    0    0  501 -0.00000000000E+00 -0.00000000000E+00 -0.15363174004E+02  0.15415577040E+02  0.12700000000E+01 0. -1.
         25    2    1    2    0    0  0.00000000000E+00  0.00000000000E+00  0.23840656250E+03  0.26918849140E+03  0.12499901944E+03 0.  0.
    9000005    1    3    3    0    0 -0.18607329040E+02 -0.52047016790E+02  0.56415416939E+02  0.78986226135E+02  0.10000000000E+01 0.  0.
    9000005    1    3    3    0    0  0.18607329040E+02  0.52047016790E+02  0.18199114556E+03  0.19020226527E+03  0.10000000000E+01 0.  0.
<mgrwt>
<rscale>  0 0.12499902E+03</rscale>
<asrwt>0</asrwt>
<pdfrwt beam="1">  1        4 0.63449380E-01 0.12499902E+03</pdfrwt>
<pdfrwt beam="2">  1       -4 0.38477412E-02 0.12499902E+03</pdfrwt>
<totfact> 0.13881090E+03</totfact>
</mgrwt>
</event>
<event>
 5    1  0.1466870E-002  0.1250069E+03  0.7818608E-02  0.1235059E+00
         -4   -1    0    0    0  501 -0.00000000000E+00  0.00000000000E+00  0.27469529758E+03  0.27469823336E+03  0.12700000000E+01 0.  1.
          4   -1    0    0  501    0  0.00000000000E+00 -0.00000000000E+00 -0.14190497842E+02  0.14247214780E+02  0.12700000000E+01 0.  1.
         25    2    1    2    0    0  0.00000000000E+00  0.00000000000E+00  0.26050479974E+03  0.28894544814E+03  0.12500688507E+03 0.  0.
    9000005    1    3    3    0    0  0.30893507666E+02 -0.17216606594E+02  0.11154875691E+02  0.37097865306E+02  0.10000000000E+01 0.  0.
    9000005    1    3    3    0    0 -0.30893507666E+02  0.17216606594E+02  0.24934992405E+03  0.25184758284E+03  0.10000000000E+01 0.  0.
<mgrwt>
<rscale>  0 0.12500689E+03</rscale>
<asrwt>0</asrwt>
<pdfrwt beam="2">  1        4 0.35550811E-02 0.12500689E+03</pdfrwt>
<pdfrwt beam="1">  1       -4 0.68681279E-01 0.12500689E+03</pdfrwt>
<totfact> 0.13284538E+03</totfact>
</mgrwt>
</event>
<event>
 5    1  0.1466870E-002  0.1249935E+03  0.7818608E-02  0.1235080E+00
         -4   -1    0    0    0  501 -0.00000000000E+00  0.00000000000E+00  0.12687223246E+03  0.12687858870E+03  0.12700000000E+01 0. -1.
          4   -1    0    0  501    0  0.00000000000E+00 -0.00000000000E+00 -0.30765397987E+02  0.30791599720E+02  0.12700000000E+01 0. -1.
         25    2    1    2    0    0  0.00000000000E+00  0.00000000000E+00  0.96106834476E+02  0.15767018842E+03  0.12499345856E+03 0.  0.
    9000005    1    3    3    0    0 -0.23271177369E+02  0.56451805116E+02  0.64811289502E+02  0.89049745894E+02  0.10000000000E+01 0.  0.
    9000005    1    3    3    0    0  0.23271177369E+02 -0.56451805116E+02  0.31295544974E+02  0.68620442524E+02  0.10000000000E+01 0.  0.
<mgrwt>
<rscale>  0 0.12499346E+03</rscale>
<asrwt>0</asrwt>
<pdfrwt beam="2">  1        4 0.76954193E-02 0.12499346E+03</pdfrwt>
<pdfrwt beam="1">  1       -4 0.31722127E-01 0.12499346E+03</pdfrwt>
<totfact> 0.18170716E+03</totfact>
</mgrwt>
</event>
<event>
 5    1  0.1466870E-002  0.1249987E+03  0.7818608E-02  0.1235071E+00
          4   -1    0    0  501    0  0.00000000000E+00  0.00000000000E+00  0.42945347967E+02  0.42964122381E+02  0.12700000000E+01 0. -1.
         -4   -1    0    0    0  501 -0.00000000000E+00 -0.00000000000E+00 -0.90913720156E+02  0.90922590221E+02  0.12700000000E+01 0. -1.
         25    2    1    2    0    0  0.00000000000E+00  0.00000000000E+00 -0.47968372189E+02  0.13388671260E+03  0.12499874832E+03 0.  0.
    9000005    1    3    3    0    0  0.45356506272E+02 -0.42277405585E+02 -0.32320935687E+02  0.69930212125E+02  0.10000000000E+01 0.  0.
    9000005    1    3    3    0    0 -0.45356506272E+02  0.42277405585E+02 -0.15647436503E+02  0.63956500477E+02  0.10000000000E+01 0.  0.
<mgrwt>
<rscale>  0 0.12499875E+03</rscale>
<asrwt>0</asrwt>
<pdfrwt beam="1">  1        4 0.10739793E-01 0.12499875E+03</pdfrwt>
<pdfrwt beam="2">  1       -4 0.22731885E-01 0.12499875E+03</pdfrwt>
<totfact> 0.19358175E+03</totfact>
</mgrwt>
</event>
<event>
 5    1  0.1466870E-002  0.1250010E+03  0.7818608E-02  0.1235068E+00
          4   -1    0    0  501    0  0.00000000000E+00  0.00000000000E+00  0.36610825356E+03  0.36611045631E+03  0.12700000000E+01 0. -1.
         -4   -1    0    0    0  501 -0.00000000000E+00 -0.00000000000E+00 -0.10629787449E+02  0.10705385617E+02  0.12700000000E+01 0. -1.
         25    2    1    2    0    0  0.00000000000E+00  0.00000000000E+00  0.35547846611E+03  0.37681584193E+03  0.12500095545E+03 0.  0.
    9000005    1    3    3    0    0  0.50940498859E+02  0.31545693738E+01  0.69032034045E+02  0.85856318674E+02  0.10000000000E+01 0.  0.
    9000005    1    3    3    0    0 -0.50940498859E+02 -0.31545693738E+01  0.28644643206E+03  0.29095952326E+03  0.10000000000E+01 0.  0.
<mgrwt>
<rscale>  0 0.12500096E+03</rscale>
<asrwt>0</asrwt>
<pdfrwt beam="1">  1        4 0.91536784E-01 0.12500096E+03</pdfrwt>
<pdfrwt beam="2">  1       -4 0.26671721E-02 0.12500096E+03</pdfrwt>
<totfact> 0.11062638E+03</totfact>
</mgrwt>
</event>
<event>
 5    1  0.1466870E-002  0.1249957E+03  0.7818608E-02  0.1235076E+00
         -4   -1    0    0    0  501 -0.00000000000E+00  0.00000000000E+00  0.24641895715E+02  0.24674600796E+02  0.12700000000E+01 0. -1.
          4   -1    0    0  501    0  0.00000000000E+00 -0.00000000000E+00 -0.15836944661E+03  0.15837453874E+03  0.12700000000E+01 0. -1.
         25    2    1    2    0    0  0.00000000000E+00  0.00000000000E+00 -0.13372755090E+03  0.18304913953E+03  0.12499571839E+03 0.  0.
    9000005    1    3    3    0    0  0.27444655827E+02  0.25359460111E+02  0.64852611749E+01  0.37939029549E+02  0.10000000000E+01 0.  0.
    9000005    1    3    3    0    0 -0.27444655827E+02 -0.25359460111E+02 -0.14021281207E+03  0.14511010998E+03  0.10000000000E+01 0.  0.
<mgrwt>
<rscale>  0 0.12499572E+03</rscale>
<asrwt>0</asrwt>
<pdfrwt beam="2">  1        4 0.39597083E-01 0.12499572E+03</pdfrwt>
<pdfrwt beam="1">  1       -4 0.61651990E-02 0.12499572E+03</pdfrwt>
<totfact> 0.17025719E+03</totfact>
</mgrwt>
</event>
<event>
 5    1  0.1466870E-002  0.1249980E+03  0.7818608E-02  0.1235072E+00
         -4   -1    0    0    0  501 -0.00000000000E+00  0.00000000000E+00  0.21989998889E+02  0.22026641849E+02  0.12700000000E+01 0. -1.
          4   -1    0    0  501    0  0.00000000000E+00 -0.00000000000E+00 -0.17744518254E+03  0.17744972726E+03  0.12700000000E+01 0. -1.
         25    2    1    2    0    0  0.00000000000E+00  0.00000000000E+00 -0.15545518365E+03  0.19947636911E+03  0.12499803083E+03 0.  0.
    9000005    1    3    3    0    0  0.54643280210E+02 -0.21589651537E+02 -0.11169775865E+03  0.12621168889E+03  0.10000000000E+01 0.  0.
    9000005    1    3    3    0    0 -0.54643280210E+02  0.21589651537E+02 -0.43757425005E+02  0.73264680226E+02  0.10000000000E+01 0.  0.
<mgrwt>
<rscale>  0 0.12499803E+03</rscale>
<asrwt>0</asrwt>
<pdfrwt beam="2">  1        4 0.44366440E-01 0.12499803E+03</pdfrwt>
<pdfrwt beam="1">  1       -4 0.55026487E-02 0.12499803E+03</pdfrwt>
<totfact> 0.16343774E+03</totfact>
</mgrwt>
</event>
<event>
 5    1  0.1466870E-002  0.1250009E+03  0.7818608E-02  0.1235068E+00
         -4   -1    0    0    0  501 -0.00000000000E+00  0.00000000000E+00  0.20397627441E+02  0.20437125659E+02  0.12700000000E+01 0. -1.
          4   -1    0    0  501    0  0.00000000000E+00 -0.00000000000E+00 -0.19128107333E+03  0.19128528933E+03  0.12700000000E+01 0. -1.
         25    2    1    2    0    0  0.00000000000E+00  0.00000000000E+00 -0.17088344589E+03  0.21172241499E+03  0.12500091572E+03 0.  0.
    9000005    1    3    3    0    0 -0.31240345269E+02  0.51285257237E+02 -0.11473803763E+03  0.12950657922E+03  0.10000000000E+01 0.  0.
    9000005    1    3    3    0    0  0.31240345269E+02 -0.51285257237E+02 -0.56145408254E+02  0.82215835764E+02  0.10000000000E+01 0.  0.
<mgrwt>
<rscale>  0 0.12500092E+03</rscale>
<asrwt>0</asrwt>
<pdfrwt beam="2">  1        4 0.47825727E-01 0.12500092E+03</pdfrwt>
<pdfrwt beam="1">  1       -4 0.51048717E-02 0.12500092E+03</pdfrwt>
<totfact> 0.15862841E+03</totfact>
</mgrwt>
</event>
<event>
 5    1  0.1466870E-002  0.1250051E+03  0.7818608E-02  0.1235061E+00
         -4   -1    0    0    0  501 -0.00000000000E+00  0.00000000000E+00  0.29483860949E+02  0.29511200525E+02  0.12700000000E+01 0.  1.
          4   -1    0    0  501    0  0.00000000000E+00 -0.00000000000E+00 -0.13240667907E+03  0.13241276964E+03  0.12700000000E+01 0.  1.
         25    2    1    2    0    0  0.00000000000E+00  0.00000000000E+00 -0.10292281812E+03  0.16192397016E+03  0.12500506239E+03 0.  0.
    9000005    1    3    3    0    0 -0.37645566684E-01  0.41389234540E+02 -0.11211450482E+03  0.11951456959E+03  0.10000000000E+01 0.  0.
    9000005    1    3    3    0    0  0.37645566684E-01 -0.41389234540E+02  0.91916866932E+01  0.42409400576E+02  0.10000000000E+01 0.  0.
<mgrwt>
<rscale>  0 0.12500506E+03</rscale>
<asrwt>0</asrwt>
<pdfrwt beam="2">  1        4 0.33105847E-01 0.12500506E+03</pdfrwt>
<pdfrwt beam="1">  1       -4 0.73751444E-02 0.12500506E+03</pdfrwt>
<totfact> 0.17965470E+03</totfact>
</mgrwt>
</event>
<event>
 5    1  0.1466870E-002  0.1249992E+03  0.7818608E-02  0.1235071E+00
         -4   -1    0    0    0  501 -0.00000000000E+00  0.00000000000E+00  0.38371420672E+02  0.38392431863E+02  0.12700000000E+01 0. -1.
          4   -1    0    0  501    0  0.00000000000E+00 -0.00000000000E+00 -0.10174690079E+03  0.10175482652E+03  0.12700000000E+01 0. -1.
         25    2    1    2    0    0  0.00000000000E+00  0.00000000000E+00 -0.63375480116E+02  0.14014725838E+03  0.12499921021E+03 0.  0.
    9000005    1    3    3    0    0  0.48731845227E+02 -0.17647020713E+02  0.74573690893E+01  0.52371962280E+02  0.10000000000E+01 0.  0.
    9000005    1    3    3    0    0 -0.48731845227E+02  0.17647020713E+02 -0.70832849206E+02  0.87775296103E+02  0.10000000000E+01 0.  0.
<mgrwt>
<rscale>  0 0.12499921E+03</rscale>
<asrwt>0</asrwt>
<pdfrwt beam="2">  1        4 0.25440342E-01 0.12499921E+03</pdfrwt>
<pdfrwt beam="1">  1       -4 0.95964725E-02 0.12499921E+03</pdfrwt>
<totfact> 0.19033162E+03</totfact>
</mgrwt>
</event>
<event>
 5    1  0.1466870E-002  0.1249995E+03  0.7818608E-02  0.1235070E+00
          4   -1    0    0  501    0  0.00000000000E+00  0.00000000000E+00  0.35401164473E+02  0.35423937472E+02  0.12700000000E+01 0. -1.
         -4   -1    0    0    0  501 -0.00000000000E+00 -0.00000000000E+00 -0.11027967639E+03  0.11028698892E+03  0.12700000000E+01 0. -1.
         25    2    1    2    0    0  0.00000000000E+00  0.00000000000E+00 -0.74878511916E+02  0.14571092639E+03  0.12499953009E+03 0.  0.
    9000005    1    3    3    0    0 -0.10286655768E+02 -0.48094218828E+02  0.75019265830E+01  0.49760909095E+02  0.10000000000E+01 0.  0.
    9000005    1    3    3    0    0  0.10286655768E+02  0.48094218828E+02 -0.82380438499E+02  0.95950017295E+02  0.10000000000E+01 0.  0.
<mgrwt>
<rscale>  0 0.12499953E+03</rscale>
<asrwt>0</asrwt>
<pdfrwt beam="1">  1        4 0.88540521E-02 0.12499953E+03</pdfrwt>
<pdfrwt beam="2">  1       -4 0.27573679E-01 0.12499953E+03</pdfrwt>
<totfact> 0.18751910E+03</totfact>
</mgrwt>
</event>
<event>
 5    1  0.1466870E-002  0.1250009E+03  0.7818608E-02  0.1235068E+00
          4   -1    0    0  501    0  0.00000000000E+00  0.00000000000E+00  0.14466757023E+02  0.14522395077E+02  0.12700000000E+01 0.  1.
         -4   -1    0    0    0  501 -0.00000000000E+00 -0.00000000000E+00 -0.26944414353E+03  0.26944713653E+03  0.12700000000E+01 0.  1.
         25    2    1    2    0    0  0.00000000000E+00  0.00000000000E+00 -0.25497738651E+03  0.28396953160E+03  0.12500090899E+03 0.  0.
    9000005    1    3    3    0    0  0.10558955263E+02  0.54666001280E+02 -0.19196143452E+03  0.19987509994E+03  0.10000000000E+01 0.  0.
    9000005    1    3    3    0    0 -0.10558955263E+02 -0.54666001280E+02 -0.63015951981E+02  0.84094431660E+02  0.10000000000E+01 0.  0.
<mgrwt>
<rscale>  0 0.12500091E+03</rscale>
<asrwt>0</asrwt>
<pdfrwt beam="1">  1        4 0.36240190E-02 0.12500091E+03</pdfrwt>
<pdfrwt beam="2">  1       -4 0.67368349E-01 0.12500091E+03</pdfrwt>
<totfact> 0.13432261E+03</totfact>
</mgrwt>
</event>
<event>
 5    1  0.1466870E-002  0.1250037E+03  0.7818608E-02  0.1235064E+00
          4   -1    0    0  501    0  0.00000000000E+00  0.00000000000E+00  0.16508714540E+03  0.16509203033E+03  0.12700000000E+01 0.  1.
         -4   -1    0    0    0  501 -0.00000000000E+00 -0.00000000000E+00 -0.23640864907E+02  0.23674952873E+02  0.12700000000E+01 0.  1.
         25    2    1    2    0    0  0.00000000000E+00  0.00000000000E+00  0.14144628049E+03  0.18876698320E+03  0.12500369467E+03 0.  0.
    9000005    1    3    3    0    0  0.30847441817E+02 -0.11874972065E+02  0.15081353459E+03  0.15439657329E+03  0.10000000000E+01 0.  0.
    9000005    1    3    3    0    0 -0.30847441817E+02  0.11874972065E+02 -0.93672540927E+01  0.34370409911E+02  0.10000000000E+01 0.  0.
<mgrwt>
<rscale>  0 0.12500369E+03</rscale>
<asrwt>0</asrwt>
<pdfrwt beam="1">  1        4 0.41276658E-01 0.12500369E+03</pdfrwt>
<pdfrwt beam="2">  1       -4 0.59150879E-02 0.12500369E+03</pdfrwt>
<totfact> 0.16780500E+03</totfact>
</mgrwt>
</event>
<event>
 5    1  0.1466870E-002  0.1250017E+03  0.7818608E-02  0.1235067E+00
          4   -1    0    0  501    0  0.00000000000E+00  0.00000000000E+00  0.26430249667E+03  0.26430554789E+03  0.12700000000E+01 0.  1.
         -4   -1    0    0    0  501 -0.00000000000E+00 -0.00000000000E+00 -0.14749446074E+02  0.14804021734E+02  0.12700000000E+01 0.  1.
         25    2    1    2    0    0  0.00000000000E+00  0.00000000000E+00  0.24955305059E+03  0.27910956962E+03  0.12500170717E+03 0.  0.
    9000005    1    3    3    0    0 -0.85826770514E+01  0.44778649997E+02  0.22020468956E+03  0.22487751142E+03  0.10000000000E+01 0.  0.
    9000005    1    3    3    0    0  0.85826770514E+01 -0.44778649997E+02  0.29348361034E+02  0.54232058198E+02  0.10000000000E+01 0.  0.
<mgrwt>
<rscale>  0 0.12500171E+03</rscale>
<asrwt>0</asrwt>
<pdfrwt beam="1">  1        4 0.66082831E-01 0.12500171E+03</pdfrwt>
<pdfrwt beam="2">  1       -4 0.36945647E-02 0.12500171E+03</pdfrwt>
<totfact> 0.13576898E+03</totfact>
</mgrwt>
</event>
<event>
 5    1  0.1466870E-002  0.1250381E+03  0.7818608E-02  0.1235010E+00
         -4   -1    0    0    0  501 -0.00000000000E+00  0.00000000000E+00  0.61963731740E+03  0.61963861888E+03  0.12700000000E+01 0. -1.
          4   -1    0    0  501    0  0.00000000000E+00 -0.00000000000E+00 -0.62426897894E+01  0.63705632252E+01  0.12700000000E+01 0. -1.
         25    2    1    2    0    0  0.00000000000E+00  0.00000000000E+00  0.61339462761E+03  0.62600918211E+03  0.12503810182E+03 0.  0.
    9000005    1    3    3    0    0 -0.37274956941E+02 -0.44672237850E+02  0.42114927320E+03  0.42515025763E+03  0.10000000000E+01 0.  0.
    9000005    1    3    3    0    0  0.37274956941E+02  0.44672237850E+02  0.19224535441E+03  0.20085892448E+03  0.10000000000E+01 0.  0.
<mgrwt>
<rscale>  0 0.12503810E+03</rscale>
<asrwt>0</asrwt>
<pdfrwt beam="2">  1        4 0.15768195E-02 0.12503810E+03</pdfrwt>
<pdfrwt beam="1">  1       -4 0.15492546E+00 0.12503810E+03</pdfrwt>
<totfact> 0.70262848E+02</totfact>
</mgrwt>
</event>
<event>
 5    1  0.1466870E-002  0.1249907E+03  0.7818608E-02  0.1235084E+00
          4   -1    0    0  501    0  0.00000000000E+00  0.00000000000E+00  0.14457270400E+02  0.14512944823E+02  0.12700000000E+01 0. -1.
         -4   -1    0    0    0  501 -0.00000000000E+00 -0.00000000000E+00 -0.26957605547E+03  0.26957904700E+03  0.12700000000E+01 0. -1.
         25    2    1    2    0    0  0.00000000000E+00  0.00000000000E+00 -0.25511878507E+03  0.28409199182E+03  0.12499066095E+03 0.  0.
    9000005    1    3    3    0    0  0.24472139366E+02  0.35842175654E+02 -0.22974209578E+03  0.23380756561E+03  0.10000000000E+01 0.  0.
    9000005    1    3    3    0    0 -0.24472139366E+02 -0.35842175654E+02 -0.25376689286E+02  0.50284426216E+02  0.10000000000E+01 0.  0.
<mgrwt>
<rscale>  0 0.12499066E+03</rscale>
<asrwt>0</asrwt>
<pdfrwt beam="1">  1        4 0.36216517E-02 0.12499066E+03</pdfrwt>
<pdfrwt beam="2">  1       -4 0.67401331E-01 0.12499066E+03</pdfrwt>
<totfact> 0.13431798E+03</totfact>
</mgrwt>
</event>
<event>
 5    1  0.1466870E-002  0.1250016E+03  0.7818608E-02  0.1235067E+00
         -4   -1    0    0    0  501 -0.00000000000E+00  0.00000000000E+00  0.70395857439E+02  0.70407312437E+02  0.12700000000E+01 0. -1.
          4   -1    0    0  501    0  0.00000000000E+00 -0.00000000000E+00 -0.55467934320E+02  0.55482471446E+02  0.12700000000E+01 0. -1.
         25    2    1    2    0    0  0.00000000000E+00  0.00000000000E+00  0.14927923119E+02  0.12588978388E+03  0.12500157918E+03 0.  0.
    9000005    1    3    3    0    0  0.37735647461E+02 -0.68084917636E+01  0.57160452468E+02  0.68837867310E+02  0.10000000000E+01 0.  0.
    9000005    1    3    3    0    0 -0.37735647461E+02  0.68084917636E+01 -0.42232529349E+02  0.57051916573E+02  0.10000000000E+01 0.  0.
<mgrwt>
<rscale>  0 0.12500158E+03</rscale>
<asrwt>0</asrwt>
<pdfrwt beam="2">  1        4 0.13870233E-01 0.12500158E+03</pdfrwt>
<pdfrwt beam="1">  1       -4 0.17602213E-01 0.12500158E+03</pdfrwt>
<totfact> 0.19786146E+03</totfact>
</mgrwt>
</event>
<event>
 5    1  0.1466870E-002  0.1249981E+03  0.7818608E-02  0.1235072E+00
          4   -1    0    0  501    0  0.00000000000E+00  0.00000000000E+00  0.16021459332E+02  0.16071716122E+02  0.12700000000E+01 0.  1.
         -4   -1    0    0    0  501 -0.00000000000E+00 -0.00000000000E+00 -0.24337247100E+03  0.24337578462E+03  0.12700000000E+01 0.  1.
         25    2    1    2    0    0  0.00000000000E+00  0.00000000000E+00 -0.22735101167E+03  0.25944750074E+03  0.12499809253E+03 0.  0.
    9000005    1    3    3    0    0 -0.55404928076E+02  0.25310479428E+02 -0.14264530218E+03  0.15510966656E+03  0.10000000000E+01 0.  0.
    9000005    1    3    3    0    0  0.55404928076E+02 -0.25310479428E+02 -0.84705709481E+02  0.10433783419E+03  0.10000000000E+01 0.  0.
<mgrwt>
<rscale>  0 0.12499809E+03</rscale>
<asrwt>0</asrwt>
<pdfrwt beam="1">  1        4 0.40120619E-02 0.12499809E+03</pdfrwt>
<pdfrwt beam="2">  1       -4 0.60849802E-01 0.12499809E+03</pdfrwt>
<totfact> 0.14189533E+03</totfact>
</mgrwt>
</event>
<event>
 5    1  0.1466870E-002  0.1250005E+03  0.7818608E-02  0.1235068E+00
          4   -1    0    0  501    0  0.00000000000E+00  0.00000000000E+00  0.45175575417E+03  0.45175753932E+03  0.12700000000E+01 0. -1.
         -4   -1    0    0    0  501 -0.00000000000E+00 -0.00000000000E+00 -0.85984465048E+01  0.86917306848E+01  0.12700000000E+01 0. -1.
         25    2    1    2    0    0  0.00000000000E+00  0.00000000000E+00  0.44315730767E+03  0.46044927000E+03  0.12500052362E+03 0.  0.
    9000005    1    3    3    0    0  0.51067817185E+02 -0.28177969702E+02  0.13893480897E+03  0.15068444204E+03  0.10000000000E+01 0.  0.
    9000005    1    3    3    0    0 -0.51067817185E+02  0.28177969702E+02  0.30422249870E+03  0.30976482796E+03  0.10000000000E+01 0.  0.
<mgrwt>
<rscale>  0 0.12500052E+03</rscale>
<asrwt>0</asrwt>
<pdfrwt beam="1">  1        4 0.11295082E+00 0.12500052E+03</pdfrwt>
<pdfrwt beam="2">  1       -4 0.21614953E-02 0.12500052E+03</pdfrwt>
<totfact> 0.94169665E+02</totfact>
</mgrwt>
</event>
<event>
 5    1  0.1466870E-002  0.1249971E+03  0.7818608E-02  0.1235074E+00
          4   -1    0    0  501    0  0.00000000000E+00  0.00000000000E+00  0.42026957997E+01  0.43903931469E+01  0.12700000000E+01 0. -1.
         -4   -1    0    0    0  501 -0.00000000000E+00 -0.00000000000E+00 -0.90893025431E+03  0.90893114156E+03  0.12700000000E+01 0. -1.
         25    2    1    2    0    0  0.00000000000E+00  0.00000000000E+00 -0.90472755851E+03  0.91332153471E+03  0.12499708250E+03 0.  0.
    9000005    1    3    3    0    0 -0.26195068706E+02  0.53957933372E+02 -0.32425020438E+03  0.32975268799E+03  0.10000000000E+01 0.  0.
    9000005    1    3    3    0    0  0.26195068706E+02 -0.53957933372E+02 -0.58047735413E+03  0.58356884672E+03  0.10000000000E+01 0.  0.
<mgrwt>
<rscale>  0 0.12499708E+03</rscale>
<asrwt>0</asrwt>
<pdfrwt beam="1">  1        4 0.10742501E-02 0.12499708E+03</pdfrwt>
<pdfrwt beam="2">  1       -4 0.22725548E+00 0.12499708E+03</pdfrwt>
<totfact> 0.43270343E+02</totfact>
</mgrwt>
</event>
<event>
 5    1  0.1466870E-002  0.1250278E+03  0.7818608E-02  0.1235026E+00
          4   -1    0    0  501    0  0.00000000000E+00  0.00000000000E+00  0.43760852568E+02  0.43779277261E+02  0.12700000000E+01 0. -1.
         -4   -1    0    0    0  501 -0.00000000000E+00 -0.00000000000E+00 -0.89261510864E+02  0.89270545096E+02  0.12700000000E+01 0. -1.
         25    2    1    2    0    0  0.00000000000E+00  0.00000000000E+00 -0.45500658296E+02  0.13304982236E+03  0.12502777821E+03 0.  0.
    9000005    1    3    3    0    0  0.36913570098E+02  0.91356887145E+01  0.30040197176E+02  0.48471495872E+02  0.10000000000E+01 0.  0.
    9000005    1    3    3    0    0 -0.36913570098E+02 -0.91356887145E+01 -0.75540855472E+02  0.84578326486E+02  0.10000000000E+01 0.  0.
<mgrwt>
<rscale>  0 0.12502778E+03</rscale>
<asrwt>0</asrwt>
<pdfrwt beam="1">  1        4 0.10943646E-01 0.12502778E+03</pdfrwt>
<pdfrwt beam="2">  1       -4 0.22318810E-01 0.12502778E+03</pdfrwt>
<totfact> 0.19389207E+03</totfact>
</mgrwt>
</event>
<event>
 5    1  0.1466870E-002  0.1250030E+03  0.7818608E-02  0.1235065E+00
          4   -1    0    0  501    0  0.00000000000E+00  0.00000000000E+00  0.35110239782E+02  0.35133201356E+02  0.12700000000E+01 0. -1.
         -4   -1    0    0    0  501 -0.00000000000E+00 -0.00000000000E+00 -0.11119905876E+03  0.11120631083E+03  0.12700000000E+01 0. -1.
         25    2    1    2    0    0  0.00000000000E+00  0.00000000000E+00 -0.76088818976E+02  0.14633951219E+03  0.12500297778E+03 0.  0.
    9000005    1    3    3    0    0 -0.39565433006E+02 -0.47035563913E+02 -0.24816754150E+02  0.66292073796E+02  0.10000000000E+01 0.  0.
    9000005    1    3    3    0    0  0.39565433006E+02  0.47035563913E+02 -0.51272064826E+02  0.80047438392E+02  0.10000000000E+01 0.  0.
<mgrwt>
<rscale>  0 0.12500298E+03</rscale>
<asrwt>0</asrwt>
<pdfrwt beam="1">  1        4 0.87813369E-02 0.12500298E+03</pdfrwt>
<pdfrwt beam="2">  1       -4 0.27803541E-01 0.12500298E+03</pdfrwt>
<totfact> 0.18718946E+03</totfact>
</mgrwt>
</event>
<event>
 5    1  0.1466870E-002  0.1250022E+03  0.7818608E-02  0.1235066E+00
         -4   -1    0    0    0  501 -0.00000000000E+00  0.00000000000E+00  0.16050741429E+03  0.16051243859E+03  0.12700000000E+01 0.  1.
          4   -1    0    0  501    0  0.00000000000E+00 -0.00000000000E+00 -0.24315774838E+02  0.24348917963E+02  0.12700000000E+01 0.  1.
         25    2    1    2    0    0  0.00000000000E+00  0.00000000000E+00  0.13619163945E+03  0.18486135655E+03  0.12500223394E+03 0.  0.
    9000005    1    3    3    0    0 -0.20208289308E+02  0.57255657767E+02  0.89971235026E+02  0.10854680297E+03  0.10000000000E+01 0.  0.
    9000005    1    3    3    0    0  0.20208289308E+02 -0.57255657767E+02  0.46220404424E+02  0.76314553581E+02  0.10000000000E+01 0.  0.
<mgrwt>
<rscale>  0 0.12500223E+03</rscale>
<asrwt>0</asrwt>
<pdfrwt beam="2">  1        4 0.60837148E-02 0.12500223E+03</pdfrwt>
<pdfrwt beam="1">  1       -4 0.40131624E-01 0.12500223E+03</pdfrwt>
<totfact> 0.16945841E+03</totfact>
</mgrwt>
</event>
<event>
 5    1  0.1466870E-002  0.1250023E+03  0.7818608E-02  0.1235066E+00
         -4   -1    0    0    0  501 -0.00000000000E+00  0.00000000000E+00  0.11150408437E+03  0.11151131660E+03  0.12700000000E+01 0.  1.
          4   -1    0    0  501    0  0.00000000000E+00 -0.00000000000E+00 -0.35013752352E+02  0.35036777160E+02  0.12700000000E+01 0.  1.
         25    2    1    2    0    0  0.00000000000E+00  0.00000000000E+00  0.76490332014E+02  0.14654809376E+03  0.12500229155E+03 0.  0.
    9000005    1    3    3    0    0  0.42494682580E+02 -0.45657091032E+02  0.33700808011E+02  0.70902133041E+02  0.10000000000E+01 0.  0.
    9000005    1    3    3    0    0 -0.42494682580E+02  0.45657091032E+02  0.42789524003E+02  0.75645960722E+02  0.10000000000E+01 0.  0.
<mgrwt>
<rscale>  0 0.12500229E+03</rscale>
<asrwt>0</asrwt>
<pdfrwt beam="2">  1        4 0.87572203E-02 0.12500229E+03</pdfrwt>
<pdfrwt beam="1">  1       -4 0.27879803E-01 0.12500229E+03</pdfrwt>
<totfact> 0.18708826E+03</totfact>
</mgrwt>
</event>
<event>
 5    1  0.1466870E-002  0.1250011E+03  0.7818608E-02  0.1235068E+00
          4   -1    0    0  501    0  0.00000000000E+00  0.00000000000E+00  0.42820844950E+02  0.42839673927E+02  0.12700000000E+01 0.  1.
         -4   -1    0    0    0  501 -0.00000000000E+00 -0.00000000000E+00 -0.91181424233E+02  0.91190268259E+02  0.12700000000E+01 0.  1.
         25    2    1    2    0    0  0.00000000000E+00  0.00000000000E+00 -0.48360579283E+02  0.13402994219E+03  0.12500111909E+03 0.  0.
    9000005    1    3    3    0    0 -0.40972725213E+02  0.30742452856E+02  0.14202806429E+02  0.53165612283E+02  0.10000000000E+01 0.  0.
    9000005    1    3    3    0    0  0.40972725213E+02 -0.30742452856E+02 -0.62563385712E+02  0.80864329903E+02  0.10000000000E+01 0.  0.
<mgrwt>
<rscale>  0 0.12500112E+03</rscale>
<asrwt>0</asrwt>
<pdfrwt beam="1">  1        4 0.10708671E-01 0.12500112E+03</pdfrwt>
<pdfrwt beam="2">  1       -4 0.22798815E-01 0.12500112E+03</pdfrwt>
<totfact> 0.19349563E+03</totfact>
</mgrwt>
</event>
<event>
 5    1  0.1466870E-002  0.1250511E+03  0.7818608E-02  0.1234989E+00
          4   -1    0    0  501    0  0.00000000000E+00  0.00000000000E+00  0.21708705437E+02  0.21745822397E+02  0.12700000000E+01 0. -1.
         -4   -1    0    0    0  501 -0.00000000000E+00 -0.00000000000E+00 -0.17989331403E+03  0.17989779691E+03  0.12700000000E+01 0. -1.
         25    2    1    2    0    0  0.00000000000E+00  0.00000000000E+00 -0.15818460860E+03  0.20164361931E+03  0.12505110480E+03 0.  0.
    9000005    1    3    3    0    0  0.15707738135E+02  0.24535779786E+02  0.10101950942E+02  0.30851044388E+02  0.10000000000E+01 0.  0.
    9000005    1    3    3    0    0 -0.15707738135E+02 -0.24535779786E+02 -0.16828655954E+03  0.17079257492E+03  0.10000000000E+01 0.  0.
<mgrwt>
<rscale>  0 0.12505110E+03</rscale>
<asrwt>0</asrwt>
<pdfrwt beam="1">  1        4 0.54323769E-02 0.12505110E+03</pdfrwt>
<pdfrwt beam="2">  1       -4 0.44978524E-01 0.12505110E+03</pdfrwt>
<totfact> 0.16237248E+03</totfact>
</mgrwt>
</event>
<event>
 5    1  0.1466870E-002  0.1249891E+03  0.7818608E-02  0.1235086E+00
          4   -1    0    0  501    0  0.00000000000E+00  0.00000000000E+00  0.47048613561E+02  0.47065751221E+02  0.12700000000E+01 0.  1.
         -4   -1    0    0    0  501 -0.00000000000E+00 -0.00000000000E+00 -0.82974204192E+02  0.82983922909E+02  0.12700000000E+01 0.  1.
         25    2    1    2    0    0  0.00000000000E+00  0.00000000000E+00 -0.35925590632E+02  0.13004967413E+03  0.12498907824E+03 0.  0.
    9000005    1    3    3    0    0 -0.50355542645E+02 -0.31468546584E+01 -0.56319773269E+02  0.75620765867E+02  0.10000000000E+01 0.  0.
    9000005    1    3    3    0    0  0.50355542645E+02  0.31468546584E+01  0.20394182637E+02  0.54428908263E+02  0.10000000000E+01 0.  0.
<mgrwt>
<rscale>  0 0.12498908E+03</rscale>
<asrwt>0</asrwt>
<pdfrwt beam="1">  1        4 0.11765511E-01 0.12498908E+03</pdfrwt>
<pdfrwt beam="2">  1       -4 0.20746908E-01 0.12498908E+03</pdfrwt>
<totfact> 0.19566700E+03</totfact>
</mgrwt>
</event>
<event>
 5    1  0.1466870E-002  0.1249914E+03  0.7818608E-02  0.1235083E+00
         -4   -1    0    0    0  501 -0.00000000000E+00  0.00000000000E+00  0.10754844252E+02  0.10829569469E+02  0.12700000000E+01 0. -1.
          4   -1    0    0  501    0  0.00000000000E+00 -0.00000000000E+00 -0.36182532311E+03  0.36182755195E+03  0.12700000000E+01 0. -1.
         25    2    1    2    0    0  0.00000000000E+00  0.00000000000E+00 -0.35107047886E+03  0.37265712141E+03  0.12499139575E+03 0.  0.
    9000005    1    3    3    0    0 -0.46595275683E+02  0.41318145657E+02 -0.16021522972E+03  0.17189598225E+03  0.10000000000E+01 0.  0.
    9000005    1    3    3    0    0  0.46595275683E+02 -0.41318145657E+02 -0.19085524914E+03  0.20076113917E+03  0.10000000000E+01 0.  0.
<mgrwt>
<rscale>  0 0.12499140E+03</rscale>
<asrwt>0</asrwt>
<pdfrwt beam="2">  1        4 0.90465910E-01 0.12499140E+03</pdfrwt>
<pdfrwt beam="1">  1       -4 0.26983315E-02 0.12499140E+03</pdfrwt>
<totfact> 0.11157180E+03</totfact>
</mgrwt>
</event>
<event>
 5    1  0.1466870E-002  0.1249981E+03  0.7818608E-02  0.1235072E+00
         -4   -1    0    0    0  501 -0.00000000000E+00  0.00000000000E+00  0.75009056421E+02  0.75019807019E+02  0.12700000000E+01 0. -1.
          4   -1    0    0  501    0  0.00000000000E+00 -0.00000000000E+00 -0.52053256377E+02  0.52068746859E+02  0.12700000000E+01 0. -1.
         25    2    1    2    0    0  0.00000000000E+00  0.00000000000E+00  0.22955800044E+02  0.12708855388E+03  0.12499812707E+03 0.  0.
    9000005    1    3    3    0    0  0.25900334469E+02  0.39743272135E+02  0.52837163204E+02  0.71014933789E+02  0.10000000000E+01 0.  0.
    9000005    1    3    3    0    0 -0.25900334469E+02 -0.39743272135E+02 -0.29881363159E+02  0.56073620089E+02  0.10000000000E+01 0.  0.
<mgrwt>
<rscale>  0 0.12499813E+03</rscale>
<asrwt>0</asrwt>
<pdfrwt beam="2">  1        4 0.13016594E-01 0.12499813E+03</pdfrwt>
<pdfrwt beam="1">  1       -4 0.18755544E-01 0.12499813E+03</pdfrwt>
<totfact> 0.19723063E+03</totfact>
</mgrwt>
</event>
<event>
 5    1  0.1466870E-002  0.1249964E+03  0.7818608E-02  0.1235075E+00
         -4   -1    0    0    0  501 -0.00000000000E+00  0.00000000000E+00  0.35165929710E+02  0.35188854946E+02  0.12700000000E+01 0.  1.
          4   -1    0    0  501    0  0.00000000000E+00 -0.00000000000E+00 -0.11101130939E+03  0.11101857373E+03  0.12700000000E+01 0.  1.
         25    2    1    2    0    0  0.00000000000E+00  0.00000000000E+00 -0.75845379684E+02  0.14620742868E+03  0.12499636227E+03 0.  0.
    9000005    1    3    3    0    0  0.60218273491E+02 -0.16695408910E+02 -0.37673173901E+02  0.72974277473E+02  0.10000000000E+01 0.  0.
    9000005    1    3    3    0    0 -0.60218273491E+02  0.16695408910E+02 -0.38172205782E+02  0.73233151204E+02  0.10000000000E+01 0.  0.
<mgrwt>
<rscale>  0 0.12499636E+03</rscale>
<asrwt>0</asrwt>
<pdfrwt beam="2">  1        4 0.27756600E-01 0.12499636E+03</pdfrwt>
<pdfrwt beam="1">  1       -4 0.87952564E-02 0.12499636E+03</pdfrwt>
<totfact> 0.18728434E+03</totfact>
</mgrwt>
</event>
<event>
 5    1  0.1466870E-002  0.1249972E+03  0.7818608E-02  0.1235074E+00
          4   -1    0    0  501    0  0.00000000000E+00  0.00000000000E+00  0.45348422409E+02  0.45366202343E+02  0.12700000000E+01 0.  1.
         -4   -1    0    0    0  501 -0.00000000000E+00 -0.00000000000E+00 -0.86095406327E+02  0.86104772751E+02  0.12700000000E+01 0.  1.
         25    2    1    2    0    0  0.00000000000E+00  0.00000000000E+00 -0.40746983918E+02  0.13147097509E+03  0.12499720234E+03 0.  0.
    9000005    1    3    3    0    0  0.29807422340E+02 -0.14330115299E+02  0.35393676359E+02  0.48451490764E+02  0.10000000000E+01 0.  0.
    9000005    1    3    3    0    0 -0.29807422340E+02  0.14330115299E+02 -0.76140660277E+02  0.83019484330E+02  0.10000000000E+01 0.  0.
<mgrwt>
<rscale>  0 0.12499720E+03</rscale>
<asrwt>0</asrwt>
<pdfrwt beam="1">  1        4 0.11340499E-01 0.12499720E+03</pdfrwt>
<pdfrwt beam="2">  1       -4 0.21527245E-01 0.12499720E+03</pdfrwt>
<totfact> 0.19486899E+03</totfact>
</mgrwt>
</event>
<event>
 5    1  0.1466870E-002  0.1250009E+03  0.7818608E-02  0.1235068E+00
         -4   -1    0    0    0  501 -0.00000000000E+00  0.00000000000E+00  0.20439023880E+02  0.20478442255E+02  0.12700000000E+01 0. -1.
          4   -1    0    0  501    0  0.00000000000E+00 -0.00000000000E+00 -0.19089434710E+03  0.19089857164E+03  0.12700000000E+01 0. -1.
         25    2    1    2    0    0  0.00000000000E+00  0.00000000000E+00 -0.17045532322E+03  0.21137701389E+03  0.12500089915E+03 0.  0.
    9000005    1    3    3    0    0 -0.15207952529E+02 -0.11926038906E+02  0.15266840290E+02  0.24649313105E+02  0.10000000000E+01 0.  0.
    9000005    1    3    3    0    0  0.15207952529E+02  0.11926038906E+02 -0.18572216350E+03  0.18672770079E+03  0.10000000000E+01 0.  0.
<mgrwt>
<rscale>  0 0.12500090E+03</rscale>
<asrwt>0</asrwt>
<pdfrwt beam="2">  1        4 0.47729037E-01 0.12500090E+03</pdfrwt>
<pdfrwt beam="1">  1       -4 0.51152119E-02 0.12500090E+03</pdfrwt>
<totfact> 0.15876073E+03</totfact>
</mgrwt>
</event>
<event>
 5    1  0.1466870E-002  0.1250020E+03  0.7818608E-02  0.1235066E+00
         -4   -1    0    0    0  501 -0.00000000000E+00  0.00000000000E+00  0.16314469248E+03  0.16314963556E+03  0.12700000000E+01 0.  1.
          4   -1    0    0  501    0  0.00000000000E+00 -0.00000000000E+00 -0.23922087471E+02  0.23955775274E+02  0.12700000000E+01 0.  1.
         25    2    1    2    0    0  0.00000000000E+00  0.00000000000E+00  0.13922260501E+03  0.18710541084E+03  0.12500200406E+03 0.  0.
    9000005    1    3    3    0    0  0.28958024961E+02 -0.27078528644E+02 -0.26954707042E+01  0.39750213653E+02  0.10000000000E+01 0.  0.
    9000005    1    3    3    0    0 -0.28958024961E+02  0.27078528644E+02  0.14191807571E+03  0.14735519718E+03  0.10000000000E+01 0.  0.
<mgrwt>
<rscale>  0 0.12500200E+03</rscale>
<asrwt>0</asrwt>
<pdfrwt beam="2">  1        4 0.59853508E-02 0.12500200E+03</pdfrwt>
<pdfrwt beam="1">  1       -4 0.40791001E-01 0.12500200E+03</pdfrwt>
<totfact> 0.16850941E+03</totfact>
</mgrwt>
</event>
<event>
 5    1  0.1466870E-002  0.1250000E+03  0.7818608E-02  0.1235069E+00
          4   -1    0    0  501    0  0.00000000000E+00  0.00000000000E+00  0.56924086934E+02  0.56938252285E+02  0.12700000000E+01 0.  1.
         -4   -1    0    0    0  501 -0.00000000000E+00 -0.00000000000E+00 -0.68593539602E+02  0.68605295533E+02  0.12700000000E+01 0.  1.
         25    2    1    2    0    0  0.00000000000E+00  0.00000000000E+00 -0.11669452668E+02  0.12554354782E+03  0.12500002509E+03 0.  0.
    9000005    1    3    3    0    0 -0.19838194636E+02 -0.56592671226E+02 -0.23488618177E+02  0.64412728453E+02  0.10000000000E+01 0.  0.
    9000005    1    3    3    0    0  0.19838194636E+02  0.56592671226E+02  0.11819165508E+02  0.61130819365E+02  0.10000000000E+01 0.  0.
<mgrwt>
<rscale>  0 0.12500003E+03</rscale>
<asrwt>0</asrwt>
<pdfrwt beam="1">  1        4 0.14234262E-01 0.12500003E+03</pdfrwt>
<pdfrwt beam="2">  1       -4 0.17151625E-01 0.12500003E+03</pdfrwt>
<totfact> 0.19805595E+03</totfact>
</mgrwt>
</event>
<event>
 5    1  0.1466870E-002  0.1250201E+03  0.7818608E-02  0.1235038E+00
          4   -1    0    0  501    0  0.00000000000E+00  0.00000000000E+00  0.11563427748E+03  0.11564125142E+03  0.12700000000E+01 0.  1.
         -4   -1    0    0    0  501 -0.00000000000E+00 -0.00000000000E+00 -0.33771983504E+02  0.33795854329E+02  0.12700000000E+01 0.  1.
         25    2    1    2    0    0  0.00000000000E+00  0.00000000000E+00  0.81862293979E+02  0.14943710575E+03  0.12502005198E+03 0.  0.
    9000005    1    3    3    0    0 -0.38191143417E+02  0.35065227687E+02 -0.79116067204E+00  0.51862891969E+02  0.10000000000E+01 0.  0.
    9000005    1    3    3    0    0  0.38191143417E+02 -0.35065227687E+02  0.82653454652E+02  0.97574213776E+02  0.10000000000E+01 0.  0.
<mgrwt>
<rscale>  0 0.12502005E+03</rscale>
<asrwt>0</asrwt>
<pdfrwt beam="1">  1        4 0.28912425E-01 0.12502005E+03</pdfrwt>
<pdfrwt beam="2">  1       -4 0.84468516E-02 0.12502005E+03</pdfrwt>
<totfact> 0.18557831E+03</totfact>
</mgrwt>
</event>
<event>
 5    1  0.1466870E-002  0.1250036E+03  0.7818608E-02  0.1235064E+00
          4   -1    0    0  501    0  0.00000000000E+00  0.00000000000E+00  0.30406565805E+03  0.30406831026E+03  0.12700000000E+01 0.  1.
         -4   -1    0    0    0  501 -0.00000000000E+00 -0.00000000000E+00 -0.12813380976E+02  0.12876165269E+02  0.12700000000E+01 0.  1.
         25    2    1    2    0    0  0.00000000000E+00  0.00000000000E+00  0.29125227708E+03  0.31694447553E+03  0.12500364662E+03 0.  0.
    9000005    1    3    3    0    0  0.76835864762E+00 -0.62477773978E+02  0.14864251042E+03  0.16124409608E+03  0.10000000000E+01 0.  0.
    9000005    1    3    3    0    0 -0.76835864762E+00  0.62477773978E+02  0.14260976665E+03  0.15570037945E+03  0.10000000000E+01 0.  0.
<mgrwt>
<rscale>  0 0.12500365E+03</rscale>
<asrwt>0</asrwt>
<pdfrwt beam="1">  1        4 0.76024594E-01 0.12500365E+03</pdfrwt>
<pdfrwt beam="2">  1       -4 0.32115248E-02 0.12500365E+03</pdfrwt>
<totfact> 0.12508056E+03</totfact>
</mgrwt>
</event>
<event>
 5    1  0.1466870E-002  0.1249997E+03  0.7818608E-02  0.1235070E+00
          4   -1    0    0  501    0  0.00000000000E+00  0.00000000000E+00  0.61931633952E+02  0.61944654200E+02  0.12700000000E+01 0.  1.
         -4   -1    0    0    0  501 -0.00000000000E+00 -0.00000000000E+00 -0.63047215983E+02  0.63060005893E+02  0.12700000000E+01 0.  1.
         25    2    1    2    0    0  0.00000000000E+00  0.00000000000E+00 -0.11155820304E+01  0.12500466009E+03  0.12499968209E+03 0.  0.
    9000005    1    3    3    0    0  0.32455936007E+02  0.51640957895E+01  0.52596695982E+02  0.62027962207E+02  0.10000000000E+01 0.  0.
    9000005    1    3    3    0    0 -0.32455936007E+02 -0.51640957895E+01 -0.53712278012E+02  0.62976697886E+02  0.10000000000E+01 0.  0.
<mgrwt>
<rscale>  0 0.12499968E+03</rscale>
<asrwt>0</asrwt>
<pdfrwt beam="1">  1        4 0.15486135E-01 0.12499968E+03</pdfrwt>
<pdfrwt beam="2">  1       -4 0.15765030E-01 0.12499968E+03</pdfrwt>
<totfact> 0.19834950E+03</totfact>
</mgrwt>
</event>
<event>
 5    1  0.1466870E-002  0.1250002E+03  0.7818608E-02  0.1235069E+00
         -4   -1    0    0    0  501 -0.00000000000E+00  0.00000000000E+00  0.10302546505E+03  0.10303329243E+03  0.12700000000E+01 0.  1.
          4   -1    0    0  501    0  0.00000000000E+00 -0.00000000000E+00 -0.37895593618E+02  0.37916868485E+02  0.12700000000E+01 0.  1.
         25    2    1    2    0    0  0.00000000000E+00  0.00000000000E+00  0.65129871431E+02  0.14095016091E+03  0.12500019083E+03 0.  0.
    9000005    1    3    3    0    0 -0.60924576775E+02  0.66497271113E+01  0.18789794266E+02  0.64109900128E+02  0.10000000000E+01 0.  0.
    9000005    1    3    3    0    0  0.60924576775E+02 -0.66497271113E+01  0.46340077164E+02  0.76840260785E+02  0.10000000000E+01 0.  0.
<mgrwt>
<rscale>  0 0.12500019E+03</rscale>
<asrwt>0</asrwt>
<pdfrwt beam="2">  1        4 0.94775363E-02 0.12500019E+03</pdfrwt>
<pdfrwt beam="1">  1       -4 0.25760004E-01 0.12500019E+03</pdfrwt>
<totfact> 0.18991754E+03</totfact>
</mgrwt>
</event>
<event>
 5    1  0.1466870E-002  0.1249913E+03  0.7818608E-02  0.1235083E+00
          4   -1    0    0  501    0  0.00000000000E+00  0.00000000000E+00  0.34675770216E+02  0.34699019295E+02  0.12700000000E+01 0. -1.
         -4   -1    0    0    0  501 -0.00000000000E+00 -0.00000000000E+00 -0.11257044387E+03  0.11257760760E+03  0.12700000000E+01 0. -1.
         25    2    1    2    0    0  0.00000000000E+00  0.00000000000E+00 -0.77894673658E+02  0.14727662690E+03  0.12499129828E+03 0.  0.
    9000005    1    3    3    0    0  0.28238705893E+02  0.12308717077E+02 -0.10300777316E+03  0.10751990680E+03  0.10000000000E+01 0.  0.
    9000005    1    3    3    0    0 -0.28238705893E+02 -0.12308717077E+02  0.25113099502E+02  0.39756720101E+02  0.10000000000E+01 0.  0.
<mgrwt>
<rscale>  0 0.12499130E+03</rscale>
<asrwt>0</asrwt>
<pdfrwt beam="1">  1        4 0.86727444E-02 0.12499130E+03</pdfrwt>
<pdfrwt beam="2">  1       -4 0.28146412E-01 0.12499130E+03</pdfrwt>
<totfact> 0.18677288E+03</totfact>
</mgrwt>
</event>
<event>
 5    1  0.1466870E-002  0.1250074E+03  0.7818608E-02  0.1235058E+00
          4   -1    0    0  501    0  0.00000000000E+00  0.00000000000E+00  0.69182909311E+02  0.69194565109E+02  0.12700000000E+01 0. -1.
         -4   -1    0    0    0  501 -0.00000000000E+00 -0.00000000000E+00 -0.56445788942E+02  0.56460074294E+02  0.12700000000E+01 0. -1.
         25    2    1    2    0    0  0.00000000000E+00  0.00000000000E+00  0.12737120369E+02  0.12565463940E+03  0.12500741645E+03 0.  0.
    9000005    1    3    3    0    0 -0.17307298405E+02  0.59802574437E+02  0.87923686872E+00  0.62270888422E+02  0.10000000000E+01 0.  0.
    9000005    1    3    3    0    0  0.17307298405E+02 -0.59802574437E+02  0.11857883500E+02  0.63383750981E+02  0.10000000000E+01 0.  0.
<mgrwt>
<rscale>  0 0.12500742E+03</rscale>
<asrwt>0</asrwt>
<pdfrwt beam="1">  1        4 0.17298970E-01 0.12500742E+03</pdfrwt>
<pdfrwt beam="2">  1       -4 0.14114690E-01 0.12500742E+03</pdfrwt>
<totfact> 0.19796159E+03</totfact>
</mgrwt>
</event>
<event>
 5    1  0.1466870E-002  0.1249990E+03  0.7818608E-02  0.1235071E+00
         -4   -1    0    0    0  501 -0.00000000000E+00  0.00000000000E+00  0.12301257259E+02  0.12366641830E+02  0.12700000000E+01 0. -1.
          4   -1    0    0  501    0  0.00000000000E+00 -0.00000000000E+00 -0.31663561915E+03  0.31663816607E+03  0.12700000000E+01 0. -1.
         25    2    1    2    0    0  0.00000000000E+00  0.00000000000E+00 -0.30433436189E+03  0.32900480790E+03  0.12499903918E+03 0.  0.
    9000005    1    3    3    0    0 -0.46041955291E+02  0.62155214107E-01 -0.26337981952E+03  0.26737575590E+03  0.10000000000E+01 0.  0.
    9000005    1    3    3    0    0  0.46041955291E+02 -0.62155214107E-01 -0.40954542364E+02  0.61629052001E+02  0.10000000000E+01 0.  0.
<mgrwt>
<rscale>  0 0.12499904E+03</rscale>
<asrwt>0</asrwt>
<pdfrwt beam="2">  1        4 0.79167370E-01 0.12499904E+03</pdfrwt>
<pdfrwt beam="1">  1       -4 0.30838068E-02 0.12499904E+03</pdfrwt>
<totfact> 0.12195659E+03</totfact>
</mgrwt>
</event>
<event>
 5    1  0.1466870E-002  0.1250000E+03  0.7818608E-02  0.1235069E+00
          4   -1    0    0  501    0  0.00000000000E+00  0.00000000000E+00  0.30441990585E+01  0.32984917625E+01  0.12700000000E+01 0.  1.
         -4   -1    0    0    0  501 -0.00000000000E+00 -0.00000000000E+00 -0.12314779192E+04  0.12314785741E+04  0.12700000000E+01 0.  1.
         25    2    1    2    0    0  0.00000000000E+00  0.00000000000E+00 -0.12284337202E+04  0.12347770659E+04  0.12499999004E+03 0.  0.
    9000005    1    3    3    0    0  0.24931618901E+02  0.63707833415E+01 -0.11767617681E+04  0.11770435129E+04  0.10000000000E+01 0.  0.
    9000005    1    3    3    0    0 -0.24931618901E+02 -0.63707833415E+01 -0.51671952110E+02  0.57733552950E+02  0.10000000000E+01 0.  0.
<mgrwt>
<rscale>  0 0.12499999E+03</rscale>
<asrwt>0</asrwt>
<pdfrwt beam="1">  1        4 0.79292243E-03 0.12499999E+03</pdfrwt>
<pdfrwt beam="2">  1       -4 0.30789971E+00 0.12499999E+03</pdfrwt>
<totfact> 0.23427146E+02</totfact>
</mgrwt>
</event>
<event>
 5    1  0.1466870E-002  0.1249975E+03  0.7818608E-02  0.1235073E+00
          4   -1    0    0  501    0  0.00000000000E+00  0.00000000000E+00  0.16982416020E+02  0.17029837166E+02  0.12700000000E+01 0.  1.
         -4   -1    0    0    0  501 -0.00000000000E+00 -0.00000000000E+00 -0.22963809641E+03  0.22964160822E+03  0.12700000000E+01 0.  1.
         25    2    1    2    0    0  0.00000000000E+00  0.00000000000E+00 -0.21265568039E+03  0.24667144538E+03  0.12499745423E+03 0.  0.
    9000005    1    3    3    0    0  0.27356108828E+01  0.51663809168E+02 -0.37161006854E+02  0.63706931923E+02  0.10000000000E+01 0.  0.
    9000005    1    3    3    0    0 -0.27356108828E+01 -0.51663809168E+02 -0.17549467354E+03  0.18296451346E+03  0.10000000000E+01 0.  0.
<mgrwt>
<rscale>  0 0.12499745E+03</rscale>
<asrwt>0</asrwt>
<pdfrwt beam="1">  1        4 0.42519713E-02 0.12499745E+03</pdfrwt>
<pdfrwt beam="2">  1       -4 0.57415881E-01 0.12499745E+03</pdfrwt>
<totfact> 0.14610203E+03</totfact>
</mgrwt>
</event>
<event>
 5    1  0.1466870E-002  0.1250005E+03  0.7818608E-02  0.1235069E+00
          4   -1    0    0  501    0  0.00000000000E+00  0.00000000000E+00  0.45381051812E+02  0.45398818967E+02  0.12700000000E+01 0. -1.
         -4   -1    0    0    0  501 -0.00000000000E+00 -0.00000000000E+00 -0.86038038772E+02  0.86047411442E+02  0.12700000000E+01 0. -1.
         25    2    1    2    0    0  0.00000000000E+00  0.00000000000E+00 -0.40656986960E+02  0.13144623041E+03  0.12500048360E+03 0.  0.
    9000005    1    3    3    0    0  0.46811803013E+02 -0.38805854224E+02 -0.51611014955E+01  0.61031763796E+02  0.10000000000E+01 0.  0.
    9000005    1    3    3    0    0 -0.46811803013E+02  0.38805854224E+02 -0.35495885465E+02  0.70414466613E+02  0.10000000000E+01 0.  0.
<mgrwt>
<rscale>  0 0.12500048E+03</rscale>
<asrwt>0</asrwt>
<pdfrwt beam="1">  1        4 0.11348656E-01 0.12500048E+03</pdfrwt>
<pdfrwt beam="2">  1       -4 0.21512902E-01 0.12500048E+03</pdfrwt>
<totfact> 0.19486726E+03</totfact>
</mgrwt>
</event>
<event>
 5    1  0.1466870E-002  0.1250005E+03  0.7818608E-02  0.1235068E+00
         -4   -1    0    0    0  501 -0.00000000000E+00  0.00000000000E+00  0.13207863066E+03  0.13208473636E+03  0.12700000000E+01 0. -1.
          4   -1    0    0  501    0  0.00000000000E+00 -0.00000000000E+00 -0.29555000372E+02  0.29582274203E+02  0.12700000000E+01 0. -1.
         25    2    1    2    0    0  0.00000000000E+00  0.00000000000E+00  0.10252363029E+03  0.16166701056E+03  0.12500051014E+03 0.  0.
    9000005    1    3    3    0    0  0.24652662955E+02 -0.32637687121E+01 -0.22886498149E+02  0.33811207824E+02  0.10000000000E+01 0.  0.
    9000005    1    3    3    0    0 -0.24652662955E+02  0.32637687121E+01  0.12541012844E+03  0.12785580273E+03  0.10000000000E+01 0.  0.
<mgrwt>
<rscale>  0 0.12500051E+03</rscale>
<asrwt>0</asrwt>
<pdfrwt beam="2">  1        4 0.73929227E-02 0.12500051E+03</pdfrwt>
<pdfrwt beam="1">  1       -4 0.33023829E-01 0.12500051E+03</pdfrwt>
<totfact> 0.17979370E+03</totfact>
</mgrwt>
</event>
<event>
 5    1  0.1466870E-002  0.1249989E+03  0.7818608E-02  0.1235071E+00
          4   -1    0    0  501    0  0.00000000000E+00  0.00000000000E+00  0.18074070652E+03  0.18074516838E+03  0.12700000000E+01 0. -1.
         -4   -1    0    0    0  501 -0.00000000000E+00 -0.00000000000E+00 -0.21588670735E+02  0.21625993714E+02  0.12700000000E+01 0. -1.
         25    2    1    2    0    0  0.00000000000E+00  0.00000000000E+00  0.15915203578E+03  0.20237116209E+03  0.12499886701E+03 0.  0.
    9000005    1    3    3    0    0 -0.28976292278E+02  0.51856219334E+02  0.11098957197E+03  0.12589034150E+03  0.10000000000E+01 0.  0.
    9000005    1    3    3    0    0  0.28976292278E+02 -0.51856219334E+02  0.48162463817E+02  0.76480820594E+02  0.10000000000E+01 0.  0.
<mgrwt>
<rscale>  0 0.12499887E+03</rscale>
<asrwt>0</asrwt>
<pdfrwt beam="1">  1        4 0.45190399E-01 0.12499887E+03</pdfrwt>
<pdfrwt beam="2">  1       -4 0.54023909E-02 0.12499887E+03</pdfrwt>
<totfact> 0.16227960E+03</totfact>
</mgrwt>
</event>
<event>
 5    1  0.1466870E-002  0.1250037E+03  0.7818608E-02  0.1235063E+00
          4   -1    0    0  501    0  0.00000000000E+00  0.00000000000E+00  0.13169805725E+03  0.13170418058E+03  0.12700000000E+01 0. -1.
         -4   -1    0    0    0  501 -0.00000000000E+00 -0.00000000000E+00 -0.29642012223E+02  0.29669206066E+02  0.12700000000E+01 0. -1.
         25    2    1    2    0    0  0.00000000000E+00  0.00000000000E+00  0.10205604502E+03  0.16137338665E+03  0.12500373431E+03 0.  0.
    9000005    1    3    3    0    0  0.39702194136E+02 -0.40963115586E+02  0.18083725828E+02  0.59852002453E+02  0.10000000000E+01 0.  0.
    9000005    1    3    3    0    0 -0.39702194136E+02  0.40963115586E+02  0.83972319196E+02  0.10152138420E+03  0.10000000000E+01 0.  0.
<mgrwt>
<rscale>  0 0.12500373E+03</rscale>
<asrwt>0</asrwt>
<pdfrwt beam="1">  1        4 0.32928678E-01 0.12500373E+03</pdfrwt>
<pdfrwt beam="2">  1       -4 0.74146678E-02 0.12500373E+03</pdfrwt>
<totfact> 0.17991750E+03</totfact>
</mgrwt>
</event>
<event>
 5    1  0.1466870E-002  0.1250075E+03  0.7818608E-02  0.1235058E+00
         -4   -1    0    0    0  501 -0.00000000000E+00  0.00000000000E+00  0.13287113146E+02  0.13347669301E+02  0.12700000000E+01 0. -1.
          4   -1    0    0  501    0  0.00000000000E+00 -0.00000000000E+00 -0.29329255819E+03  0.29329530782E+03  0.12700000000E+01 0. -1.
         25    2    1    2    0    0  0.00000000000E+00  0.00000000000E+00 -0.28000544505E+03  0.30664297713E+03  0.12500746443E+03 0.  0.
    9000005    1    3    3    0    0 -0.44822635416E+01 -0.46333887261E+02 -0.24228996853E+03  0.24672322275E+03  0.10000000000E+01 0.  0.
    9000005    1    3    3    0    0  0.44822635416E+01  0.46333887261E+02 -0.37715476520E+02  0.59919754375E+02  0.10000000000E+01 0.  0.
<mgrwt>
<rscale>  0 0.12500746E+03</rscale>
<asrwt>0</asrwt>
<pdfrwt beam="2">  1        4 0.73331032E-01 0.12500746E+03</pdfrwt>
<pdfrwt beam="1">  1       -4 0.33296925E-02 0.12500746E+03</pdfrwt>
<totfact> 0.12784712E+03</totfact>
</mgrwt>
</event>
<event>
 5    1  0.1466870E-002  0.1249975E+03  0.7818608E-02  0.1235073E+00
         -4   -1    0    0    0  501 -0.00000000000E+00  0.00000000000E+00  0.71343237616E+01  0.72464802170E+01  0.12700000000E+01 0. -1.
          4   -1    0    0  501    0  0.00000000000E+00 -0.00000000000E+00 -0.54312466572E+03  0.54312615055E+03  0.12700000000E+01 0. -1.
         25    2    1    2    0    0  0.00000000000E+00  0.00000000000E+00 -0.53599034196E+03  0.55037263077E+03  0.12499754408E+03 0.  0.
    9000005    1    3    3    0    0 -0.37127727826E+02  0.23741264425E+02 -0.46307544780E+03  0.46516877170E+03  0.10000000000E+01 0.  0.
    9000005    1    3    3    0    0  0.37127727826E+02 -0.23741264425E+02 -0.72914894158E+02  0.85203859068E+02  0.10000000000E+01 0.  0.
<mgrwt>
<rscale>  0 0.12499754E+03</rscale>
<asrwt>0</asrwt>
<pdfrwt beam="2">  1        4 0.13579523E+00 0.12499754E+03</pdfrwt>
<pdfrwt beam="1">  1       -4 0.17977879E-02 0.12499754E+03</pdfrwt>
<totfact> 0.80119389E+02</totfact>
</mgrwt>
</event>
<event>
 5    1  0.1466870E-002  0.1249959E+03  0.7818608E-02  0.1235076E+00
         -4   -1    0    0    0  501 -0.00000000000E+00  0.00000000000E+00  0.72889724602E+02  0.72900787737E+02  0.12700000000E+01 0. -1.
          4   -1    0    0  501    0  0.00000000000E+00 -0.00000000000E+00 -0.53565069950E+02  0.53580123355E+02  0.12700000000E+01 0. -1.
         25    2    1    2    0    0  0.00000000000E+00  0.00000000000E+00  0.19324654652E+02  0.12648091109E+03  0.12499591431E+03 0.  0.
    9000005    1    3    3    0    0 -0.49819349496E+02 -0.21238740501E+02  0.41208709348E+02  0.68060336529E+02  0.10000000000E+01 0.  0.
    9000005    1    3    3    0    0  0.49819349496E+02  0.21238740501E+02 -0.21884054696E+02  0.58420574563E+02  0.10000000000E+01 0.  0.
<mgrwt>
<rscale>  0 0.12499591E+03</rscale>
<asrwt>0</asrwt>
<pdfrwt beam="2">  1        4 0.13394532E-01 0.12499591E+03</pdfrwt>
<pdfrwt beam="1">  1       -4 0.18225696E-01 0.12499591E+03</pdfrwt>
<totfact> 0.19756842E+03</totfact>
</mgrwt>
</event>
<event>
 5    1  0.1466870E-002  0.1250019E+03  0.7818608E-02  0.1235066E+00
         -4   -1    0    0    0  501 -0.00000000000E+00  0.00000000000E+00  0.32154259732E+03  0.32154510538E+03  0.12700000000E+01 0.  1.
          4   -1    0    0  501    0  0.00000000000E+00 -0.00000000000E+00 -0.12113082804E+02  0.12179477617E+02  0.12700000000E+01 0.  1.
         25    2    1    2    0    0  0.00000000000E+00  0.00000000000E+00  0.30942951452E+03  0.33372458300E+03  0.12500189135E+03 0.  0.
    9000005    1    3    3    0    0 -0.33661514422E+02  0.50129411093E+02  0.19770635570E+03  0.20672411203E+03  0.10000000000E+01 0.  0.
    9000005    1    3    3    0    0  0.33661514422E+02 -0.50129411093E+02  0.11172315882E+03  0.12700047097E+03  0.10000000000E+01 0.  0.
<mgrwt>
<rscale>  0 0.12500189E+03</rscale>
<asrwt>0</asrwt>
<pdfrwt beam="2">  1        4 0.30368834E-02 0.12500189E+03</pdfrwt>
<pdfrwt beam="1">  1       -4 0.80394266E-01 0.12500189E+03</pdfrwt>
<totfact> 0.12075341E+03</totfact>
</mgrwt>
</event>
<event>
 5    1  0.1466870E-002  0.1250027E+03  0.7818608E-02  0.1235065E+00
          4   -1    0    0  501    0  0.00000000000E+00  0.00000000000E+00  0.94123858485E+01  0.94976790512E+01  0.12700000000E+01 0. -1.
         -4   -1    0    0    0  501 -0.00000000000E+00 -0.00000000000E+00 -0.41307155037E+03  0.41307350269E+03  0.12700000000E+01 0. -1.
         25    2    1    2    0    0  0.00000000000E+00  0.00000000000E+00 -0.40365916452E+03  0.42257118174E+03  0.12500273012E+03 0.  0.
    9000005    1    3    3    0    0  0.48986069229E+02 -0.36831093503E+01 -0.33241565422E+03  0.33602733139E+03  0.10000000000E+01 0.  0.
    9000005    1    3    3    0    0 -0.48986069229E+02  0.36831093503E+01 -0.71243510303E+02  0.86543850349E+02  0.10000000000E+01 0.  0.
<mgrwt>
<rscale>  0 0.12500273E+03</rscale>
<asrwt>0</asrwt>
<pdfrwt beam="1">  1        4 0.23640035E-02 0.12500273E+03</pdfrwt>
<pdfrwt beam="2">  1       -4 0.10327873E+00 0.12500273E+03</pdfrwt>
<totfact> 0.10115062E+03</totfact>
</mgrwt>
</event>
<event>
 5    1  0.1466870E-002  0.1249965E+03  0.7818608E-02  0.1235075E+00
          4   -1    0    0  501    0  0.00000000000E+00  0.00000000000E+00  0.49468978673E+01  0.51073181328E+01  0.12700000000E+01 0. -1.
         -4   -1    0    0    0  501 -0.00000000000E+00 -0.00000000000E+00 -0.77683213414E+03  0.77683317227E+03  0.12700000000E+01 0. -1.
         25    2    1    2    0    0  0.00000000000E+00  0.00000000000E+00 -0.77188523627E+03  0.78194049040E+03  0.12499645015E+03 0.  0.
    9000005    1    3    3    0    0 -0.19987657949E+02  0.20809671405E+02 -0.73269583738E+03  0.73326444002E+03  0.10000000000E+01 0.  0.
    9000005    1    3    3    0    0  0.19987657949E+02 -0.20809671405E+02 -0.39189398896E+02  0.48676050375E+02  0.10000000000E+01 0.  0.
<mgrwt>
<rscale>  0 0.12499645E+03</rscale>
<asrwt>0</asrwt>
<pdfrwt beam="1">  1        4 0.12569094E-02 0.12499645E+03</pdfrwt>
<pdfrwt beam="2">  1       -4 0.19422781E+00 0.12499645E+03</pdfrwt>
<totfact> 0.54101536E+02</totfact>
</mgrwt>
</event>
<event>
 5    1  0.1466870E-002  0.1250058E+03  0.7818608E-02  0.1235060E+00
         -4   -1    0    0    0  501 -0.00000000000E+00  0.00000000000E+00  0.80779679013E+03  0.80779778846E+03  0.12700000000E+01 0.  1.
          4   -1    0    0  501    0  0.00000000000E+00 -0.00000000000E+00 -0.47517348063E+01  0.49185245419E+01  0.12700000000E+01 0.  1.
         25    2    1    2    0    0  0.00000000000E+00  0.00000000000E+00  0.80304505532E+03  0.81271631300E+03  0.12500577804E+03 0.  0.
    9000005    1    3    3    0    0  0.28598027634E+02  0.28675753509E+02  0.92074599868E+02  0.10059263375E+03  0.10000000000E+01 0.  0.
    9000005    1    3    3    0    0 -0.28598027634E+02 -0.28675753509E+02  0.71097045545E+03  0.71212367925E+03  0.10000000000E+01 0.  0.
<mgrwt>
<rscale>  0 0.12500578E+03</rscale>
<asrwt>0</asrwt>
<pdfrwt beam="2">  1        4 0.12089066E-02 0.12500578E+03</pdfrwt>
<pdfrwt beam="1">  1       -4 0.20197027E+00 0.12500578E+03</pdfrwt>
<totfact> 0.51359855E+02</totfact>
</mgrwt>
</event>
<event>
 5    1  0.1466870E-002  0.1249991E+03  0.7818608E-02  0.1235071E+00
         -4   -1    0    0    0  501 -0.00000000000E+00  0.00000000000E+00  0.23858539013E+03  0.23858877024E+03  0.12700000000E+01 0.  1.
          4   -1    0    0  501    0  0.00000000000E+00 -0.00000000000E+00 -0.16344192137E+02  0.16393459568E+02  0.12700000000E+01 0.  1.
         25    2    1    2    0    0  0.00000000000E+00  0.00000000000E+00  0.22224119799E+03  0.25498222981E+03  0.12499914972E+03 0.  0.
    9000005    1    3    3    0    0  0.46433225308E+02 -0.80467999101E+01  0.19483991279E+03  0.20046043754E+03  0.10000000000E+01 0.  0.
    9000005    1    3    3    0    0 -0.46433225308E+02  0.80467999101E+01  0.27401285201E+02  0.54521792266E+02  0.10000000000E+01 0.  0.
<mgrwt>
<rscale>  0 0.12499915E+03</rscale>
<asrwt>0</asrwt>
<pdfrwt beam="2">  1        4 0.40926290E-02 0.12499915E+03</pdfrwt>
<pdfrwt beam="1">  1       -4 0.59652928E-01 0.12499915E+03</pdfrwt>
<totfact> 0.14333987E+03</totfact>
</mgrwt>
</event>
<event>
 5    1  0.1466870E-002  0.1249901E+03  0.7818608E-02  0.1235085E+00
          4   -1    0    0  501    0  0.00000000000E+00  0.00000000000E+00  0.28625022420E+03  0.28625304147E+03  0.12700000000E+01 0. -1.
         -4   -1    0    0    0  501 -0.00000000000E+00 -0.00000000000E+00 -0.13611680395E+02  0.13670798922E+02  0.12700000000E+01 0. -1.
         25    2    1    2    0    0  0.00000000000E+00  0.00000000000E+00  0.27263854380E+03  0.29992384039E+03  0.12499013750E+03 0.  0.
    9000005    1    3    3    0    0 -0.32451022810E+02 -0.30623571152E+02  0.31345896125E+02  0.54538401108E+02  0.10000000000E+01 0.  0.
    9000005    1    3    3    0    0  0.32451022810E+02  0.30623571152E+02  0.24129264768E+03  0.24538543929E+03  0.10000000000E+01 0.  0.
<mgrwt>
<rscale>  0 0.12499014E+03</rscale>
<asrwt>0</asrwt>
<pdfrwt beam="1">  1        4 0.71570297E-01 0.12499014E+03</pdfrwt>
<pdfrwt beam="2">  1       -4 0.34106621E-02 0.12499014E+03</pdfrwt>
<totfact> 0.12976123E+03</totfact>
</mgrwt>
</event>
<event>
 5    1  0.1466870E-002  0.1250023E+03  0.7818608E-02  0.1235066E+00
          4   -1    0    0  501    0  0.00000000000E+00  0.00000000000E+00  0.49569789869E+02  0.49586056182E+02  0.12700000000E+01 0. -1.
         -4   -1    0    0    0  501 -0.00000000000E+00 -0.00000000000E+00 -0.78771563113E+02  0.78781800279E+02  0.12700000000E+01 0. -1.
         25    2    1    2    0    0  0.00000000000E+00  0.00000000000E+00 -0.29201773243E+02  0.12836785646E+03  0.12500225203E+03 0.  0.
    9000005    1    3    3    0    0 -0.38484735255E+02 -0.21464158025E+02 -0.60106566559E+02  0.74535791878E+02  0.10000000000E+01 0.  0.
    9000005    1    3    3    0    0  0.38484735255E+02  0.21464158025E+02  0.30904793315E+02  0.53832064583E+02  0.10000000000E+01 0.  0.
<mgrwt>
<rscale>  0 0.12500225E+03</rscale>
<asrwt>0</asrwt>
<pdfrwt beam="1">  1        4 0.12395760E-01 0.12500225E+03</pdfrwt>
<pdfrwt beam="2">  1       -4 0.19696204E-01 0.12500225E+03</pdfrwt>
<totfact> 0.19651510E+03</totfact>
</mgrwt>
</event>
<event>
 5    1  0.1466870E-002  0.1250006E+03  0.7818608E-02  0.1235068E+00
          4   -1    0    0  501    0  0.00000000000E+00  0.00000000000E+00  0.27540770700E+02  0.27570037192E+02  0.12700000000E+01 0. -1.
         -4   -1    0    0    0  501 -0.00000000000E+00 -0.00000000000E+00 -0.14172911714E+03  0.14173480710E+03  0.12700000000E+01 0. -1.
         25    2    1    2    0    0  0.00000000000E+00  0.00000000000E+00 -0.11418834644E+03  0.16930484429E+03  0.12500060736E+03 0.  0.
    9000005    1    3    3    0    0  0.83563503103E+01  0.29373282665E+02 -0.13094078689E+03  0.13445857353E+03  0.10000000000E+01 0.  0.
    9000005    1    3    3    0    0 -0.83563503103E+01 -0.29373282665E+02  0.16752440452E+02  0.34846270764E+02  0.10000000000E+01 0.  0.
<mgrwt>
<rscale>  0 0.12500061E+03</rscale>
<asrwt>0</asrwt>
<pdfrwt beam="1">  1        4 0.68895626E-02 0.12500061E+03</pdfrwt>
<pdfrwt beam="2">  1       -4 0.35436647E-01 0.12500061E+03</pdfrwt>
<totfact> 0.17628199E+03</totfact>
</mgrwt>
</event>
<event>
 5    1  0.1466870E-002  0.1250165E+03  0.7818608E-02  0.1235043E+00
         -4   -1    0    0    0  501 -0.00000000000E+00  0.00000000000E+00  0.20413807847E+02  0.20453274818E+02  0.12700000000E+01 0. -1.
          4   -1    0    0  501    0  0.00000000000E+00 -0.00000000000E+00 -0.19117754583E+03  0.19118176412E+03  0.12700000000E+01 0. -1.
         25    2    1    2    0    0  0.00000000000E+00  0.00000000000E+00 -0.17076373799E+03  0.21163503894E+03  0.12501654088E+03 0.  0.
    9000005    1    3    3    0    0  0.25351147679E+02  0.56865267057E+02 -0.76118280358E+02  0.98342930050E+02  0.10000000000E+01 0.  0.
    9000005    1    3    3    0    0 -0.25351147679E+02 -0.56865267057E+02 -0.94645457630E+02  0.11329210889E+03  0.10000000000E+01 0.  0.
<mgrwt>
<rscale>  0 0.12501654E+03</rscale>
<asrwt>0</asrwt>
<pdfrwt beam="2">  1        4 0.47799842E-01 0.12501654E+03</pdfrwt>
<pdfrwt beam="1">  1       -4 0.51089132E-02 0.12501654E+03</pdfrwt>
<totfact> 0.15860461E+03</totfact>
</mgrwt>
</event>
<event>
 5    1  0.1466870E-002  0.1250006E+03  0.7818608E-02  0.1235068E+00
         -4   -1    0    0    0  501 -0.00000000000E+00  0.00000000000E+00  0.77278220859E+02  0.77288655824E+02  0.12700000000E+01 0. -1.
          4   -1    0    0  501    0  0.00000000000E+00 -0.00000000000E+00 -0.50526546020E+02  0.50542504417E+02  0.12700000000E+01 0. -1.
         25    2    1    2    0    0  0.00000000000E+00  0.00000000000E+00  0.26751674839E+02  0.12783116024E+03  0.12500061369E+03 0.  0.
    9000005    1    3    3    0    0 -0.40853330712E+02  0.25963555259E+01 -0.34911521592E+02  0.53810315295E+02  0.10000000000E+01 0.  0.
    9000005    1    3    3    0    0  0.40853330712E+02 -0.25963555259E+01  0.61663196432E+02  0.74020844946E+02  0.10000000000E+01 0.  0.
<mgrwt>
<rscale>  0 0.12500061E+03</rscale>
<asrwt>0</asrwt>
<pdfrwt beam="2">  1        4 0.12634936E-01 0.12500061E+03</pdfrwt>
<pdfrwt beam="1">  1       -4 0.19322854E-01 0.12500061E+03</pdfrwt>
<totfact> 0.19681444E+03</totfact>
</mgrwt>
</event>
<event>
 5    1  0.1466870E-002  0.1250005E+03  0.7818608E-02  0.1235068E+00
          4   -1    0    0  501    0  0.00000000000E+00  0.00000000000E+00  0.78891027408E+02  0.78901249075E+02  0.12700000000E+01 0. -1.
         -4   -1    0    0    0  501 -0.00000000000E+00 -0.00000000000E+00 -0.49493325116E+02  0.49509616551E+02  0.12700000000E+01 0. -1.
         25    2    1    2    0    0  0.00000000000E+00  0.00000000000E+00  0.29397702292E+02  0.12841086563E+03  0.12500050204E+03 0.  0.
    9000005    1    3    3    0    0  0.19004944797E+02  0.59300382387E+02  0.20091655313E+02  0.65440032787E+02  0.10000000000E+01 0.  0.
    9000005    1    3    3    0    0 -0.19004944797E+02 -0.59300382387E+02  0.93060469796E+01  0.62970832839E+02  0.10000000000E+01 0.  0.
<mgrwt>
<rscale>  0 0.12500050E+03</rscale>
<asrwt>0</asrwt>
<pdfrwt beam="1">  1        4 0.19726071E-01 0.12500050E+03</pdfrwt>
<pdfrwt beam="2">  1       -4 0.12376646E-01 0.12500050E+03</pdfrwt>
<totfact> 0.19649978E+03</totfact>
</mgrwt>
</event>
<event>
 5    1  0.1466870E-002  0.1250026E+03  0.7818608E-02  0.1235065E+00
         -4   -1    0    0    0  501 -0.00000000000E+00  0.00000000000E+00  0.10163326381E+03  0.10164119840E+03  0.12700000000E+01 0.  1.
          4   -1    0    0  501    0  0.00000000000E+00 -0.00000000000E+00 -0.38416447523E+02  0.38437434101E+02  0.12700000000E+01 0.  1.
         25    2    1    2    0    0  0.00000000000E+00  0.00000000000E+00  0.63216816288E+02  0.14007863250E+03  0.12500262966E+03 0.  0.
    9000005    1    3    3    0    0 -0.15228747335E+02  0.46554360564E+02  0.75098746437E+02  0.89666297734E+02  0.10000000000E+01 0.  0.
    9000005    1    3    3    0    0  0.15228747335E+02 -0.46554360564E+02 -0.11881930149E+02  0.50412334770E+02  0.10000000000E+01 0.  0.
<mgrwt>
<rscale>  0 0.12500263E+03</rscale>
<asrwt>0</asrwt>
<pdfrwt beam="2">  1        4 0.96077271E-02 0.12500263E+03</pdfrwt>
<pdfrwt beam="1">  1       -4 0.25411931E-01 0.12500263E+03</pdfrwt>
<totfact> 0.19035153E+03</totfact>
</mgrwt>
</event>
<event>
 5    1  0.1466870E-002  0.1249973E+03  0.7818608E-02  0.1235074E+00
         -4   -1    0    0    0  501 -0.00000000000E+00  0.00000000000E+00  0.51462294130E+03  0.51462450836E+03  0.12700000000E+01 0.  1.
          4   -1    0    0  501    0  0.00000000000E+00 -0.00000000000E+00 -0.75354605700E+01  0.76417318719E+01  0.12700000000E+01 0.  1.
         25    2    1    2    0    0  0.00000000000E+00  0.00000000000E+00  0.50708748073E+03  0.52226624024E+03  0.12499725029E+03 0.  0.
    9000005    1    3    3    0    0 -0.45723927316E+02 -0.40138394210E+02  0.31311966418E+03  0.31897757337E+03  0.10000000000E+01 0.  0.
    9000005    1    3    3    0    0  0.45723927316E+02  0.40138394210E+02  0.19396781655E+03  0.20328866687E+03  0.10000000000E+01 0.  0.
<mgrwt>
<rscale>  0 0.12499725E+03</rscale>
<asrwt>0</asrwt>
<pdfrwt beam="2">  1        4 0.18973452E-02 0.12499725E+03</pdfrwt>
<pdfrwt beam="1">  1       -4 0.12866920E+00 0.12499725E+03</pdfrwt>
<totfact> 0.84176057E+02</totfact>
</mgrwt>
</event>
<event>
 5    1  0.1466870E-002  0.1250010E+03  0.7818608E-02  0.1235068E+00
          4   -1    0    0  501    0  0.00000000000E+00  0.00000000000E+00  0.11897737499E+02  0.11965327308E+02  0.12700000000E+01 0.  1.
         -4   -1    0    0    0  501 -0.00000000000E+00 -0.00000000000E+00 -0.32732535373E+03  0.32732781748E+03  0.12700000000E+01 0.  1.
         25    2    1    2    0    0  0.00000000000E+00  0.00000000000E+00 -0.31542761623E+03  0.33929314479E+03  0.12500102807E+03 0.  0.
    9000005    1    3    3    0    0 -0.57052265213E+02 -0.25794301082E+01 -0.22657954470E+03  0.23366836435E+03  0.10000000000E+01 0.  0.
    9000005    1    3    3    0    0  0.57052265213E+02  0.25794301082E+01 -0.88848071536E+02  0.10562478043E+03  0.10000000000E+01 0.  0.
<mgrwt>
<rscale>  0 0.12500103E+03</rscale>
<asrwt>0</asrwt>
<pdfrwt beam="1">  1        4 0.29831921E-02 0.12500103E+03</pdfrwt>
<pdfrwt beam="2">  1       -4 0.81840065E-01 0.12500103E+03</pdfrwt>
<totfact> 0.11936838E+03</totfact>
</mgrwt>
</event>
<event>
 5    1  0.1466870E-002  0.1250014E+03  0.7818608E-02  0.1235067E+00
          4   -1    0    0  501    0  0.00000000000E+00  0.00000000000E+00  0.15691770403E+02  0.15743079698E+02  0.12700000000E+01 0.  1.
         -4   -1    0    0    0  501 -0.00000000000E+00 -0.00000000000E+00 -0.24848245074E+03  0.24848569621E+03  0.12700000000E+01 0.  1.
         25    2    1    2    0    0  0.00000000000E+00  0.00000000000E+00 -0.23279068033E+03  0.26422877591E+03  0.12500138068E+03 0.  0.
    9000005    1    3    3    0    0  0.51838955101E+01  0.34730871714E+01  0.15041999583E+02  0.16315540402E+02  0.10000000000E+01 0.  0.
    9000005    1    3    3    0    0 -0.51838955101E+01 -0.34730871714E+01 -0.24783267992E+03  0.24791323551E+03  0.10000000000E+01 0.  0.
<mgrwt>
<rscale>  0 0.12500138E+03</rscale>
<asrwt>0</asrwt>
<pdfrwt beam="1">  1        4 0.39297627E-02 0.12500138E+03</pdfrwt>
<pdfrwt beam="2">  1       -4 0.62127419E-01 0.12500138E+03</pdfrwt>
<totfact> 0.14035916E+03</totfact>
</mgrwt>
</event>
<event>
 5    1  0.1466870E-002  0.1250002E+03  0.7818608E-02  0.1235069E+00
         -4   -1    0    0    0  501 -0.00000000000E+00  0.00000000000E+00  0.90254100744E+01  0.91143253733E+01  0.12700000000E+01 0. -1.
          4   -1    0    0  501    0  0.00000000000E+00 -0.00000000000E+00 -0.43059555024E+03  0.43059742310E+03  0.12700000000E+01 0. -1.
         25    2    1    2    0    0  0.00000000000E+00  0.00000000000E+00 -0.42157014016E+03  0.43971174848E+03  0.12500015469E+03 0.  0.
    9000005    1    3    3    0    0 -0.73530719308E+01 -0.48714430394E+01 -0.42841213688E+03  0.42850409292E+03  0.10000000000E+01 0.  0.
    9000005    1    3    3    0    0  0.73530719308E+01  0.48714430394E+01  0.68419967141E+01  0.11207655560E+02  0.10000000000E+01 0.  0.
<mgrwt>
<rscale>  0 0.12500015E+03</rscale>
<asrwt>0</asrwt>
<pdfrwt beam="2">  1        4 0.10766017E+00 0.12500015E+03</pdfrwt>
<pdfrwt beam="1">  1       -4 0.22677025E-02 0.12500015E+03</pdfrwt>
<totfact> 0.97893605E+02</totfact>
</mgrwt>
</event>
<event>
 5    1  0.1466870E-002  0.1250011E+03  0.7818608E-02  0.1235068E+00
          4   -1    0    0  501    0  0.00000000000E+00  0.00000000000E+00  0.49137328387E+02  0.49153737813E+02  0.12700000000E+01 0.  1.
         -4   -1    0    0    0  501 -0.00000000000E+00 -0.00000000000E+00 -0.79463171746E+02  0.79473319825E+02  0.12700000000E+01 0.  1.
         25    2    1    2    0    0  0.00000000000E+00  0.00000000000E+00 -0.30325843359E+02  0.12862705764E+03  0.12500105272E+03 0.  0.
    9000005    1    3    3    0    0  0.11373860131E+02 -0.32362152502E+02 -0.68914591374E+02  0.76986326793E+02  0.10000000000E+01 0.  0.
    9000005    1    3    3    0    0 -0.11373860131E+02  0.32362152502E+02  0.38588748015E+02  0.51640730845E+02  0.10000000000E+01 0.  0.
<mgrwt>
<rscale>  0 0.12500105E+03</rscale>
<asrwt>0</asrwt>
<pdfrwt beam="1">  1        4 0.12287652E-01 0.12500105E+03</pdfrwt>
<pdfrwt beam="2">  1       -4 0.19869112E-01 0.12500105E+03</pdfrwt>
<totfact> 0.19638001E+03</totfact>
</mgrwt>
</event>
<event>
 5    1  0.1466870E-002  0.1249881E+03  0.7818608E-02  0.1235088E+00
          4   -1    0    0  501    0  0.00000000000E+00  0.00000000000E+00  0.89061295399E+01  0.89962238401E+01  0.12700000000E+01 0. -1.
         -4   -1    0    0    0  501 -0.00000000000E+00 -0.00000000000E+00 -0.43622106241E+03  0.43622291113E+03  0.12700000000E+01 0. -1.
         25    2    1    2    0    0  0.00000000000E+00  0.00000000000E+00 -0.42731493287E+03  0.44521913497E+03  0.12498810457E+03 0.  0.
    9000005    1    3    3    0    0  0.11382614618E+02  0.10951449741E+02  0.16947417760E+01  0.15917610268E+02  0.10000000000E+01 0.  0.
    9000005    1    3    3    0    0 -0.11382614618E+02 -0.10951449741E+02 -0.42900967465E+03  0.42930152470E+03  0.10000000000E+01 0.  0.
<mgrwt>
<rscale>  0 0.12498810E+03</rscale>
<asrwt>0</asrwt>
<pdfrwt beam="1">  1        4 0.22380267E-02 0.12498810E+03</pdfrwt>
<pdfrwt beam="2">  1       -4 0.10906669E+00 0.12498810E+03</pdfrwt>
<totfact> 0.96907944E+02</totfact>
</mgrwt>
</event>
<event>
 5    1  0.1466870E-002  0.1250024E+03  0.7818608E-02  0.1235066E+00
         -4   -1    0    0    0  501 -0.00000000000E+00  0.00000000000E+00  0.27561933221E+02  0.27591177265E+02  0.12700000000E+01 0.  1.
          4   -1    0    0  501    0  0.00000000000E+00 -0.00000000000E+00 -0.14162449113E+03  0.14163018530E+03  0.12700000000E+01 0.  1.
         25    2    1    2    0    0  0.00000000000E+00  0.00000000000E+00 -0.11406255791E+03  0.16922136257E+03  0.12500240970E+03 0.  0.
    9000005    1    3    3    0    0 -0.32571880139E+02 -0.19248904566E+02  0.10302426762E+02  0.39224835245E+02  0.10000000000E+01 0.  0.
    9000005    1    3    3    0    0  0.32571880139E+02  0.19248904566E+02 -0.12436498467E+03  0.12999652732E+03  0.10000000000E+01 0.  0.
<mgrwt>
<rscale>  0 0.12500241E+03</rscale>
<asrwt>0</asrwt>
<pdfrwt beam="2">  1        4 0.35410488E-01 0.12500241E+03</pdfrwt>
<pdfrwt beam="1">  1       -4 0.68948510E-02 0.12500241E+03</pdfrwt>
<totfact> 0.17631238E+03</totfact>
</mgrwt>
</event>
<event>
 5    1  0.1466870E-002  0.1250026E+03  0.7818608E-02  0.1235065E+00
          4   -1    0    0  501    0  0.00000000000E+00  0.00000000000E+00  0.10226381371E+03  0.10227169938E+03  0.12700000000E+01 0.  1.
         -4   -1    0    0    0  501 -0.00000000000E+00 -0.00000000000E+00 -0.38179472814E+02  0.38200589581E+02  0.12700000000E+01 0.  1.
         25    2    1    2    0    0  0.00000000000E+00  0.00000000000E+00  0.64084340898E+02  0.14047228897E+03  0.12500264485E+03 0.  0.
    9000005    1    3    3    0    0 -0.60829748087E+02 -0.14134939887E+02  0.34643978133E+02  0.71423105497E+02  0.10000000000E+01 0.  0.
    9000005    1    3    3    0    0  0.60829748087E+02  0.14134939887E+02  0.29440362765E+02  0.69049183468E+02  0.10000000000E+01 0.  0.
<mgrwt>
<rscale>  0 0.12500264E+03</rscale>
<asrwt>0</asrwt>
<pdfrwt beam="1">  1        4 0.25569578E-01 0.12500264E+03</pdfrwt>
<pdfrwt beam="2">  1       -4 0.95484936E-02 0.12500264E+03</pdfrwt>
<totfact> 0.19015034E+03</totfact>
</mgrwt>
</event>
<event>
 5    1  0.1466870E-002  0.1249942E+03  0.7818608E-02  0.1235078E+00
         -4   -1    0    0    0  501 -0.00000000000E+00  0.00000000000E+00  0.23082933869E+03  0.23083283237E+03  0.12700000000E+01 0.  1.
          4   -1    0    0  501    0  0.00000000000E+00 -0.00000000000E+00 -0.16893637904E+02  0.16941307553E+02  0.12700000000E+01 0.  1.
         25    2    1    2    0    0  0.00000000000E+00  0.00000000000E+00  0.21393570079E+03  0.24777413992E+03  0.12499416124E+03 0.  0.
    9000005    1    3    3    0    0  0.46208174133E+02  0.24269177777E+02  0.38853999765E+02  0.65075507254E+02  0.10000000000E+01 0.  0.
    9000005    1    3    3    0    0 -0.46208174133E+02 -0.24269177777E+02  0.17508170102E+03  0.18269863267E+03  0.10000000000E+01 0.  0.
<mgrwt>
<rscale>  0 0.12499416E+03</rscale>
<asrwt>0</asrwt>
<pdfrwt beam="2">  1        4 0.42298049E-02 0.12499416E+03</pdfrwt>
<pdfrwt beam="1">  1       -4 0.57713729E-01 0.12499416E+03</pdfrwt>
<totfact> 0.14574284E+03</totfact>
</mgrwt>
</event>
<event>
 5    1  0.1466870E-002  0.1249983E+03  0.7818608E-02  0.1235072E+00
         -4   -1    0    0    0  501 -0.00000000000E+00  0.00000000000E+00  0.37569994291E+02  0.37591453430E+02  0.12700000000E+01 0. -1.
          4   -1    0    0  501    0  0.00000000000E+00 -0.00000000000E+00 -0.10391469215E+03  0.10392245255E+03  0.12700000000E+01 0. -1.
         25    2    1    2    0    0  0.00000000000E+00  0.00000000000E+00 -0.66344697857E+02  0.14151390598E+03  0.12499826660E+03 0.  0.
    9000005    1    3    3    0    0 -0.28864858333E+02 -0.23578841286E+02  0.23614848269E+02  0.44133919628E+02  0.10000000000E+01 0.  0.
    9000005    1    3    3    0    0  0.28864858333E+02  0.23578841286E+02 -0.89959546126E+02  0.97379986353E+02  0.10000000000E+01 0.  0.
<mgrwt>
<rscale>  0 0.12499827E+03</rscale>
<asrwt>0</asrwt>
<pdfrwt beam="2">  1        4 0.25982325E-01 0.12499827E+03</pdfrwt>
<pdfrwt beam="1">  1       -4 0.93961512E-02 0.12499827E+03</pdfrwt>
<totfact> 0.18963926E+03</totfact>
</mgrwt>
</event>
<event>
 5    1  0.1466870E-002  0.1249491E+03  0.7818608E-02  0.1235149E+00
         -4   -1    0    0    0  501 -0.00000000000E+00  0.00000000000E+00  0.10289746858E+03  0.10290530570E+03  0.12700000000E+01 0. -1.
          4   -1    0    0  501    0  0.00000000000E+00 -0.00000000000E+00 -0.37911692439E+02  0.37932958276E+02  0.12700000000E+01 0. -1.
         25    2    1    2    0    0  0.00000000000E+00  0.00000000000E+00  0.64985776146E+02  0.14083826398E+03  0.12494905161E+03 0.  0.
    9000005    1    3    3    0    0 -0.28627221857E+02  0.33666670575E+02  0.82255731426E+02  0.93380768316E+02  0.10000000000E+01 0.  0.
    9000005    1    3    3    0    0  0.28627221857E+02 -0.33666670575E+02 -0.17269955281E+02  0.47457495660E+02  0.10000000000E+01 0.  0.
<mgrwt>
<rscale>  0 0.12494905E+03</rscale>
<asrwt>0</asrwt>
<pdfrwt beam="2">  1        4 0.94815611E-02 0.12494905E+03</pdfrwt>
<pdfrwt beam="1">  1       -4 0.25728005E-01 0.12494905E+03</pdfrwt>
<totfact> 0.19020124E+03</totfact>
</mgrwt>
</event>
<event>
 5    1  0.1466870E-002  0.1249994E+03  0.7818608E-02  0.1235070E+00
         -4   -1    0    0    0  501 -0.00000000000E+00  0.00000000000E+00  0.11378606474E+02  0.11449261343E+02  0.12700000000E+01 0.  1.
          4   -1    0    0  501    0  0.00000000000E+00 -0.00000000000E+00 -0.34216024061E+03  0.34216259754E+03  0.12700000000E+01 0.  1.
         25    2    1    2    0    0  0.00000000000E+00  0.00000000000E+00 -0.33078163413E+03  0.35361185888E+03  0.12499942904E+03 0.  0.
    9000005    1    3    3    0    0 -0.12400286071E+02  0.41571971560E+02 -0.38145978491E+02  0.57776393008E+02  0.10000000000E+01 0.  0.
    9000005    1    3    3    0    0  0.12400286071E+02 -0.41571971560E+02 -0.29263565564E+03  0.29583546587E+03  0.10000000000E+01 0.  0.
<mgrwt>
<rscale>  0 0.12499943E+03</rscale>
<asrwt>0</asrwt>
<pdfrwt beam="2">  1        4 0.85549153E-01 0.12499943E+03</pdfrwt>
<pdfrwt beam="1">  1       -4 0.28537792E-02 0.12499943E+03</pdfrwt>
<totfact> 0.11591799E+03</totfact>
</mgrwt>
</event>
<event>
 5    1  0.1466870E-002  0.1250049E+03  0.7818608E-02  0.1235062E+00
         -4   -1    0    0    0  501 -0.00000000000E+00  0.00000000000E+00  0.29226941639E+02  0.29254521318E+02  0.12700000000E+01 0.  1.
          4   -1    0    0  501    0  0.00000000000E+00 -0.00000000000E+00 -0.13356922845E+03  0.13357526601E+03  0.12700000000E+01 0.  1.
         25    2    1    2    0    0  0.00000000000E+00  0.00000000000E+00 -0.10434228681E+03  0.16282978733E+03  0.12500490720E+03 0.  0.
    9000005    1    3    3    0    0 -0.19007724141E+02  0.70310234216E+01  0.24833991644E+02  0.32069549550E+02  0.10000000000E+01 0.  0.
    9000005    1    3    3    0    0  0.19007724141E+02 -0.70310234216E+01 -0.12917627846E+03  0.13076023778E+03  0.10000000000E+01 0.  0.
<mgrwt>
<rscale>  0 0.12500491E+03</rscale>
<asrwt>0</asrwt>
<pdfrwt beam="2">  1        4 0.33396508E-01 0.12500491E+03</pdfrwt>
<pdfrwt beam="1">  1       -4 0.73109379E-02 0.12500491E+03</pdfrwt>
<totfact> 0.17923345E+03</totfact>
</mgrwt>
</event>
<event>
 5    1  0.1466870E-002  0.1249962E+03  0.7818608E-02  0.1235075E+00
          4   -1    0    0  501    0  0.00000000000E+00  0.00000000000E+00  0.59823475473E+02  0.59836954449E+02  0.12700000000E+01 0.  1.
         -4   -1    0    0    0  501 -0.00000000000E+00 -0.00000000000E+00 -0.65265249448E+02  0.65277604777E+02  0.12700000000E+01 0.  1.
         25    2    1    2    0    0  0.00000000000E+00  0.00000000000E+00 -0.54417739742E+01  0.12511455923E+03  0.12499616005E+03 0.  0.
    9000005    1    3    3    0    0 -0.28402244510E+02  0.52697674875E+02 -0.20662082798E+02  0.63337619911E+02  0.10000000000E+01 0.  0.
    9000005    1    3    3    0    0  0.28402244510E+02 -0.52697674875E+02  0.15220308824E+02  0.61776939315E+02  0.10000000000E+01 0.  0.
<mgrwt>
<rscale>  0 0.12499616E+03</rscale>
<asrwt>0</asrwt>
<pdfrwt beam="1">  1        4 0.14959098E-01 0.12499616E+03</pdfrwt>
<pdfrwt beam="2">  1       -4 0.16319542E-01 0.12499616E+03</pdfrwt>
<totfact> 0.19830625E+03</totfact>
</mgrwt>
</event>
<event>
 5    1  0.1466870E-002  0.1250005E+03  0.7818608E-02  0.1235068E+00
          4   -1    0    0  501    0  0.00000000000E+00  0.00000000000E+00  0.14388886107E+03  0.14389446564E+03  0.12700000000E+01 0. -1.
         -4   -1    0    0    0  501 -0.00000000000E+00 -0.00000000000E+00 -0.27126925952E+02  0.27156638444E+02  0.12700000000E+01 0. -1.
         25    2    1    2    0    0  0.00000000000E+00  0.00000000000E+00  0.11676193512E+03  0.17105110408E+03  0.12500052286E+03 0.  0.
    9000005    1    3    3    0    0 -0.31040168204E+02 -0.54138437515E+02  0.62882206781E+02  0.88598162444E+02  0.10000000000E+01 0.  0.
    9000005    1    3    3    0    0  0.31040168204E+02  0.54138437515E+02  0.53879728342E+02  0.82452941639E+02  0.10000000000E+01 0.  0.
<mgrwt>
<rscale>  0 0.12500052E+03</rscale>
<asrwt>0</asrwt>
<pdfrwt beam="1">  1        4 0.35976629E-01 0.12500052E+03</pdfrwt>
<pdfrwt beam="2">  1       -4 0.67861462E-02 0.12500052E+03</pdfrwt>
<totfact> 0.17549529E+03</totfact>
</mgrwt>
</event>
<event>
 5    1  0.1466870E-002  0.1250004E+03  0.7818608E-02  0.1235069E+00
          4   -1    0    0  501    0  0.00000000000E+00  0.00000000000E+00  0.24882205973E+02  0.24914595603E+02  0.12700000000E+01 0.  1.
         -4   -1    0    0    0  501 -0.00000000000E+00 -0.00000000000E+00 -0.15685373736E+03  0.15685887869E+03  0.12700000000E+01 0.  1.
         25    2    1    2    0    0  0.00000000000E+00  0.00000000000E+00 -0.13197153139E+03  0.18177347429E+03  0.12500044344E+03 0.  0.
    9000005    1    3    3    0    0  0.15633032245E+02  0.54931939056E+02 -0.10287067437E+03  0.11766599029E+03  0.10000000000E+01 0.  0.
    9000005    1    3    3    0    0 -0.15633032245E+02 -0.54931939056E+02 -0.29100857010E+02  0.64107483996E+02  0.10000000000E+01 0.  0.
<mgrwt>
<rscale>  0 0.12500044E+03</rscale>
<asrwt>0</asrwt>
<pdfrwt beam="1">  1        4 0.62252433E-02 0.12500044E+03</pdfrwt>
<pdfrwt beam="2">  1       -4 0.39218123E-01 0.12500044E+03</pdfrwt>
<totfact> 0.17078551E+03</totfact>
</mgrwt>
</event>
<event>
 5    1  0.1466870E-002  0.1250001E+03  0.7818608E-02  0.1235069E+00
         -4   -1    0    0    0  501 -0.00000000000E+00  0.00000000000E+00  0.53370255546E+02  0.53385363885E+02  0.12700000000E+01 0. -1.
          4   -1    0    0  501    0  0.00000000000E+00 -0.00000000000E+00 -0.73160707865E+02  0.73171730028E+02  0.12700000000E+01 0. -1.
         25    2    1    2    0    0  0.00000000000E+00  0.00000000000E+00 -0.19790452319E+02  0.12655709391E+03  0.12500014407E+03 0.  0.
    9000005    1    3    3    0    0 -0.54908139673E+02  0.29798725902E+02 -0.83296357189E+01  0.63033726678E+02  0.10000000000E+01 0.  0.
    9000005    1    3    3    0    0  0.54908139673E+02 -0.29798725902E+02 -0.11460816600E+02  0.63523367235E+02  0.10000000000E+01 0.  0.
<mgrwt>
<rscale>  0 0.12500014E+03</rscale>
<asrwt>0</asrwt>
<pdfrwt beam="2">  1        4 0.18293443E-01 0.12500014E+03</pdfrwt>
<pdfrwt beam="1">  1       -4 0.13345830E-01 0.12500014E+03</pdfrwt>
<totfact> 0.19750779E+03</totfact>
</mgrwt>
</event>
<event>
 5    1  0.1466870E-002  0.1249993E+03  0.7818608E-02  0.1235070E+00
          4   -1    0    0  501    0  0.00000000000E+00  0.00000000000E+00  0.54648226086E+02  0.54662981206E+02  0.12700000000E+01 0. -1.
         -4   -1    0    0    0  501 -0.00000000000E+00 -0.00000000000E+00 -0.71449051650E+02  0.71460337822E+02  0.12700000000E+01 0. -1.
         25    2    1    2    0    0  0.00000000000E+00  0.00000000000E+00 -0.16800825563E+02  0.12612331903E+03  0.12499929545E+03 0.  0.
    9000005    1    3    3    0    0  0.22786941803E+02 -0.10075003904E+02  0.49425103629E+02  0.55358750791E+02  0.10000000000E+01 0.  0.
    9000005    1    3    3    0    0 -0.22786941803E+02  0.10075003904E+02 -0.66225929193E+02  0.70764568237E+02  0.10000000000E+01 0.  0.
<mgrwt>
<rscale>  0 0.12499930E+03</rscale>
<asrwt>0</asrwt>
<pdfrwt beam="1">  1        4 0.13665312E-01 0.12499930E+03</pdfrwt>
<pdfrwt beam="2">  1       -4 0.17865518E-01 0.12499930E+03</pdfrwt>
<totfact> 0.19774583E+03</totfact>
</mgrwt>
</event>
<event>
 5    1  0.1466870E-002  0.1249978E+03  0.7818608E-02  0.1235073E+00
          4   -1    0    0  501    0  0.00000000000E+00  0.00000000000E+00  0.35581887896E+03  0.35582114542E+03  0.12700000000E+01 0. -1.
         -4   -1    0    0    0  501 -0.00000000000E+00 -0.00000000000E+00 -0.10938765060E+02  0.11012242326E+02  0.12700000000E+01 0. -1.
         25    2    1    2    0    0  0.00000000000E+00  0.00000000000E+00  0.34488011390E+03  0.36683338775E+03  0.12499776557E+03 0.  0.
    9000005    1    3    3    0    0 -0.27842415823E+02  0.37687265644E+02  0.51098000353E+02  0.69336395570E+02  0.10000000000E+01 0.  0.
    9000005    1    3    3    0    0  0.27842415823E+02 -0.37687265644E+02  0.29378211355E+03  0.29749699218E+03  0.10000000000E+01 0.  0.
<mgrwt>
<rscale>  0 0.12499777E+03</rscale>
<asrwt>0</asrwt>
<pdfrwt beam="1">  1        4 0.88964187E-01 0.12499777E+03</pdfrwt>
<pdfrwt beam="2">  1       -4 0.27441593E-02 0.12499777E+03</pdfrwt>
<totfact> 0.11286461E+03</totfact>
</mgrwt>
</event>
<event>
 5    1  0.1466870E-002  0.1250023E+03  0.7818608E-02  0.1235066E+00
          4   -1    0    0  501    0  0.00000000000E+00  0.00000000000E+00  0.59754758708E+03  0.59754893668E+03  0.12700000000E+01 0. -1.
         -4   -1    0    0    0  501 -0.00000000000E+00 -0.00000000000E+00 -0.64743232843E+01  0.65977088439E+01  0.12700000000E+01 0. -1.
         25    2    1    2    0    0  0.00000000000E+00  0.00000000000E+00  0.59107326379E+03  0.60414664552E+03  0.12500226447E+03 0.  0.
    9000005    1    3    3    0    0  0.22240959955E+02  0.27435790864E+02  0.46362657330E+02  0.58291327955E+02  0.10000000000E+01 0.  0.
    9000005    1    3    3    0    0 -0.22240959955E+02 -0.27435790864E+02  0.54471060647E+03  0.54585531757E+03  0.10000000000E+01 0.  0.
<mgrwt>
<rscale>  0 0.12500226E+03</rscale>
<asrwt>0</asrwt>
<pdfrwt beam="1">  1        4 0.14940250E+00 0.12500226E+03</pdfrwt>
<pdfrwt beam="2">  1       -4 0.16341726E-02 0.12500226E+03</pdfrwt>
<totfact> 0.72979865E+02</totfact>
</mgrwt>
</event>
<event>
 5    1  0.1466870E-002  0.1250013E+03  0.7818608E-02  0.1235067E+00
         -4   -1    0    0    0  501 -0.00000000000E+00  0.00000000000E+00  0.24790005193E+01  0.27853803286E+01  0.12700000000E+01 0. -1.
          4   -1    0    0  501    0  0.00000000000E+00 -0.00000000000E+00 -0.14837536985E+04  0.14837542421E+04  0.12700000000E+01 0. -1.
         25    2    1    2    0    0  0.00000000000E+00  0.00000000000E+00 -0.14812746980E+04  0.14865396224E+04  0.12500127173E+03 0.  0.
    9000005    1    3    3    0    0 -0.35192731267E+02 -0.15971421916E+02 -0.15662095947E+03  0.16132185096E+03  0.10000000000E+01 0.  0.
    9000005    1    3    3    0    0  0.35192731267E+02  0.15971421916E+02 -0.13246537386E+04  0.13252177714E+04  0.10000000000E+01 0.  0.
<mgrwt>
<rscale>  0 0.12500127E+03</rscale>
<asrwt>0</asrwt>
<pdfrwt beam="2">  1        4 0.37097392E+00 0.12500127E+03</pdfrwt>
<pdfrwt beam="1">  1       -4 0.65812064E-03 0.12500127E+03</pdfrwt>
<totfact> 0.12940902E+02</totfact>
</mgrwt>
</event>
<event>
 5    1  0.1466870E-002  0.1249985E+03  0.7818608E-02  0.1235072E+00
          4   -1    0    0  501    0  0.00000000000E+00  0.00000000000E+00  0.25178343745E+02  0.25210352908E+02  0.12700000000E+01 0. -1.
         -4   -1    0    0    0  501 -0.00000000000E+00 -0.00000000000E+00 -0.15500627948E+03  0.15501148208E+03  0.12700000000E+01 0. -1.
         25    2    1    2    0    0  0.00000000000E+00  0.00000000000E+00 -0.12982793573E+03  0.18022183499E+03  0.12499846763E+03 0.  0.
    9000005    1    3    3    0    0  0.56841253858E+02 -0.25329150926E+02 -0.56674253733E+02  0.84175204562E+02  0.10000000000E+01 0.  0.
    9000005    1    3    3    0    0 -0.56841253858E+02  0.25329150926E+02 -0.73153681996E+02  0.96046630427E+02  0.10000000000E+01 0.  0.
<mgrwt>
<rscale>  0 0.12499847E+03</rscale>
<asrwt>0</asrwt>
<pdfrwt beam="1">  1        4 0.62992378E-02 0.12499847E+03</pdfrwt>
<pdfrwt beam="2">  1       -4 0.38756219E-01 0.12499847E+03</pdfrwt>
<totfact> 0.17146226E+03</totfact>
</mgrwt>
</event>
<event>
 5    1  0.1466870E-002  0.1249983E+03  0.7818608E-02  0.1235072E+00
          4   -1    0    0  501    0  0.00000000000E+00  0.00000000000E+00  0.55795336948E+03  0.55795481485E+03  0.12700000000E+01 0. -1.
         -4   -1    0    0    0  501 -0.00000000000E+00 -0.00000000000E+00 -0.69417826813E+01  0.70569998437E+01  0.12700000000E+01 0. -1.
         25    2    1    2    0    0  0.00000000000E+00  0.00000000000E+00  0.55101158679E+03  0.56501181469E+03  0.12499832782E+03 0.  0.
    9000005    1    3    3    0    0 -0.15002208597E+02 -0.30100332934E+02  0.51357893583E+03  0.51467991960E+03  0.10000000000E+01 0.  0.
    9000005    1    3    3    0    0  0.15002208597E+02  0.30100332934E+02  0.37432650960E+02  0.50331895090E+02  0.10000000000E+01 0.  0.
<mgrwt>
<rscale>  0 0.12499833E+03</rscale>
<asrwt>0</asrwt>
<pdfrwt beam="1">  1        4 0.13950294E+00 0.12499833E+03</pdfrwt>
<pdfrwt beam="2">  1       -4 0.17500283E-02 0.12499833E+03</pdfrwt>
<totfact> 0.78092140E+02</totfact>
</mgrwt>
</event>
<event>
 5    1  0.1466870E-002  0.1249729E+03  0.7818608E-02  0.1235112E+00
          4   -1    0    0  501    0  0.00000000000E+00  0.00000000000E+00  0.36154561113E+01  0.38320259515E+01  0.12700000000E+01 0. -1.
         -4   -1    0    0    0  501 -0.00000000000E+00 -0.00000000000E+00 -0.10483401991E+04  0.10483409684E+04  0.12700000000E+01 0. -1.
         25    2    1    2    0    0  0.00000000000E+00  0.00000000000E+00 -0.10447247430E+04  0.10521729943E+04  0.12497288247E+03 0.  0.
    9000005    1    3    3    0    0  0.46454390590E+02 -0.47009732112E+01 -0.87188087878E+03  0.87313078994E+03  0.10000000000E+01 0.  0.
    9000005    1    3    3    0    0 -0.46454390590E+02  0.47009732112E+01 -0.17284386424E+03  0.17904220441E+03  0.10000000000E+01 0.  0.
<mgrwt>
<rscale>  0 0.12497288E+03</rscale>
<asrwt>0</asrwt>
<pdfrwt beam="1">  1        4 0.93103501E-03 0.12497288E+03</pdfrwt>
<pdfrwt beam="2">  1       -4 0.26211121E+00 0.12497288E+03</pdfrwt>
<totfact> 0.33732070E+02</totfact>
</mgrwt>
</event>
<event>
 5    1  0.1466870E-002  0.1250014E+03  0.7818608E-02  0.1235067E+00
          4   -1    0    0  501    0  0.00000000000E+00  0.00000000000E+00  0.38976295960E+01  0.40993190249E+01  0.12700000000E+01 0. -1.
         -4   -1    0    0    0  501 -0.00000000000E+00 -0.00000000000E+00 -0.97675457133E+03  0.97675539698E+03  0.12700000000E+01 0. -1.
         25    2    1    2    0    0  0.00000000000E+00  0.00000000000E+00 -0.97285694174E+03  0.98085471600E+03  0.12500137925E+03 0.  0.
    9000005    1    3    3    0    0 -0.76168459142E+01  0.51865968895E+02 -0.75336118993E+03  0.75518353899E+03  0.10000000000E+01 0.  0.
    9000005    1    3    3    0    0  0.76168459142E+01 -0.51865968895E+02 -0.21949575181E+03  0.22567117701E+03  0.10000000000E+01 0.  0.
<mgrwt>
<rscale>  0 0.12500138E+03</rscale>
<asrwt>0</asrwt>
<pdfrwt beam="1">  1        4 0.99972513E-03 0.12500138E+03</pdfrwt>
<pdfrwt beam="2">  1       -4 0.24421314E+00 0.12500138E+03</pdfrwt>
<totfact> 0.38410780E+02</totfact>
</mgrwt>
</event>
<event>
 5    1  0.1466870E-002  0.1249990E+03  0.7818608E-02  0.1235071E+00
         -4   -1    0    0    0  501 -0.00000000000E+00  0.00000000000E+00  0.38574057068E+02  0.38594957944E+02  0.12700000000E+01 0. -1.
          4   -1    0    0  501    0  0.00000000000E+00 -0.00000000000E+00 -0.10121234848E+03  0.10122031607E+03  0.12700000000E+01 0. -1.
         25    2    1    2    0    0  0.00000000000E+00  0.00000000000E+00 -0.62638291411E+02  0.13981527401E+03  0.12499902118E+03 0.  0.
    9000005    1    3    3    0    0  0.22216013265E+01  0.22277910197E+02 -0.96578003212E+02  0.99144094628E+02  0.10000000000E+01 0.  0.
    9000005    1    3    3    0    0 -0.22216013265E+01 -0.22277910197E+02  0.33939711801E+02  0.40671179382E+02  0.10000000000E+01 0.  0.
<mgrwt>
<rscale>  0 0.12499902E+03</rscale>
<asrwt>0</asrwt>
<pdfrwt beam="2">  1        4 0.25306695E-01 0.12499902E+03</pdfrwt>
<pdfrwt beam="1">  1       -4 0.96471230E-02 0.12499902E+03</pdfrwt>
<totfact> 0.19050231E+03</totfact>
</mgrwt>
</event>
<event>
 5    1  0.1466870E-002  0.1249991E+03  0.7818608E-02  0.1235071E+00
         -4   -1    0    0    0  501 -0.00000000000E+00  0.00000000000E+00  0.72746947381E+02  0.72758032225E+02  0.12700000000E+01 0. -1.
          4   -1    0    0  501    0  0.00000000000E+00 -0.00000000000E+00 -0.53672960964E+02  0.53687984118E+02  0.12700000000E+01 0. -1.
         25    2    1    2    0    0  0.00000000000E+00  0.00000000000E+00  0.19073986417E+02  0.12644601634E+03  0.12499911236E+03 0.  0.
    9000005    1    3    3    0    0 -0.24905081690E+02  0.27479459250E+01  0.67448069540E+02  0.71958713062E+02  0.10000000000E+01 0.  0.
    9000005    1    3    3    0    0  0.24905081690E+02 -0.27479459250E+01 -0.48374083123E+02  0.54487303281E+02  0.10000000000E+01 0.  0.
<mgrwt>
<rscale>  0 0.12499911E+03</rscale>
<asrwt>0</asrwt>
<pdfrwt beam="2">  1        4 0.13421504E-01 0.12499911E+03</pdfrwt>
<pdfrwt beam="1">  1       -4 0.18190000E-01 0.12499911E+03</pdfrwt>
<totfact> 0.19757247E+03</totfact>
</mgrwt>
</event>
<event>
 5    1  0.1466870E-002  0.1249978E+03  0.7818608E-02  0.1235073E+00
          4   -1    0    0  501    0  0.00000000000E+00  0.00000000000E+00  0.25923031094E+03  0.25923342186E+03  0.12700000000E+01 0.  1.
         -4   -1    0    0    0  501 -0.00000000000E+00 -0.00000000000E+00 -0.15038155929E+02  0.15091687571E+02  0.12700000000E+01 0.  1.
         25    2    1    2    0    0  0.00000000000E+00  0.00000000000E+00  0.24419215501E+03  0.27432510943E+03  0.12499782837E+03 0.  0.
    9000005    1    3    3    0    0 -0.42729300971E+02  0.36422874254E+02  0.18230664325E+03  0.19075935390E+03  0.10000000000E+01 0.  0.
    9000005    1    3    3    0    0  0.42729300971E+02 -0.36422874254E+02  0.61885511760E+02  0.83565755523E+02  0.10000000000E+01 0.  0.
<mgrwt>
<rscale>  0 0.12499783E+03</rscale>
<asrwt>0</asrwt>
<pdfrwt beam="1">  1        4 0.64814657E-01 0.12499783E+03</pdfrwt>
<pdfrwt beam="2">  1       -4 0.37666194E-02 0.12499783E+03</pdfrwt>
<totfact> 0.13723116E+03</totfact>
</mgrwt>
</event>
<event>
 5    1  0.1466870E-002  0.1249918E+03  0.7818608E-02  0.1235082E+00
         -4   -1    0    0    0  501 -0.00000000000E+00  0.00000000000E+00  0.10379860397E+04  0.10379868167E+04  0.12700000000E+01 0.  1.
          4   -1    0    0  501    0  0.00000000000E+00 -0.00000000000E+00 -0.36548419721E+01  0.38692079087E+01  0.12700000000E+01 0.  1.
         25    2    1    2    0    0  0.00000000000E+00  0.00000000000E+00  0.10343311978E+04  0.10418560246E+04  0.12499179689E+03 0.  0.
    9000005    1    3    3    0    0  0.18580219076E+02  0.24013566081E+02  0.97240803089E+03  0.97288244636E+03  0.10000000000E+01 0.  0.
    9000005    1    3    3    0    0 -0.18580219076E+02 -0.24013566081E+02  0.61923166865E+02  0.68973578212E+02  0.10000000000E+01 0.  0.
<mgrwt>
<rscale>  0 0.12499180E+03</rscale>
<asrwt>0</asrwt>
<pdfrwt beam="2">  1        4 0.94060348E-03 0.12499180E+03</pdfrwt>
<pdfrwt beam="1">  1       -4 0.25952337E+00 0.12499180E+03</pdfrwt>
<totfact> 0.34371809E+02</totfact>
</mgrwt>
</event>
<event>
 5    1  0.1466870E-002  0.1250054E+03  0.7818608E-02  0.1235061E+00
         -4   -1    0    0    0  501 -0.00000000000E+00  0.00000000000E+00  0.45430410691E+02  0.45448158550E+02  0.12700000000E+01 0. -1.
          4   -1    0    0  501    0  0.00000000000E+00 -0.00000000000E+00 -0.85951297501E+02  0.85960679628E+02  0.12700000000E+01 0. -1.
         25    2    1    2    0    0  0.00000000000E+00  0.00000000000E+00 -0.40520886810E+02  0.13140883818E+03  0.12500536182E+03 0.  0.
    9000005    1    3    3    0    0 -0.62172631784E+02 -0.46680606795E+01 -0.15756314272E+02  0.64315537570E+02  0.10000000000E+01 0.  0.
    9000005    1    3    3    0    0  0.62172631784E+02  0.46680606795E+01 -0.24764572538E+02  0.67093300608E+02  0.10000000000E+01 0.  0.
<mgrwt>
<rscale>  0 0.12500536E+03</rscale>
<asrwt>0</asrwt>
<pdfrwt beam="2">  1        4 0.21491215E-01 0.12500536E+03</pdfrwt>
<pdfrwt beam="1">  1       -4 0.11360994E-01 0.12500536E+03</pdfrwt>
<totfact> 0.19486502E+03</totfact>
</mgrwt>
</event>
<event>
 5    1  0.1466870E-002  0.1250004E+03  0.7818608E-02  0.1235069E+00
         -4   -1    0    0    0  501 -0.00000000000E+00  0.00000000000E+00  0.33604545185E+02  0.33628534864E+02  0.12700000000E+01 0. -1.
          4   -1    0    0  501    0  0.00000000000E+00 -0.00000000000E+00 -0.11617350503E+03  0.11618044660E+03  0.12700000000E+01 0. -1.
         25    2    1    2    0    0  0.00000000000E+00  0.00000000000E+00 -0.82568959849E+02  0.14980898146E+03  0.12500039118E+03 0.  0.
    9000005    1    3    3    0    0  0.16652967665E+02 -0.16183888478E+02  0.28247690277E+02  0.36581027655E+02  0.10000000000E+01 0.  0.
    9000005    1    3    3    0    0 -0.16652967665E+02  0.16183888478E+02 -0.11081665013E+03  0.11322795381E+03  0.10000000000E+01 0.  0.
<mgrwt>
<rscale>  0 0.12500039E+03</rscale>
<asrwt>0</asrwt>
<pdfrwt beam="2">  1        4 0.29047242E-01 0.12500039E+03</pdfrwt>
<pdfrwt beam="1">  1       -4 0.84050030E-02 0.12500039E+03</pdfrwt>
<totfact> 0.18548008E+03</totfact>
</mgrwt>
</event>
<event>
 5    1  0.1466870E-002  0.1249992E+03  0.7818608E-02  0.1235071E+00
         -4   -1    0    0    0  501 -0.00000000000E+00  0.00000000000E+00  0.32936030669E+01  0.35299746688E+01  0.12700000000E+01 0. -1.
          4   -1    0    0  501    0  0.00000000000E+00 -0.00000000000E+00 -0.11446756097E+04  0.11446763142E+04  0.12700000000E+01 0. -1.
         25    2    1    2    0    0  0.00000000000E+00  0.00000000000E+00 -0.11413820066E+04  0.11482062889E+04  0.12499918713E+03 0.  0.
    9000005    1    3    3    0    0 -0.23056677461E+02  0.21574157032E+02 -0.75331238424E+02  0.81687515017E+02  0.10000000000E+01 0.  0.
    9000005    1    3    3    0    0  0.23056677461E+02 -0.21574157032E+02 -0.10660507682E+04  0.10665187738E+04  0.10000000000E+01 0.  0.
<mgrwt>
<rscale>  0 0.12499919E+03</rscale>
<asrwt>0</asrwt>
<pdfrwt beam="2">  1        4 0.28619722E+00 0.12499919E+03</pdfrwt>
<pdfrwt beam="1">  1       -4 0.85303920E-03 0.12499919E+03</pdfrwt>
<totfact> 0.28005235E+02</totfact>
</mgrwt>
</event>
<event>
 5    1  0.1466870E-002  0.1249918E+03  0.7818608E-02  0.1235082E+00
          4   -1    0    0  501    0  0.00000000000E+00  0.00000000000E+00  0.31065365208E+02  0.31091314149E+02  0.12700000000E+01 0.  1.
         -4   -1    0    0    0  501 -0.00000000000E+00 -0.00000000000E+00 -0.12564473593E+03  0.12565115427E+03  0.12700000000E+01 0.  1.
         25    2    1    2    0    0  0.00000000000E+00  0.00000000000E+00 -0.94579370727E+02  0.15674246841E+03  0.12499177588E+03 0.  0.
    9000005    1    3    3    0    0 -0.13742025444E+02 -0.36434874239E+02 -0.10857523840E+03  0.11535131433E+03  0.10000000000E+01 0.  0.
    9000005    1    3    3    0    0  0.13742025444E+02  0.36434874239E+02  0.13995867676E+02  0.41391154081E+02  0.10000000000E+01 0.  0.
<mgrwt>
<rscale>  0 0.12499178E+03</rscale>
<asrwt>0</asrwt>
<pdfrwt beam="1">  1        4 0.77703875E-02 0.12499178E+03</pdfrwt>
<pdfrwt beam="2">  1       -4 0.31415229E-01 0.12499178E+03</pdfrwt>
<totfact> 0.18215628E+03</totfact>
</mgrwt>
</event>
<event>
 5    1  0.1466870E-002  0.1249993E+03  0.7818608E-02  0.1235070E+00
         -4   -1    0    0    0  501 -0.00000000000E+00  0.00000000000E+00  0.26613735497E+03  0.26614038516E+03  0.12700000000E+01 0.  1.
          4   -1    0    0  501    0  0.00000000000E+00 -0.00000000000E+00 -0.14646808353E+02  0.14701765028E+02  0.12700000000E+01 0.  1.
         25    2    1    2    0    0  0.00000000000E+00  0.00000000000E+00  0.25149054662E+03  0.28084215019E+03  0.12499927313E+03 0.  0.
    9000005    1    3    3    0    0 -0.49026959542E+02  0.29572373866E+02  0.69485080375E+02  0.90040793271E+02  0.10000000000E+01 0.  0.
    9000005    1    3    3    0    0  0.49026959542E+02 -0.29572373866E+02  0.18200546624E+03  0.19080135692E+03  0.10000000000E+01 0.  0.
<mgrwt>
<rscale>  0 0.12499927E+03</rscale>
<asrwt>0</asrwt>
<pdfrwt beam="2">  1        4 0.36689505E-02 0.12499927E+03</pdfrwt>
<pdfrwt beam="1">  1       -4 0.66541587E-01 0.12499927E+03</pdfrwt>
<totfact> 0.13525728E+03</totfact>
</mgrwt>
</event>
<event>
 5    1  0.1466870E-002  0.1249991E+03  0.7818608E-02  0.1235071E+00
         -4   -1    0    0    0  501 -0.00000000000E+00  0.00000000000E+00  0.11304492193E+03  0.11305205559E+03  0.12700000000E+01 0. -1.
          4   -1    0    0  501    0  0.00000000000E+00 -0.00000000000E+00 -0.34534435213E+02  0.34557779377E+02  0.12700000000E+01 0. -1.
         25    2    1    2    0    0  0.00000000000E+00  0.00000000000E+00  0.78510486715E+02  0.14760983497E+03  0.12499906742E+03 0.  0.
    9000005    1    3    3    0    0 -0.59739122673E+02  0.76035975134E+01  0.58966312319E+02  0.84288809823E+02  0.10000000000E+01 0.  0.
    9000005    1    3    3    0    0  0.59739122673E+02 -0.76035975134E+01  0.19544174396E+02  0.63321025147E+02  0.10000000000E+01 0.  0.
<mgrwt>
<rscale>  0 0.12499907E+03</rscale>
<asrwt>0</asrwt>
<pdfrwt beam="2">  1        4 0.86374186E-02 0.12499907E+03</pdfrwt>
<pdfrwt beam="1">  1       -4 0.28265040E-01 0.12499907E+03</pdfrwt>
<totfact> 0.18657338E+03</totfact>
</mgrwt>
</event>
<event>
 5    1  0.1466870E-002  0.1250218E+03  0.7818608E-02  0.1235035E+00
          4   -1    0    0  501    0  0.00000000000E+00  0.00000000000E+00  0.11256419139E+03  0.11257135552E+03  0.12700000000E+01 0.  1.
         -4   -1    0    0    0  501 -0.00000000000E+00 -0.00000000000E+00 -0.34694640423E+02  0.34717876866E+02  0.12700000000E+01 0.  1.
         25    2    1    2    0    0  0.00000000000E+00  0.00000000000E+00  0.77869550972E+02  0.14728923239E+03  0.12502180214E+03 0.  0.
    9000005    1    3    3    0    0  0.45287830310E+02  0.11562027619E+01  0.89665829045E+02  0.10046534366E+03  0.10000000000E+01 0.  0.
    9000005    1    3    3    0    0 -0.45287830310E+02 -0.11562027619E+01 -0.11796278073E+02  0.46823888726E+02  0.10000000000E+01 0.  0.
<mgrwt>
<rscale>  0 0.12502180E+03</rscale>
<asrwt>0</asrwt>
<pdfrwt beam="1">  1        4 0.28144848E-01 0.12502180E+03</pdfrwt>
<pdfrwt beam="2">  1       -4 0.86774602E-02 0.12502180E+03</pdfrwt>
<totfact> 0.18663403E+03</totfact>
</mgrwt>
</event>
<event>
 5    1  0.1466870E-002  0.1250076E+03  0.7818608E-02  0.1235057E+00
         -4   -1    0    0    0  501 -0.00000000000E+00  0.00000000000E+00  0.39525461074E+03  0.39525665107E+03  0.12700000000E+01 0.  1.
          4   -1    0    0  501    0  0.00000000000E+00 -0.00000000000E+00 -0.98412012719E+01  0.99228092027E+01  0.12700000000E+01 0.  1.
         25    2    1    2    0    0  0.00000000000E+00  0.00000000000E+00  0.38541340947E+03  0.40517946027E+03  0.12500759507E+03 0.  0.
    9000005    1    3    3    0    0  0.56505019088E+02 -0.13040801038E+01  0.27914555903E+03  0.28481179915E+03  0.10000000000E+01 0.  0.
    9000005    1    3    3    0    0 -0.56505019088E+02  0.13040801038E+01  0.10626785044E+03  0.12036766112E+03  0.10000000000E+01 0.  0.
<mgrwt>
<rscale>  0 0.12500760E+03</rscale>
<asrwt>0</asrwt>
<pdfrwt beam="2">  1        4 0.24707564E-02 0.12500760E+03</pdfrwt>
<pdfrwt beam="1">  1       -4 0.98824108E-01 0.12500760E+03</pdfrwt>
<totfact> 0.10461474E+03</totfact>
</mgrwt>
</event>
<event>
 5    1  0.1466870E-002  0.1250098E+03  0.7818608E-02  0.1235054E+00
          4   -1    0    0  501    0  0.00000000000E+00  0.00000000000E+00  0.27572796721E+03  0.27573089200E+03  0.12700000000E+01 0. -1.
         -4   -1    0    0    0  501 -0.00000000000E+00 -0.00000000000E+00 -0.14137803240E+02  0.14194730728E+02  0.12700000000E+01 0. -1.
         25    2    1    2    0    0  0.00000000000E+00  0.00000000000E+00  0.26159016397E+03  0.28992562273E+03  0.12500981092E+03 0.  0.
    9000005    1    3    3    0    0  0.27921669649E+02  0.53505095591E+02  0.93151563092E+02  0.11099832700E+03  0.10000000000E+01 0.  0.
    9000005    1    3    3    0    0 -0.27921669649E+02 -0.53505095591E+02  0.16843860088E+03  0.17892729573E+03  0.10000000000E+01 0.  0.
<mgrwt>
<rscale>  0 0.12500981E+03</rscale>
<asrwt>0</asrwt>
<pdfrwt beam="1">  1        4 0.68939472E-01 0.12500981E+03</pdfrwt>
<pdfrwt beam="2">  1       -4 0.35419324E-02 0.12500981E+03</pdfrwt>
<totfact> 0.13255200E+03</totfact>
</mgrwt>
</event>
<event>
 5    1  0.1466870E-002  0.1249996E+03  0.7818608E-02  0.1235070E+00
          4   -1    0    0  501    0  0.00000000000E+00  0.00000000000E+00  0.53433007690E+02  0.53448098290E+02  0.12700000000E+01 0.  1.
         -4   -1    0    0    0  501 -0.00000000000E+00 -0.00000000000E+00 -0.73074148131E+02  0.73085183348E+02  0.12700000000E+01 0.  1.
         25    2    1    2    0    0  0.00000000000E+00  0.00000000000E+00 -0.19641140441E+02  0.12653328164E+03  0.12499958786E+03 0.  0.
    9000005    1    3    3    0    0  0.57244582937E+02 -0.17110923990E+02 -0.28361918738E+02  0.66144723372E+02  0.10000000000E+01 0.  0.
    9000005    1    3    3    0    0 -0.57244582937E+02  0.17110923990E+02  0.87207782964E+01  0.60388558267E+02  0.10000000000E+01 0.  0.
<mgrwt>
<rscale>  0 0.12499959E+03</rscale>
<asrwt>0</asrwt>
<pdfrwt beam="1">  1        4 0.13361518E-01 0.12499959E+03</pdfrwt>
<pdfrwt beam="2">  1       -4 0.18271803E-01 0.12499959E+03</pdfrwt>
<totfact> 0.19752320E+03</totfact>
</mgrwt>
</event>
<event>
 5    1  0.1466870E-002  0.1249890E+03  0.7818608E-02  0.1235087E+00
          4   -1    0    0  501    0  0.00000000000E+00  0.00000000000E+00  0.55007684214E+02  0.55022342940E+02  0.12700000000E+01 0. -1.
         -4   -1    0    0    0  501 -0.00000000000E+00 -0.00000000000E+00 -0.70970476342E+02  0.70981838608E+02  0.12700000000E+01 0. -1.
         25    2    1    2    0    0  0.00000000000E+00  0.00000000000E+00 -0.15962792128E+02  0.12600418155E+03  0.12498897165E+03 0.  0.
    9000005    1    3    3    0    0  0.56931881282E+02 -0.60611053213E+01 -0.33216386252E+02  0.66198975971E+02  0.10000000000E+01 0.  0.
    9000005    1    3    3    0    0 -0.56931881282E+02  0.60611053213E+01  0.17253594124E+02  0.59805205578E+02  0.10000000000E+01 0.  0.
<mgrwt>
<rscale>  0 0.12498897E+03</rscale>
<asrwt>0</asrwt>
<pdfrwt beam="1">  1        4 0.13755174E-01 0.12498897E+03</pdfrwt>
<pdfrwt beam="2">  1       -4 0.17745872E-01 0.12498897E+03</pdfrwt>
<totfact> 0.19785798E+03</totfact>
</mgrwt>
</event>
<event>
 5    1  0.1466870E-002  0.1249979E+03  0.7818608E-02  0.1235073E+00
          4   -1    0    0  501    0  0.00000000000E+00  0.00000000000E+00  0.10645436378E+02  0.10720924199E+02  0.12700000000E+01 0.  1.
         -4   -1    0    0    0  501 -0.00000000000E+00 -0.00000000000E+00 -0.36555587918E+03  0.36555808526E+03  0.12700000000E+01 0.  1.
         25    2    1    2    0    0  0.00000000000E+00  0.00000000000E+00 -0.35491044280E+03  0.37627900946E+03  0.12499788220E+03 0.  0.
    9000005    1    3    3    0    0 -0.61561238437E+02 -0.88194201749E+00 -0.20967421505E+03  0.21852880898E+03  0.10000000000E+01 0.  0.
    9000005    1    3    3    0    0  0.61561238437E+02  0.88194201749E+00 -0.14523622775E+03  0.15775020048E+03  0.10000000000E+01 0.  0.
<mgrwt>
<rscale>  0 0.12499788E+03</rscale>
<asrwt>0</asrwt>
<pdfrwt beam="1">  1        4 0.26710721E-02 0.12499788E+03</pdfrwt>
<pdfrwt beam="2">  1       -4 0.91398640E-01 0.12499788E+03</pdfrwt>
<totfact> 0.11075243E+03</totfact>
</mgrwt>
</event>
<event>
 5    1  0.1466870E-002  0.1250019E+03  0.7818608E-02  0.1235066E+00
         -4   -1    0    0    0  501 -0.00000000000E+00  0.00000000000E+00  0.27291076708E+01  0.30101376511E+01  0.12700000000E+01 0. -1.
          4   -1    0    0  501    0  0.00000000000E+00 -0.00000000000E+00 -0.13610027850E+04  0.13610033775E+04  0.12700000000E+01 0. -1.
         25    2    1    2    0    0  0.00000000000E+00  0.00000000000E+00 -0.13582736773E+04  0.13640135151E+04  0.12500194839E+03 0.  0.
    9000005    1    3    3    0    0  0.22801821150E+02  0.55276487912E+02 -0.48092407137E+03  0.48462807965E+03  0.10000000000E+01 0.  0.
    9000005    1    3    3    0    0 -0.22801821150E+02 -0.55276487912E+02 -0.87734960591E+03  0.87938543550E+03  0.10000000000E+01 0.  0.
<mgrwt>
<rscale>  0 0.12500195E+03</rscale>
<asrwt>0</asrwt>
<pdfrwt beam="2">  1        4 0.34028368E+00 0.12500195E+03</pdfrwt>
<pdfrwt beam="1">  1       -4 0.71748440E-03 0.12500195E+03</pdfrwt>
<totfact> 0.17535528E+02</totfact>
</mgrwt>
</event>
<event>
 5    1  0.1466870E-002  0.1250001E+03  0.7818608E-02  0.1235069E+00
          4   -1    0    0  501    0  0.00000000000E+00  0.00000000000E+00  0.37481095605E+03  0.37481310766E+03  0.12700000000E+01 0. -1.
         -4   -1    0    0    0  501 -0.00000000000E+00 -0.00000000000E+00 -0.10381052275E+02  0.10458448563E+02  0.12700000000E+01 0. -1.
         25    2    1    2    0    0  0.00000000000E+00  0.00000000000E+00  0.36442990377E+03  0.38527155622E+03  0.12500006908E+03 0.  0.
    9000005    1    3    3    0    0 -0.47800667233E+02  0.36391541902E+02  0.23524317849E+03  0.24279538945E+03  0.10000000000E+01 0.  0.
    9000005    1    3    3    0    0  0.47800667233E+02 -0.36391541902E+02  0.12918672528E+03  0.14247616677E+03  0.10000000000E+01 0.  0.
<mgrwt>
<rscale>  0 0.12500007E+03</rscale>
<asrwt>0</asrwt>
<pdfrwt beam="1">  1        4 0.93712674E-01 0.12500007E+03</pdfrwt>
<pdfrwt beam="2">  1       -4 0.26052068E-02 0.12500007E+03</pdfrwt>
<totfact> 0.10878988E+03</totfact>
</mgrwt>
</event>
<event>
 5    1  0.1466870E-002  0.1249964E+03  0.7818608E-02  0.1235075E+00
         -4   -1    0    0    0  501 -0.00000000000E+00  0.00000000000E+00  0.21346802059E+03  0.21347179840E+03  0.12700000000E+01 0.  1.
          4   -1    0    0  501    0  0.00000000000E+00 -0.00000000000E+00 -0.18271972076E+02  0.18316054803E+02  0.12700000000E+01 0.  1.
         25    2    1    2    0    0  0.00000000000E+00  0.00000000000E+00  0.19519604851E+03  0.23178785321E+03  0.12499644611E+03 0.  0.
    9000005    1    3    3    0    0 -0.38362757642E+02 -0.49025041936E+02  0.10773305264E+03  0.12442896183E+03  0.10000000000E+01 0.  0.
    9000005    1    3    3    0    0  0.38362757642E+02  0.49025041936E+02  0.87462995867E+02  0.10735889137E+03  0.10000000000E+01 0.  0.
<mgrwt>
<rscale>  0 0.12499645E+03</rscale>
<asrwt>0</asrwt>
<pdfrwt beam="2">  1        4 0.45739756E-02 0.12499645E+03</pdfrwt>
<pdfrwt beam="1">  1       -4 0.53372988E-01 0.12499645E+03</pdfrwt>
<totfact> 0.15124876E+03</totfact>
</mgrwt>
</event>
<event>
 5    1  0.1466870E-002  0.1249968E+03  0.7818608E-02  0.1235074E+00
          4   -1    0    0  501    0  0.00000000000E+00  0.00000000000E+00  0.88329694217E+02  0.88338823744E+02  0.12700000000E+01 0.  1.
         -4   -1    0    0    0  501 -0.00000000000E+00 -0.00000000000E+00 -0.44200735022E+02  0.44218976430E+02  0.12700000000E+01 0.  1.
         25    2    1    2    0    0  0.00000000000E+00  0.00000000000E+00  0.44128959195E+02  0.13255780017E+03  0.12499682135E+03 0.  0.
    9000005    1    3    3    0    0 -0.53433721515E+02 -0.45688220552E+01  0.56083130691E+02  0.77603829016E+02  0.10000000000E+01 0.  0.
    9000005    1    3    3    0    0  0.53433721515E+02  0.45688220552E+01 -0.11954171496E+02  0.54953971158E+02  0.10000000000E+01 0.  0.
<mgrwt>
<rscale>  0 0.12499682E+03</rscale>
<asrwt>0</asrwt>
<pdfrwt beam="1">  1        4 0.22085845E-01 0.12499682E+03</pdfrwt>
<pdfrwt beam="2">  1       -4 0.11053605E-01 0.12499682E+03</pdfrwt>
<totfact> 0.19429276E+03</totfact>
</mgrwt>
</event>
<event>
 5    1  0.1466870E-002  0.1249967E+03  0.7818608E-02  0.1235074E+00
          4   -1    0    0  501    0  0.00000000000E+00  0.00000000000E+00  0.74575163114E+01  0.75648826518E+01  0.12700000000E+01 0.  1.
         -4   -1    0    0    0  501 -0.00000000000E+00 -0.00000000000E+00 -0.51992100426E+03  0.51992255536E+03  0.12700000000E+01 0.  1.
         25    2    1    2    0    0  0.00000000000E+00  0.00000000000E+00 -0.51246348795E+03  0.52748743801E+03  0.12499668307E+03 0.  0.
    9000005    1    3    3    0    0 -0.51502636105E+02  0.14939784676E+02 -0.12084077923E+03  0.13220897328E+03  0.10000000000E+01 0.  0.
    9000005    1    3    3    0    0  0.51502636105E+02 -0.14939784676E+02 -0.39162270872E+03  0.39527846473E+03  0.10000000000E+01 0.  0.
<mgrwt>
<rscale>  0 0.12499668E+03</rscale>
<asrwt>0</asrwt>
<pdfrwt beam="1">  1        4 0.18779955E-02 0.12499668E+03</pdfrwt>
<pdfrwt beam="2">  1       -4 0.12999374E+00 0.12499668E+03</pdfrwt>
<totfact> 0.83400932E+02</totfact>
</mgrwt>
</event>
<event>
 5    1  0.1466870E-002  0.1250048E+03  0.7818608E-02  0.1235062E+00
          4   -1    0    0  501    0  0.00000000000E+00  0.00000000000E+00  0.17607460303E+03  0.17607918313E+03  0.12700000000E+01 0. -1.
         -4   -1    0    0    0  501 -0.00000000000E+00 -0.00000000000E+00 -0.22163850800E+02  0.22200206807E+02  0.12700000000E+01 0. -1.
         25    2    1    2    0    0  0.00000000000E+00  0.00000000000E+00  0.15391075223E+03  0.19827938994E+03  0.12500478720E+03 0.  0.
    9000005    1    3    3    0    0 -0.15421026615E+02 -0.56842798259E+02  0.43810880849E+02  0.73411886344E+02  0.10000000000E+01 0.  0.
    9000005    1    3    3    0    0  0.15421026615E+02  0.56842798259E+02  0.11009987138E+03  0.12486750359E+03  0.10000000000E+01 0.  0.
<mgrwt>
<rscale>  0 0.12500479E+03</rscale>
<asrwt>0</asrwt>
<pdfrwt beam="1">  1        4 0.44023767E-01 0.12500479E+03</pdfrwt>
<pdfrwt beam="2">  1       -4 0.55460798E-02 0.12500479E+03</pdfrwt>
<totfact> 0.16389355E+03</totfact>
</mgrwt>
</event>
<event>
 5    1  0.1466870E-002  0.1250030E+03  0.7818608E-02  0.1235065E+00
         -4   -1    0    0    0  501 -0.00000000000E+00  0.00000000000E+00  0.65616201800E+01  0.66833943013E+01  0.12700000000E+01 0. -1.
          4   -1    0    0  501    0  0.00000000000E+00 -0.00000000000E+00 -0.58975066475E+03  0.58975203220E+03  0.12700000000E+01 0. -1.
         25    2    1    2    0    0  0.00000000000E+00  0.00000000000E+00 -0.58318904457E+03  0.59643542650E+03  0.12500302504E+03 0.  0.
    9000005    1    3    3    0    0  0.59669338162E+02  0.13685245118E+02 -0.35151713224E+03  0.35680948714E+03  0.10000000000E+01 0.  0.
    9000005    1    3    3    0    0 -0.59669338162E+02 -0.13685245118E+02 -0.23167191233E+03  0.23962593936E+03  0.10000000000E+01 0.  0.
<mgrwt>
<rscale>  0 0.12500303E+03</rscale>
<asrwt>0</asrwt>
<pdfrwt beam="2">  1        4 0.14745288E+00 0.12500303E+03</pdfrwt>
<pdfrwt beam="1">  1       -4 0.16557997E-02 0.12500303E+03</pdfrwt>
<totfact> 0.73948248E+02</totfact>
</mgrwt>
</event>
<event>
 5    1  0.1466870E-002  0.1250051E+03  0.7818608E-02  0.1235061E+00
          4   -1    0    0  501    0  0.00000000000E+00  0.00000000000E+00  0.10418983577E+03  0.10419757568E+03  0.12700000000E+01 0.  1.
         -4   -1    0    0    0  501 -0.00000000000E+00 -0.00000000000E+00 -0.37474858293E+02  0.37496371879E+02  0.12700000000E+01 0.  1.
         25    2    1    2    0    0  0.00000000000E+00  0.00000000000E+00  0.66714977475E+02  0.14169394756E+03  0.12500514611E+03 0.  0.
    9000005    1    3    3    0    0  0.23829218266E+02 -0.17788589096E+01 -0.32097642116E+02  0.40028172723E+02  0.10000000000E+01 0.  0.
    9000005    1    3    3    0    0 -0.23829218266E+02  0.17788589096E+01  0.98812619591E+02  0.10166577483E+03  0.10000000000E+01 0.  0.
<mgrwt>
<rscale>  0 0.12500515E+03</rscale>
<asrwt>0</asrwt>
<pdfrwt beam="1">  1        4 0.26051115E-01 0.12500515E+03</pdfrwt>
<pdfrwt beam="2">  1       -4 0.93723713E-02 0.12500515E+03</pdfrwt>
<totfact> 0.18951742E+03</totfact>
</mgrwt>
</event>
<event>
 5    1  0.1466870E-002  0.1250005E+03  0.7818608E-02  0.1235069E+00
         -4   -1    0    0    0  501 -0.00000000000E+00  0.00000000000E+00  0.15270768709E+02  0.15323487754E+02  0.12700000000E+01 0. -1.
          4   -1    0    0  501    0  0.00000000000E+00 -0.00000000000E+00 -0.25530595136E+03  0.25530911010E+03  0.12700000000E+01 0. -1.
         25    2    1    2    0    0  0.00000000000E+00  0.00000000000E+00 -0.24003518266E+03  0.27063259786E+03  0.12500045644E+03 0.  0.
    9000005    1    3    3    0    0  0.51341726427E+02 -0.24204193212E+02 -0.17661882696E+03  0.18551826293E+03  0.10000000000E+01 0.  0.
    9000005    1    3    3    0    0 -0.51341726427E+02  0.24204193212E+02 -0.63416355693E+02  0.85114334932E+02  0.10000000000E+01 0.  0.
<mgrwt>
<rscale>  0 0.12500046E+03</rscale>
<asrwt>0</asrwt>
<pdfrwt beam="2">  1        4 0.63833459E-01 0.12500046E+03</pdfrwt>
<pdfrwt beam="1">  1       -4 0.38246777E-02 0.12500046E+03</pdfrwt>
<totfact> 0.13835833E+03</totfact>
</mgrwt>
</event>
<event>
 5    1  0.1466870E-002  0.1249986E+03  0.7818608E-02  0.1235072E+00
         -4   -1    0    0    0  501 -0.00000000000E+00  0.00000000000E+00  0.29686335408E+02  0.29713488687E+02  0.12700000000E+01 0.  1.
          4   -1    0    0  501    0  0.00000000000E+00 -0.00000000000E+00 -0.13149072283E+03  0.13149685582E+03  0.12700000000E+01 0.  1.
         25    2    1    2    0    0  0.00000000000E+00  0.00000000000E+00 -0.10180438742E+03  0.16121034451E+03  0.12499856750E+03 0.  0.
    9000005    1    3    3    0    0  0.33356080481E+02  0.31168331416E+02  0.41343167038E+01  0.45849597195E+02  0.10000000000E+01 0.  0.
    9000005    1    3    3    0    0 -0.33356080481E+02 -0.31168331416E+02 -0.10593870413E+03  0.11536074731E+03  0.10000000000E+01 0.  0.
<mgrwt>
<rscale>  0 0.12499857E+03</rscale>
<asrwt>0</asrwt>
<pdfrwt beam="2">  1        4 0.32876840E-01 0.12499857E+03</pdfrwt>
<pdfrwt beam="1">  1       -4 0.74257450E-02 0.12499857E+03</pdfrwt>
<totfact> 0.18001541E+03</totfact>
</mgrwt>
</event>
<event>
 5    1  0.1466870E-002  0.1250006E+03  0.7818608E-02  0.1235068E+00
          4   -1    0    0  501    0  0.00000000000E+00  0.00000000000E+00  0.66361324833E+01  0.67565637965E+01  0.12700000000E+01 0.  1.
         -4   -1    0    0    0  501 -0.00000000000E+00 -0.00000000000E+00 -0.58322472305E+03  0.58322610579E+03  0.12700000000E+01 0.  1.
         25    2    1    2    0    0  0.00000000000E+00  0.00000000000E+00 -0.57658859057E+03  0.58998266959E+03  0.12500059057E+03 0.  0.
    9000005    1    3    3    0    0 -0.52720908351E+02 -0.23279874499E+02 -0.40233875144E+03  0.40644669717E+03  0.10000000000E+01 0.  0.
    9000005    1    3    3    0    0  0.52720908351E+02  0.23279874499E+02 -0.17424983913E+03  0.18353597242E+03  0.10000000000E+01 0.  0.
<mgrwt>
<rscale>  0 0.12500059E+03</rscale>
<asrwt>0</asrwt>
<pdfrwt beam="1">  1        4 0.16742619E-02 0.12500059E+03</pdfrwt>
<pdfrwt beam="2">  1       -4 0.14582123E+00 0.12500059E+03</pdfrwt>
<totfact> 0.74776996E+02</totfact>
</mgrwt>
</event>
<event>
 5    1  0.1466870E-002  0.1250011E+03  0.7818608E-02  0.1235068E+00
          4   -1    0    0  501    0  0.00000000000E+00  0.00000000000E+00  0.55184927346E+02  0.55199539003E+02  0.12700000000E+01 0.  1.
         -4   -1    0    0    0  501 -0.00000000000E+00 -0.00000000000E+00 -0.70756253409E+02  0.70767650070E+02  0.12700000000E+01 0.  1.
         25    2    1    2    0    0  0.00000000000E+00  0.00000000000E+00 -0.15571326063E+02  0.12596718907E+03  0.12500106611E+03 0.  0.
    9000005    1    3    3    0    0 -0.10762078266E+02  0.42176623899E+02  0.37400914002E+02  0.57397894563E+02  0.10000000000E+01 0.  0.
    9000005    1    3    3    0    0  0.10762078266E+02 -0.42176623899E+02 -0.52972240065E+02  0.68569294510E+02  0.10000000000E+01 0.  0.
<mgrwt>
<rscale>  0 0.12500107E+03</rscale>
<asrwt>0</asrwt>
<pdfrwt beam="1">  1        4 0.13799483E-01 0.12500107E+03</pdfrwt>
<pdfrwt beam="2">  1       -4 0.17692314E-01 0.12500107E+03</pdfrwt>
<totfact> 0.19782200E+03</totfact>
</mgrwt>
</event>
<event>
 5    1  0.1466870E-002  0.1250026E+03  0.7818608E-02  0.1235065E+00
         -4   -1    0    0    0  501 -0.00000000000E+00  0.00000000000E+00  0.23450079918E+02  0.23484444813E+02  0.12700000000E+01 0. -1.
          4   -1    0    0  501    0  0.00000000000E+00 -0.00000000000E+00 -0.16642533125E+03  0.16643017689E+03  0.12700000000E+01 0. -1.
         25    2    1    2    0    0  0.00000000000E+00  0.00000000000E+00 -0.14297525133E+03  0.18991462171E+03  0.12500256415E+03 0.  0.
    9000005    1    3    3    0    0  0.55630136192E+02 -0.15416270317E+02 -0.35118677208E+02  0.67577325577E+02  0.10000000000E+01 0.  0.
    9000005    1    3    3    0    0 -0.55630136192E+02  0.15416270317E+02 -0.10785657412E+03  0.12233729613E+03  0.10000000000E+01 0.  0.
<mgrwt>
<rscale>  0 0.12500256E+03</rscale>
<asrwt>0</asrwt>
<pdfrwt beam="2">  1        4 0.41611231E-01 0.12500256E+03</pdfrwt>
<pdfrwt beam="1">  1       -4 0.58674218E-02 0.12500256E+03</pdfrwt>
<totfact> 0.16733011E+03</totfact>
</mgrwt>
</event>
<event>
 5    1  0.1466870E-002  0.1249982E+03  0.7818608E-02  0.1235072E+00
          4   -1    0    0  501    0  0.00000000000E+00  0.00000000000E+00  0.58618420413E+02  0.58632176420E+02  0.12700000000E+01 0. -1.
         -4   -1    0    0    0  501 -0.00000000000E+00 -0.00000000000E+00 -0.66609022861E+02  0.66621128979E+02  0.12700000000E+01 0. -1.
         25    2    1    2    0    0  0.00000000000E+00  0.00000000000E+00 -0.79906024479E+01  0.12525330540E+03  0.12499816313E+03 0.  0.
    9000005    1    3    3    0    0 -0.25171546944E+02 -0.50373502970E+02 -0.31143749986E+02  0.64358602690E+02  0.10000000000E+01 0.  0.
    9000005    1    3    3    0    0  0.25171546944E+02  0.50373502970E+02  0.23153147538E+02  0.60894702709E+02  0.10000000000E+01 0.  0.
<mgrwt>
<rscale>  0 0.12499816E+03</rscale>
<asrwt>0</asrwt>
<pdfrwt beam="1">  1        4 0.14657838E-01 0.12499816E+03</pdfrwt>
<pdfrwt beam="2">  1       -4 0.16655488E-01 0.12499816E+03</pdfrwt>
<totfact> 0.19822176E+03</totfact>
</mgrwt>
</event>
<event>
 5    1  0.1466870E-002  0.1249992E+03  0.7818608E-02  0.1235071E+00
         -4   -1    0    0    0  501 -0.00000000000E+00  0.00000000000E+00  0.41685150457E+02  0.41704492187E+02  0.12700000000E+01 0.  1.
          4   -1    0    0  501    0  0.00000000000E+00 -0.00000000000E+00 -0.93661786082E+02  0.93670395922E+02  0.12700000000E+01 0.  1.
         25    2    1    2    0    0  0.00000000000E+00  0.00000000000E+00 -0.51976635626E+02  0.13537488811E+03  0.12499915872E+03 0.  0.
    9000005    1    3    3    0    0 -0.36522275075E+02 -0.42119341527E+02 -0.56568282277E+02  0.79428496569E+02  0.10000000000E+01 0.  0.
    9000005    1    3    3    0    0  0.36522275075E+02  0.42119341527E+02  0.45916466517E+01  0.55946391540E+02  0.10000000000E+01 0.  0.
<mgrwt>
<rscale>  0 0.12499916E+03</rscale>
<asrwt>0</asrwt>
<pdfrwt beam="2">  1        4 0.23418940E-01 0.12499916E+03</pdfrwt>
<pdfrwt beam="1">  1       -4 0.10424782E-01 0.12499916E+03</pdfrwt>
<totfact> 0.19279897E+03</totfact>
</mgrwt>
</event>
<event>
 5    1  0.1466870E-002  0.1250034E+03  0.7818608E-02  0.1235064E+00
         -4   -1    0    0    0  501 -0.00000000000E+00  0.00000000000E+00  0.14713994086E+04  0.14713999567E+04  0.12700000000E+01 0.  1.
          4   -1    0    0  501    0  0.00000000000E+00 -0.00000000000E+00 -0.25024711188E+01  0.28062896680E+01  0.12700000000E+01 0.  1.
         25    2    1    2    0    0  0.00000000000E+00  0.00000000000E+00  0.14688969375E+04  0.14742062464E+04  0.12500337532E+03 0.  0.
    9000005    1    3    3    0    0 -0.64555310263E+01 -0.18052402017E+02  0.14359185500E+04  0.14360468813E+04  0.10000000000E+01 0.  0.
    9000005    1    3    3    0    0  0.64555310263E+01  0.18052402017E+02  0.32978387505E+02  0.38159365060E+02  0.10000000000E+01 0.  0.
<mgrwt>
<rscale>  0 0.12500338E+03</rscale>
<asrwt>0</asrwt>
<pdfrwt beam="2">  1        4 0.66366348E-03 0.12500338E+03</pdfrwt>
<pdfrwt beam="1">  1       -4 0.36788797E+00 0.12500338E+03</pdfrwt>
<totfact> 0.13360086E+02</totfact>
</mgrwt>
</event>
<event>
 5    1  0.1466870E-002  0.1249995E+03  0.7818608E-02  0.1235070E+00
         -4   -1    0    0    0  501 -0.00000000000E+00  0.00000000000E+00  0.15781573225E+03  0.15782084224E+03  0.12700000000E+01 0. -1.
          4   -1    0    0  501    0  0.00000000000E+00 -0.00000000000E+00 -0.24729948291E+02  0.24762537076E+02  0.12700000000E+01 0. -1.
         25    2    1    2    0    0  0.00000000000E+00  0.00000000000E+00  0.13308578396E+03  0.18258337932E+03  0.12499945804E+03 0.  0.
    9000005    1    3    3    0    0 -0.45594081742E+02  0.47337370917E+01  0.12858261945E+03  0.13651270483E+03  0.10000000000E+01 0.  0.
    9000005    1    3    3    0    0  0.45594081742E+02 -0.47337370917E+01  0.45031645111E+01  0.46070674483E+02  0.10000000000E+01 0.  0.
<mgrwt>
<rscale>  0 0.12499946E+03</rscale>
<asrwt>0</asrwt>
<pdfrwt beam="2">  1        4 0.61871994E-02 0.12499946E+03</pdfrwt>
<pdfrwt beam="1">  1       -4 0.39458645E-01 0.12499946E+03</pdfrwt>
<totfact> 0.17044190E+03</totfact>
</mgrwt>
</event>
<event>
 5    1  0.1466870E-002  0.1249975E+03  0.7818608E-02  0.1235073E+00
          4   -1    0    0  501    0  0.00000000000E+00  0.00000000000E+00  0.80355221829E+02  0.80365257264E+02  0.12700000000E+01 0. -1.
         -4   -1    0    0    0  501 -0.00000000000E+00 -0.00000000000E+00 -0.48588981262E+02  0.48605575812E+02  0.12700000000E+01 0. -1.
         25    2    1    2    0    0  0.00000000000E+00  0.00000000000E+00  0.31766240567E+02  0.12897083308E+03  0.12499752695E+03 0.  0.
    9000005    1    3    3    0    0  0.55670710041E+02 -0.15570897903E+02 -0.86077455913E+01  0.58453178717E+02  0.10000000000E+01 0.  0.
    9000005    1    3    3    0    0 -0.55670710041E+02  0.15570897903E+02  0.40373986159E+02  0.70517654359E+02  0.10000000000E+01 0.  0.
<mgrwt>
<rscale>  0 0.12499753E+03</rscale>
<asrwt>0</asrwt>
<pdfrwt beam="1">  1        4 0.20092134E-01 0.12499753E+03</pdfrwt>
<pdfrwt beam="2">  1       -4 0.12150574E-01 0.12499753E+03</pdfrwt>
<totfact> 0.19621005E+03</totfact>
</mgrwt>
</event>
<event>
 5    1  0.1466870E-002  0.1250095E+03  0.7818608E-02  0.1235054E+00
         -4   -1    0    0    0  501 -0.00000000000E+00  0.00000000000E+00  0.87483765901E+01  0.88400787871E+01  0.12700000000E+01 0.  1.
          4   -1    0    0  501    0  0.00000000000E+00 -0.00000000000E+00 -0.44415837750E+03  0.44416019317E+03  0.12700000000E+01 0.  1.
         25    2    1    2    0    0  0.00000000000E+00  0.00000000000E+00 -0.43541000091E+03  0.45300027196E+03  0.12500950967E+03 0.  0.
    9000005    1    3    3    0    0 -0.21018159249E+02  0.37487232315E+02 -0.38212752291E+03  0.38453803371E+03  0.10000000000E+01 0.  0.
    9000005    1    3    3    0    0  0.21018159249E+02 -0.37487232315E+02 -0.53282477998E+02  0.68462238252E+02  0.10000000000E+01 0.  0.
<mgrwt>
<rscale>  0 0.12500951E+03</rscale>
<asrwt>0</asrwt>
<pdfrwt beam="2">  1        4 0.11105121E+00 0.12500951E+03</pdfrwt>
<pdfrwt beam="1">  1       -4 0.21987854E-02 0.12500951E+03</pdfrwt>
<totfact> 0.95460202E+02</totfact>
</mgrwt>
</event>
<event>
 5    1  0.1466870E-002  0.1249992E+03  0.7818608E-02  0.1235071E+00
          4   -1    0    0  501    0  0.00000000000E+00  0.00000000000E+00  0.23513106357E+02  0.23547379272E+02  0.12700000000E+01 0.  1.
         -4   -1    0    0    0  501 -0.00000000000E+00 -0.00000000000E+00 -0.16597082007E+03  0.16597567898E+03  0.12700000000E+01 0.  1.
         25    2    1    2    0    0  0.00000000000E+00  0.00000000000E+00 -0.14245771371E+03  0.18952305826E+03  0.12499915766E+03 0.  0.
    9000005    1    3    3    0    0 -0.12160169997E+02 -0.43949531171E+02 -0.13601431975E+03  0.14345844765E+03  0.10000000000E+01 0.  0.
    9000005    1    3    3    0    0  0.12160169997E+02  0.43949531171E+02 -0.64433939590E+01  0.46064610606E+02  0.10000000000E+01 0.  0.
<mgrwt>
<rscale>  0 0.12499916E+03</rscale>
<asrwt>0</asrwt>
<pdfrwt beam="1">  1        4 0.58831686E-02 0.12499916E+03</pdfrwt>
<pdfrwt beam="2">  1       -4 0.41497593E-01 0.12499916E+03</pdfrwt>
<totfact> 0.16750660E+03</totfact>
</mgrwt>
</event>
<event>
 5    1  0.1466870E-002  0.1249992E+03  0.7818608E-02  0.1235071E+00
          4   -1    0    0  501    0  0.00000000000E+00  0.00000000000E+00  0.11288231338E+04  0.11288238482E+04  0.12700000000E+01 0. -1.
         -4   -1    0    0    0  501 -0.00000000000E+00 -0.00000000000E+00 -0.33431512506E+01  0.35762494718E+01  0.12700000000E+01 0. -1.
         25    2    1    2    0    0  0.00000000000E+00  0.00000000000E+00  0.11254799825E+04  0.11324000977E+04  0.12499916049E+03 0.  0.
    9000005    1    3    3    0    0  0.43771725258E+02 -0.23592393246E+02  0.21984573251E+03  0.22540122239E+03  0.10000000000E+01 0.  0.
    9000005    1    3    3    0    0 -0.43771725258E+02  0.23592393246E+02  0.90563425001E+03  0.90699887527E+03  0.10000000000E+01 0.  0.
<mgrwt>
<rscale>  0 0.12499916E+03</rscale>
<asrwt>0</asrwt>
<pdfrwt beam="1">  1        4 0.28223484E+00 0.12499916E+03</pdfrwt>
<pdfrwt beam="2">  1       -4 0.86501490E-03 0.12499916E+03</pdfrwt>
<totfact> 0.28897749E+02</totfact>
</mgrwt>
</event>
<event>
 5    1  0.1466870E-002  0.1250207E+03  0.7818608E-02  0.1235037E+00
         -4   -1    0    0    0  501 -0.00000000000E+00  0.00000000000E+00  0.17681104905E+03  0.17681561008E+03  0.12700000000E+01 0.  1.
          4   -1    0    0  501    0  0.00000000000E+00 -0.00000000000E+00 -0.22077026069E+02  0.22113524822E+02  0.12700000000E+01 0.  1.
         25    2    1    2    0    0  0.00000000000E+00  0.00000000000E+00  0.15473402298E+03  0.19892913490E+03  0.12502072965E+03 0.  0.
    9000005    1    3    3    0    0  0.29365273876E+02  0.55062297199E+02  0.82963275561E+02  0.10381753693E+03  0.10000000000E+01 0.  0.
    9000005    1    3    3    0    0 -0.29365273876E+02 -0.55062297199E+02  0.71770747421E+02  0.95111597968E+02  0.10000000000E+01 0.  0.
<mgrwt>
<rscale>  0 0.12502073E+03</rscale>
<asrwt>0</asrwt>
<pdfrwt beam="2">  1        4 0.55243890E-02 0.12502073E+03</pdfrwt>
<pdfrwt beam="1">  1       -4 0.44207895E-01 0.12502073E+03</pdfrwt>
<totfact> 0.16357167E+03</totfact>
</mgrwt>
</event>
<event>
 5    1  0.1466870E-002  0.1249979E+03  0.7818608E-02  0.1235073E+00
          4   -1    0    0  501    0  0.00000000000E+00  0.00000000000E+00  0.41205515473E+03  0.41205711187E+03  0.12700000000E+01 0. -1.
         -4   -1    0    0    0  501 -0.00000000000E+00 -0.00000000000E+00 -0.94350778071E+01  0.95201677100E+01  0.12700000000E+01 0. -1.
         25    2    1    2    0    0  0.00000000000E+00  0.00000000000E+00  0.40262007693E+03  0.42157727958E+03  0.12499790524E+03 0.  0.
    9000005    1    3    3    0    0  0.44549543142E+02 -0.37309816091E+02  0.12377996216E+03  0.13674488365E+03  0.10000000000E+01 0.  0.
    9000005    1    3    3    0    0 -0.44549543142E+02  0.37309816091E+02  0.27884011476E+03  0.28483239593E+03  0.10000000000E+01 0.  0.
<mgrwt>
<rscale>  0 0.12499791E+03</rscale>
<asrwt>0</asrwt>
<pdfrwt beam="1">  1        4 0.10302466E+00 0.12499791E+03</pdfrwt>
<pdfrwt beam="2">  1       -4 0.23696505E-02 0.12499791E+03</pdfrwt>
<totfact> 0.10135620E+03</totfact>
</mgrwt>
</event>
<event>
 5    1  0.1466870E-002  0.1250054E+03  0.7818608E-02  0.1235061E+00
          4   -1    0    0  501    0  0.00000000000E+00  0.00000000000E+00  0.14492611285E+03  0.14493167730E+03  0.12700000000E+01 0.  1.
         -4   -1    0    0    0  501 -0.00000000000E+00 -0.00000000000E+00 -0.26934655545E+02  0.26964579902E+02  0.12700000000E+01 0.  1.
         25    2    1    2    0    0  0.00000000000E+00  0.00000000000E+00  0.11799145731E+03  0.17189625721E+03  0.12500535686E+03 0.  0.
    9000005    1    3    3    0    0  0.61345454011E+02  0.67589239730E+01  0.45477817633E+02  0.76669287708E+02  0.10000000000E+01 0.  0.
    9000005    1    3    3    0    0 -0.61345454011E+02 -0.67589239730E+01  0.72513639673E+02  0.95226969497E+02  0.10000000000E+01 0.  0.
<mgrwt>
<rscale>  0 0.12500536E+03</rscale>
<asrwt>0</asrwt>
<pdfrwt beam="1">  1        4 0.36235963E-01 0.12500536E+03</pdfrwt>
<pdfrwt beam="2">  1       -4 0.67381002E-02 0.12500536E+03</pdfrwt>
<totfact> 0.17509679E+03</totfact>
</mgrwt>
</event>
<event>
 5    1  0.1466870E-002  0.1250244E+03  0.7818608E-02  0.1235031E+00
          4   -1    0    0  501    0  0.00000000000E+00  0.00000000000E+00  0.12321917605E+03  0.12322572072E+03  0.12700000000E+01 0. -1.
         -4   -1    0    0    0  501 -0.00000000000E+00 -0.00000000000E+00 -0.31693929811E+02  0.31719364541E+02  0.12700000000E+01 0. -1.
         25    2    1    2    0    0  0.00000000000E+00  0.00000000000E+00  0.91525246237E+02  0.15494508526E+03  0.12502443260E+03 0.  0.
    9000005    1    3    3    0    0  0.46173010295E+02  0.27312743189E+02  0.60107355894E+01  0.53991311917E+02  0.10000000000E+01 0.  0.
    9000005    1    3    3    0    0 -0.46173010295E+02 -0.27312743189E+02  0.85514510647E+02  0.10095377334E+03  0.10000000000E+01 0.  0.
<mgrwt>
<rscale>  0 0.12502443E+03</rscale>
<asrwt>0</asrwt>
<pdfrwt beam="1">  1        4 0.30808791E-01 0.12502443E+03</pdfrwt>
<pdfrwt beam="2">  1       -4 0.79274800E-02 0.12502443E+03</pdfrwt>
<totfact> 0.18287880E+03</totfact>
</mgrwt>
</event>
<event>
 5    1  0.1466870E-002  0.1250014E+03  0.7818608E-02  0.1235067E+00
          4   -1    0    0  501    0  0.00000000000E+00  0.00000000000E+00  0.46002632206E+02  0.46020159385E+02  0.12700000000E+01 0. -1.
         -4   -1    0    0    0  501 -0.00000000000E+00 -0.00000000000E+00 -0.84877117188E+02  0.84886618039E+02  0.12700000000E+01 0. -1.
         25    2    1    2    0    0  0.00000000000E+00  0.00000000000E+00 -0.38874484982E+02  0.13090677742E+03  0.12500143516E+03 0.  0.
    9000005    1    3    3    0    0 -0.42670560586E+02  0.33403711002E+02 -0.52032477907E+02  0.75132971501E+02  0.10000000000E+01 0.  0.
    9000005    1    3    3    0    0  0.42670560586E+02 -0.33403711002E+02  0.13157992925E+02  0.55773805924E+02  0.10000000000E+01 0.  0.
<mgrwt>
<rscale>  0 0.12500144E+03</rscale>
<asrwt>0</asrwt>
<pdfrwt beam="1">  1        4 0.11504037E-01 0.12500144E+03</pdfrwt>
<pdfrwt beam="2">  1       -4 0.21222658E-01 0.12500144E+03</pdfrwt>
<totfact> 0.19515105E+03</totfact>
</mgrwt>
</event>
<event>
 5    1  0.1466870E-002  0.1249696E+03  0.7818608E-02  0.1235117E+00
         -4   -1    0    0    0  501 -0.00000000000E+00  0.00000000000E+00  0.11724462117E+03  0.11725149932E+03  0.12700000000E+01 0. -1.
          4   -1    0    0  501    0  0.00000000000E+00 -0.00000000000E+00 -0.33280940495E+02  0.33305163267E+02  0.12700000000E+01 0. -1.
         25    2    1    2    0    0  0.00000000000E+00  0.00000000000E+00  0.83963680672E+02  0.15055666259E+03  0.12496963222E+03 0.  0.
    9000005    1    3    3    0    0 -0.32487311047E+02  0.37996225720E+02 -0.31634125108E+01  0.50101354540E+02  0.10000000000E+01 0.  0.
    9000005    1    3    3    0    0  0.32487311047E+02 -0.37996225720E+02  0.87127093183E+02  0.10045530805E+03  0.10000000000E+01 0.  0.
<mgrwt>
<rscale>  0 0.12496963E+03</rscale>
<asrwt>0</asrwt>
<pdfrwt beam="2">  1        4 0.83241228E-02 0.12496963E+03</pdfrwt>
<pdfrwt beam="1">  1       -4 0.29315043E-01 0.12496963E+03</pdfrwt>
<totfact> 0.18524531E+03</totfact>
</mgrwt>
</event>
<event>
 5    1  0.1466870E-002  0.1249799E+03  0.7818608E-02  0.1235101E+00
         -4   -1    0    0    0  501 -0.00000000000E+00  0.00000000000E+00  0.21294414387E+02  0.21332252204E+02  0.12700000000E+01 0.  1.
          4   -1    0    0  501    0  0.00000000000E+00 -0.00000000000E+00 -0.18317824605E+03  0.18318264854E+03  0.12700000000E+01 0.  1.
         25    2    1    2    0    0  0.00000000000E+00  0.00000000000E+00 -0.16188383166E+03  0.20451490074E+03  0.12497987707E+03 0.  0.
    9000005    1    3    3    0    0 -0.47048766935E+01 -0.28635344506E+01 -0.18278825626E+03  0.18287395200E+03  0.10000000000E+01 0.  0.
    9000005    1    3    3    0    0  0.47048766935E+01  0.28635344506E+01  0.20904424603E+02  0.21640948737E+02  0.10000000000E+01 0.  0.
<mgrwt>
<rscale>  0 0.12497988E+03</rscale>
<asrwt>0</asrwt>
<pdfrwt beam="2">  1        4 0.45799837E-01 0.12497988E+03</pdfrwt>
<pdfrwt beam="1">  1       -4 0.53288842E-02 0.12497988E+03</pdfrwt>
<totfact> 0.16150350E+03</totfact>
</mgrwt>
</event>
<event>
 5    1  0.1466870E-002  0.1249991E+03  0.7818608E-02  0.1235071E+00
         -4   -1    0    0    0  501 -0.00000000000E+00  0.00000000000E+00  0.54828229356E+01  0.56279878592E+01  0.12700000000E+01 0.  1.
          4   -1    0    0  501    0  0.00000000000E+00 -0.00000000000E+00 -0.70298786653E+03  0.70298901370E+03  0.12700000000E+01 0.  1.
         25    2    1    2    0    0  0.00000000000E+00  0.00000000000E+00 -0.69750504359E+03  0.70861700156E+03  0.12499907625E+03 0.  0.
    9000005    1    3    3    0    0  0.60577000073E+02  0.17236975716E+01 -0.26228468224E+03  0.26919657986E+03  0.10000000000E+01 0.  0.
    9000005    1    3    3    0    0 -0.60577000073E+02 -0.17236975716E+01 -0.43522036136E+03  0.43942042170E+03  0.10000000000E+01 0.  0.
<mgrwt>
<rscale>  0 0.12499908E+03</rscale>
<asrwt>0</asrwt>
<pdfrwt beam="2">  1        4 0.17576495E+00 0.12499908E+03</pdfrwt>
<pdfrwt beam="1">  1       -4 0.13889971E-02 0.12499908E+03</pdfrwt>
<totfact> 0.61173889E+02</totfact>
</mgrwt>
</event>
<event>
 5    1  0.1466870E-002  0.1249854E+03  0.7818608E-02  0.1235092E+00
          4   -1    0    0  501    0  0.00000000000E+00  0.00000000000E+00  0.32323283358E+03  0.32323532852E+03  0.12700000000E+01 0. -1.
         -4   -1    0    0    0  501 -0.00000000000E+00 -0.00000000000E+00 -0.12046192092E+02  0.12112953559E+02  0.12700000000E+01 0. -1.
         25    2    1    2    0    0  0.00000000000E+00  0.00000000000E+00  0.31118664149E+03  0.33534828208E+03  0.12498537696E+03 0.  0.
    9000005    1    3    3    0    0 -0.30905757134E+02 -0.23168003142E+02  0.28737735380E+03  0.28996321434E+03  0.10000000000E+01 0.  0.
    9000005    1    3    3    0    0  0.30905757134E+02  0.23168003142E+02  0.23809287688E+02  0.45385067741E+02  0.10000000000E+01 0.  0.
<mgrwt>
<rscale>  0 0.12498538E+03</rscale>
<asrwt>0</asrwt>
<pdfrwt beam="1">  1        4 0.80816865E-01 0.12498538E+03</pdfrwt>
<pdfrwt beam="2">  1       -4 0.30202051E-02 0.12498538E+03</pdfrwt>
<totfact> 0.12039179E+03</totfact>
</mgrwt>
</event>
<event>
 5    1  0.1466870E-002  0.1249970E+03  0.7818608E-02  0.1235074E+00
          4   -1    0    0  501    0  0.00000000000E+00  0.00000000000E+00  0.74293004380E+02  0.74303858579E+02  0.12700000000E+01 0.  1.
         -4   -1    0    0    0  501 -0.00000000000E+00 -0.00000000000E+00 -0.52554064816E+02  0.52569407726E+02  0.12700000000E+01 0.  1.
         25    2    1    2    0    0  0.00000000000E+00  0.00000000000E+00  0.21738939564E+02  0.12687326631E+03  0.12499697680E+03 0.  0.
    9000005    1    3    3    0    0  0.41672150627E+01 -0.53721169288E+02 -0.21255759980E+02  0.57932176236E+02  0.10000000000E+01 0.  0.
    9000005    1    3    3    0    0 -0.41672150627E+01  0.53721169288E+02  0.42994699544E+02  0.68941090069E+02  0.10000000000E+01 0.  0.
<mgrwt>
<rscale>  0 0.12499698E+03</rscale>
<asrwt>0</asrwt>
<pdfrwt beam="1">  1        4 0.18576526E-01 0.12499698E+03</pdfrwt>
<pdfrwt beam="2">  1       -4 0.13141791E-01 0.12499698E+03</pdfrwt>
<totfact> 0.19735199E+03</totfact>
</mgrwt>
</event>
<event>
 5    1  0.1466870E-002  0.1250032E+03  0.7818608E-02  0.1235064E+00
          4   -1    0    0  501    0  0.00000000000E+00  0.00000000000E+00  0.49261051466E+03  0.49261215176E+03  0.12700000000E+01 0.  1.
         -4   -1    0    0    0  501 -0.00000000000E+00 -0.00000000000E+00 -0.78775852928E+01  0.79793013507E+01  0.12700000000E+01 0.  1.
         25    2    1    2    0    0  0.00000000000E+00  0.00000000000E+00  0.48473292937E+03  0.50059145311E+03  0.12500316039E+03 0.  0.
    9000005    1    3    3    0    0  0.84397654075E+01 -0.38976257397E+02  0.49683007464E+02  0.63716399078E+02  0.10000000000E+01 0.  0.
    9000005    1    3    3    0    0 -0.84397654075E+01  0.38976257397E+02  0.43504992191E+03  0.43687505403E+03  0.10000000000E+01 0.  0.
<mgrwt>
<rscale>  0 0.12500316E+03</rscale>
<asrwt>0</asrwt>
<pdfrwt beam="1">  1        4 0.12316555E+00 0.12500316E+03</pdfrwt>
<pdfrwt beam="2">  1       -4 0.19823155E-02 0.12500316E+03</pdfrwt>
<totfact> 0.87506703E+02</totfact>
</mgrwt>
</event>
<event>
 5    1  0.1466870E-002  0.1250144E+03  0.7818608E-02  0.1235047E+00
         -4   -1    0    0    0  501 -0.00000000000E+00  0.00000000000E+00  0.30146998569E+03  0.30147266074E+03  0.12700000000E+01 0. -1.
          4   -1    0    0  501    0  0.00000000000E+00 -0.00000000000E+00 -0.12926486349E+02  0.12988723930E+02  0.12700000000E+01 0. -1.
         25    2    1    2    0    0  0.00000000000E+00  0.00000000000E+00  0.28854349934E+03  0.31446138467E+03  0.12501444491E+03 0.  0.
    9000005    1    3    3    0    0 -0.41564833687E+01  0.50540436711E+02  0.52380734971E+02  0.72913328638E+02  0.10000000000E+01 0.  0.
    9000005    1    3    3    0    0  0.41564833687E+01 -0.50540436711E+02  0.23616276437E+03  0.24154805603E+03  0.10000000000E+01 0.  0.
<mgrwt>
<rscale>  0 0.12501444E+03</rscale>
<asrwt>0</asrwt>
<pdfrwt beam="2">  1        4 0.32397356E-02 0.12501444E+03</pdfrwt>
<pdfrwt beam="1">  1       -4 0.75375613E-01 0.12501444E+03</pdfrwt>
<totfact> 0.12571057E+03</totfact>
</mgrwt>
</event>
<event>
 5    1  0.1466870E-002  0.1249970E+03  0.7818608E-02  0.1235074E+00
         -4   -1    0    0    0  501 -0.00000000000E+00  0.00000000000E+00  0.98882178566E+02  0.98890333895E+02  0.12700000000E+01 0. -1.
          4   -1    0    0  501    0  0.00000000000E+00 -0.00000000000E+00 -0.39482221928E+02  0.39502642296E+02  0.12700000000E+01 0. -1.
         25    2    1    2    0    0  0.00000000000E+00  0.00000000000E+00  0.59399956638E+02  0.13839297619E+03  0.12499704401E+03 0.  0.
    9000005    1    3    3    0    0 -0.54813224410E+02  0.14577996146E+02  0.58741992921E+02  0.81661675676E+02  0.10000000000E+01 0.  0.
    9000005    1    3    3    0    0  0.54813224410E+02 -0.14577996146E+02  0.65796371664E+00  0.56731300515E+02  0.10000000000E+01 0.  0.
<mgrwt>
<rscale>  0 0.12499704E+03</rscale>
<asrwt>0</asrwt>
<pdfrwt beam="2">  1        4 0.98741275E-02 0.12499704E+03</pdfrwt>
<pdfrwt beam="1">  1       -4 0.24724116E-01 0.12499704E+03</pdfrwt>
<totfact> 0.19124177E+03</totfact>
</mgrwt>
</event>
<event>
 5    1  0.1466870E-002  0.1250041E+03  0.7818608E-02  0.1235063E+00
         -4   -1    0    0    0  501 -0.00000000000E+00  0.00000000000E+00  0.11038397833E+02  0.11111216257E+02  0.12700000000E+01 0.  1.
          4   -1    0    0  501    0  0.00000000000E+00 -0.00000000000E+00 -0.35266392591E+03  0.35266621264E+03  0.12700000000E+01 0.  1.
         25    2    1    2    0    0  0.00000000000E+00  0.00000000000E+00 -0.34162552807E+03  0.36377742890E+03  0.12500406530E+03 0.  0.
    9000005    1    3    3    0    0 -0.24474162249E+02  0.29793137055E+02 -0.27686434945E+02  0.47477935016E+02  0.10000000000E+01 0.  0.
    9000005    1    3    3    0    0  0.24474162249E+02 -0.29793137055E+02 -0.31393909313E+03  0.31629949388E+03  0.10000000000E+01 0.  0.
<mgrwt>
<rscale>  0 0.12500407E+03</rscale>
<asrwt>0</asrwt>
<pdfrwt beam="2">  1        4 0.88175332E-01 0.12500407E+03</pdfrwt>
<pdfrwt beam="1">  1       -4 0.27689888E-02 0.12500407E+03</pdfrwt>
<totfact> 0.11354434E+03</totfact>
</mgrwt>
</event>
<event>
 5    1  0.1466870E-002  0.1250001E+03  0.7818608E-02  0.1235069E+00
          4   -1    0    0  501    0  0.00000000000E+00  0.00000000000E+00  0.21689004066E+03  0.21689375887E+03  0.12700000000E+01 0. -1.
         -4   -1    0    0    0  501 -0.00000000000E+00 -0.00000000000E+00 -0.17984050953E+02  0.18028837696E+02  0.12700000000E+01 0. -1.
         25    2    1    2    0    0  0.00000000000E+00  0.00000000000E+00  0.19890598971E+03  0.23492259657E+03  0.12500013455E+03 0.  0.
    9000005    1    3    3    0    0  0.11413780530E+02  0.19620802445E+02 -0.99715331765E+01  0.24812935104E+02  0.10000000000E+01 0.  0.
    9000005    1    3    3    0    0 -0.11413780530E+02 -0.19620802445E+02  0.20887752288E+03  0.21010966146E+03  0.10000000000E+01 0.  0.
<mgrwt>
<rscale>  0 0.12500013E+03</rscale>
<asrwt>0</asrwt>
<pdfrwt beam="1">  1        4 0.54228572E-01 0.12500013E+03</pdfrwt>
<pdfrwt beam="2">  1       -4 0.45020759E-02 0.12500013E+03</pdfrwt>
<totfact> 0.15012951E+03</totfact>
</mgrwt>
</event>
<event>
 5    1  0.1466870E-002  0.1249999E+03  0.7818608E-02  0.1235069E+00
          4   -1    0    0  501    0  0.00000000000E+00  0.00000000000E+00  0.29209515371E+02  0.29237111489E+02  0.12700000000E+01 0. -1.
         -4   -1    0    0    0  501 -0.00000000000E+00 -0.00000000000E+00 -0.13363806626E+03  0.13364410070E+03  0.12700000000E+01 0. -1.
         25    2    1    2    0    0  0.00000000000E+00  0.00000000000E+00 -0.10442855089E+03  0.16288121219E+03  0.12499986818E+03 0.  0.
    9000005    1    3    3    0    0  0.34459811843E+02 -0.14871164117E+02  0.12894110676E+02  0.39697458919E+02  0.10000000000E+01 0.  0.
    9000005    1    3    3    0    0 -0.34459811843E+02  0.14871164117E+02 -0.11732266156E+03  0.12318375327E+03  0.10000000000E+01 0.  0.
<mgrwt>
<rscale>  0 0.12499987E+03</rscale>
<asrwt>0</asrwt>
<pdfrwt beam="1">  1        4 0.73065830E-02 0.12499987E+03</pdfrwt>
<pdfrwt beam="2">  1       -4 0.33413719E-01 0.12499987E+03</pdfrwt>
<totfact> 0.17923052E+03</totfact>
</mgrwt>
</event>
<event>
 5    1  0.1466870E-002  0.1249993E+03  0.7818608E-02  0.1235070E+00
          4   -1    0    0  501    0  0.00000000000E+00  0.00000000000E+00  0.37480118284E+03  0.37480333450E+03  0.12700000000E+01 0. -1.
         -4   -1    0    0    0  501 -0.00000000000E+00 -0.00000000000E+00 -0.10381199653E+02  0.10458594849E+02  0.12700000000E+01 0. -1.
         25    2    1    2    0    0  0.00000000000E+00  0.00000000000E+00  0.36441998318E+03  0.38526192935E+03  0.12499932026E+03 0.  0.
    9000005    1    3    3    0    0  0.12867125624E+02 -0.24565271414E+02  0.96064241653E+01  0.29364925791E+02  0.10000000000E+01 0.  0.
    9000005    1    3    3    0    0 -0.12867125624E+02  0.24565271414E+02  0.35481355902E+03  0.35589700356E+03  0.10000000000E+01 0.  0.
<mgrwt>
<rscale>  0 0.12499932E+03</rscale>
<asrwt>0</asrwt>
<pdfrwt beam="1">  1        4 0.93710233E-01 0.12499932E+03</pdfrwt>
<pdfrwt beam="2">  1       -4 0.26052434E-02 0.12499932E+03</pdfrwt>
<totfact> 0.10879381E+03</totfact>
</mgrwt>
</event>
<event>
 5    1  0.1466870E-002  0.1250006E+03  0.7818608E-02  0.1235068E+00
         -4   -1    0    0    0  501 -0.00000000000E+00  0.00000000000E+00  0.20592402790E+03  0.20592794411E+03  0.12700000000E+01 0. -1.
          4   -1    0    0  501    0  0.00000000000E+00 -0.00000000000E+00 -0.18944183817E+02  0.18986705889E+02  0.12700000000E+01 0. -1.
         25    2    1    2    0    0  0.00000000000E+00  0.00000000000E+00  0.18697984408E+03  0.22491465000E+03  0.12500055077E+03 0.  0.
    9000005    1    3    3    0    0  0.17531606738E+02  0.51970760018E+01 -0.14031681253E+02  0.23070650458E+02  0.10000000000E+01 0.  0.
    9000005    1    3    3    0    0 -0.17531606738E+02 -0.51970760018E+01  0.20101152534E+03  0.20184399954E+03  0.10000000000E+01 0.  0.
<mgrwt>
<rscale>  0 0.12500055E+03</rscale>
<asrwt>0</asrwt>
<pdfrwt beam="2">  1        4 0.47418508E-02 0.12500055E+03</pdfrwt>
<pdfrwt beam="1">  1       -4 0.51486811E-01 0.12500055E+03</pdfrwt>
<totfact> 0.15370545E+03</totfact>
</mgrwt>
</event>
<event>
 5    1  0.1466870E-002  0.1250037E+03  0.7818608E-02  0.1235064E+00
         -4   -1    0    0    0  501 -0.00000000000E+00  0.00000000000E+00  0.11337487366E+03  0.11338198656E+03  0.12700000000E+01 0.  1.
          4   -1    0    0  501    0  0.00000000000E+00 -0.00000000000E+00 -0.34436419813E+02  0.34459830376E+02  0.12700000000E+01 0.  1.
         25    2    1    2    0    0  0.00000000000E+00  0.00000000000E+00  0.78938453845E+02  0.14784181694E+03  0.12500369331E+03 0.  0.
    9000005    1    3    3    0    0 -0.33643417182E+02 -0.77839288898E+01 -0.22133549373E+02  0.41028807886E+02  0.10000000000E+01 0.  0.
    9000005    1    3    3    0    0  0.33643417182E+02  0.77839288898E+01  0.10107200322E+03  0.10681300905E+03  0.10000000000E+01 0.  0.
<mgrwt>
<rscale>  0 0.12500369E+03</rscale>
<asrwt>0</asrwt>
<pdfrwt beam="2">  1        4 0.86129205E-02 0.12500369E+03</pdfrwt>
<pdfrwt beam="1">  1       -4 0.28347534E-01 0.12500369E+03</pdfrwt>
<totfact> 0.18643807E+03</totfact>
</mgrwt>
</event>
<event>
 5    1  0.1466870E-002  0.1250264E+03  0.7818608E-02  0.1235028E+00
         -4   -1    0    0    0  501 -0.00000000000E+00  0.00000000000E+00  0.16114909072E+03  0.16115409501E+03  0.12700000000E+01 0. -1.
          4   -1    0    0  501    0  0.00000000000E+00 -0.00000000000E+00 -0.24228216246E+02  0.24261478984E+02  0.12700000000E+01 0. -1.
         25    2    1    2    0    0  0.00000000000E+00  0.00000000000E+00  0.13692087447E+03  0.18541557399E+03  0.12502643406E+03 0.  0.
    9000005    1    3    3    0    0  0.39071445028E+02 -0.33573521601E+02  0.12095867250E+03  0.13147531944E+03  0.10000000000E+01 0.  0.
    9000005    1    3    3    0    0 -0.39071445028E+02  0.33573521601E+02  0.15962201968E+02  0.53940254550E+02  0.10000000000E+01 0.  0.
<mgrwt>
<rscale>  0 0.12502643E+03</rscale>
<asrwt>0</asrwt>
<pdfrwt beam="2">  1        4 0.60618376E-02 0.12502643E+03</pdfrwt>
<pdfrwt beam="1">  1       -4 0.40292055E-01 0.12502643E+03</pdfrwt>
<totfact> 0.16912821E+03</totfact>
</mgrwt>
</event>
<event>
 5    1  0.1466870E-002  0.1249983E+03  0.7818608E-02  0.1235072E+00
         -4   -1    0    0    0  501 -0.00000000000E+00  0.00000000000E+00  0.12368666054E+03  0.12369318047E+03  0.12700000000E+01 0. -1.
          4   -1    0    0  501    0  0.00000000000E+00 -0.00000000000E+00 -0.31560816122E+02  0.31586358041E+02  0.12700000000E+01 0. -1.
         25    2    1    2    0    0  0.00000000000E+00  0.00000000000E+00  0.92125844415E+02  0.15527953851E+03  0.12499825547E+03 0.  0.
    9000005    1    3    3    0    0 -0.11853855006E+02  0.22067754499E+02  0.11718279833E+03  0.11983450209E+03  0.10000000000E+01 0.  0.
    9000005    1    3    3    0    0  0.11853855006E+02 -0.22067754499E+02 -0.25056953916E+02  0.35445036418E+02  0.10000000000E+01 0.  0.
<mgrwt>
<rscale>  0 0.12499826E+03</rscale>
<asrwt>0</asrwt>
<pdfrwt beam="2">  1        4 0.78942118E-02 0.12499826E+03</pdfrwt>
<pdfrwt beam="1">  1       -4 0.30925673E-01 0.12499826E+03</pdfrwt>
<totfact> 0.18282937E+03</totfact>
</mgrwt>
</event>
<event>
 5    1  0.1466870E-002  0.1250007E+03  0.7818608E-02  0.1235068E+00
          4   -1    0    0  501    0  0.00000000000E+00  0.00000000000E+00  0.54075203456E+03  0.54075352590E+03  0.12700000000E+01 0. -1.
         -4   -1    0    0    0  501 -0.00000000000E+00 -0.00000000000E+00 -0.71664799187E+01  0.72781408632E+01  0.12700000000E+01 0. -1.
         25    2    1    2    0    0  0.00000000000E+00  0.00000000000E+00  0.53358555464E+03  0.54803166677E+03  0.12500065464E+03 0.  0.
    9000005    1    3    3    0    0 -0.30780644295E+02  0.16030673770E+02  0.38945191605E+02  0.52174308944E+02  0.10000000000E+01 0.  0.
    9000005    1    3    3    0    0  0.30780644295E+02 -0.16030673770E+02  0.49464036303E+03  0.49585735782E+03  0.10000000000E+01 0.  0.
<mgrwt>
<rscale>  0 0.12500065E+03</rscale>
<asrwt>0</asrwt>
<pdfrwt beam="1">  1        4 0.13520215E+00 0.12500065E+03</pdfrwt>
<pdfrwt beam="2">  1       -4 0.18057641E-02 0.12500065E+03</pdfrwt>
<totfact> 0.80440458E+02</totfact>
</mgrwt>
</event>
<event>
 5    1  0.1466870E-002  0.1250018E+03  0.7818608E-02  0.1235066E+00
         -4   -1    0    0    0  501 -0.00000000000E+00  0.00000000000E+00  0.24484541713E+03  0.24484871082E+03  0.12700000000E+01 0.  1.
          4   -1    0    0  501    0  0.00000000000E+00 -0.00000000000E+00 -0.15925728419E+02  0.15976286355E+02  0.12700000000E+01 0.  1.
         25    2    1    2    0    0  0.00000000000E+00  0.00000000000E+00  0.22891968871E+03  0.26082499717E+03  0.12500182107E+03 0.  0.
    9000005    1    3    3    0    0 -0.60306358041E+02 -0.10626167593E+02  0.14048695082E+03  0.15325585016E+03  0.10000000000E+01 0.  0.
    9000005    1    3    3    0    0  0.60306358041E+02  0.10626167593E+02  0.88432737886E+02  0.10756914701E+03  0.10000000000E+01 0.  0.
<mgrwt>
<rscale>  0 0.12500182E+03</rscale>
<asrwt>0</asrwt>
<pdfrwt beam="2">  1        4 0.39881636E-02 0.12500182E+03</pdfrwt>
<pdfrwt beam="1">  1       -4 0.61218085E-01 0.12500182E+03</pdfrwt>
<totfact> 0.14144106E+03</totfact>
</mgrwt>
</event>
<event>
 5    1  0.1466870E-002  0.1249987E+03  0.7818608E-02  0.1235071E+00
          4   -1    0    0  501    0  0.00000000000E+00  0.00000000000E+00  0.85821421097E+02  0.85830817421E+02  0.12700000000E+01 0.  1.
         -4   -1    0    0    0  501 -0.00000000000E+00 -0.00000000000E+00 -0.45494335276E+02  0.45512058207E+02  0.12700000000E+01 0.  1.
         25    2    1    2    0    0  0.00000000000E+00  0.00000000000E+00  0.40327085821E+02  0.13134287563E+03  0.12499870850E+03 0.  0.
    9000005    1    3    3    0    0 -0.28200396881E+02 -0.25452175410E+02 -0.31974326501E+02  0.49663197365E+02  0.10000000000E+01 0.  0.
    9000005    1    3    3    0    0  0.28200396881E+02  0.25452175410E+02  0.72301412322E+02  0.81679678263E+02  0.10000000000E+01 0.  0.
<mgrwt>
<rscale>  0 0.12499871E+03</rscale>
<asrwt>0</asrwt>
<pdfrwt beam="1">  1        4 0.21458745E-01 0.12499871E+03</pdfrwt>
<pdfrwt beam="2">  1       -4 0.11376974E-01 0.12499871E+03</pdfrwt>
<totfact> 0.19493047E+03</totfact>
</mgrwt>
</event>
<event>
 5    1  0.1466870E-002  0.1249981E+03  0.7818608E-02  0.1235072E+00
          4   -1    0    0  501    0  0.00000000000E+00  0.00000000000E+00  0.30638509948E+03  0.30638773161E+03  0.12700000000E+01 0.  1.
         -4   -1    0    0    0  501 -0.00000000000E+00 -0.00000000000E+00 -0.12714766760E+02  0.12778035599E+02  0.12700000000E+01 0.  1.
         25    2    1    2    0    0  0.00000000000E+00  0.00000000000E+00  0.29367033272E+03  0.31916576721E+03  0.12499809055E+03 0.  0.
    9000005    1    3    3    0    0 -0.41669336479E+02 -0.36960507846E+01  0.28299159566E+02  0.50515708707E+02  0.10000000000E+01 0.  0.
    9000005    1    3    3    0    0  0.41669336479E+02  0.36960507846E+01  0.26537117315E+03  0.26865005850E+03  0.10000000000E+01 0.  0.
<mgrwt>
<rscale>  0 0.12499809E+03</rscale>
<asrwt>0</asrwt>
<pdfrwt beam="1">  1        4 0.76604511E-01 0.12499809E+03</pdfrwt>
<pdfrwt beam="2">  1       -4 0.31869294E-02 0.12499809E+03</pdfrwt>
<totfact> 0.12450949E+03</totfact>
</mgrwt>
</event>
<event>
 5    1  0.1466870E-002  0.1249980E+03  0.7818608E-02  0.1235072E+00
          4   -1    0    0  501    0  0.00000000000E+00  0.00000000000E+00  0.25826068050E+02  0.25857275396E+02  0.12700000000E+01 0. -1.
         -4   -1    0    0    0  501 -0.00000000000E+00 -0.00000000000E+00 -0.15112217952E+03  0.15112751583E+03  0.12700000000E+01 0. -1.
         25    2    1    2    0    0  0.00000000000E+00  0.00000000000E+00 -0.12529611147E+03  0.17698479123E+03  0.12499800309E+03 0.  0.
    9000005    1    3    3    0    0 -0.19416016284E+02  0.58653318897E+02 -0.75925227664E+02  0.97891949117E+02  0.10000000000E+01 0.  0.
    9000005    1    3    3    0    0  0.19416016284E+02 -0.58653318897E+02 -0.49370883803E+02  0.79092842112E+02  0.10000000000E+01 0.  0.
<mgrwt>
<rscale>  0 0.12499800E+03</rscale>
<asrwt>0</asrwt>
<pdfrwt beam="1">  1        4 0.64610854E-02 0.12499800E+03</pdfrwt>
<pdfrwt beam="2">  1       -4 0.37785110E-01 0.12499800E+03</pdfrwt>
<totfact> 0.17287329E+03</totfact>
</mgrwt>
</event>
<event>
 5    1  0.1466870E-002  0.1249991E+03  0.7818608E-02  0.1235071E+00
          4   -1    0    0  501    0  0.00000000000E+00  0.00000000000E+00  0.69602427083E+01  0.70751592603E+01  0.12700000000E+01 0. -1.
         -4   -1    0    0    0  501 -0.00000000000E+00 -0.00000000000E+00 -0.55650420715E+03  0.55650565628E+03  0.12700000000E+01 0. -1.
         25    2    1    2    0    0  0.00000000000E+00  0.00000000000E+00 -0.54954396444E+03  0.56358081554E+03  0.12499906718E+03 0.  0.
    9000005    1    3    3    0    0 -0.24293821199E+02 -0.41303625616E+02 -0.45562640461E+03  0.45814037130E+03  0.10000000000E+01 0.  0.
    9000005    1    3    3    0    0  0.24293821199E+02  0.41303625616E+02 -0.93917559831E+02  0.10544044424E+03  0.10000000000E+01 0.  0.
<mgrwt>
<rscale>  0 0.12499907E+03</rscale>
<asrwt>0</asrwt>
<pdfrwt beam="1">  1        4 0.17546083E-02 0.12499907E+03</pdfrwt>
<pdfrwt beam="2">  1       -4 0.13914045E+00 0.12499907E+03</pdfrwt>
<totfact> 0.78286642E+02</totfact>
</mgrwt>
</event>
<event>
 5    1  0.1466870E-002  0.1250001E+03  0.7818608E-02  0.1235069E+00
         -4   -1    0    0    0  501 -0.00000000000E+00  0.00000000000E+00  0.83387336821E+02  0.83397007393E+02  0.12700000000E+01 0.  1.
          4   -1    0    0  501    0  0.00000000000E+00 -0.00000000000E+00 -0.46823709088E+02  0.46840929034E+02  0.12700000000E+01 0.  1.
         25    2    1    2    0    0  0.00000000000E+00  0.00000000000E+00  0.36563627733E+02  0.13023793643E+03  0.12500008485E+03 0.  0.
    9000005    1    3    3    0    0 -0.25057163101E+01 -0.58628987311E+02 -0.41037901959E+01  0.58834325536E+02  0.10000000000E+01 0.  0.
    9000005    1    3    3    0    0  0.25057163101E+01  0.58628987311E+02  0.40667417929E+02  0.71403610891E+02  0.10000000000E+01 0.  0.
<mgrwt>
<rscale>  0 0.12500008E+03</rscale>
<asrwt>0</asrwt>
<pdfrwt beam="2">  1        4 0.11709289E-01 0.12500008E+03</pdfrwt>
<pdfrwt beam="1">  1       -4 0.20850195E-01 0.12500008E+03</pdfrwt>
<totfact> 0.19551561E+03</totfact>
</mgrwt>
</event>
<event>
 5    1  0.1466870E-002  0.1250364E+03  0.7818608E-02  0.1235012E+00
         -4   -1    0    0    0  501 -0.00000000000E+00  0.00000000000E+00  0.10634511140E+03  0.10635269446E+03  0.12700000000E+01 0.  1.
          4   -1    0    0  501    0  0.00000000000E+00 -0.00000000000E+00 -0.36733325832E+02  0.36755273454E+02  0.12700000000E+01 0.  1.
         25    2    1    2    0    0  0.00000000000E+00  0.00000000000E+00  0.69611785566E+02  0.14310796791E+03  0.12503635387E+03 0.  0.
    9000005    1    3    3    0    0 -0.47592993979E+02  0.64806576061E+01  0.80593285770E+02  0.93826274093E+02  0.10000000000E+01 0.  0.
    9000005    1    3    3    0    0  0.47592993979E+02 -0.64806576061E+01 -0.10981500204E+02  0.49281693819E+02  0.10000000000E+01 0.  0.
<mgrwt>
<rscale>  0 0.12503635E+03</rscale>
<asrwt>0</asrwt>
<pdfrwt beam="2">  1        4 0.91870228E-02 0.12503635E+03</pdfrwt>
<pdfrwt beam="1">  1       -4 0.26589969E-01 0.12503635E+03</pdfrwt>
<totfact> 0.18866465E+03</totfact>
</mgrwt>
</event>
<event>
 5    1  0.1466870E-002  0.1250019E+03  0.7818608E-02  0.1235066E+00
          4   -1    0    0  501    0  0.00000000000E+00  0.00000000000E+00  0.31201324273E+01  0.33686980221E+01  0.12700000000E+01 0.  1.
         -4   -1    0    0    0  501 -0.00000000000E+00 -0.00000000000E+00 -0.12037790995E+04  0.12037797694E+04  0.12700000000E+01 0.  1.
         25    2    1    2    0    0  0.00000000000E+00  0.00000000000E+00 -0.12006589671E+04  0.12071484675E+04  0.12500186904E+03 0.  0.
    9000005    1    3    3    0    0  0.41122473030E+02 -0.44727885390E+02 -0.45914981928E+03  0.46315353617E+03  0.10000000000E+01 0.  0.
    9000005    1    3    3    0    0 -0.41122473030E+02  0.44727885390E+02 -0.74150914780E+03  0.74399493130E+03  0.10000000000E+01 0.  0.
<mgrwt>
<rscale>  0 0.12500187E+03</rscale>
<asrwt>0</asrwt>
<pdfrwt beam="1">  1        4 0.81119167E-03 0.12500187E+03</pdfrwt>
<pdfrwt beam="2">  1       -4 0.30097440E+00 0.12500187E+03</pdfrwt>
<totfact> 0.24830737E+02</totfact>
</mgrwt>
</event>
<event>
 5    1  0.1466870E-002  0.1250280E+03  0.7818608E-02  0.1235025E+00
          4   -1    0    0  501    0  0.00000000000E+00  0.00000000000E+00  0.12417954241E+03  0.12418603647E+03  0.12700000000E+01 0. -1.
         -4   -1    0    0    0  501 -0.00000000000E+00 -0.00000000000E+00 -0.31450449576E+02  0.31476081054E+02  0.12700000000E+01 0. -1.
         25    2    1    2    0    0  0.00000000000E+00  0.00000000000E+00  0.92729092837E+02  0.15566211752E+03  0.12502803755E+03 0.  0.
    9000005    1    3    3    0    0 -0.47037365889E+01  0.37241362807E+02  0.10859000583E+03  0.11489923241E+03  0.10000000000E+01 0.  0.
    9000005    1    3    3    0    0  0.47037365889E+01 -0.37241362807E+02 -0.15860912997E+02  0.40762885113E+02  0.10000000000E+01 0.  0.
<mgrwt>
<rscale>  0 0.12502804E+03</rscale>
<asrwt>0</asrwt>
<pdfrwt beam="1">  1        4 0.31048901E-01 0.12502804E+03</pdfrwt>
<pdfrwt beam="2">  1       -4 0.78666282E-02 0.12502804E+03</pdfrwt>
<totfact> 0.18251930E+03</totfact>
</mgrwt>
</event>
<event>
 5    1  0.1466870E-002  0.1249952E+03  0.7818608E-02  0.1235077E+00
         -4   -1    0    0    0  501 -0.00000000000E+00  0.00000000000E+00  0.47327170685E+02  0.47344207513E+02  0.12700000000E+01 0. -1.
          4   -1    0    0  501    0  0.00000000000E+00 -0.00000000000E+00 -0.82494003103E+02  0.82503778386E+02  0.12700000000E+01 0. -1.
         25    2    1    2    0    0  0.00000000000E+00  0.00000000000E+00 -0.35166832418E+02  0.12984798590E+03  0.12499517327E+03 0.  0.
    9000005    1    3    3    0    0 -0.83573551431E+01 -0.55564923140E+02 -0.45988030567E+02  0.72616837056E+02  0.10000000000E+01 0.  0.
    9000005    1    3    3    0    0  0.83573551431E+01  0.55564923140E+02  0.10821198148E+02  0.57231148843E+02  0.10000000000E+01 0.  0.
<mgrwt>
<rscale>  0 0.12499517E+03</rscale>
<asrwt>0</asrwt>
<pdfrwt beam="2">  1        4 0.20626852E-01 0.12499517E+03</pdfrwt>
<pdfrwt beam="1">  1       -4 0.11835144E-01 0.12499517E+03</pdfrwt>
<totfact> 0.19574763E+03</totfact>
</mgrwt>
</event>
<event>
 5    1  0.1466870E-002  0.1250021E+03  0.7818608E-02  0.1235066E+00
         -4   -1    0    0    0  501 -0.00000000000E+00  0.00000000000E+00  0.16971955255E+02  0.17019405547E+02  0.12700000000E+01 0.  1.
          4   -1    0    0  501    0  0.00000000000E+00 -0.00000000000E+00 -0.22979650081E+03  0.22980001019E+03  0.12700000000E+01 0.  1.
         25    2    1    2    0    0  0.00000000000E+00  0.00000000000E+00 -0.21282454556E+03  0.24681941574E+03  0.12500214716E+03 0.  0.
    9000005    1    3    3    0    0 -0.50235093498E+02  0.36902266706E+02 -0.11525193233E+03  0.13103186564E+03  0.10000000000E+01 0.  0.
    9000005    1    3    3    0    0  0.50235093498E+02 -0.36902266706E+02 -0.97572613223E+02  0.11578755010E+03  0.10000000000E+01 0.  0.
<mgrwt>
<rscale>  0 0.12500215E+03</rscale>
<asrwt>0</asrwt>
<pdfrwt beam="2">  1        4 0.57455485E-01 0.12500215E+03</pdfrwt>
<pdfrwt beam="1">  1       -4 0.42493595E-02 0.12500215E+03</pdfrwt>
<totfact> 0.14603649E+03</totfact>
</mgrwt>
</event>
<event>
 5    1  0.1466870E-002  0.1250081E+03  0.7818608E-02  0.1235057E+00
          4   -1    0    0  501    0  0.00000000000E+00  0.00000000000E+00  0.98071071680E+02  0.98079294453E+02  0.12700000000E+01 0. -1.
         -4   -1    0    0    0  501 -0.00000000000E+00 -0.00000000000E+00 -0.39815924850E+02  0.39836174159E+02  0.12700000000E+01 0. -1.
         25    2    1    2    0    0  0.00000000000E+00  0.00000000000E+00  0.58255146830E+02  0.13791546861E+03  0.12500805714E+03 0.  0.
    9000005    1    3    3    0    0  0.46208457595E+02 -0.14128862803E+02 -0.14599483596E+02  0.50487535479E+02  0.10000000000E+01 0.  0.
    9000005    1    3    3    0    0 -0.46208457595E+02  0.14128862803E+02  0.72854630426E+02  0.87427933134E+02  0.10000000000E+01 0.  0.
<mgrwt>
<rscale>  0 0.12500806E+03</rscale>
<asrwt>0</asrwt>
<pdfrwt beam="1">  1        4 0.24521327E-01 0.12500806E+03</pdfrwt>
<pdfrwt beam="2">  1       -4 0.99575403E-02 0.12500806E+03</pdfrwt>
<totfact> 0.19143898E+03</totfact>
</mgrwt>
</event>
<event>
 5    1  0.1466870E-002  0.1250050E+03  0.7818608E-02  0.1235062E+00
          4   -1    0    0  501    0  0.00000000000E+00  0.00000000000E+00  0.25040759202E+03  0.25041081255E+03  0.12700000000E+01 0. -1.
         -4   -1    0    0    0  501 -0.00000000000E+00 -0.00000000000E+00 -0.15571633745E+02  0.15623337591E+02  0.12700000000E+01 0. -1.
         25    2    1    2    0    0  0.00000000000E+00  0.00000000000E+00  0.23483595827E+03  0.26603415014E+03  0.12500496687E+03 0.  0.
    9000005    1    3    3    0    0  0.61861399049E+02 -0.56823606490E+01  0.13192069397E+03  0.14581903652E+03  0.10000000000E+01 0.  0.
    9000005    1    3    3    0    0 -0.61861399049E+02  0.56823606490E+01  0.10291526430E+03  0.12021511361E+03  0.10000000000E+01 0.  0.
<mgrwt>
<rscale>  0 0.12500497E+03</rscale>
<asrwt>0</asrwt>
<pdfrwt beam="1">  1        4 0.62608764E-01 0.12500497E+03</pdfrwt>
<pdfrwt beam="2">  1       -4 0.38997739E-02 0.12500497E+03</pdfrwt>
<totfact> 0.13977821E+03</totfact>
</mgrwt>
</event>
<event>
 5    1  0.1466870E-002  0.1250008E+03  0.7818608E-02  0.1235068E+00
          4   -1    0    0  501    0  0.00000000000E+00  0.00000000000E+00  0.60668507960E+01  0.61983528926E+01  0.12700000000E+01 0.  1.
         -4   -1    0    0    0  501 -0.00000000000E+00 -0.00000000000E+00 -0.63684051190E+03  0.63684177823E+03  0.12700000000E+01 0.  1.
         25    2    1    2    0    0  0.00000000000E+00  0.00000000000E+00 -0.63077366110E+03  0.64304013112E+03  0.12500079476E+03 0.  0.
    9000005    1    3    3    0    0 -0.16402094937E+02 -0.20769520324E+02 -0.60661434779E+03  0.60719220074E+03  0.10000000000E+01 0.  0.
    9000005    1    3    3    0    0  0.16402094937E+02  0.20769520324E+02 -0.24159313309E+02  0.35847930378E+02  0.10000000000E+01 0.  0.
<mgrwt>
<rscale>  0 0.12500079E+03</rscale>
<asrwt>0</asrwt>
<pdfrwt beam="1">  1        4 0.15333109E-02 0.12500079E+03</pdfrwt>
<pdfrwt beam="2">  1       -4 0.15922650E+00 0.12500079E+03</pdfrwt>
<totfact> 0.68311837E+02</totfact>
</mgrwt>
</event>
<event>
 5    1  0.1466870E-002  0.1250014E+03  0.7818608E-02  0.1235067E+00
          4   -1    0    0  501    0  0.00000000000E+00  0.00000000000E+00  0.11765363739E+03  0.11766049164E+03  0.12700000000E+01 0.  1.
         -4   -1    0    0    0  501 -0.00000000000E+00 -0.00000000000E+00 -0.33182016859E+02  0.33206311792E+02  0.12700000000E+01 0.  1.
         25    2    1    2    0    0  0.00000000000E+00  0.00000000000E+00  0.84471620535E+02  0.15086680343E+03  0.12500135080E+03 0.  0.
    9000005    1    3    3    0    0  0.50097678321E+02 -0.24997107144E+02  0.87298447548E+01  0.56673123508E+02  0.10000000000E+01 0.  0.
    9000005    1    3    3    0    0 -0.50097678321E+02  0.24997107144E+02  0.75741775781E+02  0.94193679921E+02  0.10000000000E+01 0.  0.
<mgrwt>
<rscale>  0 0.12500135E+03</rscale>
<asrwt>0</asrwt>
<pdfrwt beam="1">  1        4 0.29417303E-01 0.12500135E+03</pdfrwt>
<pdfrwt beam="2">  1       -4 0.82993979E-02 0.12500135E+03</pdfrwt>
<totfact> 0.18495661E+03</totfact>
</mgrwt>
</event>
<event>
 5    1  0.1466870E-002  0.1250017E+03  0.7818608E-02  0.1235067E+00
         -4   -1    0    0    0  501 -0.00000000000E+00  0.00000000000E+00  0.88374513704E+02  0.88383638601E+02  0.12700000000E+01 0.  1.
          4   -1    0    0  501    0  0.00000000000E+00 -0.00000000000E+00 -0.44181761347E+02  0.44200010585E+02  0.12700000000E+01 0.  1.
         25    2    1    2    0    0  0.00000000000E+00  0.00000000000E+00  0.44192752357E+02  0.13258364919E+03  0.12500169867E+03 0.  0.
    9000005    1    3    3    0    0  0.19153942483E+02 -0.52849707700E+02  0.51054214611E+02  0.75944044837E+02  0.10000000000E+01 0.  0.
    9000005    1    3    3    0    0 -0.19153942483E+02  0.52849707700E+02 -0.68614622542E+01  0.56639604350E+02  0.10000000000E+01 0.  0.
<mgrwt>
<rscale>  0 0.12500170E+03</rscale>
<asrwt>0</asrwt>
<pdfrwt beam="2">  1        4 0.11048862E-01 0.12500170E+03</pdfrwt>
<pdfrwt beam="1">  1       -4 0.22097050E-01 0.12500170E+03</pdfrwt>
<totfact> 0.19425694E+03</totfact>
</mgrwt>
</event>
<event>
 5    1  0.1466870E-002  0.1250011E+03  0.7818608E-02  0.1235068E+00
          4   -1    0    0  501    0  0.00000000000E+00  0.00000000000E+00  0.30156000204E+03  0.30156267629E+03  0.12700000000E+01 0. -1.
         -4   -1    0    0    0  501 -0.00000000000E+00 -0.00000000000E+00 -0.12919844452E+02  0.12982113875E+02  0.12700000000E+01 0. -1.
         25    2    1    2    0    0  0.00000000000E+00  0.00000000000E+00  0.28864015759E+03  0.31454479016E+03  0.12500113778E+03 0.  0.
    9000005    1    3    3    0    0 -0.58223744521E+02 -0.13222216076E+02  0.19075241247E+03  0.19988075017E+03  0.10000000000E+01 0.  0.
    9000005    1    3    3    0    0  0.58223744521E+02  0.13222216076E+02  0.97887745112E+02  0.11466403999E+03  0.10000000000E+01 0.  0.
<mgrwt>
<rscale>  0 0.12500114E+03</rscale>
<asrwt>0</asrwt>
<pdfrwt beam="1">  1        4 0.75398114E-01 0.12500114E+03</pdfrwt>
<pdfrwt beam="2">  1       -4 0.32380793E-02 0.12500114E+03</pdfrwt>
<totfact> 0.12572657E+03</totfact>
</mgrwt>
</event>
<event>
 5    1  0.1466870E-002  0.1250002E+03  0.7818608E-02  0.1235069E+00
          4   -1    0    0  501    0  0.00000000000E+00  0.00000000000E+00  0.35474963258E+02  0.35497688913E+02  0.12700000000E+01 0.  1.
         -4   -1    0    0    0  501 -0.00000000000E+00 -0.00000000000E+00 -0.11005162807E+03  0.11005895576E+03  0.12700000000E+01 0.  1.
         25    2    1    2    0    0  0.00000000000E+00  0.00000000000E+00 -0.74576664817E+02  0.14555664467E+03  0.12500023149E+03 0.  0.
    9000005    1    3    3    0    0  0.58711875861E+02 -0.11610490474E+02 -0.58228276689E+02  0.83507006067E+02  0.10000000000E+01 0.  0.
    9000005    1    3    3    0    0 -0.58711875861E+02  0.11610490474E+02 -0.16348388128E+02  0.62049638601E+02  0.10000000000E+01 0.  0.
<mgrwt>
<rscale>  0 0.12500023E+03</rscale>
<asrwt>0</asrwt>
<pdfrwt beam="1">  1        4 0.88724977E-02 0.12500023E+03</pdfrwt>
<pdfrwt beam="2">  1       -4 0.27516663E-01 0.12500023E+03</pdfrwt>
<totfact> 0.18759340E+03</totfact>
</mgrwt>
</event>
<event>
 5    1  0.1466870E-002  0.1250091E+03  0.7818608E-02  0.1235055E+00
         -4   -1    0    0    0  501 -0.00000000000E+00  0.00000000000E+00  0.70359653928E+03  0.70359768546E+03  0.12700000000E+01 0. -1.
          4   -1    0    0  501    0  0.00000000000E+00 -0.00000000000E+00 -0.54788575118E+01  0.56241247883E+01  0.12700000000E+01 0. -1.
         25    2    1    2    0    0  0.00000000000E+00  0.00000000000E+00  0.69811768177E+03  0.70922181025E+03  0.12500911381E+03 0.  0.
    9000005    1    3    3    0    0 -0.62044728094E+02  0.29310677037E+01  0.38823387689E+03  0.39317258628E+03  0.10000000000E+01 0.  0.
    9000005    1    3    3    0    0  0.62044728094E+02 -0.29310677037E+01  0.30988380488E+03  0.31604922397E+03  0.10000000000E+01 0.  0.
<mgrwt>
<rscale>  0 0.12500911E+03</rscale>
<asrwt>0</asrwt>
<pdfrwt beam="2">  1        4 0.13880164E-02 0.12500911E+03</pdfrwt>
<pdfrwt beam="1">  1       -4 0.17591739E+00 0.12500911E+03</pdfrwt>
<totfact> 0.61097740E+02</totfact>
</mgrwt>
</event>
<event>
 5    1  0.1466870E-002  0.1250016E+03  0.7818608E-02  0.1235067E+00
         -4   -1    0    0    0  501 -0.00000000000E+00  0.00000000000E+00  0.45314637130E+02  0.45332430314E+02  0.12700000000E+01 0. -1.
          4   -1    0    0  501    0  0.00000000000E+00 -0.00000000000E+00 -0.86165610966E+02  0.86174969760E+02  0.12700000000E+01 0. -1.
         25    2    1    2    0    0  0.00000000000E+00  0.00000000000E+00 -0.40850973837E+02  0.13150740007E+03  0.12500157683E+03 0.  0.
    9000005    1    3    3    0    0  0.57195720224E+02 -0.93940053678E+01  0.41516841505E+01  0.58119138243E+02  0.10000000000E+01 0.  0.
    9000005    1    3    3    0    0 -0.57195720224E+02  0.93940053678E+01 -0.45002657987E+02  0.73388261832E+02  0.10000000000E+01 0.  0.
<mgrwt>
<rscale>  0 0.12500158E+03</rscale>
<asrwt>0</asrwt>
<pdfrwt beam="2">  1        4 0.21544796E-01 0.12500158E+03</pdfrwt>
<pdfrwt beam="1">  1       -4 0.11332053E-01 0.12500158E+03</pdfrwt>
<totfact> 0.19482967E+03</totfact>
</mgrwt>
</event>
<event>
 5    1  0.1466870E-002  0.1250064E+03  0.7818608E-02  0.1235059E+00
         -4   -1    0    0    0  501 -0.00000000000E+00  0.00000000000E+00  0.29375626143E+01  0.32003396871E+01  0.12700000000E+01 0. -1.
          4   -1    0    0  501    0  0.00000000000E+00 -0.00000000000E+00 -0.12726965902E+04  0.12726972239E+04  0.12700000000E+01 0. -1.
         25    2    1    2    0    0  0.00000000000E+00  0.00000000000E+00 -0.12697590276E+04  0.12758975636E+04  0.12500641790E+03 0.  0.
    9000005    1    3    3    0    0  0.60593854802E+02  0.46938369857E+01 -0.78349200131E+03  0.78584627215E+03  0.10000000000E+01 0.  0.
    9000005    1    3    3    0    0 -0.60593854802E+02 -0.46938369857E+01 -0.48626702632E+03  0.49005129143E+03  0.10000000000E+01 0.  0.
<mgrwt>
<rscale>  0 0.12500642E+03</rscale>
<asrwt>0</asrwt>
<pdfrwt beam="2">  1        4 0.31820526E+00 0.12500642E+03</pdfrwt>
<pdfrwt beam="1">  1       -4 0.76732136E-03 0.12500642E+03</pdfrwt>
<totfact> 0.21429860E+02</totfact>
</mgrwt>
</event>
<event>
 5    1  0.1466870E-002  0.1250013E+03  0.7818608E-02  0.1235067E+00
          4   -1    0    0  501    0  0.00000000000E+00  0.00000000000E+00  0.28696284467E+02  0.28724373661E+02  0.12700000000E+01 0. -1.
         -4   -1    0    0    0  501 -0.00000000000E+00 -0.00000000000E+00 -0.13602902569E+03  0.13603495408E+03  0.12700000000E+01 0. -1.
         25    2    1    2    0    0  0.00000000000E+00  0.00000000000E+00 -0.10733274122E+03  0.16475932774E+03  0.12500127494E+03 0.  0.
    9000005    1    3    3    0    0  0.42104529015E+02 -0.38333624895E+02 -0.87606676888E+02  0.10449013349E+03  0.10000000000E+01 0.  0.
    9000005    1    3    3    0    0 -0.42104529015E+02  0.38333624895E+02 -0.19726064335E+02  0.60269194248E+02  0.10000000000E+01 0.  0.
<mgrwt>
<rscale>  0 0.12500127E+03</rscale>
<asrwt>0</asrwt>
<pdfrwt beam="1">  1        4 0.71783237E-02 0.12500127E+03</pdfrwt>
<pdfrwt beam="2">  1       -4 0.34011507E-01 0.12500127E+03</pdfrwt>
<totfact> 0.17835519E+03</totfact>
</mgrwt>
</event>
<event>
 5    1  0.1466870E-002  0.1249991E+03  0.7818608E-02  0.1235071E+00
         -4   -1    0    0    0  501 -0.00000000000E+00  0.00000000000E+00  0.13049213337E+03  0.13049831329E+03  0.12700000000E+01 0. -1.
          4   -1    0    0  501    0  0.00000000000E+00 -0.00000000000E+00 -0.29913949750E+02  0.29940896608E+02  0.12700000000E+01 0. -1.
         25    2    1    2    0    0  0.00000000000E+00  0.00000000000E+00  0.10057818362E+03  0.16043920990E+03  0.12499907620E+03 0.  0.
    9000005    1    3    3    0    0 -0.15372151965E+02  0.51970791272E+02  0.10356747884E+02  0.55186306528E+02  0.10000000000E+01 0.  0.
    9000005    1    3    3    0    0  0.15372151965E+02 -0.51970791272E+02  0.90221435734E+02  0.10525290337E+03  0.10000000000E+01 0.  0.
<mgrwt>
<rscale>  0 0.12499908E+03</rscale>
<asrwt>0</asrwt>
<pdfrwt beam="2">  1        4 0.74826284E-02 0.12499908E+03</pdfrwt>
<pdfrwt beam="1">  1       -4 0.32627174E-01 0.12499908E+03</pdfrwt>
<totfact> 0.18037491E+03</totfact>
</mgrwt>
</event>
<event>
 5    1  0.1466870E-002  0.1250012E+03  0.7818608E-02  0.1235067E+00
         -4   -1    0    0    0  501 -0.00000000000E+00  0.00000000000E+00  0.87869015676E+01  0.88782058524E+01  0.12700000000E+01 0.  1.
          4   -1    0    0  501    0  0.00000000000E+00 -0.00000000000E+00 -0.44217257080E+03  0.44217439464E+03  0.12700000000E+01 0.  1.
         25    2    1    2    0    0  0.00000000000E+00  0.00000000000E+00 -0.43338566924E+03  0.45105260049E+03  0.12500124042E+03 0.  0.
    9000005    1    3    3    0    0  0.44851449639E+02  0.41090696858E+02 -0.16499969703E+03  0.17585789128E+03  0.10000000000E+01 0.  0.
    9000005    1    3    3    0    0 -0.44851449639E+02 -0.41090696858E+02 -0.26838597220E+03  0.27519470921E+03  0.10000000000E+01 0.  0.
<mgrwt>
<rscale>  0 0.12500124E+03</rscale>
<asrwt>0</asrwt>
<pdfrwt beam="2">  1        4 0.11055471E+00 0.12500124E+03</pdfrwt>
<pdfrwt beam="1">  1       -4 0.22083679E-02 0.12500124E+03</pdfrwt>
<totfact> 0.95825627E+02</totfact>
</mgrwt>
</event>
<event>
 5    1  0.1466870E-002  0.1249989E+03  0.7818608E-02  0.1235071E+00
          4   -1    0    0  501    0  0.00000000000E+00  0.00000000000E+00  0.39899380485E+02  0.39919587461E+02  0.12700000000E+01 0.  1.
         -4   -1    0    0    0  501 -0.00000000000E+00 -0.00000000000E+00 -0.97851679925E+02  0.97859921133E+02  0.12700000000E+01 0.  1.
         25    2    1    2    0    0  0.00000000000E+00  0.00000000000E+00 -0.57952299440E+02  0.13777950859E+03  0.12499889591E+03 0.  0.
    9000005    1    3    3    0    0 -0.21181350103E+02  0.32471810050E+02  0.25046411106E+02  0.46166987658E+02  0.10000000000E+01 0.  0.
    9000005    1    3    3    0    0  0.21181350103E+02 -0.32471810050E+02 -0.82998710546E+02  0.91612520937E+02  0.10000000000E+01 0.  0.
<mgrwt>
<rscale>  0 0.12499890E+03</rscale>
<asrwt>0</asrwt>
<pdfrwt beam="1">  1        4 0.99784013E-02 0.12499890E+03</pdfrwt>
<pdfrwt beam="2">  1       -4 0.24466476E-01 0.12499890E+03</pdfrwt>
<totfact> 0.19155015E+03</totfact>
</mgrwt>
</event>
<event>
 5    1  0.1466870E-002  0.1249992E+03  0.7818608E-02  0.1235071E+00
         -4   -1    0    0    0  501 -0.00000000000E+00  0.00000000000E+00  0.40418114804E+03  0.40418314330E+03  0.12700000000E+01 0.  1.
          4   -1    0    0  501    0  0.00000000000E+00 -0.00000000000E+00 -0.96207279763E+01  0.97041901669E+01  0.12700000000E+01 0.  1.
         25    2    1    2    0    0  0.00000000000E+00  0.00000000000E+00  0.39456042006E+03  0.41388733347E+03  0.12499919890E+03 0.  0.
    9000005    1    3    3    0    0  0.55914232468E+02 -0.22852187329E+02  0.14424271757E+03  0.15638281692E+03  0.10000000000E+01 0.  0.
    9000005    1    3    3    0    0 -0.55914232468E+02  0.22852187329E+02  0.25031770249E+03  0.25750451654E+03  0.10000000000E+01 0.  0.
<mgrwt>
<rscale>  0 0.12499920E+03</rscale>
<asrwt>0</asrwt>
<pdfrwt beam="2">  1        4 0.24158644E-02 0.12499920E+03</pdfrwt>
<pdfrwt beam="1">  1       -4 0.10105596E+00 0.12499920E+03</pdfrwt>
<totfact> 0.10287795E+03</totfact>
</mgrwt>
</event>
<event>
 5    1  0.1466870E-002  0.1250035E+03  0.7818608E-02  0.1235064E+00
         -4   -1    0    0    0  501 -0.00000000000E+00  0.00000000000E+00  0.28533580384E+02  0.28561829591E+02  0.12700000000E+01 0.  1.
          4   -1    0    0  501    0  0.00000000000E+00 -0.00000000000E+00 -0.13680892413E+03  0.13681481872E+03  0.12700000000E+01 0.  1.
         25    2    1    2    0    0  0.00000000000E+00  0.00000000000E+00 -0.10827534374E+03  0.16537664831E+03  0.12500354292E+03 0.  0.
    9000005    1    3    3    0    0  0.74511594477E+01  0.61433352889E+02 -0.42612221448E+02  0.75142385117E+02  0.10000000000E+01 0.  0.
    9000005    1    3    3    0    0 -0.74511594477E+01 -0.61433352889E+02 -0.65663122295E+02  0.90234263192E+02  0.10000000000E+01 0.  0.
<mgrwt>
<rscale>  0 0.12500354E+03</rscale>
<asrwt>0</asrwt>
<pdfrwt beam="2">  1        4 0.34206497E-01 0.12500354E+03</pdfrwt>
<pdfrwt beam="1">  1       -4 0.71376634E-02 0.12500354E+03</pdfrwt>
<totfact> 0.17806153E+03</totfact>
</mgrwt>
</event>
<event>
 5    1  0.1466870E-002  0.1250009E+03  0.7818608E-02  0.1235068E+00
         -4   -1    0    0    0  501 -0.00000000000E+00  0.00000000000E+00  0.10084547946E+03  0.10085347603E+03  0.12700000000E+01 0. -1.
          4   -1    0    0  501    0  0.00000000000E+00 -0.00000000000E+00 -0.38715646678E+02  0.38736471157E+02  0.12700000000E+01 0. -1.
         25    2    1    2    0    0  0.00000000000E+00  0.00000000000E+00  0.62129832784E+02  0.13958994719E+03  0.12500094893E+03 0.  0.
    9000005    1    3    3    0    0  0.60388314650E+02  0.60409246259E+01  0.14423747975E+02  0.62388186560E+02  0.10000000000E+01 0.  0.
    9000005    1    3    3    0    0 -0.60388314650E+02 -0.60409246259E+01  0.47706084809E+02  0.77201760630E+02  0.10000000000E+01 0.  0.
<mgrwt>
<rscale>  0 0.12500095E+03</rscale>
<asrwt>0</asrwt>
<pdfrwt beam="2">  1        4 0.96825144E-02 0.12500095E+03</pdfrwt>
<pdfrwt beam="1">  1       -4 0.25214972E-01 0.12500095E+03</pdfrwt>
<totfact> 0.19060918E+03</totfact>
</mgrwt>
</event>
<event>
 5    1  0.1466870E-002  0.1250047E+03  0.7818608E-02  0.1235062E+00
          4   -1    0    0  501    0  0.00000000000E+00  0.00000000000E+00  0.39937092986E+02  0.39957280891E+02  0.12700000000E+01 0.  1.
         -4   -1    0    0    0  501 -0.00000000000E+00 -0.00000000000E+00 -0.97768405215E+02  0.97776653441E+02  0.12700000000E+01 0.  1.
         25    2    1    2    0    0  0.00000000000E+00  0.00000000000E+00 -0.57831312228E+02  0.13773393433E+03  0.12500470388E+03 0.  0.
    9000005    1    3    3    0    0  0.21229606114E+02 -0.55514085038E+02 -0.76348089024E+01  0.59931628714E+02  0.10000000000E+01 0.  0.
    9000005    1    3    3    0    0 -0.21229606114E+02  0.55514085038E+02 -0.50196503326E+02  0.77802305618E+02  0.10000000000E+01 0.  0.
<mgrwt>
<rscale>  0 0.12500470E+03</rscale>
<asrwt>0</asrwt>
<pdfrwt beam="1">  1        4 0.99878280E-02 0.12500470E+03</pdfrwt>
<pdfrwt beam="2">  1       -4 0.24445655E-01 0.12500470E+03</pdfrwt>
<totfact> 0.19154776E+03</totfact>
</mgrwt>
</event>
<event>
 5    1  0.1466870E-002  0.1250017E+03  0.7818608E-02  0.1235067E+00
          4   -1    0    0  501    0  0.00000000000E+00  0.00000000000E+00  0.52316215051E+03  0.52316369200E+03  0.12700000000E+01 0. -1.
         -4   -1    0    0    0  501 -0.00000000000E+00 -0.00000000000E+00 -0.74112523779E+01  0.75192793411E+01  0.12700000000E+01 0. -1.
         25    2    1    2    0    0  0.00000000000E+00  0.00000000000E+00  0.51575089814E+03  0.53068297134E+03  0.12500170857E+03 0.  0.
    9000005    1    3    3    0    0 -0.15556047952E+02 -0.59669920537E+02  0.30093373081E+03  0.30718821655E+03  0.10000000000E+01 0.  0.
    9000005    1    3    3    0    0  0.15556047952E+02  0.59669920537E+02  0.21481716733E+03  0.22349475480E+03  0.10000000000E+01 0.  0.
<mgrwt>
<rscale>  0 0.12500171E+03</rscale>
<asrwt>0</asrwt>
<pdfrwt beam="1">  1        4 0.13080423E+00 0.12500171E+03</pdfrwt>
<pdfrwt beam="2">  1       -4 0.18665092E-02 0.12500171E+03</pdfrwt>
<totfact> 0.82921627E+02</totfact>
</mgrwt>
</event>
<event>
 5    1  0.1466870E-002  0.1250000E+03  0.7818608E-02  0.1235069E+00
         -4   -1    0    0    0  501 -0.00000000000E+00  0.00000000000E+00  0.96495207834E+02  0.96503564882E+02  0.12700000000E+01 0. -1.
          4   -1    0    0  501    0  0.00000000000E+00 -0.00000000000E+00 -0.40461226218E+02  0.40481152739E+02  0.12700000000E+01 0. -1.
         25    2    1    2    0    0  0.00000000000E+00  0.00000000000E+00  0.56033981616E+02  0.13698471762E+03  0.12500002306E+03 0.  0.
    9000005    1    3    3    0    0  0.24771432057E+02 -0.17974108938E+01  0.90859590296E+02  0.94198299776E+02  0.10000000000E+01 0.  0.
    9000005    1    3    3    0    0 -0.24771432057E+02  0.17974108938E+01 -0.34825608680E+02  0.42786417845E+02  0.10000000000E+01 0.  0.
<mgrwt>
<rscale>  0 0.12500002E+03</rscale>
<asrwt>0</asrwt>
<pdfrwt beam="2">  1        4 0.10118842E-01 0.12500002E+03</pdfrwt>
<pdfrwt beam="1">  1       -4 0.24127337E-01 0.12500002E+03</pdfrwt>
<totfact> 0.19195668E+03</totfact>
</mgrwt>
</event>
<event>
 5    1  0.1466870E-002  0.1250002E+03  0.7818608E-02  0.1235069E+00
         -4   -1    0    0    0  501 -0.00000000000E+00  0.00000000000E+00  0.36877932794E+02  0.36899794405E+02  0.12700000000E+01 0. -1.
          4   -1    0    0  501    0  0.00000000000E+00 -0.00000000000E+00 -0.10586703600E+03  0.10587465330E+03  0.12700000000E+01 0. -1.
         25    2    1    2    0    0  0.00000000000E+00  0.00000000000E+00 -0.68989103209E+02  0.14277444771E+03  0.12500018623E+03 0.  0.
    9000005    1    3    3    0    0 -0.38785450345E+02 -0.15337983441E+02  0.18659778688E+02  0.45702869004E+02  0.10000000000E+01 0.  0.
    9000005    1    3    3    0    0  0.38785450345E+02  0.15337983441E+02 -0.87648881897E+02  0.97071578705E+02  0.10000000000E+01 0.  0.
<mgrwt>
<rscale>  0 0.12500019E+03</rscale>
<asrwt>0</asrwt>
<pdfrwt beam="2">  1        4 0.26470443E-01 0.12500019E+03</pdfrwt>
<pdfrwt beam="1">  1       -4 0.92231683E-02 0.12500019E+03</pdfrwt>
<totfact> 0.18899212E+03</totfact>
</mgrwt>
</event>
<event>
 5    1  0.1466870E-002  0.1250078E+03  0.7818608E-02  0.1235057E+00
          4   -1    0    0  501    0  0.00000000000E+00  0.00000000000E+00  0.50025231985E+01  0.51612148135E+01  0.12700000000E+01 0.  1.
         -4   -1    0    0    0  501 -0.00000000000E+00 -0.00000000000E+00 -0.76860023767E+03  0.76860128691E+03  0.12700000000E+01 0.  1.
         25    2    1    2    0    0  0.00000000000E+00  0.00000000000E+00 -0.76359771447E+03  0.77376250173E+03  0.12500775790E+03 0.  0.
    9000005    1    3    3    0    0  0.36362224839E+02 -0.30173446356E+02 -0.63497916684E+03  0.63673557352E+03  0.10000000000E+01 0.  0.
    9000005    1    3    3    0    0 -0.36362224839E+02  0.30173446356E+02 -0.12861854763E+03  0.13702692821E+03  0.10000000000E+01 0.  0.
<mgrwt>
<rscale>  0 0.12500776E+03</rscale>
<asrwt>0</asrwt>
<pdfrwt beam="1">  1        4 0.12706010E-02 0.12500776E+03</pdfrwt>
<pdfrwt beam="2">  1       -4 0.19216963E+00 0.12500776E+03</pdfrwt>
<totfact> 0.54836477E+02</totfact>
</mgrwt>
</event>
<event>
 5    1  0.1466870E-002  0.1249720E+03  0.7818608E-02  0.1235113E+00
         -4   -1    0    0    0  501 -0.00000000000E+00  0.00000000000E+00  0.24173597400E+03  0.24173931006E+03  0.12700000000E+01 0.  1.
          4   -1    0    0  501    0  0.00000000000E+00 -0.00000000000E+00 -0.16123497985E+02  0.16173437708E+02  0.12700000000E+01 0.  1.
         25    2    1    2    0    0  0.00000000000E+00  0.00000000000E+00  0.22561247602E+03  0.25791274777E+03  0.12497198136E+03 0.  0.
    9000005    1    3    3    0    0 -0.58718451410E+02 -0.55792318324E+01  0.70284941002E+02  0.91760325279E+02  0.10000000000E+01 0.  0.
    9000005    1    3    3    0    0  0.58718451410E+02  0.55792318324E+01  0.15532753502E+03  0.16615242249E+03  0.10000000000E+01 0.  0.
<mgrwt>
<rscale>  0 0.12497198E+03</rscale>
<asrwt>0</asrwt>
<pdfrwt beam="2">  1        4 0.40375340E-02 0.12497198E+03</pdfrwt>
<pdfrwt beam="1">  1       -4 0.60440653E-01 0.12497198E+03</pdfrwt>
<totfact> 0.14247595E+03</totfact>
</mgrwt>
</event>
<event>
 5    1  0.1466870E-002  0.1250251E+03  0.7818608E-02  0.1235030E+00
         -4   -1    0    0    0  501 -0.00000000000E+00  0.00000000000E+00  0.65568018799E+02  0.65580317087E+02  0.12700000000E+01 0.  1.
          4   -1    0    0  501    0  0.00000000000E+00 -0.00000000000E+00 -0.59574776559E+02  0.59588311791E+02  0.12700000000E+01 0.  1.
         25    2    1    2    0    0  0.00000000000E+00  0.00000000000E+00  0.59932422405E+01  0.12516862888E+03  0.12502506430E+03 0.  0.
    9000005    1    3    3    0    0  0.76711612261E+01  0.60985711490E+02 -0.83615795953E+01  0.62040468518E+02  0.10000000000E+01 0.  0.
    9000005    1    3    3    0    0 -0.76711612261E+01 -0.60985711490E+02  0.14354821836E+02  0.63128160360E+02  0.10000000000E+01 0.  0.
<mgrwt>
<rscale>  0 0.12502506E+03</rscale>
<asrwt>0</asrwt>
<pdfrwt beam="2">  1        4 0.14896923E-01 0.12502506E+03</pdfrwt>
<pdfrwt beam="1">  1       -4 0.16395234E-01 0.12502506E+03</pdfrwt>
<totfact> 0.19814291E+03</totfact>
</mgrwt>
</event>
<event>
 5    1  0.1466870E-002  0.1249952E+03  0.7818608E-02  0.1235077E+00
         -4   -1    0    0    0  501 -0.00000000000E+00  0.00000000000E+00  0.42287718907E+02  0.42306785158E+02  0.12700000000E+01 0. -1.
          4   -1    0    0  501    0  0.00000000000E+00 -0.00000000000E+00 -0.92321755240E+02  0.92330490038E+02  0.12700000000E+01 0. -1.
         25    2    1    2    0    0  0.00000000000E+00  0.00000000000E+00 -0.50034036333E+02  0.13463727520E+03  0.12499516423E+03 0.  0.
    9000005    1    3    3    0    0 -0.27403621294E+02  0.24281466216E+02  0.29529239752E+02  0.47048103702E+02  0.10000000000E+01 0.  0.
    9000005    1    3    3    0    0  0.27403621294E+02 -0.24281466216E+02 -0.79563276085E+02  0.87589171494E+02  0.10000000000E+01 0.  0.
<mgrwt>
<rscale>  0 0.12499516E+03</rscale>
<asrwt>0</asrwt>
<pdfrwt beam="2">  1        4 0.23083914E-01 0.12499516E+03</pdfrwt>
<pdfrwt beam="1">  1       -4 0.10575405E-01 0.12499516E+03</pdfrwt>
<totfact> 0.19320333E+03</totfact>
</mgrwt>
</event>
<event>
 5    1  0.1466870E-002  0.1249991E+03  0.7818608E-02  0.1235071E+00
          4   -1    0    0  501    0  0.00000000000E+00  0.00000000000E+00  0.21044816056E+03  0.21045199259E+03  0.12700000000E+01 0. -1.
         -4   -1    0    0    0  501 -0.00000000000E+00 -0.00000000000E+00 -0.18535567170E+02  0.18579024472E+02  0.12700000000E+01 0. -1.
         25    2    1    2    0    0  0.00000000000E+00  0.00000000000E+00  0.19191259339E+03  0.22903101706E+03  0.12499905309E+03 0.  0.
    9000005    1    3    3    0    0 -0.40854700436E+01  0.37457257068E+02  0.18730248136E+03  0.19105746962E+03  0.10000000000E+01 0.  0.
    9000005    1    3    3    0    0  0.40854700436E+01 -0.37457257068E+02  0.46101120327E+01  0.37973547444E+02  0.10000000000E+01 0.  0.
<mgrwt>
<rscale>  0 0.12499905E+03</rscale>
<asrwt>0</asrwt>
<pdfrwt beam="1">  1        4 0.52617951E-01 0.12499905E+03</pdfrwt>
<pdfrwt beam="2">  1       -4 0.46398030E-02 0.12499905E+03</pdfrwt>
<totfact> 0.15222330E+03</totfact>
</mgrwt>
</event>
<event>
 5    1  0.1466870E-002  0.1249680E+03  0.7818608E-02  0.1235119E+00
          4   -1    0    0  501    0  0.00000000000E+00  0.00000000000E+00  0.65462585826E+02  0.65474903917E+02  0.12700000000E+01 0.  1.
         -4   -1    0    0    0  501 -0.00000000000E+00 -0.00000000000E+00 -0.59616230216E+02  0.59629756038E+02  0.12700000000E+01 0.  1.
         25    2    1    2    0    0  0.00000000000E+00  0.00000000000E+00  0.58463556098E+01  0.12510465996E+03  0.12496798017E+03 0.  0.
    9000005    1    3    3    0    0 -0.60577501019E+02  0.11540604655E+02  0.12955607008E+02  0.63021162624E+02  0.10000000000E+01 0.  0.
    9000005    1    3    3    0    0  0.60577501019E+02 -0.11540604655E+02 -0.71092513980E+01  0.62083497332E+02  0.10000000000E+01 0.  0.
<mgrwt>
<rscale>  0 0.12496798E+03</rscale>
<asrwt>0</asrwt>
<pdfrwt beam="1">  1        4 0.16368877E-01 0.12496798E+03</pdfrwt>
<pdfrwt beam="2">  1       -4 0.14907288E-01 0.12496798E+03</pdfrwt>
<totfact> 0.19844244E+03</totfact>
</mgrwt>
</event>
<event>
 5    1  0.1466870E-002  0.1249902E+03  0.7818608E-02  0.1235085E+00
          4   -1    0    0  501    0  0.00000000000E+00  0.00000000000E+00  0.19369099010E+02  0.19410690262E+02  0.12700000000E+01 0. -1.
         -4   -1    0    0    0  501 -0.00000000000E+00 -0.00000000000E+00 -0.20138289390E+03  0.20138689843E+03  0.12700000000E+01 0. -1.
         25    2    1    2    0    0  0.00000000000E+00  0.00000000000E+00 -0.18201379490E+03  0.22079758869E+03  0.12499021417E+03 0.  0.
    9000005    1    3    3    0    0 -0.36726729001E+02 -0.46619295407E+02 -0.12555248901E+03  0.13887634364E+03  0.10000000000E+01 0.  0.
    9000005    1    3    3    0    0  0.36726729001E+02  0.46619295407E+02 -0.56461305889E+02  0.81921245047E+02  0.10000000000E+01 0.  0.
<mgrwt>
<rscale>  0 0.12499021E+03</rscale>
<asrwt>0</asrwt>
<pdfrwt beam="1">  1        4 0.48479748E-02 0.12499021E+03</pdfrwt>
<pdfrwt beam="2">  1       -4 0.50351417E-01 0.12499021E+03</pdfrwt>
<totfact> 0.15525311E+03</totfact>
</mgrwt>
</event>
<event>
 5    1  0.1466870E-002  0.1250348E+03  0.7818608E-02  0.1235015E+00
          4   -1    0    0  501    0  0.00000000000E+00  0.00000000000E+00  0.31997694514E+01  0.34425898016E+01  0.12700000000E+01 0. -1.
         -4   -1    0    0    0  501 -0.00000000000E+00 -0.00000000000E+00 -0.11765748786E+04  0.11765755640E+04  0.12700000000E+01 0. -1.
         25    2    1    2    0    0  0.00000000000E+00  0.00000000000E+00 -0.11733751092E+04  0.11800181538E+04  0.12503478149E+03 0.  0.
    9000005    1    3    3    0    0  0.43496280731E+02  0.29506823382E+02 -0.90601129714E+03  0.90753515062E+03  0.10000000000E+01 0.  0.
    9000005    1    3    3    0    0 -0.43496280731E+02 -0.29506823382E+02 -0.26736381202E+03  0.27248300321E+03  0.10000000000E+01 0.  0.
<mgrwt>
<rscale>  0 0.12503478E+03</rscale>
<asrwt>0</asrwt>
<pdfrwt beam="1">  1        4 0.83038462E-03 0.12503478E+03</pdfrwt>
<pdfrwt beam="2">  1       -4 0.29417273E+00 0.12503478E+03</pdfrwt>
<totfact> 0.26240897E+02</totfact>
</mgrwt>
</event>
<event>
 5    1  0.1466870E-002  0.1249993E+03  0.7818608E-02  0.1235070E+00
          4   -1    0    0  501    0  0.00000000000E+00  0.00000000000E+00  0.51957654297E+02  0.51973173273E+02  0.12700000000E+01 0.  1.
         -4   -1    0    0    0  501 -0.00000000000E+00 -0.00000000000E+00 -0.75148516664E+02  0.75159247314E+02  0.12700000000E+01 0.  1.
         25    2    1    2    0    0  0.00000000000E+00  0.00000000000E+00 -0.23190862367E+02  0.12713242059E+03  0.12499934507E+03 0.  0.
    9000005    1    3    3    0    0  0.35358689316E+02  0.39503235527E+02 -0.45242700382E+02  0.69703977398E+02  0.10000000000E+01 0.  0.
    9000005    1    3    3    0    0 -0.35358689316E+02 -0.39503235527E+02  0.22051838015E+02  0.57428443189E+02  0.10000000000E+01 0.  0.
<mgrwt>
<rscale>  0 0.12499935E+03</rscale>
<asrwt>0</asrwt>
<pdfrwt beam="1">  1        4 0.12992695E-01 0.12499935E+03</pdfrwt>
<pdfrwt beam="2">  1       -4 0.18790410E-01 0.12499935E+03</pdfrwt>
<totfact> 0.19720120E+03</totfact>
</mgrwt>
</event>
<event>
 5    1  0.1466870E-002  0.1250129E+03  0.7818608E-02  0.1235049E+00
          4   -1    0    0  501    0  0.00000000000E+00  0.00000000000E+00  0.47398792699E+03  0.47398962840E+03  0.12700000000E+01 0.  1.
         -4   -1    0    0    0  501 -0.00000000000E+00 -0.00000000000E+00 -0.81923018576E+01  0.82901574005E+01  0.12700000000E+01 0.  1.
         25    2    1    2    0    0  0.00000000000E+00  0.00000000000E+00  0.46579562513E+03  0.48227978580E+03  0.12501290894E+03 0.  0.
    9000005    1    3    3    0    0 -0.43702478633E+02 -0.23804677180E+02  0.37875720088E+03  0.38201385644E+03  0.10000000000E+01 0.  0.
    9000005    1    3    3    0    0  0.43702478633E+02  0.23804677180E+02  0.87038424249E+02  0.10026592936E+03  0.10000000000E+01 0.  0.
<mgrwt>
<rscale>  0 0.12501291E+03</rscale>
<asrwt>0</asrwt>
<pdfrwt beam="1">  1        4 0.11850941E+00 0.12501291E+03</pdfrwt>
<pdfrwt beam="2">  1       -4 0.20605203E-02 0.12501291E+03</pdfrwt>
<totfact> 0.90466723E+02</totfact>
</mgrwt>
</event>
<event>
 5    1  0.1466870E-002  0.1249971E+03  0.7818608E-02  0.1235074E+00
         -4   -1    0    0    0  501 -0.00000000000E+00  0.00000000000E+00  0.79838405677E+03  0.79838506688E+03  0.12700000000E+01 0.  1.
          4   -1    0    0  501    0  0.00000000000E+00 -0.00000000000E+00 -0.48090244188E+01  0.49738934307E+01  0.12700000000E+01 0.  1.
         25    2    1    2    0    0  0.00000000000E+00  0.00000000000E+00  0.79357503235E+03  0.80335896031E+03  0.12499714848E+03 0.  0.
    9000005    1    3    3    0    0  0.98161643702E+01 -0.23600661460E+02  0.30293962968E+02  0.39649369435E+02  0.10000000000E+01 0.  0.
    9000005    1    3    3    0    0 -0.98161643702E+01  0.23600661460E+02  0.76328106939E+03  0.76370959087E+03  0.10000000000E+01 0.  0.
<mgrwt>
<rscale>  0 0.12499715E+03</rscale>
<asrwt>0</asrwt>
<pdfrwt beam="2">  1        4 0.12229909E-02 0.12499715E+03</pdfrwt>
<pdfrwt beam="1">  1       -4 0.19961676E+00 0.12499715E+03</pdfrwt>
<totfact> 0.52185787E+02</totfact>
</mgrwt>
</event>
<event>
 5    1  0.1466870E-002  0.1250014E+03  0.7818608E-02  0.1235067E+00
         -4   -1    0    0    0  501 -0.00000000000E+00  0.00000000000E+00  0.62909457519E+02  0.62922275430E+02  0.12700000000E+01 0. -1.
          4   -1    0    0  501    0  0.00000000000E+00 -0.00000000000E+00 -0.62068981944E+02  0.62081973386E+02  0.12700000000E+01 0. -1.
         25    2    1    2    0    0  0.00000000000E+00  0.00000000000E+00  0.84047557487E+00  0.12500424882E+03  0.12500142328E+03 0.  0.
    9000005    1    3    3    0    0  0.20486085110E+02  0.21515371811E+02  0.55401004446E+02  0.62871791775E+02  0.10000000000E+01 0.  0.
    9000005    1    3    3    0    0 -0.20486085110E+02 -0.21515371811E+02 -0.54560528871E+02  0.62132457042E+02  0.10000000000E+01 0.  0.
<mgrwt>
<rscale>  0 0.12500142E+03</rscale>
<asrwt>0</asrwt>
<pdfrwt beam="2">  1        4 0.15520472E-01 0.12500142E+03</pdfrwt>
<pdfrwt beam="1">  1       -4 0.15730591E-01 0.12500142E+03</pdfrwt>
<totfact> 0.19834164E+03</totfact>
</mgrwt>
</event>
<event>
 5    1  0.1466870E-002  0.1249763E+03  0.7818608E-02  0.1235106E+00
         -4   -1    0    0    0  501 -0.00000000000E+00  0.00000000000E+00  0.70626040205E+01  0.71758815173E+01  0.12700000000E+01 0. -1.
          4   -1    0    0  501    0  0.00000000000E+00 -0.00000000000E+00 -0.54836675951E+03  0.54836823014E+03  0.12700000000E+01 0. -1.
         25    2    1    2    0    0  0.00000000000E+00  0.00000000000E+00 -0.54130415548E+03  0.55554411166E+03  0.12497628277E+03 0.  0.
    9000005    1    3    3    0    0 -0.39149379192E+02  0.35207608459E+02 -0.12112435362E+03  0.13207709349E+03  0.10000000000E+01 0.  0.
    9000005    1    3    3    0    0  0.39149379192E+02 -0.35207608459E+02 -0.42017980186E+03  0.42346701817E+03  0.10000000000E+01 0.  0.
<mgrwt>
<rscale>  0 0.12497628E+03</rscale>
<asrwt>0</asrwt>
<pdfrwt beam="2">  1        4 0.13710589E+00 0.12497628E+03</pdfrwt>
<pdfrwt beam="1">  1       -4 0.17799964E-02 0.12497628E+03</pdfrwt>
<totfact> 0.79439114E+02</totfact>
</mgrwt>
</event>
<event>
 5    1  0.1466870E-002  0.1250002E+03  0.7818608E-02  0.1235069E+00
         -4   -1    0    0    0  501 -0.00000000000E+00  0.00000000000E+00  0.32855533736E+02  0.32880069907E+02  0.12700000000E+01 0.  1.
          4   -1    0    0  501    0  0.00000000000E+00 -0.00000000000E+00 -0.11881973010E+03  0.11882651708E+03  0.12700000000E+01 0.  1.
         25    2    1    2    0    0  0.00000000000E+00  0.00000000000E+00 -0.85964196364E+02  0.15170658699E+03  0.12500018191E+03 0.  0.
    9000005    1    3    3    0    0 -0.26623526086E+02  0.53712762918E+02 -0.21565772744E+02  0.63717780843E+02  0.10000000000E+01 0.  0.
    9000005    1    3    3    0    0  0.26623526086E+02 -0.53712762918E+02 -0.64398423620E+02  0.87988806142E+02  0.10000000000E+01 0.  0.
<mgrwt>
<rscale>  0 0.12500018E+03</rscale>
<asrwt>0</asrwt>
<pdfrwt beam="2">  1        4 0.29708847E-01 0.12500018E+03</pdfrwt>
<pdfrwt beam="1">  1       -4 0.82177991E-02 0.12500018E+03</pdfrwt>
<totfact> 0.18455107E+03</totfact>
</mgrwt>
</event>
<event>
 5    1  0.1466870E-002  0.1250014E+03  0.7818608E-02  0.1235067E+00
         -4   -1    0    0    0  501 -0.00000000000E+00  0.00000000000E+00  0.53801693951E+03  0.53801843844E+03  0.12700000000E+01 0.  1.
          4   -1    0    0  501    0  0.00000000000E+00 -0.00000000000E+00 -0.72035668718E+01  0.73146616925E+01  0.12700000000E+01 0.  1.
         25    2    1    2    0    0  0.00000000000E+00  0.00000000000E+00  0.53081337263E+03  0.54533310013E+03  0.12500141410E+03 0.  0.
    9000005    1    3    3    0    0  0.62807539732E+01 -0.29178380781E+02  0.50493424330E+03  0.50581658320E+03  0.10000000000E+01 0.  0.
    9000005    1    3    3    0    0 -0.62807539732E+01  0.29178380781E+02  0.25879129331E+02  0.39516516932E+02  0.10000000000E+01 0.  0.
<mgrwt>
<rscale>  0 0.12500141E+03</rscale>
<asrwt>0</asrwt>
<pdfrwt beam="2">  1        4 0.18149658E-02 0.12500141E+03</pdfrwt>
<pdfrwt beam="1">  1       -4 0.13451832E+00 0.12500141E+03</pdfrwt>
<totfact> 0.80818129E+02</totfact>
</mgrwt>
</event>
<event>
 5    1  0.1466870E-002  0.1250038E+03  0.7818608E-02  0.1235063E+00
         -4   -1    0    0    0  501 -0.00000000000E+00  0.00000000000E+00  0.95215138255E+01  0.96058380962E+01  0.12700000000E+01 0.  1.
          4   -1    0    0  501    0  0.00000000000E+00 -0.00000000000E+00 -0.40838616797E+03  0.40838814269E+03  0.12700000000E+01 0.  1.
         25    2    1    2    0    0  0.00000000000E+00  0.00000000000E+00 -0.39886465414E+03  0.41799398078E+03  0.12500382253E+03 0.  0.
    9000005    1    3    3    0    0  0.36990957323E+02  0.37683768857E+02 -0.87671111138E+02  0.10235048162E+03  0.10000000000E+01 0.  0.
    9000005    1    3    3    0    0 -0.36990957323E+02 -0.37683768857E+02 -0.31119354300E+03  0.31564349917E+03  0.10000000000E+01 0.  0.
<mgrwt>
<rscale>  0 0.12500382E+03</rscale>
<asrwt>0</asrwt>
<pdfrwt beam="2">  1        4 0.10210727E+00 0.12500382E+03</pdfrwt>
<pdfrwt beam="1">  1       -4 0.23911672E-02 0.12500382E+03</pdfrwt>
<totfact> 0.10204865E+03</totfact>
</mgrwt>
</event>
<event>
 4    1  0.1466870E-002  0.1252030E+03  0.7818608E-02  0.1234752E+00
         -4   -1    0    0    0  501 -0.00000000000E+00  0.00000000000E+00  0.91084480893E+01  0.91965605851E+01  0.12700000000E+01 0.  1.
          4   -1    0    0  501    0  0.00000000000E+00 -0.00000000000E+00 -0.42809424155E+03  0.42809612536E+03  0.12700000000E+01 0.  1.
    9000005    1    1    2    0    0  0.22931349043E+02  0.50202400852E+02 -0.10636617332E+03  0.11983693356E+03  0.10000000000E+01 0.  0.
    9000005    1    1    2    0    0 -0.22931349043E+02 -0.50202400852E+02 -0.31261962014E+03  0.31745575238E+03  0.10000000000E+01 0.  0.
<mgrwt>
<rscale>  0 0.12520303E+03</rscale>
<asrwt>0</asrwt>
<pdfrwt beam="2">  1        4 0.10703474E+00 0.12520303E+03</pdfrwt>
<pdfrwt beam="1">  1       -4 0.22883630E-02 0.12520303E+03</pdfrwt>
<totfact> 0.97891507E+02</totfact>
</mgrwt>
</event>
<event>
 5    1  0.1466870E-002  0.1250018E+03  0.7818608E-02  0.1235067E+00
         -4   -1    0    0    0  501 -0.00000000000E+00  0.00000000000E+00  0.51571467873E+03  0.51571624248E+03  0.12700000000E+01 0. -1.
          4   -1    0    0  501    0  0.00000000000E+00 -0.00000000000E+00 -0.75198342333E+01  0.76263232882E+01  0.12700000000E+01 0. -1.
         25    2    1    2    0    0  0.00000000000E+00  0.00000000000E+00  0.50819484450E+03  0.52334256577E+03  0.12500176468E+03 0.  0.
    9000005    1    3    3    0    0 -0.20313277462E+02 -0.51732307798E+02  0.37372955501E+03  0.37784076170E+03  0.10000000000E+01 0.  0.
    9000005    1    3    3    0    0  0.20313277462E+02  0.51732307798E+02  0.13446528949E+03  0.14550180407E+03  0.10000000000E+01 0.  0.
<mgrwt>
<rscale>  0 0.12500176E+03</rscale>
<asrwt>0</asrwt>
<pdfrwt beam="2">  1        4 0.18934651E-02 0.12500176E+03</pdfrwt>
<pdfrwt beam="1">  1       -4 0.12894218E+00 0.12500176E+03</pdfrwt>
<totfact> 0.84006537E+02</totfact>
</mgrwt>
</event>
<event>
 5    1  0.1466870E-002  0.1249999E+03  0.7818608E-02  0.1235069E+00
          4   -1    0    0  501    0  0.00000000000E+00  0.00000000000E+00  0.37225411836E+02  0.37247069500E+02  0.12700000000E+01 0.  1.
         -4   -1    0    0    0  501 -0.00000000000E+00 -0.00000000000E+00 -0.10487881959E+03  0.10488650866E+03  0.12700000000E+01 0.  1.
         25    2    1    2    0    0  0.00000000000E+00  0.00000000000E+00 -0.67653407758E+02  0.14213357816E+03  0.12499988184E+03 0.  0.
    9000005    1    3    3    0    0 -0.21577386671E+02 -0.80155615522E+01 -0.99888494111E+02  0.10251119011E+03  0.10000000000E+01 0.  0.
    9000005    1    3    3    0    0  0.21577386671E+02  0.80155615522E+01  0.32235086353E+02  0.39622388049E+02  0.10000000000E+01 0.  0.
<mgrwt>
<rscale>  0 0.12499988E+03</rscale>
<asrwt>0</asrwt>
<pdfrwt beam="1">  1        4 0.93100215E-02 0.12499988E+03</pdfrwt>
<pdfrwt beam="2">  1       -4 0.26223373E-01 0.12499988E+03</pdfrwt>
<totfact> 0.18931771E+03</totfact>
</mgrwt>
</event>
<event>
 5    1  0.1466870E-002  0.1250020E+03  0.7818608E-02  0.1235066E+00
          4   -1    0    0  501    0  0.00000000000E+00  0.00000000000E+00  0.34680649478E+02  0.34703895289E+02  0.12700000000E+01 0.  1.
         -4   -1    0    0    0  501 -0.00000000000E+00 -0.00000000000E+00 -0.11257388003E+03  0.11258104354E+03  0.12700000000E+01 0.  1.
         25    2    1    2    0    0  0.00000000000E+00  0.00000000000E+00 -0.77893230548E+02  0.14728493883E+03  0.12500199134E+03 0.  0.
    9000005    1    3    3    0    0  0.19144235120E+02 -0.28583091046E+02  0.22525175450E+02  0.41132449005E+02  0.10000000000E+01 0.  0.
    9000005    1    3    3    0    0 -0.19144235120E+02  0.28583091046E+02 -0.10041840600E+03  0.10615248982E+03  0.10000000000E+01 0.  0.
<mgrwt>
<rscale>  0 0.12500199E+03</rscale>
<asrwt>0</asrwt>
<pdfrwt beam="1">  1        4 0.86739638E-02 0.12500199E+03</pdfrwt>
<pdfrwt beam="2">  1       -4 0.28147270E-01 0.12500199E+03</pdfrwt>
<totfact> 0.18672226E+03</totfact>
</mgrwt>
</event>
<event>
 5    1  0.1466870E-002  0.1250024E+03  0.7818608E-02  0.1235065E+00
         -4   -1    0    0    0  501 -0.00000000000E+00  0.00000000000E+00  0.50298470464E+02  0.50314501200E+02  0.12700000000E+01 0. -1.
          4   -1    0    0  501    0  0.00000000000E+00 -0.00000000000E+00 -0.77630825238E+02  0.77641212813E+02  0.12700000000E+01 0. -1.
         25    2    1    2    0    0  0.00000000000E+00  0.00000000000E+00 -0.27332354774E+02  0.12795571401E+03  0.12500242850E+03 0.  0.
    9000005    1    3    3    0    0 -0.49813227221E+02  0.63040257521E+01  0.24419078915E+02  0.55842544372E+02  0.10000000000E+01 0.  0.
    9000005    1    3    3    0    0  0.49813227221E+02 -0.63040257521E+01 -0.51751433689E+02  0.72113169641E+02  0.10000000000E+01 0.  0.
<mgrwt>
<rscale>  0 0.12500243E+03</rscale>
<asrwt>0</asrwt>
<pdfrwt beam="2">  1        4 0.19411008E-01 0.12500243E+03</pdfrwt>
<pdfrwt beam="1">  1       -4 0.12577920E-01 0.12500243E+03</pdfrwt>
<totfact> 0.19673829E+03</totfact>
</mgrwt>
</event>
<event>
 5    1  0.1466870E-002  0.1250361E+03  0.7818608E-02  0.1235013E+00
         -4   -1    0    0    0  501 -0.00000000000E+00  0.00000000000E+00  0.16606346558E+03  0.16606832179E+03  0.12700000000E+01 0. -1.
          4   -1    0    0  501    0  0.00000000000E+00 -0.00000000000E+00 -0.23513882197E+02  0.23548153983E+02  0.12700000000E+01 0. -1.
         25    2    1    2    0    0  0.00000000000E+00  0.00000000000E+00  0.14254958339E+03  0.18961647577E+03  0.12503609143E+03 0.  0.
    9000005    1    3    3    0    0 -0.99318870544E+01 -0.54654427925E+02  0.11474707302E+03  0.12748976288E+03  0.10000000000E+01 0.  0.
    9000005    1    3    3    0    0  0.99318870544E+01  0.54654427925E+02  0.27802510368E+02  0.62126712894E+02  0.10000000000E+01 0.  0.
<mgrwt>
<rscale>  0 0.12503609E+03</rscale>
<asrwt>0</asrwt>
<pdfrwt beam="2">  1        4 0.58833616E-02 0.12503609E+03</pdfrwt>
<pdfrwt beam="1">  1       -4 0.41520757E-01 0.12503609E+03</pdfrwt>
<totfact> 0.16732451E+03</totfact>
</mgrwt>
</event>
<event>
 5    1  0.1466870E-002  0.1249982E+03  0.7818608E-02  0.1235072E+00
          4   -1    0    0  501    0  0.00000000000E+00  0.00000000000E+00  0.83315728851E+03  0.83315825645E+03  0.12700000000E+01 0. -1.
         -4   -1    0    0    0  501 -0.00000000000E+00 -0.00000000000E+00 -0.46013600277E+01  0.47734069703E+01  0.12700000000E+01 0. -1.
         25    2    1    2    0    0  0.00000000000E+00  0.00000000000E+00  0.82855592848E+03  0.83793166342E+03  0.12499818377E+03 0.  0.
    9000005    1    3    3    0    0  0.36457400610E+02 -0.49688968757E+02  0.48362029476E+03  0.48753228117E+03  0.10000000000E+01 0.  0.
    9000005    1    3    3    0    0 -0.36457400610E+02  0.49688968757E+02  0.34493563372E+03  0.35039938225E+03  0.10000000000E+01 0.  0.
<mgrwt>
<rscale>  0 0.12499818E+03</rscale>
<asrwt>0</asrwt>
<pdfrwt beam="1">  1        4 0.20831098E+00 0.12499818E+03</pdfrwt>
<pdfrwt beam="2">  1       -4 0.11719667E-02 0.12499818E+03</pdfrwt>
<totfact> 0.49229324E+02</totfact>
</mgrwt>
</event>
<event>
 5    1  0.1466870E-002  0.1250018E+03  0.7818608E-02  0.1235066E+00
         -4   -1    0    0    0  501 -0.00000000000E+00  0.00000000000E+00  0.41746975459E+02  0.41766288559E+02  0.12700000000E+01 0. -1.
          4   -1    0    0  501    0  0.00000000000E+00 -0.00000000000E+00 -0.93527053283E+02  0.93535675524E+02  0.12700000000E+01 0. -1.
         25    2    1    2    0    0  0.00000000000E+00  0.00000000000E+00 -0.51780077824E+02  0.13530196408E+03  0.12500178009E+03 0.  0.
    9000005    1    3    3    0    0  0.10022293987E+02  0.58469730311E+02 -0.46185867154E+01  0.59510394744E+02  0.10000000000E+01 0.  0.
    9000005    1    3    3    0    0 -0.10022293987E+02 -0.58469730311E+02 -0.47161491108E+02  0.75791569339E+02  0.10000000000E+01 0.  0.
<mgrwt>
<rscale>  0 0.12500178E+03</rscale>
<asrwt>0</asrwt>
<pdfrwt beam="2">  1        4 0.23385255E-01 0.12500178E+03</pdfrwt>
<pdfrwt beam="1">  1       -4 0.10440236E-01 0.12500178E+03</pdfrwt>
<totfact> 0.19282531E+03</totfact>
</mgrwt>
</event>
<event>
 5    1  0.1466870E-002  0.1250037E+03  0.7818608E-02  0.1235064E+00
          4   -1    0    0  501    0  0.00000000000E+00  0.00000000000E+00  0.51280388695E+03  0.51280545958E+03  0.12700000000E+01 0.  1.
         -4   -1    0    0    0  501 -0.00000000000E+00 -0.00000000000E+00 -0.75633538898E+01  0.76692386886E+01  0.12700000000E+01 0.  1.
         25    2    1    2    0    0  0.00000000000E+00  0.00000000000E+00  0.50524053306E+03  0.52047469827E+03  0.12500366109E+03 0.  0.
    9000005    1    3    3    0    0  0.38283174462E+02 -0.12065811964E+02  0.45205526860E+03  0.45383493821E+03  0.10000000000E+01 0.  0.
    9000005    1    3    3    0    0 -0.38283174462E+02  0.12065811964E+02  0.53185264458E+02  0.66639760059E+02  0.10000000000E+01 0.  0.
<mgrwt>
<rscale>  0 0.12500366E+03</rscale>
<asrwt>0</asrwt>
<pdfrwt beam="1">  1        4 0.12821440E+00 0.12500366E+03</pdfrwt>
<pdfrwt beam="2">  1       -4 0.19042707E-02 0.12500366E+03</pdfrwt>
<totfact> 0.84432653E+02</totfact>
</mgrwt>
</event>
<event>
 5    1  0.1466870E-002  0.1249948E+03  0.7818608E-02  0.1235077E+00
          4   -1    0    0  501    0  0.00000000000E+00  0.00000000000E+00  0.61010176662E+03  0.61010308845E+03  0.12700000000E+01 0.  1.
         -4   -1    0    0    0  501 -0.00000000000E+00 -0.00000000000E+00 -0.63377580122E+01  0.64637509715E+01  0.12700000000E+01 0.  1.
         25    2    1    2    0    0  0.00000000000E+00  0.00000000000E+00  0.60376400861E+03  0.61656683942E+03  0.12499475741E+03 0.  0.
    9000005    1    3    3    0    0  0.28480878663E+01 -0.62210234968E+02  0.27639475908E+03  0.28332540970E+03  0.10000000000E+01 0.  0.
    9000005    1    3    3    0    0 -0.28480878663E+01  0.62210234968E+02  0.32736924953E+03  0.33324142972E+03  0.10000000000E+01 0.  0.
<mgrwt>
<rscale>  0 0.12499476E+03</rscale>
<asrwt>0</asrwt>
<pdfrwt beam="1">  1        4 0.15254133E+00 0.12499476E+03</pdfrwt>
<pdfrwt beam="2">  1       -4 0.16003541E-02 0.12499476E+03</pdfrwt>
<totfact> 0.71465315E+02</totfact>
</mgrwt>
</event>
<event>
 5    1  0.1466870E-002  0.1249923E+03  0.7818608E-02  0.1235081E+00
          4   -1    0    0  501    0  0.00000000000E+00  0.00000000000E+00  0.16219880074E+03  0.16220377265E+03  0.12700000000E+01 0.  1.
         -4   -1    0    0    0  501 -0.00000000000E+00 -0.00000000000E+00 -0.24058030482E+02  0.24091528193E+02  0.12700000000E+01 0.  1.
         25    2    1    2    0    0  0.00000000000E+00  0.00000000000E+00  0.13814077026E+03  0.18629530084E+03  0.12499226659E+03 0.  0.
    9000005    1    3    3    0    0 -0.32147940777E+01 -0.58458367864E+02  0.36516624684E+02  0.69008546953E+02  0.10000000000E+01 0.  0.
    9000005    1    3    3    0    0  0.32147940777E+01  0.58458367864E+02  0.10162414558E+03  0.11728675389E+03  0.10000000000E+01 0.  0.
<mgrwt>
<rscale>  0 0.12499227E+03</rscale>
<asrwt>0</asrwt>
<pdfrwt beam="1">  1        4 0.40554508E-01 0.12499227E+03</pdfrwt>
<pdfrwt beam="2">  1       -4 0.60193164E-02 0.12499227E+03</pdfrwt>
<totfact> 0.16888942E+03</totfact>
</mgrwt>
</event>
<event>
 5    1  0.1466870E-002  0.1250048E+03  0.7818608E-02  0.1235062E+00
          4   -1    0    0  501    0  0.00000000000E+00  0.00000000000E+00  0.59409758110E+02  0.59423330929E+02  0.12700000000E+01 0.  1.
         -4   -1    0    0    0  501 -0.00000000000E+00 -0.00000000000E+00 -0.65728783368E+02  0.65741051582E+02  0.12700000000E+01 0.  1.
         25    2    1    2    0    0  0.00000000000E+00  0.00000000000E+00 -0.63190252581E+01  0.12516438251E+03  0.12500477018E+03 0.  0.
    9000005    1    3    3    0    0  0.13873877499E+02 -0.36099774955E+02  0.45993594361E+02  0.60100656825E+02  0.10000000000E+01 0.  0.
    9000005    1    3    3    0    0 -0.13873877499E+02  0.36099774955E+02 -0.52312619619E+02  0.65063725685E+02  0.10000000000E+01 0.  0.
<mgrwt>
<rscale>  0 0.12500477E+03</rscale>
<asrwt>0</asrwt>
<pdfrwt beam="1">  1        4 0.14855670E-01 0.12500477E+03</pdfrwt>
<pdfrwt beam="2">  1       -4 0.16435426E-01 0.12500477E+03</pdfrwt>
<totfact> 0.19823930E+03</totfact>
</mgrwt>
</event>
<event>
 5    1  0.1466870E-002  0.1249993E+03  0.7818608E-02  0.1235070E+00
          4   -1    0    0  501    0  0.00000000000E+00  0.00000000000E+00  0.36880045552E+03  0.36880264219E+03  0.12700000000E+01 0.  1.
         -4   -1    0    0    0  501 -0.00000000000E+00 -0.00000000000E+00 -0.10551361498E+02  0.10627517559E+02  0.12700000000E+01 0.  1.
         25    2    1    2    0    0  0.00000000000E+00  0.00000000000E+00  0.35824909402E+03  0.37943015975E+03  0.12499933106E+03 0.  0.
    9000005    1    3    3    0    0  0.43226438727E+02 -0.28064333644E+02  0.71844574174E+02  0.88423835396E+02  0.10000000000E+01 0.  0.
    9000005    1    3    3    0    0 -0.43226438727E+02  0.28064333644E+02  0.28640451984E+03  0.29100632436E+03  0.10000000000E+01 0.  0.
<mgrwt>
<rscale>  0 0.12499933E+03</rscale>
<asrwt>0</asrwt>
<pdfrwt beam="1">  1        4 0.92209906E-01 0.12499933E+03</pdfrwt>
<pdfrwt beam="2">  1       -4 0.26476332E-02 0.12499933E+03</pdfrwt>
<totfact> 0.11005713E+03</totfact>
</mgrwt>
</event>
<event>
 5    1  0.1466870E-002  0.1249907E+03  0.7818608E-02  0.1235084E+00
          4   -1    0    0  501    0  0.00000000000E+00  0.00000000000E+00  0.12740851061E+03  0.12741484009E+03  0.12700000000E+01 0.  1.
         -4   -1    0    0    0  501 -0.00000000000E+00 -0.00000000000E+00 -0.30634427532E+02  0.30660741188E+02  0.12700000000E+01 0.  1.
         25    2    1    2    0    0  0.00000000000E+00  0.00000000000E+00  0.96774083079E+02  0.15807558128E+03  0.12499066462E+03 0.  0.
    9000005    1    3    3    0    0  0.61746846186E+02 -0.95666019953E+01  0.47516626453E+02  0.78504921356E+02  0.10000000000E+01 0.  0.
    9000005    1    3    3    0    0 -0.61746846186E+02  0.95666019953E+01  0.49257456626E+02  0.79570659925E+02  0.10000000000E+01 0.  0.
<mgrwt>
<rscale>  0 0.12499066E+03</rscale>
<asrwt>0</asrwt>
<pdfrwt beam="1">  1        4 0.31856208E-01 0.12499066E+03</pdfrwt>
<pdfrwt beam="2">  1       -4 0.76626873E-02 0.12499066E+03</pdfrwt>
<totfact> 0.18152637E+03</totfact>
</mgrwt>
</event>
<event>
 5    1  0.1466870E-002  0.1250008E+03  0.7818608E-02  0.1235068E+00
         -4   -1    0    0    0  501 -0.00000000000E+00  0.00000000000E+00  0.17234121583E+02  0.17280852025E+02  0.12700000000E+01 0. -1.
          4   -1    0    0  501    0  0.00000000000E+00 -0.00000000000E+00 -0.22630536371E+03  0.22630892723E+03  0.12700000000E+01 0. -1.
         25    2    1    2    0    0  0.00000000000E+00  0.00000000000E+00 -0.20907124212E+03  0.24358977925E+03  0.12500078509E+03 0.  0.
    9000005    1    3    3    0    0  0.51561445979E+02 -0.32477103104E+02 -0.77536784345E+02  0.98621994829E+02  0.10000000000E+01 0.  0.
    9000005    1    3    3    0    0 -0.51561445979E+02  0.32477103104E+02 -0.13153445778E+03  0.14496778442E+03  0.10000000000E+01 0.  0.
<mgrwt>
<rscale>  0 0.12500079E+03</rscale>
<asrwt>0</asrwt>
<pdfrwt beam="2">  1        4 0.56582618E-01 0.12500079E+03</pdfrwt>
<pdfrwt beam="1">  1       -4 0.43148179E-02 0.12500079E+03</pdfrwt>
<totfact> 0.14713310E+03</totfact>
</mgrwt>
</event>
<event>
 5    1  0.1466870E-002  0.1250221E+03  0.7818608E-02  0.1235035E+00
         -4   -1    0    0    0  501 -0.00000000000E+00  0.00000000000E+00  0.85958100166E+02  0.85967481551E+02  0.12700000000E+01 0.  1.
          4   -1    0    0  501    0  0.00000000000E+00 -0.00000000000E+00 -0.45438962937E+02  0.45456707457E+02  0.12700000000E+01 0.  1.
         25    2    1    2    0    0  0.00000000000E+00  0.00000000000E+00  0.40519137229E+02  0.13142418901E+03  0.12502206595E+03 0.  0.
    9000005    1    3    3    0    0  0.14988310625E+02  0.49044753867E+02 -0.17299488216E+02  0.54132334420E+02  0.10000000000E+01 0.  0.
    9000005    1    3    3    0    0 -0.14988310625E+02 -0.49044753867E+02  0.57818625445E+02  0.77291854587E+02  0.10000000000E+01 0.  0.
<mgrwt>
<rscale>  0 0.12502207E+03</rscale>
<asrwt>0</asrwt>
<pdfrwt beam="2">  1        4 0.11363132E-01 0.12502207E+03</pdfrwt>
<pdfrwt beam="1">  1       -4 0.21492916E-01 0.12502207E+03</pdfrwt>
<totfact> 0.19478088E+03</totfact>
</mgrwt>
</event>
<event>
 5    1  0.1466870E-002  0.1250013E+03  0.7818608E-02  0.1235067E+00
         -4   -1    0    0    0  501 -0.00000000000E+00  0.00000000000E+00  0.16202128105E+03  0.16202625841E+03  0.12700000000E+01 0.  1.
          4   -1    0    0  501    0  0.00000000000E+00 -0.00000000000E+00 -0.24087898938E+02  0.24121355170E+02  0.12700000000E+01 0.  1.
         25    2    1    2    0    0  0.00000000000E+00  0.00000000000E+00  0.13793338212E+03  0.18614761358E+03  0.12500126455E+03 0.  0.
    9000005    1    3    3    0    0  0.94142277423E+01  0.47867623760E+02  0.10805433129E+02  0.49976939417E+02  0.10000000000E+01 0.  0.
    9000005    1    3    3    0    0 -0.94142277423E+01 -0.47867623760E+02  0.12712794899E+03  0.13617067416E+03  0.10000000000E+01 0.  0.
<mgrwt>
<rscale>  0 0.12500126E+03</rscale>
<asrwt>0</asrwt>
<pdfrwt beam="2">  1        4 0.60267790E-02 0.12500126E+03</pdfrwt>
<pdfrwt beam="1">  1       -4 0.40510124E-01 0.12500126E+03</pdfrwt>
<totfact> 0.16891669E+03</totfact>
</mgrwt>
</event>
<event>
 5    1  0.1466870E-002  0.1250015E+03  0.7818608E-02  0.1235067E+00
         -4   -1    0    0    0  501 -0.00000000000E+00  0.00000000000E+00  0.17374171354E+03  0.17374635514E+03  0.12700000000E+01 0.  1.
          4   -1    0    0  501    0  0.00000000000E+00 -0.00000000000E+00 -0.22460730608E+02  0.22496606843E+02  0.12700000000E+01 0.  1.
         25    2    1    2    0    0  0.00000000000E+00  0.00000000000E+00  0.15128098294E+03  0.19624296199E+03  0.12500145731E+03 0.  0.
    9000005    1    3    3    0    0 -0.56437467935E+02  0.67716936994E+00  0.11775707920E+03  0.13058857548E+03  0.10000000000E+01 0.  0.
    9000005    1    3    3    0    0  0.56437467935E+02 -0.67716936994E+00  0.33523903739E+02  0.65654386504E+02  0.10000000000E+01 0.  0.
<mgrwt>
<rscale>  0 0.12500146E+03</rscale>
<asrwt>0</asrwt>
<pdfrwt beam="2">  1        4 0.56202475E-02 0.12500146E+03</pdfrwt>
<pdfrwt beam="1">  1       -4 0.43440492E-01 0.12500146E+03</pdfrwt>
<totfact> 0.16473037E+03</totfact>
</mgrwt>
</event>
<event>
 5    1  0.1466870E-002  0.1250007E+03  0.7818608E-02  0.1235068E+00
         -4   -1    0    0    0  501 -0.00000000000E+00  0.00000000000E+00  0.59123923560E+02  0.59137561982E+02  0.12700000000E+01 0.  1.
          4   -1    0    0  501    0  0.00000000000E+00 -0.00000000000E+00 -0.66042196860E+02  0.66054406863E+02  0.12700000000E+01 0.  1.
         25    2    1    2    0    0  0.00000000000E+00  0.00000000000E+00 -0.69182732999E+01  0.12519196884E+03  0.12500066623E+03 0.  0.
    9000005    1    3    3    0    0 -0.58446990961E+02  0.64817431145E+00  0.18683990885E+02  0.61372325993E+02  0.10000000000E+01 0.  0.
    9000005    1    3    3    0    0  0.58446990961E+02 -0.64817431145E+00 -0.25602264185E+02  0.63819642852E+02  0.10000000000E+01 0.  0.
<mgrwt>
<rscale>  0 0.12500067E+03</rscale>
<asrwt>0</asrwt>
<pdfrwt beam="2">  1        4 0.16513780E-01 0.12500067E+03</pdfrwt>
<pdfrwt beam="1">  1       -4 0.14784212E-01 0.12500067E+03</pdfrwt>
<totfact> 0.19824339E+03</totfact>
</mgrwt>
</event>
<event>
 5    1  0.1466870E-002  0.1250000E+03  0.7818608E-02  0.1235069E+00
         -4   -1    0    0    0  501 -0.00000000000E+00  0.00000000000E+00  0.62302312076E+02  0.62315254875E+02  0.12700000000E+01 0. -1.
          4   -1    0    0  501    0  0.00000000000E+00 -0.00000000000E+00 -0.62672380891E+02  0.62685247280E+02  0.12700000000E+01 0. -1.
         25    2    1    2    0    0  0.00000000000E+00  0.00000000000E+00 -0.37006881435E+00  0.12500050215E+03  0.12499995435E+03 0.  0.
    9000005    1    3    3    0    0  0.16866764955E+02 -0.51096756384E+02  0.31593727768E+02  0.62406168824E+02  0.10000000000E+01 0.  0.
    9000005    1    3    3    0    0 -0.16866764955E+02  0.51096756384E+02 -0.31963796583E+02  0.62594333330E+02  0.10000000000E+01 0.  0.
<mgrwt>
<rscale>  0 0.12499995E+03</rscale>
<asrwt>0</asrwt>
<pdfrwt beam="2">  1        4 0.15671321E-01 0.12499995E+03</pdfrwt>
<pdfrwt beam="1">  1       -4 0.15578804E-01 0.12499995E+03</pdfrwt>
<totfact> 0.19835049E+03</totfact>
</mgrwt>
</event>
<event>
 5    1  0.1466870E-002  0.1250010E+03  0.7818608E-02  0.1235068E+00
          4   -1    0    0  501    0  0.00000000000E+00  0.00000000000E+00  0.51544137659E+02  0.51559781100E+02  0.12700000000E+01 0.  1.
         -4   -1    0    0    0  501 -0.00000000000E+00 -0.00000000000E+00 -0.75753311674E+02  0.75763956666E+02  0.12700000000E+01 0.  1.
         25    2    1    2    0    0  0.00000000000E+00  0.00000000000E+00 -0.24209174015E+02  0.12732373777E+03  0.12500100036E+03 0.  0.
    9000005    1    3    3    0    0 -0.52377829775E+02 -0.22904130525E+02  0.13608828424E+02  0.58772752685E+02  0.10000000000E+01 0.  0.
    9000005    1    3    3    0    0  0.52377829775E+02  0.22904130525E+02 -0.37818002439E+02  0.68550985081E+02  0.10000000000E+01 0.  0.
<mgrwt>
<rscale>  0 0.12500100E+03</rscale>
<asrwt>0</asrwt>
<pdfrwt beam="1">  1        4 0.12889321E-01 0.12500100E+03</pdfrwt>
<pdfrwt beam="2">  1       -4 0.18941614E-01 0.12500100E+03</pdfrwt>
<totfact> 0.19708953E+03</totfact>
</mgrwt>
</event>
<event>
 5    1  0.1466870E-002  0.1249866E+03  0.7818608E-02  0.1235090E+00
          4   -1    0    0  501    0  0.00000000000E+00  0.00000000000E+00  0.66485154486E+02  0.66497283156E+02  0.12700000000E+01 0.  1.
         -4   -1    0    0    0  501 -0.00000000000E+00 -0.00000000000E+00 -0.58716792452E+02  0.58730525418E+02  0.12700000000E+01 0.  1.
         25    2    1    2    0    0  0.00000000000E+00  0.00000000000E+00  0.77683620339E+01  0.12522780857E+03  0.12498662565E+03 0.  0.
    9000005    1    3    3    0    0 -0.25682648507E+02 -0.51764742132E+02 -0.19936202983E+02  0.61136234360E+02  0.10000000000E+01 0.  0.
    9000005    1    3    3    0    0  0.25682648507E+02  0.51764742132E+02  0.27704565017E+02  0.64091574213E+02  0.10000000000E+01 0.  0.
<mgrwt>
<rscale>  0 0.12498663E+03</rscale>
<asrwt>0</asrwt>
<pdfrwt beam="1">  1        4 0.16624521E-01 0.12498663E+03</pdfrwt>
<pdfrwt beam="2">  1       -4 0.14682431E-01 0.12498663E+03</pdfrwt>
<totfact> 0.19828910E+03</totfact>
</mgrwt>
</event>
<event>
 5    1  0.1466870E-002  0.1249951E+03  0.7818608E-02  0.1235077E+00
         -4   -1    0    0    0  501 -0.00000000000E+00  0.00000000000E+00  0.50877146728E+01  0.52438288103E+01  0.12700000000E+01 0. -1.
          4   -1    0    0  501    0  0.00000000000E+00 -0.00000000000E+00 -0.75596338145E+03  0.75596444824E+03  0.12700000000E+01 0. -1.
         25    2    1    2    0    0  0.00000000000E+00  0.00000000000E+00 -0.75087566678E+03  0.76120827705E+03  0.12499509623E+03 0.  0.
    9000005    1    3    3    0    0  0.46581161973E+02 -0.41640040935E+02 -0.38223527196E+03  0.38730930893E+03  0.10000000000E+01 0.  0.
    9000005    1    3    3    0    0 -0.46581161973E+02  0.41640040935E+02 -0.36864039482E+03  0.37389896811E+03  0.10000000000E+01 0.  0.
<mgrwt>
<rscale>  0 0.12499510E+03</rscale>
<asrwt>0</asrwt>
<pdfrwt beam="2">  1        4 0.18901012E+00 0.12499510E+03</pdfrwt>
<pdfrwt beam="1">  1       -4 0.12915789E-02 0.12499510E+03</pdfrwt>
<totfact> 0.56016506E+02</totfact>
</mgrwt>
</event>
<event>
 5    1  0.1466870E-002  0.1249997E+03  0.7818608E-02  0.1235070E+00
          4   -1    0    0  501    0  0.00000000000E+00  0.00000000000E+00  0.17731798703E+03  0.17732253501E+03  0.12700000000E+01 0. -1.
         -4   -1    0    0    0  501 -0.00000000000E+00 -0.00000000000E+00 -0.22006398838E+02  0.22043014536E+02  0.12700000000E+01 0. -1.
         25    2    1    2    0    0  0.00000000000E+00  0.00000000000E+00  0.15531158819E+03  0.19936554955E+03  0.12499973168E+03 0.  0.
    9000005    1    3    3    0    0  0.83024359905E+01  0.61344098338E+02  0.64009661577E+02  0.89052038829E+02  0.10000000000E+01 0.  0.
    9000005    1    3    3    0    0 -0.83024359905E+01 -0.61344098338E+02  0.91301926611E+02  0.11031351072E+03  0.10000000000E+01 0.  0.
<mgrwt>
<rscale>  0 0.12499973E+03</rscale>
<asrwt>0</asrwt>
<pdfrwt beam="1">  1        4 0.44334641E-01 0.12499973E+03</pdfrwt>
<pdfrwt beam="2">  1       -4 0.55067453E-02 0.12499973E+03</pdfrwt>
<totfact> 0.16347578E+03</totfact>
</mgrwt>
</event>
<event>
 5    1  0.1466870E-002  0.1249865E+03  0.7818608E-02  0.1235090E+00
          4   -1    0    0  501    0  0.00000000000E+00  0.00000000000E+00  0.23955003991E+02  0.23988645568E+02  0.12700000000E+01 0. -1.
         -4   -1    0    0    0  501 -0.00000000000E+00 -0.00000000000E+00 -0.16288051170E+03  0.16288546280E+03  0.12700000000E+01 0. -1.
         25    2    1    2    0    0  0.00000000000E+00  0.00000000000E+00 -0.13892550771E+03  0.18687410837E+03  0.12498654202E+03 0.  0.
    9000005    1    3    3    0    0 -0.46380972583E+01 -0.59707364131E+02 -0.96122132718E+02  0.11325610657E+03  0.10000000000E+01 0.  0.
    9000005    1    3    3    0    0  0.46380972583E+01  0.59707364131E+02 -0.42803374990E+02  0.73618001795E+02  0.10000000000E+01 0.  0.
<mgrwt>
<rscale>  0 0.12498654E+03</rscale>
<asrwt>0</asrwt>
<pdfrwt beam="1">  1        4 0.59935756E-02 0.12498654E+03</pdfrwt>
<pdfrwt beam="2">  1       -4 0.40724949E-01 0.12498654E+03</pdfrwt>
<totfact> 0.16866731E+03</totfact>
</mgrwt>
</event>
<event>
 5    1  0.1466870E-002  0.1250012E+03  0.7818608E-02  0.1235067E+00
          4   -1    0    0  501    0  0.00000000000E+00  0.00000000000E+00  0.29776817665E+03  0.29777088496E+03  0.12700000000E+01 0.  1.
         -4   -1    0    0    0  501 -0.00000000000E+00 -0.00000000000E+00 -0.13085167481E+02  0.13146653871E+02  0.12700000000E+01 0.  1.
         25    2    1    2    0    0  0.00000000000E+00  0.00000000000E+00  0.28468300917E+03  0.31091753883E+03  0.12500120095E+03 0.  0.
    9000005    1    3    3    0    0 -0.35114650198E+02  0.26483705225E+02  0.31917548085E+02  0.54352140498E+02  0.10000000000E+01 0.  0.
    9000005    1    3    3    0    0  0.35114650198E+02 -0.26483705225E+02  0.25276546109E+03  0.25656539833E+03  0.10000000000E+01 0.  0.
<mgrwt>
<rscale>  0 0.12500120E+03</rscale>
<asrwt>0</asrwt>
<pdfrwt beam="1">  1        4 0.74450062E-01 0.12500120E+03</pdfrwt>
<pdfrwt beam="2">  1       -4 0.32793165E-02 0.12500120E+03</pdfrwt>
<totfact> 0.12670148E+03</totfact>
</mgrwt>
</event>
<event>
 5    1  0.1466870E-002  0.1250085E+03  0.7818608E-02  0.1235056E+00
          4   -1    0    0  501    0  0.00000000000E+00  0.00000000000E+00  0.11603054282E+03  0.11603749294E+03  0.12700000000E+01 0.  1.
         -4   -1    0    0    0  501 -0.00000000000E+00 -0.00000000000E+00 -0.33650328049E+02  0.33674285112E+02  0.12700000000E+01 0.  1.
         25    2    1    2    0    0  0.00000000000E+00  0.00000000000E+00  0.82380214775E+02  0.14971177805E+03  0.12500846652E+03 0.  0.
    9000005    1    3    3    0    0  0.15149846858E+02 -0.39070270304E+02 -0.14338025960E+02  0.44301048180E+02  0.10000000000E+01 0.  0.
    9000005    1    3    3    0    0 -0.15149846858E+02  0.39070270304E+02  0.96718240734E+02  0.10541072987E+03  0.10000000000E+01 0.  0.
<mgrwt>
<rscale>  0 0.12500847E+03</rscale>
<asrwt>0</asrwt>
<pdfrwt beam="1">  1        4 0.29011499E-01 0.12500847E+03</pdfrwt>
<pdfrwt beam="2">  1       -4 0.84164455E-02 0.12500847E+03</pdfrwt>
<totfact> 0.18549307E+03</totfact>
</mgrwt>
</event>
<event>
 5    1  0.1466870E-002  0.1249999E+03  0.7818608E-02  0.1235069E+00
          4   -1    0    0  501    0  0.00000000000E+00  0.00000000000E+00  0.27406016755E+02  0.27435426994E+02  0.12700000000E+01 0.  1.
         -4   -1    0    0    0  501 -0.00000000000E+00 -0.00000000000E+00 -0.14242361976E+03  0.14242928198E+03  0.12700000000E+01 0.  1.
         25    2    1    2    0    0  0.00000000000E+00  0.00000000000E+00 -0.11501760300E+03  0.16986470897E+03  0.12499988142E+03 0.  0.
    9000005    1    3    3    0    0  0.36077849489E+02 -0.25670773000E+02  0.24169481958E+01  0.44355850220E+02  0.10000000000E+01 0.  0.
    9000005    1    3    3    0    0 -0.36077849489E+02  0.25670773000E+02 -0.11743455120E+03  0.12550885875E+03  0.10000000000E+01 0.  0.
<mgrwt>
<rscale>  0 0.12499988E+03</rscale>
<asrwt>0</asrwt>
<pdfrwt beam="1">  1        4 0.68558886E-02 0.12499988E+03</pdfrwt>
<pdfrwt beam="2">  1       -4 0.35610287E-01 0.12499988E+03</pdfrwt>
<totfact> 0.17603200E+03</totfact>
</mgrwt>
</event>
<event>
 5    1  0.1466870E-002  0.1249979E+03  0.7818608E-02  0.1235073E+00
          4   -1    0    0  501    0  0.00000000000E+00  0.00000000000E+00  0.14072667748E+03  0.14073240797E+03  0.12700000000E+01 0. -1.
         -4   -1    0    0    0  501 -0.00000000000E+00 -0.00000000000E+00 -0.27735935952E+02  0.27764996724E+02  0.12700000000E+01 0. -1.
         25    2    1    2    0    0  0.00000000000E+00  0.00000000000E+00  0.11299074153E+03  0.16849740470E+03  0.12499787086E+03 0.  0.
    9000005    1    3    3    0    0  0.49313973690E+02  0.12634835512E+02  0.10535203373E+03  0.11701093146E+03  0.10000000000E+01 0.  0.
    9000005    1    3    3    0    0 -0.49313973690E+02 -0.12634835512E+02  0.76387077910E+01  0.51486473235E+02  0.10000000000E+01 0.  0.
<mgrwt>
<rscale>  0 0.12499787E+03</rscale>
<asrwt>0</asrwt>
<pdfrwt beam="1">  1        4 0.35186018E-01 0.12499787E+03</pdfrwt>
<pdfrwt beam="2">  1       -4 0.69383329E-02 0.12499787E+03</pdfrwt>
<totfact> 0.17665907E+03</totfact>
</mgrwt>
</event>
<event>
 5    1  0.1466870E-002  0.1250032E+03  0.7818608E-02  0.1235064E+00
          4   -1    0    0  501    0  0.00000000000E+00  0.00000000000E+00  0.62931299345E+01  0.64199987829E+01  0.12700000000E+01 0. -1.
         -4   -1    0    0    0  501 -0.00000000000E+00 -0.00000000000E+00 -0.61442633407E+03  0.61442764659E+03  0.12700000000E+01 0. -1.
         25    2    1    2    0    0  0.00000000000E+00  0.00000000000E+00 -0.60813320413E+03  0.62084764538E+03  0.12500321915E+03 0.  0.
    9000005    1    3    3    0    0  0.28227517124E+02 -0.47220452360E+02 -0.45130817531E+03  0.45465001149E+03  0.10000000000E+01 0.  0.
    9000005    1    3    3    0    0 -0.28227517124E+02  0.47220452360E+02 -0.15682502882E+03  0.16619763389E+03  0.10000000000E+01 0.  0.
<mgrwt>
<rscale>  0 0.12500322E+03</rscale>
<asrwt>0</asrwt>
<pdfrwt beam="1">  1        4 0.15893072E-02 0.12500322E+03</pdfrwt>
<pdfrwt beam="2">  1       -4 0.15362240E+00 0.12500322E+03</pdfrwt>
<totfact> 0.70935088E+02</totfact>
</mgrwt>
</event>
<event>
 5    1  0.1466870E-002  0.1250022E+03  0.7818608E-02  0.1235066E+00
         -4   -1    0    0    0  501 -0.00000000000E+00  0.00000000000E+00  0.21975866858E+02  0.22012533343E+02  0.12700000000E+01 0.  1.
          4   -1    0    0  501    0  0.00000000000E+00 -0.00000000000E+00 -0.17757087551E+03  0.17757541702E+03  0.12700000000E+01 0.  1.
         25    2    1    2    0    0  0.00000000000E+00  0.00000000000E+00 -0.15559500865E+03  0.19958795036E+03  0.12500217283E+03 0.  0.
    9000005    1    3    3    0    0 -0.49136023283E+02  0.38109029054E+02 -0.67859697951E+02  0.92046648421E+02  0.10000000000E+01 0.  0.
    9000005    1    3    3    0    0  0.49136023283E+02 -0.38109029054E+02 -0.87735310702E+02  0.10754130194E+03  0.10000000000E+01 0.  0.
<mgrwt>
<rscale>  0 0.12500217E+03</rscale>
<asrwt>0</asrwt>
<pdfrwt beam="2">  1        4 0.44397865E-01 0.12500217E+03</pdfrwt>
<pdfrwt beam="1">  1       -4 0.54991183E-02 0.12500217E+03</pdfrwt>
<totfact> 0.16337733E+03</totfact>
</mgrwt>
</event>
<event>
 5    1  0.1466870E-002  0.1250131E+03  0.7818608E-02  0.1235049E+00
          4   -1    0    0  501    0  0.00000000000E+00  0.00000000000E+00  0.70847849531E+01  0.71977133752E+01  0.12700000000E+01 0.  1.
         -4   -1    0    0    0  501 -0.00000000000E+00 -0.00000000000E+00 -0.54699927977E+03  0.54700075409E+03  0.12700000000E+01 0.  1.
         25    2    1    2    0    0  0.00000000000E+00  0.00000000000E+00 -0.53991449482E+03  0.55419846746E+03  0.12501311780E+03 0.  0.
    9000005    1    3    3    0    0 -0.46479867645E+01  0.49732274036E+02 -0.43648972628E+03  0.43933948606E+03  0.10000000000E+01 0.  0.
    9000005    1    3    3    0    0  0.46479867645E+01 -0.49732274036E+02 -0.10342476854E+03  0.11485898141E+03  0.10000000000E+01 0.  0.
<mgrwt>
<rscale>  0 0.12501312E+03</rscale>
<asrwt>0</asrwt>
<pdfrwt beam="1">  1        4 0.17854984E-02 0.12501312E+03</pdfrwt>
<pdfrwt beam="2">  1       -4 0.13676398E+00 0.12501312E+03</pdfrwt>
<totfact> 0.79560969E+02</totfact>
</mgrwt>
</event>
<event>
 4    1  0.1466870E-002  0.1247849E+03  0.7818608E-02  0.1235406E+00
          4   -1    0    0  501    0  0.00000000000E+00  0.00000000000E+00  0.31348282293E+02  0.31373997238E+02  0.12700000000E+01 0.  1.
         -4   -1    0    0    0  501 -0.00000000000E+00 -0.00000000000E+00 -0.12409981762E+03  0.12410631585E+03  0.12700000000E+01 0.  1.
    9000005    1    1    2    0    0  0.37367359840E+02  0.40385167685E+02 -0.83011550683E+02  0.99595175069E+02  0.10000000000E+01 0.  0.
    9000005    1    1    2    0    0 -0.37367359840E+02 -0.40385167685E+02 -0.97399846444E+01  0.55885138017E+02  0.10000000000E+01 0.  0.
<mgrwt>
<rscale>  0 0.12478494E+03</rscale>
<asrwt>0</asrwt>
<pdfrwt beam="1">  1        4 0.78410975E-02 0.12478494E+03</pdfrwt>
<pdfrwt beam="2">  1       -4 0.31028980E-01 0.12478494E+03</pdfrwt>
<totfact> 0.18364240E+03</totfact>
</mgrwt>
</event>
<event>
 5    1  0.1466870E-002  0.1249999E+03  0.7818608E-02  0.1235069E+00
          4   -1    0    0  501    0  0.00000000000E+00  0.00000000000E+00  0.54847575899E+02  0.54862277404E+02  0.12700000000E+01 0. -1.
         -4   -1    0    0    0  501 -0.00000000000E+00 -0.00000000000E+00 -0.71190097174E+02  0.71201424393E+02  0.12700000000E+01 0. -1.
         25    2    1    2    0    0  0.00000000000E+00  0.00000000000E+00 -0.16342521275E+02  0.12606370180E+03  0.12499991564E+03 0.  0.
    9000005    1    3    3    0    0  0.62163251650E+02  0.33413115324E+01 -0.26648951973E+01  0.62318022151E+02  0.10000000000E+01 0.  0.
    9000005    1    3    3    0    0 -0.62163251650E+02 -0.33413115324E+01 -0.13677626078E+02  0.63745679646E+02  0.10000000000E+01 0.  0.
<mgrwt>
<rscale>  0 0.12499992E+03</rscale>
<asrwt>0</asrwt>
<pdfrwt beam="1">  1        4 0.13715148E-01 0.12499992E+03</pdfrwt>
<pdfrwt beam="2">  1       -4 0.17800778E-01 0.12499992E+03</pdfrwt>
<totfact> 0.19777517E+03</totfact>
</mgrwt>
</event>
<event>
 5    1  0.1466870E-002  0.1250190E+03  0.7818608E-02  0.1235040E+00
          4   -1    0    0  501    0  0.00000000000E+00  0.00000000000E+00  0.27795733960E+02  0.27824732279E+02  0.12700000000E+01 0.  1.
         -4   -1    0    0    0  501 -0.00000000000E+00 -0.00000000000E+00 -0.14047162464E+03  0.14047736554E+03  0.12700000000E+01 0.  1.
         25    2    1    2    0    0  0.00000000000E+00  0.00000000000E+00 -0.11267589068E+03  0.16830209782E+03  0.12501895772E+03 0.  0.
    9000005    1    3    3    0    0  0.28286315813E+01  0.11344810808E+02  0.26316977365E+02  0.28814739050E+02  0.10000000000E+01 0.  0.
    9000005    1    3    3    0    0 -0.28286315813E+01 -0.11344810808E+02 -0.13899286804E+03  0.13948735877E+03  0.10000000000E+01 0.  0.
<mgrwt>
<rscale>  0 0.12501896E+03</rscale>
<asrwt>0</asrwt>
<pdfrwt beam="1">  1        4 0.69532763E-02 0.12501896E+03</pdfrwt>
<pdfrwt beam="2">  1       -4 0.35122247E-01 0.12501896E+03</pdfrwt>
<totfact> 0.17666126E+03</totfact>
</mgrwt>
</event>
<event>
 5    1  0.1466870E-002  0.1249996E+03  0.7818608E-02  0.1235070E+00
         -4   -1    0    0    0  501 -0.00000000000E+00  0.00000000000E+00  0.20095048444E+03  0.20095449758E+03  0.12700000000E+01 0. -1.
          4   -1    0    0  501    0  0.00000000000E+00 -0.00000000000E+00 -0.19413790107E+02  0.19455285820E+02  0.12700000000E+01 0. -1.
         25    2    1    2    0    0  0.00000000000E+00  0.00000000000E+00  0.18153669433E+03  0.22040978340E+03  0.12499960491E+03 0.  0.
    9000005    1    3    3    0    0  0.73592757944E+01  0.29331530320E+02  0.18719801344E+03  0.18962751342E+03  0.10000000000E+01 0.  0.
    9000005    1    3    3    0    0 -0.73592757944E+01 -0.29331530320E+02 -0.56613191017E+01  0.30782269980E+02  0.10000000000E+01 0.  0.
<mgrwt>
<rscale>  0 0.12499960E+03</rscale>
<asrwt>0</asrwt>
<pdfrwt beam="2">  1        4 0.48591362E-02 0.12499960E+03</pdfrwt>
<pdfrwt beam="1">  1       -4 0.50243309E-01 0.12499960E+03</pdfrwt>
<totfact> 0.15536296E+03</totfact>
</mgrwt>
</event>
<event>
 5    1  0.1466870E-002  0.1249992E+03  0.7818608E-02  0.1235070E+00
         -4   -1    0    0    0  501 -0.00000000000E+00  0.00000000000E+00  0.18719355675E+03  0.18719786481E+03  0.12700000000E+01 0. -1.
          4   -1    0    0  501    0  0.00000000000E+00 -0.00000000000E+00 -0.20843306130E+02  0.20881961364E+02  0.12700000000E+01 0. -1.
         25    2    1    2    0    0  0.00000000000E+00  0.00000000000E+00  0.16635025062E+03  0.20807982618E+03  0.12499923271E+03 0.  0.
    9000005    1    3    3    0    0 -0.43516609613E+02  0.25498748195E+02  0.14459413832E+03  0.15314158909E+03  0.10000000000E+01 0.  0.
    9000005    1    3    3    0    0  0.43516609613E+02 -0.25498748195E+02  0.21756112304E+02  0.54938237088E+02  0.10000000000E+01 0.  0.
<mgrwt>
<rscale>  0 0.12499923E+03</rscale>
<asrwt>0</asrwt>
<pdfrwt beam="2">  1        4 0.52161970E-02 0.12499923E+03</pdfrwt>
<pdfrwt beam="1">  1       -4 0.46803759E-01 0.12499923E+03</pdfrwt>
<totfact> 0.16003829E+03</totfact>
</mgrwt>
</event>
<event>
 5    1  0.1466870E-002  0.1250028E+03  0.7818608E-02  0.1235065E+00
          4   -1    0    0  501    0  0.00000000000E+00  0.00000000000E+00  0.25905393948E+03  0.25905705252E+03  0.12700000000E+01 0.  1.
         -4   -1    0    0    0  501 -0.00000000000E+00 -0.00000000000E+00 -0.15049632234E+02  0.15103123200E+02  0.12700000000E+01 0.  1.
         25    2    1    2    0    0  0.00000000000E+00  0.00000000000E+00  0.24400430724E+03  0.27416017572E+03  0.12500279995E+03 0.  0.
    9000005    1    3    3    0    0  0.44051644649E+02 -0.17778361318E+02  0.32944837630E+02  0.57818507884E+02  0.10000000000E+01 0.  0.
    9000005    1    3    3    0    0 -0.44051644649E+02  0.17778361318E+02  0.21105946961E+03  0.21634166783E+03  0.10000000000E+01 0.  0.
<mgrwt>
<rscale>  0 0.12500280E+03</rscale>
<asrwt>0</asrwt>
<pdfrwt beam="1">  1        4 0.64770562E-01 0.12500280E+03</pdfrwt>
<pdfrwt beam="2">  1       -4 0.37694835E-02 0.12500280E+03</pdfrwt>
<totfact> 0.13726591E+03</totfact>
</mgrwt>
</event>
<event>
 5    1  0.1466870E-002  0.1250153E+03  0.7818608E-02  0.1235045E+00
          4   -1    0    0  501    0  0.00000000000E+00  0.00000000000E+00  0.16214628148E+03  0.16215125500E+03  0.12700000000E+01 0. -1.
         -4   -1    0    0    0  501 -0.00000000000E+00 -0.00000000000E+00 -0.24074708011E+02  0.24108182549E+02  0.12700000000E+01 0. -1.
         25    2    1    2    0    0  0.00000000000E+00  0.00000000000E+00  0.13807157347E+03  0.18625943755E+03  0.12501527377E+03 0.  0.
    9000005    1    3    3    0    0 -0.49640524745E+02 -0.19431834427E+02  0.11764438615E+03  0.12916260867E+03  0.10000000000E+01 0.  0.
    9000005    1    3    3    0    0  0.49640524745E+02  0.19431834427E+02  0.20427187322E+02  0.57096828879E+02  0.10000000000E+01 0.  0.
<mgrwt>
<rscale>  0 0.12501527E+03</rscale>
<asrwt>0</asrwt>
<pdfrwt beam="1">  1        4 0.40541375E-01 0.12501527E+03</pdfrwt>
<pdfrwt beam="2">  1       -4 0.60234832E-02 0.12501527E+03</pdfrwt>
<totfact> 0.16881462E+03</totfact>
</mgrwt>
</event>
<event>
 5    1  0.1466870E-002  0.1250017E+03  0.7818608E-02  0.1235067E+00
          4   -1    0    0  501    0  0.00000000000E+00  0.00000000000E+00  0.71284411681E+02  0.71295723916E+02  0.12700000000E+01 0.  1.
         -4   -1    0    0    0  501 -0.00000000000E+00 -0.00000000000E+00 -0.54776575889E+02  0.54791296445E+02  0.12700000000E+01 0.  1.
         25    2    1    2    0    0  0.00000000000E+00  0.00000000000E+00  0.16507835792E+02  0.12608702036E+03  0.12500171223E+03 0.  0.
    9000005    1    3    3    0    0 -0.23305117903E+02 -0.48653295714E+02  0.40072775100E+02  0.67209366970E+02  0.10000000000E+01 0.  0.
    9000005    1    3    3    0    0  0.23305117903E+02  0.48653295714E+02 -0.23564939308E+02  0.58877653391E+02  0.10000000000E+01 0.  0.
<mgrwt>
<rscale>  0 0.12500171E+03</rscale>
<asrwt>0</asrwt>
<pdfrwt beam="1">  1        4 0.17824357E-01 0.12500171E+03</pdfrwt>
<pdfrwt beam="2">  1       -4 0.13697398E-01 0.12500171E+03</pdfrwt>
<totfact> 0.19775426E+03</totfact>
</mgrwt>
</event>
<event>
 5    1  0.1466870E-002  0.1250036E+03  0.7818608E-02  0.1235064E+00
          4   -1    0    0  501    0  0.00000000000E+00  0.00000000000E+00  0.21661278138E+02  0.21698476227E+02  0.12700000000E+01 0. -1.
         -4   -1    0    0    0  501 -0.00000000000E+00 -0.00000000000E+00 -0.18014942010E+03  0.18015389661E+03  0.12700000000E+01 0. -1.
         25    2    1    2    0    0  0.00000000000E+00  0.00000000000E+00 -0.15848814196E+03  0.20185237283E+03  0.12500355705E+03 0.  0.
    9000005    1    3    3    0    0 -0.27452584349E+02 -0.55529750547E+02 -0.92586702781E+02  0.11140240175E+03  0.10000000000E+01 0.  0.
    9000005    1    3    3    0    0  0.27452584349E+02  0.55529750547E+02 -0.65901439181E+02  0.90449971086E+02  0.10000000000E+01 0.  0.
<mgrwt>
<rscale>  0 0.12500356E+03</rscale>
<asrwt>0</asrwt>
<pdfrwt beam="1">  1        4 0.54205294E-02 0.12500356E+03</pdfrwt>
<pdfrwt beam="2">  1       -4 0.45042560E-01 0.12500356E+03</pdfrwt>
<totfact> 0.16246802E+03</totfact>
</mgrwt>
</event>
<event>
 5    1  0.1466870E-002  0.1249970E+03  0.7818608E-02  0.1235074E+00
         -4   -1    0    0    0  501 -0.00000000000E+00  0.00000000000E+00  0.14343712842E+03  0.14344275063E+03  0.12700000000E+01 0. -1.
          4   -1    0    0  501    0  0.00000000000E+00 -0.00000000000E+00 -0.27210909311E+02  0.27240530199E+02  0.12700000000E+01 0. -1.
         25    2    1    2    0    0  0.00000000000E+00  0.00000000000E+00  0.11622621911E+03  0.17068328083E+03  0.12499699335E+03 0.  0.
    9000005    1    3    3    0    0  0.19602416327E+02 -0.12883299254E+02 -0.20977794986E+02  0.31484948912E+02  0.10000000000E+01 0.  0.
    9000005    1    3    3    0    0 -0.19602416327E+02  0.12883299254E+02  0.13720401409E+03  0.13919833192E+03  0.10000000000E+01 0.  0.
<mgrwt>
<rscale>  0 0.12499699E+03</rscale>
<asrwt>0</asrwt>
<pdfrwt beam="2">  1        4 0.68071328E-02 0.12499699E+03</pdfrwt>
<pdfrwt beam="1">  1       -4 0.35863687E-01 0.12499699E+03</pdfrwt>
<totfact> 0.17567498E+03</totfact>
</mgrwt>
</event>
<event>
 5    1  0.1466870E-002  0.1250030E+03  0.7818608E-02  0.1235065E+00
         -4   -1    0    0    0  501 -0.00000000000E+00  0.00000000000E+00  0.87869892287E+02  0.87879069582E+02  0.12700000000E+01 0. -1.
          4   -1    0    0  501    0  0.00000000000E+00 -0.00000000000E+00 -0.44436495217E+02  0.44454639884E+02  0.12700000000E+01 0. -1.
         25    2    1    2    0    0  0.00000000000E+00  0.00000000000E+00  0.43433397070E+02  0.13233370947E+03  0.12500300268E+03 0.  0.
    9000005    1    3    3    0    0  0.27357459793E+02 -0.24236562003E+02 -0.31947231608E+02  0.48553755277E+02  0.10000000000E+01 0.  0.
    9000005    1    3    3    0    0 -0.27357459793E+02  0.24236562003E+02  0.75380628678E+02  0.83779954189E+02  0.10000000000E+01 0.  0.
<mgrwt>
<rscale>  0 0.12500300E+03</rscale>
<asrwt>0</asrwt>
<pdfrwt beam="2">  1        4 0.11112539E-01 0.12500300E+03</pdfrwt>
<pdfrwt beam="1">  1       -4 0.21970888E-01 0.12500300E+03</pdfrwt>
<totfact> 0.19438362E+03</totfact>
</mgrwt>
</event>
<event>
 5    1  0.1466870E-002  0.1249998E+03  0.7818608E-02  0.1235070E+00
         -4   -1    0    0    0  501 -0.00000000000E+00  0.00000000000E+00  0.50623641401E+02  0.50639569199E+02  0.12700000000E+01 0. -1.
          4   -1    0    0  501    0  0.00000000000E+00 -0.00000000000E+00 -0.77128977650E+02  0.77139432804E+02  0.12700000000E+01 0. -1.
         25    2    1    2    0    0  0.00000000000E+00  0.00000000000E+00 -0.26505336249E+02  0.12777900200E+03  0.12499976201E+03 0.  0.
    9000005    1    3    3    0    0  0.13733235555E+02 -0.15099032255E+01 -0.75553224624E+02  0.76812572654E+02  0.10000000000E+01 0.  0.
    9000005    1    3    3    0    0 -0.13733235555E+02  0.15099032255E+01  0.49047888376E+02  0.50966429350E+02  0.10000000000E+01 0.  0.
<mgrwt>
<rscale>  0 0.12499976E+03</rscale>
<asrwt>0</asrwt>
<pdfrwt beam="2">  1        4 0.19285542E-01 0.12499976E+03</pdfrwt>
<pdfrwt beam="1">  1       -4 0.12659208E-01 0.12499976E+03</pdfrwt>
<totfact> 0.19684677E+03</totfact>
</mgrwt>
</event>
<event>
 5    1  0.1466870E-002  0.1249988E+03  0.7818608E-02  0.1235071E+00
         -4   -1    0    0    0  501 -0.00000000000E+00  0.00000000000E+00  0.38909772189E+01  0.40929944683E+01  0.12700000000E+01 0. -1.
          4   -1    0    0  501    0  0.00000000000E+00 -0.00000000000E+00 -0.97830209928E+03  0.97830292361E+03  0.12700000000E+01 0. -1.
         25    2    1    2    0    0  0.00000000000E+00  0.00000000000E+00 -0.97441112206E+03  0.98239591808E+03  0.12499882028E+03 0.  0.
    9000005    1    3    3    0    0 -0.25607442847E+01  0.40801270018E+02 -0.11574724078E+03  0.12275880740E+03  0.10000000000E+01 0.  0.
    9000005    1    3    3    0    0  0.25607442847E+01 -0.40801270018E+02 -0.85866388128E+03  0.85963711068E+03  0.10000000000E+01 0.  0.
<mgrwt>
<rscale>  0 0.12499882E+03</rscale>
<asrwt>0</asrwt>
<pdfrwt beam="2">  1        4 0.24460006E+00 0.12499882E+03</pdfrwt>
<pdfrwt beam="1">  1       -4 0.99810285E-03 0.12499882E+03</pdfrwt>
<totfact> 0.38307102E+02</totfact>
</mgrwt>
</event>
<event>
 5    1  0.1466870E-002  0.1250014E+03  0.7818608E-02  0.1235067E+00
         -4   -1    0    0    0  501 -0.00000000000E+00  0.00000000000E+00  0.25235429073E+02  0.25267365919E+02  0.12700000000E+01 0.  1.
          4   -1    0    0  501    0  0.00000000000E+00 -0.00000000000E+00 -0.15466329254E+03  0.15466850668E+03  0.12700000000E+01 0.  1.
         25    2    1    2    0    0  0.00000000000E+00  0.00000000000E+00 -0.12942786347E+03  0.17993587260E+03  0.12500138562E+03 0.  0.
    9000005    1    3    3    0    0  0.81040171530E+01  0.53956998424E+02 -0.20856015063E+02  0.58420939202E+02  0.10000000000E+01 0.  0.
    9000005    1    3    3    0    0 -0.81040171530E+01 -0.53956998424E+02 -0.10857184840E+03  0.12151493340E+03  0.10000000000E+01 0.  0.
<mgrwt>
<rscale>  0 0.12500139E+03</rscale>
<asrwt>0</asrwt>
<pdfrwt beam="2">  1        4 0.38670464E-01 0.12500139E+03</pdfrwt>
<pdfrwt beam="1">  1       -4 0.63135016E-02 0.12500139E+03</pdfrwt>
<totfact> 0.17157439E+03</totfact>
</mgrwt>
</event>
<event>
 5    1  0.1466870E-002  0.1249828E+03  0.7818608E-02  0.1235096E+00
         -4   -1    0    0    0  501 -0.00000000000E+00  0.00000000000E+00  0.46495362996E+02  0.46512704502E+02  0.12700000000E+01 0.  1.
          4   -1    0    0  501    0  0.00000000000E+00 -0.00000000000E+00 -0.83952837451E+02  0.83962442890E+02  0.12700000000E+01 0.  1.
         25    2    1    2    0    0  0.00000000000E+00  0.00000000000E+00 -0.37457474456E+02  0.13047514739E+03  0.12498280560E+03 0.  0.
    9000005    1    3    3    0    0  0.24595302505E+02 -0.54280507635E+02  0.88167609361E+00  0.59607715668E+02  0.10000000000E+01 0.  0.
    9000005    1    3    3    0    0 -0.24595302505E+02  0.54280507635E+02 -0.38339150549E+02  0.70867431725E+02  0.10000000000E+01 0.  0.
<mgrwt>
<rscale>  0 0.12498281E+03</rscale>
<asrwt>0</asrwt>
<pdfrwt beam="2">  1        4 0.20991578E-01 0.12498281E+03</pdfrwt>
<pdfrwt beam="1">  1       -4 0.11627209E-01 0.12498281E+03</pdfrwt>
<totfact> 0.19546717E+03</totfact>
</mgrwt>
</event>
<event>
 5    1  0.1466870E-002  0.1250011E+03  0.7818608E-02  0.1235067E+00
          4   -1    0    0  501    0  0.00000000000E+00  0.00000000000E+00  0.14385430094E+03  0.14385990685E+03  0.12700000000E+01 0. -1.
         -4   -1    0    0    0  501 -0.00000000000E+00 -0.00000000000E+00 -0.27133721309E+02  0.27163426368E+02  0.12700000000E+01 0. -1.
         25    2    1    2    0    0  0.00000000000E+00  0.00000000000E+00  0.11672057963E+03  0.17102333322E+03  0.12500114718E+03 0.  0.
    9000005    1    3    3    0    0 -0.25364442052E+02  0.56417465264E+02  0.70523687878E+02  0.93812983426E+02  0.10000000000E+01 0.  0.
    9000005    1    3    3    0    0  0.25364442052E+02 -0.56417465264E+02  0.46196891755E+02  0.77210349794E+02  0.10000000000E+01 0.  0.
<mgrwt>
<rscale>  0 0.12500115E+03</rscale>
<asrwt>0</asrwt>
<pdfrwt beam="1">  1        4 0.35967989E-01 0.12500115E+03</pdfrwt>
<pdfrwt beam="2">  1       -4 0.67878442E-02 0.12500115E+03</pdfrwt>
<totfact> 0.17550522E+03</totfact>
</mgrwt>
</event>
<event>
 5    1  0.1466870E-002  0.1250017E+03  0.7818608E-02  0.1235067E+00
          4   -1    0    0  501    0  0.00000000000E+00  0.00000000000E+00  0.26587571370E+02  0.26617885929E+02  0.12700000000E+01 0. -1.
         -4   -1    0    0    0  501 -0.00000000000E+00 -0.00000000000E+00 -0.14680727524E+03  0.14681276840E+03  0.12700000000E+01 0. -1.
         25    2    1    2    0    0  0.00000000000E+00  0.00000000000E+00 -0.12021970387E+03  0.17343065433E+03  0.12500165863E+03 0.  0.
    9000005    1    3    3    0    0 -0.25254398358E+02 -0.49442182534E+02 -0.99913278118E+02  0.11430650548E+03  0.10000000000E+01 0.  0.
    9000005    1    3    3    0    0  0.25254398358E+02  0.49442182534E+02 -0.20306425756E+02  0.59124148849E+02  0.10000000000E+01 0.  0.
<mgrwt>
<rscale>  0 0.12500166E+03</rscale>
<asrwt>0</asrwt>
<pdfrwt beam="1">  1        4 0.66513692E-02 0.12500166E+03</pdfrwt>
<pdfrwt beam="2">  1       -4 0.36706293E-01 0.12500166E+03</pdfrwt>
<totfact> 0.17442740E+03</totfact>
</mgrwt>
</event>
<event>
 5    1  0.1466870E-002  0.1249965E+03  0.7818608E-02  0.1235075E+00
          4   -1    0    0  501    0  0.00000000000E+00  0.00000000000E+00  0.29864391932E+02  0.29891383465E+02  0.12700000000E+01 0.  1.
         -4   -1    0    0    0  501 -0.00000000000E+00 -0.00000000000E+00 -0.13070312794E+03  0.13070929788E+03  0.12700000000E+01 0.  1.
         25    2    1    2    0    0  0.00000000000E+00  0.00000000000E+00 -0.10083873601E+03  0.16060068135E+03  0.12499651263E+03 0.  0.
    9000005    1    3    3    0    0  0.56856312477E+02 -0.36740889588E+01 -0.83399841201E+02  0.10100828041E+03  0.10000000000E+01 0.  0.
    9000005    1    3    3    0    0 -0.56856312477E+02  0.36740889588E+01 -0.17438894808E+02  0.59592400944E+02  0.10000000000E+01 0.  0.
<mgrwt>
<rscale>  0 0.12499651E+03</rscale>
<asrwt>0</asrwt>
<pdfrwt beam="1">  1        4 0.74702435E-02 0.12499651E+03</pdfrwt>
<pdfrwt beam="2">  1       -4 0.32679926E-01 0.12499651E+03</pdfrwt>
<totfact> 0.18030983E+03</totfact>
</mgrwt>
</event>
<event>
 5    1  0.1466870E-002  0.1250056E+03  0.7818608E-02  0.1235061E+00
          4   -1    0    0  501    0  0.00000000000E+00  0.00000000000E+00  0.13925372885E+03  0.13925951996E+03  0.12700000000E+01 0. -1.
         -4   -1    0    0    0  501 -0.00000000000E+00 -0.00000000000E+00 -0.28033065187E+02  0.28061818255E+02  0.12700000000E+01 0. -1.
         25    2    1    2    0    0  0.00000000000E+00  0.00000000000E+00  0.11122066367E+03  0.16732133822E+03  0.12500557666E+03 0.  0.
    9000005    1    3    3    0    0 -0.39054124908E+02  0.41174597004E+02  0.20577470663E+02  0.60373871912E+02  0.10000000000E+01 0.  0.
    9000005    1    3    3    0    0  0.39054124908E+02 -0.41174597004E+02  0.90643193005E+02  0.10694746630E+03  0.10000000000E+01 0.  0.
<mgrwt>
<rscale>  0 0.12500558E+03</rscale>
<asrwt>0</asrwt>
<pdfrwt beam="1">  1        4 0.34817750E-01 0.12500558E+03</pdfrwt>
<pdfrwt beam="2">  1       -4 0.70125844E-02 0.12500558E+03</pdfrwt>
<totfact> 0.17716253E+03</totfact>
</mgrwt>
</event>
<event>
 5    1  0.1466870E-002  0.1250021E+03  0.7818608E-02  0.1235066E+00
         -4   -1    0    0    0  501 -0.00000000000E+00  0.00000000000E+00  0.67196950299E+02  0.67208950516E+02  0.12700000000E+01 0.  1.
          4   -1    0    0  501    0  0.00000000000E+00 -0.00000000000E+00 -0.58109176531E+02  0.58123053060E+02  0.12700000000E+01 0.  1.
         25    2    1    2    0    0  0.00000000000E+00  0.00000000000E+00  0.90877737682E+01  0.12533200358E+03  0.12500209394E+03 0.  0.
    9000005    1    3    3    0    0  0.42179784081E+02 -0.39883747664E+02  0.27746556646E+02  0.64348418151E+02  0.10000000000E+01 0.  0.
    9000005    1    3    3    0    0 -0.42179784081E+02  0.39883747664E+02 -0.18658782878E+02  0.60983585425E+02  0.10000000000E+01 0.  0.
<mgrwt>
<rscale>  0 0.12500209E+03</rscale>
<asrwt>0</asrwt>
<pdfrwt beam="2">  1        4 0.14530529E-01 0.12500209E+03</pdfrwt>
<pdfrwt beam="1">  1       -4 0.16802472E-01 0.12500209E+03</pdfrwt>
<totfact> 0.19816090E+03</totfact>
</mgrwt>
</event>
<event>
 5    1  0.1466870E-002  0.1250023E+03  0.7818608E-02  0.1235066E+00
          4   -1    0    0  501    0  0.00000000000E+00  0.00000000000E+00  0.69868950695E+03  0.69869066118E+03  0.12700000000E+01 0.  1.
         -4   -1    0    0    0  501 -0.00000000000E+00 -0.00000000000E+00 -0.55177330261E+01  0.56620029802E+01  0.12700000000E+01 0.  1.
         25    2    1    2    0    0  0.00000000000E+00  0.00000000000E+00  0.69317177392E+03  0.70435266416E+03  0.12500226937E+03 0.  0.
    9000005    1    3    3    0    0 -0.61508855506E+02 -0.11045514465E+02  0.34533679297E+03  0.35094706620E+03  0.10000000000E+01 0.  0.
    9000005    1    3    3    0    0  0.61508855506E+02  0.11045514465E+02  0.34783498095E+03  0.35340559796E+03  0.10000000000E+01 0.  0.
<mgrwt>
<rscale>  0 0.12500227E+03</rscale>
<asrwt>0</asrwt>
<pdfrwt beam="1">  1        4 0.17469058E+00 0.12500227E+03</pdfrwt>
<pdfrwt beam="2">  1       -4 0.13976111E-02 0.12500227E+03</pdfrwt>
<totfact> 0.61609671E+02</totfact>
</mgrwt>
</event>
<event>
 5    1  0.1466870E-002  0.1249982E+03  0.7818608E-02  0.1235072E+00
         -4   -1    0    0    0  501 -0.00000000000E+00  0.00000000000E+00  0.19064849491E+03  0.19065272490E+03  0.12700000000E+01 0.  1.
          4   -1    0    0  501    0  0.00000000000E+00 -0.00000000000E+00 -0.20464537939E+02  0.20503907264E+02  0.12700000000E+01 0.  1.
         25    2    1    2    0    0  0.00000000000E+00  0.00000000000E+00  0.17018395697E+03  0.21115663216E+03  0.12499817637E+03 0.  0.
    9000005    1    3    3    0    0 -0.31300154230E+02 -0.31534124780E+02  0.10859123985E+02  0.45749549224E+02  0.10000000000E+01 0.  0.
    9000005    1    3    3    0    0  0.31300154230E+02  0.31534124780E+02  0.15932483298E+03  0.16540708294E+03  0.10000000000E+01 0.  0.
<mgrwt>
<rscale>  0 0.12499818E+03</rscale>
<asrwt>0</asrwt>
<pdfrwt beam="2">  1        4 0.51215846E-02 0.12499818E+03</pdfrwt>
<pdfrwt beam="1">  1       -4 0.47667572E-01 0.12499818E+03</pdfrwt>
<totfact> 0.15885519E+03</totfact>
</mgrwt>
</event>
<event>
 5    1  0.1466870E-002  0.1250011E+03  0.7818608E-02  0.1235068E+00
          4   -1    0    0  501    0  0.00000000000E+00  0.00000000000E+00  0.92644612589E+02  0.92653316950E+02  0.12700000000E+01 0.  1.
         -4   -1    0    0    0  501 -0.00000000000E+00 -0.00000000000E+00 -0.42144280323E+02  0.42163411436E+02  0.12700000000E+01 0.  1.
         25    2    1    2    0    0  0.00000000000E+00  0.00000000000E+00  0.50500332266E+02  0.13481672839E+03  0.12500106677E+03 0.  0.
    9000005    1    3    3    0    0 -0.51679055158E+02 -0.18083619850E+01  0.63095805047E+02  0.81584775109E+02  0.10000000000E+01 0.  0.
    9000005    1    3    3    0    0  0.51679055158E+02  0.18083619850E+01 -0.12595472780E+02  0.53231953277E+02  0.10000000000E+01 0.  0.
<mgrwt>
<rscale>  0 0.12500107E+03</rscale>
<asrwt>0</asrwt>
<pdfrwt beam="1">  1        4 0.23164632E-01 0.12500107E+03</pdfrwt>
<pdfrwt beam="2">  1       -4 0.10539550E-01 0.12500107E+03</pdfrwt>
<totfact> 0.19308260E+03</totfact>
</mgrwt>
</event>
<event>
 5    1  0.1466870E-002  0.1250045E+03  0.7818608E-02  0.1235062E+00
          4   -1    0    0  501    0  0.00000000000E+00  0.00000000000E+00  0.21078558344E+03  0.21078940933E+03  0.12700000000E+01 0.  1.
         -4   -1    0    0    0  501 -0.00000000000E+00 -0.00000000000E+00 -0.18507436213E+02  0.18550959414E+02  0.12700000000E+01 0.  1.
         25    2    1    2    0    0  0.00000000000E+00  0.00000000000E+00  0.19227814722E+03  0.22934036874E+03  0.12500447526E+03 0.  0.
    9000005    1    3    3    0    0  0.32533613124E+02 -0.59024131666E+01  0.19343223442E+03  0.19624042341E+03  0.10000000000E+01 0.  0.
    9000005    1    3    3    0    0 -0.32533613124E+02  0.59024131666E+01 -0.11540871989E+01  0.33099945338E+02  0.10000000000E+01 0.  0.
<mgrwt>
<rscale>  0 0.12500448E+03</rscale>
<asrwt>0</asrwt>
<pdfrwt beam="1">  1        4 0.52702314E-01 0.12500448E+03</pdfrwt>
<pdfrwt beam="2">  1       -4 0.46327777E-02 0.12500448E+03</pdfrwt>
<totfact> 0.15209341E+03</totfact>
</mgrwt>
</event>
<event>
 5    1  0.1466870E-002  0.1250006E+03  0.7818608E-02  0.1235068E+00
          4   -1    0    0  501    0  0.00000000000E+00  0.00000000000E+00  0.94085054342E+02  0.94093625451E+02  0.12700000000E+01 0. -1.
         -4   -1    0    0    0  501 -0.00000000000E+00 -0.00000000000E+00 -0.41498508646E+02  0.41517937326E+02  0.12700000000E+01 0. -1.
         25    2    1    2    0    0  0.00000000000E+00  0.00000000000E+00  0.52586545696E+02  0.13561156278E+03  0.12500060468E+03 0.  0.
    9000005    1    3    3    0    0 -0.34265246184E+02 -0.47398414388E+02  0.50174867417E+02  0.77066426560E+02  0.10000000000E+01 0.  0.
    9000005    1    3    3    0    0  0.34265246184E+02  0.47398414388E+02  0.24116782795E+01  0.58545136217E+02  0.10000000000E+01 0.  0.
<mgrwt>
<rscale>  0 0.12500060E+03</rscale>
<asrwt>0</asrwt>
<pdfrwt beam="1">  1        4 0.23524763E-01 0.12500060E+03</pdfrwt>
<pdfrwt beam="2">  1       -4 0.10378127E-01 0.12500060E+03</pdfrwt>
<totfact> 0.19266880E+03</totfact>
</mgrwt>
</event>
<event>
 5    1  0.1466870E-002  0.1249814E+03  0.7818608E-02  0.1235098E+00
         -4   -1    0    0    0  501 -0.00000000000E+00  0.00000000000E+00  0.47502775871E+03  0.47502945640E+03  0.12700000000E+01 0.  1.
          4   -1    0    0  501    0  0.00000000000E+00 -0.00000000000E+00 -0.81699885673E+01  0.82681081989E+01  0.12700000000E+01 0.  1.
         25    2    1    2    0    0  0.00000000000E+00  0.00000000000E+00  0.46685777014E+03  0.48329756460E+03  0.12498143223E+03 0.  0.
    9000005    1    3    3    0    0  0.14873135421E+02  0.60374884579E+02  0.25718872093E+03  0.26460040631E+03  0.10000000000E+01 0.  0.
    9000005    1    3    3    0    0 -0.14873135421E+02 -0.60374884579E+02  0.20966904922E+03  0.21869715829E+03  0.10000000000E+01 0.  0.
<mgrwt>
<rscale>  0 0.12498143E+03</rscale>
<asrwt>0</asrwt>
<pdfrwt beam="2">  1        4 0.20549745E-02 0.12498143E+03</pdfrwt>
<pdfrwt beam="1">  1       -4 0.11876941E+00 0.12498143E+03</pdfrwt>
<totfact> 0.90361804E+02</totfact>
</mgrwt>
</event>
<event>
 5    1  0.1466870E-002  0.1250017E+03  0.7818608E-02  0.1235067E+00
         -4   -1    0    0    0  501 -0.00000000000E+00  0.00000000000E+00  0.21955083039E+03  0.21955450354E+03  0.12700000000E+01 0. -1.
          4   -1    0    0  501    0  0.00000000000E+00 -0.00000000000E+00 -0.17766006393E+02  0.17811341419E+02  0.12700000000E+01 0. -1.
         25    2    1    2    0    0  0.00000000000E+00  0.00000000000E+00  0.20178482399E+03  0.23736584496E+03  0.12500171662E+03 0.  0.
    9000005    1    3    3    0    0 -0.19052499916E+02 -0.41421346746E+02  0.19735085831E+02  0.49691038750E+02  0.10000000000E+01 0.  0.
    9000005    1    3    3    0    0  0.19052499916E+02  0.41421346746E+02  0.18204973816E+03  0.18767480621E+03  0.10000000000E+01 0.  0.
<mgrwt>
<rscale>  0 0.12500172E+03</rscale>
<asrwt>0</asrwt>
<pdfrwt beam="2">  1        4 0.44476277E-02 0.12500172E+03</pdfrwt>
<pdfrwt beam="1">  1       -4 0.54893833E-01 0.12500172E+03</pdfrwt>
<totfact> 0.14927047E+03</totfact>
</mgrwt>
</event>
<event>
 5    1  0.1466870E-002  0.1250068E+03  0.7818608E-02  0.1235059E+00
          4   -1    0    0  501    0  0.00000000000E+00  0.00000000000E+00  0.10676113661E+03  0.10676869012E+03  0.12700000000E+01 0. -1.
         -4   -1    0    0    0  501 -0.00000000000E+00 -0.00000000000E+00 -0.36572774607E+02  0.36594818519E+02  0.12700000000E+01 0. -1.
         25    2    1    2    0    0  0.00000000000E+00  0.00000000000E+00  0.70188362006E+02  0.14336350864E+03  0.12500675762E+03 0.  0.
    9000005    1    3    3    0    0 -0.23467121222E+02  0.30517785004E+02 -0.21365499237E+02  0.44040044706E+02  0.10000000000E+01 0.  0.
    9000005    1    3    3    0    0  0.23467121222E+02 -0.30517785004E+02  0.91553861243E+02  0.99323463938E+02  0.10000000000E+01 0.  0.
<mgrwt>
<rscale>  0 0.12500676E+03</rscale>
<asrwt>0</asrwt>
<pdfrwt beam="1">  1        4 0.26693984E-01 0.12500676E+03</pdfrwt>
<pdfrwt beam="2">  1       -4 0.91468934E-02 0.12500676E+03</pdfrwt>
<totfact> 0.18866600E+03</totfact>
</mgrwt>
</event>
<event>
 5    1  0.1466870E-002  0.1249924E+03  0.7818608E-02  0.1235081E+00
         -4   -1    0    0    0  501 -0.00000000000E+00  0.00000000000E+00  0.66303392105E+02  0.66315554017E+02  0.12700000000E+01 0. -1.
          4   -1    0    0  501    0  0.00000000000E+00 -0.00000000000E+00 -0.58883236293E+02  0.58896930449E+02  0.12700000000E+01 0. -1.
         25    2    1    2    0    0  0.00000000000E+00  0.00000000000E+00  0.74201558116E+01  0.12521248447E+03  0.12499242999E+03 0.  0.
    9000005    1    3    3    0    0 -0.55477253861E+02 -0.18969965316E+02 -0.17942591164E+02  0.61323094000E+02  0.10000000000E+01 0.  0.
    9000005    1    3    3    0    0  0.55477253861E+02  0.18969965316E+02  0.25362746975E+02  0.63889390466E+02  0.10000000000E+01 0.  0.
<mgrwt>
<rscale>  0 0.12499243E+03</rscale>
<asrwt>0</asrwt>
<pdfrwt beam="2">  1        4 0.14724041E-01 0.12499243E+03</pdfrwt>
<pdfrwt beam="1">  1       -4 0.16579080E-01 0.12499243E+03</pdfrwt>
<totfact> 0.19827048E+03</totfact>
</mgrwt>
</event>
<event>
 5    1  0.1466870E-002  0.1249985E+03  0.7818608E-02  0.1235072E+00
         -4   -1    0    0    0  501 -0.00000000000E+00  0.00000000000E+00  0.25309824545E+02  0.25341667635E+02  0.12700000000E+01 0.  1.
          4   -1    0    0  501    0  0.00000000000E+00 -0.00000000000E+00 -0.15420204597E+03  0.15420727571E+03  0.12700000000E+01 0.  1.
         25    2    1    2    0    0  0.00000000000E+00  0.00000000000E+00 -0.12889222142E+03  0.17954894334E+03  0.12499847324E+03 0.  0.
    9000005    1    3    3    0    0 -0.51257473825E+02 -0.34858915053E+02 -0.53073778059E+02  0.81610651873E+02  0.10000000000E+01 0.  0.
    9000005    1    3    3    0    0  0.51257473825E+02  0.34858915053E+02 -0.75818443365E+02  0.97938291469E+02  0.10000000000E+01 0.  0.
<mgrwt>
<rscale>  0 0.12499847E+03</rscale>
<asrwt>0</asrwt>
<pdfrwt beam="2">  1        4 0.38555143E-01 0.12499847E+03</pdfrwt>
<pdfrwt beam="1">  1       -4 0.63320907E-02 0.12499847E+03</pdfrwt>
<totfact> 0.17175363E+03</totfact>
</mgrwt>
</event>
<event>
 5    1  0.1466870E-002  0.1249992E+03  0.7818608E-02  0.1235071E+00
         -4   -1    0    0    0  501 -0.00000000000E+00  0.00000000000E+00  0.10757103668E+02  0.10831813298E+02  0.12700000000E+01 0.  1.
          4   -1    0    0  501    0  0.00000000000E+00 -0.00000000000E+00 -0.36179482442E+03  0.36179705343E+03  0.12700000000E+01 0.  1.
         25    2    1    2    0    0  0.00000000000E+00  0.00000000000E+00 -0.35103772075E+03  0.37262886673E+03  0.12499916374E+03 0.  0.
    9000005    1    3    3    0    0  0.82379999355E+01 -0.40486745632E+02 -0.31528394591E+03  0.31798114373E+03  0.10000000000E+01 0.  0.
    9000005    1    3    3    0    0 -0.82379999355E+01  0.40486745632E+02 -0.35753774835E+02  0.54647723006E+02  0.10000000000E+01 0.  0.
<mgrwt>
<rscale>  0 0.12499916E+03</rscale>
<asrwt>0</asrwt>
<pdfrwt beam="2">  1        4 0.90458283E-01 0.12499916E+03</pdfrwt>
<pdfrwt beam="1">  1       -4 0.26988945E-02 0.12499916E+03</pdfrwt>
<totfact> 0.11155834E+03</totfact>
</mgrwt>
</event>
<event>
 5    1  0.1466870E-002  0.1249699E+03  0.7818608E-02  0.1235116E+00
         -4   -1    0    0    0  501 -0.00000000000E+00  0.00000000000E+00  0.16467737459E+02  0.16516636371E+02  0.12700000000E+01 0.  1.
          4   -1    0    0  501    0  0.00000000000E+00 -0.00000000000E+00 -0.23668982950E+03  0.23669323668E+03  0.12700000000E+01 0.  1.
         25    2    1    2    0    0  0.00000000000E+00  0.00000000000E+00 -0.22022209204E+03  0.25320987305E+03  0.12496987631E+03 0.  0.
    9000005    1    3    3    0    0 -0.62357336378E+02 -0.38351836600E+01 -0.11106455657E+03  0.12743422523E+03  0.10000000000E+01 0.  0.
    9000005    1    3    3    0    0  0.62357336378E+02  0.38351836600E+01 -0.10915753547E+03  0.12577564782E+03  0.10000000000E+01 0.  0.
<mgrwt>
<rscale>  0 0.12496988E+03</rscale>
<asrwt>0</asrwt>
<pdfrwt beam="2">  1        4 0.59178985E-01 0.12496988E+03</pdfrwt>
<pdfrwt beam="1">  1       -4 0.41234734E-02 0.12496988E+03</pdfrwt>
<totfact> 0.14401790E+03</totfact>
</mgrwt>
</event>
<event>
 5    1  0.1466870E-002  0.1249980E+03  0.7818608E-02  0.1235072E+00
          4   -1    0    0  501    0  0.00000000000E+00  0.00000000000E+00  0.58891586244E+01  0.60245405886E+01  0.12700000000E+01 0.  1.
         -4   -1    0    0    0  501 -0.00000000000E+00 -0.00000000000E+00 -0.65560122421E+03  0.65560245431E+03  0.12700000000E+01 0.  1.
         25    2    1    2    0    0  0.00000000000E+00  0.00000000000E+00 -0.64971206559E+03  0.66162699489E+03  0.12499804878E+03 0.  0.
    9000005    1    3    3    0    0  0.37536859402E+02  0.10202282082E+02 -0.58373269551E+03  0.58502817212E+03  0.10000000000E+01 0.  0.
    9000005    1    3    3    0    0 -0.37536859402E+02 -0.10202282082E+02 -0.65979370084E+02  0.76598822772E+02  0.10000000000E+01 0.  0.
<mgrwt>
<rscale>  0 0.12499805E+03</rscale>
<asrwt>0</asrwt>
<pdfrwt beam="1">  1        4 0.14893684E-02 0.12499805E+03</pdfrwt>
<pdfrwt beam="2">  1       -4 0.16391714E+00 0.12499805E+03</pdfrwt>
<totfact> 0.66199142E+02</totfact>
</mgrwt>
</event>
<event>
 5    1  0.1466870E-002  0.1249967E+03  0.7818608E-02  0.1235074E+00
          4   -1    0    0  501    0  0.00000000000E+00  0.00000000000E+00  0.24903136685E+03  0.24903460518E+03  0.12700000000E+01 0. -1.
         -4   -1    0    0    0  501 -0.00000000000E+00 -0.00000000000E+00 -0.15655886871E+02  0.15707313383E+02  0.12700000000E+01 0. -1.
         25    2    1    2    0    0  0.00000000000E+00  0.00000000000E+00  0.23337547998E+03  0.26474191856E+03  0.12499667510E+03 0.  0.
    9000005    1    3    3    0    0 -0.27266769542E+02 -0.29731693741E+02  0.21776703451E+03  0.22147444921E+03  0.10000000000E+01 0.  0.
    9000005    1    3    3    0    0  0.27266769542E+02  0.29731693741E+02  0.15608445471E+02  0.43267469351E+02  0.10000000000E+01 0.  0.
<mgrwt>
<rscale>  0 0.12499668E+03</rscale>
<asrwt>0</asrwt>
<pdfrwt beam="1">  1        4 0.62264675E-01 0.12499668E+03</pdfrwt>
<pdfrwt beam="2">  1       -4 0.39208048E-02 0.12499668E+03</pdfrwt>
<totfact> 0.14021209E+03</totfact>
</mgrwt>
</event>
<event>
 5    1  0.1466870E-002  0.1249990E+03  0.7818608E-02  0.1235071E+00
          4   -1    0    0  501    0  0.00000000000E+00  0.00000000000E+00  0.17621142523E+02  0.17666849289E+02  0.12700000000E+01 0. -1.
         -4   -1    0    0    0  501 -0.00000000000E+00 -0.00000000000E+00 -0.22134166075E+03  0.22134530418E+03  0.12700000000E+01 0. -1.
         25    2    1    2    0    0  0.00000000000E+00  0.00000000000E+00 -0.20372051822E+03  0.23901215347E+03  0.12499903984E+03 0.  0.
    9000005    1    3    3    0    0 -0.49948071070E+02 -0.15041551973E+02 -0.36062159812E+02  0.63423477196E+02  0.10000000000E+01 0.  0.
    9000005    1    3    3    0    0  0.49948071070E+02  0.15041551973E+02 -0.16765835841E+03  0.17558867627E+03  0.10000000000E+01 0.  0.
<mgrwt>
<rscale>  0 0.12499904E+03</rscale>
<asrwt>0</asrwt>
<pdfrwt beam="1">  1        4 0.44114551E-02 0.12499904E+03</pdfrwt>
<pdfrwt beam="2">  1       -4 0.55341575E-01 0.12499904E+03</pdfrwt>
<totfact> 0.14870875E+03</totfact>
</mgrwt>
</event>
<event>
 5    1  0.1466870E-002  0.1250061E+03  0.7818608E-02  0.1235060E+00
          4   -1    0    0  501    0  0.00000000000E+00  0.00000000000E+00  0.37560756094E+02  0.37582220509E+02  0.12700000000E+01 0.  1.
         -4   -1    0    0    0  501 -0.00000000000E+00 -0.00000000000E+00 -0.10395322118E+03  0.10396097871E+03  0.12700000000E+01 0.  1.
         25    2    1    2    0    0  0.00000000000E+00  0.00000000000E+00 -0.66392465085E+02  0.14154319921E+03  0.12500607115E+03 0.  0.
    9000005    1    3    3    0    0  0.13523083467E+02 -0.10384210909E+02 -0.10127434050E+03  0.10270441892E+03  0.10000000000E+01 0.  0.
    9000005    1    3    3    0    0 -0.13523083467E+02  0.10384210909E+02  0.34881875411E+02  0.38838780295E+02  0.10000000000E+01 0.  0.
<mgrwt>
<rscale>  0 0.12500607E+03</rscale>
<asrwt>0</asrwt>
<pdfrwt beam="1">  1        4 0.93938420E-02 0.12500607E+03</pdfrwt>
<pdfrwt beam="2">  1       -4 0.25991957E-01 0.12500607E+03</pdfrwt>
<totfact> 0.18958988E+03</totfact>
</mgrwt>
</event>
<event>
 5    1  0.1466870E-002  0.1250123E+03  0.7818608E-02  0.1235050E+00
          4   -1    0    0  501    0  0.00000000000E+00  0.00000000000E+00  0.55145879062E+02  0.55160501063E+02  0.12700000000E+01 0.  1.
         -4   -1    0    0    0  501 -0.00000000000E+00 -0.00000000000E+00 -0.70819115253E+02  0.70830501800E+02  0.12700000000E+01 0.  1.
         25    2    1    2    0    0  0.00000000000E+00  0.00000000000E+00 -0.15673236191E+02  0.12599100286E+03  0.12501232927E+03 0.  0.
    9000005    1    3    3    0    0 -0.49932189430E+02  0.35477308984E+02 -0.20349841225E+02  0.64552141962E+02  0.10000000000E+01 0.  0.
    9000005    1    3    3    0    0  0.49932189430E+02 -0.35477308984E+02  0.46766050344E+01  0.61438860900E+02  0.10000000000E+01 0.  0.
<mgrwt>
<rscale>  0 0.12501233E+03</rscale>
<asrwt>0</asrwt>
<pdfrwt beam="1">  1        4 0.13789721E-01 0.12501233E+03</pdfrwt>
<pdfrwt beam="2">  1       -4 0.17708030E-01 0.12501233E+03</pdfrwt>
<totfact> 0.19775702E+03</totfact>
</mgrwt>
</event>
<event>
 5    1  0.1466870E-002  0.1250019E+03  0.7818608E-02  0.1235066E+00
          4   -1    0    0  501    0  0.00000000000E+00  0.00000000000E+00  0.39570325454E+03  0.39570529255E+03  0.12700000000E+01 0. -1.
         -4   -1    0    0    0  501 -0.00000000000E+00 -0.00000000000E+00 -0.98290470662E+01  0.99107550786E+01  0.12700000000E+01 0. -1.
         25    2    1    2    0    0  0.00000000000E+00  0.00000000000E+00  0.38587420747E+03  0.40561604763E+03  0.12500189639E+03 0.  0.
    9000005    1    3    3    0    0  0.55338046268E+02 -0.16132243915E+02  0.11460032647E+03  0.12828399544E+03  0.10000000000E+01 0.  0.
    9000005    1    3    3    0    0 -0.55338046268E+02  0.16132243915E+02  0.27127388100E+03  0.27733205219E+03  0.10000000000E+01 0.  0.
<mgrwt>
<rscale>  0 0.12500190E+03</rscale>
<asrwt>0</asrwt>
<pdfrwt beam="1">  1        4 0.98936275E-01 0.12500190E+03</pdfrwt>
<pdfrwt beam="2">  1       -4 0.24677302E-02 0.12500190E+03</pdfrwt>
<totfact> 0.10453974E+03</totfact>
</mgrwt>
</event>
<event>
 5    1  0.1466870E-002  0.1249992E+03  0.7818608E-02  0.1235070E+00
         -4   -1    0    0    0  501 -0.00000000000E+00  0.00000000000E+00  0.32179205708E+02  0.32204257172E+02  0.12700000000E+01 0. -1.
          4   -1    0    0  501    0  0.00000000000E+00 -0.00000000000E+00 -0.12131339760E+03  0.12132004508E+03  0.12700000000E+01 0. -1.
         25    2    1    2    0    0  0.00000000000E+00  0.00000000000E+00 -0.89134191895E+02  0.15352430225E+03  0.12499922887E+03 0.  0.
    9000005    1    3    3    0    0  0.24403952471E+02  0.28677417361E+02 -0.10582045692E+03  0.11232504736E+03  0.10000000000E+01 0.  0.
    9000005    1    3    3    0    0 -0.24403952471E+02 -0.28677417361E+02  0.16686265025E+02  0.41199254886E+02  0.10000000000E+01 0.  0.
<mgrwt>
<rscale>  0 0.12499923E+03</rscale>
<asrwt>0</asrwt>
<pdfrwt beam="2">  1        4 0.30332311E-01 0.12499923E+03</pdfrwt>
<pdfrwt beam="1">  1       -4 0.80487641E-02 0.12499923E+03</pdfrwt>
<totfact> 0.18367167E+03</totfact>
</mgrwt>
</event>
<event>
 5    1  0.1466870E-002  0.1249986E+03  0.7818608E-02  0.1235071E+00
         -4   -1    0    0    0  501 -0.00000000000E+00  0.00000000000E+00  0.98581379095E+01  0.99396067851E+01  0.12700000000E+01 0.  1.
          4   -1    0    0  501    0  0.00000000000E+00 -0.00000000000E+00 -0.39452457328E+03  0.39452661738E+03  0.12700000000E+01 0.  1.
         25    2    1    2    0    0  0.00000000000E+00  0.00000000000E+00 -0.38466643537E+03  0.40446622417E+03  0.12499863995E+03 0.  0.
    9000005    1    3    3    0    0  0.12313107285E+02  0.45976707006E+02 -0.32335951930E+03  0.32684529815E+03  0.10000000000E+01 0.  0.
    9000005    1    3    3    0    0 -0.12313107285E+02 -0.45976707006E+02 -0.61306916072E+02  0.77620926022E+02  0.10000000000E+01 0.  0.
<mgrwt>
<rscale>  0 0.12499864E+03</rscale>
<asrwt>0</asrwt>
<pdfrwt beam="2">  1        4 0.98641530E-01 0.12499864E+03</pdfrwt>
<pdfrwt beam="1">  1       -4 0.24749749E-02 0.12499864E+03</pdfrwt>
<totfact> 0.10478106E+03</totfact>
</mgrwt>
</event>
<event>
 5    1  0.1466870E-002  0.1249994E+03  0.7818608E-02  0.1235070E+00
         -4   -1    0    0    0  501 -0.00000000000E+00  0.00000000000E+00  0.54309254700E+01  0.55774413005E+01  0.12700000000E+01 0.  1.
          4   -1    0    0  501    0  0.00000000000E+00 -0.00000000000E+00 -0.70953302492E+03  0.70953416151E+03  0.12700000000E+01 0.  1.
         25    2    1    2    0    0  0.00000000000E+00  0.00000000000E+00 -0.70410209945E+03  0.71511160281E+03  0.12499935211E+03 0.  0.
    9000005    1    3    3    0    0  0.56570768863E+01 -0.41388861471E+02 -0.61794590891E+03  0.61935707529E+03  0.10000000000E+01 0.  0.
    9000005    1    3    3    0    0 -0.56570768863E+01  0.41388861471E+02 -0.86156190542E+02  0.95754527524E+02  0.10000000000E+01 0.  0.
<mgrwt>
<rscale>  0 0.12499935E+03</rscale>
<asrwt>0</asrwt>
<pdfrwt beam="2">  1        4 0.17740140E+00 0.12499935E+03</pdfrwt>
<pdfrwt beam="1">  1       -4 0.13761903E-02 0.12499935E+03</pdfrwt>
<totfact> 0.60509272E+02</totfact>
</mgrwt>
</event>
<event>
 5    1  0.1466870E-002  0.1250100E+03  0.7818608E-02  0.1235054E+00
         -4   -1    0    0    0  501 -0.00000000000E+00  0.00000000000E+00  0.37043711614E+02  0.37065475447E+02  0.12700000000E+01 0.  1.
          4   -1    0    0  501    0  0.00000000000E+00 -0.00000000000E+00 -0.10541006879E+03  0.10541771911E+03  0.12700000000E+01 0.  1.
         25    2    1    2    0    0  0.00000000000E+00  0.00000000000E+00 -0.68366357176E+02  0.14248319456E+03  0.12501000735E+03 0.  0.
    9000005    1    3    3    0    0 -0.45216001290E+02  0.27225158003E+02  0.39640217422E+01  0.52937788671E+02  0.10000000000E+01 0.  0.
    9000005    1    3    3    0    0  0.45216001290E+02 -0.27225158003E+02 -0.72330378918E+02  0.89545405886E+02  0.10000000000E+01 0.  0.
<mgrwt>
<rscale>  0 0.12501001E+03</rscale>
<asrwt>0</asrwt>
<pdfrwt beam="2">  1        4 0.26356193E-01 0.12501001E+03</pdfrwt>
<pdfrwt beam="1">  1       -4 0.92646049E-02 0.12501001E+03</pdfrwt>
<totfact> 0.18909607E+03</totfact>
</mgrwt>
</event>
<event>
 5    1  0.1466870E-002  0.1250011E+03  0.7818608E-02  0.1235068E+00
         -4   -1    0    0    0  501 -0.00000000000E+00  0.00000000000E+00  0.45613897469E+02  0.45631573962E+02  0.12700000000E+01 0.  1.
          4   -1    0    0  501    0  0.00000000000E+00 -0.00000000000E+00 -0.85599744876E+02  0.85609165530E+02  0.12700000000E+01 0.  1.
         25    2    1    2    0    0  0.00000000000E+00  0.00000000000E+00 -0.39985847407E+02  0.13124073949E+03  0.12500105483E+03 0.  0.
    9000005    1    3    3    0    0 -0.32614041337E+01 -0.35717859342E+02 -0.73722768275E+02  0.81990540888E+02  0.10000000000E+01 0.  0.
    9000005    1    3    3    0    0  0.32614041337E+01  0.35717859342E+02  0.33736920868E+02  0.49250198605E+02  0.10000000000E+01 0.  0.
<mgrwt>
<rscale>  0 0.12500105E+03</rscale>
<asrwt>0</asrwt>
<pdfrwt beam="2">  1        4 0.21403323E-01 0.12500105E+03</pdfrwt>
<pdfrwt beam="1">  1       -4 0.11406862E-01 0.12500105E+03</pdfrwt>
<totfact> 0.19497432E+03</totfact>
</mgrwt>
</event>
<event>
 5    1  0.1466870E-002  0.1250037E+03  0.7818608E-02  0.1235063E+00
         -4   -1    0    0    0  501 -0.00000000000E+00  0.00000000000E+00  0.53982747045E+01  0.55456532335E+01  0.12700000000E+01 0. -1.
          4   -1    0    0  501    0  0.00000000000E+00 -0.00000000000E+00 -0.71376105373E+03  0.71376218358E+03  0.12700000000E+01 0. -1.
         25    2    1    2    0    0  0.00000000000E+00  0.00000000000E+00 -0.70836277902E+03  0.71930783682E+03  0.12500374957E+03 0.  0.
    9000005    1    3    3    0    0 -0.36283485910E+02 -0.46657776483E+02 -0.47098708533E+03  0.47468228743E+03  0.10000000000E+01 0.  0.
    9000005    1    3    3    0    0  0.36283485910E+02  0.46657776483E+02 -0.23737569369E+03  0.24462554939E+03  0.10000000000E+01 0.  0.
<mgrwt>
<rscale>  0 0.12500375E+03</rscale>
<asrwt>0</asrwt>
<pdfrwt beam="2">  1        4 0.17845851E+00 0.12500375E+03</pdfrwt>
<pdfrwt beam="1">  1       -4 0.13681347E-02 0.12500375E+03</pdfrwt>
<totfact> 0.60078256E+02</totfact>
</mgrwt>
</event>
<event>
 5    1  0.1466870E-002  0.1249983E+03  0.7818608E-02  0.1235072E+00
         -4   -1    0    0    0  501 -0.00000000000E+00  0.00000000000E+00  0.31371929635E+02  0.31397625213E+02  0.12700000000E+01 0. -1.
          4   -1    0    0  501    0  0.00000000000E+00 -0.00000000000E+00 -0.12443091552E+03  0.12443739646E+03  0.12700000000E+01 0. -1.
         25    2    1    2    0    0  0.00000000000E+00  0.00000000000E+00 -0.93058985888E+02  0.15583502167E+03  0.12499831649E+03 0.  0.
    9000005    1    3    3    0    0  0.10143104714E+02 -0.53792614214E+02 -0.89499668991E+01  0.55476389795E+02  0.10000000000E+01 0.  0.
    9000005    1    3    3    0    0 -0.10143104714E+02  0.53792614214E+02 -0.84109018989E+02  0.10035863188E+03  0.10000000000E+01 0.  0.
<mgrwt>
<rscale>  0 0.12499832E+03</rscale>
<asrwt>0</asrwt>
<pdfrwt beam="2">  1        4 0.31111750E-01 0.12499832E+03</pdfrwt>
<pdfrwt beam="1">  1       -4 0.78470048E-02 0.12499832E+03</pdfrwt>
<totfact> 0.18256259E+03</totfact>
</mgrwt>
</event>
<event>
 5    1  0.1466870E-002  0.1249985E+03  0.7818608E-02  0.1235072E+00
         -4   -1    0    0    0  501 -0.00000000000E+00  0.00000000000E+00  0.14754803188E+02  0.14809359106E+02  0.12700000000E+01 0.  1.
          4   -1    0    0  501    0  0.00000000000E+00 -0.00000000000E+00 -0.26419346006E+03  0.26419651254E+03  0.12700000000E+01 0.  1.
         25    2    1    2    0    0  0.00000000000E+00  0.00000000000E+00 -0.24943865687E+03  0.27900587165E+03  0.12499853147E+03 0.  0.
    9000005    1    3    3    0    0  0.33666916688E+02 -0.49358765525E+02 -0.83840737223E+02  0.10295638995E+03  0.10000000000E+01 0.  0.
    9000005    1    3    3    0    0 -0.33666916688E+02  0.49358765525E+02 -0.16559791965E+03  0.17604948170E+03  0.10000000000E+01 0.  0.
<mgrwt>
<rscale>  0 0.12499853E+03</rscale>
<asrwt>0</asrwt>
<pdfrwt beam="2">  1        4 0.66055551E-01 0.12499853E+03</pdfrwt>
<pdfrwt beam="1">  1       -4 0.36959027E-02 0.12499853E+03</pdfrwt>
<totfact> 0.13581008E+03</totfact>
</mgrwt>
</event>
<event>
 5    1  0.1466870E-002  0.1250010E+03  0.7818608E-02  0.1235068E+00
          4   -1    0    0  501    0  0.00000000000E+00  0.00000000000E+00  0.23735665688E+02  0.23769617701E+02  0.12700000000E+01 0. -1.
         -4   -1    0    0    0  501 -0.00000000000E+00 -0.00000000000E+00 -0.16442163852E+03  0.16442654322E+03  0.12700000000E+01 0. -1.
         25    2    1    2    0    0  0.00000000000E+00  0.00000000000E+00 -0.14068597284E+03  0.18819616092E+03  0.12500100812E+03 0.  0.
    9000005    1    3    3    0    0  0.18920515470E+01 -0.13456052665E+02 -0.16217787256E+03  0.16274921678E+03  0.10000000000E+01 0.  0.
    9000005    1    3    3    0    0 -0.18920515470E+01  0.13456052665E+02  0.21491899727E+02  0.25446944143E+02  0.10000000000E+01 0.  0.
<mgrwt>
<rscale>  0 0.12500101E+03</rscale>
<asrwt>0</asrwt>
<pdfrwt beam="1">  1        4 0.59387740E-02 0.12500101E+03</pdfrwt>
<pdfrwt beam="2">  1       -4 0.41110263E-01 0.12500101E+03</pdfrwt>
<totfact> 0.16805466E+03</totfact>
</mgrwt>
</event>
<event>
 5    1  0.1466870E-002  0.1249810E+03  0.7818608E-02  0.1235099E+00
          4   -1    0    0  501    0  0.00000000000E+00  0.00000000000E+00  0.92462134290E+01  0.93330253817E+01  0.12700000000E+01 0. -1.
         -4   -1    0    0    0  501 -0.00000000000E+00 -0.00000000000E+00 -0.42028094448E+03  0.42028286331E+03  0.12700000000E+01 0. -1.
         25    2    1    2    0    0  0.00000000000E+00  0.00000000000E+00 -0.41103473105E+03  0.42961588869E+03  0.12498104531E+03 0.  0.
    9000005    1    3    3    0    0 -0.64350571759E+01 -0.21236452852E+02 -0.47377599025E+01  0.22712183063E+02  0.10000000000E+01 0.  0.
    9000005    1    3    3    0    0  0.64350571759E+01  0.21236452852E+02 -0.40629697115E+03  0.40690370563E+03  0.10000000000E+01 0.  0.
<mgrwt>
<rscale>  0 0.12498105E+03</rscale>
<asrwt>0</asrwt>
<pdfrwt beam="1">  1        4 0.23226461E-02 0.12498105E+03</pdfrwt>
<pdfrwt beam="2">  1       -4 0.10508126E+00 0.12498105E+03</pdfrwt>
<totfact> 0.99838007E+02</totfact>
</mgrwt>
</event>
<event>
 5    1  0.1466870E-002  0.1250025E+03  0.7818608E-02  0.1235065E+00
          4   -1    0    0  501    0  0.00000000000E+00  0.00000000000E+00  0.21637248373E+02  0.21674487702E+02  0.12700000000E+01 0.  1.
         -4   -1    0    0    0  501 -0.00000000000E+00 -0.00000000000E+00 -0.18034601775E+03  0.18035048937E+03  0.12700000000E+01 0.  1.
         25    2    1    2    0    0  0.00000000000E+00  0.00000000000E+00 -0.15870876937E+03  0.20202497707E+03  0.12500247152E+03 0.  0.
    9000005    1    3    3    0    0 -0.30432470389E+02 -0.47681999682E+02 -0.36420979781E+02  0.67284441856E+02  0.10000000000E+01 0.  0.
    9000005    1    3    3    0    0  0.30432470389E+02  0.47681999682E+02 -0.12228778959E+03  0.13474053522E+03  0.10000000000E+01 0.  0.
<mgrwt>
<rscale>  0 0.12500247E+03</rscale>
<asrwt>0</asrwt>
<pdfrwt beam="1">  1        4 0.54145265E-02 0.12500247E+03</pdfrwt>
<pdfrwt beam="2">  1       -4 0.45091714E-01 0.12500247E+03</pdfrwt>
<totfact> 0.16240350E+03</totfact>
</mgrwt>
</event>
<event>
 5    1  0.1466870E-002  0.1250004E+03  0.7818608E-02  0.1235069E+00
          4   -1    0    0  501    0  0.00000000000E+00  0.00000000000E+00  0.49612470306E+03  0.49612632856E+03  0.12700000000E+01 0.  1.
         -4   -1    0    0    0  501 -0.00000000000E+00 -0.00000000000E+00 -0.78207118442E+01  0.79231580667E+01  0.12700000000E+01 0.  1.
         25    2    1    2    0    0  0.00000000000E+00  0.00000000000E+00  0.48830399122E+03  0.50404948662E+03  0.12500038851E+03 0.  0.
    9000005    1    3    3    0    0  0.12143208702E+02 -0.35543827868E+02  0.42756625508E+02  0.56920560802E+02  0.10000000000E+01 0.  0.
    9000005    1    3    3    0    0 -0.12143208702E+02  0.35543827868E+02  0.44554736571E+03  0.44712892582E+03  0.10000000000E+01 0.  0.
<mgrwt>
<rscale>  0 0.12500039E+03</rscale>
<asrwt>0</asrwt>
<pdfrwt beam="1">  1        4 0.12404419E+00 0.12500039E+03</pdfrwt>
<pdfrwt beam="2">  1       -4 0.19681869E-02 0.12500039E+03</pdfrwt>
<totfact> 0.86965687E+02</totfact>
</mgrwt>
</event>
<event>
 5    1  0.1466870E-002  0.1249988E+03  0.7818608E-02  0.1235071E+00
          4   -1    0    0  501    0  0.00000000000E+00  0.00000000000E+00  0.53072085353E+03  0.53072237307E+03  0.12700000000E+01 0. -1.
         -4   -1    0    0    0  501 -0.00000000000E+00 -0.00000000000E+00 -0.73038030520E+01  0.74133959170E+01  0.12700000000E+01 0. -1.
         25    2    1    2    0    0  0.00000000000E+00  0.00000000000E+00  0.52341705048E+03  0.53813576899E+03  0.12499878850E+03 0.  0.
    9000005    1    3    3    0    0 -0.47595057941E+01  0.31530337445E+02  0.49308098165E+03  0.49411200101E+03  0.10000000000E+01 0.  0.
    9000005    1    3    3    0    0  0.47595057941E+01 -0.31530337445E+02  0.30336068831E+02  0.44023767977E+02  0.10000000000E+01 0.  0.
<mgrwt>
<rscale>  0 0.12499879E+03</rscale>
<asrwt>0</asrwt>
<pdfrwt beam="1">  1        4 0.13269410E+00 0.12499879E+03</pdfrwt>
<pdfrwt beam="2">  1       -4 0.18398399E-02 0.12499879E+03</pdfrwt>
<totfact> 0.81846732E+02</totfact>
</mgrwt>
</event>
<event>
 5    1  0.1466870E-002  0.1249944E+03  0.7818608E-02  0.1235078E+00
         -4   -1    0    0    0  501 -0.00000000000E+00  0.00000000000E+00  0.36777476970E+03  0.36777696247E+03  0.12700000000E+01 0. -1.
          4   -1    0    0  501    0  0.00000000000E+00 -0.00000000000E+00 -0.10580155695E+02  0.10656105974E+02  0.12700000000E+01 0. -1.
         25    2    1    2    0    0  0.00000000000E+00  0.00000000000E+00  0.35719461400E+03  0.37843306845E+03  0.12499437996E+03 0.  0.
    9000005    1    3    3    0    0  0.14860240553E+01 -0.60492488257E+02  0.22582684422E+03  0.23379545114E+03  0.10000000000E+01 0.  0.
    9000005    1    3    3    0    0 -0.14860240553E+01  0.60492488257E+02  0.13136776978E+03  0.14463761731E+03  0.10000000000E+01 0.  0.
<mgrwt>
<rscale>  0 0.12499438E+03</rscale>
<asrwt>0</asrwt>
<pdfrwt beam="2">  1        4 0.26548070E-02 0.12499438E+03</pdfrwt>
<pdfrwt beam="1">  1       -4 0.91953452E-01 0.12499438E+03</pdfrwt>
<totfact> 0.11028774E+03</totfact>
</mgrwt>
</event>
<event>
 5    1  0.1466870E-002  0.1249996E+03  0.7818608E-02  0.1235070E+00
         -4   -1    0    0    0  501 -0.00000000000E+00  0.00000000000E+00  0.13270581385E+02  0.13331212634E+02  0.12700000000E+01 0.  1.
          4   -1    0    0  501    0  0.00000000000E+00 -0.00000000000E+00 -0.29361930459E+03  0.29362205116E+03  0.12700000000E+01 0.  1.
         25    2    1    2    0    0  0.00000000000E+00  0.00000000000E+00 -0.28034872320E+03  0.30695326379E+03  0.12499959821E+03 0.  0.
    9000005    1    3    3    0    0  0.24226677363E+02  0.52714626399E+02 -0.19720966126E+03  0.20556851468E+03  0.10000000000E+01 0.  0.
    9000005    1    3    3    0    0 -0.24226677363E+02 -0.52714626399E+02 -0.83139061937E+02  0.10138474911E+03  0.10000000000E+01 0.  0.
<mgrwt>
<rscale>  0 0.12499960E+03</rscale>
<asrwt>0</asrwt>
<pdfrwt beam="2">  1        4 0.73412727E-01 0.12499960E+03</pdfrwt>
<pdfrwt beam="1">  1       -4 0.33255685E-02 0.12499960E+03</pdfrwt>
<totfact> 0.12778511E+03</totfact>
</mgrwt>
</event>
<event>
 5    1  0.1466870E-002  0.1249969E+03  0.7818608E-02  0.1235074E+00
          4   -1    0    0  501    0  0.00000000000E+00  0.00000000000E+00  0.71773195363E+02  0.71784430572E+02  0.12700000000E+01 0. -1.
         -4   -1    0    0    0  501 -0.00000000000E+00 -0.00000000000E+00 -0.54399278368E+02  0.54414100994E+02  0.12700000000E+01 0. -1.
         25    2    1    2    0    0  0.00000000000E+00  0.00000000000E+00  0.17373916994E+02  0.12619853157E+03  0.12499686547E+03 0.  0.
    9000005    1    3    3    0    0 -0.22776521051E+02  0.57897678673E+02  0.14586332618E+02  0.63911440339E+02  0.10000000000E+01 0.  0.
    9000005    1    3    3    0    0  0.22776521051E+02 -0.57897678673E+02  0.27875843767E+01  0.62287091228E+02  0.10000000000E+01 0.  0.
<mgrwt>
<rscale>  0 0.12499687E+03</rscale>
<asrwt>0</asrwt>
<pdfrwt beam="1">  1        4 0.17946556E-01 0.12499687E+03</pdfrwt>
<pdfrwt beam="2">  1       -4 0.13603077E-01 0.12499687E+03</pdfrwt>
<totfact> 0.19771645E+03</totfact>
</mgrwt>
</event>
<event>
 4    1  0.1466870E-002  0.1250642E+03  0.7818608E-02  0.1234969E+00
         -4   -1    0    0    0  501 -0.00000000000E+00  0.00000000000E+00  0.19230393812E+03  0.19230813170E+03  0.12700000000E+01 0.  1.
          4   -1    0    0  501    0  0.00000000000E+00 -0.00000000000E+00 -0.20309501567E+02  0.20349170840E+02  0.12700000000E+01 0.  1.
    9000005    1    1    2    0    0  0.18224417744E+02 -0.24744201244E+02 -0.65896156933E+01  0.31445634551E+02  0.10000000000E+01 0.  0.
    9000005    1    1    2    0    0 -0.18224417744E+02  0.24744201244E+02  0.17858405225E+03  0.18121166799E+03  0.10000000000E+01 0.  0.
<mgrwt>
<rscale>  0 0.12506415E+03</rscale>
<asrwt>0</asrwt>
<pdfrwt beam="2">  1        4 0.50828583E-02 0.12506415E+03</pdfrwt>
<pdfrwt beam="1">  1       -4 0.48081466E-01 0.12506415E+03</pdfrwt>
<totfact> 0.15804040E+03</totfact>
</mgrwt>
</event>
<event>
 5    1  0.1466870E-002  0.1250038E+03  0.7818608E-02  0.1235063E+00
         -4   -1    0    0    0  501 -0.00000000000E+00  0.00000000000E+00  0.40678315033E+02  0.40698135264E+02  0.12700000000E+01 0. -1.
          4   -1    0    0  501    0  0.00000000000E+00 -0.00000000000E+00 -0.95986226415E+02  0.95994627773E+02  0.12700000000E+01 0. -1.
         25    2    1    2    0    0  0.00000000000E+00  0.00000000000E+00 -0.55307911382E+02  0.13669276304E+03  0.12500378556E+03 0.  0.
    9000005    1    3    3    0    0 -0.59437921248E+02 -0.13116521516E+02 -0.12167112409E+02  0.62080175929E+02  0.10000000000E+01 0.  0.
    9000005    1    3    3    0    0  0.59437921248E+02  0.13116521516E+02 -0.43140798972E+02  0.74612587108E+02  0.10000000000E+01 0.  0.
<mgrwt>
<rscale>  0 0.12500379E+03</rscale>
<asrwt>0</asrwt>
<pdfrwt beam="2">  1        4 0.24000084E-01 0.12500379E+03</pdfrwt>
<pdfrwt beam="1">  1       -4 0.10173107E-01 0.12500379E+03</pdfrwt>
<totfact> 0.19209139E+03</totfact>
</mgrwt>
</event>
<event>
 5    1  0.1466870E-002  0.1249988E+03  0.7818608E-02  0.1235071E+00
         -4   -1    0    0    0  501 -0.00000000000E+00  0.00000000000E+00  0.11686799834E+03  0.11687489866E+03  0.12700000000E+01 0.  1.
          4   -1    0    0  501    0  0.00000000000E+00 -0.00000000000E+00 -0.33403853512E+02  0.33427987218E+02  0.12700000000E+01 0.  1.
         25    2    1    2    0    0  0.00000000000E+00  0.00000000000E+00  0.83464144830E+02  0.15030288588E+03  0.12499877612E+03 0.  0.
    9000005    1    3    3    0    0 -0.48928791352E+02 -0.12127337403E+02  0.86142056255E+02  0.99812588342E+02  0.10000000000E+01 0.  0.
    9000005    1    3    3    0    0  0.48928791352E+02  0.12127337403E+02 -0.26779114245E+01  0.50490297536E+02  0.10000000000E+01 0.  0.
<mgrwt>
<rscale>  0 0.12499878E+03</rscale>
<asrwt>0</asrwt>
<pdfrwt beam="2">  1        4 0.83548427E-02 0.12499878E+03</pdfrwt>
<pdfrwt beam="1">  1       -4 0.29220879E-01 0.12499878E+03</pdfrwt>
<totfact> 0.18524426E+03</totfact>
</mgrwt>
</event>
<event>
 5    1  0.1466870E-002  0.1250000E+03  0.7818608E-02  0.1235069E+00
          4   -1    0    0  501    0  0.00000000000E+00  0.00000000000E+00  0.24485902576E+02  0.24518815733E+02  0.12700000000E+01 0. -1.
         -4   -1    0    0    0  501 -0.00000000000E+00 -0.00000000000E+00 -0.15938786574E+03  0.15939292533E+03  0.12700000000E+01 0. -1.
         25    2    1    2    0    0  0.00000000000E+00  0.00000000000E+00 -0.13490196317E+03  0.18391174106E+03  0.12499995534E+03 0.  0.
    9000005    1    3    3    0    0  0.23985851410E+02  0.31796563619E+01  0.17321832489E+02  0.29773766360E+02  0.10000000000E+01 0.  0.
    9000005    1    3    3    0    0 -0.23985851410E+02 -0.31796563619E+01 -0.15222379565E+03  0.15413797470E+03  0.10000000000E+01 0.  0.
<mgrwt>
<rscale>  0 0.12499996E+03</rscale>
<asrwt>0</asrwt>
<pdfrwt beam="1">  1        4 0.61262227E-02 0.12499996E+03</pdfrwt>
<pdfrwt beam="2">  1       -4 0.39851710E-01 0.12499996E+03</pdfrwt>
<totfact> 0.16987195E+03</totfact>
</mgrwt>
</event>
<event>
 4    1  0.1466870E-002  0.1247914E+03  0.7818608E-02  0.1235396E+00
         -4   -1    0    0    0  501 -0.00000000000E+00  0.00000000000E+00  0.45015724918E+02  0.45033636206E+02  0.12700000000E+01 0. -1.
          4   -1    0    0  501    0  0.00000000000E+00 -0.00000000000E+00 -0.86446123107E+02  0.86455451535E+02  0.12700000000E+01 0. -1.
    9000005    1    1    2    0    0 -0.42474406932E+02 -0.31028965981E+02 -0.56061944787E+02  0.76881815973E+02  0.10000000000E+01 0.  0.
    9000005    1    1    2    0    0  0.42474406932E+02  0.31028965981E+02  0.14631546598E+02  0.54607271768E+02  0.10000000000E+01 0.  0.
<mgrwt>
<rscale>  0 0.12479144E+03</rscale>
<asrwt>0</asrwt>
<pdfrwt beam="2">  1        4 0.21614935E-01 0.12479144E+03</pdfrwt>
<pdfrwt beam="1">  1       -4 0.11257336E-01 0.12479144E+03</pdfrwt>
<totfact> 0.19579810E+03</totfact>
</mgrwt>
</event>
<event>
 5    1  0.1466870E-002  0.1249999E+03  0.7818608E-02  0.1235069E+00
          4   -1    0    0  501    0  0.00000000000E+00  0.00000000000E+00  0.97746579498E+02  0.97754829567E+02  0.12700000000E+01 0.  1.
         -4   -1    0    0    0  501 -0.00000000000E+00 -0.00000000000E+00 -0.39942932863E+02  0.39963117817E+02  0.12700000000E+01 0.  1.
         25    2    1    2    0    0  0.00000000000E+00  0.00000000000E+00  0.57803646636E+02  0.13771794738E+03  0.12499988587E+03 0.  0.
    9000005    1    3    3    0    0  0.10188503638E+02 -0.45574190530E+02  0.74653157377E+02  0.88061946124E+02  0.10000000000E+01 0.  0.
    9000005    1    3    3    0    0 -0.10188503638E+02  0.45574190530E+02 -0.16849510742E+02  0.49656001259E+02  0.10000000000E+01 0.  0.
<mgrwt>
<rscale>  0 0.12499989E+03</rscale>
<asrwt>0</asrwt>
<pdfrwt beam="1">  1        4 0.24440199E-01 0.12499989E+03</pdfrwt>
<pdfrwt beam="2">  1       -4 0.99892876E-02 0.12499989E+03</pdfrwt>
<totfact> 0.19157755E+03</totfact>
</mgrwt>
</event>
<event>
 5    1  0.1466870E-002  0.1250008E+03  0.7818608E-02  0.1235068E+00
         -4   -1    0    0    0  501 -0.00000000000E+00  0.00000000000E+00  0.55568691611E+01  0.57001486712E+01  0.12700000000E+01 0.  1.
          4   -1    0    0  501    0  0.00000000000E+00 -0.00000000000E+00 -0.69387630744E+03  0.69387746968E+03  0.12700000000E+01 0.  1.
         25    2    1    2    0    0  0.00000000000E+00  0.00000000000E+00 -0.68831943828E+03  0.69957761835E+03  0.12500077993E+03 0.  0.
    9000005    1    3    3    0    0  0.17773765447E+02 -0.59888767975E+02 -0.35340252442E+03  0.35888287161E+03  0.10000000000E+01 0.  0.
    9000005    1    3    3    0    0 -0.17773765447E+02  0.59888767975E+02 -0.33491691386E+03  0.34069474674E+03  0.10000000000E+01 0.  0.
<mgrwt>
<rscale>  0 0.12500078E+03</rscale>
<asrwt>0</asrwt>
<pdfrwt beam="2">  1        4 0.17348684E+00 0.12500078E+03</pdfrwt>
<pdfrwt beam="1">  1       -4 0.14072749E-02 0.12500078E+03</pdfrwt>
<totfact> 0.62109026E+02</totfact>
</mgrwt>
</event>
<event>
 5    1  0.1466870E-002  0.1249989E+03  0.7818608E-02  0.1235071E+00
         -4   -1    0    0    0  501 -0.00000000000E+00  0.00000000000E+00  0.64761389916E+02  0.64773841355E+02  0.12700000000E+01 0.  1.
          4   -1    0    0  501    0  0.00000000000E+00 -0.00000000000E+00 -0.60291528507E+02  0.60304902867E+02  0.12700000000E+01 0.  1.
         25    2    1    2    0    0  0.00000000000E+00  0.00000000000E+00  0.44698614086E+01  0.12507874422E+03  0.12499885037E+03 0.  0.
    9000005    1    3    3    0    0 -0.48820637717E+02  0.35766933929E+02  0.17815686300E+02  0.63096171898E+02  0.10000000000E+01 0.  0.
    9000005    1    3    3    0    0  0.48820637717E+02 -0.35766933929E+02 -0.13345824892E+02  0.61982572323E+02  0.10000000000E+01 0.  0.
<mgrwt>
<rscale>  0 0.12499885E+03</rscale>
<asrwt>0</asrwt>
<pdfrwt beam="2">  1        4 0.15076110E-01 0.12499885E+03</pdfrwt>
<pdfrwt beam="1">  1       -4 0.16193576E-01 0.12499885E+03</pdfrwt>
<totfact> 0.19831319E+03</totfact>
</mgrwt>
</event>
<event>
 5    1  0.1466870E-002  0.1249984E+03  0.7818608E-02  0.1235072E+00
          4   -1    0    0  501    0  0.00000000000E+00  0.00000000000E+00  0.67257992934E+03  0.67258112838E+03  0.12700000000E+01 0. -1.
         -4   -1    0    0    0  501 -0.00000000000E+00 -0.00000000000E+00 -0.57370628517E+01  0.58759501499E+01  0.12700000000E+01 0. -1.
         25    2    1    2    0    0  0.00000000000E+00  0.00000000000E+00  0.66684286649E+03  0.67845707853E+03  0.12499839527E+03 0.  0.
    9000005    1    3    3    0    0 -0.25685543767E+02 -0.37154240957E+02  0.99023771757E+02  0.10884342953E+03  0.10000000000E+01 0.  0.
    9000005    1    3    3    0    0  0.25685543767E+02  0.37154240957E+02  0.56781909473E+03  0.56961364900E+03  0.10000000000E+01 0.  0.
<mgrwt>
<rscale>  0 0.12499840E+03</rscale>
<asrwt>0</asrwt>
<pdfrwt beam="1">  1        4 0.16816248E+00 0.12499840E+03</pdfrwt>
<pdfrwt beam="2">  1       -4 0.14517766E-02 0.12499840E+03</pdfrwt>
<totfact> 0.64348992E+02</totfact>
</mgrwt>
</event>
<event>
 5    1  0.1466870E-002  0.1249938E+03  0.7818608E-02  0.1235079E+00
         -4   -1    0    0    0  501 -0.00000000000E+00  0.00000000000E+00  0.20083597927E+03  0.20083999470E+03  0.12700000000E+01 0. -1.
          4   -1    0    0  501    0  0.00000000000E+00 -0.00000000000E+00 -0.19423074292E+02  0.19464550212E+02  0.12700000000E+01 0. -1.
         25    2    1    2    0    0  0.00000000000E+00  0.00000000000E+00  0.18141290498E+03  0.22030454491E+03  0.12499380150E+03 0.  0.
    9000005    1    3    3    0    0  0.34067393687E+02  0.49045228511E+02  0.58262566831E+02  0.83435894231E+02  0.10000000000E+01 0.  0.
    9000005    1    3    3    0    0 -0.34067393687E+02 -0.49045228511E+02  0.12315033815E+03  0.13686865068E+03  0.10000000000E+01 0.  0.
<mgrwt>
<rscale>  0 0.12499380E+03</rscale>
<asrwt>0</asrwt>
<pdfrwt beam="2">  1        4 0.48614551E-02 0.12499380E+03</pdfrwt>
<pdfrwt beam="1">  1       -4 0.50214680E-01 0.12499380E+03</pdfrwt>
<totfact> 0.15542275E+03</totfact>
</mgrwt>
</event>
<event>
 5    1  0.1466870E-002  0.1250058E+03  0.7818608E-02  0.1235060E+00
          4   -1    0    0  501    0  0.00000000000E+00  0.00000000000E+00  0.11563744727E+03  0.11564442101E+03  0.12700000000E+01 0.  1.
         -4   -1    0    0    0  501 -0.00000000000E+00 -0.00000000000E+00 -0.33763329377E+02  0.33787206315E+02  0.12700000000E+01 0.  1.
         25    2    1    2    0    0  0.00000000000E+00  0.00000000000E+00  0.81874117892E+02  0.14943162733E+03  0.12500576013E+03 0.  0.
    9000005    1    3    3    0    0  0.14529483601E+01 -0.44002416204E+02  0.93957860294E+02  0.10376609852E+03  0.10000000000E+01 0.  0.
    9000005    1    3    3    0    0 -0.14529483601E+01  0.44002416204E+02 -0.12083742402E+02  0.45665528807E+02  0.10000000000E+01 0.  0.
<mgrwt>
<rscale>  0 0.12500576E+03</rscale>
<asrwt>0</asrwt>
<pdfrwt beam="1">  1        4 0.28913218E-01 0.12500576E+03</pdfrwt>
<pdfrwt beam="2">  1       -4 0.84446888E-02 0.12500576E+03</pdfrwt>
<totfact> 0.18564274E+03</totfact>
</mgrwt>
</event>
<event>
 5    1  0.1466870E-002  0.1250053E+03  0.7818608E-02  0.1235061E+00
          4   -1    0    0  501    0  0.00000000000E+00  0.00000000000E+00  0.94954706132E+01  0.95800241214E+01  0.12700000000E+01 0. -1.
         -4   -1    0    0    0  501 -0.00000000000E+00 -0.00000000000E+00 -0.40950603910E+03  0.40950800842E+03  0.12700000000E+01 0. -1.
         25    2    1    2    0    0  0.00000000000E+00  0.00000000000E+00 -0.40001056849E+03  0.41908803254E+03  0.12500529636E+03 0.  0.
    9000005    1    3    3    0    0 -0.17204414728E+00 -0.23170637820E+02 -0.39458890098E+03  0.39526991896E+03  0.10000000000E+01 0.  0.
    9000005    1    3    3    0    0  0.17204414728E+00  0.23170637820E+02 -0.54216675093E+01  0.23818113585E+02  0.10000000000E+01 0.  0.
<mgrwt>
<rscale>  0 0.12500530E+03</rscale>
<asrwt>0</asrwt>
<pdfrwt beam="1">  1        4 0.23846844E-02 0.12500530E+03</pdfrwt>
<pdfrwt beam="2">  1       -4 0.10238727E+00 0.12500530E+03</pdfrwt>
<totfact> 0.10182886E+03</totfact>
</mgrwt>
</event>
<event>
 5    1  0.1466870E-002  0.1249999E+03  0.7818608E-02  0.1235069E+00
          4   -1    0    0  501    0  0.00000000000E+00  0.00000000000E+00  0.13459570123E+03  0.13460169275E+03  0.12700000000E+01 0. -1.
         -4   -1    0    0    0  501 -0.00000000000E+00 -0.00000000000E+00 -0.29001504444E+02  0.29029298304E+02  0.12700000000E+01 0. -1.
         25    2    1    2    0    0  0.00000000000E+00  0.00000000000E+00  0.10559419679E+03  0.16363099105E+03  0.12499986735E+03 0.  0.
    9000005    1    3    3    0    0  0.30096228880E+02  0.12719085353E+02 -0.16935844292E+02  0.36815498732E+02  0.10000000000E+01 0.  0.
    9000005    1    3    3    0    0 -0.30096228880E+02 -0.12719085353E+02  0.12253004108E+03  0.12681549232E+03  0.10000000000E+01 0.  0.
<mgrwt>
<rscale>  0 0.12499987E+03</rscale>
<asrwt>0</asrwt>
<pdfrwt beam="1">  1        4 0.33653148E-01 0.12499987E+03</pdfrwt>
<pdfrwt beam="2">  1       -4 0.72545994E-02 0.12499987E+03</pdfrwt>
<totfact> 0.17888257E+03</totfact>
</mgrwt>
</event>
<event>
 5    1  0.1466870E-002  0.1250046E+03  0.7818608E-02  0.1235062E+00
          4   -1    0    0  501    0  0.00000000000E+00  0.00000000000E+00  0.21849601501E+03  0.21849970589E+03  0.12700000000E+01 0.  1.
         -4   -1    0    0    0  501 -0.00000000000E+00 -0.00000000000E+00 -0.17852815878E+02  0.17897931019E+02  0.12700000000E+01 0.  1.
         25    2    1    2    0    0  0.00000000000E+00  0.00000000000E+00  0.20064319913E+03  0.23639763691E+03  0.12500459743E+03 0.  0.
    9000005    1    3    3    0    0 -0.46576411471E+02 -0.27585297993E+02  0.15937839924E+03  0.16832345325E+03  0.10000000000E+01 0.  0.
    9000005    1    3    3    0    0  0.46576411471E+02  0.27585297993E+02  0.41264799897E+02  0.68074183663E+02  0.10000000000E+01 0.  0.
<mgrwt>
<rscale>  0 0.12500460E+03</rscale>
<asrwt>0</asrwt>
<pdfrwt beam="1">  1        4 0.54630104E-01 0.12500460E+03</pdfrwt>
<pdfrwt beam="2">  1       -4 0.44693047E-02 0.12500460E+03</pdfrwt>
<totfact> 0.14959788E+03</totfact>
</mgrwt>
</event>
<event>
 5    1  0.1466870E-002  0.1250003E+03  0.7818608E-02  0.1235069E+00
         -4   -1    0    0    0  501 -0.00000000000E+00  0.00000000000E+00  0.22393258118E+03  0.22393618245E+03  0.12700000000E+01 0. -1.
          4   -1    0    0  501    0  0.00000000000E+00 -0.00000000000E+00 -0.17417090182E+02  0.17463331022E+02  0.12700000000E+01 0. -1.
         25    2    1    2    0    0  0.00000000000E+00  0.00000000000E+00  0.20651549099E+03  0.24139951348E+03  0.12500030834E+03 0.  0.
    9000005    1    3    3    0    0  0.43564117508E+02 -0.43622795894E+02  0.83517170713E+02  0.10381184162E+03  0.10000000000E+01 0.  0.
    9000005    1    3    3    0    0 -0.43564117508E+02  0.43622795894E+02  0.12299832028E+03  0.13758767186E+03  0.10000000000E+01 0.  0.
<mgrwt>
<rscale>  0 0.12500031E+03</rscale>
<asrwt>0</asrwt>
<pdfrwt beam="2">  1        4 0.43605028E-02 0.12500031E+03</pdfrwt>
<pdfrwt beam="1">  1       -4 0.55989376E-01 0.12500031E+03</pdfrwt>
<totfact> 0.14788253E+03</totfact>
</mgrwt>
</event>
<event>
 5    1  0.1466870E-002  0.1249850E+03  0.7818608E-02  0.1235093E+00
          4   -1    0    0  501    0  0.00000000000E+00  0.00000000000E+00  0.10350112230E+03  0.10350891371E+03  0.12700000000E+01 0.  1.
         -4   -1    0    0    0  501 -0.00000000000E+00 -0.00000000000E+00 -0.37712171761E+02  0.37733550044E+02  0.12700000000E+01 0.  1.
         25    2    1    2    0    0  0.00000000000E+00  0.00000000000E+00  0.65788950535E+02  0.14124246375E+03  0.12498498931E+03 0.  0.
    9000005    1    3    3    0    0 -0.42270396218E+02 -0.46016257742E+02  0.33088622628E+02  0.70711663256E+02  0.10000000000E+01 0.  0.
    9000005    1    3    3    0    0  0.42270396218E+02  0.46016257742E+02  0.32700327907E+02  0.70530800493E+02  0.10000000000E+01 0.  0.
<mgrwt>
<rscale>  0 0.12498499E+03</rscale>
<asrwt>0</asrwt>
<pdfrwt beam="1">  1        4 0.25878927E-01 0.12498499E+03</pdfrwt>
<pdfrwt beam="2">  1       -4 0.94316892E-02 0.12498499E+03</pdfrwt>
<totfact> 0.18983602E+03</totfact>
</mgrwt>
</event>
<event>
 5    1  0.1466870E-002  0.1250032E+03  0.7818608E-02  0.1235064E+00
         -4   -1    0    0    0  501 -0.00000000000E+00  0.00000000000E+00  0.20775359693E+03  0.20775747866E+03  0.12700000000E+01 0.  1.
          4   -1    0    0  501    0  0.00000000000E+00 -0.00000000000E+00 -0.18777790805E+02  0.18820688816E+02  0.12700000000E+01 0.  1.
         25    2    1    2    0    0  0.00000000000E+00  0.00000000000E+00  0.18897580613E+03  0.22657816747E+03  0.12500324266E+03 0.  0.
    9000005    1    3    3    0    0 -0.33059745428E+02 -0.27270400465E+02  0.17693195065E+03  0.18205091779E+03  0.10000000000E+01 0.  0.
    9000005    1    3    3    0    0  0.33059745428E+02  0.27270400465E+02  0.12043855477E+02  0.44527249679E+02  0.10000000000E+01 0.  0.
<mgrwt>
<rscale>  0 0.12500324E+03</rscale>
<asrwt>0</asrwt>
<pdfrwt beam="2">  1        4 0.47002952E-02 0.12500324E+03</pdfrwt>
<pdfrwt beam="1">  1       -4 0.51944247E-01 0.12500324E+03</pdfrwt>
<totfact> 0.15309212E+03</totfact>
</mgrwt>
</event>
<event>
 5    1  0.1466870E-002  0.1249931E+03  0.7818608E-02  0.1235080E+00
         -4   -1    0    0    0  501 -0.00000000000E+00  0.00000000000E+00  0.20235523701E+03  0.20235922228E+03  0.12700000000E+01 0.  1.
          4   -1    0    0  501    0  0.00000000000E+00 -0.00000000000E+00 -0.19276733752E+02  0.19318523860E+02  0.12700000000E+01 0.  1.
         25    2    1    2    0    0  0.00000000000E+00  0.00000000000E+00  0.18307850325E+03  0.22167774614E+03  0.12499313894E+03 0.  0.
    9000005    1    3    3    0    0 -0.53221492784E+01 -0.53303963371E+02  0.14860093434E+03  0.15796479187E+03  0.10000000000E+01 0.  0.
    9000005    1    3    3    0    0  0.53221492784E+01  0.53303963371E+02  0.34477568911E+02  0.63712954272E+02  0.10000000000E+01 0.  0.
<mgrwt>
<rscale>  0 0.12499314E+03</rscale>
<asrwt>0</asrwt>
<pdfrwt beam="2">  1        4 0.48249054E-02 0.12499314E+03</pdfrwt>
<pdfrwt beam="1">  1       -4 0.50594531E-01 0.12499314E+03</pdfrwt>
<totfact> 0.15491766E+03</totfact>
</mgrwt>
</event>
<event>
 5    1  0.1466870E-002  0.1250004E+03  0.7818608E-02  0.1235069E+00
         -4   -1    0    0    0  501 -0.00000000000E+00  0.00000000000E+00  0.15452629004E+03  0.15453150880E+03  0.12700000000E+01 0. -1.
          4   -1    0    0  501    0  0.00000000000E+00 -0.00000000000E+00 -0.25257445346E+02  0.25289354389E+02  0.12700000000E+01 0. -1.
         25    2    1    2    0    0  0.00000000000E+00  0.00000000000E+00  0.12926884469E+03  0.17982086319E+03  0.12500043452E+03 0.  0.
    9000005    1    3    3    0    0 -0.13269150720E+02 -0.57870156102E+02  0.92686446980E+02  0.11007634978E+03  0.10000000000E+01 0.  0.
    9000005    1    3    3    0    0  0.13269150720E+02  0.57870156102E+02  0.36582397713E+02  0.69744513408E+02  0.10000000000E+01 0.  0.
<mgrwt>
<rscale>  0 0.12500043E+03</rscale>
<asrwt>0</asrwt>
<pdfrwt beam="2">  1        4 0.63190024E-02 0.12500043E+03</pdfrwt>
<pdfrwt beam="1">  1       -4 0.38636213E-01 0.12500043E+03</pdfrwt>
<totfact> 0.17162797E+03</totfact>
</mgrwt>
</event>
<event>
 5    1  0.1466870E-002  0.1249924E+03  0.7818608E-02  0.1235081E+00
          4   -1    0    0  501    0  0.00000000000E+00  0.00000000000E+00  0.98818121545E+01  0.99630874460E+01  0.12700000000E+01 0.  1.
         -4   -1    0    0    0  501 -0.00000000000E+00 -0.00000000000E+00 -0.39354790497E+03  0.39354995414E+03  0.12700000000E+01 0.  1.
         25    2    1    2    0    0  0.00000000000E+00  0.00000000000E+00 -0.38366609281E+03  0.40351304158E+03  0.12499241559E+03 0.  0.
    9000005    1    3    3    0    0 -0.41079352273E+02 -0.45397578862E+02 -0.15146991480E+03  0.16337866581E+03  0.10000000000E+01 0.  0.
    9000005    1    3    3    0    0  0.41079352273E+02  0.45397578862E+02 -0.23219617801E+03  0.24013437578E+03  0.10000000000E+01 0.  0.
<mgrwt>
<rscale>  0 0.12499242E+03</rscale>
<asrwt>0</asrwt>
<pdfrwt beam="1">  1        4 0.24808699E-02 0.12499242E+03</pdfrwt>
<pdfrwt beam="2">  1       -4 0.98397339E-01 0.12499242E+03</pdfrwt>
<totfact> 0.10499010E+03</totfact>
</mgrwt>
</event>
<event>
 5    1  0.1466870E-002  0.1249982E+03  0.7818608E-02  0.1235072E+00
          4   -1    0    0  501    0  0.00000000000E+00  0.00000000000E+00  0.41597927843E+02  0.41617310110E+02  0.12700000000E+01 0.  1.
         -4   -1    0    0    0  501 -0.00000000000E+00 -0.00000000000E+00 -0.93856689779E+02  0.93865281741E+02  0.12700000000E+01 0.  1.
         25    2    1    2    0    0  0.00000000000E+00  0.00000000000E+00 -0.52258761937E+02  0.13548259185E+03  0.12499821797E+03 0.  0.
    9000005    1    3    3    0    0 -0.19288079651E+02 -0.31761965379E+02 -0.80585786039E+02  0.88746387942E+02  0.10000000000E+01 0.  0.
    9000005    1    3    3    0    0  0.19288079651E+02  0.31761965379E+02  0.28327024102E+02  0.46736203909E+02  0.10000000000E+01 0.  0.
<mgrwt>
<rscale>  0 0.12499822E+03</rscale>
<asrwt>0</asrwt>
<pdfrwt beam="1">  1        4 0.10402979E-01 0.12499822E+03</pdfrwt>
<pdfrwt beam="2">  1       -4 0.23467669E-01 0.12499822E+03</pdfrwt>
<totfact> 0.19274691E+03</totfact>
</mgrwt>
</event>
<event>
 5    1  0.1466870E-002  0.1250001E+03  0.7818608E-02  0.1235069E+00
         -4   -1    0    0    0  501 -0.00000000000E+00  0.00000000000E+00  0.11131493937E+03  0.11132218389E+03  0.12700000000E+01 0.  1.
          4   -1    0    0  501    0  0.00000000000E+00 -0.00000000000E+00 -0.35072046955E+02  0.35095033518E+02  0.12700000000E+01 0.  1.
         25    2    1    2    0    0  0.00000000000E+00  0.00000000000E+00  0.76242892411E+02  0.14641721741E+03  0.12500009164E+03 0.  0.
    9000005    1    3    3    0    0 -0.24912695389E+02 -0.21649856476E+02  0.10027846896E+03  0.10557523390E+03  0.10000000000E+01 0.  0.
    9000005    1    3    3    0    0  0.24912695389E+02  0.21649856476E+02 -0.24035576545E+02  0.40841983508E+02  0.10000000000E+01 0.  0.
<mgrwt>
<rscale>  0 0.12500009E+03</rscale>
<asrwt>0</asrwt>
<pdfrwt beam="2">  1        4 0.87717907E-02 0.12500009E+03</pdfrwt>
<pdfrwt beam="1">  1       -4 0.27832514E-01 0.12500009E+03</pdfrwt>
<totfact> 0.18716321E+03</totfact>
</mgrwt>
</event>
<event>
 5    1  0.1466870E-002  0.1249975E+03  0.7818608E-02  0.1235073E+00
         -4   -1    0    0    0  501 -0.00000000000E+00  0.00000000000E+00  0.10600242068E+03  0.10601002825E+03  0.12700000000E+01 0.  1.
          4   -1    0    0  501    0  0.00000000000E+00 -0.00000000000E+00 -0.36829220104E+02  0.36851110614E+02  0.12700000000E+01 0.  1.
         25    2    1    2    0    0  0.00000000000E+00  0.00000000000E+00  0.69173200571E+02  0.14286113886E+03  0.12499749325E+03 0.  0.
    9000005    1    3    3    0    0  0.30303866747E+02 -0.34970532165E+02  0.82586604328E+02  0.94672116667E+02  0.10000000000E+01 0.  0.
    9000005    1    3    3    0    0 -0.30303866747E+02  0.34970532165E+02 -0.13413403757E+02  0.48189022195E+02  0.10000000000E+01 0.  0.
<mgrwt>
<rscale>  0 0.12499749E+03</rscale>
<asrwt>0</asrwt>
<pdfrwt beam="2">  1        4 0.92109924E-02 0.12499749E+03</pdfrwt>
<pdfrwt beam="1">  1       -4 0.26504292E-01 0.12499749E+03</pdfrwt>
<totfact> 0.18896019E+03</totfact>
</mgrwt>
</event>
<event>
 5    1  0.1466870E-002  0.1249986E+03  0.7818608E-02  0.1235071E+00
         -4   -1    0    0    0  501 -0.00000000000E+00  0.00000000000E+00  0.77994091037E+03  0.77994194436E+03  0.12700000000E+01 0. -1.
          4   -1    0    0  501    0  0.00000000000E+00 -0.00000000000E+00 -0.49267149808E+01  0.50877716637E+01  0.12700000000E+01 0. -1.
         25    2    1    2    0    0  0.00000000000E+00  0.00000000000E+00  0.77501419539E+03  0.78502971602E+03  0.12499860792E+03 0.  0.
    9000005    1    3    3    0    0  0.41032733272E+02  0.44576762134E+02  0.48365737202E+03  0.48743843348E+03  0.10000000000E+01 0.  0.
    9000005    1    3    3    0    0 -0.41032733272E+02 -0.44576762134E+02  0.29135682337E+03  0.29759128255E+03  0.10000000000E+01 0.  0.
<mgrwt>
<rscale>  0 0.12499861E+03</rscale>
<asrwt>0</asrwt>
<pdfrwt beam="2">  1        4 0.12519397E-02 0.12499861E+03</pdfrwt>
<pdfrwt beam="1">  1       -4 0.19500554E+00 0.12499861E+03</pdfrwt>
<totfact> 0.53818428E+02</totfact>
</mgrwt>
</event>
<event>
 5    1  0.1466870E-002  0.1250004E+03  0.7818608E-02  0.1235069E+00
          4   -1    0    0  501    0  0.00000000000E+00  0.00000000000E+00  0.63934698272E+02  0.63947310679E+02  0.12700000000E+01 0. -1.
         -4   -1    0    0    0  501 -0.00000000000E+00 -0.00000000000E+00 -0.61072695198E+02  0.61085898526E+02  0.12700000000E+01 0. -1.
         25    2    1    2    0    0  0.00000000000E+00  0.00000000000E+00  0.28620030741E+01  0.12503320921E+03  0.12500044937E+03 0.  0.
    9000005    1    3    3    0    0 -0.31716804311E+02 -0.19321494688E+02  0.51703523300E+02  0.63667339777E+02  0.10000000000E+01 0.  0.
    9000005    1    3    3    0    0  0.31716804311E+02  0.19321494688E+02 -0.48841520226E+02  0.61365869428E+02  0.10000000000E+01 0.  0.
<mgrwt>
<rscale>  0 0.12500045E+03</rscale>
<asrwt>0</asrwt>
<pdfrwt beam="1">  1        4 0.15986902E-01 0.12500045E+03</pdfrwt>
<pdfrwt beam="2">  1       -4 0.15271401E-01 0.12500045E+03</pdfrwt>
<totfact> 0.19833046E+03</totfact>
</mgrwt>
</event>
<event>
 5    1  0.1466870E-002  0.1249694E+03  0.7818608E-02  0.1235117E+00
         -4   -1    0    0    0  501 -0.00000000000E+00  0.00000000000E+00  0.29561856204E+02  0.29589123716E+02  0.12700000000E+01 0. -1.
          4   -1    0    0  501    0  0.00000000000E+00 -0.00000000000E+00 -0.13198220907E+03  0.13198831922E+03  0.12700000000E+01 0. -1.
         25    2    1    2    0    0  0.00000000000E+00  0.00000000000E+00 -0.10242035287E+03  0.16157744294E+03  0.12496936179E+03 0.  0.
    9000005    1    3    3    0    0  0.33833993727E+01  0.35534836028E+02  0.15085616072E+02  0.38765290856E+02  0.10000000000E+01 0.  0.
    9000005    1    3    3    0    0 -0.33833993727E+01 -0.35534836028E+02 -0.11750596894E+03  0.12281215208E+03  0.10000000000E+01 0.  0.
<mgrwt>
<rscale>  0 0.12496936E+03</rscale>
<asrwt>0</asrwt>
<pdfrwt beam="2">  1        4 0.32999723E-01 0.12496936E+03</pdfrwt>
<pdfrwt beam="1">  1       -4 0.73946366E-02 0.12496936E+03</pdfrwt>
<totfact> 0.17996579E+03</totfact>
</mgrwt>
</event>
<event>
 5    1  0.1466870E-002  0.1250022E+03  0.7818608E-02  0.1235066E+00
         -4   -1    0    0    0  501 -0.00000000000E+00  0.00000000000E+00  0.57242728961E+01  0.58634631566E+01  0.12700000000E+01 0.  1.
          4   -1    0    0  501    0  0.00000000000E+00 -0.00000000000E+00 -0.67408777653E+03  0.67408897288E+03  0.12700000000E+01 0.  1.
         25    2    1    2    0    0  0.00000000000E+00  0.00000000000E+00 -0.66836350363E+03  0.67995243604E+03  0.12500216915E+03 0.  0.
    9000005    1    3    3    0    0  0.31505521036E+02  0.53963522726E+02 -0.33881631665E+03  0.34453179254E+03  0.10000000000E+01 0.  0.
    9000005    1    3    3    0    0 -0.31505521036E+02 -0.53963522726E+02 -0.32954718698E+03  0.33542064350E+03  0.10000000000E+01 0.  0.
<mgrwt>
<rscale>  0 0.12500217E+03</rscale>
<asrwt>0</asrwt>
<pdfrwt beam="2">  1        4 0.16853923E+00 0.12500217E+03</pdfrwt>
<pdfrwt beam="1">  1       -4 0.14486188E-02 0.12500217E+03</pdfrwt>
<totfact> 0.64182259E+02</totfact>
</mgrwt>
</event>
<event>
 5    1  0.1466870E-002  0.1250188E+03  0.7818608E-02  0.1235040E+00
         -4   -1    0    0    0  501 -0.00000000000E+00  0.00000000000E+00  0.36320431226E+03  0.36320653263E+03  0.12700000000E+01 0.  1.
          4   -1    0    0  501    0  0.00000000000E+00 -0.00000000000E+00 -0.10718458569E+02  0.10793435695E+02  0.12700000000E+01 0.  1.
         25    2    1    2    0    0  0.00000000000E+00  0.00000000000E+00  0.35248585369E+03  0.37399996832E+03  0.12501879560E+03 0.  0.
    9000005    1    3    3    0    0 -0.60131397759E+02 -0.12939915194E+02  0.20944756939E+03  0.21829455038E+03  0.10000000000E+01 0.  0.
    9000005    1    3    3    0    0  0.60131397759E+02  0.12939915194E+02  0.14303828430E+03  0.15570541795E+03  0.10000000000E+01 0.  0.
<mgrwt>
<rscale>  0 0.12501880E+03</rscale>
<asrwt>0</asrwt>
<pdfrwt beam="2">  1        4 0.26892645E-02 0.12501880E+03</pdfrwt>
<pdfrwt beam="1">  1       -4 0.90810723E-01 0.12501880E+03</pdfrwt>
<totfact> 0.11120357E+03</totfact>
</mgrwt>
</event>
<event>
 5    1  0.1466870E-002  0.1249970E+03  0.7818608E-02  0.1235074E+00
         -4   -1    0    0    0  501 -0.00000000000E+00  0.00000000000E+00  0.44497926118E+02  0.44516045745E+02  0.12700000000E+01 0. -1.
          4   -1    0    0  501    0  0.00000000000E+00 -0.00000000000E+00 -0.87740241365E+02  0.87749432219E+02  0.12700000000E+01 0. -1.
         25    2    1    2    0    0  0.00000000000E+00  0.00000000000E+00 -0.43242315248E+02  0.13226547796E+03  0.12499703530E+03 0.  0.
    9000005    1    3    3    0    0  0.38019639329E+02  0.49205038882E+02 -0.15060985718E+02  0.63987984160E+02  0.10000000000E+01 0.  0.
    9000005    1    3    3    0    0 -0.38019639329E+02 -0.49205038882E+02 -0.28181329529E+02  0.68277493804E+02  0.10000000000E+01 0.  0.
<mgrwt>
<rscale>  0 0.12499704E+03</rscale>
<asrwt>0</asrwt>
<pdfrwt beam="2">  1        4 0.21938474E-01 0.12499704E+03</pdfrwt>
<pdfrwt beam="1">  1       -4 0.11127895E-01 0.12499704E+03</pdfrwt>
<totfact> 0.19444692E+03</totfact>
</mgrwt>
</event>
<event>
 5    1  0.1466870E-002  0.1249994E+03  0.7818608E-02  0.1235070E+00
         -4   -1    0    0    0  501 -0.00000000000E+00  0.00000000000E+00  0.18472389485E+03  0.18472826051E+03  0.12700000000E+01 0.  1.
          4   -1    0    0  501    0  0.00000000000E+00 -0.00000000000E+00 -0.21122540363E+02  0.21160685513E+02  0.12700000000E+01 0.  1.
         25    2    1    2    0    0  0.00000000000E+00  0.00000000000E+00  0.16360135449E+03  0.20588894602E+03  0.12499941961E+03 0.  0.
    9000005    1    3    3    0    0  0.31448965872E+02  0.47533734546E+01  0.17040255159E+03  0.17334838217E+03  0.10000000000E+01 0.  0.
    9000005    1    3    3    0    0 -0.31448965872E+02 -0.47533734546E+01 -0.68011970973E+01  0.32540563848E+02  0.10000000000E+01 0.  0.
<mgrwt>
<rscale>  0 0.12499942E+03</rscale>
<asrwt>0</asrwt>
<pdfrwt beam="2">  1        4 0.52859490E-02 0.12499942E+03</pdfrwt>
<pdfrwt beam="1">  1       -4 0.46186287E-01 0.12499942E+03</pdfrwt>
<totfact> 0.16089140E+03</totfact>
</mgrwt>
</event>
<event>
 5    1  0.1466870E-002  0.1250002E+03  0.7818608E-02  0.1235069E+00
          4   -1    0    0  501    0  0.00000000000E+00  0.00000000000E+00  0.73668364751E+03  0.73668474222E+03  0.12700000000E+01 0.  1.
         -4   -1    0    0    0  501 -0.00000000000E+00 -0.00000000000E+00 -0.52253368804E+01  0.53774571606E+01  0.12700000000E+01 0.  1.
         25    2    1    2    0    0  0.00000000000E+00  0.00000000000E+00  0.73145831063E+03  0.74206219938E+03  0.12500019020E+03 0.  0.
    9000005    1    3    3    0    0  0.24877395453E+02  0.81176346815E+01  0.28837687497E+02  0.38953729186E+02  0.10000000000E+01 0.  0.
    9000005    1    3    3    0    0 -0.24877395453E+02 -0.81176346815E+01  0.70262062314E+03  0.70310847019E+03  0.10000000000E+01 0.  0.
<mgrwt>
<rscale>  0 0.12500019E+03</rscale>
<asrwt>0</asrwt>
<pdfrwt beam="1">  1        4 0.18419008E+00 0.12500019E+03</pdfrwt>
<pdfrwt beam="2">  1       -4 0.13254859E-02 0.12500019E+03</pdfrwt>
<totfact> 0.57833467E+02</totfact>
</mgrwt>
</event>
<event>
 5    1  0.1466870E-002  0.1250016E+03  0.7818608E-02  0.1235067E+00
         -4   -1    0    0    0  501 -0.00000000000E+00  0.00000000000E+00  0.17332742045E+03  0.17333207314E+03  0.12700000000E+01 0.  1.
          4   -1    0    0  501    0  0.00000000000E+00 -0.00000000000E+00 -0.22514563410E+02  0.22550354001E+02  0.12700000000E+01 0.  1.
         25    2    1    2    0    0  0.00000000000E+00  0.00000000000E+00  0.15081285704E+03  0.19588242715E+03  0.12500162965E+03 0.  0.
    9000005    1    3    3    0    0  0.41372684001E+02  0.71461891686E+01  0.14794162919E+03  0.15378716672E+03  0.10000000000E+01 0.  0.
    9000005    1    3    3    0    0 -0.41372684001E+02 -0.71461891686E+01  0.28712278561E+01  0.42095260427E+02  0.10000000000E+01 0.  0.
<mgrwt>
<rscale>  0 0.12500163E+03</rscale>
<asrwt>0</asrwt>
<pdfrwt beam="2">  1        4 0.56336964E-02 0.12500163E+03</pdfrwt>
<pdfrwt beam="1">  1       -4 0.43336910E-01 0.12500163E+03</pdfrwt>
<totfact> 0.16487632E+03</totfact>
</mgrwt>
</event>
<event>
 5    1  0.1466870E-002  0.1250101E+03  0.7818608E-02  0.1235054E+00
         -4   -1    0    0    0  501 -0.00000000000E+00  0.00000000000E+00  0.41730933940E+03  0.41731127190E+03  0.12700000000E+01 0.  1.
          4   -1    0    0  501    0  0.00000000000E+00 -0.00000000000E+00 -0.93170402785E+01  0.94031983682E+01  0.12700000000E+01 0.  1.
         25    2    1    2    0    0  0.00000000000E+00  0.00000000000E+00  0.40799229912E+03  0.42671447027E+03  0.12501009155E+03 0.  0.
    9000005    1    3    3    0    0 -0.62013724956E+02  0.13553792437E+01  0.17792371970E+03  0.18842873764E+03  0.10000000000E+01 0.  0.
    9000005    1    3    3    0    0  0.62013724956E+02 -0.13553792437E+01  0.23006857942E+03  0.23828573263E+03  0.10000000000E+01 0.  0.
<mgrwt>
<rscale>  0 0.12501009E+03</rscale>
<asrwt>0</asrwt>
<pdfrwt beam="2">  1        4 0.23402716E-02 0.12501009E+03</pdfrwt>
<pdfrwt beam="1">  1       -4 0.10433834E+00 0.12501009E+03</pdfrwt>
<totfact> 0.10032928E+03</totfact>
</mgrwt>
</event>
<event>
 5    1  0.1466870E-002  0.1250049E+03  0.7818608E-02  0.1235062E+00
         -4   -1    0    0    0  501 -0.00000000000E+00  0.00000000000E+00  0.16271571476E+02  0.16321058125E+02  0.12700000000E+01 0.  1.
          4   -1    0    0  501    0  0.00000000000E+00 -0.00000000000E+00 -0.23966900171E+03  0.23967236653E+03  0.12700000000E+01 0.  1.
         25    2    1    2    0    0  0.00000000000E+00  0.00000000000E+00 -0.22339743023E+03  0.25599342466E+03  0.12500488644E+03 0.  0.
    9000005    1    3    3    0    0  0.19711528778E+02 -0.59270902655E+02 -0.11577964775E+03  0.13155801420E+03  0.10000000000E+01 0.  0.
    9000005    1    3    3    0    0 -0.19711528778E+02  0.59270902655E+02 -0.10761778248E+03  0.12443541046E+03  0.10000000000E+01 0.  0.
<mgrwt>
<rscale>  0 0.12500489E+03</rscale>
<asrwt>0</asrwt>
<pdfrwt beam="2">  1        4 0.59923846E-01 0.12500489E+03</pdfrwt>
<pdfrwt beam="1">  1       -4 0.40745001E-02 0.12500489E+03</pdfrwt>
<totfact> 0.14299111E+03</totfact>
</mgrwt>
</event>
<event>
 5    1  0.1466870E-002  0.1250011E+03  0.7818608E-02  0.1235068E+00
          4   -1    0    0  501    0  0.00000000000E+00  0.00000000000E+00  0.17459803482E+02  0.17505931498E+02  0.12700000000E+01 0. -1.
         -4   -1    0    0    0  501 -0.00000000000E+00 -0.00000000000E+00 -0.22338891314E+03  0.22339252319E+03  0.12700000000E+01 0. -1.
         25    2    1    2    0    0  0.00000000000E+00  0.00000000000E+00 -0.20592910966E+03  0.24089845469E+03  0.12500106905E+03 0.  0.
    9000005    1    3    3    0    0  0.31912897652E+02 -0.43569443223E+02 -0.16355830354E+03  0.17224705535E+03  0.10000000000E+01 0.  0.
    9000005    1    3    3    0    0 -0.31912897652E+02  0.43569443223E+02 -0.42370806120E+02  0.68651399334E+02  0.10000000000E+01 0.  0.
<mgrwt>
<rscale>  0 0.12500107E+03</rscale>
<asrwt>0</asrwt>
<pdfrwt beam="1">  1        4 0.43711688E-02 0.12500107E+03</pdfrwt>
<pdfrwt beam="2">  1       -4 0.55853437E-01 0.12500107E+03</pdfrwt>
<totfact> 0.14805185E+03</totfact>
</mgrwt>
</event>
<event>
 5    1  0.1466870E-002  0.1250008E+03  0.7818608E-02  0.1235068E+00
          4   -1    0    0  501    0  0.00000000000E+00  0.00000000000E+00  0.31880014320E+02  0.31905300705E+02  0.12700000000E+01 0. -1.
         -4   -1    0    0    0  501 -0.00000000000E+00 -0.00000000000E+00 -0.12245417504E+03  0.12246076060E+03  0.12700000000E+01 0. -1.
         25    2    1    2    0    0  0.00000000000E+00  0.00000000000E+00 -0.90574160723E+02  0.15436606130E+03  0.12500080916E+03 0.  0.
    9000005    1    3    3    0    0 -0.57358961951E+02 -0.15498874007E+02 -0.21371833054E+02  0.63150778773E+02  0.10000000000E+01 0.  0.
    9000005    1    3    3    0    0  0.57358961951E+02  0.15498874007E+02 -0.69202327669E+02  0.91215282527E+02  0.10000000000E+01 0.  0.
<mgrwt>
<rscale>  0 0.12500081E+03</rscale>
<asrwt>0</asrwt>
<pdfrwt beam="1">  1        4 0.79739879E-02 0.12500081E+03</pdfrwt>
<pdfrwt beam="2">  1       -4 0.30617527E-01 0.12500081E+03</pdfrwt>
<totfact> 0.18325819E+03</totfact>
</mgrwt>
</event>
<event>
 5    1  0.1466870E-002  0.1249998E+03  0.7818608E-02  0.1235070E+00
         -4   -1    0    0    0  501 -0.00000000000E+00  0.00000000000E+00  0.13167811967E+03  0.13168424393E+03  0.12700000000E+01 0.  1.
          4   -1    0    0  501    0  0.00000000000E+00 -0.00000000000E+00 -0.29644657367E+02  0.29671848787E+02  0.12700000000E+01 0.  1.
         25    2    1    2    0    0  0.00000000000E+00  0.00000000000E+00  0.10203346230E+03  0.16135609272E+03  0.12499984491E+03 0.  0.
    9000005    1    3    3    0    0  0.14316955185E+02 -0.54180860530E+02  0.86712873476E+02  0.10325048804E+03  0.10000000000E+01 0.  0.
    9000005    1    3    3    0    0 -0.14316955185E+02  0.54180860530E+02  0.15320588828E+02  0.58105604683E+02  0.10000000000E+01 0.  0.
<mgrwt>
<rscale>  0 0.12499984E+03</rscale>
<asrwt>0</asrwt>
<pdfrwt beam="2">  1        4 0.74153288E-02 0.12499984E+03</pdfrwt>
<pdfrwt beam="1">  1       -4 0.32923694E-01 0.12499984E+03</pdfrwt>
<totfact> 0.17994186E+03</totfact>
</mgrwt>
</event>
<event>
 5    1  0.1466870E-002  0.1249976E+03  0.7818608E-02  0.1235073E+00
         -4   -1    0    0    0  501 -0.00000000000E+00  0.00000000000E+00  0.12228557447E+03  0.12229216910E+03  0.12700000000E+01 0. -1.
          4   -1    0    0  501    0  0.00000000000E+00 -0.00000000000E+00 -0.31922369641E+02  0.31947622501E+02  0.12700000000E+01 0. -1.
         25    2    1    2    0    0  0.00000000000E+00  0.00000000000E+00  0.90363204832E+02  0.15423979161E+03  0.12499761808E+03 0.  0.
    9000005    1    3    3    0    0  0.53434473151E+01  0.49573698271E+02 -0.13004667813E+01  0.49887826204E+02  0.10000000000E+01 0.  0.
    9000005    1    3    3    0    0 -0.53434473151E+01 -0.49573698271E+02  0.91663671613E+02  0.10435196540E+03  0.10000000000E+01 0.  0.
<mgrwt>
<rscale>  0 0.12499762E+03</rscale>
<asrwt>0</asrwt>
<pdfrwt beam="2">  1        4 0.79845735E-02 0.12499762E+03</pdfrwt>
<pdfrwt beam="1">  1       -4 0.30575374E-01 0.12499762E+03</pdfrwt>
<totfact> 0.18333272E+03</totfact>
</mgrwt>
</event>
<event>
 5    1  0.1466870E-002  0.1250016E+03  0.7818608E-02  0.1235067E+00
          4   -1    0    0  501    0  0.00000000000E+00  0.00000000000E+00  0.40915695884E+01  0.42841383844E+01  0.12700000000E+01 0. -1.
         -4   -1    0    0    0  501 -0.00000000000E+00 -0.00000000000E+00 -0.93258756013E+03  0.93258842488E+03  0.12700000000E+01 0. -1.
         25    2    1    2    0    0  0.00000000000E+00  0.00000000000E+00 -0.92849599054E+03  0.93687256326E+03  0.12500158133E+03 0.  0.
    9000005    1    3    3    0    0  0.71530049558E+01 -0.12819052281E+02 -0.89773191196E+01  0.17236178226E+02  0.10000000000E+01 0.  0.
    9000005    1    3    3    0    0 -0.71530049558E+01  0.12819052281E+02 -0.91951867142E+03  0.91963638503E+03  0.10000000000E+01 0.  0.
<mgrwt>
<rscale>  0 0.12500158E+03</rscale>
<asrwt>0</asrwt>
<pdfrwt beam="1">  1        4 0.10470748E-02 0.12500158E+03</pdfrwt>
<pdfrwt beam="2">  1       -4 0.23317036E+00 0.12500158E+03</pdfrwt>
<totfact> 0.41524079E+02</totfact>
</mgrwt>
</event>
<event>
 5    1  0.1466870E-002  0.1250040E+03  0.7818608E-02  0.1235063E+00
          4   -1    0    0  501    0  0.00000000000E+00  0.00000000000E+00  0.92654262975E+02  0.92662966429E+02  0.12700000000E+01 0. -1.
         -4   -1    0    0    0  501 -0.00000000000E+00 -0.00000000000E+00 -0.42141868746E+02  0.42161000954E+02  0.12700000000E+01 0. -1.
         25    2    1    2    0    0  0.00000000000E+00  0.00000000000E+00  0.50512394228E+02  0.13482396738E+03  0.12500400078E+03 0.  0.
    9000005    1    3    3    0    0  0.13226213388E+02  0.60149361374E+02  0.13810186384E+02  0.63123685271E+02  0.10000000000E+01 0.  0.
    9000005    1    3    3    0    0 -0.13226213388E+02 -0.60149361374E+02  0.36702207844E+02  0.71700282111E+02  0.10000000000E+01 0.  0.
<mgrwt>
<rscale>  0 0.12500400E+03</rscale>
<asrwt>0</asrwt>
<pdfrwt beam="1">  1        4 0.23167045E-01 0.12500400E+03</pdfrwt>
<pdfrwt beam="2">  1       -4 0.10538947E-01 0.12500400E+03</pdfrwt>
<totfact> 0.19306559E+03</totfact>
</mgrwt>
</event>
<event>
 5    1  0.1466870E-002  0.1250012E+03  0.7818608E-02  0.1235067E+00
          4   -1    0    0  501    0  0.00000000000E+00  0.00000000000E+00  0.26186943540E+01  0.29104054906E+01  0.12700000000E+01 0. -1.
         -4   -1    0    0    0  501 -0.00000000000E+00 -0.00000000000E+00 -0.14127148256E+04  0.14127153965E+04  0.12700000000E+01 0. -1.
         25    2    1    2    0    0  0.00000000000E+00  0.00000000000E+00 -0.14100961313E+04  0.14156258019E+04  0.12500124707E+03 0.  0.
    9000005    1    3    3    0    0 -0.55201185741E+02 -0.13425746800E+02 -0.99991018137E+03  0.10015232361E+04  0.10000000000E+01 0.  0.
    9000005    1    3    3    0    0  0.55201185741E+02  0.13425746800E+02 -0.41018594988E+03  0.41410256587E+03  0.10000000000E+01 0.  0.
<mgrwt>
<rscale>  0 0.12500125E+03</rscale>
<asrwt>0</asrwt>
<pdfrwt beam="1">  1        4 0.69121368E-03 0.12500125E+03</pdfrwt>
<pdfrwt beam="2">  1       -4 0.35321277E+00 0.12500125E+03</pdfrwt>
<totfact> 0.15485470E+02</totfact>
</mgrwt>
</event>
<event>
 5    1  0.1466870E-002  0.1250027E+03  0.7818608E-02  0.1235065E+00
         -4   -1    0    0    0  501 -0.00000000000E+00  0.00000000000E+00  0.16196622522E+02  0.16246337468E+02  0.12700000000E+01 0.  1.
          4   -1    0    0  501    0  0.00000000000E+00 -0.00000000000E+00 -0.24076607821E+03  0.24076942771E+03  0.12700000000E+01 0.  1.
         25    2    1    2    0    0  0.00000000000E+00  0.00000000000E+00 -0.22456945569E+03  0.25701576517E+03  0.12500265245E+03 0.  0.
    9000005    1    3    3    0    0 -0.35236560194E+01 -0.52351178267E+02 -0.42488259684E+02  0.67522694175E+02  0.10000000000E+01 0.  0.
    9000005    1    3    3    0    0  0.35236560194E+01  0.52351178267E+02 -0.18208119601E+03  0.18949307100E+03  0.10000000000E+01 0.  0.
<mgrwt>
<rscale>  0 0.12500265E+03</rscale>
<asrwt>0</asrwt>
<pdfrwt beam="2">  1        4 0.60198141E-01 0.12500265E+03</pdfrwt>
<pdfrwt beam="1">  1       -4 0.40557895E-02 0.12500265E+03</pdfrwt>
<totfact> 0.14266613E+03</totfact>
</mgrwt>
</event>
<event>
 5    1  0.1466870E-002  0.1249963E+03  0.7818608E-02  0.1235075E+00
         -4   -1    0    0    0  501 -0.00000000000E+00  0.00000000000E+00  0.79152722005E+01  0.80165100891E+01  0.12700000000E+01 0.  1.
          4   -1    0    0  501    0  0.00000000000E+00 -0.00000000000E+00 -0.49024123268E+03  0.49024287768E+03  0.12700000000E+01 0.  1.
         25    2    1    2    0    0  0.00000000000E+00  0.00000000000E+00 -0.48232596047E+03  0.49825938777E+03  0.12499634135E+03 0.  0.
    9000005    1    3    3    0    0 -0.39831291109E+02 -0.28019310901E+02 -0.39725727256E+03  0.40023237517E+03  0.10000000000E+01 0.  0.
    9000005    1    3    3    0    0  0.39831291109E+02  0.28019310901E+02 -0.85068687916E+02  0.98027012596E+02  0.10000000000E+01 0.  0.
<mgrwt>
<rscale>  0 0.12499634E+03</rscale>
<asrwt>0</asrwt>
<pdfrwt beam="2">  1        4 0.12257307E+00 0.12499634E+03</pdfrwt>
<pdfrwt beam="1">  1       -4 0.19916801E-02 0.12499634E+03</pdfrwt>
<totfact> 0.87891814E+02</totfact>
</mgrwt>
</event>
<event>
 5    1  0.1466870E-002  0.1250015E+03  0.7818608E-02  0.1235067E+00
         -4   -1    0    0    0  501 -0.00000000000E+00  0.00000000000E+00  0.14036344008E+03  0.14036918540E+03  0.12700000000E+01 0.  1.
          4   -1    0    0  501    0  0.00000000000E+00 -0.00000000000E+00 -0.27809385587E+02  0.27838369685E+02  0.12700000000E+01 0.  1.
         25    2    1    2    0    0  0.00000000000E+00  0.00000000000E+00  0.11255405449E+03  0.16820755509E+03  0.12500146562E+03 0.  0.
    9000005    1    3    3    0    0 -0.16868353096E+01  0.45535557869E+02 -0.12720458709E+01  0.45595510135E+02  0.10000000000E+01 0.  0.
    9000005    1    3    3    0    0  0.16868353096E+01 -0.45535557869E+02  0.11382610036E+03  0.12261204495E+03  0.10000000000E+01 0.  0.
<mgrwt>
<rscale>  0 0.12500147E+03</rscale>
<asrwt>0</asrwt>
<pdfrwt beam="2">  1        4 0.69566876E-02 0.12500147E+03</pdfrwt>
<pdfrwt beam="1">  1       -4 0.35095201E-01 0.12500147E+03</pdfrwt>
<totfact> 0.17677597E+03</totfact>
</mgrwt>
</event>
<event>
 5    1  0.1466870E-002  0.1250039E+03  0.7818608E-02  0.1235063E+00
          4   -1    0    0  501    0  0.00000000000E+00  0.00000000000E+00  0.44102826479E+02  0.44121108366E+02  0.12700000000E+01 0.  1.
         -4   -1    0    0    0  501 -0.00000000000E+00 -0.00000000000E+00 -0.88535823304E+02  0.88544931578E+02  0.12700000000E+01 0.  1.
         25    2    1    2    0    0  0.00000000000E+00  0.00000000000E+00 -0.44432996826E+02  0.13266603994E+03  0.12500394773E+03 0.  0.
    9000005    1    3    3    0    0 -0.56444535143E+02  0.20710942390E+01  0.61663773379E+01  0.56826923094E+02  0.10000000000E+01 0.  0.
    9000005    1    3    3    0    0  0.56444535143E+02 -0.20710942390E+01 -0.50599374163E+02  0.75839116850E+02  0.10000000000E+01 0.  0.
<mgrwt>
<rscale>  0 0.12500395E+03</rscale>
<asrwt>0</asrwt>
<pdfrwt beam="1">  1        4 0.11029131E-01 0.12500395E+03</pdfrwt>
<pdfrwt beam="2">  1       -4 0.22137379E-01 0.12500395E+03</pdfrwt>
<totfact> 0.19420308E+03</totfact>
</mgrwt>
</event>
<event>
 5    1  0.1466870E-002  0.1249985E+03  0.7818608E-02  0.1235072E+00
         -4   -1    0    0    0  501 -0.00000000000E+00  0.00000000000E+00  0.10652293821E+03  0.10653050861E+03  0.12700000000E+01 0. -1.
          4   -1    0    0  501    0  0.00000000000E+00 -0.00000000000E+00 -0.36649762210E+02  0.36671759844E+02  0.12700000000E+01 0. -1.
         25    2    1    2    0    0  0.00000000000E+00  0.00000000000E+00  0.69873176002E+02  0.14320226846E+03  0.12499851586E+03 0.  0.
    9000005    1    3    3    0    0  0.27654790196E+02 -0.43761262087E+02  0.75038964902E+02  0.91168425093E+02  0.10000000000E+01 0.  0.
    9000005    1    3    3    0    0 -0.27654790196E+02  0.43761262087E+02 -0.51657889000E+01  0.52033843364E+02  0.10000000000E+01 0.  0.
<mgrwt>
<rscale>  0 0.12499852E+03</rscale>
<asrwt>0</asrwt>
<pdfrwt beam="2">  1        4 0.91661366E-02 0.12499852E+03</pdfrwt>
<pdfrwt beam="1">  1       -4 0.26634430E-01 0.12499852E+03</pdfrwt>
<totfact> 0.18878353E+03</totfact>
</mgrwt>
</event>
<event>
 5    1  0.1466870E-002  0.1250001E+03  0.7818608E-02  0.1235069E+00
          4   -1    0    0  501    0  0.00000000000E+00  0.00000000000E+00  0.15048306566E+02  0.15101802227E+02  0.12700000000E+01 0. -1.
         -4   -1    0    0    0  501 -0.00000000000E+00 -0.00000000000E+00 -0.25906535767E+03  0.25906847057E+03  0.12700000000E+01 0. -1.
         25    2    1    2    0    0  0.00000000000E+00  0.00000000000E+00 -0.24401705110E+03  0.27417027280E+03  0.12500006903E+03 0.  0.
    9000005    1    3    3    0    0 -0.40684263240E+02 -0.22482508028E+02 -0.30395803153E+02  0.55547972887E+02  0.10000000000E+01 0.  0.
    9000005    1    3    3    0    0  0.40684263240E+02  0.22482508028E+02 -0.21362124795E+03  0.21862229991E+03  0.10000000000E+01 0.  0.
<mgrwt>
<rscale>  0 0.12500007E+03</rscale>
<asrwt>0</asrwt>
<pdfrwt beam="1">  1        4 0.37691535E-02 0.12500007E+03</pdfrwt>
<pdfrwt beam="2">  1       -4 0.64773401E-01 0.12500007E+03</pdfrwt>
<totfact> 0.13727144E+03</totfact>
</mgrwt>
</event>
<event>
 5    1  0.1466870E-002  0.1250034E+03  0.7818608E-02  0.1235064E+00
          4   -1    0    0  501    0  0.00000000000E+00  0.00000000000E+00  0.10475134433E+03  0.10475904276E+03  0.12700000000E+01 0.  1.
         -4   -1    0    0    0  501 -0.00000000000E+00 -0.00000000000E+00 -0.37272818017E+02  0.37294448151E+02  0.12700000000E+01 0.  1.
         25    2    1    2    0    0  0.00000000000E+00  0.00000000000E+00  0.67478526314E+02  0.14205349091E+03  0.12500337102E+03 0.  0.
    9000005    1    3    3    0    0  0.47063147656E+02  0.24999979266E+01 -0.12898332195E+02  0.48872863947E+02  0.10000000000E+01 0.  0.
    9000005    1    3    3    0    0 -0.47063147656E+02 -0.24999979266E+01  0.80376858509E+02  0.93180626960E+02  0.10000000000E+01 0.  0.
<mgrwt>
<rscale>  0 0.12500337E+03</rscale>
<asrwt>0</asrwt>
<pdfrwt beam="1">  1        4 0.26191502E-01 0.12500337E+03</pdfrwt>
<pdfrwt beam="2">  1       -4 0.93218707E-02 0.12500337E+03</pdfrwt>
<totfact> 0.18934289E+03</totfact>
</mgrwt>
</event>
<event>
 5    1  0.1466870E-002  0.1249995E+03  0.7818608E-02  0.1235070E+00
         -4   -1    0    0    0  501 -0.00000000000E+00  0.00000000000E+00  0.13607540800E+03  0.13608133436E+03  0.12700000000E+01 0. -1.
          4   -1    0    0  501    0  0.00000000000E+00 -0.00000000000E+00 -0.28685678326E+02  0.28713777895E+02  0.12700000000E+01 0. -1.
         25    2    1    2    0    0  0.00000000000E+00  0.00000000000E+00  0.10738972967E+03  0.16479511226E+03  0.12499949994E+03 0.  0.
    9000005    1    3    3    0    0 -0.38384122571E+02 -0.22758630242E+02  0.11137127741E+03  0.11998273854E+03  0.10000000000E+01 0.  0.
    9000005    1    3    3    0    0  0.38384122571E+02  0.22758630242E+02 -0.39815477332E+01  0.44812373720E+02  0.10000000000E+01 0.  0.
<mgrwt>
<rscale>  0 0.12499950E+03</rscale>
<asrwt>0</asrwt>
<pdfrwt beam="2">  1        4 0.71756730E-02 0.12499950E+03</pdfrwt>
<pdfrwt beam="1">  1       -4 0.34023105E-01 0.12499950E+03</pdfrwt>
<totfact> 0.17834604E+03</totfact>
</mgrwt>
</event>
<event>
 4    1  0.1466870E-002  0.1252342E+03  0.7818608E-02  0.1234704E+00
         -4   -1    0    0    0  501 -0.00000000000E+00  0.00000000000E+00  0.28806808790E+02  0.28834790317E+02  0.12700000000E+01 0. -1.
          4   -1    0    0  501    0  0.00000000000E+00 -0.00000000000E+00 -0.13601318715E+03  0.13601911623E+03  0.12700000000E+01 0. -1.
    9000005    1    1    2    0    0 -0.28787537309E+02  0.54968974168E+02 -0.64584412137E+02  0.89568167987E+02  0.10000000000E+01 0.  0.
    9000005    1    1    2    0    0  0.28787537309E+02 -0.54968974168E+02 -0.42621966228E+02  0.75285738560E+02  0.10000000000E+01 0.  0.
<mgrwt>
<rscale>  0 0.12523419E+03</rscale>
<asrwt>0</asrwt>
<pdfrwt beam="2">  1        4 0.34007534E-01 0.12523419E+03</pdfrwt>
<pdfrwt beam="1">  1       -4 0.72059414E-02 0.12523419E+03</pdfrwt>
<totfact> 0.17735028E+03</totfact>
</mgrwt>
</event>
<event>
 5    1  0.1466870E-002  0.1249977E+03  0.7818608E-02  0.1235073E+00
          4   -1    0    0  501    0  0.00000000000E+00  0.00000000000E+00  0.17562835930E+02  0.17608694043E+02  0.12700000000E+01 0.  1.
         -4   -1    0    0    0  501 -0.00000000000E+00 -0.00000000000E+00 -0.22206987285E+03  0.22207350433E+03  0.12700000000E+01 0.  1.
         25    2    1    2    0    0  0.00000000000E+00  0.00000000000E+00 -0.20450703692E+03  0.23968219837E+03  0.12499771225E+03 0.  0.
    9000005    1    3    3    0    0  0.46180800010E+02  0.31212301739E+02 -0.48078565888E+02  0.73616727497E+02  0.10000000000E+01 0.  0.
    9000005    1    3    3    0    0 -0.46180800010E+02 -0.31212301739E+02 -0.15642847103E+03  0.16606547088E+03  0.10000000000E+01 0.  0.
<mgrwt>
<rscale>  0 0.12499771E+03</rscale>
<asrwt>0</asrwt>
<pdfrwt beam="1">  1        4 0.43968959E-02 0.12499771E+03</pdfrwt>
<pdfrwt beam="2">  1       -4 0.55523646E-01 0.12499771E+03</pdfrwt>
<totfact> 0.14848190E+03</totfact>
</mgrwt>
</event>
<event>
 5    1  0.1466870E-002  0.1249891E+03  0.7818608E-02  0.1235086E+00
         -4   -1    0    0    0  501 -0.00000000000E+00  0.00000000000E+00  0.28068216862E+02  0.28096933958E+02  0.12700000000E+01 0.  1.
          4   -1    0    0  501    0  0.00000000000E+00 -0.00000000000E+00 -0.13904291333E+03  0.13904871322E+03  0.12700000000E+01 0.  1.
         25    2    1    2    0    0  0.00000000000E+00  0.00000000000E+00 -0.11097469647E+03  0.16714564717E+03  0.12498913598E+03 0.  0.
    9000005    1    3    3    0    0 -0.20420850745E+02 -0.52742866958E+02 -0.91013503382E+02  0.10716006233E+03  0.10000000000E+01 0.  0.
    9000005    1    3    3    0    0  0.20420850745E+02  0.52742866958E+02 -0.19961193085E+02  0.59985584847E+02  0.10000000000E+01 0.  0.
<mgrwt>
<rscale>  0 0.12498914E+03</rscale>
<asrwt>0</asrwt>
<pdfrwt beam="2">  1        4 0.34765041E-01 0.12498914E+03</pdfrwt>
<pdfrwt beam="1">  1       -4 0.70213692E-02 0.12498914E+03</pdfrwt>
<totfact> 0.17731037E+03</totfact>
</mgrwt>
</event>
<event>
 5    1  0.1466870E-002  0.1249731E+03  0.7818608E-02  0.1235111E+00
         -4   -1    0    0    0  501 -0.00000000000E+00  0.00000000000E+00  0.11677728406E+02  0.11746584216E+02  0.12700000000E+01 0.  1.
          4   -1    0    0  501    0  0.00000000000E+00 -0.00000000000E+00 -0.33330718816E+03  0.33330960769E+03  0.12700000000E+01 0.  1.
         25    2    1    2    0    0  0.00000000000E+00  0.00000000000E+00 -0.32162945975E+03  0.34505619190E+03  0.12497306186E+03 0.  0.
    9000005    1    3    3    0    0  0.19573384134E+02 -0.49423259639E+02 -0.70170407185E+02  0.88037844160E+02  0.10000000000E+01 0.  0.
    9000005    1    3    3    0    0 -0.19573384134E+02  0.49423259639E+02 -0.25145905257E+03  0.25701834774E+03  0.10000000000E+01 0.  0.
<mgrwt>
<rscale>  0 0.12497306E+03</rscale>
<asrwt>0</asrwt>
<pdfrwt beam="2">  1        4 0.83335675E-01 0.12497306E+03</pdfrwt>
<pdfrwt beam="1">  1       -4 0.29283426E-02 0.12497306E+03</pdfrwt>
<totfact> 0.11803381E+03</totfact>
</mgrwt>
</event>
<event>
 5    1  0.1466870E-002  0.1250034E+03  0.7818608E-02  0.1235064E+00
         -4   -1    0    0    0  501 -0.00000000000E+00  0.00000000000E+00  0.68290624924E+01  0.69461496187E+01  0.12700000000E+01 0.  1.
          4   -1    0    0  501    0  0.00000000000E+00 -0.00000000000E+00 -0.56705476885E+03  0.56705619102E+03  0.12700000000E+01 0.  1.
         25    2    1    2    0    0  0.00000000000E+00  0.00000000000E+00 -0.56022570636E+03  0.57400234064E+03  0.12500337994E+03 0.  0.
    9000005    1    3    3    0    0  0.58528534060E+02 -0.14371866244E+02 -0.20419765431E+03  0.21290801268E+03  0.10000000000E+01 0.  0.
    9000005    1    3    3    0    0 -0.58528534060E+02  0.14371866244E+02 -0.35602805205E+03  0.36109432796E+03  0.10000000000E+01 0.  0.
<mgrwt>
<rscale>  0 0.12500338E+03</rscale>
<asrwt>0</asrwt>
<pdfrwt beam="2">  1        4 0.14177835E+00 0.12500338E+03</pdfrwt>
<pdfrwt beam="1">  1       -4 0.17220812E-02 0.12500338E+03</pdfrwt>
<totfact> 0.76868733E+02</totfact>
</mgrwt>
</event>
<event>
 5    1  0.1466870E-002  0.1249798E+03  0.7818608E-02  0.1235101E+00
         -4   -1    0    0    0  501 -0.00000000000E+00  0.00000000000E+00  0.11601093602E+02  0.11670401568E+02  0.12700000000E+01 0.  1.
          4   -1    0    0  501    0  0.00000000000E+00 -0.00000000000E+00 -0.33553234489E+03  0.33553474838E+03  0.12700000000E+01 0.  1.
         25    2    1    2    0    0  0.00000000000E+00  0.00000000000E+00 -0.32393125129E+03  0.34720514995E+03  0.12497984072E+03 0.  0.
    9000005    1    3    3    0    0 -0.46113618460E+02  0.14275306098E+02 -0.51757737658E+02  0.70782155796E+02  0.10000000000E+01 0.  0.
    9000005    1    3    3    0    0  0.46113618460E+02 -0.14275306098E+02 -0.27217351363E+03  0.27642299415E+03  0.10000000000E+01 0.  0.
<mgrwt>
<rscale>  0 0.12497984E+03</rscale>
<asrwt>0</asrwt>
<pdfrwt beam="2">  1        4 0.83892018E-01 0.12497984E+03</pdfrwt>
<pdfrwt beam="1">  1       -4 0.29092384E-02 0.12497984E+03</pdfrwt>
<totfact> 0.11749678E+03</totfact>
</mgrwt>
</event>
<event>
 5    1  0.1466870E-002  0.1250027E+03  0.7818608E-02  0.1235065E+00
          4   -1    0    0  501    0  0.00000000000E+00  0.00000000000E+00  0.54316094914E+02  0.54330940234E+02  0.12700000000E+01 0. -1.
         -4   -1    0    0    0  501 -0.00000000000E+00 -0.00000000000E+00 -0.71889766372E+02  0.71900983366E+02  0.12700000000E+01 0. -1.
         25    2    1    2    0    0  0.00000000000E+00  0.00000000000E+00 -0.17573671458E+02  0.12623192360E+03  0.12500265840E+03 0.  0.
    9000005    1    3    3    0    0 -0.31397785657E+00  0.74638506407E+01  0.53868524847E+02  0.54393249744E+02  0.10000000000E+01 0.  0.
    9000005    1    3    3    0    0  0.31397785657E+00 -0.74638506407E+01 -0.71442196305E+02  0.71838673856E+02  0.10000000000E+01 0.  0.
<mgrwt>
<rscale>  0 0.12500266E+03</rscale>
<asrwt>0</asrwt>
<pdfrwt beam="1">  1        4 0.13582282E-01 0.12500266E+03</pdfrwt>
<pdfrwt beam="2">  1       -4 0.17975699E-01 0.12500266E+03</pdfrwt>
<totfact> 0.19767163E+03</totfact>
</mgrwt>
</event>
<event>
 5    1  0.1466870E-002  0.1249996E+03  0.7818608E-02  0.1235070E+00
          4   -1    0    0  501    0  0.00000000000E+00  0.00000000000E+00  0.12392916315E+04  0.12392922822E+04  0.12700000000E+01 0.  1.
         -4   -1    0    0    0  501 -0.00000000000E+00 -0.00000000000E+00 -0.30233766067E+01  0.32792843893E+01  0.12700000000E+01 0.  1.
         25    2    1    2    0    0  0.00000000000E+00  0.00000000000E+00  0.12362682549E+04  0.12425715666E+04  0.12499960050E+03 0.  0.
    9000005    1    3    3    0    0 -0.55163797447E+02 -0.28616685288E+02  0.55274806515E+03  0.55623141115E+03  0.10000000000E+01 0.  0.
    9000005    1    3    3    0    0  0.55163797447E+02  0.28616685288E+02  0.68352018975E+03  0.68634015548E+03  0.10000000000E+01 0.  0.
<mgrwt>
<rscale>  0 0.12499960E+03</rscale>
<asrwt>0</asrwt>
<pdfrwt beam="1">  1        4 0.30985512E+00 0.12499960E+03</pdfrwt>
<pdfrwt beam="2">  1       -4 0.78791360E-03 0.12499960E+03</pdfrwt>
<totfact> 0.23040151E+02</totfact>
</mgrwt>
</event>
<event>
 5    1  0.1466870E-002  0.1250004E+03  0.7818608E-02  0.1235069E+00
         -4   -1    0    0    0  501 -0.00000000000E+00  0.00000000000E+00  0.95864512697E+02  0.95872924721E+02  0.12700000000E+01 0.  1.
          4   -1    0    0  501    0  0.00000000000E+00 -0.00000000000E+00 -0.40727795479E+02  0.40747591641E+02  0.12700000000E+01 0.  1.
         25    2    1    2    0    0  0.00000000000E+00  0.00000000000E+00  0.55136717218E+02  0.13662051636E+03  0.12500043162E+03 0.  0.
    9000005    1    3    3    0    0  0.39607470109E+02 -0.47764648446E+02  0.19458059057E+02  0.65037138558E+02  0.10000000000E+01 0.  0.
    9000005    1    3    3    0    0 -0.39607470109E+02  0.47764648446E+02  0.35678658162E+02  0.71583377804E+02  0.10000000000E+01 0.  0.
<mgrwt>
<rscale>  0 0.12500043E+03</rscale>
<asrwt>0</asrwt>
<pdfrwt beam="2">  1        4 0.10185475E-01 0.12500043E+03</pdfrwt>
<pdfrwt beam="1">  1       -4 0.23969654E-01 0.12500043E+03</pdfrwt>
<totfact> 0.19214396E+03</totfact>
</mgrwt>
</event>
<event>
 5    1  0.1466870E-002  0.1249949E+03  0.7818608E-02  0.1235077E+00
          4   -1    0    0  501    0  0.00000000000E+00  0.00000000000E+00  0.15622893085E+03  0.15623409274E+03  0.12700000000E+01 0. -1.
         -4   -1    0    0    0  501 -0.00000000000E+00 -0.00000000000E+00 -0.24979626258E+02  0.25011889733E+02  0.12700000000E+01 0. -1.
         25    2    1    2    0    0  0.00000000000E+00  0.00000000000E+00  0.13124930459E+03  0.18124598248E+03  0.12499490473E+03 0.  0.
    9000005    1    3    3    0    0 -0.61347313084E+02  0.10736857969E+02  0.73040886084E+02  0.95993458014E+02  0.10000000000E+01 0.  0.
    9000005    1    3    3    0    0  0.61347313084E+02 -0.10736857969E+02  0.58208418510E+02  0.85252524462E+02  0.10000000000E+01 0.  0.
<mgrwt>
<rscale>  0 0.12499490E+03</rscale>
<asrwt>0</asrwt>
<pdfrwt beam="1">  1        4 0.39061911E-01 0.12499490E+03</pdfrwt>
<pdfrwt beam="2">  1       -4 0.62495847E-02 0.12499490E+03</pdfrwt>
<totfact> 0.17103438E+03</totfact>
</mgrwt>
</event>
<event>
 5    1  0.1466870E-002  0.1250023E+03  0.7818608E-02  0.1235066E+00
         -4   -1    0    0    0  501 -0.00000000000E+00  0.00000000000E+00  0.12271753175E+03  0.12272410317E+03  0.12700000000E+01 0.  1.
          4   -1    0    0  501    0  0.00000000000E+00 -0.00000000000E+00 -0.31812313385E+02  0.31837653540E+02  0.12700000000E+01 0.  1.
         25    2    1    2    0    0  0.00000000000E+00  0.00000000000E+00  0.90905218366E+02  0.15456175671E+03  0.12500231162E+03 0.  0.
    9000005    1    3    3    0    0  0.58554060704E+02  0.16104382784E+02  0.63686485012E+02  0.88005099529E+02  0.10000000000E+01 0.  0.
    9000005    1    3    3    0    0 -0.58554060704E+02 -0.16104382784E+02  0.27218733353E+02  0.66556657181E+02  0.10000000000E+01 0.  0.
<mgrwt>
<rscale>  0 0.12500231E+03</rscale>
<asrwt>0</asrwt>
<pdfrwt beam="2">  1        4 0.79570674E-02 0.12500231E+03</pdfrwt>
<pdfrwt beam="1">  1       -4 0.30683372E-01 0.12500231E+03</pdfrwt>
<totfact> 0.18315745E+03</totfact>
</mgrwt>
</event>
<event>
 4    1  0.1466870E-002  0.1254902E+03  0.7818608E-02  0.1234305E+00
          4   -1    0    0  501    0  0.00000000000E+00  0.00000000000E+00  0.28231101078E+03  0.28231386737E+03  0.12700000000E+01 0.  1.
         -4   -1    0    0    0  501 -0.00000000000E+00 -0.00000000000E+00 -0.13913589477E+02  0.13971430568E+02  0.12700000000E+01 0.  1.
    9000005    1    1    2    0    0  0.13439571053E+02  0.54711092786E+02  0.19937425541E+03  0.20718354052E+03  0.10000000000E+01 0.  0.
    9000005    1    1    2    0    0 -0.13439571053E+02 -0.54711092786E+02  0.69023165898E+02  0.89101757416E+02  0.10000000000E+01 0.  0.
<mgrwt>
<rscale>  0 0.12549025E+03</rscale>
<asrwt>0</asrwt>
<pdfrwt beam="1">  1        4 0.70585337E-01 0.12549025E+03</pdfrwt>
<pdfrwt beam="2">  1       -4 0.34859847E-02 0.12549025E+03</pdfrwt>
<totfact> 0.12929977E+03</totfact>
</mgrwt>
</event>
<event>
 4    1  0.1466870E-002  0.1250677E+03  0.7818608E-02  0.1234964E+00
          4   -1    0    0  501    0  0.00000000000E+00  0.00000000000E+00  0.22708511549E+02  0.22743996939E+02  0.12700000000E+01 0. -1.
         -4   -1    0    0    0  501 -0.00000000000E+00 -0.00000000000E+00 -0.17203112888E+03  0.17203581663E+03  0.12700000000E+01 0. -1.
    9000005    1    1    2    0    0  0.24907787130E+02  0.32635330350E+01  0.14511409180E+02  0.29028081300E+02  0.10000000000E+01 0.  0.
    9000005    1    1    2    0    0 -0.24907787130E+02 -0.32635330350E+01 -0.16383402652E+03  0.16575173227E+03  0.10000000000E+01 0.  0.
<mgrwt>
<rscale>  0 0.12506771E+03</rscale>
<asrwt>0</asrwt>
<pdfrwt beam="1">  1        4 0.56821500E-02 0.12506771E+03</pdfrwt>
<pdfrwt beam="2">  1       -4 0.43012800E-01 0.12506771E+03</pdfrwt>
<totfact> 0.16507349E+03</totfact>
</mgrwt>
</event>
<event>
 5    1  0.1466870E-002  0.1249993E+03  0.7818608E-02  0.1235070E+00
         -4   -1    0    0    0  501 -0.00000000000E+00  0.00000000000E+00  0.21516320038E+02  0.21553768301E+02  0.12700000000E+01 0.  1.
          4   -1    0    0  501    0  0.00000000000E+00 -0.00000000000E+00 -0.18134861170E+03  0.18135305860E+03  0.12700000000E+01 0.  1.
         25    2    1    2    0    0  0.00000000000E+00  0.00000000000E+00 -0.15983229166E+03  0.20290682690E+03  0.12499927579E+03 0.  0.
    9000005    1    3    3    0    0  0.60047896354E+01  0.40468497428E+02 -0.15659622339E+03  0.16185528710E+03  0.10000000000E+01 0.  0.
    9000005    1    3    3    0    0 -0.60047896354E+01 -0.40468497428E+02 -0.32360682752E+01  0.41051539807E+02  0.10000000000E+01 0.  0.
<mgrwt>
<rscale>  0 0.12499928E+03</rscale>
<asrwt>0</asrwt>
<pdfrwt beam="2">  1        4 0.45342385E-01 0.12499928E+03</pdfrwt>
<pdfrwt beam="1">  1       -4 0.53843174E-02 0.12499928E+03</pdfrwt>
<totfact> 0.16206577E+03</totfact>
</mgrwt>
</event>
<event>
 5    1  0.1466870E-002  0.1249926E+03  0.7818608E-02  0.1235081E+00
         -4   -1    0    0    0  501 -0.00000000000E+00  0.00000000000E+00  0.13209072616E+02  0.13269984904E+02  0.12700000000E+01 0.  1.
          4   -1    0    0  501    0  0.00000000000E+00 -0.00000000000E+00 -0.29494738426E+03  0.29495011847E+03  0.12700000000E+01 0.  1.
         25    2    1    2    0    0  0.00000000000E+00  0.00000000000E+00 -0.28173831165E+03  0.30822010337E+03  0.12499262327E+03 0.  0.
    9000005    1    3    3    0    0 -0.62053652654E+02  0.40126435615E+01 -0.15607639289E+03  0.16801070661E+03  0.10000000000E+01 0.  0.
    9000005    1    3    3    0    0  0.62053652654E+02 -0.40126435615E+01 -0.12566191876E+03  0.14020939677E+03  0.10000000000E+01 0.  0.
<mgrwt>
<rscale>  0 0.12499262E+03</rscale>
<asrwt>0</asrwt>
<pdfrwt beam="2">  1        4 0.73744780E-01 0.12499262E+03</pdfrwt>
<pdfrwt beam="1">  1       -4 0.33102249E-02 0.12499262E+03</pdfrwt>
<totfact> 0.12745915E+03</totfact>
</mgrwt>
</event>
<event>
 5    1  0.1466870E-002  0.1249986E+03  0.7818608E-02  0.1235071E+00
          4   -1    0    0  501    0  0.00000000000E+00  0.00000000000E+00  0.12487929327E+03  0.12488575094E+03  0.12700000000E+01 0.  1.
         -4   -1    0    0    0  501 -0.00000000000E+00 -0.00000000000E+00 -0.31259367259E+02  0.31285155288E+02  0.12700000000E+01 0.  1.
         25    2    1    2    0    0  0.00000000000E+00  0.00000000000E+00  0.93619926012E+02  0.15617090623E+03  0.12499864561E+03 0.  0.
    9000005    1    3    3    0    0 -0.15471972864E+02 -0.35619182917E+02 -0.14359409195E+02  0.41416189690E+02  0.10000000000E+01 0.  0.
    9000005    1    3    3    0    0  0.15471972864E+02  0.35619182917E+02  0.10797933521E+03  0.11475471654E+03  0.10000000000E+01 0.  0.
<mgrwt>
<rscale>  0 0.12499865E+03</rscale>
<asrwt>0</asrwt>
<pdfrwt beam="1">  1        4 0.31223853E-01 0.12499865E+03</pdfrwt>
<pdfrwt beam="2">  1       -4 0.78188727E-02 0.12499865E+03</pdfrwt>
<totfact> 0.18240034E+03</totfact>
</mgrwt>
</event>
<event>
 5    1  0.1466870E-002  0.1250214E+03  0.7818608E-02  0.1235036E+00
         -4   -1    0    0    0  501 -0.00000000000E+00  0.00000000000E+00  0.31604147722E+02  0.31629654649E+02  0.12700000000E+01 0. -1.
          4   -1    0    0  501    0  0.00000000000E+00 -0.00000000000E+00 -0.12356287751E+03  0.12356940397E+03  0.12700000000E+01 0. -1.
         25    2    1    2    0    0  0.00000000000E+00  0.00000000000E+00 -0.91958729785E+02  0.15519905862E+03  0.12502135743E+03 0.  0.
    9000005    1    3    3    0    0  0.63124838717E+00  0.49289794384E+02 -0.93682991782E+02  0.10586493874E+03  0.10000000000E+01 0.  0.
    9000005    1    3    3    0    0 -0.63124838717E+00 -0.49289794384E+02  0.17242619968E+01  0.49334119881E+02  0.10000000000E+01 0.  0.
<mgrwt>
<rscale>  0 0.12502136E+03</rscale>
<asrwt>0</asrwt>
<pdfrwt beam="2">  1        4 0.30894722E-01 0.12502136E+03</pdfrwt>
<pdfrwt beam="1">  1       -4 0.79050414E-02 0.12502136E+03</pdfrwt>
<totfact> 0.18276983E+03</totfact>
</mgrwt>
</event>
<event>
 5    1  0.1466870E-002  0.1250018E+03  0.7818608E-02  0.1235067E+00
          4   -1    0    0  501    0  0.00000000000E+00  0.00000000000E+00  0.27705255500E+02  0.27734348421E+02  0.12700000000E+01 0. -1.
         -4   -1    0    0    0  501 -0.00000000000E+00 -0.00000000000E+00 -0.14089116165E+03  0.14089688545E+03  0.12700000000E+01 0. -1.
         25    2    1    2    0    0  0.00000000000E+00  0.00000000000E+00 -0.11318590615E+03  0.16863123388E+03  0.12500177474E+03 0.  0.
    9000005    1    3    3    0    0 -0.60070709305E+02  0.81430307206E+01 -0.36108915271E+02  0.70566655212E+02  0.10000000000E+01 0.  0.
    9000005    1    3    3    0    0  0.60070709305E+02 -0.81430307206E+01 -0.77076990878E+02  0.98064578664E+02  0.10000000000E+01 0.  0.
<mgrwt>
<rscale>  0 0.12500177E+03</rscale>
<asrwt>0</asrwt>
<pdfrwt beam="1">  1        4 0.69306663E-02 0.12500177E+03</pdfrwt>
<pdfrwt beam="2">  1       -4 0.35227141E-01 0.12500177E+03</pdfrwt>
<totfact> 0.17658234E+03</totfact>
</mgrwt>
</event>
<event>
 5    1  0.1466870E-002  0.1250016E+03  0.7818608E-02  0.1235067E+00
          4   -1    0    0  501    0  0.00000000000E+00  0.00000000000E+00  0.44712391090E+02  0.44730423841E+02  0.12700000000E+01 0. -1.
         -4   -1    0    0    0  501 -0.00000000000E+00 -0.00000000000E+00 -0.87325841858E+02  0.87335076322E+02  0.12700000000E+01 0. -1.
         25    2    1    2    0    0  0.00000000000E+00  0.00000000000E+00 -0.42613450768E+02  0.13206550016E+03  0.12500156058E+03 0.  0.
    9000005    1    3    3    0    0 -0.39508223225E+02 -0.48133191851E+02 -0.26861569134E+02  0.67825126292E+02  0.10000000000E+01 0.  0.
    9000005    1    3    3    0    0  0.39508223225E+02  0.48133191851E+02 -0.15751881634E+02  0.64240373872E+02  0.10000000000E+01 0.  0.
<mgrwt>
<rscale>  0 0.12500156E+03</rscale>
<asrwt>0</asrwt>
<pdfrwt beam="1">  1        4 0.11181506E-01 0.12500156E+03</pdfrwt>
<pdfrwt beam="2">  1       -4 0.21834869E-01 0.12500156E+03</pdfrwt>
<totfact> 0.19453264E+03</totfact>
</mgrwt>
</event>
<event>
 5    1  0.1466870E-002  0.1249996E+03  0.7818608E-02  0.1235070E+00
         -4   -1    0    0    0  501 -0.00000000000E+00  0.00000000000E+00  0.29048771839E+02  0.29076520517E+02  0.12700000000E+01 0.  1.
          4   -1    0    0  501    0  0.00000000000E+00 -0.00000000000E+00 -0.13437639008E+03  0.13438239137E+03  0.12700000000E+01 0.  1.
         25    2    1    2    0    0  0.00000000000E+00  0.00000000000E+00 -0.10532761824E+03  0.16345891189E+03  0.12499963485E+03 0.  0.
    9000005    1    3    3    0    0  0.31177023499E+02  0.41069171748E+02 -0.98833140075E+02  0.11147947452E+03  0.10000000000E+01 0.  0.
    9000005    1    3    3    0    0 -0.31177023499E+02 -0.41069171748E+02 -0.64944781631E+01  0.51979437366E+02  0.10000000000E+01 0.  0.
<mgrwt>
<rscale>  0 0.12499963E+03</rscale>
<asrwt>0</asrwt>
<pdfrwt beam="2">  1        4 0.33598315E-01 0.12499963E+03</pdfrwt>
<pdfrwt beam="1">  1       -4 0.72664121E-02 0.12499963E+03</pdfrwt>
<totfact> 0.17896330E+03</totfact>
</mgrwt>
</event>
<event>
 5    1  0.1466870E-002  0.1250040E+03  0.7818608E-02  0.1235063E+00
         -4   -1    0    0    0  501 -0.00000000000E+00  0.00000000000E+00  0.60021015814E+03  0.60021150175E+03  0.12700000000E+01 0.  1.
          4   -1    0    0  501    0  0.00000000000E+00 -0.00000000000E+00 -0.64452357097E+01  0.65691676302E+01  0.12700000000E+01 0.  1.
         25    2    1    2    0    0  0.00000000000E+00  0.00000000000E+00  0.59376492243E+03  0.60678066938E+03  0.12500399044E+03 0.  0.
    9000005    1    3    3    0    0 -0.24340690899E+02 -0.56978854773E+02  0.33644859298E+03  0.34210775327E+03  0.10000000000E+01 0.  0.
    9000005    1    3    3    0    0  0.24340690899E+02  0.56978854773E+02  0.25731632944E+03  0.26467291611E+03  0.10000000000E+01 0.  0.
<mgrwt>
<rscale>  0 0.12500399E+03</rscale>
<asrwt>0</asrwt>
<pdfrwt beam="2">  1        4 0.16269685E-02 0.12500399E+03</pdfrwt>
<pdfrwt beam="1">  1       -4 0.15006819E+00 0.12500399E+03</pdfrwt>
<totfact> 0.72649726E+02</totfact>
</mgrwt>
</event>
<event>
 5    1  0.1466870E-002  0.1249900E+03  0.7818608E-02  0.1235085E+00
          4   -1    0    0  501    0  0.00000000000E+00  0.00000000000E+00  0.36179078625E+02  0.36201362269E+02  0.12700000000E+01 0.  1.
         -4   -1    0    0    0  501 -0.00000000000E+00 -0.00000000000E+00 -0.10789330164E+03  0.10790077589E+03  0.12700000000E+01 0.  1.
         25    2    1    2    0    0  0.00000000000E+00  0.00000000000E+00 -0.71714223014E+02  0.14410213816E+03  0.12498998536E+03 0.  0.
    9000005    1    3    3    0    0  0.20701288060E+01 -0.32457400695E+01  0.36047883172E+02  0.36266653320E+02  0.10000000000E+01 0.  0.
    9000005    1    3    3    0    0 -0.20701288060E+01  0.32457400695E+01 -0.10776210619E+03  0.10783548484E+03  0.10000000000E+01 0.  0.
<mgrwt>
<rscale>  0 0.12498999E+03</rscale>
<asrwt>0</asrwt>
<pdfrwt beam="1">  1        4 0.90484896E-02 0.12498999E+03</pdfrwt>
<pdfrwt beam="2">  1       -4 0.26977044E-01 0.12498999E+03</pdfrwt>
<totfact> 0.18836809E+03</totfact>
</mgrwt>
</event>
<event>
 5    1  0.1466870E-002  0.1250073E+03  0.7818608E-02  0.1235058E+00
          4   -1    0    0  501    0  0.00000000000E+00  0.00000000000E+00  0.79200947083E+02  0.79211128757E+02  0.12700000000E+01 0.  1.
         -4   -1    0    0    0  501 -0.00000000000E+00 -0.00000000000E+00 -0.49304983537E+02  0.49321337184E+02  0.12700000000E+01 0.  1.
         25    2    1    2    0    0  0.00000000000E+00  0.00000000000E+00  0.29895963546E+02  0.12853246594E+03  0.12500730444E+03 0.  0.
    9000005    1    3    3    0    0  0.52245648375E+02 -0.31621256904E+02  0.12998222558E+01  0.61091744125E+02  0.10000000000E+01 0.  0.
    9000005    1    3    3    0    0 -0.52245648375E+02  0.31621256904E+02  0.28596141290E+02  0.67440721816E+02  0.10000000000E+01 0.  0.
<mgrwt>
<rscale>  0 0.12500730E+03</rscale>
<asrwt>0</asrwt>
<pdfrwt beam="1">  1        4 0.19803554E-01 0.12500730E+03</pdfrwt>
<pdfrwt beam="2">  1       -4 0.12329563E-01 0.12500730E+03</pdfrwt>
<totfact> 0.19640263E+03</totfact>
</mgrwt>
</event>
<event>
 5    1  0.1466870E-002  0.1250286E+03  0.7818608E-02  0.1235025E+00
          4   -1    0    0  501    0  0.00000000000E+00  0.00000000000E+00  0.71171375931E+02  0.71182706130E+02  0.12700000000E+01 0.  1.
         -4   -1    0    0    0  501 -0.00000000000E+00 -0.00000000000E+00 -0.54887201632E+02  0.54901892526E+02  0.12700000000E+01 0.  1.
         25    2    1    2    0    0  0.00000000000E+00  0.00000000000E+00  0.16284174299E+02  0.12608459866E+03  0.12502860347E+03 0.  0.
    9000005    1    3    3    0    0  0.36895654059E+02 -0.84631398811E+01  0.58302763305E+02  0.69520689252E+02  0.10000000000E+01 0.  0.
    9000005    1    3    3    0    0 -0.36895654059E+02  0.84631398811E+01 -0.42018589005E+02  0.56563909404E+02  0.10000000000E+01 0.  0.
<mgrwt>
<rscale>  0 0.12502860E+03</rscale>
<asrwt>0</asrwt>
<pdfrwt beam="1">  1        4 0.17796097E-01 0.12502860E+03</pdfrwt>
<pdfrwt beam="2">  1       -4 0.13725053E-01 0.12502860E+03</pdfrwt>
<totfact> 0.19763123E+03</totfact>
</mgrwt>
</event>
<event>
 5    1  0.1466870E-002  0.1250020E+03  0.7818608E-02  0.1235066E+00
          4   -1    0    0  501    0  0.00000000000E+00  0.00000000000E+00  0.74256991802E+03  0.74257100405E+03  0.12700000000E+01 0.  1.
         -4   -1    0    0    0  501 -0.00000000000E+00 -0.00000000000E+00 -0.51828635111E+01  0.53361947279E+01  0.12700000000E+01 0.  1.
         25    2    1    2    0    0  0.00000000000E+00  0.00000000000E+00  0.73738705451E+03  0.74790719878E+03  0.12500203926E+03 0.  0.
    9000005    1    3    3    0    0 -0.30690936311E+01  0.60977859477E+02  0.28894476632E+03  0.29532659322E+03  0.10000000000E+01 0.  0.
    9000005    1    3    3    0    0  0.30690936311E+01 -0.60977859477E+02  0.44844228819E+03  0.45258060555E+03  0.10000000000E+01 0.  0.
<mgrwt>
<rscale>  0 0.12500204E+03</rscale>
<asrwt>0</asrwt>
<pdfrwt beam="1">  1        4 0.18566177E+00 0.12500204E+03</pdfrwt>
<pdfrwt beam="2">  1       -4 0.13150181E-02 0.12500204E+03</pdfrwt>
<totfact> 0.57267885E+02</totfact>
</mgrwt>
</event>
<event>
 5    1  0.1466870E-002  0.1250048E+03  0.7818608E-02  0.1235062E+00
          4   -1    0    0  501    0  0.00000000000E+00  0.00000000000E+00  0.21453662348E+03  0.21454038248E+03  0.12700000000E+01 0.  1.
         -4   -1    0    0    0  501 -0.00000000000E+00 -0.00000000000E+00 -0.18183187002E+02  0.18227484455E+02  0.12700000000E+01 0.  1.
         25    2    1    2    0    0  0.00000000000E+00  0.00000000000E+00  0.19635343648E+03  0.23276786694E+03  0.12500483135E+03 0.  0.
    9000005    1    3    3    0    0  0.26126001287E+02 -0.52261513001E+02  0.56885812885E+02  0.81552617322E+02  0.10000000000E+01 0.  0.
    9000005    1    3    3    0    0 -0.26126001287E+02  0.52261513001E+02  0.13946762360E+03  0.15121524962E+03  0.10000000000E+01 0.  0.
<mgrwt>
<rscale>  0 0.12500483E+03</rscale>
<asrwt>0</asrwt>
<pdfrwt beam="1">  1        4 0.53640162E-01 0.12500483E+03</pdfrwt>
<pdfrwt beam="2">  1       -4 0.45518039E-02 0.12500483E+03</pdfrwt>
<totfact> 0.15087232E+03</totfact>
</mgrwt>
</event>
<event>
 5    1  0.1466870E-002  0.1250017E+03  0.7818608E-02  0.1235067E+00
          4   -1    0    0  501    0  0.00000000000E+00  0.00000000000E+00  0.18686678914E+02  0.18729785606E+02  0.12700000000E+01 0. -1.
         -4   -1    0    0    0  501 -0.00000000000E+00 -0.00000000000E+00 -0.20875911321E+03  0.20876297624E+03  0.12700000000E+01 0. -1.
         25    2    1    2    0    0  0.00000000000E+00  0.00000000000E+00 -0.19007243430E+03  0.22749276185E+03  0.12500170564E+03 0.  0.
    9000005    1    3    3    0    0 -0.16424877958E+02  0.58560862940E+02 -0.12116995775E+03  0.13558137758E+03  0.10000000000E+01 0.  0.
    9000005    1    3    3    0    0  0.16424877958E+02 -0.58560862940E+02 -0.68902476547E+02  0.91911384270E+02  0.10000000000E+01 0.  0.
<mgrwt>
<rscale>  0 0.12500171E+03</rscale>
<asrwt>0</asrwt>
<pdfrwt beam="1">  1        4 0.46775416E-02 0.12500171E+03</pdfrwt>
<pdfrwt beam="2">  1       -4 0.52195642E-01 0.12500171E+03</pdfrwt>
<totfact> 0.15276717E+03</totfact>
</mgrwt>
</event>
<event>
 5    1  0.1466870E-002  0.1249996E+03  0.7818608E-02  0.1235070E+00
         -4   -1    0    0    0  501 -0.00000000000E+00  0.00000000000E+00  0.97224286057E+01  0.98050251398E+01  0.12700000000E+01 0. -1.
          4   -1    0    0  501    0  0.00000000000E+00 -0.00000000000E+00 -0.39999168726E+03  0.39999370342E+03  0.12700000000E+01 0. -1.
         25    2    1    2    0    0  0.00000000000E+00  0.00000000000E+00 -0.39026925865E+03  0.40979872856E+03  0.12499961472E+03 0.  0.
    9000005    1    3    3    0    0  0.60418241630E+02  0.14724716861E+02 -0.21535592973E+03  0.22415699337E+03  0.10000000000E+01 0.  0.
    9000005    1    3    3    0    0 -0.60418241630E+02 -0.14724716861E+02 -0.17491332893E+03  0.18564173519E+03  0.10000000000E+01 0.  0.
<mgrwt>
<rscale>  0 0.12499961E+03</rscale>
<asrwt>0</asrwt>
<pdfrwt beam="2">  1        4 0.10000844E+00 0.12499961E+03</pdfrwt>
<pdfrwt beam="1">  1       -4 0.24411851E-02 0.12499961E+03</pdfrwt>
<totfact> 0.10370192E+03</totfact>
</mgrwt>
</event>
<event>
 5    1  0.1466870E-002  0.1250001E+03  0.7818608E-02  0.1235069E+00
          4   -1    0    0  501    0  0.00000000000E+00  0.00000000000E+00  0.34540362504E+02  0.34563702665E+02  0.12700000000E+01 0.  1.
         -4   -1    0    0    0  501 -0.00000000000E+00 -0.00000000000E+00 -0.11302735306E+03  0.11303448783E+03  0.12700000000E+01 0.  1.
         25    2    1    2    0    0  0.00000000000E+00  0.00000000000E+00 -0.78486990557E+02  0.14759819050E+03  0.12500007261E+03 0.  0.
    9000005    1    3    3    0    0  0.47827411098E+02  0.39492623652E+02 -0.48245844323E+02  0.78586195160E+02  0.10000000000E+01 0.  0.
    9000005    1    3    3    0    0 -0.47827411098E+02 -0.39492623652E+02 -0.30241146233E+02  0.69011995339E+02  0.10000000000E+01 0.  0.
<mgrwt>
<rscale>  0 0.12500007E+03</rscale>
<asrwt>0</asrwt>
<pdfrwt beam="1">  1        4 0.86389002E-02 0.12500007E+03</pdfrwt>
<pdfrwt beam="2">  1       -4 0.28260647E-01 0.12500007E+03</pdfrwt>
<totfact> 0.18657480E+03</totfact>
</mgrwt>
</event>
<event>
 5    1  0.1466870E-002  0.1250061E+03  0.7818608E-02  0.1235060E+00
         -4   -1    0    0    0  501 -0.00000000000E+00  0.00000000000E+00  0.44813249282E+03  0.44813429239E+03  0.12700000000E+01 0. -1.
          4   -1    0    0  501    0  0.00000000000E+00 -0.00000000000E+00 -0.86694950862E+01  0.87620228858E+01  0.12700000000E+01 0. -1.
         25    2    1    2    0    0  0.00000000000E+00  0.00000000000E+00  0.43946299773E+03  0.45689631528E+03  0.12500606602E+03 0.  0.
    9000005    1    3    3    0    0  0.40644977098E+02  0.39590945908E+02  0.12398937539E+03  0.13635916681E+03  0.10000000000E+01 0.  0.
    9000005    1    3    3    0    0 -0.40644977098E+02 -0.39590945908E+02  0.31547362234E+03  0.32053714847E+03  0.10000000000E+01 0.  0.
<mgrwt>
<rscale>  0 0.12500607E+03</rscale>
<asrwt>0</asrwt>
<pdfrwt beam="2">  1        4 0.21791649E-02 0.12500607E+03</pdfrwt>
<pdfrwt beam="1">  1       -4 0.11204491E+00 0.12500607E+03</pdfrwt>
<totfact> 0.94778828E+02</totfact>
</mgrwt>
</event>
<event>
 5    1  0.1466870E-002  0.1250015E+03  0.7818608E-02  0.1235067E+00
         -4   -1    0    0    0  501 -0.00000000000E+00  0.00000000000E+00  0.97585799182E+02  0.97594062842E+02  0.12700000000E+01 0. -1.
          4   -1    0    0  501    0  0.00000000000E+00 -0.00000000000E+00 -0.40009801537E+02  0.40029952774E+02  0.12700000000E+01 0. -1.
         25    2    1    2    0    0  0.00000000000E+00  0.00000000000E+00  0.57575997645E+02  0.13762401562E+03  0.12500149667E+03 0.  0.
    9000005    1    3    3    0    0 -0.42025741463E+02  0.13456535715E+02 -0.19930813807E+02  0.48430141833E+02  0.10000000000E+01 0.  0.
    9000005    1    3    3    0    0  0.42025741463E+02 -0.13456535715E+02  0.77506811451E+02  0.89193873782E+02  0.10000000000E+01 0.  0.
<mgrwt>
<rscale>  0 0.12500150E+03</rscale>
<asrwt>0</asrwt>
<pdfrwt beam="2">  1        4 0.10006002E-01 0.12500150E+03</pdfrwt>
<pdfrwt beam="1">  1       -4 0.24400001E-01 0.12500150E+03</pdfrwt>
<totfact> 0.19161892E+03</totfact>
</mgrwt>
</event>
<event>
 5    1  0.1466870E-002  0.1250013E+03  0.7818608E-02  0.1235067E+00
          4   -1    0    0  501    0  0.00000000000E+00  0.00000000000E+00  0.12801240687E+02  0.12864084232E+02  0.12700000000E+01 0.  1.
         -4   -1    0    0    0  501 -0.00000000000E+00 -0.00000000000E+00 -0.30434108716E+03  0.30434373697E+03  0.12700000000E+01 0.  1.
         25    2    1    2    0    0  0.00000000000E+00  0.00000000000E+00 -0.29153984648E+03  0.31720782121E+03  0.12500127900E+03 0.  0.
    9000005    1    3    3    0    0 -0.50278927980E+02 -0.12227077683E+02 -0.56849097607E+02  0.76878423021E+02  0.10000000000E+01 0.  0.
    9000005    1    3    3    0    0  0.50278927980E+02  0.12227077683E+02 -0.23469074887E+03  0.24032939818E+03  0.10000000000E+01 0.  0.
<mgrwt>
<rscale>  0 0.12500128E+03</rscale>
<asrwt>0</asrwt>
<pdfrwt beam="1">  1        4 0.32084978E-02 0.12500128E+03</pdfrwt>
<pdfrwt beam="2">  1       -4 0.76093435E-01 0.12500128E+03</pdfrwt>
<totfact> 0.12501756E+03</totfact>
</mgrwt>
</event>
<event>
 5    1  0.1466870E-002  0.1250004E+03  0.7818608E-02  0.1235069E+00
          4   -1    0    0  501    0  0.00000000000E+00  0.00000000000E+00  0.22883213340E+02  0.22918428235E+02  0.12700000000E+01 0.  1.
         -4   -1    0    0    0  501 -0.00000000000E+00 -0.00000000000E+00 -0.17053598526E+03  0.17054071411E+03  0.12700000000E+01 0.  1.
         25    2    1    2    0    0  0.00000000000E+00  0.00000000000E+00 -0.14765277192E+03  0.19345914234E+03  0.12500039480E+03 0.  0.
    9000005    1    3    3    0    0 -0.31647101733E+02 -0.53799345222E+02 -0.69089893827E+02  0.93114563970E+02  0.10000000000E+01 0.  0.
    9000005    1    3    3    0    0  0.31647101733E+02  0.53799345222E+02 -0.78562878093E+02  0.10034457837E+03  0.10000000000E+01 0.  0.
<mgrwt>
<rscale>  0 0.12500039E+03</rscale>
<asrwt>0</asrwt>
<pdfrwt beam="1">  1        4 0.57257968E-02 0.12500039E+03</pdfrwt>
<pdfrwt beam="2">  1       -4 0.42638986E-01 0.12500039E+03</pdfrwt>
<totfact> 0.16587190E+03</totfact>
</mgrwt>
</event>
<event>
 5    1  0.1466870E-002  0.1249980E+03  0.7818608E-02  0.1235072E+00
         -4   -1    0    0    0  501 -0.00000000000E+00  0.00000000000E+00  0.68105837906E+02  0.68117678006E+02  0.12700000000E+01 0.  1.
          4   -1    0    0  501    0  0.00000000000E+00 -0.00000000000E+00 -0.57329848834E+02  0.57343913952E+02  0.12700000000E+01 0.  1.
         25    2    1    2    0    0  0.00000000000E+00  0.00000000000E+00  0.10775989073E+02  0.12546159196E+03  0.12499795645E+03 0.  0.
    9000005    1    3    3    0    0 -0.19483220721E+02  0.18598387962E+02  0.61985322103E+02  0.67591982370E+02  0.10000000000E+01 0.  0.
    9000005    1    3    3    0    0  0.19483220721E+02 -0.18598387962E+02 -0.51209333031E+02  0.57869609588E+02  0.10000000000E+01 0.  0.
<mgrwt>
<rscale>  0 0.12499796E+03</rscale>
<asrwt>0</asrwt>
<pdfrwt beam="2">  1        4 0.14335700E-01 0.12499796E+03</pdfrwt>
<pdfrwt beam="1">  1       -4 0.17029698E-01 0.12499796E+03</pdfrwt>
<totfact> 0.19810990E+03</totfact>
</mgrwt>
</event>
<event>
 5    1  0.1466870E-002  0.1250005E+03  0.7818608E-02  0.1235068E+00
         -4   -1    0    0    0  501 -0.00000000000E+00  0.00000000000E+00  0.74181566078E+03  0.74181674791E+03  0.12700000000E+01 0. -1.
          4   -1    0    0  501    0  0.00000000000E+00 -0.00000000000E+00 -0.51881581648E+01  0.53413373927E+01  0.12700000000E+01 0. -1.
         25    2    1    2    0    0  0.00000000000E+00  0.00000000000E+00  0.73662750262E+03  0.74715808531E+03  0.12500050729E+03 0.  0.
    9000005    1    3    3    0    0  0.17688494699E+02 -0.56403931231E+02  0.48949047525E+03  0.49304787969E+03  0.10000000000E+01 0.  0.
    9000005    1    3    3    0    0 -0.17688494699E+02  0.56403931231E+02  0.24713702737E+03  0.25411020562E+03  0.10000000000E+01 0.  0.
<mgrwt>
<rscale>  0 0.12500051E+03</rscale>
<asrwt>0</asrwt>
<pdfrwt beam="2">  1        4 0.13163223E-02 0.12500051E+03</pdfrwt>
<pdfrwt beam="1">  1       -4 0.18547328E+00 0.12500051E+03</pdfrwt>
<totfact> 0.57341690E+02</totfact>
</mgrwt>
</event>
<event>
 5    1  0.1466870E-002  0.1250028E+03  0.7818608E-02  0.1235065E+00
         -4   -1    0    0    0  501 -0.00000000000E+00  0.00000000000E+00  0.55083172109E+03  0.55083318514E+03  0.12700000000E+01 0. -1.
          4   -1    0    0  501    0  0.00000000000E+00 -0.00000000000E+00 -0.70335267610E+01  0.71472651201E+01  0.12700000000E+01 0. -1.
         25    2    1    2    0    0  0.00000000000E+00  0.00000000000E+00  0.54379819433E+03  0.55798045026E+03  0.12500282687E+03 0.  0.
    9000005    1    3    3    0    0 -0.60551474487E+02  0.13660180292E+02  0.30419423456E+03  0.31046451315E+03  0.10000000000E+01 0.  0.
    9000005    1    3    3    0    0  0.60551474487E+02 -0.13660180292E+02  0.23960395977E+03  0.24751593711E+03  0.10000000000E+01 0.  0.
<mgrwt>
<rscale>  0 0.12500283E+03</rscale>
<asrwt>0</asrwt>
<pdfrwt beam="2">  1        4 0.17727822E-02 0.12500283E+03</pdfrwt>
<pdfrwt beam="1">  1       -4 0.13772232E+00 0.12500283E+03</pdfrwt>
<totfact> 0.79052167E+02</totfact>
</mgrwt>
</event>
<event>
 5    1  0.1466870E-002  0.1249893E+03  0.7818608E-02  0.1235086E+00
          4   -1    0    0  501    0  0.00000000000E+00  0.00000000000E+00  0.43628479557E+03  0.43628664402E+03  0.12700000000E+01 0. -1.
         -4   -1    0    0    0  501 -0.00000000000E+00 -0.00000000000E+00 -0.89049872427E+01  0.89950929841E+01  0.12700000000E+01 0. -1.
         25    2    1    2    0    0  0.00000000000E+00  0.00000000000E+00  0.42737980833E+03  0.44528173700E+03  0.12498929850E+03 0.  0.
    9000005    1    3    3    0    0 -0.29568481511E+02 -0.33539393758E+02  0.36919856466E+03  0.37189752107E+03  0.10000000000E+01 0.  0.
    9000005    1    3    3    0    0  0.29568481511E+02  0.33539393758E+02  0.58181243667E+02  0.73384215926E+02  0.10000000000E+01 0.  0.
<mgrwt>
<rscale>  0 0.12498930E+03</rscale>
<asrwt>0</asrwt>
<pdfrwt beam="1">  1        4 0.10908269E+00 0.12498930E+03</pdfrwt>
<pdfrwt beam="2">  1       -4 0.22377412E-02 0.12498930E+03</pdfrwt>
<totfact> 0.96893860E+02</totfact>
</mgrwt>
</event>
<event>
 5    1  0.1466870E-002  0.1250010E+03  0.7818608E-02  0.1235068E+00
          4   -1    0    0  501    0  0.00000000000E+00  0.00000000000E+00  0.12580547906E+02  0.12644488349E+02  0.12700000000E+01 0. -1.
         -4   -1    0    0    0  501 -0.00000000000E+00 -0.00000000000E+00 -0.30965163130E+03  0.30965423567E+03  0.12700000000E+01 0. -1.
         25    2    1    2    0    0  0.00000000000E+00  0.00000000000E+00 -0.29707108340E+03  0.32229872402E+03  0.12500095565E+03 0.  0.
    9000005    1    3    3    0    0 -0.58996388725E+02 -0.48325617808E+00 -0.95412212826E+02  0.11218421358E+03  0.10000000000E+01 0.  0.
    9000005    1    3    3    0    0  0.58996388725E+02  0.48325617808E+00 -0.20165887057E+03  0.21011451044E+03  0.10000000000E+01 0.  0.
<mgrwt>
<rscale>  0 0.12500096E+03</rscale>
<asrwt>0</asrwt>
<pdfrwt beam="1">  1        4 0.31534561E-02 0.12500096E+03</pdfrwt>
<pdfrwt beam="2">  1       -4 0.77421201E-01 0.12500096E+03</pdfrwt>
<totfact> 0.12368061E+03</totfact>
</mgrwt>
</event>
<event>
 5    1  0.1466870E-002  0.1250007E+03  0.7818608E-02  0.1235068E+00
          4   -1    0    0  501    0  0.00000000000E+00  0.00000000000E+00  0.21436487469E+02  0.21474074951E+02  0.12700000000E+01 0.  1.
         -4   -1    0    0    0  501 -0.00000000000E+00 -0.00000000000E+00 -0.18202705206E+03  0.18203148240E+03  0.12700000000E+01 0.  1.
         25    2    1    2    0    0  0.00000000000E+00  0.00000000000E+00 -0.16059056460E+03  0.20350555735E+03  0.12500072973E+03 0.  0.
    9000005    1    3    3    0    0  0.45303296919E+02 -0.26916755642E+02 -0.25606993692E+02  0.58597086719E+02  0.10000000000E+01 0.  0.
    9000005    1    3    3    0    0 -0.45303296919E+02  0.26916755642E+02 -0.13498357090E+03  0.14490847063E+03  0.10000000000E+01 0.  0.
<mgrwt>
<rscale>  0 0.12500073E+03</rscale>
<asrwt>0</asrwt>
<pdfrwt beam="1">  1        4 0.53643747E-02 0.12500073E+03</pdfrwt>
<pdfrwt beam="2">  1       -4 0.45512011E-01 0.12500073E+03</pdfrwt>
<totfact> 0.16182357E+03</totfact>
</mgrwt>
</event>
<event>
 5    1  0.1466870E-002  0.1250046E+03  0.7818608E-02  0.1235062E+00
         -4   -1    0    0    0  501 -0.00000000000E+00  0.00000000000E+00  0.15949685519E+03  0.15950191132E+03  0.12700000000E+01 0.  1.
          4   -1    0    0  501    0  0.00000000000E+00 -0.00000000000E+00 -0.24470964003E+02  0.24503897226E+02  0.12700000000E+01 0.  1.
         25    2    1    2    0    0  0.00000000000E+00  0.00000000000E+00  0.13502589119E+03  0.18400580855E+03  0.12500458507E+03 0.  0.
    9000005    1    3    3    0    0  0.19241205514E+02  0.37263748490E+02  0.13571443525E+03  0.14205005764E+03  0.10000000000E+01 0.  0.
    9000005    1    3    3    0    0 -0.19241205514E+02 -0.37263748490E+02 -0.68854406238E+00  0.41955750906E+02  0.10000000000E+01 0.  0.
<mgrwt>
<rscale>  0 0.12500459E+03</rscale>
<asrwt>0</asrwt>
<pdfrwt beam="2">  1        4 0.61224898E-02 0.12500459E+03</pdfrwt>
<pdfrwt beam="1">  1       -4 0.39878962E-01 0.12500459E+03</pdfrwt>
<totfact> 0.16981358E+03</totfact>
</mgrwt>
</event>
<event>
 5    1  0.1466870E-002  0.1250002E+03  0.7818608E-02  0.1235069E+00
          4   -1    0    0  501    0  0.00000000000E+00  0.00000000000E+00  0.66097677778E+02  0.66109877535E+02  0.12700000000E+01 0.  1.
         -4   -1    0    0    0  501 -0.00000000000E+00 -0.00000000000E+00 -0.59073829377E+02  0.59087479361E+02  0.12700000000E+01 0.  1.
         25    2    1    2    0    0  0.00000000000E+00  0.00000000000E+00  0.70238484011E+01  0.12519735690E+03  0.12500017491E+03 0.  0.
    9000005    1    3    3    0    0  0.40081991672E+02  0.45979555731E+02  0.17119205620E+02  0.63362077007E+02  0.10000000000E+01 0.  0.
    9000005    1    3    3    0    0 -0.40081991672E+02 -0.45979555731E+02 -0.10095357219E+02  0.61835279889E+02  0.10000000000E+01 0.  0.
<mgrwt>
<rscale>  0 0.12500017E+03</rscale>
<asrwt>0</asrwt>
<pdfrwt beam="1">  1        4 0.16527651E-01 0.12500017E+03</pdfrwt>
<pdfrwt beam="2">  1       -4 0.14771689E-01 0.12500017E+03</pdfrwt>
<totfact> 0.19824275E+03</totfact>
</mgrwt>
</event>
<event>
 5    1  0.1466870E-002  0.1249986E+03  0.7818608E-02  0.1235071E+00
          4   -1    0    0  501    0  0.00000000000E+00  0.00000000000E+00  0.25762338550E+03  0.25762651582E+03  0.12700000000E+01 0.  1.
         -4   -1    0    0    0  501 -0.00000000000E+00 -0.00000000000E+00 -0.15132482140E+02  0.15185681273E+02  0.12700000000E+01 0.  1.
         25    2    1    2    0    0  0.00000000000E+00  0.00000000000E+00  0.24249090335E+03  0.27281219709E+03  0.12499862669E+03 0.  0.
    9000005    1    3    3    0    0  0.44719297239E+02 -0.43604310921E+02  0.11687348901E+03  0.13252005097E+03  0.10000000000E+01 0.  0.
    9000005    1    3    3    0    0 -0.44719297239E+02  0.43604310921E+02  0.12561741435E+03  0.14029214613E+03  0.10000000000E+01 0.  0.
<mgrwt>
<rscale>  0 0.12499863E+03</rscale>
<asrwt>0</asrwt>
<pdfrwt beam="1">  1        4 0.64412889E-01 0.12499863E+03</pdfrwt>
<pdfrwt beam="2">  1       -4 0.37901617E-02 0.12499863E+03</pdfrwt>
<totfact> 0.13769214E+03</totfact>
</mgrwt>
</event>
<event>
 5    1  0.1466870E-002  0.1250006E+03  0.7818608E-02  0.1235068E+00
          4   -1    0    0  501    0  0.00000000000E+00  0.00000000000E+00  0.53765950058E+02  0.53780947236E+02  0.12700000000E+01 0.  1.
         -4   -1    0    0    0  501 -0.00000000000E+00 -0.00000000000E+00 -0.72622850175E+02  0.72633953958E+02  0.12700000000E+01 0.  1.
         25    2    1    2    0    0  0.00000000000E+00  0.00000000000E+00 -0.18856900118E+02  0.12641490119E+03  0.12500057825E+03 0.  0.
    9000005    1    3    3    0    0 -0.21039495316E+02  0.15256907589E+02 -0.66903266844E+02  0.71780782294E+02  0.10000000000E+01 0.  0.
    9000005    1    3    3    0    0  0.21039495316E+02 -0.15256907589E+02  0.48046366727E+02  0.54634118900E+02  0.10000000000E+01 0.  0.
<mgrwt>
<rscale>  0 0.12500058E+03</rscale>
<asrwt>0</asrwt>
<pdfrwt beam="1">  1        4 0.13444750E-01 0.12500058E+03</pdfrwt>
<pdfrwt beam="2">  1       -4 0.18158975E-01 0.12500058E+03</pdfrwt>
<totfact> 0.19758249E+03</totfact>
</mgrwt>
</event>
<event>
 5    1  0.1466870E-002  0.1250001E+03  0.7818608E-02  0.1235069E+00
         -4   -1    0    0    0  501 -0.00000000000E+00  0.00000000000E+00  0.43071678451E+01  0.44905005117E+01  0.12700000000E+01 0.  1.
          4   -1    0    0  501    0  0.00000000000E+00 -0.00000000000E+00 -0.88783654788E+03  0.88783745621E+03  0.12700000000E+01 0.  1.
         25    2    1    2    0    0  0.00000000000E+00  0.00000000000E+00 -0.88352938004E+03  0.89232795672E+03  0.12500006786E+03 0.  0.
    9000005    1    3    3    0    0  0.56895360103E+02 -0.24446222664E+02 -0.38180264764E+03  0.38679317671E+03  0.10000000000E+01 0.  0.
    9000005    1    3    3    0    0 -0.56895360103E+02  0.24446222664E+02 -0.50172673240E+03  0.50553478002E+03  0.10000000000E+01 0.  0.
<mgrwt>
<rscale>  0 0.12500007E+03</rscale>
<asrwt>0</asrwt>
<pdfrwt beam="2">  1        4 0.22198155E+00 0.12500007E+03</pdfrwt>
<pdfrwt beam="1">  1       -4 0.10998251E-02 0.12500007E+03</pdfrwt>
<totfact> 0.44863516E+02</totfact>
</mgrwt>
</event>
<event>
 5    1  0.1466870E-002  0.1250003E+03  0.7818608E-02  0.1235069E+00
          4   -1    0    0  501    0  0.00000000000E+00  0.00000000000E+00  0.19143416926E+03  0.19143838189E+03  0.12700000000E+01 0. -1.
         -4   -1    0    0    0  501 -0.00000000000E+00 -0.00000000000E+00 -0.20381098497E+02  0.20420628687E+02  0.12700000000E+01 0. -1.
         25    2    1    2    0    0  0.00000000000E+00  0.00000000000E+00  0.17105307077E+03  0.21185901058E+03  0.12500034938E+03 0.  0.
    9000005    1    3    3    0    0 -0.80487011419E+00  0.17821505261E+02 -0.15981983047E+02  0.23972435166E+02  0.10000000000E+01 0.  0.
    9000005    1    3    3    0    0  0.80487011419E+00 -0.17821505261E+02  0.18703505381E+03  0.18788657541E+03  0.10000000000E+01 0.  0.
<mgrwt>
<rscale>  0 0.12500035E+03</rscale>
<asrwt>0</asrwt>
<pdfrwt beam="1">  1        4 0.47864009E-01 0.12500035E+03</pdfrwt>
<pdfrwt beam="2">  1       -4 0.51007426E-02 0.12500035E+03</pdfrwt>
<totfact> 0.15857822E+03</totfact>
</mgrwt>
</event>
<event>
 5    1  0.1466870E-002  0.1249893E+03  0.7818608E-02  0.1235086E+00
         -4   -1    0    0    0  501 -0.00000000000E+00  0.00000000000E+00  0.44143414151E+02  0.44161679235E+02  0.12700000000E+01 0. -1.
          4   -1    0    0  501    0  0.00000000000E+00 -0.00000000000E+00 -0.88433682585E+02  0.88442801378E+02  0.12700000000E+01 0. -1.
         25    2    1    2    0    0  0.00000000000E+00  0.00000000000E+00 -0.44290268434E+02  0.13260448061E+03  0.12498928114E+03 0.  0.
    9000005    1    3    3    0    0  0.39296070460E+02 -0.24997134864E+02  0.22052906429E+02  0.51539970770E+02  0.10000000000E+01 0.  0.
    9000005    1    3    3    0    0 -0.39296070460E+02  0.24997134864E+02 -0.66343174864E+02  0.81064509843E+02  0.10000000000E+01 0.  0.
<mgrwt>
<rscale>  0 0.12498928E+03</rscale>
<asrwt>0</asrwt>
<pdfrwt beam="2">  1        4 0.22111843E-01 0.12498928E+03</pdfrwt>
<pdfrwt beam="1">  1       -4 0.11039277E-01 0.12498928E+03</pdfrwt>
<totfact> 0.19430220E+03</totfact>
</mgrwt>
</event>
<event>
 5    1  0.1466870E-002  0.1250021E+03  0.7818608E-02  0.1235066E+00
          4   -1    0    0  501    0  0.00000000000E+00  0.00000000000E+00  0.18044573590E+02  0.18089210487E+02  0.12700000000E+01 0. -1.
         -4   -1    0    0    0  501 -0.00000000000E+00 -0.00000000000E+00 -0.21617118367E+03  0.21617491424E+03  0.12700000000E+01 0. -1.
         25    2    1    2    0    0  0.00000000000E+00  0.00000000000E+00 -0.19812661008E+03  0.23426412473E+03  0.12500210604E+03 0.  0.
    9000005    1    3    3    0    0 -0.48527925042E+02  0.29768018249E+02 -0.50761161879E+02  0.76280993535E+02  0.10000000000E+01 0.  0.
    9000005    1    3    3    0    0  0.48527925042E+02 -0.29768018249E+02 -0.14736544820E+03  0.15798313120E+03  0.10000000000E+01 0.  0.
<mgrwt>
<rscale>  0 0.12500211E+03</rscale>
<asrwt>0</asrwt>
<pdfrwt beam="1">  1        4 0.45171900E-02 0.12500211E+03</pdfrwt>
<pdfrwt beam="2">  1       -4 0.54048834E-01 0.12500211E+03</pdfrwt>
<totfact> 0.15035404E+03</totfact>
</mgrwt>
</event>
<event>
 5    1  0.1466870E-002  0.1250000E+03  0.7818608E-02  0.1235069E+00
         -4   -1    0    0    0  501 -0.00000000000E+00  0.00000000000E+00  0.43171386144E+02  0.43190062301E+02  0.12700000000E+01 0. -1.
          4   -1    0    0  501    0  0.00000000000E+00 -0.00000000000E+00 -0.90439730305E+02  0.90448646854E+02  0.12700000000E+01 0. -1.
         25    2    1    2    0    0  0.00000000000E+00  0.00000000000E+00 -0.47268344162E+02  0.13363870916E+03  0.12500003290E+03 0.  0.
    9000005    1    3    3    0    0 -0.20240012249E+02 -0.32598991959E+02 -0.76367386572E+02  0.85471223838E+02  0.10000000000E+01 0.  0.
    9000005    1    3    3    0    0  0.20240012249E+02  0.32598991959E+02  0.29099042410E+02  0.48167485317E+02  0.10000000000E+01 0.  0.
<mgrwt>
<rscale>  0 0.12500003E+03</rscale>
<asrwt>0</asrwt>
<pdfrwt beam="2">  1        4 0.22613381E-01 0.12500003E+03</pdfrwt>
<pdfrwt beam="1">  1       -4 0.10796296E-01 0.12500003E+03</pdfrwt>
<totfact> 0.19370664E+03</totfact>
</mgrwt>
</event>
<event>
 5    1  0.1466870E-002  0.1250005E+03  0.7818608E-02  0.1235069E+00
          4   -1    0    0  501    0  0.00000000000E+00  0.00000000000E+00  0.12454353293E+03  0.12455000801E+03  0.12700000000E+01 0. -1.
         -4   -1    0    0    0  501 -0.00000000000E+00 -0.00000000000E+00 -0.31344611274E+02  0.31370329229E+02  0.12700000000E+01 0. -1.
         25    2    1    2    0    0  0.00000000000E+00  0.00000000000E+00  0.93198921660E+02  0.15592033724E+03  0.12500045027E+03 0.  0.
    9000005    1    3    3    0    0 -0.40898144474E+01  0.62343857149E+02  0.44928263732E+02  0.76961236921E+02  0.10000000000E+01 0.  0.
    9000005    1    3    3    0    0  0.40898144474E+01 -0.62343857149E+02  0.48270657928E+02  0.78959100320E+02  0.10000000000E+01 0.  0.
<mgrwt>
<rscale>  0 0.12500045E+03</rscale>
<asrwt>0</asrwt>
<pdfrwt beam="1">  1        4 0.31139907E-01 0.12500045E+03</pdfrwt>
<pdfrwt beam="2">  1       -4 0.78401770E-02 0.12500045E+03</pdfrwt>
<totfact> 0.18251265E+03</totfact>
</mgrwt>
</event>
<event>
 5    1  0.1466870E-002  0.1249707E+03  0.7818608E-02  0.1235115E+00
         -4   -1    0    0    0  501 -0.00000000000E+00  0.00000000000E+00  0.94569976872E+02  0.94578504036E+02  0.12700000000E+01 0.  1.
          4   -1    0    0  501    0  0.00000000000E+00 -0.00000000000E+00 -0.41265868827E+02  0.41285406986E+02  0.12700000000E+01 0.  1.
         25    2    1    2    0    0  0.00000000000E+00  0.00000000000E+00  0.53304108046E+02  0.13586391102E+03  0.12497069410E+03 0.  0.
    9000005    1    3    3    0    0 -0.39820961076E+02 -0.41404121396E+02 -0.53500555873E-01  0.57454443448E+02  0.10000000000E+01 0.  0.
    9000005    1    3    3    0    0  0.39820961076E+02  0.41404121396E+02  0.53357608602E+02  0.78409467574E+02  0.10000000000E+01 0.  0.
<mgrwt>
<rscale>  0 0.12497069E+03</rscale>
<asrwt>0</asrwt>
<pdfrwt beam="2">  1        4 0.10319975E-01 0.12497069E+03</pdfrwt>
<pdfrwt beam="1">  1       -4 0.23646002E-01 0.12497069E+03</pdfrwt>
<totfact> 0.19267152E+03</totfact>
</mgrwt>
</event>
<event>
 5    1  0.1466870E-002  0.1249993E+03  0.7818608E-02  0.1235070E+00
         -4   -1    0    0    0  501 -0.00000000000E+00  0.00000000000E+00  0.18723872291E+02  0.18766893552E+02  0.12700000000E+01 0. -1.
          4   -1    0    0  501    0  0.00000000000E+00 -0.00000000000E+00 -0.20833722742E+03  0.20834109827E+03  0.12700000000E+01 0. -1.
         25    2    1    2    0    0  0.00000000000E+00  0.00000000000E+00 -0.18961335513E+03  0.22710799182E+03  0.12499926203E+03 0.  0.
    9000005    1    3    3    0    0 -0.45164757023E+02  0.41817192932E+02 -0.75181825940E+02  0.97169130146E+02  0.10000000000E+01 0.  0.
    9000005    1    3    3    0    0  0.45164757023E+02 -0.41817192932E+02 -0.11443152919E+03  0.12993886168E+03  0.10000000000E+01 0.  0.
<mgrwt>
<rscale>  0 0.12499926E+03</rscale>
<asrwt>0</asrwt>
<pdfrwt beam="2">  1        4 0.52090161E-01 0.12499926E+03</pdfrwt>
<pdfrwt beam="1">  1       -4 0.46868302E-02 0.12499926E+03</pdfrwt>
<totfact> 0.15291464E+03</totfact>
</mgrwt>
</event>
<event>
 5    1  0.1466870E-002  0.1249948E+03  0.7818608E-02  0.1235077E+00
          4   -1    0    0  501    0  0.00000000000E+00  0.00000000000E+00  0.21029816994E+02  0.21068130026E+02  0.12700000000E+01 0. -1.
         -4   -1    0    0    0  501 -0.00000000000E+00 -0.00000000000E+00 -0.18552309360E+03  0.18552744045E+03  0.12700000000E+01 0. -1.
         25    2    1    2    0    0  0.00000000000E+00  0.00000000000E+00 -0.16449327661E+03  0.20659557048E+03  0.12499476666E+03 0.  0.
    9000005    1    3    3    0    0  0.55303577150E+02  0.15449047221E+02 -0.12299374149E+03  0.13574100026E+03  0.10000000000E+01 0.  0.
    9000005    1    3    3    0    0 -0.55303577150E+02 -0.15449047221E+02 -0.41499535117E+02  0.70854570216E+02  0.10000000000E+01 0.  0.
<mgrwt>
<rscale>  0 0.12499477E+03</rscale>
<asrwt>0</asrwt>
<pdfrwt beam="1">  1        4 0.52627873E-02 0.12499477E+03</pdfrwt>
<pdfrwt beam="2">  1       -4 0.46386101E-01 0.12499477E+03</pdfrwt>
<totfact> 0.16063251E+03</totfact>
</mgrwt>
</event>
<event>
 5    1  0.1466870E-002  0.1249920E+03  0.7818608E-02  0.1235082E+00
         -4   -1    0    0    0  501 -0.00000000000E+00  0.00000000000E+00  0.20196239203E+03  0.20196638506E+03  0.12700000000E+01 0. -1.
          4   -1    0    0  501    0  0.00000000000E+00 -0.00000000000E+00 -0.19313943469E+02  0.19355653240E+02  0.12700000000E+01 0. -1.
         25    2    1    2    0    0  0.00000000000E+00  0.00000000000E+00  0.18264844856E+03  0.22132203830E+03  0.12499195524E+03 0.  0.
    9000005    1    3    3    0    0  0.41782544905E+02  0.38687218251E+02  0.13689208089E+03  0.14826639446E+03  0.10000000000E+01 0.  0.
    9000005    1    3    3    0    0 -0.41782544905E+02 -0.38687218251E+02  0.45756367667E+02  0.73055643839E+02  0.10000000000E+01 0.  0.
<mgrwt>
<rscale>  0 0.12499196E+03</rscale>
<asrwt>0</asrwt>
<pdfrwt beam="2">  1        4 0.48341987E-02 0.12499196E+03</pdfrwt>
<pdfrwt beam="1">  1       -4 0.50496311E-01 0.12499196E+03</pdfrwt>
<totfact> 0.15505310E+03</totfact>
</mgrwt>
</event>
<event>
 5    1  0.1466870E-002  0.1250004E+03  0.7818608E-02  0.1235069E+00
         -4   -1    0    0    0  501 -0.00000000000E+00  0.00000000000E+00  0.29355221056E+02  0.29382680328E+02  0.12700000000E+01 0. -1.
          4   -1    0    0  501    0  0.00000000000E+00 -0.00000000000E+00 -0.13297638927E+03  0.13298245375E+03  0.12700000000E+01 0. -1.
         25    2    1    2    0    0  0.00000000000E+00  0.00000000000E+00 -0.10362116822E+03  0.16236513407E+03  0.12500036104E+03 0.  0.
    9000005    1    3    3    0    0 -0.14569916390E+02 -0.53556904204E+02 -0.14509981938E+02  0.57377382542E+02  0.10000000000E+01 0.  0.
    9000005    1    3    3    0    0  0.14569916390E+02  0.53556904204E+02 -0.89111186279E+02  0.10498775153E+03  0.10000000000E+01 0.  0.
<mgrwt>
<rscale>  0 0.12500036E+03</rscale>
<asrwt>0</asrwt>
<pdfrwt beam="2">  1        4 0.33248286E-01 0.12500036E+03</pdfrwt>
<pdfrwt beam="1">  1       -4 0.73429961E-02 0.12500036E+03</pdfrwt>
<totfact> 0.17946862E+03</totfact>
</mgrwt>
</event>
<event>
 5    1  0.1466870E-002  0.1250047E+03  0.7818608E-02  0.1235062E+00
         -4   -1    0    0    0  501 -0.00000000000E+00  0.00000000000E+00  0.64219924543E+03  0.64220050119E+03  0.12700000000E+01 0. -1.
          4   -1    0    0  501    0  0.00000000000E+00 -0.00000000000E+00 -0.60155091340E+01  0.61481094770E+01  0.12700000000E+01 0. -1.
         25    2    1    2    0    0  0.00000000000E+00  0.00000000000E+00  0.63618373629E+03  0.64834861067E+03  0.12500469843E+03 0.  0.
    9000005    1    3    3    0    0  0.46309205228E+02  0.40922044865E+02  0.36629857675E+03  0.37147651820E+03  0.10000000000E+01 0.  0.
    9000005    1    3    3    0    0 -0.46309205228E+02 -0.40922044865E+02  0.26988515954E+03  0.27687209246E+03  0.10000000000E+01 0.  0.
<mgrwt>
<rscale>  0 0.12500470E+03</rscale>
<asrwt>0</asrwt>
<pdfrwt beam="2">  1        4 0.15206094E-02 0.12500470E+03</pdfrwt>
<pdfrwt beam="1">  1       -4 0.16056653E+00 0.12500470E+03</pdfrwt>
<totfact> 0.67692996E+02</totfact>
</mgrwt>
</event>
<event>
 5    1  0.1466870E-002  0.1250063E+03  0.7818608E-02  0.1235059E+00
          4   -1    0    0  501    0  0.00000000000E+00  0.00000000000E+00  0.46647781661E+02  0.46665066526E+02  0.12700000000E+01 0.  1.
         -4   -1    0    0    0  501 -0.00000000000E+00 -0.00000000000E+00 -0.83710068583E+02  0.83719701875E+02  0.12700000000E+01 0.  1.
         25    2    1    2    0    0  0.00000000000E+00  0.00000000000E+00 -0.37062286921E+02  0.13038476840E+03  0.12500629872E+03 0.  0.
    9000005    1    3    3    0    0  0.54653485782E+02  0.10027959034E+02 -0.48363867220E+02  0.73672431228E+02  0.10000000000E+01 0.  0.
    9000005    1    3    3    0    0 -0.54653485782E+02 -0.10027959034E+02  0.11301580298E+02  0.56712337174E+02  0.10000000000E+01 0.  0.
<mgrwt>
<rscale>  0 0.12500630E+03</rscale>
<asrwt>0</asrwt>
<pdfrwt beam="1">  1        4 0.11665310E-01 0.12500630E+03</pdfrwt>
<pdfrwt beam="2">  1       -4 0.20930882E-01 0.12500630E+03</pdfrwt>
<totfact> 0.19540847E+03</totfact>
</mgrwt>
</event>
<event>
 5    1  0.1466870E-002  0.1250008E+03  0.7818608E-02  0.1235068E+00
         -4   -1    0    0    0  501 -0.00000000000E+00  0.00000000000E+00  0.28338195707E+02  0.28366639490E+02  0.12700000000E+01 0. -1.
          4   -1    0    0  501    0  0.00000000000E+00 -0.00000000000E+00 -0.13774516000E+03  0.13775101452E+03  0.12700000000E+01 0. -1.
         25    2    1    2    0    0  0.00000000000E+00  0.00000000000E+00 -0.10940696429E+03  0.16611765401E+03  0.12500076456E+03 0.  0.
    9000005    1    3    3    0    0  0.30145772056E+02 -0.51824114865E+02 -0.31275355245E+02  0.67628797861E+02  0.10000000000E+01 0.  0.
    9000005    1    3    3    0    0 -0.30145772056E+02  0.51824114865E+02 -0.78131609044E+02  0.98488856152E+02  0.10000000000E+01 0.  0.
<mgrwt>
<rscale>  0 0.12500076E+03</rscale>
<asrwt>0</asrwt>
<pdfrwt beam="2">  1        4 0.34440575E-01 0.12500076E+03</pdfrwt>
<pdfrwt beam="1">  1       -4 0.70888366E-02 0.12500076E+03</pdfrwt>
<totfact> 0.17773277E+03</totfact>
</mgrwt>
</event>
<event>
 5    1  0.1466870E-002  0.1249977E+03  0.7818608E-02  0.1235073E+00
          4   -1    0    0  501    0  0.00000000000E+00  0.00000000000E+00  0.85931216763E+03  0.85931310611E+03  0.12700000000E+01 0. -1.
         -4   -1    0    0    0  501 -0.00000000000E+00 -0.00000000000E+00 -0.44559565432E+01  0.46334057360E+01  0.12700000000E+01 0. -1.
         25    2    1    2    0    0  0.00000000000E+00  0.00000000000E+00  0.85485621109E+03  0.86394651185E+03  0.12499773479E+03 0.  0.
    9000005    1    3    3    0    0 -0.28627027309E+02  0.44548702659E+02  0.65676889121E+03  0.65890095619E+03  0.10000000000E+01 0.  0.
    9000005    1    3    3    0    0  0.28627027309E+02 -0.44548702659E+02  0.19808731988E+03  0.20504555566E+03  0.10000000000E+01 0.  0.
<mgrwt>
<rscale>  0 0.12499773E+03</rscale>
<asrwt>0</asrwt>
<pdfrwt beam="1">  1        4 0.21485032E+00 0.12499773E+03</pdfrwt>
<pdfrwt beam="2">  1       -4 0.11362877E-02 0.12499773E+03</pdfrwt>
<totfact> 0.47100695E+02</totfact>
</mgrwt>
</event>
<event>
 5    1  0.1466870E-002  0.1249985E+03  0.7818608E-02  0.1235072E+00
         -4   -1    0    0    0  501 -0.00000000000E+00  0.00000000000E+00  0.22770442722E+02  0.22805831749E+02  0.12700000000E+01 0.  1.
          4   -1    0    0  501    0  0.00000000000E+00 -0.00000000000E+00 -0.17137414497E+03  0.17137885069E+03  0.12700000000E+01 0.  1.
         25    2    1    2    0    0  0.00000000000E+00  0.00000000000E+00 -0.14860370225E+03  0.19418468244E+03  0.12499852228E+03 0.  0.
    9000005    1    3    3    0    0  0.41265279715E+02 -0.38174825939E+02 -0.11670451887E+03  0.12954182865E+03  0.10000000000E+01 0.  0.
    9000005    1    3    3    0    0 -0.41265279715E+02  0.38174825939E+02 -0.31899183372E+02  0.64642853784E+02  0.10000000000E+01 0.  0.
<mgrwt>
<rscale>  0 0.12499852E+03</rscale>
<asrwt>0</asrwt>
<pdfrwt beam="2">  1        4 0.42848544E-01 0.12499852E+03</pdfrwt>
<pdfrwt beam="1">  1       -4 0.56976230E-02 0.12499852E+03</pdfrwt>
<totfact> 0.16558141E+03</totfact>
</mgrwt>
</event>
<event>
 5    1  0.1466870E-002  0.1249984E+03  0.7818608E-02  0.1235072E+00
          4   -1    0    0  501    0  0.00000000000E+00  0.00000000000E+00  0.14730261427E+02  0.14784907903E+02  0.12700000000E+01 0. -1.
         -4   -1    0    0    0  501 -0.00000000000E+00 -0.00000000000E+00 -0.26463158888E+03  0.26463463631E+03  0.12700000000E+01 0. -1.
         25    2    1    2    0    0  0.00000000000E+00  0.00000000000E+00 -0.24990132745E+03  0.27941954421E+03  0.12499843288E+03 0.  0.
    9000005    1    3    3    0    0 -0.72582526768E+01  0.27014605944E+02 -0.35254704189E-01  0.27990577149E+02  0.10000000000E+01 0.  0.
    9000005    1    3    3    0    0  0.72582526768E+01 -0.27014605944E+02 -0.24986607275E+03  0.25142896706E+03  0.10000000000E+01 0.  0.
<mgrwt>
<rscale>  0 0.12499843E+03</rscale>
<asrwt>0</asrwt>
<pdfrwt beam="1">  1        4 0.36897779E-02 0.12499843E+03</pdfrwt>
<pdfrwt beam="2">  1       -4 0.66165094E-01 0.12499843E+03</pdfrwt>
<totfact> 0.13568607E+03</totfact>
</mgrwt>
</event>
<event>
 5    1  0.1466870E-002  0.1249970E+03  0.7818608E-02  0.1235074E+00
         -4   -1    0    0    0  501 -0.00000000000E+00  0.00000000000E+00  0.16143880193E+03  0.16144379725E+03  0.12700000000E+01 0. -1.
          4   -1    0    0  501    0  0.00000000000E+00 -0.00000000000E+00 -0.24173285132E+02  0.24206623351E+02  0.12700000000E+01 0. -1.
         25    2    1    2    0    0  0.00000000000E+00  0.00000000000E+00  0.13726551680E+03  0.18565042060E+03  0.12499702623E+03 0.  0.
    9000005    1    3    3    0    0 -0.61211267884E+02  0.51347571772E+01  0.85689035155E+02  0.10543621670E+03  0.10000000000E+01 0.  0.
    9000005    1    3    3    0    0  0.61211267884E+02 -0.51347571772E+01  0.51576481648E+02  0.80214203894E+02  0.10000000000E+01 0.  0.
<mgrwt>
<rscale>  0 0.12499703E+03</rscale>
<asrwt>0</asrwt>
<pdfrwt beam="2">  1        4 0.60481131E-02 0.12499703E+03</pdfrwt>
<pdfrwt beam="1">  1       -4 0.40364491E-01 0.12499703E+03</pdfrwt>
<totfact> 0.16914383E+03</totfact>
</mgrwt>
</event>
<event>
 5    1  0.1466870E-002  0.1249960E+03  0.7818608E-02  0.1235076E+00
         -4   -1    0    0    0  501 -0.00000000000E+00  0.00000000000E+00  0.12806776741E+02  0.12869593252E+02  0.12700000000E+01 0. -1.
          4   -1    0    0  501    0  0.00000000000E+00 -0.00000000000E+00 -0.30418429518E+03  0.30418694636E+03  0.12700000000E+01 0. -1.
         25    2    1    2    0    0  0.00000000000E+00  0.00000000000E+00 -0.29137751844E+03  0.31705653961E+03  0.12499596416E+03 0.  0.
    9000005    1    3    3    0    0  0.60165239239E+02  0.15154345171E+02 -0.16458339800E+03  0.17589259532E+03  0.10000000000E+01 0.  0.
    9000005    1    3    3    0    0 -0.60165239239E+02 -0.15154345171E+02 -0.12679412044E+03  0.14116394429E+03  0.10000000000E+01 0.  0.
<mgrwt>
<rscale>  0 0.12499596E+03</rscale>
<asrwt>0</asrwt>
<pdfrwt beam="2">  1        4 0.76054234E-01 0.12499596E+03</pdfrwt>
<pdfrwt beam="1">  1       -4 0.32098786E-02 0.12499596E+03</pdfrwt>
<totfact> 0.12507286E+03</totfact>
</mgrwt>
</event>
<event>
 5    1  0.1466870E-002  0.1250007E+03  0.7818608E-02  0.1235068E+00
          4   -1    0    0  501    0  0.00000000000E+00  0.00000000000E+00  0.32128829283E+03  0.32129080287E+03  0.12700000000E+01 0. -1.
         -4   -1    0    0    0  501 -0.00000000000E+00 -0.00000000000E+00 -0.12122491960E+02  0.12188835519E+02  0.12700000000E+01 0. -1.
         25    2    1    2    0    0  0.00000000000E+00  0.00000000000E+00  0.30916580087E+03  0.33347963839E+03  0.12500070717E+03 0.  0.
    9000005    1    3    3    0    0  0.38820632022E+02 -0.37858476935E+02  0.71708975054E+02  0.89908191227E+02  0.10000000000E+01 0.  0.
    9000005    1    3    3    0    0 -0.38820632022E+02  0.37858476935E+02  0.23745682582E+03  0.24357144716E+03  0.10000000000E+01 0.  0.
<mgrwt>
<rscale>  0 0.12500071E+03</rscale>
<asrwt>0</asrwt>
<pdfrwt beam="1">  1        4 0.80330680E-01 0.12500071E+03</pdfrwt>
<pdfrwt beam="2">  1       -4 0.30392297E-02 0.12500071E+03</pdfrwt>
<totfact> 0.12081827E+03</totfact>
</mgrwt>
</event>
<event>
 5    1  0.1466870E-002  0.1249912E+03  0.7818608E-02  0.1235083E+00
          4   -1    0    0  501    0  0.00000000000E+00  0.00000000000E+00  0.25887690251E+02  0.25918823402E+02  0.12700000000E+01 0.  1.
         -4   -1    0    0    0  501 -0.00000000000E+00 -0.00000000000E+00 -0.15074647324E+03  0.15075182286E+03  0.12700000000E+01 0.  1.
         25    2    1    2    0    0  0.00000000000E+00  0.00000000000E+00 -0.12485878299E+03  0.17667064626E+03  0.12499120593E+03 0.  0.
    9000005    1    3    3    0    0 -0.40192962152E+02  0.42405952263E+02 -0.93748443800E+02  0.11046949673E+03  0.10000000000E+01 0.  0.
    9000005    1    3    3    0    0  0.40192962152E+02 -0.42405952263E+02 -0.31110339193E+02  0.66201149526E+02  0.10000000000E+01 0.  0.
<mgrwt>
<rscale>  0 0.12499121E+03</rscale>
<asrwt>0</asrwt>
<pdfrwt beam="1">  1        4 0.64764833E-02 0.12499121E+03</pdfrwt>
<pdfrwt beam="2">  1       -4 0.37691176E-01 0.12499121E+03</pdfrwt>
<totfact> 0.17303832E+03</totfact>
</mgrwt>
</event>
<event>
 5    1  0.1466870E-002  0.1249994E+03  0.7818608E-02  0.1235070E+00
         -4   -1    0    0    0  501 -0.00000000000E+00  0.00000000000E+00  0.13304835865E+02  0.13365311721E+02  0.12700000000E+01 0. -1.
          4   -1    0    0  501    0  0.00000000000E+00 -0.00000000000E+00 -0.29286604523E+03  0.29286879887E+03  0.12700000000E+01 0. -1.
         25    2    1    2    0    0  0.00000000000E+00  0.00000000000E+00 -0.27956120937E+03  0.30623411059E+03  0.12499944282E+03 0.  0.
    9000005    1    3    3    0    0 -0.46244438193E+02  0.17377018187E+02 -0.46019920198E+02  0.67522898930E+02  0.10000000000E+01 0.  0.
    9000005    1    3    3    0    0  0.46244438193E+02 -0.17377018187E+02 -0.23354128917E+03  0.23871121166E+03  0.10000000000E+01 0.  0.
<mgrwt>
<rscale>  0 0.12499944E+03</rscale>
<asrwt>0</asrwt>
<pdfrwt beam="2">  1        4 0.73224394E-01 0.12499944E+03</pdfrwt>
<pdfrwt beam="1">  1       -4 0.33341136E-02 0.12499944E+03</pdfrwt>
<totfact> 0.12798280E+03</totfact>
</mgrwt>
</event>
<event>
 5    1  0.1466870E-002  0.1250008E+03  0.7818608E-02  0.1235068E+00
         -4   -1    0    0    0  501 -0.00000000000E+00  0.00000000000E+00  0.12932291075E+02  0.12994500854E+02  0.12700000000E+01 0. -1.
          4   -1    0    0  501    0  0.00000000000E+00 -0.00000000000E+00 -0.30126929023E+03  0.30127196706E+03  0.12700000000E+01 0. -1.
         25    2    1    2    0    0  0.00000000000E+00  0.00000000000E+00 -0.28833699915E+03  0.31426646791E+03  0.12500075109E+03 0.  0.
    9000005    1    3    3    0    0  0.22738445010E+02 -0.30844879217E+02 -0.20060398347E+02  0.43265032499E+02  0.10000000000E+01 0.  0.
    9000005    1    3    3    0    0 -0.22738445010E+02  0.30844879217E+02 -0.26827660081E+03  0.27100143541E+03  0.10000000000E+01 0.  0.
<mgrwt>
<rscale>  0 0.12500075E+03</rscale>
<asrwt>0</asrwt>
<pdfrwt beam="2">  1        4 0.75325410E-01 0.12500075E+03</pdfrwt>
<pdfrwt beam="1">  1       -4 0.32411846E-02 0.12500075E+03</pdfrwt>
<totfact> 0.12580212E+03</totfact>
</mgrwt>
</event>
<event>
 5    1  0.1466870E-002  0.1249969E+03  0.7818608E-02  0.1235074E+00
         -4   -1    0    0    0  501 -0.00000000000E+00  0.00000000000E+00  0.83879085883E+01  0.84835081473E+01  0.12700000000E+01 0. -1.
          4   -1    0    0  501    0  0.00000000000E+00 -0.00000000000E+00 -0.46294155499E+03  0.46294329700E+03  0.12700000000E+01 0. -1.
         25    2    1    2    0    0  0.00000000000E+00  0.00000000000E+00 -0.45455364640E+03  0.47142680515E+03  0.12499686058E+03 0.  0.
    9000005    1    3    3    0    0 -0.55231642891E+02 -0.67974585123E+01 -0.12004956293E+03  0.13232398641E+03  0.10000000000E+01 0.  0.
    9000005    1    3    3    0    0  0.55231642891E+02  0.67974585123E+01 -0.33450408347E+03  0.33910281874E+03  0.10000000000E+01 0.  0.
<mgrwt>
<rscale>  0 0.12499686E+03</rscale>
<asrwt>0</asrwt>
<pdfrwt beam="2">  1        4 0.11574747E+00 0.12499686E+03</pdfrwt>
<pdfrwt beam="1">  1       -4 0.21091464E-02 0.12499686E+03</pdfrwt>
<totfact> 0.92299912E+02</totfact>
</mgrwt>
</event>
<event>
 5    1  0.1466870E-002  0.1249934E+03  0.7818608E-02  0.1235080E+00
          4   -1    0    0  501    0  0.00000000000E+00  0.00000000000E+00  0.56105605804E+03  0.56105749542E+03  0.12700000000E+01 0. -1.
         -4   -1    0    0    0  501 -0.00000000000E+00 -0.00000000000E+00 -0.69022017855E+01  0.70180687862E+01  0.12700000000E+01 0. -1.
         25    2    1    2    0    0  0.00000000000E+00  0.00000000000E+00  0.55415385626E+03  0.56807556420E+03  0.12499340080E+03 0.  0.
    9000005    1    3    3    0    0  0.61146123816E+01  0.40892391770E+02  0.64134529472E+02  0.76313917864E+02  0.10000000000E+01 0.  0.
    9000005    1    3    3    0    0 -0.61146123816E+01 -0.40892391770E+02  0.49001932678E+03  0.49176164634E+03  0.10000000000E+01 0.  0.
<mgrwt>
<rscale>  0 0.12499340E+03</rscale>
<asrwt>0</asrwt>
<pdfrwt beam="1">  1        4 0.14027867E+00 0.12499340E+03</pdfrwt>
<pdfrwt beam="2">  1       -4 0.17402135E-02 0.12499340E+03</pdfrwt>
<totfact> 0.77683981E+02</totfact>
</mgrwt>
</event>
<event>
 5    1  0.1466870E-002  0.1249977E+03  0.7818608E-02  0.1235073E+00
         -4   -1    0    0    0  501 -0.00000000000E+00  0.00000000000E+00  0.25837893961E+02  0.25869087041E+02  0.12700000000E+01 0. -1.
          4   -1    0    0  501    0  0.00000000000E+00 -0.00000000000E+00 -0.15105230479E+03  0.15105764357E+03  0.12700000000E+01 0. -1.
         25    2    1    2    0    0  0.00000000000E+00  0.00000000000E+00 -0.12521441082E+03  0.17692673061E+03  0.12499767728E+03 0.  0.
    9000005    1    3    3    0    0  0.44601762338E+02 -0.41540664232E+01 -0.93344959084E+00  0.44815675825E+02  0.10000000000E+01 0.  0.
    9000005    1    3    3    0    0 -0.44601762338E+02  0.41540664232E+01 -0.12428096123E+03  0.13211105479E+03  0.10000000000E+01 0.  0.
<mgrwt>
<rscale>  0 0.12499768E+03</rscale>
<asrwt>0</asrwt>
<pdfrwt beam="2">  1        4 0.37767640E-01 0.12499768E+03</pdfrwt>
<pdfrwt beam="1">  1       -4 0.64640404E-02 0.12499768E+03</pdfrwt>
<totfact> 0.17290004E+03</totfact>
</mgrwt>
</event>
<event>
 5    1  0.1466870E-002  0.1249982E+03  0.7818608E-02  0.1235072E+00
          4   -1    0    0  501    0  0.00000000000E+00  0.00000000000E+00  0.12653652128E+03  0.12654289437E+03  0.12700000000E+01 0.  1.
         -4   -1    0    0    0  501 -0.00000000000E+00 -0.00000000000E+00 -0.30849428988E+02  0.30875559410E+02  0.12700000000E+01 0.  1.
         25    2    1    2    0    0  0.00000000000E+00  0.00000000000E+00  0.95687092288E+02  0.15741845379E+03  0.12499819983E+03 0.  0.
    9000005    1    3    3    0    0  0.14080658010E+02 -0.91574862153E+01 -0.27959530062E+02  0.32632189708E+02  0.10000000000E+01 0.  0.
    9000005    1    3    3    0    0 -0.14080658010E+02  0.91574862153E+01  0.12364662235E+03  0.12478626408E+03  0.10000000000E+01 0.  0.
<mgrwt>
<rscale>  0 0.12499820E+03</rscale>
<asrwt>0</asrwt>
<pdfrwt beam="1">  1        4 0.31638193E-01 0.12499820E+03</pdfrwt>
<pdfrwt beam="2">  1       -4 0.77164203E-02 0.12499820E+03</pdfrwt>
<totfact> 0.18180687E+03</totfact>
</mgrwt>
</event>
<event>
 5    1  0.1466870E-002  0.1250007E+03  0.7818608E-02  0.1235068E+00
         -4   -1    0    0    0  501 -0.00000000000E+00  0.00000000000E+00  0.15713600207E+02  0.15764838453E+02  0.12700000000E+01 0. -1.
          4   -1    0    0  501    0  0.00000000000E+00 -0.00000000000E+00 -0.24813562499E+03  0.24813887500E+03  0.12700000000E+01 0. -1.
         25    2    1    2    0    0  0.00000000000E+00  0.00000000000E+00 -0.23242202478E+03  0.26390371346E+03  0.12500068949E+03 0.  0.
    9000005    1    3    3    0    0 -0.13948292203E+02  0.52007779310E+02 -0.49250805787E+02  0.72979489137E+02  0.10000000000E+01 0.  0.
    9000005    1    3    3    0    0  0.13948292203E+02 -0.52007779310E+02 -0.18317121899E+03  0.19092422432E+03  0.10000000000E+01 0.  0.
<mgrwt>
<rscale>  0 0.12500069E+03</rscale>
<asrwt>0</asrwt>
<pdfrwt beam="2">  1        4 0.62040705E-01 0.12500069E+03</pdfrwt>
<pdfrwt beam="1">  1       -4 0.39352119E-02 0.12500069E+03</pdfrwt>
<totfact> 0.14046429E+03</totfact>
</mgrwt>
</event>
<event>
 5    1  0.1466870E-002  0.1249980E+03  0.7818608E-02  0.1235072E+00
         -4   -1    0    0    0  501 -0.00000000000E+00  0.00000000000E+00  0.32967438688E+02  0.32991891634E+02  0.12700000000E+01 0. -1.
          4   -1    0    0  501    0  0.00000000000E+00 -0.00000000000E+00 -0.11841258476E+03  0.11841939507E+03  0.12700000000E+01 0. -1.
         25    2    1    2    0    0  0.00000000000E+00  0.00000000000E+00 -0.85445146073E+02  0.15141128671E+03  0.12499801901E+03 0.  0.
    9000005    1    3    3    0    0  0.53253660381E+02 -0.30566314054E+02 -0.56790163145E+02  0.83644333513E+02  0.10000000000E+01 0.  0.
    9000005    1    3    3    0    0 -0.53253660381E+02  0.30566314054E+02 -0.28654982928E+02  0.67766953195E+02  0.10000000000E+01 0.  0.
<mgrwt>
<rscale>  0 0.12499802E+03</rscale>
<asrwt>0</asrwt>
<pdfrwt beam="2">  1        4 0.29607053E-01 0.12499802E+03</pdfrwt>
<pdfrwt beam="1">  1       -4 0.82457678E-02 0.12499802E+03</pdfrwt>
<totfact> 0.18470456E+03</totfact>
</mgrwt>
</event>
<event>
 5    1  0.1466870E-002  0.1250011E+03  0.7818608E-02  0.1235068E+00
         -4   -1    0    0    0  501 -0.00000000000E+00  0.00000000000E+00  0.11663818708E+03  0.11664510099E+03  0.12700000000E+01 0. -1.
          4   -1    0    0  501    0  0.00000000000E+00 -0.00000000000E+00 -0.33470969422E+02  0.33495054770E+02  0.12700000000E+01 0. -1.
         25    2    1    2    0    0  0.00000000000E+00  0.00000000000E+00  0.83167217661E+02  0.15014015577E+03  0.12500112111E+03 0.  0.
    9000005    1    3    3    0    0 -0.24495669087E+02  0.57490556473E+02  0.41996522485E+02  0.75298803366E+02  0.10000000000E+01 0.  0.
    9000005    1    3    3    0    0  0.24495669087E+02 -0.57490556473E+02  0.41170695177E+02  0.74841352399E+02  0.10000000000E+01 0.  0.
<mgrwt>
<rscale>  0 0.12500112E+03</rscale>
<asrwt>0</asrwt>
<pdfrwt beam="2">  1        4 0.83716173E-02 0.12500112E+03</pdfrwt>
<pdfrwt beam="1">  1       -4 0.29163421E-01 0.12500112E+03</pdfrwt>
<totfact> 0.18531408E+03</totfact>
</mgrwt>
</event>
<event>
 5    1  0.1466870E-002  0.1249988E+03  0.7818608E-02  0.1235071E+00
          4   -1    0    0  501    0  0.00000000000E+00  0.00000000000E+00  0.13967104475E+02  0.14024724861E+02  0.12700000000E+01 0.  1.
         -4   -1    0    0    0  501 -0.00000000000E+00 -0.00000000000E+00 -0.27903495817E+03  0.27903784830E+03  0.12700000000E+01 0.  1.
         25    2    1    2    0    0  0.00000000000E+00  0.00000000000E+00 -0.26506785370E+03  0.29306257316E+03  0.12499881888E+03 0.  0.
    9000005    1    3    3    0    0 -0.94796134304E+01  0.22581094591E+01  0.12186267233E+02  0.15635448129E+02  0.10000000000E+01 0.  0.
    9000005    1    3    3    0    0  0.94796134304E+01 -0.22581094591E+01 -0.27725412093E+03  0.27742712503E+03  0.10000000000E+01 0.  0.
<mgrwt>
<rscale>  0 0.12499882E+03</rscale>
<asrwt>0</asrwt>
<pdfrwt beam="1">  1        4 0.34993408E-02 0.12499882E+03</pdfrwt>
<pdfrwt beam="2">  1       -4 0.69766285E-01 0.12499882E+03</pdfrwt>
<totfact> 0.13168100E+03</totfact>
</mgrwt>
</event>
<event>
 5    1  0.1466870E-002  0.1250071E+03  0.7818608E-02  0.1235058E+00
          4   -1    0    0  501    0  0.00000000000E+00  0.00000000000E+00  0.71706869726E+03  0.71706982191E+03  0.12700000000E+01 0. -1.
         -4   -1    0    0    0  501 -0.00000000000E+00 -0.00000000000E+00 -0.53729878107E+01  0.55210413885E+01  0.12700000000E+01 0. -1.
         25    2    1    2    0    0  0.00000000000E+00  0.00000000000E+00  0.71169570945E+03  0.72259086330E+03  0.12500709128E+03 0.  0.
    9000005    1    3    3    0    0  0.94179909322E+01  0.61434016455E+02  0.31800663864E+03  0.32402478169E+03  0.10000000000E+01 0.  0.
    9000005    1    3    3    0    0 -0.94179909322E+01 -0.61434016455E+02  0.39368907081E+03  0.39856608161E+03  0.10000000000E+01 0.  0.
<mgrwt>
<rscale>  0 0.12500709E+03</rscale>
<asrwt>0</asrwt>
<pdfrwt beam="1">  1        4 0.17928583E+00 0.12500709E+03</pdfrwt>
<pdfrwt beam="2">  1       -4 0.13618942E-02 0.12500709E+03</pdfrwt>
<totfact> 0.59743354E+02</totfact>
</mgrwt>
</event>
<event>
 5    1  0.1466870E-002  0.1250005E+03  0.7818608E-02  0.1235068E+00
         -4   -1    0    0    0  501 -0.00000000000E+00  0.00000000000E+00  0.24860866891E+02  0.24893284287E+02  0.12700000000E+01 0. -1.
          4   -1    0    0  501    0  0.00000000000E+00 -0.00000000000E+00 -0.15698839829E+03  0.15699353521E+03  0.12700000000E+01 0. -1.
         25    2    1    2    0    0  0.00000000000E+00  0.00000000000E+00 -0.13212753140E+03  0.18188681949E+03  0.12500052221E+03 0.  0.
    9000005    1    3    3    0    0 -0.17232351210E+01  0.38285200712E+02  0.57615668156E+01  0.38767535194E+02  0.10000000000E+01 0.  0.
    9000005    1    3    3    0    0  0.17232351210E+01 -0.38285200712E+02 -0.13788909821E+03  0.14311928430E+03  0.10000000000E+01 0.  0.
<mgrwt>
<rscale>  0 0.12500052E+03</rscale>
<asrwt>0</asrwt>
<pdfrwt beam="2">  1        4 0.39251791E-01 0.12500052E+03</pdfrwt>
<pdfrwt beam="1">  1       -4 0.62199115E-02 0.12500052E+03</pdfrwt>
<totfact> 0.17073650E+03</totfact>
</mgrwt>
</event>
<event>
 5    1  0.1466870E-002  0.1250011E+03  0.7818608E-02  0.1235068E+00
          4   -1    0    0  501    0  0.00000000000E+00  0.00000000000E+00  0.39180400263E+03  0.39180606092E+03  0.12700000000E+01 0.  1.
         -4   -1    0    0    0  501 -0.00000000000E+00 -0.00000000000E+00 -0.99275479024E+01  0.10008451796E+02  0.12700000000E+01 0.  1.
         25    2    1    2    0    0  0.00000000000E+00  0.00000000000E+00  0.38187645472E+03  0.40181451272E+03  0.12500110382E+03 0.  0.
    9000005    1    3    3    0    0 -0.55822507778E+02 -0.27405489088E+02  0.17109523284E+03  0.18204887230E+03  0.10000000000E+01 0.  0.
    9000005    1    3    3    0    0  0.55822507778E+02  0.27405489088E+02  0.21078122188E+03  0.21976564041E+03  0.10000000000E+01 0.  0.
<mgrwt>
<rscale>  0 0.12500110E+03</rscale>
<asrwt>0</asrwt>
<pdfrwt beam="1">  1        4 0.97961361E-01 0.12500110E+03</pdfrwt>
<pdfrwt beam="2">  1       -4 0.24922575E-02 0.12500110E+03</pdfrwt>
<totfact> 0.10531655E+03</totfact>
</mgrwt>
</event>
<event>
 5    1  0.1466870E-002  0.1249987E+03  0.7818608E-02  0.1235071E+00
         -4   -1    0    0    0  501 -0.00000000000E+00  0.00000000000E+00  0.21973808493E+02  0.22010478406E+02  0.12700000000E+01 0. -1.
          4   -1    0    0  501    0  0.00000000000E+00 -0.00000000000E+00 -0.17757764741E+03  0.17758218874E+03  0.12700000000E+01 0. -1.
         25    2    1    2    0    0  0.00000000000E+00  0.00000000000E+00 -0.15560383891E+03  0.19959266715E+03  0.12499871237E+03 0.  0.
    9000005    1    3    3    0    0  0.30952993183E+02 -0.46424607762E+02 -0.32869781518E+02  0.64766924660E+02  0.10000000000E+01 0.  0.
    9000005    1    3    3    0    0 -0.30952993183E+02  0.46424607762E+02 -0.12273405740E+03  0.13482574249E+03  0.10000000000E+01 0.  0.
<mgrwt>
<rscale>  0 0.12499871E+03</rscale>
<asrwt>0</asrwt>
<pdfrwt beam="2">  1        4 0.44399559E-01 0.12499871E+03</pdfrwt>
<pdfrwt beam="1">  1       -4 0.54986041E-02 0.12499871E+03</pdfrwt>
<totfact> 0.16338851E+03</totfact>
</mgrwt>
</event>
<event>
 5    1  0.1466870E-002  0.1250027E+03  0.7818608E-02  0.1235065E+00
          4   -1    0    0  501    0  0.00000000000E+00  0.00000000000E+00  0.14053186152E+03  0.14053759996E+03  0.12700000000E+01 0.  1.
         -4   -1    0    0    0  501 -0.00000000000E+00 -0.00000000000E+00 -0.27776590762E+02  0.27805609045E+02  0.12700000000E+01 0.  1.
         25    2    1    2    0    0  0.00000000000E+00  0.00000000000E+00  0.11275527076E+03  0.16834320900E+03  0.12500273970E+03 0.  0.
    9000005    1    3    3    0    0 -0.40205762470E+02  0.42012357211E+02  0.25553431308E+02  0.63525737664E+02  0.10000000000E+01 0.  0.
    9000005    1    3    3    0    0  0.40205762470E+02 -0.42012357211E+02  0.87201839448E+02  0.10481747134E+03  0.10000000000E+01 0.  0.
<mgrwt>
<rscale>  0 0.12500274E+03</rscale>
<asrwt>0</asrwt>
<pdfrwt beam="1">  1        4 0.35137309E-01 0.12500274E+03</pdfrwt>
<pdfrwt beam="2">  1       -4 0.69484925E-02 0.12500274E+03</pdfrwt>
<totfact> 0.17670911E+03</totfact>
</mgrwt>
</event>
<event>
 5    1  0.1466870E-002  0.1250029E+03  0.7818608E-02  0.1235065E+00
         -4   -1    0    0    0  501 -0.00000000000E+00  0.00000000000E+00  0.13072877944E+03  0.13073494817E+03  0.12700000000E+01 0. -1.
          4   -1    0    0  501    0  0.00000000000E+00 -0.00000000000E+00 -0.29861604205E+02  0.29888598256E+02  0.12700000000E+01 0. -1.
         25    2    1    2    0    0  0.00000000000E+00  0.00000000000E+00  0.10086717523E+03  0.16062354643E+03  0.12500294648E+03 0.  0.
    9000005    1    3    3    0    0  0.55619113292E+02  0.21783125781E+01  0.86940948398E+02  0.10323739302E+03  0.10000000000E+01 0.  0.
    9000005    1    3    3    0    0 -0.55619113292E+02 -0.21783125781E+01  0.13926226834E+02  0.57386153408E+02  0.10000000000E+01 0.  0.
<mgrwt>
<rscale>  0 0.12500295E+03</rscale>
<asrwt>0</asrwt>
<pdfrwt beam="2">  1        4 0.74695466E-02 0.12500295E+03</pdfrwt>
<pdfrwt beam="1">  1       -4 0.32686339E-01 0.12500295E+03</pdfrwt>
<totfact> 0.18027214E+03</totfact>
</mgrwt>
</event>
<event>
 5    1  0.1466870E-002  0.1249975E+03  0.7818608E-02  0.1235073E+00
          4   -1    0    0  501    0  0.00000000000E+00  0.00000000000E+00  0.36235263576E+03  0.36235486134E+03  0.12700000000E+01 0.  1.
         -4   -1    0    0    0  501 -0.00000000000E+00 -0.00000000000E+00 -0.10740138727E+02  0.10814965551E+02  0.12700000000E+01 0.  1.
         25    2    1    2    0    0  0.00000000000E+00  0.00000000000E+00  0.35161249703E+03  0.37316982690E+03  0.12499748652E+03 0.  0.
    9000005    1    3    3    0    0 -0.57610983359E+02 -0.11658749224E+02  0.23914646764E+03  0.24626608540E+03  0.10000000000E+01 0.  0.
    9000005    1    3    3    0    0  0.57610983359E+02  0.11658749224E+02  0.11246602939E+03  0.12690374149E+03  0.10000000000E+01 0.  0.
<mgrwt>
<rscale>  0 0.12499749E+03</rscale>
<asrwt>0</asrwt>
<pdfrwt beam="1">  1        4 0.90597787E-01 0.12499749E+03</pdfrwt>
<pdfrwt beam="2">  1       -4 0.26946663E-02 0.12499749E+03</pdfrwt>
<totfact> 0.11144210E+03</totfact>
</mgrwt>
</event>
<event>
 5    1  0.1466870E-002  0.1249897E+03  0.7818608E-02  0.1235085E+00
         -4   -1    0    0    0  501 -0.00000000000E+00  0.00000000000E+00  0.21360279355E+02  0.21398000704E+02  0.12700000000E+01 0. -1.
          4   -1    0    0  501    0  0.00000000000E+00 -0.00000000000E+00 -0.18264319453E+03  0.18264760991E+03  0.12700000000E+01 0. -1.
         25    2    1    2    0    0  0.00000000000E+00  0.00000000000E+00 -0.16128291517E+03  0.20404561062E+03  0.12498972952E+03 0.  0.
    9000005    1    3    3    0    0 -0.26787922149E+02  0.50965969679E+02 -0.12027742038E+03  0.13335209294E+03  0.10000000000E+01 0.  0.
    9000005    1    3    3    0    0  0.26787922149E+02 -0.50965969679E+02 -0.41005494791E+02  0.70693517676E+02  0.10000000000E+01 0.  0.
<mgrwt>
<rscale>  0 0.12498973E+03</rscale>
<asrwt>0</asrwt>
<pdfrwt beam="2">  1        4 0.45666061E-01 0.12498973E+03</pdfrwt>
<pdfrwt beam="1">  1       -4 0.53453375E-02 0.12498973E+03</pdfrwt>
<totfact> 0.16165158E+03</totfact>
</mgrwt>
</event>
<event>
 5    1  0.1466870E-002  0.1250020E+03  0.7818608E-02  0.1235066E+00
         -4   -1    0    0    0  501 -0.00000000000E+00  0.00000000000E+00  0.82115086364E+01  0.83091379869E+01  0.12700000000E+01 0.  1.
          4   -1    0    0  501    0  0.00000000000E+00 -0.00000000000E+00 -0.47280961757E+03  0.47281132322E+03  0.12700000000E+01 0.  1.
         25    2    1    2    0    0  0.00000000000E+00  0.00000000000E+00 -0.46459810893E+03  0.48112046121E+03  0.12500198146E+03 0.  0.
    9000005    1    3    3    0    0  0.38283200554E+02 -0.27901749024E+02 -0.75423201641E+02  0.89071714865E+02  0.10000000000E+01 0.  0.
    9000005    1    3    3    0    0 -0.38283200554E+02  0.27901749024E+02 -0.38917490729E+03  0.39204874634E+03  0.10000000000E+01 0.  0.
<mgrwt>
<rscale>  0 0.12500198E+03</rscale>
<asrwt>0</asrwt>
<pdfrwt beam="2">  1        4 0.11821473E+00 0.12500198E+03</pdfrwt>
<pdfrwt beam="1">  1       -4 0.20652956E-02 0.12500198E+03</pdfrwt>
<totfact> 0.90680673E+02</totfact>
</mgrwt>
</event>
<event>
 5    1  0.1466870E-002  0.1250013E+03  0.7818608E-02  0.1235067E+00
         -4   -1    0    0    0  501 -0.00000000000E+00  0.00000000000E+00  0.96984071255E+02  0.96992386181E+02  0.12700000000E+01 0. -1.
          4   -1    0    0  501    0  0.00000000000E+00 -0.00000000000E+00 -0.40258007531E+02  0.40278034589E+02  0.12700000000E+01 0. -1.
         25    2    1    2    0    0  0.00000000000E+00  0.00000000000E+00  0.56726063724E+02  0.13727042077E+03  0.12500128844E+03 0.  0.
    9000005    1    3    3    0    0 -0.20185142893E+02 -0.12094998226E+02  0.91938368263E+02  0.94907283886E+02  0.10000000000E+01 0.  0.
    9000005    1    3    3    0    0  0.20185142893E+02  0.12094998226E+02 -0.35212304539E+02  0.42363136884E+02  0.10000000000E+01 0.  0.
<mgrwt>
<rscale>  0 0.12500129E+03</rscale>
<asrwt>0</asrwt>
<pdfrwt beam="2">  1        4 0.10068045E-01 0.12500129E+03</pdfrwt>
<pdfrwt beam="1">  1       -4 0.24249560E-01 0.12500129E+03</pdfrwt>
<totfact> 0.19180289E+03</totfact>
</mgrwt>
</event>
<event>
 5    1  0.1466870E-002  0.1249958E+03  0.7818608E-02  0.1235076E+00
          4   -1    0    0  501    0  0.00000000000E+00  0.00000000000E+00  0.21484130716E+02  0.21521634989E+02  0.12700000000E+01 0.  1.
         -4   -1    0    0    0  501 -0.00000000000E+00 -0.00000000000E+00 -0.18160980503E+03  0.18161424554E+03  0.12700000000E+01 0.  1.
         25    2    1    2    0    0  0.00000000000E+00  0.00000000000E+00 -0.16012567431E+03  0.20313588053E+03  0.12499581746E+03 0.  0.
    9000005    1    3    3    0    0  0.22895663774E+02  0.21441362391E+02 -0.16789635864E+03  0.17080436377E+03  0.10000000000E+01 0.  0.
    9000005    1    3    3    0    0 -0.22895663774E+02 -0.21441362391E+02  0.77706843225E+01  0.32331516755E+02  0.10000000000E+01 0.  0.
<mgrwt>
<rscale>  0 0.12499582E+03</rscale>
<asrwt>0</asrwt>
<pdfrwt beam="1">  1        4 0.53762763E-02 0.12499582E+03</pdfrwt>
<pdfrwt beam="2">  1       -4 0.45407690E-01 0.12499582E+03</pdfrwt>
<totfact> 0.16198808E+03</totfact>
</mgrwt>
</event>
<event>
 5    1  0.1466870E-002  0.1249978E+03  0.7818608E-02  0.1235073E+00
         -4   -1    0    0    0  501 -0.00000000000E+00  0.00000000000E+00  0.30024919508E+03  0.30025188100E+03  0.12700000000E+01 0. -1.
          4   -1    0    0  501    0  0.00000000000E+00 -0.00000000000E+00 -0.12975826525E+02  0.13037828577E+02  0.12700000000E+01 0. -1.
         25    2    1    2    0    0  0.00000000000E+00  0.00000000000E+00  0.28727336855E+03  0.31328970958E+03  0.12499781537E+03 0.  0.
    9000005    1    3    3    0    0 -0.11355784772E+02  0.20030972013E+02  0.28924139779E+03  0.29015819803E+03  0.10000000000E+01 0.  0.
    9000005    1    3    3    0    0  0.11355784772E+02 -0.20030972013E+02 -0.19680292357E+01  0.23131511551E+02  0.10000000000E+01 0.  0.
<mgrwt>
<rscale>  0 0.12499782E+03</rscale>
<asrwt>0</asrwt>
<pdfrwt beam="2">  1        4 0.32520426E-02 0.12499782E+03</pdfrwt>
<pdfrwt beam="1">  1       -4 0.75070386E-01 0.12499782E+03</pdfrwt>
<totfact> 0.12607225E+03</totfact>
</mgrwt>
</event>
<event>
 5    1  0.1466870E-002  0.1250034E+03  0.7818608E-02  0.1235064E+00
          4   -1    0    0  501    0  0.00000000000E+00  0.00000000000E+00  0.17879191603E+03  0.17879642652E+03  0.12700000000E+01 0.  1.
         -4   -1    0    0    0  501 -0.00000000000E+00 -0.00000000000E+00 -0.21825957561E+02  0.21862875461E+02  0.12700000000E+01 0.  1.
         25    2    1    2    0    0  0.00000000000E+00  0.00000000000E+00  0.15696595847E+03  0.20065930198E+03  0.12500337337E+03 0.  0.
    9000005    1    3    3    0    0  0.21521213343E+02 -0.32487891196E+01 -0.15553200900E+02  0.26769746221E+02  0.10000000000E+01 0.  0.
    9000005    1    3    3    0    0 -0.21521213343E+02  0.32487891196E+01  0.17251915937E+03  0.17388955576E+03  0.10000000000E+01 0.  0.
<mgrwt>
<rscale>  0 0.12500337E+03</rscale>
<asrwt>0</asrwt>
<pdfrwt beam="1">  1        4 0.44703157E-01 0.12500337E+03</pdfrwt>
<pdfrwt beam="2">  1       -4 0.54616680E-02 0.12500337E+03</pdfrwt>
<totfact> 0.16294405E+03</totfact>
</mgrwt>
</event>
<event>
 5    1  0.1466870E-002  0.1250003E+03  0.7818608E-02  0.1235069E+00
          4   -1    0    0  501    0  0.00000000000E+00  0.00000000000E+00  0.11488248345E+03  0.11488950301E+03  0.12700000000E+01 0.  1.
         -4   -1    0    0    0  501 -0.00000000000E+00 -0.00000000000E+00 -0.33982375890E+02  0.34006099028E+02  0.12700000000E+01 0.  1.
         25    2    1    2    0    0  0.00000000000E+00  0.00000000000E+00  0.80900107556E+02  0.14889560204E+03  0.12500029162E+03 0.  0.
    9000005    1    3    3    0    0 -0.17386024906E+02 -0.39451416743E+02  0.94337203812E+02  0.10372654515E+03  0.10000000000E+01 0.  0.
    9000005    1    3    3    0    0  0.17386024906E+02  0.39451416743E+02 -0.13437096255E+02  0.45169056896E+02  0.10000000000E+01 0.  0.
<mgrwt>
<rscale>  0 0.12500029E+03</rscale>
<asrwt>0</asrwt>
<pdfrwt beam="1">  1        4 0.28724463E-01 0.12500029E+03</pdfrwt>
<pdfrwt beam="2">  1       -4 0.84994369E-02 0.12500029E+03</pdfrwt>
<totfact> 0.18593092E+03</totfact>
</mgrwt>
</event>
<event>
 5    1  0.1466870E-002  0.1250007E+03  0.7818608E-02  0.1235068E+00
          4   -1    0    0  501    0  0.00000000000E+00  0.00000000000E+00  0.19300783960E+03  0.19301201788E+03  0.12700000000E+01 0.  1.
         -4   -1    0    0    0  501 -0.00000000000E+00 -0.00000000000E+00 -0.20214701929E+02  0.20254556872E+02  0.12700000000E+01 0.  1.
         25    2    1    2    0    0  0.00000000000E+00  0.00000000000E+00  0.17279313767E+03  0.21326657475E+03  0.12500065392E+03 0.  0.
    9000005    1    3    3    0    0  0.63629048285E+01  0.48962295607E+02  0.15175464442E+03  0.15958779731E+03  0.10000000000E+01 0.  0.
    9000005    1    3    3    0    0 -0.63629048285E+01 -0.48962295607E+02  0.21038493249E+02  0.53678777437E+02  0.10000000000E+01 0.  0.
<mgrwt>
<rscale>  0 0.12500065E+03</rscale>
<asrwt>0</asrwt>
<pdfrwt beam="1">  1        4 0.48257463E-01 0.12500065E+03</pdfrwt>
<pdfrwt beam="2">  1       -4 0.50591797E-02 0.12500065E+03</pdfrwt>
<totfact> 0.15804020E+03</totfact>
</mgrwt>
</event>
<event>
 5    1  0.1466870E-002  0.1250048E+03  0.7818608E-02  0.1235062E+00
          4   -1    0    0  501    0  0.00000000000E+00  0.00000000000E+00  0.20612890198E+03  0.20613281430E+03  0.12700000000E+01 0.  1.
         -4   -1    0    0    0  501 -0.00000000000E+00 -0.00000000000E+00 -0.18926598297E+02  0.18969159789E+02  0.12700000000E+01 0.  1.
         25    2    1    2    0    0  0.00000000000E+00  0.00000000000E+00  0.18720230368E+03  0.22510197409E+03  0.12500478485E+03 0.  0.
    9000005    1    3    3    0    0 -0.26756466727E+02  0.42297126152E+02  0.16099321400E+03  0.16859647193E+03  0.10000000000E+01 0.  0.
    9000005    1    3    3    0    0  0.26756466727E+02 -0.42297126152E+02  0.26209089680E+02  0.56505502159E+02  0.10000000000E+01 0.  0.
<mgrwt>
<rscale>  0 0.12500478E+03</rscale>
<asrwt>0</asrwt>
<pdfrwt beam="1">  1        4 0.51538035E-01 0.12500478E+03</pdfrwt>
<pdfrwt beam="2">  1       -4 0.47374587E-02 0.12500478E+03</pdfrwt>
<totfact> 0.15362227E+03</totfact>
</mgrwt>
</event>
<event>
 5    1  0.1466870E-002  0.1249993E+03  0.7818608E-02  0.1235070E+00
          4   -1    0    0  501    0  0.00000000000E+00  0.00000000000E+00  0.27917918476E+03  0.27918207339E+03  0.12700000000E+01 0. -1.
         -4   -1    0    0    0  501 -0.00000000000E+00 -0.00000000000E+00 -0.13959972285E+02  0.14017621988E+02  0.12700000000E+01 0. -1.
         25    2    1    2    0    0  0.00000000000E+00  0.00000000000E+00  0.26521921247E+03  0.29319969538E+03  0.12499932282E+03 0.  0.
    9000005    1    3    3    0    0  0.29243356824E+02  0.33582960000E+02  0.29770750158E+02  0.53575056563E+02  0.10000000000E+01 0.  0.
    9000005    1    3    3    0    0 -0.29243356824E+02 -0.33582960000E+02  0.23544846231E+03  0.23962463881E+03  0.10000000000E+01 0.  0.
<mgrwt>
<rscale>  0 0.12499932E+03</rscale>
<asrwt>0</asrwt>
<pdfrwt beam="1">  1        4 0.69802364E-01 0.12499932E+03</pdfrwt>
<pdfrwt beam="2">  1       -4 0.34975603E-02 0.12499932E+03</pdfrwt>
<totfact> 0.13164014E+03</totfact>
</mgrwt>
</event>
<event>
 5    1  0.1466870E-002  0.1250128E+03  0.7818608E-02  0.1235049E+00
         -4   -1    0    0    0  501 -0.00000000000E+00  0.00000000000E+00  0.23190876993E+02  0.23225625410E+02  0.12700000000E+01 0. -1.
          4   -1    0    0  501    0  0.00000000000E+00 -0.00000000000E+00 -0.16831034660E+03  0.16831513798E+03  0.12700000000E+01 0. -1.
         25    2    1    2    0    0  0.00000000000E+00  0.00000000000E+00 -0.14511946961E+03  0.19154076339E+03  0.12501281367E+03 0.  0.
    9000005    1    3    3    0    0 -0.53074043199E+02  0.30989588527E+02 -0.89951185565E+02  0.10894688818E+03  0.10000000000E+01 0.  0.
    9000005    1    3    3    0    0  0.53074043199E+02 -0.30989588527E+02 -0.55168284046E+02  0.82593875216E+02  0.10000000000E+01 0.  0.
<mgrwt>
<rscale>  0 0.12501281E+03</rscale>
<asrwt>0</asrwt>
<pdfrwt beam="2">  1        4 0.42082525E-01 0.12501281E+03</pdfrwt>
<pdfrwt beam="1">  1       -4 0.58026622E-02 0.12501281E+03</pdfrwt>
<totfact> 0.16661520E+03</totfact>
</mgrwt>
</event>
<event>
 5    1  0.1466870E-002  0.1249993E+03  0.7818608E-02  0.1235070E+00
         -4   -1    0    0    0  501 -0.00000000000E+00  0.00000000000E+00  0.11591332963E+03  0.11592028678E+03  0.12700000000E+01 0.  1.
          4   -1    0    0  501    0  0.00000000000E+00 -0.00000000000E+00 -0.33679420515E+02  0.33703356899E+02  0.12700000000E+01 0.  1.
         25    2    1    2    0    0  0.00000000000E+00  0.00000000000E+00  0.82233909117E+02  0.14962364368E+03  0.12499927575E+03 0.  0.
    9000005    1    3    3    0    0  0.51175299446E+02  0.37367354018E+01  0.83813492309E+02  0.98278054304E+02  0.10000000000E+01 0.  0.
    9000005    1    3    3    0    0 -0.51175299446E+02 -0.37367354018E+01 -0.15795831919E+01  0.51345589371E+02  0.10000000000E+01 0.  0.
<mgrwt>
<rscale>  0 0.12499928E+03</rscale>
<asrwt>0</asrwt>
<pdfrwt beam="2">  1        4 0.84237169E-02 0.12499928E+03</pdfrwt>
<pdfrwt beam="1">  1       -4 0.28982194E-01 0.12499928E+03</pdfrwt>
<totfact> 0.18557615E+03</totfact>
</mgrwt>
</event>
<event>
 5    1  0.1466870E-002  0.1250007E+03  0.7818608E-02  0.1235068E+00
          4   -1    0    0  501    0  0.00000000000E+00  0.00000000000E+00  0.13760821706E+02  0.13819302227E+02  0.12700000000E+01 0. -1.
         -4   -1    0    0    0  501 -0.00000000000E+00 -0.00000000000E+00 -0.28320882058E+03  0.28321166812E+03  0.12700000000E+01 0. -1.
         25    2    1    2    0    0  0.00000000000E+00  0.00000000000E+00 -0.26944799888E+03  0.29703097034E+03  0.12500069297E+03 0.  0.
    9000005    1    3    3    0    0 -0.37339230160E+02  0.17756700515E+02 -0.24607220192E+03  0.24952364032E+03  0.10000000000E+01 0.  0.
    9000005    1    3    3    0    0  0.37339230160E+02 -0.17756700515E+02 -0.23375796956E+02  0.47507330018E+02  0.10000000000E+01 0.  0.
<mgrwt>
<rscale>  0 0.12500069E+03</rscale>
<asrwt>0</asrwt>
<pdfrwt beam="1">  1        4 0.34478724E-02 0.12500069E+03</pdfrwt>
<pdfrwt beam="2">  1       -4 0.70809852E-01 0.12500069E+03</pdfrwt>
<totfact> 0.13054473E+03</totfact>
</mgrwt>
</event>
<event>
 5    1  0.1466870E-002  0.1249907E+03  0.7818608E-02  0.1235084E+00
         -4   -1    0    0    0  501 -0.00000000000E+00  0.00000000000E+00  0.85571681948E+02  0.85581105692E+02  0.12700000000E+01 0. -1.
          4   -1    0    0  501    0  0.00000000000E+00 -0.00000000000E+00 -0.45621286660E+02  0.45638960292E+02  0.12700000000E+01 0. -1.
         25    2    1    2    0    0  0.00000000000E+00  0.00000000000E+00  0.39950395288E+02  0.13122006598E+03  0.12499068619E+03 0.  0.
    9000005    1    3    3    0    0 -0.48647019573E+02 -0.11882619408E+02  0.59213596903E+02  0.77556297072E+02  0.10000000000E+01 0.  0.
    9000005    1    3    3    0    0  0.48647019573E+02  0.11882619408E+02 -0.19263201616E+02  0.53663768912E+02  0.10000000000E+01 0.  0.
<mgrwt>
<rscale>  0 0.12499069E+03</rscale>
<asrwt>0</asrwt>
<pdfrwt beam="2">  1        4 0.11408709E-01 0.12499069E+03</pdfrwt>
<pdfrwt beam="1">  1       -4 0.21396307E-01 0.12499069E+03</pdfrwt>
<totfact> 0.19503255E+03</totfact>
</mgrwt>
</event>
<event>
 5    1  0.1466870E-002  0.1250020E+03  0.7818608E-02  0.1235066E+00
         -4   -1    0    0    0  501 -0.00000000000E+00  0.00000000000E+00  0.45820035329E+02  0.45837632329E+02  0.12700000000E+01 0. -1.
          4   -1    0    0  501    0  0.00000000000E+00 -0.00000000000E+00 -0.85215992044E+02  0.85225455118E+02  0.12700000000E+01 0. -1.
         25    2    1    2    0    0  0.00000000000E+00  0.00000000000E+00 -0.39395956715E+02  0.13106308745E+03  0.12500196593E+03 0.  0.
    9000005    1    3    3    0    0  0.17411644855E+02 -0.36471198384E+02  0.30279388520E+02  0.50508960168E+02  0.10000000000E+01 0.  0.
    9000005    1    3    3    0    0 -0.17411644855E+02  0.36471198384E+02 -0.69675345235E+02  0.80554127279E+02  0.10000000000E+01 0.  0.
<mgrwt>
<rscale>  0 0.12500197E+03</rscale>
<asrwt>0</asrwt>
<pdfrwt beam="2">  1        4 0.21307380E-01 0.12500197E+03</pdfrwt>
<pdfrwt beam="1">  1       -4 0.11458391E-01 0.12500197E+03</pdfrwt>
<totfact> 0.19506506E+03</totfact>
</mgrwt>
</event>
<event>
 5    1  0.1466870E-002  0.1249933E+03  0.7818608E-02  0.1235080E+00
          4   -1    0    0  501    0  0.00000000000E+00  0.00000000000E+00  0.10487723439E+02  0.10564338263E+02  0.12700000000E+01 0.  1.
         -4   -1    0    0    0  501 -0.00000000000E+00 -0.00000000000E+00 -0.37098616551E+03  0.37098833930E+03  0.12700000000E+01 0.  1.
         25    2    1    2    0    0  0.00000000000E+00  0.00000000000E+00 -0.36049844207E+03  0.38155267757E+03  0.12499327591E+03 0.  0.
    9000005    1    3    3    0    0 -0.53275441776E+02 -0.70345631639E+01 -0.27760095698E+03  0.28275616543E+03  0.10000000000E+01 0.  0.
    9000005    1    3    3    0    0  0.53275441776E+02  0.70345631639E+01 -0.82897485092E+02  0.98796512134E+02  0.10000000000E+01 0.  0.
<mgrwt>
<rscale>  0 0.12499328E+03</rscale>
<asrwt>0</asrwt>
<pdfrwt beam="1">  1        4 0.26317807E-02 0.12499328E+03</pdfrwt>
<pdfrwt beam="2">  1       -4 0.92756346E-01 0.12499328E+03</pdfrwt>
<totfact> 0.10961002E+03</totfact>
</mgrwt>
</event>
<event>
 5    1  0.1466870E-002  0.1249976E+03  0.7818608E-02  0.1235073E+00
         -4   -1    0    0    0  501 -0.00000000000E+00  0.00000000000E+00  0.21327882798E+02  0.21365661343E+02  0.12700000000E+01 0. -1.
          4   -1    0    0  501    0  0.00000000000E+00 -0.00000000000E+00 -0.18294306355E+03  0.18294747170E+03  0.12700000000E+01 0. -1.
         25    2    1    2    0    0  0.00000000000E+00  0.00000000000E+00 -0.16161518075E+03  0.20431313304E+03  0.12499755871E+03 0.  0.
    9000005    1    3    3    0    0  0.44660921249E+02 -0.20674933547E+02 -0.17861007396E+02  0.52364743379E+02  0.10000000000E+01 0.  0.
    9000005    1    3    3    0    0 -0.44660921249E+02  0.20674933547E+02 -0.14375417336E+03  0.15194838966E+03  0.10000000000E+01 0.  0.
<mgrwt>
<rscale>  0 0.12499756E+03</rscale>
<asrwt>0</asrwt>
<pdfrwt beam="2">  1        4 0.45741035E-01 0.12499756E+03</pdfrwt>
<pdfrwt beam="1">  1       -4 0.53372446E-02 0.12499756E+03</pdfrwt>
<totfact> 0.16151693E+03</totfact>
</mgrwt>
</event>
<event>
 5    1  0.1466870E-002  0.1249964E+03  0.7818608E-02  0.1235075E+00
          4   -1    0    0  501    0  0.00000000000E+00  0.00000000000E+00  0.51026615999E+01  0.52583319982E+01  0.12700000000E+01 0. -1.
         -4   -1    0    0    0  501 -0.00000000000E+00 -0.00000000000E+00 -0.75383069932E+03  0.75383176912E+03  0.12700000000E+01 0. -1.
         25    2    1    2    0    0  0.00000000000E+00  0.00000000000E+00 -0.74872803772E+03  0.75909010112E+03  0.12499642855E+03 0.  0.
    9000005    1    3    3    0    0  0.24949886129E+02 -0.31163300657E+02 -0.82398695452E+02  0.91565239790E+02  0.10000000000E+01 0.  0.
    9000005    1    3    3    0    0 -0.24949886129E+02  0.31163300657E+02 -0.66632934227E+03  0.66752486133E+03  0.10000000000E+01 0.  0.
<mgrwt>
<rscale>  0 0.12499643E+03</rscale>
<asrwt>0</asrwt>
<pdfrwt beam="1">  1        4 0.12952605E-02 0.12499643E+03</pdfrwt>
<pdfrwt beam="2">  1       -4 0.18847689E+00 0.12499643E+03</pdfrwt>
<totfact> 0.56213608E+02</totfact>
</mgrwt>
</event>
<event>
 5    1  0.1466870E-002  0.1250012E+03  0.7818608E-02  0.1235067E+00
          4   -1    0    0  501    0  0.00000000000E+00  0.00000000000E+00  0.69299180453E+01  0.70453292411E+01  0.12700000000E+01 0.  1.
         -4   -1    0    0    0  501 -0.00000000000E+00 -0.00000000000E+00 -0.55891826780E+03  0.55891971067E+03  0.12700000000E+01 0.  1.
         25    2    1    2    0    0  0.00000000000E+00  0.00000000000E+00 -0.55198834975E+03  0.56596503991E+03  0.12500115256E+03 0.  0.
    9000005    1    3    3    0    0  0.26841511149E+01  0.30237590014E+02 -0.52331508974E+03  0.52419576464E+03  0.10000000000E+01 0.  0.
    9000005    1    3    3    0    0 -0.26841511149E+01 -0.30237590014E+02 -0.28673260012E+02  0.41769275272E+02  0.10000000000E+01 0.  0.
<mgrwt>
<rscale>  0 0.12500115E+03</rscale>
<asrwt>0</asrwt>
<pdfrwt beam="1">  1        4 0.17470882E-02 0.12500115E+03</pdfrwt>
<pdfrwt beam="2">  1       -4 0.13974402E+00 0.12500115E+03</pdfrwt>
<totfact> 0.77957231E+02</totfact>
</mgrwt>
</event>
<event>
 5    1  0.1466870E-002  0.1250020E+03  0.7818608E-02  0.1235066E+00
         -4   -1    0    0    0  501 -0.00000000000E+00  0.00000000000E+00  0.13787078654E+02  0.13845448271E+02  0.12700000000E+01 0. -1.
          4   -1    0    0  501    0  0.00000000000E+00 -0.00000000000E+00 -0.28267751980E+03  0.28268037268E+03  0.12700000000E+01 0. -1.
         25    2    1    2    0    0  0.00000000000E+00  0.00000000000E+00 -0.26889044114E+03  0.29652582095E+03  0.12500197259E+03 0.  0.
    9000005    1    3    3    0    0  0.27018255378E+02 -0.56205199941E+02 -0.12484960908E+03  0.13956158322E+03  0.10000000000E+01 0.  0.
    9000005    1    3    3    0    0 -0.27018255378E+02  0.56205199941E+02 -0.14404083206E+03  0.15696423773E+03  0.10000000000E+01 0.  0.
<mgrwt>
<rscale>  0 0.12500197E+03</rscale>
<asrwt>0</asrwt>
<pdfrwt beam="2">  1        4 0.70677014E-01 0.12500197E+03</pdfrwt>
<pdfrwt beam="1">  1       -4 0.34544234E-02 0.12500197E+03</pdfrwt>
<totfact> 0.13068399E+03</totfact>
</mgrwt>
</event>
<event>
 5    1  0.1466870E-002  0.1250063E+03  0.7818608E-02  0.1235059E+00
         -4   -1    0    0    0  501 -0.00000000000E+00  0.00000000000E+00  0.23044282162E+03  0.23044632116E+03  0.12700000000E+01 0. -1.
          4   -1    0    0  501    0  0.00000000000E+00 -0.00000000000E+00 -0.16925352444E+02  0.16972933022E+02  0.12700000000E+01 0. -1.
         25    2    1    2    0    0  0.00000000000E+00  0.00000000000E+00  0.21351746918E+03  0.24741925418E+03  0.12500631063E+03 0.  0.
    9000005    1    3    3    0    0 -0.21092591753E+02 -0.52247959641E+02  0.53249362294E+02  0.77532195237E+02  0.10000000000E+01 0.  0.
    9000005    1    3    3    0    0  0.21092591753E+02  0.52247959641E+02  0.16026810688E+03  0.16988705894E+03  0.10000000000E+01 0.  0.
<mgrwt>
<rscale>  0 0.12500631E+03</rscale>
<asrwt>0</asrwt>
<pdfrwt beam="2">  1        4 0.42377232E-02 0.12500631E+03</pdfrwt>
<pdfrwt beam="1">  1       -4 0.57617089E-01 0.12500631E+03</pdfrwt>
<totfact> 0.14582107E+03</totfact>
</mgrwt>
</event>
<event>
 5    1  0.1466870E-002  0.1249997E+03  0.7818608E-02  0.1235070E+00
         -4   -1    0    0    0  501 -0.00000000000E+00  0.00000000000E+00  0.79372392005E+02  0.79382551688E+02  0.12700000000E+01 0.  1.
          4   -1    0    0  501    0  0.00000000000E+00 -0.00000000000E+00 -0.49192493198E+02  0.49208884228E+02  0.12700000000E+01 0.  1.
         25    2    1    2    0    0  0.00000000000E+00  0.00000000000E+00  0.30179898807E+02  0.12859143592E+03  0.12499972440E+03 0.  0.
    9000005    1    3    3    0    0 -0.33149785097E+02 -0.16284948964E+01 -0.39381211789E+02  0.51511552971E+02  0.10000000000E+01 0.  0.
    9000005    1    3    3    0    0  0.33149785097E+02  0.16284948964E+01  0.69561110596E+02  0.77079882945E+02  0.10000000000E+01 0.  0.
<mgrwt>
<rscale>  0 0.12499972E+03</rscale>
<asrwt>0</asrwt>
<pdfrwt beam="2">  1        4 0.12301442E-01 0.12499972E+03</pdfrwt>
<pdfrwt beam="1">  1       -4 0.19846417E-01 0.12499972E+03</pdfrwt>
<totfact> 0.19640541E+03</totfact>
</mgrwt>
</event>
<event>
 5    1  0.1466870E-002  0.1250011E+03  0.7818608E-02  0.1235068E+00
          4   -1    0    0  501    0  0.00000000000E+00  0.00000000000E+00  0.68899486058E+02  0.68911189796E+02  0.12700000000E+01 0.  1.
         -4   -1    0    0    0  501 -0.00000000000E+00 -0.00000000000E+00 -0.56672242659E+02  0.56686470943E+02  0.12700000000E+01 0.  1.
         25    2    1    2    0    0  0.00000000000E+00  0.00000000000E+00  0.12227243399E+02  0.12559766074E+03  0.12500106760E+03 0.  0.
    9000005    1    3    3    0    0  0.61877713432E+02  0.87387898830E+01  0.64295380607E+01  0.62829585610E+02  0.10000000000E+01 0.  0.
    9000005    1    3    3    0    0 -0.61877713432E+02 -0.87387898830E+01  0.57977053383E+01  0.62768075129E+02  0.10000000000E+01 0.  0.
<mgrwt>
<rscale>  0 0.12500107E+03</rscale>
<asrwt>0</asrwt>
<pdfrwt beam="1">  1        4 0.17228113E-01 0.12500107E+03</pdfrwt>
<pdfrwt beam="2">  1       -4 0.14171302E-01 0.12500107E+03</pdfrwt>
<totfact> 0.19802183E+03</totfact>
</mgrwt>
</event>
<event>
 5    1  0.1466870E-002  0.1250394E+03  0.7818608E-02  0.1235008E+00
         -4   -1    0    0    0  501 -0.00000000000E+00  0.00000000000E+00  0.14668912515E+02  0.14723786686E+02  0.12700000000E+01 0. -1.
          4   -1    0    0  501    0  0.00000000000E+00 -0.00000000000E+00 -0.26590864418E+03  0.26591167697E+03  0.12700000000E+01 0. -1.
         25    2    1    2    0    0  0.00000000000E+00  0.00000000000E+00 -0.25123973167E+03  0.28063546366E+03  0.12503943656E+03 0.  0.
    9000005    1    3    3    0    0  0.48342971367E+02 -0.36314619834E+02 -0.89997115010E+02  0.10842635844E+03  0.10000000000E+01 0.  0.
    9000005    1    3    3    0    0 -0.48342971367E+02  0.36314619834E+02 -0.16124261666E+03  0.17220910522E+03  0.10000000000E+01 0.  0.
<mgrwt>
<rscale>  0 0.12503944E+03</rscale>
<asrwt>0</asrwt>
<pdfrwt beam="2">  1        4 0.66484384E-01 0.12503944E+03</pdfrwt>
<pdfrwt beam="1">  1       -4 0.36744674E-02 0.12503944E+03</pdfrwt>
<totfact> 0.13519446E+03</totfact>
</mgrwt>
</event>
<event>
 5    1  0.1466870E-002  0.1249912E+03  0.7818608E-02  0.1235083E+00
          4   -1    0    0  501    0  0.00000000000E+00  0.00000000000E+00  0.97818238501E+02  0.97826482526E+02  0.12700000000E+01 0. -1.
         -4   -1    0    0    0  501 -0.00000000000E+00 -0.00000000000E+00 -0.39908132381E+02  0.39928334928E+02  0.12700000000E+01 0. -1.
         25    2    1    2    0    0  0.00000000000E+00  0.00000000000E+00  0.57910106120E+02  0.13775481745E+03  0.12499123706E+03 0.  0.
    9000005    1    3    3    0    0  0.58816887415E+02  0.17754924095E+02  0.16387126337E+02  0.63594036547E+02  0.10000000000E+01 0.  0.
    9000005    1    3    3    0    0 -0.58816887415E+02 -0.17754924095E+02  0.41522979783E+02  0.74160780908E+02  0.10000000000E+01 0.  0.
<mgrwt>
<rscale>  0 0.12499124E+03</rscale>
<asrwt>0</asrwt>
<pdfrwt beam="1">  1        4 0.24458115E-01 0.12499124E+03</pdfrwt>
<pdfrwt beam="2">  1       -4 0.99805889E-02 0.12499124E+03</pdfrwt>
<totfact> 0.19159714E+03</totfact>
</mgrwt>
</event>
<event>
 5    1  0.1466870E-002  0.1249990E+03  0.7818608E-02  0.1235071E+00
         -4   -1    0    0    0  501 -0.00000000000E+00  0.00000000000E+00  0.58422852541E+03  0.58422990578E+03  0.12700000000E+01 0.  1.
          4   -1    0    0  501    0  0.00000000000E+00 -0.00000000000E+00 -0.66243534730E+01  0.67449951027E+01  0.12700000000E+01 0.  1.
         25    2    1    2    0    0  0.00000000000E+00  0.00000000000E+00  0.57760417194E+03  0.59097490088E+03  0.12499901611E+03 0.  0.
    9000005    1    3    3    0    0  0.32295383190E+02  0.42103058937E+02  0.44485858903E+03  0.44801319576E+03  0.10000000000E+01 0.  0.
    9000005    1    3    3    0    0 -0.32295383190E+02 -0.42103058937E+02  0.13274558291E+03  0.14296170512E+03  0.10000000000E+01 0.  0.
<mgrwt>
<rscale>  0 0.12499902E+03</rscale>
<asrwt>0</asrwt>
<pdfrwt beam="2">  1        4 0.16713413E-02 0.12499902E+03</pdfrwt>
<pdfrwt beam="1">  1       -4 0.14607237E+00 0.12499902E+03</pdfrwt>
<totfact> 0.74651964E+02</totfact>
</mgrwt>
</event>
<event>
 5    1  0.1466870E-002  0.1249960E+03  0.7818608E-02  0.1235075E+00
         -4   -1    0    0    0  501 -0.00000000000E+00  0.00000000000E+00  0.74340694608E+02  0.74351541845E+02  0.12700000000E+01 0. -1.
          4   -1    0    0  501    0  0.00000000000E+00 -0.00000000000E+00 -0.52519561035E+02  0.52534914022E+02  0.12700000000E+01 0. -1.
         25    2    1    2    0    0  0.00000000000E+00  0.00000000000E+00  0.21821133572E+02  0.12688645587E+03  0.12499604319E+03 0.  0.
    9000005    1    3    3    0    0  0.21782827201E+02 -0.50280900164E+02 -0.19582748273E+02  0.58199179651E+02  0.10000000000E+01 0.  0.
    9000005    1    3    3    0    0 -0.21782827201E+02  0.50280900164E+02  0.41403881846E+02  0.68687276216E+02  0.10000000000E+01 0.  0.
<mgrwt>
<rscale>  0 0.12499604E+03</rscale>
<asrwt>0</asrwt>
<pdfrwt beam="2">  1        4 0.13133165E-01 0.12499604E+03</pdfrwt>
<pdfrwt beam="1">  1       -4 0.18588449E-01 0.12499604E+03</pdfrwt>
<totfact> 0.19734919E+03</totfact>
</mgrwt>
</event>
<event>
 5    1  0.1466870E-002  0.1250013E+03  0.7818608E-02  0.1235067E+00
          4   -1    0    0  501    0  0.00000000000E+00  0.00000000000E+00  0.25899121984E+03  0.25899433364E+03  0.12700000000E+01 0.  1.
         -4   -1    0    0    0  501 -0.00000000000E+00 -0.00000000000E+00 -0.15052928553E+02  0.15106407846E+02  0.12700000000E+01 0.  1.
         25    2    1    2    0    0  0.00000000000E+00  0.00000000000E+00  0.24393829129E+03  0.27410074148E+03  0.12500130609E+03 0.  0.
    9000005    1    3    3    0    0  0.53902176558E+02  0.82029083552E+01  0.18893342497E+03  0.19664580192E+03  0.10000000000E+01 0.  0.
    9000005    1    3    3    0    0 -0.53902176558E+02 -0.82029083552E+01  0.55004866319E+02  0.77454939558E+02  0.10000000000E+01 0.  0.
<mgrwt>
<rscale>  0 0.12500131E+03</rscale>
<asrwt>0</asrwt>
<pdfrwt beam="1">  1        4 0.64754880E-01 0.12500131E+03</pdfrwt>
<pdfrwt beam="2">  1       -4 0.37703062E-02 0.12500131E+03</pdfrwt>
<totfact> 0.13728879E+03</totfact>
</mgrwt>
</event>
<event>
 5    1  0.1466870E-002  0.1249986E+03  0.7818608E-02  0.1235071E+00
          4   -1    0    0  501    0  0.00000000000E+00  0.00000000000E+00  0.19068276796E+03  0.19068699719E+03  0.12700000000E+01 0. -1.
         -4   -1    0    0    0  501 -0.00000000000E+00 -0.00000000000E+00 -0.20461001829E+02  0.20500377944E+02  0.12700000000E+01 0. -1.
         25    2    1    2    0    0  0.00000000000E+00  0.00000000000E+00  0.17022176613E+03  0.21118737513E+03  0.12499863099E+03 0.  0.
    9000005    1    3    3    0    0 -0.36290326139E+01  0.39988292929E+02  0.16601268367E+03  0.17080235533E+03  0.10000000000E+01 0.  0.
    9000005    1    3    3    0    0  0.36290326139E+01 -0.39988292929E+02  0.42090824659E+01  0.40385019801E+02  0.10000000000E+01 0.  0.
<mgrwt>
<rscale>  0 0.12499863E+03</rscale>
<asrwt>0</asrwt>
<pdfrwt beam="1">  1        4 0.47676143E-01 0.12499863E+03</pdfrwt>
<pdfrwt beam="2">  1       -4 0.51207011E-02 0.12499863E+03</pdfrwt>
<totfact> 0.15884173E+03</totfact>
</mgrwt>
</event>
<event>
 4    1  0.1466870E-002  0.1248172E+03  0.7818608E-02  0.1235355E+00
          4   -1    0    0  501    0  0.00000000000E+00  0.00000000000E+00  0.12748195088E+02  0.12811298842E+02  0.12700000000E+01 0.  1.
         -4   -1    0    0    0  501 -0.00000000000E+00 -0.00000000000E+00 -0.30470179177E+03  0.30470443844E+03  0.12700000000E+01 0.  1.
    9000005    1    1    2    0    0 -0.52046603853E+02 -0.20818490866E+02 -0.76237534118E+02  0.94633081652E+02  0.10000000000E+01 0.  0.
    9000005    1    1    2    0    0  0.52046603853E+02  0.20818490866E+02 -0.21571606256E+03  0.22288265563E+03  0.10000000000E+01 0.  0.
<mgrwt>
<rscale>  0 0.12481723E+03</rscale>
<asrwt>0</asrwt>
<pdfrwt beam="1">  1        4 0.31952686E-02 0.12481723E+03</pdfrwt>
<pdfrwt beam="2">  1       -4 0.76183643E-01 0.12481723E+03</pdfrwt>
<totfact> 0.12546364E+03</totfact>
</mgrwt>
</event>
<event>
 5    1  0.1466870E-002  0.1249879E+03  0.7818608E-02  0.1235088E+00
         -4   -1    0    0    0  501 -0.00000000000E+00  0.00000000000E+00  0.35671323937E+02  0.35693924573E+02  0.12700000000E+01 0. -1.
          4   -1    0    0  501    0  0.00000000000E+00 -0.00000000000E+00 -0.10942453242E+03  0.10943190210E+03  0.12700000000E+01 0. -1.
         25    2    1    2    0    0  0.00000000000E+00  0.00000000000E+00 -0.73753208487E+02  0.14512582667E+03  0.12498787863E+03 0.  0.
    9000005    1    3    3    0    0 -0.27644644691E+02 -0.53383820818E+02 -0.17088675054E+02  0.62506651809E+02  0.10000000000E+01 0.  0.
    9000005    1    3    3    0    0  0.27644644691E+02  0.53383820818E+02 -0.56664533433E+02  0.82619174860E+02  0.10000000000E+01 0.  0.
<mgrwt>
<rscale>  0 0.12498788E+03</rscale>
<asrwt>0</asrwt>
<pdfrwt beam="2">  1        4 0.27359879E-01 0.12498788E+03</pdfrwt>
<pdfrwt beam="1">  1       -4 0.89215775E-02 0.12498788E+03</pdfrwt>
<totfact> 0.18786353E+03</totfact>
</mgrwt>
</event>
<event>
 5    1  0.1466870E-002  0.1249994E+03  0.7818608E-02  0.1235070E+00
          4   -1    0    0  501    0  0.00000000000E+00  0.00000000000E+00  0.38309602516E+02  0.38330647593E+02  0.12700000000E+01 0. -1.
         -4   -1    0    0    0  501 -0.00000000000E+00 -0.00000000000E+00 -0.10191136048E+03  0.10191927342E+03  0.12700000000E+01 0. -1.
         25    2    1    2    0    0  0.00000000000E+00  0.00000000000E+00 -0.63601757962E+02  0.14024992101E+03  0.12499942691E+03 0.  0.
    9000005    1    3    3    0    0  0.36140365280E+02  0.12207371778E+02  0.23736284533E+02  0.44939482994E+02  0.10000000000E+01 0.  0.
    9000005    1    3    3    0    0 -0.36140365280E+02 -0.12207371778E+02 -0.87338042495E+02  0.95310438019E+02  0.10000000000E+01 0.  0.
<mgrwt>
<rscale>  0 0.12499943E+03</rscale>
<asrwt>0</asrwt>
<pdfrwt beam="1">  1        4 0.95810206E-02 0.12499943E+03</pdfrwt>
<pdfrwt beam="2">  1       -4 0.25481459E-01 0.12499943E+03</pdfrwt>
<totfact> 0.19027818E+03</totfact>
</mgrwt>
</event>
<event>
 4    1  0.1466870E-002  0.1249324E+03  0.7818608E-02  0.1235175E+00
         -4   -1    0    0    0  501 -0.00000000000E+00  0.00000000000E+00  0.24685794613E+03  0.24686121297E+03  0.12700000000E+01 0. -1.
          4   -1    0    0  501    0  0.00000000000E+00 -0.00000000000E+00 -0.15777872694E+02  0.15828902891E+02  0.12700000000E+01 0. -1.
    9000005    1    1    2    0    0 -0.57505744370E+02  0.59594938436E+01  0.65844380436E+02  0.87629382272E+02  0.10000000000E+01 0.  0.
    9000005    1    1    2    0    0  0.57505744370E+02 -0.59594938436E+01  0.16523569300E+03  0.17506073359E+03  0.10000000000E+01 0.  0.
<mgrwt>
<rscale>  0 0.12493237E+03</rscale>
<asrwt>0</asrwt>
<pdfrwt beam="2">  1        4 0.39512554E-02 0.12493237E+03</pdfrwt>
<pdfrwt beam="1">  1       -4 0.61721273E-01 0.12493237E+03</pdfrwt>
<totfact> 0.14107084E+03</totfact>
</mgrwt>
</event>
<event>
 5    1  0.1466870E-002  0.1250019E+03  0.7818608E-02  0.1235066E+00
          4   -1    0    0  501    0  0.00000000000E+00  0.00000000000E+00  0.32644327414E+02  0.32669022212E+02  0.12700000000E+01 0. -1.
         -4   -1    0    0    0  501 -0.00000000000E+00 -0.00000000000E+00 -0.11959128050E+03  0.11959802369E+03  0.12700000000E+01 0. -1.
         25    2    1    2    0    0  0.00000000000E+00  0.00000000000E+00 -0.86946953083E+02  0.15226704590E+03  0.12500192246E+03 0.  0.
    9000005    1    3    3    0    0  0.59836325521E+02 -0.12481435151E+02 -0.59318283192E+02  0.85181164562E+02  0.10000000000E+01 0.  0.
    9000005    1    3    3    0    0 -0.59836325521E+02  0.12481435151E+02 -0.27628669891E+02  0.67085881341E+02  0.10000000000E+01 0.  0.
<mgrwt>
<rscale>  0 0.12500192E+03</rscale>
<asrwt>0</asrwt>
<pdfrwt beam="1">  1        4 0.81650119E-02 0.12500192E+03</pdfrwt>
<pdfrwt beam="2">  1       -4 0.29901749E-01 0.12500192E+03</pdfrwt>
<totfact> 0.18427045E+03</totfact>
</mgrwt>
</event>
<event>
 5    1  0.1466870E-002  0.1250146E+03  0.7818608E-02  0.1235047E+00
          4   -1    0    0  501    0  0.00000000000E+00  0.00000000000E+00  0.11450960801E+02  0.11521171957E+02  0.12700000000E+01 0. -1.
         -4   -1    0    0    0  501 -0.00000000000E+00 -0.00000000000E+00 -0.34009389439E+03  0.34009626564E+03  0.12700000000E+01 0. -1.
         25    2    1    2    0    0  0.00000000000E+00  0.00000000000E+00 -0.32864293359E+03  0.35161743760E+03  0.12501457765E+03 0.  0.
    9000005    1    3    3    0    0 -0.22345721105E+02 -0.26398117989E+02 -0.17904323272E+02  0.38958396744E+02  0.10000000000E+01 0.  0.
    9000005    1    3    3    0    0  0.22345721105E+02  0.26398117989E+02 -0.31073861032E+03  0.31265904086E+03  0.10000000000E+01 0.  0.
<mgrwt>
<rscale>  0 0.12501458E+03</rscale>
<asrwt>0</asrwt>
<pdfrwt beam="1">  1        4 0.28718141E-02 0.12501458E+03</pdfrwt>
<pdfrwt beam="2">  1       -4 0.85032513E-01 0.12501458E+03</pdfrwt>
<totfact> 0.11634967E+03</totfact>
</mgrwt>
</event>
<event>
 5    1  0.1466870E-002  0.1250000E+03  0.7818608E-02  0.1235069E+00
         -4   -1    0    0    0  501 -0.00000000000E+00  0.00000000000E+00  0.39645715064E+01  0.41630190042E+01  0.12700000000E+01 0.  1.
          4   -1    0    0  501    0  0.00000000000E+00 -0.00000000000E+00 -0.96103261556E+03  0.96103345470E+03  0.12700000000E+01 0.  1.
         25    2    1    2    0    0  0.00000000000E+00  0.00000000000E+00 -0.95706804405E+03  0.96519647371E+03  0.12499996768E+03 0.  0.
    9000005    1    3    3    0    0 -0.57760401034E+02  0.23099155471E+02 -0.43258380063E+03  0.43703498656E+03  0.10000000000E+01 0.  0.
    9000005    1    3    3    0    0  0.57760401034E+02 -0.23099155471E+02 -0.52448424342E+03  0.52816148714E+03  0.10000000000E+01 0.  0.
<mgrwt>
<rscale>  0 0.12499997E+03</rscale>
<asrwt>0</asrwt>
<pdfrwt beam="2">  1        4 0.24028229E+00 0.12499997E+03</pdfrwt>
<pdfrwt beam="1">  1       -4 0.10160570E-02 0.12499997E+03</pdfrwt>
<totfact> 0.39499953E+02</totfact>
</mgrwt>
</event>
<event>
 5    1  0.1466870E-002  0.1249901E+03  0.7818608E-02  0.1235085E+00
          4   -1    0    0  501    0  0.00000000000E+00  0.00000000000E+00  0.46578055260E+03  0.46578228400E+03  0.12700000000E+01 0. -1.
         -4   -1    0    0    0  501 -0.00000000000E+00 -0.00000000000E+00 -0.83352855443E+01  0.84314817859E+01  0.12700000000E+01 0. -1.
         25    2    1    2    0    0  0.00000000000E+00  0.00000000000E+00  0.45744526706E+03  0.47421376578E+03  0.12499009281E+03 0.  0.
    9000005    1    3    3    0    0  0.17513667491E+02 -0.24289613641E+02  0.20642083858E+02  0.36384193077E+02  0.10000000000E+01 0.  0.
    9000005    1    3    3    0    0 -0.17513667491E+02  0.24289613641E+02  0.43680318320E+03  0.43782957270E+03  0.10000000000E+01 0.  0.
<mgrwt>
<rscale>  0 0.12499009E+03</rscale>
<asrwt>0</asrwt>
<pdfrwt beam="1">  1        4 0.11645737E+00 0.12499009E+03</pdfrwt>
<pdfrwt beam="2">  1       -4 0.20960625E-02 0.12499009E+03</pdfrwt>
<totfact> 0.91846891E+02</totfact>
</mgrwt>
</event>
<event>
 5    1  0.1466870E-002  0.1250084E+03  0.7818608E-02  0.1235056E+00
          4   -1    0    0  501    0  0.00000000000E+00  0.00000000000E+00  0.42708388085E+03  0.42708576911E+03  0.12700000000E+01 0. -1.
         -4   -1    0    0    0  501 -0.00000000000E+00 -0.00000000000E+00 -0.91015576732E+01  0.91897362356E+01  0.12700000000E+01 0. -1.
         25    2    1    2    0    0  0.00000000000E+00  0.00000000000E+00  0.41798232317E+03  0.43627550535E+03  0.12500837605E+03 0.  0.
    9000005    1    3    3    0    0  0.11901374953E+02 -0.33163878829E+02  0.28850274955E+02  0.45550235452E+02  0.10000000000E+01 0.  0.
    9000005    1    3    3    0    0 -0.11901374953E+02  0.33163878829E+02  0.38913204822E+03  0.39072526990E+03  0.10000000000E+01 0.  0.
<mgrwt>
<rscale>  0 0.12500838E+03</rscale>
<asrwt>0</asrwt>
<pdfrwt beam="1">  1        4 0.10678223E+00 0.12500838E+03</pdfrwt>
<pdfrwt beam="2">  1       -4 0.22866478E-02 0.12500838E+03</pdfrwt>
<totfact> 0.98515519E+02</totfact>
</mgrwt>
</event>
<event>
 5    1  0.1466870E-002  0.1250044E+03  0.7818608E-02  0.1235062E+00
         -4   -1    0    0    0  501 -0.00000000000E+00  0.00000000000E+00  0.90731645230E+01  0.91616163673E+01  0.12700000000E+01 0. -1.
          4   -1    0    0  501    0  0.00000000000E+00 -0.00000000000E+00 -0.42838035976E+03  0.42838224231E+03  0.12700000000E+01 0. -1.
         25    2    1    2    0    0  0.00000000000E+00  0.00000000000E+00 -0.41930719524E+03  0.43754385868E+03  0.12500441708E+03 0.  0.
    9000005    1    3    3    0    0 -0.67446895694E+01 -0.51425173478E+02 -0.87622265839E+02  0.10182681757E+03  0.10000000000E+01 0.  0.
    9000005    1    3    3    0    0  0.67446895694E+01  0.51425173478E+02 -0.33168492940E+03  0.33571704111E+03  0.10000000000E+01 0.  0.
<mgrwt>
<rscale>  0 0.12500442E+03</rscale>
<asrwt>0</asrwt>
<pdfrwt beam="2">  1        4 0.10710631E+00 0.12500442E+03</pdfrwt>
<pdfrwt beam="1">  1       -4 0.22795844E-02 0.12500442E+03</pdfrwt>
<totfact> 0.98287292E+02</totfact>
</mgrwt>
</event>
<event>
 5    1  0.1466870E-002  0.1249983E+03  0.7818608E-02  0.1235072E+00
         -4   -1    0    0    0  501 -0.00000000000E+00  0.00000000000E+00  0.10858826362E+03  0.10859569004E+03  0.12700000000E+01 0.  1.
          4   -1    0    0  501    0  0.00000000000E+00 -0.00000000000E+00 -0.35952220040E+02  0.35974644207E+02  0.12700000000E+01 0.  1.
         25    2    1    2    0    0  0.00000000000E+00  0.00000000000E+00  0.72636043581E+02  0.14457033425E+03  0.12499834686E+03 0.  0.
    9000005    1    3    3    0    0  0.24013216856E+02 -0.31472811222E+02 -0.19605534016E+02  0.44187661107E+02  0.10000000000E+01 0.  0.
    9000005    1    3    3    0    0 -0.24013216856E+02  0.31472811222E+02  0.92241577597E+02  0.10038267314E+03  0.10000000000E+01 0.  0.
<mgrwt>
<rscale>  0 0.12499835E+03</rscale>
<asrwt>0</asrwt>
<pdfrwt beam="2">  1        4 0.89917864E-02 0.12499835E+03</pdfrwt>
<pdfrwt beam="1">  1       -4 0.27150797E-01 0.12499835E+03</pdfrwt>
<totfact> 0.18809645E+03</totfact>
</mgrwt>
</event>
<event>
 5    1  0.1466870E-002  0.1250029E+03  0.7818608E-02  0.1235065E+00
          4   -1    0    0  501    0  0.00000000000E+00  0.00000000000E+00  0.40763643954E+03  0.40763841789E+03  0.12700000000E+01 0. -1.
         -4   -1    0    0    0  501 -0.00000000000E+00 -0.00000000000E+00 -0.95390380688E+01  0.96232087829E+01  0.12700000000E+01 0. -1.
         25    2    1    2    0    0  0.00000000000E+00  0.00000000000E+00  0.39809740147E+03  0.41726162667E+03  0.12500289611E+03 0.  0.
    9000005    1    3    3    0    0 -0.60476145660E+02 -0.13267218816E+02  0.22738208770E+03  0.23566288867E+03  0.10000000000E+01 0.  0.
    9000005    1    3    3    0    0  0.60476145660E+02  0.13267218816E+02  0.17071531377E+03  0.18159873800E+03  0.10000000000E+01 0.  0.
<mgrwt>
<rscale>  0 0.12500290E+03</rscale>
<asrwt>0</asrwt>
<pdfrwt beam="1">  1        4 0.10191987E+00 0.12500290E+03</pdfrwt>
<pdfrwt beam="2">  1       -4 0.23955283E-02 0.12500290E+03</pdfrwt>
<totfact> 0.10219600E+03</totfact>
</mgrwt>
</event>
<event>
 5    1  0.1466870E-002  0.1249975E+03  0.7818608E-02  0.1235073E+00
          4   -1    0    0  501    0  0.00000000000E+00  0.00000000000E+00  0.27026387458E+02  0.27056210359E+02  0.12700000000E+01 0. -1.
         -4   -1    0    0    0  501 -0.00000000000E+00 -0.00000000000E+00 -0.14441658430E+03  0.14442216838E+03  0.12700000000E+01 0. -1.
         25    2    1    2    0    0  0.00000000000E+00  0.00000000000E+00 -0.11739019684E+03  0.17147837874E+03  0.12499750422E+03 0.  0.
    9000005    1    3    3    0    0  0.44432202033E+02 -0.31763572869E+02 -0.10034955248E+03  0.11425488095E+03  0.10000000000E+01 0.  0.
    9000005    1    3    3    0    0 -0.44432202033E+02  0.31763572869E+02 -0.17040644361E+02  0.57223497788E+02  0.10000000000E+01 0.  0.
<mgrwt>
<rscale>  0 0.12499750E+03</rscale>
<asrwt>0</asrwt>
<pdfrwt beam="1">  1        4 0.67610231E-02 0.12499750E+03</pdfrwt>
<pdfrwt beam="2">  1       -4 0.36108570E-01 0.12499750E+03</pdfrwt>
<totfact> 0.17531587E+03</totfact>
</mgrwt>
</event>
<event>
 5    1  0.1466870E-002  0.1249977E+03  0.7818608E-02  0.1235073E+00
         -4   -1    0    0    0  501 -0.00000000000E+00  0.00000000000E+00  0.28437102385E+01  0.31144161444E+01  0.12700000000E+01 0. -1.
          4   -1    0    0  501    0  0.00000000000E+00 -0.00000000000E+00 -0.13109157474E+04  0.13109163626E+04  0.12700000000E+01 0. -1.
         25    2    1    2    0    0  0.00000000000E+00  0.00000000000E+00 -0.13080720372E+04  0.13140307788E+04  0.12499773211E+03 0.  0.
    9000005    1    3    3    0    0 -0.60104198061E+02  0.15475557439E+02 -0.73064042563E+03  0.73327241805E+03  0.10000000000E+01 0.  0.
    9000005    1    3    3    0    0  0.60104198061E+02 -0.15475557439E+02 -0.57743161157E+03  0.58075836071E+03  0.10000000000E+01 0.  0.
<mgrwt>
<rscale>  0 0.12499773E+03</rscale>
<asrwt>0</asrwt>
<pdfrwt beam="2">  1        4 0.32776087E+00 0.12499773E+03</pdfrwt>
<pdfrwt beam="1">  1       -4 0.74484719E-03 0.12499773E+03</pdfrwt>
<totfact> 0.19685194E+02</totfact>
</mgrwt>
</event>
<event>
 5    1  0.1466870E-002  0.1249926E+03  0.7818608E-02  0.1235081E+00
         -4   -1    0    0    0  501 -0.00000000000E+00  0.00000000000E+00  0.18840713268E+02  0.18883468338E+02  0.12700000000E+01 0. -1.
          4   -1    0    0  501    0  0.00000000000E+00 -0.00000000000E+00 -0.20702592625E+03  0.20702982162E+03  0.12700000000E+01 0. -1.
         25    2    1    2    0    0  0.00000000000E+00  0.00000000000E+00 -0.18818521298E+03  0.22591328996E+03  0.12499256055E+03 0.  0.
    9000005    1    3    3    0    0 -0.20099315462E+01  0.38625583154E+02 -0.18279980163E+03  0.18684951960E+03  0.10000000000E+01 0.  0.
    9000005    1    3    3    0    0  0.20099315462E+01 -0.38625583154E+02 -0.53854113483E+01  0.39063770353E+02  0.10000000000E+01 0.  0.
<mgrwt>
<rscale>  0 0.12499256E+03</rscale>
<asrwt>0</asrwt>
<pdfrwt beam="2">  1        4 0.51762306E-01 0.12499256E+03</pdfrwt>
<pdfrwt beam="1">  1       -4 0.47160103E-02 0.12499256E+03</pdfrwt>
<totfact> 0.15337078E+03</totfact>
</mgrwt>
</event>
<event>
 5    1  0.1466870E-002  0.1250019E+03  0.7818608E-02  0.1235066E+00
         -4   -1    0    0    0  501 -0.00000000000E+00  0.00000000000E+00  0.99711487520E+03  0.99711568398E+03  0.12700000000E+01 0. -1.
          4   -1    0    0  501    0  0.00000000000E+00 -0.00000000000E+00 -0.38139137083E+01  0.40198056886E+01  0.12700000000E+01 0. -1.
         25    2    1    2    0    0  0.00000000000E+00  0.00000000000E+00  0.99330096149E+03  0.10011354897E+04  0.12500187431E+03 0.  0.
    9000005    1    3    3    0    0 -0.15620638233E+02 -0.18393571763E+02  0.95833368182E+03  0.95863797835E+03  0.10000000000E+01 0.  0.
    9000005    1    3    3    0    0  0.15620638233E+02  0.18393571763E+02  0.34967279667E+02  0.42497511319E+02  0.10000000000E+01 0.  0.
<mgrwt>
<rscale>  0 0.12500187E+03</rscale>
<asrwt>0</asrwt>
<pdfrwt beam="2">  1        4 0.97931631E-03 0.12500187E+03</pdfrwt>
<pdfrwt beam="1">  1       -4 0.24930448E+00 0.12500187E+03</pdfrwt>
<totfact> 0.37031446E+02</totfact>
</mgrwt>
</event>
<event>
 5    1  0.1466870E-002  0.1249969E+03  0.7818608E-02  0.1235074E+00
          4   -1    0    0  501    0  0.00000000000E+00  0.00000000000E+00  0.11075314074E+02  0.11147891363E+02  0.12700000000E+01 0. -1.
         -4   -1    0    0    0  501 -0.00000000000E+00 -0.00000000000E+00 -0.35145558759E+03  0.35145788218E+03  0.12700000000E+01 0. -1.
         25    2    1    2    0    0  0.00000000000E+00  0.00000000000E+00 -0.34038027351E+03  0.36260577354E+03  0.12499686560E+03 0.  0.
    9000005    1    3    3    0    0 -0.16301405531E+02  0.17614486046E+01 -0.34511856886E+03  0.34550928366E+03  0.10000000000E+01 0.  0.
    9000005    1    3    3    0    0  0.16301405531E+02 -0.17614486046E+01  0.47382953471E+01  0.17096489882E+02  0.10000000000E+01 0.  0.
<mgrwt>
<rscale>  0 0.12499687E+03</rscale>
<asrwt>0</asrwt>
<pdfrwt beam="1">  1        4 0.27781887E-02 0.12499687E+03</pdfrwt>
<pdfrwt beam="2">  1       -4 0.87873219E-01 0.12499687E+03</pdfrwt>
<totfact> 0.11383154E+03</totfact>
</mgrwt>
</event>
<event>
 5    1  0.1466870E-002  0.1249826E+03  0.7818608E-02  0.1235096E+00
          4   -1    0    0  501    0  0.00000000000E+00  0.00000000000E+00  0.19379712170E+02  0.19421280693E+02  0.12700000000E+01 0.  1.
         -4   -1    0    0    0  501 -0.00000000000E+00 -0.00000000000E+00 -0.20124834030E+03  0.20125234750E+03  0.12700000000E+01 0.  1.
         25    2    1    2    0    0  0.00000000000E+00  0.00000000000E+00 -0.18186862813E+03  0.22067362820E+03  0.12498260792E+03 0.  0.
    9000005    1    3    3    0    0  0.38414419633E+02 -0.37605944614E+00 -0.39267814526E+01  0.38629375727E+02  0.10000000000E+01 0.  0.
    9000005    1    3    3    0    0 -0.38414419633E+02  0.37605944614E+00 -0.17794184668E+03  0.18204425247E+03  0.10000000000E+01 0.  0.
<mgrwt>
<rscale>  0 0.12498261E+03</rscale>
<asrwt>0</asrwt>
<pdfrwt beam="1">  1        4 0.48506256E-02 0.12498261E+03</pdfrwt>
<pdfrwt beam="2">  1       -4 0.50317776E-01 0.12498261E+03</pdfrwt>
<totfact> 0.15532622E+03</totfact>
</mgrwt>
</event>
<event>
 5    1  0.1466870E-002  0.1250057E+03  0.7818608E-02  0.1235060E+00
         -4   -1    0    0    0  501 -0.00000000000E+00  0.00000000000E+00  0.16201293936E+02  0.16250994591E+02  0.12700000000E+01 0.  1.
          4   -1    0    0  501    0  0.00000000000E+00 -0.00000000000E+00 -0.24070859937E+03  0.24071194967E+03  0.12700000000E+01 0.  1.
         25    2    1    2    0    0  0.00000000000E+00  0.00000000000E+00 -0.22450730544E+03  0.25696294426E+03  0.12500569798E+03 0.  0.
    9000005    1    3    3    0    0  0.43248334885E+02 -0.39692388400E+02 -0.15632728767E+03  0.16698839792E+03  0.10000000000E+01 0.  0.
    9000005    1    3    3    0    0 -0.43248334885E+02  0.39692388400E+02 -0.68180017765E+02  0.89974546343E+02  0.10000000000E+01 0.  0.
<mgrwt>
<rscale>  0 0.12500570E+03</rscale>
<asrwt>0</asrwt>
<pdfrwt beam="2">  1        4 0.60183770E-01 0.12500570E+03</pdfrwt>
<pdfrwt beam="1">  1       -4 0.40569556E-02 0.12500570E+03</pdfrwt>
<totfact> 0.14267329E+03</totfact>
</mgrwt>
</event>
<event>
 5    1  0.1466870E-002  0.1249930E+03  0.7818608E-02  0.1235080E+00
          4   -1    0    0  501    0  0.00000000000E+00  0.00000000000E+00  0.72922662799E+02  0.72933720937E+02  0.12700000000E+01 0. -1.
         -4   -1    0    0    0  501 -0.00000000000E+00 -0.00000000000E+00 -0.53538367460E+02  0.53553428371E+02  0.12700000000E+01 0. -1.
         25    2    1    2    0    0  0.00000000000E+00  0.00000000000E+00  0.19384295339E+02  0.12648714931E+03  0.12499299194E+03 0.  0.
    9000005    1    3    3    0    0 -0.32268813683E+02  0.52249830355E+02 -0.19997921523E+01  0.61451771962E+02  0.10000000000E+01 0.  0.
    9000005    1    3    3    0    0  0.32268813683E+02 -0.52249830355E+02  0.21384087491E+02  0.65035377346E+02  0.10000000000E+01 0.  0.
<mgrwt>
<rscale>  0 0.12499299E+03</rscale>
<asrwt>0</asrwt>
<pdfrwt beam="1">  1        4 0.18233930E-01 0.12499299E+03</pdfrwt>
<pdfrwt beam="2">  1       -4 0.13387857E-01 0.12499299E+03</pdfrwt>
<totfact> 0.19757856E+03</totfact>
</mgrwt>
</event>
<event>
 5    1  0.1466870E-002  0.1249990E+03  0.7818608E-02  0.1235071E+00
          4   -1    0    0  501    0  0.00000000000E+00  0.00000000000E+00  0.25709117874E+03  0.25709431555E+03  0.12700000000E+01 0. -1.
         -4   -1    0    0    0  501 -0.00000000000E+00 -0.00000000000E+00 -0.15164013018E+02  0.15217101919E+02  0.12700000000E+01 0. -1.
         25    2    1    2    0    0  0.00000000000E+00  0.00000000000E+00  0.24192716573E+03  0.27231141747E+03  0.12499901827E+03 0.  0.
    9000005    1    3    3    0    0 -0.96428630173E+01 -0.48093547445E+02  0.20531475849E+03  0.21109505955E+03  0.10000000000E+01 0.  0.
    9000005    1    3    3    0    0  0.96428630173E+01  0.48093547445E+02  0.36612407236E+02  0.61216357917E+02  0.10000000000E+01 0.  0.
<mgrwt>
<rscale>  0 0.12499902E+03</rscale>
<asrwt>0</asrwt>
<pdfrwt beam="1">  1        4 0.64279820E-01 0.12499902E+03</pdfrwt>
<pdfrwt beam="2">  1       -4 0.37980316E-02 0.12499902E+03</pdfrwt>
<totfact> 0.13784485E+03</totfact>
</mgrwt>
</event>
<event>
 5    1  0.1466870E-002  0.1250017E+03  0.7818608E-02  0.1235067E+00
          4   -1    0    0  501    0  0.00000000000E+00  0.00000000000E+00  0.19670314054E+03  0.19670724033E+03  0.12700000000E+01 0.  1.
         -4   -1    0    0    0  501 -0.00000000000E+00 -0.00000000000E+00 -0.19834521107E+02  0.19875138428E+02  0.12700000000E+01 0.  1.
         25    2    1    2    0    0  0.00000000000E+00  0.00000000000E+00  0.17686861943E+03  0.21658237876E+03  0.12500167298E+03 0.  0.
    9000005    1    3    3    0    0  0.18640046563E+02  0.59520838603E+02  0.81685254244E+02  0.10277967856E+03  0.10000000000E+01 0.  0.
    9000005    1    3    3    0    0 -0.18640046563E+02 -0.59520838603E+02  0.95183365191E+02  0.11380270020E+03  0.10000000000E+01 0.  0.
<mgrwt>
<rscale>  0 0.12500167E+03</rscale>
<asrwt>0</asrwt>
<pdfrwt beam="1">  1        4 0.49181374E-01 0.12500167E+03</pdfrwt>
<pdfrwt beam="2">  1       -4 0.49642200E-02 0.12500167E+03</pdfrwt>
<totfact> 0.15678301E+03</totfact>
</mgrwt>
</event>
<event>
 5    1  0.1466870E-002  0.1249846E+03  0.7818608E-02  0.1235093E+00
          4   -1    0    0  501    0  0.00000000000E+00  0.00000000000E+00  0.96733800207E+03  0.96733883575E+03  0.12700000000E+01 0. -1.
         -4   -1    0    0    0  501 -0.00000000000E+00 -0.00000000000E+00 -0.39364129521E+01  0.41362116640E+01  0.12700000000E+01 0. -1.
         25    2    1    2    0    0  0.00000000000E+00  0.00000000000E+00  0.96340158912E+03  0.97147504741E+03  0.12498458238E+03 0.  0.
    9000005    1    3    3    0    0  0.13123486746E+02  0.28583525686E+02  0.62040713082E+02  0.69565033780E+02  0.10000000000E+01 0.  0.
    9000005    1    3    3    0    0 -0.13123486746E+02 -0.28583525686E+02  0.90136087604E+03  0.90191001363E+03  0.10000000000E+01 0.  0.
<mgrwt>
<rscale>  0 0.12498458E+03</rscale>
<asrwt>0</asrwt>
<pdfrwt beam="1">  1        4 0.24185954E+00 0.12498458E+03</pdfrwt>
<pdfrwt beam="2">  1       -4 0.10091825E-02 0.12498458E+03</pdfrwt>
<totfact> 0.39074444E+02</totfact>
</mgrwt>
</event>
<event>
 5    1  0.1466870E-002  0.1249923E+03  0.7818608E-02  0.1235081E+00
         -4   -1    0    0    0  501 -0.00000000000E+00  0.00000000000E+00  0.88448102088E+02  0.88457219394E+02  0.12700000000E+01 0. -1.
          4   -1    0    0  501    0  0.00000000000E+00 -0.00000000000E+00 -0.44138377845E+02  0.44156645013E+02  0.12700000000E+01 0. -1.
         25    2    1    2    0    0  0.00000000000E+00  0.00000000000E+00  0.44309724243E+02  0.13261386441E+03  0.12499234125E+03 0.  0.
    9000005    1    3    3    0    0  0.57471392712E+02  0.12435162985E+02 -0.28113096545E+00  0.58810486253E+02  0.10000000000E+01 0.  0.
    9000005    1    3    3    0    0 -0.57471392712E+02 -0.12435162985E+02  0.44590855208E+02  0.73803378154E+02  0.10000000000E+01 0.  0.
<mgrwt>
<rscale>  0 0.12499234E+03</rscale>
<asrwt>0</asrwt>
<pdfrwt beam="2">  1        4 0.11038018E-01 0.12499234E+03</pdfrwt>
<pdfrwt beam="1">  1       -4 0.22115448E-01 0.12499234E+03</pdfrwt>
<totfact> 0.19428335E+03</totfact>
</mgrwt>
</event>
<event>
 5    1  0.1466870E-002  0.1249973E+03  0.7818608E-02  0.1235073E+00
         -4   -1    0    0    0  501 -0.00000000000E+00  0.00000000000E+00  0.74100997063E+02  0.74111879383E+02  0.12700000000E+01 0. -1.
          4   -1    0    0  501    0  0.00000000000E+00 -0.00000000000E+00 -0.52690560793E+02  0.52705863968E+02  0.12700000000E+01 0. -1.
         25    2    1    2    0    0  0.00000000000E+00  0.00000000000E+00  0.21410436270E+02  0.12681774335E+03  0.12499733296E+03 0.  0.
    9000005    1    3    3    0    0  0.38812046818E+02 -0.48545258778E+02  0.17285520224E+02  0.64519813527E+02  0.10000000000E+01 0.  0.
    9000005    1    3    3    0    0 -0.38812046818E+02  0.48545258778E+02  0.41249160457E+01  0.62297929825E+02  0.10000000000E+01 0.  0.
<mgrwt>
<rscale>  0 0.12499733E+03</rscale>
<asrwt>0</asrwt>
<pdfrwt beam="2">  1        4 0.13175913E-01 0.12499733E+03</pdfrwt>
<pdfrwt beam="1">  1       -4 0.18528522E-01 0.12499733E+03</pdfrwt>
<totfact> 0.19738026E+03</totfact>
</mgrwt>
</event>
<event>
 5    1  0.1466870E-002  0.1249994E+03  0.7818608E-02  0.1235070E+00
         -4   -1    0    0    0  501 -0.00000000000E+00  0.00000000000E+00  0.84562331229E+02  0.84571867443E+02  0.12700000000E+01 0. -1.
          4   -1    0    0  501    0  0.00000000000E+00 -0.00000000000E+00 -0.46172451323E+02  0.46189914063E+02  0.12700000000E+01 0. -1.
         25    2    1    2    0    0  0.00000000000E+00  0.00000000000E+00  0.38389879906E+02  0.13076178151E+03  0.12499944249E+03 0.  0.
    9000005    1    3    3    0    0 -0.39904506709E+02  0.37922222770E+02 -0.11744671652E+02  0.56297441751E+02  0.10000000000E+01 0.  0.
    9000005    1    3    3    0    0  0.39904506709E+02 -0.37922222770E+02  0.50134551557E+02  0.74464339756E+02  0.10000000000E+01 0.  0.
<mgrwt>
<rscale>  0 0.12499944E+03</rscale>
<asrwt>0</asrwt>
<pdfrwt beam="2">  1        4 0.11546488E-01 0.12499944E+03</pdfrwt>
<pdfrwt beam="1">  1       -4 0.21143957E-01 0.12499944E+03</pdfrwt>
<totfact> 0.19523771E+03</totfact>
</mgrwt>
</event>
<event>
 5    1  0.1466870E-002  0.1249993E+03  0.7818608E-02  0.1235070E+00
         -4   -1    0    0    0  501 -0.00000000000E+00  0.00000000000E+00  0.11628473081E+03  0.11629166573E+03  0.12700000000E+01 0. -1.
          4   -1    0    0  501    0  0.00000000000E+00 -0.00000000000E+00 -0.33571787586E+02  0.33595800656E+02  0.12700000000E+01 0. -1.
         25    2    1    2    0    0  0.00000000000E+00  0.00000000000E+00  0.82712943219E+02  0.14988746639E+03  0.12499928641E+03 0.  0.
    9000005    1    3    3    0    0 -0.30970710581E+02  0.26858211858E+02  0.97913855099E+02  0.10615399888E+03  0.10000000000E+01 0.  0.
    9000005    1    3    3    0    0  0.30970710581E+02 -0.26858211858E+02 -0.15200911879E+02  0.43733467506E+02  0.10000000000E+01 0.  0.
<mgrwt>
<rscale>  0 0.12499929E+03</rscale>
<asrwt>0</asrwt>
<pdfrwt beam="2">  1        4 0.83968154E-02 0.12499929E+03</pdfrwt>
<pdfrwt beam="1">  1       -4 0.29075051E-01 0.12499929E+03</pdfrwt>
<totfact> 0.18544623E+03</totfact>
</mgrwt>
</event>
<event>
 5    1  0.1466870E-002  0.1250013E+03  0.7818608E-02  0.1235067E+00
          4   -1    0    0  501    0  0.00000000000E+00  0.00000000000E+00  0.68102707909E+01  0.69276755298E+01  0.12700000000E+01 0.  1.
         -4   -1    0    0    0  501 -0.00000000000E+00 -0.00000000000E+00 -0.56857384024E+03  0.56857525861E+03  0.12700000000E+01 0.  1.
         25    2    1    2    0    0  0.00000000000E+00  0.00000000000E+00 -0.56176356944E+03  0.57550293414E+03  0.12500127697E+03 0.  0.
    9000005    1    3    3    0    0  0.51154115036E+02  0.30480386009E+02 -0.19358422449E+03  0.20253801961E+03  0.10000000000E+01 0.  0.
    9000005    1    3    3    0    0 -0.51154115036E+02 -0.30480386009E+02 -0.36817934495E+03  0.37296491452E+03  0.10000000000E+01 0.  0.
<mgrwt>
<rscale>  0 0.12500128E+03</rscale>
<asrwt>0</asrwt>
<pdfrwt beam="1">  1        4 0.17174225E-02 0.12500128E+03</pdfrwt>
<pdfrwt beam="2">  1       -4 0.14215815E+00 0.12500128E+03</pdfrwt>
<totfact> 0.76672155E+02</totfact>
</mgrwt>
</event>
<event>
 5    1  0.1466870E-002  0.1250025E+03  0.7818608E-02  0.1235065E+00
         -4   -1    0    0    0  501 -0.00000000000E+00  0.00000000000E+00  0.12017664468E+03  0.12018335503E+03  0.12700000000E+01 0. -1.
          4   -1    0    0  501    0  0.00000000000E+00 -0.00000000000E+00 -0.32485516940E+02  0.32510332371E+02  0.12700000000E+01 0. -1.
         25    2    1    2    0    0  0.00000000000E+00  0.00000000000E+00  0.87691127735E+02  0.15269368740E+03  0.12500251312E+03 0.  0.
    9000005    1    3    3    0    0  0.10237620848E+02 -0.60436826858E+02  0.58705461239E+02  0.84880799363E+02  0.10000000000E+01 0.  0.
    9000005    1    3    3    0    0 -0.10237620848E+02  0.60436826858E+02  0.28985666496E+02  0.67812888034E+02  0.10000000000E+01 0.  0.
<mgrwt>
<rscale>  0 0.12500251E+03</rscale>
<asrwt>0</asrwt>
<pdfrwt beam="2">  1        4 0.81253200E-02 0.12500251E+03</pdfrwt>
<pdfrwt beam="1">  1       -4 0.30048102E-01 0.12500251E+03</pdfrwt>
<totfact> 0.18406044E+03</totfact>
</mgrwt>
</event>
<event>
 5    1  0.1466870E-002  0.1250024E+03  0.7818608E-02  0.1235065E+00
          4   -1    0    0  501    0  0.00000000000E+00  0.00000000000E+00  0.51991761594E+02  0.52007270393E+02  0.12700000000E+01 0.  1.
         -4   -1    0    0    0  501 -0.00000000000E+00 -0.00000000000E+00 -0.75102935008E+02  0.75113672169E+02  0.12700000000E+01 0.  1.
         25    2    1    2    0    0  0.00000000000E+00  0.00000000000E+00 -0.23111173413E+02  0.12712094256E+03  0.12500243078E+03 0.  0.
    9000005    1    3    3    0    0 -0.35673807471E+01  0.40945471841E+02  0.36318184477E+02  0.54856798971E+02  0.10000000000E+01 0.  0.
    9000005    1    3    3    0    0  0.35673807471E+01 -0.40945471841E+02 -0.59429357890E+02  0.72264143591E+02  0.10000000000E+01 0.  0.
<mgrwt>
<rscale>  0 0.12500243E+03</rscale>
<asrwt>0</asrwt>
<pdfrwt beam="1">  1        4 0.13001221E-01 0.12500243E+03</pdfrwt>
<pdfrwt beam="2">  1       -4 0.18779014E-01 0.12500243E+03</pdfrwt>
<totfact> 0.19719321E+03</totfact>
</mgrwt>
</event>
<event>
 5    1  0.1466870E-002  0.1249942E+03  0.7818608E-02  0.1235078E+00
         -4   -1    0    0    0  501 -0.00000000000E+00  0.00000000000E+00  0.16541941000E+02  0.16590621207E+02  0.12700000000E+01 0.  1.
          4   -1    0    0  501    0  0.00000000000E+00 -0.00000000000E+00 -0.23572305076E+03  0.23572647191E+03  0.12700000000E+01 0.  1.
         25    2    1    2    0    0  0.00000000000E+00  0.00000000000E+00 -0.21918110976E+03  0.25231709312E+03  0.12499422628E+03 0.  0.
    9000005    1    3    3    0    0 -0.31527813694E+02  0.53212253987E+02 -0.91609768730E+02  0.11053911858E+03  0.10000000000E+01 0.  0.
    9000005    1    3    3    0    0  0.31527813694E+02 -0.53212253987E+02 -0.12757134103E+03  0.14177797453E+03  0.10000000000E+01 0.  0.
<mgrwt>
<rscale>  0 0.12499423E+03</rscale>
<asrwt>0</asrwt>
<pdfrwt beam="2">  1        4 0.58937265E-01 0.12499423E+03</pdfrwt>
<pdfrwt beam="1">  1       -4 0.41419987E-02 0.12499423E+03</pdfrwt>
<totfact> 0.14423140E+03</totfact>
</mgrwt>
</event>
<event>
 5    1  0.1466870E-002  0.1250061E+03  0.7818608E-02  0.1235060E+00
          4   -1    0    0  501    0  0.00000000000E+00  0.00000000000E+00  0.12511275751E+03  0.12511920313E+03  0.12700000000E+01 0. -1.
         -4   -1    0    0    0  501 -0.00000000000E+00 -0.00000000000E+00 -0.31204738401E+02  0.31230571540E+02  0.12700000000E+01 0. -1.
         25    2    1    2    0    0  0.00000000000E+00  0.00000000000E+00  0.93908019107E+02  0.15634977467E+03  0.12500614379E+03 0.  0.
    9000005    1    3    3    0    0  0.67354562425E+01  0.14201650985E+02  0.12260632470E+03  0.12361376994E+03  0.10000000000E+01 0.  0.
    9000005    1    3    3    0    0 -0.67354562425E+01 -0.14201650985E+02 -0.28698305596E+02  0.32736004728E+02  0.10000000000E+01 0.  0.
<mgrwt>
<rscale>  0 0.12500614E+03</rscale>
<asrwt>0</asrwt>
<pdfrwt beam="1">  1        4 0.31282224E-01 0.12500614E+03</pdfrwt>
<pdfrwt beam="2">  1       -4 0.78052195E-02 0.12500614E+03</pdfrwt>
<totfact> 0.18228300E+03</totfact>
</mgrwt>
</event>
<event>
 5    1  0.1466870E-002  0.1249986E+03  0.7818608E-02  0.1235072E+00
         -4   -1    0    0    0  501 -0.00000000000E+00  0.00000000000E+00  0.95543374750E+02  0.95551815046E+02  0.12700000000E+01 0. -1.
          4   -1    0    0  501    0  0.00000000000E+00 -0.00000000000E+00 -0.40863514759E+02  0.40883245205E+02  0.12700000000E+01 0. -1.
         25    2    1    2    0    0  0.00000000000E+00  0.00000000000E+00  0.54679859990E+02  0.13643506025E+03  0.12499855430E+03 0.  0.
    9000005    1    3    3    0    0  0.31948798660E+02 -0.18573463650E+02 -0.27663746061E+02  0.46173392056E+02  0.10000000000E+01 0.  0.
    9000005    1    3    3    0    0 -0.31948798660E+02  0.18573463650E+02  0.82343606051E+02  0.90261668195E+02  0.10000000000E+01 0.  0.
<mgrwt>
<rscale>  0 0.12499855E+03</rscale>
<asrwt>0</asrwt>
<pdfrwt beam="2">  1        4 0.10219400E-01 0.12499855E+03</pdfrwt>
<pdfrwt beam="1">  1       -4 0.23889365E-01 0.12499855E+03</pdfrwt>
<totfact> 0.19224880E+03</totfact>
</mgrwt>
</event>
<event>
 5    1  0.1466870E-002  0.1250013E+03  0.7818608E-02  0.1235067E+00
          4   -1    0    0  501    0  0.00000000000E+00  0.00000000000E+00  0.76898228165E+03  0.76898333037E+03  0.12700000000E+01 0. -1.
         -4   -1    0    0    0  501 -0.00000000000E+00 -0.00000000000E+00 -0.49994242791E+01  0.51582112328E+01  0.12700000000E+01 0. -1.
         25    2    1    2    0    0  0.00000000000E+00  0.00000000000E+00  0.76398285737E+03  0.77414154160E+03  0.12500128033E+03 0.  0.
    9000005    1    3    3    0    0  0.55704086208E+02  0.62946711320E+01  0.55303250160E+03  0.55586735462E+03  0.10000000000E+01 0.  0.
    9000005    1    3    3    0    0 -0.55704086208E+02 -0.62946711320E+01  0.21095035577E+03  0.21827418698E+03  0.10000000000E+01 0.  0.
<mgrwt>
<rscale>  0 0.12500128E+03</rscale>
<asrwt>0</asrwt>
<pdfrwt beam="1">  1        4 0.19226563E+00 0.12500128E+03</pdfrwt>
<pdfrwt beam="2">  1       -4 0.12698350E-02 0.12500128E+03</pdfrwt>
<totfact> 0.54809395E+02</totfact>
</mgrwt>
</event>
<event>
 5    1  0.1466870E-002  0.1250020E+03  0.7818608E-02  0.1235066E+00
         -4   -1    0    0    0  501 -0.00000000000E+00  0.00000000000E+00  0.27271369025E+01  0.30083509910E+01  0.12700000000E+01 0. -1.
          4   -1    0    0  501    0  0.00000000000E+00 -0.00000000000E+00 -0.13618947126E+04  0.13618953047E+04  0.12700000000E+01 0. -1.
         25    2    1    2    0    0  0.00000000000E+00  0.00000000000E+00 -0.13591675757E+04  0.13649036557E+04  0.12500196253E+03 0.  0.
    9000005    1    3    3    0    0  0.17507676690E+02  0.38868407476E+02 -0.11785382341E+04  0.11793093916E+04  0.10000000000E+01 0.  0.
    9000005    1    3    3    0    0 -0.17507676690E+02 -0.38868407476E+02 -0.18062934158E+03  0.18559426414E+03  0.10000000000E+01 0.  0.
<mgrwt>
<rscale>  0 0.12500196E+03</rscale>
<asrwt>0</asrwt>
<pdfrwt beam="2">  1        4 0.34050669E+00 0.12500196E+03</pdfrwt>
<pdfrwt beam="1">  1       -4 0.71701468E-03 0.12500196E+03</pdfrwt>
<totfact> 0.17498717E+02</totfact>
</mgrwt>
</event>
<event>
 5    1  0.1466870E-002  0.1249985E+03  0.7818608E-02  0.1235072E+00
          4   -1    0    0  501    0  0.00000000000E+00  0.00000000000E+00  0.18812647984E+02  0.18855466692E+02  0.12700000000E+01 0.  1.
         -4   -1    0    0    0  501 -0.00000000000E+00 -0.00000000000E+00 -0.20735369706E+03  0.20735758627E+03  0.12700000000E+01 0.  1.
         25    2    1    2    0    0  0.00000000000E+00  0.00000000000E+00 -0.18854104908E+03  0.22621305297E+03  0.12499847257E+03 0.  0.
    9000005    1    3    3    0    0 -0.84531115104E+01  0.52301262470E+02 -0.15424534762E+03  0.16309354498E+03  0.10000000000E+01 0.  0.
    9000005    1    3    3    0    0  0.84531115104E+01 -0.52301262470E+02 -0.34295701454E+02  0.63119507986E+02  0.10000000000E+01 0.  0.
<mgrwt>
<rscale>  0 0.12499847E+03</rscale>
<asrwt>0</asrwt>
<pdfrwt beam="1">  1        4 0.47090011E-02 0.12499847E+03</pdfrwt>
<pdfrwt beam="2">  1       -4 0.51844256E-01 0.12499847E+03</pdfrwt>
<totfact> 0.15324119E+03</totfact>
</mgrwt>
</event>
<event>
 5    1  0.1466870E-002  0.1250022E+03  0.7818608E-02  0.1235066E+00
          4   -1    0    0  501    0  0.00000000000E+00  0.00000000000E+00  0.65709049648E+01  0.66925101461E+01  0.12700000000E+01 0. -1.
         -4   -1    0    0    0  501 -0.00000000000E+00 -0.00000000000E+00 -0.58892469873E+03  0.58892606809E+03  0.12700000000E+01 0. -1.
         25    2    1    2    0    0  0.00000000000E+00  0.00000000000E+00 -0.58235379377E+03  0.59561857824E+03  0.12500219848E+03 0.  0.
    9000005    1    3    3    0    0 -0.59245523978E+01 -0.54127899138E+02 -0.43730044169E+03  0.44067857457E+03  0.10000000000E+01 0.  0.
    9000005    1    3    3    0    0  0.59245523978E+01  0.54127899138E+02 -0.14505335208E+03  0.15494000367E+03  0.10000000000E+01 0.  0.
<mgrwt>
<rscale>  0 0.12500220E+03</rscale>
<asrwt>0</asrwt>
<pdfrwt beam="1">  1        4 0.16581001E-02 0.12500220E+03</pdfrwt>
<pdfrwt beam="2">  1       -4 0.14724637E+00 0.12500220E+03</pdfrwt>
<totfact> 0.74053343E+02</totfact>
</mgrwt>
</event>
<event>
 5    1  0.1466870E-002  0.1249864E+03  0.7818608E-02  0.1235091E+00
          4   -1    0    0  501    0  0.00000000000E+00  0.00000000000E+00  0.32950794266E+02  0.32975259556E+02  0.12700000000E+01 0.  1.
         -4   -1    0    0    0  501 -0.00000000000E+00 -0.00000000000E+00 -0.11845024664E+03  0.11845705478E+03  0.12700000000E+01 0.  1.
         25    2    1    2    0    0  0.00000000000E+00  0.00000000000E+00 -0.85499452369E+02  0.15143231434E+03  0.12498635714E+03 0.  0.
    9000005    1    3    3    0    0  0.42424825644E+00  0.80640114083E+01 -0.11782133127E+03  0.11810196598E+03  0.10000000000E+01 0.  0.
    9000005    1    3    3    0    0 -0.42424825644E+00 -0.80640114083E+01  0.32321878896E+02  0.33330348362E+02  0.10000000000E+01 0.  0.
<mgrwt>
<rscale>  0 0.12498636E+03</rscale>
<asrwt>0</asrwt>
<pdfrwt beam="1">  1        4 0.82416080E-02 0.12498636E+03</pdfrwt>
<pdfrwt beam="2">  1       -4 0.29616470E-01 0.12498636E+03</pdfrwt>
<totfact> 0.18474441E+03</totfact>
</mgrwt>
</event>
<event>
 4    1  0.1466870E-002  0.1251118E+03  0.7818608E-02  0.1234895E+00
          4   -1    0    0  501    0  0.00000000000E+00  0.00000000000E+00  0.24630249115E+01  0.27711715419E+01  0.12700000000E+01 0.  1.
         -4   -1    0    0    0  501 -0.00000000000E+00 -0.00000000000E+00 -0.14949509427E+04  0.14949514821E+04  0.12700000000E+01 0.  1.
    9000005    1    1    2    0    0 -0.30311944455E+02  0.17242062020E+02 -0.12465372628E+03  0.12944363312E+03  0.10000000000E+01 0.  0.
    9000005    1    1    2    0    0  0.30311944455E+02 -0.17242062020E+02 -0.13678341915E+04  0.13682790206E+04  0.10000000000E+01 0.  0.
<mgrwt>
<rscale>  0 0.12511180E+03</rscale>
<asrwt>0</asrwt>
<pdfrwt beam="1">  1        4 0.65434712E-03 0.12511180E+03</pdfrwt>
<pdfrwt beam="2">  1       -4 0.37377339E+00 0.12511180E+03</pdfrwt>
<totfact> 0.12536231E+02</totfact>
</mgrwt>
</event>
<event>
 5    1  0.1466870E-002  0.1250048E+03  0.7818608E-02  0.1235062E+00
          4   -1    0    0  501    0  0.00000000000E+00  0.00000000000E+00  0.19109925131E+02  0.19152079222E+02  0.12700000000E+01 0. -1.
         -4   -1    0    0    0  501 -0.00000000000E+00 -0.00000000000E+00 -0.20415579851E+03  0.20415974864E+03  0.12700000000E+01 0. -1.
         25    2    1    2    0    0  0.00000000000E+00  0.00000000000E+00 -0.18504587338E+03  0.22331182786E+03  0.12500478874E+03 0.  0.
    9000005    1    3    3    0    0  0.37727784527E+02 -0.65052195713E+01 -0.18076309047E+03  0.18477553540E+03  0.10000000000E+01 0.  0.
    9000005    1    3    3    0    0 -0.37727784527E+02  0.65052195713E+01 -0.42827829053E+01  0.38536292458E+02  0.10000000000E+01 0.  0.
<mgrwt>
<rscale>  0 0.12500479E+03</rscale>
<asrwt>0</asrwt>
<pdfrwt beam="1">  1        4 0.47832449E-02 0.12500479E+03</pdfrwt>
<pdfrwt beam="2">  1       -4 0.51044706E-01 0.12500479E+03</pdfrwt>
<totfact> 0.15427573E+03</totfact>
</mgrwt>
</event>
<event>
 5    1  0.1466870E-002  0.1250003E+03  0.7818608E-02  0.1235069E+00
          4   -1    0    0  501    0  0.00000000000E+00  0.00000000000E+00  0.66681378648E+02  0.66693471633E+02  0.12700000000E+01 0.  1.
         -4   -1    0    0    0  501 -0.00000000000E+00 -0.00000000000E+00 -0.58556769782E+02  0.58570540268E+02  0.12700000000E+01 0.  1.
         25    2    1    2    0    0  0.00000000000E+00  0.00000000000E+00  0.81246088661E+01  0.12526401190E+03  0.12500025363E+03 0.  0.
    9000005    1    3    3    0    0  0.42520012130E+02 -0.22310290615E+02 -0.36016653122E+02  0.60032489546E+02  0.10000000000E+01 0.  0.
    9000005    1    3    3    0    0 -0.42520012130E+02  0.22310290615E+02  0.44141261988E+02  0.65231522356E+02  0.10000000000E+01 0.  0.
<mgrwt>
<rscale>  0 0.12500025E+03</rscale>
<asrwt>0</asrwt>
<pdfrwt beam="1">  1        4 0.16673578E-01 0.12500025E+03</pdfrwt>
<pdfrwt beam="2">  1       -4 0.14642425E-01 0.12500025E+03</pdfrwt>
<totfact> 0.19820627E+03</totfact>
</mgrwt>
</event>
<event>
 5    1  0.1466870E-002  0.1249996E+03  0.7818608E-02  0.1235070E+00
         -4   -1    0    0    0  501 -0.00000000000E+00  0.00000000000E+00  0.12145970684E+03  0.12146634631E+03  0.12700000000E+01 0. -1.
          4   -1    0    0  501    0  0.00000000000E+00 -0.00000000000E+00 -0.32140628071E+02  0.32165709580E+02  0.12700000000E+01 0. -1.
         25    2    1    2    0    0  0.00000000000E+00  0.00000000000E+00  0.89319078773E+02  0.15363205589E+03  0.12499964306E+03 0.  0.
    9000005    1    3    3    0    0  0.11798795079E+02 -0.61128615733E+02  0.51313337244E+02  0.80684433479E+02  0.10000000000E+01 0.  0.
    9000005    1    3    3    0    0 -0.11798795079E+02  0.61128615733E+02  0.38005741529E+02  0.72947622414E+02  0.10000000000E+01 0.  0.
<mgrwt>
<rscale>  0 0.12499964E+03</rscale>
<asrwt>0</asrwt>
<pdfrwt beam="2">  1        4 0.80391222E-02 0.12499964E+03</pdfrwt>
<pdfrwt beam="1">  1       -4 0.30368892E-01 0.12499964E+03</pdfrwt>
<totfact> 0.18361775E+03</totfact>
</mgrwt>
</event>
<event>
 5    1  0.1466870E-002  0.1249962E+03  0.7818608E-02  0.1235075E+00
          4   -1    0    0  501    0  0.00000000000E+00  0.00000000000E+00  0.85549782496E+02  0.85559208652E+02  0.12700000000E+01 0.  1.
         -4   -1    0    0    0  501 -0.00000000000E+00 -0.00000000000E+00 -0.45636960641E+02  0.45654628205E+02  0.12700000000E+01 0.  1.
         25    2    1    2    0    0  0.00000000000E+00  0.00000000000E+00  0.39912821855E+02  0.13121383686E+03  0.12499615048E+03 0.  0.
    9000005    1    3    3    0    0 -0.74851739572E+01 -0.47451010852E+02  0.61911780023E+02  0.78368965577E+02  0.10000000000E+01 0.  0.
    9000005    1    3    3    0    0  0.74851739572E+01  0.47451010852E+02 -0.21998958168E+02  0.52844871279E+02  0.10000000000E+01 0.  0.
<mgrwt>
<rscale>  0 0.12499615E+03</rscale>
<asrwt>0</asrwt>
<pdfrwt beam="1">  1        4 0.21390832E-01 0.12499615E+03</pdfrwt>
<pdfrwt beam="2">  1       -4 0.11412627E-01 0.12499615E+03</pdfrwt>
<totfact> 0.19501100E+03</totfact>
</mgrwt>
</event>
<event>
 5    1  0.1466870E-002  0.1249953E+03  0.7818608E-02  0.1235077E+00
          4   -1    0    0  501    0  0.00000000000E+00  0.00000000000E+00  0.22758161414E+03  0.22758515768E+03  0.12700000000E+01 0. -1.
         -4   -1    0    0    0  501 -0.00000000000E+00 -0.00000000000E+00 -0.17135708038E+02  0.17182706131E+02  0.12700000000E+01 0. -1.
         25    2    1    2    0    0  0.00000000000E+00  0.00000000000E+00  0.21044590610E+03  0.24476786381E+03  0.12499531094E+03 0.  0.
    9000005    1    3    3    0    0  0.14277747451E+01  0.48744061839E+02  0.28703663743E+02  0.56594367366E+02  0.10000000000E+01 0.  0.
    9000005    1    3    3    0    0 -0.14277747451E+01 -0.48744061839E+02  0.18174224236E+03  0.18817349644E+03  0.10000000000E+01 0.  0.
<mgrwt>
<rscale>  0 0.12499531E+03</rscale>
<asrwt>0</asrwt>
<pdfrwt beam="1">  1        4 0.56901720E-01 0.12499531E+03</pdfrwt>
<pdfrwt beam="2">  1       -4 0.42902448E-02 0.12499531E+03</pdfrwt>
<totfact> 0.14675178E+03</totfact>
</mgrwt>
</event>
<event>
 5    1  0.1466870E-002  0.1250011E+03  0.7818608E-02  0.1235068E+00
         -4   -1    0    0    0  501 -0.00000000000E+00  0.00000000000E+00  0.56704962979E+01  0.58109748119E+01  0.12700000000E+01 0. -1.
          4   -1    0    0  501    0  0.00000000000E+00 -0.00000000000E+00 -0.68031485166E+03  0.68031603706E+03  0.12700000000E+01 0. -1.
         25    2    1    2    0    0  0.00000000000E+00  0.00000000000E+00 -0.67464435536E+03  0.68612701188E+03  0.12500108082E+03 0.  0.
    9000005    1    3    3    0    0  0.18404385862E+02  0.19593413092E+02 -0.64698438985E+03  0.64754337613E+03  0.10000000000E+01 0.  0.
    9000005    1    3    3    0    0 -0.18404385862E+02 -0.19593413092E+02 -0.27659965506E+02  0.38583635746E+02  0.10000000000E+01 0.  0.
<mgrwt>
<rscale>  0 0.12500108E+03</rscale>
<asrwt>0</asrwt>
<pdfrwt beam="2">  1        4 0.17009615E+00 0.12500108E+03</pdfrwt>
<pdfrwt beam="1">  1       -4 0.14353344E-02 0.12500108E+03</pdfrwt>
<totfact> 0.63522531E+02</totfact>
</mgrwt>
</event>
<event>
 5    1  0.1466870E-002  0.1250171E+03  0.7818608E-02  0.1235043E+00
          4   -1    0    0  501    0  0.00000000000E+00  0.00000000000E+00  0.38127940256E+01  0.40187433710E+01  0.12700000000E+01 0.  1.
         -4   -1    0    0    0  501 -0.00000000000E+00 -0.00000000000E+00 -0.99763509196E+03  0.99763590033E+03  0.12700000000E+01 0.  1.
         25    2    1    2    0    0  0.00000000000E+00  0.00000000000E+00 -0.99382229794E+03  0.10016546437E+04  0.12501706027E+03 0.  0.
    9000005    1    3    3    0    0  0.10158321804E+02 -0.12429984825E+01 -0.29067893865E+01  0.10685783623E+02  0.10000000000E+01 0.  0.
    9000005    1    3    3    0    0 -0.10158321804E+02  0.12429984825E+01 -0.99091550855E+03  0.99096886007E+03  0.10000000000E+01 0.  0.
<mgrwt>
<rscale>  0 0.12501706E+03</rscale>
<asrwt>0</asrwt>
<pdfrwt beam="1">  1        4 0.97904663E-03 0.12501706E+03</pdfrwt>
<pdfrwt beam="2">  1       -4 0.24943375E+00 0.12501706E+03</pdfrwt>
<totfact> 0.36984069E+02</totfact>
</mgrwt>
</event>
<event>
 5    1  0.1466870E-002  0.1249991E+03  0.7818608E-02  0.1235071E+00
          4   -1    0    0  501    0  0.00000000000E+00  0.00000000000E+00  0.14180533274E+02  0.14237289908E+02  0.12700000000E+01 0.  1.
         -4   -1    0    0    0  501 -0.00000000000E+00 -0.00000000000E+00 -0.27485319524E+03  0.27485612934E+03  0.12700000000E+01 0.  1.
         25    2    1    2    0    0  0.00000000000E+00  0.00000000000E+00 -0.26067266197E+03  0.28909341925E+03  0.12499907341E+03 0.  0.
    9000005    1    3    3    0    0 -0.23884620825E+02  0.33525446729E+02 -0.23907959097E+03  0.24259942603E+03  0.10000000000E+01 0.  0.
    9000005    1    3    3    0    0  0.23884620825E+02 -0.33525446729E+02 -0.21593070998E+02  0.46493993219E+02  0.10000000000E+01 0.  0.
<mgrwt>
<rscale>  0 0.12499907E+03</rscale>
<asrwt>0</asrwt>
<pdfrwt beam="1">  1        4 0.35525955E-02 0.12499907E+03</pdfrwt>
<pdfrwt beam="2">  1       -4 0.68720743E-01 0.12499907E+03</pdfrwt>
<totfact> 0.13282618E+03</totfact>
</mgrwt>
</event>
<event>
 5    1  0.1466870E-002  0.1250036E+03  0.7818608E-02  0.1235064E+00
          4   -1    0    0  501    0  0.00000000000E+00  0.00000000000E+00  0.19776881314E+03  0.19777289084E+03  0.12700000000E+01 0. -1.
         -4   -1    0    0    0  501 -0.00000000000E+00 -0.00000000000E+00 -0.19728042915E+02  0.19768879009E+02  0.12700000000E+01 0. -1.
         25    2    1    2    0    0  0.00000000000E+00  0.00000000000E+00  0.17804077023E+03  0.21754176985E+03  0.12500362301E+03 0.  0.
    9000005    1    3    3    0    0 -0.12756337411E+02  0.23380173810E+02  0.18740599447E+03  0.18929174159E+03  0.10000000000E+01 0.  0.
    9000005    1    3    3    0    0  0.12756337411E+02 -0.23380173810E+02 -0.93652242418E+01  0.28250028259E+02  0.10000000000E+01 0.  0.
<mgrwt>
<rscale>  0 0.12500362E+03</rscale>
<asrwt>0</asrwt>
<pdfrwt beam="1">  1        4 0.49447818E-01 0.12500362E+03</pdfrwt>
<pdfrwt beam="2">  1       -4 0.49376249E-02 0.12500362E+03</pdfrwt>
<totfact> 0.15641622E+03</totfact>
</mgrwt>
</event>
<event>
 5    1  0.1466870E-002  0.1250008E+03  0.7818608E-02  0.1235068E+00
         -4   -1    0    0    0  501 -0.00000000000E+00  0.00000000000E+00  0.12695397163E+03  0.12696032377E+03  0.12700000000E+01 0. -1.
          4   -1    0    0  501    0  0.00000000000E+00 -0.00000000000E+00 -0.30749194313E+02  0.30775409841E+02  0.12700000000E+01 0. -1.
         25    2    1    2    0    0  0.00000000000E+00  0.00000000000E+00  0.96204777318E+02  0.15773573362E+03  0.12500080992E+03 0.  0.
    9000005    1    3    3    0    0 -0.44645464134E+02 -0.95670330569E+00  0.10326777715E+03  0.11251385047E+03  0.10000000000E+01 0.  0.
    9000005    1    3    3    0    0  0.44645464134E+02  0.95670330569E+00 -0.70629998327E+01  0.45221883150E+02  0.10000000000E+01 0.  0.
<mgrwt>
<rscale>  0 0.12500081E+03</rscale>
<asrwt>0</asrwt>
<pdfrwt beam="2">  1        4 0.76913696E-02 0.12500081E+03</pdfrwt>
<pdfrwt beam="1">  1       -4 0.31742564E-01 0.12500081E+03</pdfrwt>
<totfact> 0.18164495E+03</totfact>
</mgrwt>
</event>
<event>
 5    1  0.1466870E-002  0.1250366E+03  0.7818608E-02  0.1235012E+00
          4   -1    0    0  501    0  0.00000000000E+00  0.00000000000E+00  0.85627233576E+01  0.86563925107E+01  0.12700000000E+01 0. -1.
         -4   -1    0    0    0  501 -0.00000000000E+00 -0.00000000000E+00 -0.45388206469E+03  0.45388384147E+03  0.12700000000E+01 0. -1.
         25    2    1    2    0    0  0.00000000000E+00  0.00000000000E+00 -0.44531934133E+03  0.46254023398E+03  0.12503660378E+03 0.  0.
    9000005    1    3    3    0    0  0.49455303217E+02 -0.32412078334E+02 -0.14764915973E+03  0.15905233166E+03  0.10000000000E+01 0.  0.
    9000005    1    3    3    0    0 -0.49455303217E+02  0.32412078334E+02 -0.29767018160E+03  0.30348790231E+03  0.10000000000E+01 0.  0.
<mgrwt>
<rscale>  0 0.12503660E+03</rscale>
<asrwt>0</asrwt>
<pdfrwt beam="1">  1        4 0.21526131E-02 0.12503660E+03</pdfrwt>
<pdfrwt beam="2">  1       -4 0.11348237E+00 0.12503660E+03</pdfrwt>
<totfact> 0.93730484E+02</totfact>
</mgrwt>
</event>
<event>
 5    1  0.1466870E-002  0.1249998E+03  0.7818608E-02  0.1235070E+00
          4   -1    0    0  501    0  0.00000000000E+00  0.00000000000E+00  0.25797870430E+02  0.25829111845E+02  0.12700000000E+01 0.  1.
         -4   -1    0    0    0  501 -0.00000000000E+00 -0.00000000000E+00 -0.15129162471E+03  0.15129695505E+03  0.12700000000E+01 0.  1.
         25    2    1    2    0    0  0.00000000000E+00  0.00000000000E+00 -0.12549375428E+03  0.17712606689E+03  0.12499984484E+03 0.  0.
    9000005    1    3    3    0    0 -0.42173228896E+01  0.36137651777E+02  0.92495824139E+01  0.37553567915E+02  0.10000000000E+01 0.  0.
    9000005    1    3    3    0    0  0.42173228896E+01 -0.36137651777E+02 -0.13474333669E+03  0.13957249898E+03  0.10000000000E+01 0.  0.
<mgrwt>
<rscale>  0 0.12499984E+03</rscale>
<asrwt>0</asrwt>
<pdfrwt beam="1">  1        4 0.64540395E-02 0.12499984E+03</pdfrwt>
<pdfrwt beam="2">  1       -4 0.37827475E-01 0.12499984E+03</pdfrwt>
<totfact> 0.17280402E+03</totfact>
</mgrwt>
</event>
<event>
 5    1  0.1466870E-002  0.1250049E+03  0.7818608E-02  0.1235062E+00
         -4   -1    0    0    0  501 -0.00000000000E+00  0.00000000000E+00  0.72054898702E+03  0.72055010624E+03  0.12700000000E+01 0.  1.
          4   -1    0    0  501    0  0.00000000000E+00 -0.00000000000E+00 -0.53461221717E+01  0.54948996601E+01  0.12700000000E+01 0.  1.
         25    2    1    2    0    0  0.00000000000E+00  0.00000000000E+00  0.71520286485E+03  0.72604500590E+03  0.12500485070E+03 0.  0.
    9000005    1    3    3    0    0  0.13600513861E+02  0.30429719285E+02  0.66464315116E+03  0.66547912077E+03  0.10000000000E+01 0.  0.
    9000005    1    3    3    0    0 -0.13600513861E+02 -0.30429719285E+02  0.50559713686E+02  0.60565885125E+02  0.10000000000E+01 0.  0.
<mgrwt>
<rscale>  0 0.12500485E+03</rscale>
<asrwt>0</asrwt>
<pdfrwt beam="2">  1        4 0.13552676E-02 0.12500485E+03</pdfrwt>
<pdfrwt beam="1">  1       -4 0.18015599E+00 0.12500485E+03</pdfrwt>
<totfact> 0.59401025E+02</totfact>
</mgrwt>
</event>
<event>
 5    1  0.1466870E-002  0.1249954E+03  0.7818608E-02  0.1235076E+00
         -4   -1    0    0    0  501 -0.00000000000E+00  0.00000000000E+00  0.68447704367E+01  0.69615933759E+01  0.12700000000E+01 0. -1.
          4   -1    0    0  501    0  0.00000000000E+00 -0.00000000000E+00 -0.56570305600E+03  0.56570448157E+03  0.12700000000E+01 0. -1.
         25    2    1    2    0    0  0.00000000000E+00  0.00000000000E+00 -0.55885828557E+03  0.57266607495E+03  0.12499540012E+03 0.  0.
    9000005    1    3    3    0    0  0.92143795172E+01  0.58214829972E+02 -0.37455356921E+03  0.37916387938E+03  0.10000000000E+01 0.  0.
    9000005    1    3    3    0    0 -0.92143795172E+01 -0.58214829972E+02 -0.18430471636E+03  0.19350219557E+03  0.10000000000E+01 0.  0.
<mgrwt>
<rscale>  0 0.12499540E+03</rscale>
<asrwt>0</asrwt>
<pdfrwt beam="2">  1        4 0.14144039E+00 0.12499540E+03</pdfrwt>
<pdfrwt beam="1">  1       -4 0.17259756E-02 0.12499540E+03</pdfrwt>
<totfact> 0.77061551E+02</totfact>
</mgrwt>
</event>
<event>
 5    1  0.1466870E-002  0.1249984E+03  0.7818608E-02  0.1235072E+00
         -4   -1    0    0    0  501 -0.00000000000E+00  0.00000000000E+00  0.11638661359E+02  0.11707746932E+02  0.12700000000E+01 0. -1.
          4   -1    0    0  501    0  0.00000000000E+00 -0.00000000000E+00 -0.33455495719E+03  0.33455736770E+03  0.12700000000E+01 0. -1.
         25    2    1    2    0    0  0.00000000000E+00  0.00000000000E+00 -0.32291629583E+03  0.34626511463E+03  0.12499838197E+03 0.  0.
    9000005    1    3    3    0    0 -0.11790618134E+02 -0.56378670747E+02 -0.94309657250E+02  0.11051192081E+03  0.10000000000E+01 0.  0.
    9000005    1    3    3    0    0  0.11790618134E+02  0.56378670747E+02 -0.22860663858E+03  0.23575319382E+03  0.10000000000E+01 0.  0.
<mgrwt>
<rscale>  0 0.12499838E+03</rscale>
<asrwt>0</asrwt>
<pdfrwt beam="2">  1        4 0.83647645E-01 0.12499838E+03</pdfrwt>
<pdfrwt beam="1">  1       -4 0.29186035E-02 0.12499838E+03</pdfrwt>
<totfact> 0.11767347E+03</totfact>
</mgrwt>
</event>
<event>
 5    1  0.1466870E-002  0.1250024E+03  0.7818608E-02  0.1235066E+00
         -4   -1    0    0    0  501 -0.00000000000E+00  0.00000000000E+00  0.31311135516E+02  0.31336880944E+02  0.12700000000E+01 0.  1.
          4   -1    0    0  501    0  0.00000000000E+00 -0.00000000000E+00 -0.12468040482E+03  0.12468687279E+03  0.12700000000E+01 0.  1.
         25    2    1    2    0    0  0.00000000000E+00  0.00000000000E+00 -0.93369269302E+02  0.15602375373E+03  0.12500236509E+03 0.  0.
    9000005    1    3    3    0    0 -0.47578864780E+01 -0.56635123738E+02 -0.14250961462E+02  0.58602599150E+02  0.10000000000E+01 0.  0.
    9000005    1    3    3    0    0  0.47578864780E+01  0.56635123738E+02 -0.79118307841E+02  0.97421154582E+02  0.10000000000E+01 0.  0.
<mgrwt>
<rscale>  0 0.12500237E+03</rscale>
<asrwt>0</asrwt>
<pdfrwt beam="2">  1        4 0.31174127E-01 0.12500237E+03</pdfrwt>
<pdfrwt beam="1">  1       -4 0.78318109E-02 0.12500237E+03</pdfrwt>
<totfact> 0.18245500E+03</totfact>
</mgrwt>
</event>
<event>
 5    1  0.1466870E-002  0.1250022E+03  0.7818608E-02  0.1235066E+00
          4   -1    0    0  501    0  0.00000000000E+00  0.00000000000E+00  0.15013352556E+03  0.15013889702E+03  0.12700000000E+01 0. -1.
         -4   -1    0    0    0  501 -0.00000000000E+00 -0.00000000000E+00 -0.25998080932E+02  0.26029082045E+02  0.12700000000E+01 0. -1.
         25    2    1    2    0    0  0.00000000000E+00  0.00000000000E+00  0.12413544463E+03  0.17616797907E+03  0.12500219292E+03 0.  0.
    9000005    1    3    3    0    0 -0.13521884481E+02 -0.45552345334E+02  0.11927166260E+03  0.12839231684E+03  0.10000000000E+01 0.  0.
    9000005    1    3    3    0    0  0.13521884481E+02  0.45552345334E+02  0.48637820368E+01  0.47775662225E+02  0.10000000000E+01 0.  0.
<mgrwt>
<rscale>  0 0.12500219E+03</rscale>
<asrwt>0</asrwt>
<pdfrwt beam="1">  1        4 0.37537927E-01 0.12500219E+03</pdfrwt>
<pdfrwt beam="2">  1       -4 0.65040669E-02 0.12500219E+03</pdfrwt>
<totfact> 0.17321499E+03</totfact>
</mgrwt>
</event>
<event>
 5    1  0.1466870E-002  0.1250033E+03  0.7818608E-02  0.1235064E+00
          4   -1    0    0  501    0  0.00000000000E+00  0.00000000000E+00  0.14619619447E+04  0.14619624963E+04  0.12700000000E+01 0.  1.
         -4   -1    0    0    0  501 -0.00000000000E+00 -0.00000000000E+00 -0.25205756763E+01  0.28224460561E+01  0.12700000000E+01 0.  1.
         25    2    1    2    0    0  0.00000000000E+00  0.00000000000E+00  0.14594413690E+04  0.14647849424E+04  0.12500327115E+03 0.  0.
    9000005    1    3    3    0    0  0.42814438493E+02 -0.31517270985E+02  0.11146413678E+04  0.11159089539E+04  0.10000000000E+01 0.  0.
    9000005    1    3    3    0    0 -0.42814438493E+02  0.31517270985E+02  0.34480000118E+03  0.34887598846E+03  0.10000000000E+01 0.  0.
<mgrwt>
<rscale>  0 0.12500327E+03</rscale>
<asrwt>0</asrwt>
<pdfrwt beam="1">  1        4 0.36552793E+00 0.12500327E+03</pdfrwt>
<pdfrwt beam="2">  1       -4 0.66794732E-03 0.12500327E+03</pdfrwt>
<totfact> 0.13687465E+02</totfact>
</mgrwt>
</event>
<event>
 5    1  0.1466870E-002  0.1249997E+03  0.7818608E-02  0.1235070E+00
         -4   -1    0    0    0  501 -0.00000000000E+00  0.00000000000E+00  0.27232885258E+02  0.27262482270E+02  0.12700000000E+01 0. -1.
          4   -1    0    0  501    0  0.00000000000E+00 -0.00000000000E+00 -0.14332771166E+03  0.14333333817E+03  0.12700000000E+01 0. -1.
         25    2    1    2    0    0  0.00000000000E+00  0.00000000000E+00 -0.11609482641E+03  0.17059582044E+03  0.12499970093E+03 0.  0.
    9000005    1    3    3    0    0  0.78445182565E+01 -0.21868105127E+02  0.21126657175E+02  0.31417926919E+02  0.10000000000E+01 0.  0.
    9000005    1    3    3    0    0 -0.78445182565E+01  0.21868105127E+02 -0.13722148358E+03  0.13917789352E+03  0.10000000000E+01 0.  0.
<mgrwt>
<rscale>  0 0.12499970E+03</rscale>
<asrwt>0</asrwt>
<pdfrwt beam="2">  1        4 0.35836329E-01 0.12499970E+03</pdfrwt>
<pdfrwt beam="1">  1       -4 0.68126246E-02 0.12499970E+03</pdfrwt>
<totfact> 0.17570329E+03</totfact>
</mgrwt>
</event>
<event>
 5    1  0.1466870E-002  0.1250066E+03  0.7818608E-02  0.1235059E+00
          4   -1    0    0  501    0  0.00000000000E+00  0.00000000000E+00  0.36828070273E+02  0.36849961466E+02  0.12700000000E+01 0. -1.
         -4   -1    0    0    0  501 -0.00000000000E+00 -0.00000000000E+00 -0.10602117871E+03  0.10602878494E+03  0.12700000000E+01 0. -1.
         25    2    1    2    0    0  0.00000000000E+00  0.00000000000E+00 -0.69193108437E+02  0.14287874640E+03  0.12500659950E+03 0.  0.
    9000005    1    3    3    0    0  0.92642435115E+01 -0.44311991761E+02 -0.83840955357E+02  0.95287379106E+02  0.10000000000E+01 0.  0.
    9000005    1    3    3    0    0 -0.92642435115E+01  0.44311991761E+02  0.14647846921E+02  0.47591367296E+02  0.10000000000E+01 0.  0.
<mgrwt>
<rscale>  0 0.12500660E+03</rscale>
<asrwt>0</asrwt>
<pdfrwt beam="1">  1        4 0.92107050E-02 0.12500660E+03</pdfrwt>
<pdfrwt beam="2">  1       -4 0.26508981E-01 0.12500660E+03</pdfrwt>
<totfact> 0.18891120E+03</totfact>
</mgrwt>
</event>
<event>
 5    1  0.1466870E-002  0.1250036E+03  0.7818608E-02  0.1235064E+00
          4   -1    0    0  501    0  0.00000000000E+00  0.00000000000E+00  0.18849254939E+02  0.18891990677E+02  0.12700000000E+01 0. -1.
         -4   -1    0    0    0  501 -0.00000000000E+00 -0.00000000000E+00 -0.20696888192E+03  0.20697277836E+03  0.12700000000E+01 0. -1.
         25    2    1    2    0    0  0.00000000000E+00  0.00000000000E+00 -0.18811962698E+03  0.22586476904E+03  0.12500359930E+03 0.  0.
    9000005    1    3    3    0    0 -0.52149715064E+02  0.31514066034E+02 -0.11914506503E+03  0.13382554188E+03  0.10000000000E+01 0.  0.
    9000005    1    3    3    0    0  0.52149715064E+02 -0.31514066034E+02 -0.68974561953E+02  0.92039227158E+02  0.10000000000E+01 0.  0.
<mgrwt>
<rscale>  0 0.12500360E+03</rscale>
<asrwt>0</asrwt>
<pdfrwt beam="1">  1        4 0.47181434E-02 0.12500360E+03</pdfrwt>
<pdfrwt beam="2">  1       -4 0.51748042E-01 0.12500360E+03</pdfrwt>
<totfact> 0.15334935E+03</totfact>
</mgrwt>
</event>
<event>
 5    1  0.1466870E-002  0.1250002E+03  0.7818608E-02  0.1235069E+00
          4   -1    0    0  501    0  0.00000000000E+00  0.00000000000E+00  0.26099891420E+02  0.26130771748E+02  0.12700000000E+01 0. -1.
         -4   -1    0    0    0  501 -0.00000000000E+00 -0.00000000000E+00 -0.14954388680E+03  0.14954927943E+03  0.12700000000E+01 0. -1.
         25    2    1    2    0    0  0.00000000000E+00  0.00000000000E+00 -0.12344399538E+03  0.17568005118E+03  0.12500024155E+03 0.  0.
    9000005    1    3    3    0    0  0.49705352324E+02 -0.34465328385E+02 -0.83800533102E+02  0.10335381105E+03  0.10000000000E+01 0.  0.
    9000005    1    3    3    0    0 -0.49705352324E+02  0.34465328385E+02 -0.39643462278E+02  0.72326240132E+02  0.10000000000E+01 0.  0.
<mgrwt>
<rscale>  0 0.12500024E+03</rscale>
<asrwt>0</asrwt>
<pdfrwt beam="1">  1        4 0.65295074E-02 0.12500024E+03</pdfrwt>
<pdfrwt beam="2">  1       -4 0.37390503E-01 0.12500024E+03</pdfrwt>
<totfact> 0.17343757E+03</totfact>
</mgrwt>
</event>
<event>
 5    1  0.1466870E-002  0.1249985E+03  0.7818608E-02  0.1235072E+00
          4   -1    0    0  501    0  0.00000000000E+00  0.00000000000E+00  0.19939769211E+03  0.19940173650E+03  0.12700000000E+01 0. -1.
         -4   -1    0    0    0  501 -0.00000000000E+00 -0.00000000000E+00 -0.19564932293E+02  0.19606108121E+02  0.12700000000E+01 0. -1.
         25    2    1    2    0    0  0.00000000000E+00  0.00000000000E+00  0.17983275981E+03  0.21900784462E+03  0.12499845800E+03 0.  0.
    9000005    1    3    3    0    0 -0.16027433196E+02  0.22778645742E+02 -0.80971727565E+01  0.29022569207E+02  0.10000000000E+01 0.  0.
    9000005    1    3    3    0    0  0.16027433196E+02 -0.22778645742E+02  0.18792993257E+03  0.18998527541E+03  0.10000000000E+01 0.  0.
<mgrwt>
<rscale>  0 0.12499846E+03</rscale>
<asrwt>0</asrwt>
<pdfrwt beam="1">  1        4 0.49855076E-01 0.12499846E+03</pdfrwt>
<pdfrwt beam="2">  1       -4 0.48968856E-02 0.12499846E+03</pdfrwt>
<totfact> 0.15588759E+03</totfact>
</mgrwt>
</event>
<event>
 5    1  0.1466870E-002  0.1249980E+03  0.7818608E-02  0.1235072E+00
          4   -1    0    0  501    0  0.00000000000E+00  0.00000000000E+00  0.28608202649E+02  0.28636378241E+02  0.12700000000E+01 0.  1.
         -4   -1    0    0    0  501 -0.00000000000E+00 -0.00000000000E+00 -0.13644029139E+03  0.13644620190E+03  0.12700000000E+01 0.  1.
         25    2    1    2    0    0  0.00000000000E+00  0.00000000000E+00 -0.10783208874E+03  0.16508258015E+03  0.12499799561E+03 0.  0.
    9000005    1    3    3    0    0  0.52909938092E+02 -0.85987115768E+01 -0.11495108350E+02  0.54831896791E+02  0.10000000000E+01 0.  0.
    9000005    1    3    3    0    0 -0.52909938092E+02  0.85987115768E+01 -0.96336980390E+02  0.11025068336E+03  0.10000000000E+01 0.  0.
<mgrwt>
<rscale>  0 0.12499800E+03</rscale>
<asrwt>0</asrwt>
<pdfrwt beam="1">  1        4 0.71563118E-02 0.12499800E+03</pdfrwt>
<pdfrwt beam="2">  1       -4 0.34114332E-01 0.12499800E+03</pdfrwt>
<totfact> 0.17821981E+03</totfact>
</mgrwt>
</event>
<event>
 5    1  0.1466870E-002  0.1250007E+03  0.7818608E-02  0.1235068E+00
          4   -1    0    0  501    0  0.00000000000E+00  0.00000000000E+00  0.11900388020E+03  0.11901065667E+03  0.12700000000E+01 0.  1.
         -4   -1    0    0    0  501 -0.00000000000E+00 -0.00000000000E+00 -0.32804950885E+02  0.32829524860E+02  0.12700000000E+01 0.  1.
         25    2    1    2    0    0  0.00000000000E+00  0.00000000000E+00  0.86198929312E+02  0.15184018153E+03  0.12500074125E+03 0.  0.
    9000005    1    3    3    0    0 -0.13585646492E+01 -0.58115712567E+02  0.70958945446E+02  0.91735781916E+02  0.10000000000E+01 0.  0.
    9000005    1    3    3    0    0  0.13585646492E+01  0.58115712567E+02  0.15239983866E+02  0.60104399617E+02  0.10000000000E+01 0.  0.
<mgrwt>
<rscale>  0 0.12500074E+03</rscale>
<asrwt>0</asrwt>
<pdfrwt beam="1">  1        4 0.29754889E-01 0.12500074E+03</pdfrwt>
<pdfrwt beam="2">  1       -4 0.82051566E-02 0.12500074E+03</pdfrwt>
<totfact> 0.18448350E+03</totfact>
</mgrwt>
</event>
<event>
 5    1  0.1466870E-002  0.1249958E+03  0.7818608E-02  0.1235076E+00
          4   -1    0    0  501    0  0.00000000000E+00  0.00000000000E+00  0.55282689148E+02  0.55297274973E+02  0.12700000000E+01 0.  1.
         -4   -1    0    0    0  501 -0.00000000000E+00 -0.00000000000E+00 -0.70625149536E+02  0.70636567350E+02  0.12700000000E+01 0.  1.
         25    2    1    2    0    0  0.00000000000E+00  0.00000000000E+00 -0.15342460388E+02  0.12593384232E+03  0.12499576613E+03 0.  0.
    9000005    1    3    3    0    0 -0.49735812243E+02 -0.32028356698E+02 -0.27959855117E+02  0.65438674730E+02  0.10000000000E+01 0.  0.
    9000005    1    3    3    0    0  0.49735812243E+02  0.32028356698E+02  0.12617394730E+02  0.60495167592E+02  0.10000000000E+01 0.  0.
<mgrwt>
<rscale>  0 0.12499577E+03</rscale>
<asrwt>0</asrwt>
<pdfrwt beam="1">  1        4 0.13823923E-01 0.12499577E+03</pdfrwt>
<pdfrwt beam="2">  1       -4 0.17659538E-01 0.12499577E+03</pdfrwt>
<totfact> 0.19786455E+03</totfact>
</mgrwt>
</event>
<event>
 5    1  0.1466870E-002  0.1249918E+03  0.7818608E-02  0.1235082E+00
         -4   -1    0    0    0  501 -0.00000000000E+00  0.00000000000E+00  0.87037430206E+02  0.87046695267E+02  0.12700000000E+01 0.  1.
          4   -1    0    0  501    0  0.00000000000E+00 -0.00000000000E+00 -0.44853574526E+02  0.44871550539E+02  0.12700000000E+01 0.  1.
         25    2    1    2    0    0  0.00000000000E+00  0.00000000000E+00  0.42183855680E+02  0.13191824581E+03  0.12499178332E+03 0.  0.
    9000005    1    3    3    0    0  0.62702181501E+01  0.59817312413E+02  0.38981450588E+02  0.71679704170E+02  0.10000000000E+01 0.  0.
    9000005    1    3    3    0    0 -0.62702181501E+01 -0.59817312413E+02  0.32024050920E+01  0.60238541635E+02  0.10000000000E+01 0.  0.
<mgrwt>
<rscale>  0 0.12499178E+03</rscale>
<asrwt>0</asrwt>
<pdfrwt beam="2">  1        4 0.11216799E-01 0.12499178E+03</pdfrwt>
<pdfrwt beam="1">  1       -4 0.21762762E-01 0.12499178E+03</pdfrwt>
<totfact> 0.19465536E+03</totfact>
</mgrwt>
</event>
<event>
 5    1  0.1466870E-002  0.1250031E+03  0.7818608E-02  0.1235064E+00
         -4   -1    0    0    0  501 -0.00000000000E+00  0.00000000000E+00  0.25811081357E+03  0.25811393798E+03  0.12700000000E+01 0. -1.
          4   -1    0    0  501    0  0.00000000000E+00 -0.00000000000E+00 -0.15104899193E+02  0.15158195131E+02  0.12700000000E+01 0. -1.
         25    2    1    2    0    0  0.00000000000E+00  0.00000000000E+00  0.24300591437E+03  0.27327213311E+03  0.12500313722E+03 0.  0.
    9000005    1    3    3    0    0 -0.13713234258E+02 -0.49509920459E+02  0.19929208655E+03  0.20580967125E+03  0.10000000000E+01 0.  0.
    9000005    1    3    3    0    0  0.13713234258E+02  0.49509920459E+02  0.43713827824E+02  0.67462461864E+02  0.10000000000E+01 0.  0.
<mgrwt>
<rscale>  0 0.12500314E+03</rscale>
<asrwt>0</asrwt>
<pdfrwt beam="2">  1        4 0.37832773E-02 0.12500314E+03</pdfrwt>
<pdfrwt beam="1">  1       -4 0.64534757E-01 0.12500314E+03</pdfrwt>
<totfact> 0.13753674E+03</totfact>
</mgrwt>
</event>
<event>
 5    1  0.1466870E-002  0.1250017E+03  0.7818608E-02  0.1235067E+00
         -4   -1    0    0    0  501 -0.00000000000E+00  0.00000000000E+00  0.40809908801E+02  0.40829665151E+02  0.12700000000E+01 0.  1.
          4   -1    0    0  501    0  0.00000000000E+00 -0.00000000000E+00 -0.95673621053E+02  0.95682049860E+02  0.12700000000E+01 0.  1.
         25    2    1    2    0    0  0.00000000000E+00  0.00000000000E+00 -0.54863712252E+02  0.13651171501E+03  0.12500168564E+03 0.  0.
    9000005    1    3    3    0    0  0.46212895335E+00  0.19821119990E+02 -0.92153224501E+02  0.94267211409E+02  0.10000000000E+01 0.  0.
    9000005    1    3    3    0    0 -0.46212895335E+00 -0.19821119990E+02  0.37289512249E+02  0.42244503603E+02  0.10000000000E+01 0.  0.
<mgrwt>
<rscale>  0 0.12500169E+03</rscale>
<asrwt>0</asrwt>
<pdfrwt beam="2">  1        4 0.23921928E-01 0.12500169E+03</pdfrwt>
<pdfrwt beam="1">  1       -4 0.10206001E-01 0.12500169E+03</pdfrwt>
<totfact> 0.19219490E+03</totfact>
</mgrwt>
</event>
<event>
 5    1  0.1466870E-002  0.1249993E+03  0.7818608E-02  0.1235070E+00
          4   -1    0    0  501    0  0.00000000000E+00  0.00000000000E+00  0.40890964829E+01  0.42817765059E+01  0.12700000000E+01 0. -1.
         -4   -1    0    0    0  501 -0.00000000000E+00 -0.00000000000E+00 -0.93309208667E+03  0.93309295095E+03  0.12700000000E+01 0. -1.
         25    2    1    2    0    0  0.00000000000E+00  0.00000000000E+00 -0.92900299019E+03  0.93737472746E+03  0.12499929556E+03 0.  0.
    9000005    1    3    3    0    0 -0.26136670238E+02 -0.51441941669E+01 -0.40582297629E+02  0.48554208321E+02  0.10000000000E+01 0.  0.
    9000005    1    3    3    0    0  0.26136670238E+02  0.51441941669E+01 -0.88842069256E+03  0.88882051913E+03  0.10000000000E+01 0.  0.
<mgrwt>
<rscale>  0 0.12499930E+03</rscale>
<asrwt>0</asrwt>
<pdfrwt beam="1">  1        4 0.10464703E-02 0.12499930E+03</pdfrwt>
<pdfrwt beam="2">  1       -4 0.23329650E+00 0.12499930E+03</pdfrwt>
<totfact> 0.41489645E+02</totfact>
</mgrwt>
</event>
<event>
 5    1  0.1466870E-002  0.1249993E+03  0.7818608E-02  0.1235070E+00
         -4   -1    0    0    0  501 -0.00000000000E+00  0.00000000000E+00  0.18196779662E+02  0.18241044106E+02  0.12700000000E+01 0. -1.
          4   -1    0    0  501    0  0.00000000000E+00 -0.00000000000E+00 -0.21435779850E+03  0.21436156063E+03  0.12700000000E+01 0. -1.
         25    2    1    2    0    0  0.00000000000E+00  0.00000000000E+00 -0.19616101884E+03  0.23260260474E+03  0.12499930568E+03 0.  0.
    9000005    1    3    3    0    0  0.37122409349E+02  0.47643596472E+02 -0.12792472866E+03  0.14146986168E+03  0.10000000000E+01 0.  0.
    9000005    1    3    3    0    0 -0.37122409349E+02 -0.47643596472E+02 -0.68236290173E+02  0.91132743058E+02  0.10000000000E+01 0.  0.
<mgrwt>
<rscale>  0 0.12499931E+03</rscale>
<asrwt>0</asrwt>
<pdfrwt beam="2">  1        4 0.53595445E-01 0.12499931E+03</pdfrwt>
<pdfrwt beam="1">  1       -4 0.45551989E-02 0.12499931E+03</pdfrwt>
<totfact> 0.15095001E+03</totfact>
</mgrwt>
</event>
<event>
 5    1  0.1466870E-002  0.1249813E+03  0.7818608E-02  0.1235099E+00
         -4   -1    0    0    0  501 -0.00000000000E+00  0.00000000000E+00  0.69527395978E+02  0.69538994035E+02  0.12700000000E+01 0.  1.
          4   -1    0    0  501    0  0.00000000000E+00 -0.00000000000E+00 -0.56142591751E+02  0.56156954231E+02  0.12700000000E+01 0.  1.
         25    2    1    2    0    0  0.00000000000E+00  0.00000000000E+00  0.13384804227E+02  0.12569594827E+03  0.12498127230E+03 0.  0.
    9000005    1    3    3    0    0 -0.20279925283E+02 -0.18860002897E+02  0.63022542297E+02  0.68846321008E+02  0.10000000000E+01 0.  0.
    9000005    1    3    3    0    0  0.20279925283E+02  0.18860002897E+02 -0.49637738070E+02  0.56849627258E+02  0.10000000000E+01 0.  0.
<mgrwt>
<rscale>  0 0.12498127E+03</rscale>
<asrwt>0</asrwt>
<pdfrwt beam="2">  1        4 0.14038893E-01 0.12498127E+03</pdfrwt>
<pdfrwt beam="1">  1       -4 0.17385094E-01 0.12498127E+03</pdfrwt>
<totfact> 0.19806036E+03</totfact>
</mgrwt>
</event>
<event>
 5    1  0.1466870E-002  0.1249988E+03  0.7818608E-02  0.1235071E+00
          4   -1    0    0  501    0  0.00000000000E+00  0.00000000000E+00  0.69925611781E+02  0.69937143801E+02  0.12700000000E+01 0. -1.
         -4   -1    0    0    0  501 -0.00000000000E+00 -0.00000000000E+00 -0.55838493220E+02  0.55852933899E+02  0.12700000000E+01 0. -1.
         25    2    1    2    0    0  0.00000000000E+00  0.00000000000E+00  0.14087118561E+02  0.12579007770E+03  0.12499878695E+03 0.  0.
    9000005    1    3    3    0    0 -0.45064775351E+02 -0.18705257772E+02 -0.32247856990E+02  0.58494828201E+02  0.10000000000E+01 0.  0.
    9000005    1    3    3    0    0  0.45064775351E+02  0.18705257772E+02  0.46334975551E+02  0.67295249499E+02  0.10000000000E+01 0.  0.
<mgrwt>
<rscale>  0 0.12499879E+03</rscale>
<asrwt>0</asrwt>
<pdfrwt beam="1">  1        4 0.17484649E-01 0.12499879E+03</pdfrwt>
<pdfrwt beam="2">  1       -4 0.13962870E-01 0.12499879E+03</pdfrwt>
<totfact> 0.19792830E+03</totfact>
</mgrwt>
</event>
<event>
 5    1  0.1466870E-002  0.1249991E+03  0.7818608E-02  0.1235071E+00
         -4   -1    0    0    0  501 -0.00000000000E+00  0.00000000000E+00  0.10336776100E+03  0.10337556246E+03  0.12700000000E+01 0.  1.
          4   -1    0    0  501    0  0.00000000000E+00 -0.00000000000E+00 -0.37769355582E+02  0.37790701517E+02  0.12700000000E+01 0.  1.
         25    2    1    2    0    0  0.00000000000E+00  0.00000000000E+00  0.65598405421E+02  0.14116626398E+03  0.12499905317E+03 0.  0.
    9000005    1    3    3    0    0  0.24091929267E+02 -0.54279276361E+02  0.54771441344E+02  0.80793388870E+02  0.10000000000E+01 0.  0.
    9000005    1    3    3    0    0 -0.24091929267E+02  0.54279276361E+02  0.10826964077E+02  0.60372875112E+02  0.10000000000E+01 0.  0.
<mgrwt>
<rscale>  0 0.12499905E+03</rscale>
<asrwt>0</asrwt>
<pdfrwt beam="2">  1        4 0.94459824E-02 0.12499905E+03</pdfrwt>
<pdfrwt beam="1">  1       -4 0.25845583E-01 0.12499905E+03</pdfrwt>
<totfact> 0.18981255E+03</totfact>
</mgrwt>
</event>
<event>
 5    1  0.1466870E-002  0.1249941E+03  0.7818608E-02  0.1235079E+00
         -4   -1    0    0    0  501 -0.00000000000E+00  0.00000000000E+00  0.82953767695E+01  0.83920304901E+01  0.12700000000E+01 0.  1.
          4   -1    0    0  501    0  0.00000000000E+00 -0.00000000000E+00 -0.46802544754E+03  0.46802717063E+03  0.12700000000E+01 0.  1.
         25    2    1    2    0    0  0.00000000000E+00  0.00000000000E+00 -0.45973007077E+03  0.47641920112E+03  0.12499406875E+03 0.  0.
    9000005    1    3    3    0    0 -0.60127231901E+02  0.15947685819E+02 -0.20722997344E+03  0.21636745271E+03  0.10000000000E+01 0.  0.
    9000005    1    3    3    0    0  0.60127231901E+02 -0.15947685819E+02 -0.25250009733E+03  0.26005174841E+03  0.10000000000E+01 0.  0.
<mgrwt>
<rscale>  0 0.12499407E+03</rscale>
<asrwt>0</asrwt>
<pdfrwt beam="2">  1        4 0.11701857E+00 0.12499407E+03</pdfrwt>
<pdfrwt beam="1">  1       -4 0.20861429E-02 0.12499407E+03</pdfrwt>
<totfact> 0.91471659E+02</totfact>
</mgrwt>
</event>
<event>
 5    1  0.1466870E-002  0.1250005E+03  0.7818608E-02  0.1235069E+00
          4   -1    0    0  501    0  0.00000000000E+00  0.00000000000E+00  0.29907722073E+03  0.29907991718E+03  0.12700000000E+01 0. -1.
         -4   -1    0    0    0  501 -0.00000000000E+00 -0.00000000000E+00 -0.13027471412E+02  0.13089228831E+02  0.12700000000E+01 0. -1.
         25    2    1    2    0    0  0.00000000000E+00  0.00000000000E+00  0.28604974932E+03  0.31216914601E+03  0.12500046654E+03 0.  0.
    9000005    1    3    3    0    0 -0.17985432616E+02  0.40375040148E+01  0.29214583111E+03  0.29272848146E+03  0.10000000000E+01 0.  0.
    9000005    1    3    3    0    0  0.17985432616E+02 -0.40375040148E+01 -0.60960817872E+01  0.19440664552E+02  0.10000000000E+01 0.  0.
<mgrwt>
<rscale>  0 0.12500047E+03</rscale>
<asrwt>0</asrwt>
<pdfrwt beam="1">  1        4 0.74777364E-01 0.12500047E+03</pdfrwt>
<pdfrwt beam="2">  1       -4 0.32649245E-02 0.12500047E+03</pdfrwt>
<totfact> 0.12636583E+03</totfact>
</mgrwt>
</event>
<event>
 5    1  0.1466870E-002  0.1250028E+03  0.7818608E-02  0.1235065E+00
         -4   -1    0    0    0  501 -0.00000000000E+00  0.00000000000E+00  0.96496231253E+02  0.96504588212E+02  0.12700000000E+01 0. -1.
          4   -1    0    0  501    0  0.00000000000E+00 -0.00000000000E+00 -0.40462567276E+02  0.40482493137E+02  0.12700000000E+01 0. -1.
         25    2    1    2    0    0  0.00000000000E+00  0.00000000000E+00  0.56033663977E+02  0.13698708135E+03  0.12500275580E+03 0.  0.
    9000005    1    3    3    0    0 -0.59525139566E+02 -0.46724939488E+01  0.48234054857E+02  0.76763262619E+02  0.10000000000E+01 0.  0.
    9000005    1    3    3    0    0  0.59525139566E+02  0.46724939488E+01  0.77996091199E+01  0.60223818730E+02  0.10000000000E+01 0.  0.
<mgrwt>
<rscale>  0 0.12500276E+03</rscale>
<asrwt>0</asrwt>
<pdfrwt beam="2">  1        4 0.10119177E-01 0.12500276E+03</pdfrwt>
<pdfrwt beam="1">  1       -4 0.24127593E-01 0.12500276E+03</pdfrwt>
<totfact> 0.19194322E+03</totfact>
</mgrwt>
</event>
<event>
 5    1  0.1466870E-002  0.1250006E+03  0.7818608E-02  0.1235068E+00
         -4   -1    0    0    0  501 -0.00000000000E+00  0.00000000000E+00  0.58344832204E+02  0.58358652700E+02  0.12700000000E+01 0.  1.
          4   -1    0    0  501    0  0.00000000000E+00 -0.00000000000E+00 -0.66923922129E+02  0.66935971294E+02  0.12700000000E+01 0.  1.
         25    2    1    2    0    0  0.00000000000E+00  0.00000000000E+00 -0.85790899246E+01  0.12529462399E+03  0.12500056807E+03 0.  0.
    9000005    1    3    3    0    0 -0.28348718722E+02  0.26105433261E+02 -0.53600211762E+02  0.66023679085E+02  0.10000000000E+01 0.  0.
    9000005    1    3    3    0    0  0.28348718722E+02 -0.26105433261E+02  0.45021121838E+02  0.59270944910E+02  0.10000000000E+01 0.  0.
<mgrwt>
<rscale>  0 0.12500057E+03</rscale>
<asrwt>0</asrwt>
<pdfrwt beam="2">  1        4 0.16734214E-01 0.12500057E+03</pdfrwt>
<pdfrwt beam="1">  1       -4 0.14589442E-01 0.12500057E+03</pdfrwt>
<totfact> 0.19818822E+03</totfact>
</mgrwt>
</event>
<event>
 5    1  0.1466870E-002  0.1249993E+03  0.7818608E-02  0.1235070E+00
          4   -1    0    0  501    0  0.00000000000E+00  0.00000000000E+00  0.57086919835E+02  0.57101044791E+02  0.12700000000E+01 0.  1.
         -4   -1    0    0    0  501 -0.00000000000E+00 -0.00000000000E+00 -0.68397074328E+02  0.68408864021E+02  0.12700000000E+01 0.  1.
         25    2    1    2    0    0  0.00000000000E+00  0.00000000000E+00 -0.11310154493E+02  0.12550990881E+03  0.12499927046E+03 0.  0.
    9000005    1    3    3    0    0 -0.61639940508E+02  0.99414086427E+01 -0.30193715199E+01  0.62517441374E+02  0.10000000000E+01 0.  0.
    9000005    1    3    3    0    0  0.61639940508E+02 -0.99414086427E+01 -0.82907829735E+01  0.62992467438E+02  0.10000000000E+01 0.  0.
<mgrwt>
<rscale>  0 0.12499927E+03</rscale>
<asrwt>0</asrwt>
<pdfrwt beam="1">  1        4 0.14274969E-01 0.12499927E+03</pdfrwt>
<pdfrwt beam="2">  1       -4 0.17102508E-01 0.12499927E+03</pdfrwt>
<totfact> 0.19807765E+03</totfact>
</mgrwt>
</event>
<event>
 5    1  0.1466870E-002  0.1250057E+03  0.7818608E-02  0.1235060E+00
          4   -1    0    0  501    0  0.00000000000E+00  0.00000000000E+00  0.34491455132E+02  0.34514828365E+02  0.12700000000E+01 0. -1.
         -4   -1    0    0    0  501 -0.00000000000E+00 -0.00000000000E+00 -0.11319778065E+03  0.11320490468E+03  0.12700000000E+01 0. -1.
         25    2    1    2    0    0  0.00000000000E+00  0.00000000000E+00 -0.78706325517E+02  0.14771973305E+03  0.12500573529E+03 0.  0.
    9000005    1    3    3    0    0 -0.40483028144E+00  0.12934727780E+02 -0.11160288885E+03  0.11235513282E+03  0.10000000000E+01 0.  0.
    9000005    1    3    3    0    0  0.40483028144E+00 -0.12934727780E+02  0.32896563334E+02  0.35364600230E+02  0.10000000000E+01 0.  0.
<mgrwt>
<rscale>  0 0.12500574E+03</rscale>
<asrwt>0</asrwt>
<pdfrwt beam="1">  1        4 0.86266762E-02 0.12500574E+03</pdfrwt>
<pdfrwt beam="2">  1       -4 0.28303256E-01 0.12500574E+03</pdfrwt>
<totfact> 0.18648983E+03</totfact>
</mgrwt>
</event>
<event>
 5    1  0.1466870E-002  0.1250018E+03  0.7818608E-02  0.1235067E+00
         -4   -1    0    0    0  501 -0.00000000000E+00  0.00000000000E+00  0.79241163281E+01  0.80252426493E+01  0.12700000000E+01 0.  1.
          4   -1    0    0  501    0  0.00000000000E+00 -0.00000000000E+00 -0.48974350381E+03  0.48974515049E+03  0.12700000000E+01 0.  1.
         25    2    1    2    0    0  0.00000000000E+00  0.00000000000E+00 -0.48181938748E+03  0.49777039314E+03  0.12500176850E+03 0.  0.
    9000005    1    3    3    0    0  0.61087988579E+02  0.10363728054E+02 -0.27331223267E+03  0.28024939917E+03  0.10000000000E+01 0.  0.
    9000005    1    3    3    0    0 -0.61087988579E+02 -0.10363728054E+02 -0.20850715481E+03  0.21752099396E+03  0.10000000000E+01 0.  0.
<mgrwt>
<rscale>  0 0.12500177E+03</rscale>
<asrwt>0</asrwt>
<pdfrwt beam="2">  1        4 0.12244862E+00 0.12500177E+03</pdfrwt>
<pdfrwt beam="1">  1       -4 0.19938774E-02 0.12500177E+03</pdfrwt>
<totfact> 0.87959185E+02</totfact>
</mgrwt>
</event>
<event>
 5    1  0.1466870E-002  0.1249938E+03  0.7818608E-02  0.1235079E+00
          4   -1    0    0  501    0  0.00000000000E+00  0.00000000000E+00  0.20017368640E+03  0.20017771511E+03  0.12700000000E+01 0. -1.
         -4   -1    0    0    0  501 -0.00000000000E+00 -0.00000000000E+00 -0.19487485155E+02  0.19528824277E+02  0.12700000000E+01 0. -1.
         25    2    1    2    0    0  0.00000000000E+00  0.00000000000E+00  0.18068620125E+03  0.21970653939E+03  0.12499384037E+03 0.  0.
    9000005    1    3    3    0    0 -0.60452542294E+02  0.54403333504E+01  0.11645945386E+03  0.13133130430E+03  0.10000000000E+01 0.  0.
    9000005    1    3    3    0    0  0.60452542294E+02 -0.54403333504E+01  0.64226747393E+02  0.88375235091E+02  0.10000000000E+01 0.  0.
<mgrwt>
<rscale>  0 0.12499384E+03</rscale>
<asrwt>0</asrwt>
<pdfrwt beam="1">  1        4 0.50049093E-01 0.12499384E+03</pdfrwt>
<pdfrwt beam="2">  1       -4 0.48775422E-02 0.12499384E+03</pdfrwt>
<totfact> 0.15564442E+03</totfact>
</mgrwt>
</event>
<event>
 5    1  0.1466870E-002  0.1250031E+03  0.7818608E-02  0.1235064E+00
          4   -1    0    0  501    0  0.00000000000E+00  0.00000000000E+00  0.69396866788E+02  0.69408486657E+02  0.12700000000E+01 0.  1.
         -4   -1    0    0    0  501 -0.00000000000E+00 -0.00000000000E+00 -0.56267826881E+02  0.56282157403E+02  0.12700000000E+01 0.  1.
         25    2    1    2    0    0  0.00000000000E+00  0.00000000000E+00  0.13129039907E+02  0.12569064406E+03  0.12500306522E+03 0.  0.
    9000005    1    3    3    0    0 -0.61258014347E+01  0.82471269704E+01  0.68546926163E+02  0.69319705949E+02  0.10000000000E+01 0.  0.
    9000005    1    3    3    0    0  0.61258014347E+01 -0.82471269704E+01 -0.55417886256E+02  0.56370938111E+02  0.10000000000E+01 0.  0.
<mgrwt>
<rscale>  0 0.12500307E+03</rscale>
<asrwt>0</asrwt>
<pdfrwt beam="1">  1        4 0.17352460E-01 0.12500307E+03</pdfrwt>
<pdfrwt beam="2">  1       -4 0.14070201E-01 0.12500307E+03</pdfrwt>
<totfact> 0.19796227E+03</totfact>
</mgrwt>
</event>
<event>
 5    1  0.1466870E-002  0.1249967E+03  0.7818608E-02  0.1235074E+00
          4   -1    0    0  501    0  0.00000000000E+00  0.00000000000E+00  0.91302079782E+02  0.91310912122E+02  0.12700000000E+01 0. -1.
         -4   -1    0    0    0  501 -0.00000000000E+00 -0.00000000000E+00 -0.42761185673E+02  0.42780040908E+02  0.12700000000E+01 0. -1.
         25    2    1    2    0    0  0.00000000000E+00  0.00000000000E+00  0.48540894109E+02  0.13409095303E+03  0.12499666109E+03 0.  0.
    9000005    1    3    3    0    0  0.46143677717E+02  0.40758824777E+02  0.12790424519E+02  0.62889711002E+02  0.10000000000E+01 0.  0.
    9000005    1    3    3    0    0 -0.46143677717E+02 -0.40758824777E+02  0.35750469590E+02  0.71201242029E+02  0.10000000000E+01 0.  0.
<mgrwt>
<rscale>  0 0.12499666E+03</rscale>
<asrwt>0</asrwt>
<pdfrwt beam="1">  1        4 0.22828981E-01 0.12499666E+03</pdfrwt>
<pdfrwt beam="2">  1       -4 0.10693757E-01 0.12499666E+03</pdfrwt>
<totfact> 0.19348365E+03</totfact>
</mgrwt>
</event>
<event>
 5    1  0.1466870E-002  0.1250002E+03  0.7818608E-02  0.1235069E+00
         -4   -1    0    0    0  501 -0.00000000000E+00  0.00000000000E+00  0.72636695347E+02  0.72647797014E+02  0.12700000000E+01 0.  1.
          4   -1    0    0  501    0  0.00000000000E+00 -0.00000000000E+00 -0.53755370060E+02  0.53770370189E+02  0.12700000000E+01 0.  1.
         25    2    1    2    0    0  0.00000000000E+00  0.00000000000E+00  0.18881325287E+02  0.12641816720E+03  0.12500019422E+03 0.  0.
    9000005    1    3    3    0    0  0.73522122165E+01  0.59815322094E+02  0.26161033811E+02  0.65706373144E+02  0.10000000000E+01 0.  0.
    9000005    1    3    3    0    0 -0.73522122165E+01 -0.59815322094E+02 -0.72797085237E+01  0.60711794059E+02  0.10000000000E+01 0.  0.
<mgrwt>
<rscale>  0 0.12500019E+03</rscale>
<asrwt>0</asrwt>
<pdfrwt beam="2">  1        4 0.13442105E-01 0.12500019E+03</pdfrwt>
<pdfrwt beam="1">  1       -4 0.18162436E-01 0.12500019E+03</pdfrwt>
<totfact> 0.19758250E+03</totfact>
</mgrwt>
</event>
<event>
 5    1  0.1466870E-002  0.1249981E+03  0.7818608E-02  0.1235072E+00
          4   -1    0    0  501    0  0.00000000000E+00  0.00000000000E+00  0.16979525047E+02  0.17026954244E+02  0.12700000000E+01 0. -1.
         -4   -1    0    0    0  501 -0.00000000000E+00 -0.00000000000E+00 -0.22967952034E+03  0.22968303151E+03  0.12700000000E+01 0. -1.
         25    2    1    2    0    0  0.00000000000E+00  0.00000000000E+00 -0.21269999529E+03  0.24670998576E+03  0.12499811628E+03 0.  0.
    9000005    1    3    3    0    0  0.32302955299E+02  0.42980662697E+02 -0.43490708430E+02  0.69161116292E+02  0.10000000000E+01 0.  0.
    9000005    1    3    3    0    0 -0.32302955299E+02 -0.42980662697E+02 -0.16920928686E+03  0.17754886946E+03  0.10000000000E+01 0.  0.
<mgrwt>
<rscale>  0 0.12499812E+03</rscale>
<asrwt>0</asrwt>
<pdfrwt beam="1">  1        4 0.42512495E-02 0.12499812E+03</pdfrwt>
<pdfrwt beam="2">  1       -4 0.57426238E-01 0.12499812E+03</pdfrwt>
<totfact> 0.14608684E+03</totfact>
</mgrwt>
</event>
<event>
 5    1  0.1466870E-002  0.1249993E+03  0.7818608E-02  0.1235070E+00
         -4   -1    0    0    0  501 -0.00000000000E+00  0.00000000000E+00  0.11239573600E+03  0.11240291086E+03  0.12700000000E+01 0.  1.
          4   -1    0    0  501    0  0.00000000000E+00 -0.00000000000E+00 -0.34734131272E+02  0.34757341314E+02  0.12700000000E+01 0.  1.
         25    2    1    2    0    0  0.00000000000E+00  0.00000000000E+00  0.77661604724E+02  0.14716025218E+03  0.12499925989E+03 0.  0.
    9000005    1    3    3    0    0 -0.55942949453E+02 -0.90875169139E+01  0.69822969874E+02  0.89935775302E+02  0.10000000000E+01 0.  0.
    9000005    1    3    3    0    0  0.55942949453E+02  0.90875169139E+01  0.78386348501E+01  0.57224476873E+02  0.10000000000E+01 0.  0.
<mgrwt>
<rscale>  0 0.12499926E+03</rscale>
<asrwt>0</asrwt>
<pdfrwt beam="2">  1        4 0.86873309E-02 0.12499926E+03</pdfrwt>
<pdfrwt beam="1">  1       -4 0.28102732E-01 0.12499926E+03</pdfrwt>
<totfact> 0.18679620E+03</totfact>
</mgrwt>
</event>
<event>
 5    1  0.1466870E-002  0.1249910E+03  0.7818608E-02  0.1235083E+00
          4   -1    0    0  501    0  0.00000000000E+00  0.00000000000E+00  0.23394723125E+02  0.23429169214E+02  0.12700000000E+01 0. -1.
         -4   -1    0    0    0  501 -0.00000000000E+00 -0.00000000000E+00 -0.16678772912E+03  0.16679256424E+03  0.12700000000E+01 0. -1.
         25    2    1    2    0    0  0.00000000000E+00  0.00000000000E+00 -0.14339300600E+03  0.19022173345E+03  0.12499101451E+03 0.  0.
    9000005    1    3    3    0    0 -0.54756783346E+02 -0.14421176125E+02 -0.31476932170E+02  0.64792537395E+02  0.10000000000E+01 0.  0.
    9000005    1    3    3    0    0  0.54756783346E+02  0.14421176125E+02 -0.11191607383E+03  0.12542919606E+03  0.10000000000E+01 0.  0.
<mgrwt>
<rscale>  0 0.12499101E+03</rscale>
<asrwt>0</asrwt>
<pdfrwt beam="1">  1        4 0.58535914E-02 0.12499101E+03</pdfrwt>
<pdfrwt beam="2">  1       -4 0.41701839E-01 0.12499101E+03</pdfrwt>
<totfact> 0.16724693E+03</totfact>
</mgrwt>
</event>
<event>
 5    1  0.1466870E-002  0.1249922E+03  0.7818608E-02  0.1235082E+00
          4   -1    0    0  501    0  0.00000000000E+00  0.00000000000E+00  0.37228571246E+02  0.37250227074E+02  0.12700000000E+01 0. -1.
         -4   -1    0    0    0  501 -0.00000000000E+00 -0.00000000000E+00 -0.10485694881E+03  0.10486463948E+03  0.12700000000E+01 0. -1.
         25    2    1    2    0    0  0.00000000000E+00  0.00000000000E+00 -0.67628377564E+02  0.14211486656E+03  0.12499215113E+03 0.  0.
    9000005    1    3    3    0    0 -0.16875679222E+02  0.10851559684E+02 -0.10110072064E+03  0.10307715853E+03  0.10000000000E+01 0.  0.
    9000005    1    3    3    0    0  0.16875679222E+02 -0.10851559684E+02  0.33472343077E+02  0.39037708025E+02  0.10000000000E+01 0.  0.
<mgrwt>
<rscale>  0 0.12499215E+03</rscale>
<asrwt>0</asrwt>
<pdfrwt beam="1">  1        4 0.93108114E-02 0.12499215E+03</pdfrwt>
<pdfrwt beam="2">  1       -4 0.26217905E-01 0.12499215E+03</pdfrwt>
<totfact> 0.18936131E+03</totfact>
</mgrwt>
</event>
<event>
 5    1  0.1466870E-002  0.1250039E+03  0.7818608E-02  0.1235063E+00
         -4   -1    0    0    0  501 -0.00000000000E+00  0.00000000000E+00  0.41774315351E+02  0.41793615817E+02  0.12700000000E+01 0.  1.
          4   -1    0    0  501    0  0.00000000000E+00 -0.00000000000E+00 -0.93469093094E+02  0.93477720681E+02  0.12700000000E+01 0.  1.
         25    2    1    2    0    0  0.00000000000E+00  0.00000000000E+00 -0.51694777743E+02  0.13527133650E+03  0.12500393767E+03 0.  0.
    9000005    1    3    3    0    0 -0.43173354024E+02  0.39774104779E+02 -0.49045989954E+02  0.76501157110E+02  0.10000000000E+01 0.  0.
    9000005    1    3    3    0    0  0.43173354024E+02 -0.39774104779E+02 -0.26487877888E+01  0.58770179389E+02  0.10000000000E+01 0.  0.
<mgrwt>
<rscale>  0 0.12500394E+03</rscale>
<asrwt>0</asrwt>
<pdfrwt beam="2">  1        4 0.23370764E-01 0.12500394E+03</pdfrwt>
<pdfrwt beam="1">  1       -4 0.10447070E-01 0.12500394E+03</pdfrwt>
<totfact> 0.19283163E+03</totfact>
</mgrwt>
</event>
<event>
 5    1  0.1466870E-002  0.1249883E+03  0.7818608E-02  0.1235088E+00
          4   -1    0    0  501    0  0.00000000000E+00  0.00000000000E+00  0.30013570056E+02  0.30040427552E+02  0.12700000000E+01 0. -1.
         -4   -1    0    0    0  501 -0.00000000000E+00 -0.00000000000E+00 -0.13003695384E+03  0.13004315539E+03  0.12700000000E+01 0. -1.
         25    2    1    2    0    0  0.00000000000E+00  0.00000000000E+00 -0.10002338378E+03  0.16008358294E+03  0.12498830435E+03 0.  0.
    9000005    1    3    3    0    0  0.28988773064E+02 -0.11807399733E+02 -0.11927802478E+03  0.12332076406E+03  0.10000000000E+01 0.  0.
    9000005    1    3    3    0    0 -0.28988773064E+02  0.11807399733E+02  0.19254640999E+02  0.36762818883E+02  0.10000000000E+01 0.  0.
<mgrwt>
<rscale>  0 0.12498830E+03</rscale>
<asrwt>0</asrwt>
<pdfrwt beam="1">  1        4 0.75075252E-02 0.12498830E+03</pdfrwt>
<pdfrwt beam="2">  1       -4 0.32513369E-01 0.12498830E+03</pdfrwt>
<totfact> 0.18058730E+03</totfact>
</mgrwt>
</event>
<event>
 5    1  0.1466870E-002  0.1250002E+03  0.7818608E-02  0.1235069E+00
         -4   -1    0    0    0  501 -0.00000000000E+00  0.00000000000E+00  0.55602396766E+02  0.55616898746E+02  0.12700000000E+01 0. -1.
          4   -1    0    0  501    0  0.00000000000E+00 -0.00000000000E+00 -0.70224121444E+02  0.70235604451E+02  0.12700000000E+01 0. -1.
         25    2    1    2    0    0  0.00000000000E+00  0.00000000000E+00 -0.14621724678E+02  0.12585250320E+03  0.12500023091E+03 0.  0.
    9000005    1    3    3    0    0  0.41951221090E+02 -0.15648102145E+02 -0.51202781047E+02  0.68025677789E+02  0.10000000000E+01 0.  0.
    9000005    1    3    3    0    0 -0.41951221090E+02  0.15648102145E+02  0.36581056369E+02  0.57826825408E+02  0.10000000000E+01 0.  0.
<mgrwt>
<rscale>  0 0.12500023E+03</rscale>
<asrwt>0</asrwt>
<pdfrwt beam="2">  1        4 0.17559278E-01 0.12500023E+03</pdfrwt>
<pdfrwt beam="1">  1       -4 0.13903847E-01 0.12500023E+03</pdfrwt>
<totfact> 0.19788786E+03</totfact>
</mgrwt>
</event>
<event>
 5    1  0.1466870E-002  0.1249988E+03  0.7818608E-02  0.1235071E+00
          4   -1    0    0  501    0  0.00000000000E+00  0.00000000000E+00  0.12764904156E+03  0.12765535912E+03  0.12700000000E+01 0.  1.
         -4   -1    0    0    0  501 -0.00000000000E+00 -0.00000000000E+00 -0.30580657614E+02  0.30607017498E+02  0.12700000000E+01 0.  1.
         25    2    1    2    0    0  0.00000000000E+00  0.00000000000E+00  0.97068383948E+02  0.15826237662E+03  0.12499883475E+03 0.  0.
    9000005    1    3    3    0    0 -0.54737050859E+02  0.17803977475E+02  0.17727063988E+02  0.60235995454E+02  0.10000000000E+01 0.  0.
    9000005    1    3    3    0    0  0.54737050859E+02 -0.17803977475E+02  0.79341319960E+02  0.98026381162E+02  0.10000000000E+01 0.  0.
<mgrwt>
<rscale>  0 0.12499883E+03</rscale>
<asrwt>0</asrwt>
<pdfrwt beam="1">  1        4 0.31916345E-01 0.12499883E+03</pdfrwt>
<pdfrwt beam="2">  1       -4 0.76492492E-02 0.12499883E+03</pdfrwt>
<totfact> 0.18140328E+03</totfact>
</mgrwt>
</event>
<event>
 5    1  0.1466870E-002  0.1249638E+03  0.7818608E-02  0.1235126E+00
          4   -1    0    0  501    0  0.00000000000E+00  0.00000000000E+00  0.81744908378E+01  0.82725570688E+01  0.12700000000E+01 0.  1.
         -4   -1    0    0    0  501 -0.00000000000E+00 -0.00000000000E+00 -0.47463561501E+03  0.47463731410E+03  0.12700000000E+01 0.  1.
         25    2    1    2    0    0  0.00000000000E+00  0.00000000000E+00 -0.46646112417E+03  0.48290987117E+03  0.12496384800E+03 0.  0.
    9000005    1    3    3    0    0  0.48274036279E+02  0.34765434579E+01 -0.38588752786E+03  0.38891214058E+03  0.10000000000E+01 0.  0.
    9000005    1    3    3    0    0 -0.48274036279E+02 -0.34765434579E+01 -0.80573596316E+02  0.93997730592E+02  0.10000000000E+01 0.  0.
<mgrwt>
<rscale>  0 0.12496385E+03</rscale>
<asrwt>0</asrwt>
<pdfrwt beam="1">  1        4 0.20560950E-02 0.12496385E+03</pdfrwt>
<pdfrwt beam="2">  1       -4 0.11867128E+00 0.12496385E+03</pdfrwt>
<totfact> 0.90462496E+02</totfact>
</mgrwt>
</event>
<event>
 5    1  0.1466870E-002  0.1250072E+03  0.7818608E-02  0.1235058E+00
         -4   -1    0    0    0  501 -0.00000000000E+00  0.00000000000E+00  0.14700795246E+03  0.14701343812E+03  0.12700000000E+01 0. -1.
          4   -1    0    0  501    0  0.00000000000E+00 -0.00000000000E+00 -0.26553575276E+02  0.26583928603E+02  0.12700000000E+01 0. -1.
         25    2    1    2    0    0  0.00000000000E+00  0.00000000000E+00  0.12045437719E+03  0.17359736672E+03  0.12500715479E+03 0.  0.
    9000005    1    3    3    0    0 -0.20570763361E+02  0.41171321950E+00  0.14217659358E+03  0.14366109277E+03  0.10000000000E+01 0.  0.
    9000005    1    3    3    0    0  0.20570763361E+02 -0.41171321950E+00 -0.21722216395E+02  0.29936273952E+02  0.10000000000E+01 0.  0.
<mgrwt>
<rscale>  0 0.12500715E+03</rscale>
<asrwt>0</asrwt>
<pdfrwt beam="2">  1        4 0.66428738E-02 0.12500715E+03</pdfrwt>
<pdfrwt beam="1">  1       -4 0.36756467E-01 0.12500715E+03</pdfrwt>
<totfact> 0.17433106E+03</totfact>
</mgrwt>
</event>
<event>
 5    1  0.1466870E-002  0.1249973E+03  0.7818608E-02  0.1235073E+00
          4   -1    0    0  501    0  0.00000000000E+00  0.00000000000E+00  0.56589496981E+02  0.56603746065E+02  0.12700000000E+01 0.  1.
         -4   -1    0    0    0  501 -0.00000000000E+00 -0.00000000000E+00 -0.68996083426E+02  0.69007770780E+02  0.12700000000E+01 0.  1.
         25    2    1    2    0    0  0.00000000000E+00  0.00000000000E+00 -0.12406586444E+02  0.12561151685E+03  0.12499731908E+03 0.  0.
    9000005    1    3    3    0    0 -0.48913821014E+02  0.10382232196E+01 -0.45271600801E+02  0.66664515545E+02  0.10000000000E+01 0.  0.
    9000005    1    3    3    0    0  0.48913821014E+02 -0.10382232196E+01  0.32865014357E+02  0.58947001301E+02  0.10000000000E+01 0.  0.
<mgrwt>
<rscale>  0 0.12499732E+03</rscale>
<asrwt>0</asrwt>
<pdfrwt beam="1">  1        4 0.14150616E-01 0.12499732E+03</pdfrwt>
<pdfrwt beam="2">  1       -4 0.17252263E-01 0.12499732E+03</pdfrwt>
<totfact> 0.19803170E+03</totfact>
</mgrwt>
</event>
<event>
 5    1  0.1466870E-002  0.1250082E+03  0.7818608E-02  0.1235056E+00
          4   -1    0    0  501    0  0.00000000000E+00  0.00000000000E+00  0.15388605572E+02  0.15440922299E+02  0.12700000000E+01 0.  1.
         -4   -1    0    0    0  501 -0.00000000000E+00 -0.00000000000E+00 -0.25338914937E+03  0.25339233201E+03  0.12700000000E+01 0.  1.
         25    2    1    2    0    0  0.00000000000E+00  0.00000000000E+00 -0.23800054380E+03  0.26883325431E+03  0.12500823881E+03 0.  0.
    9000005    1    3    3    0    0 -0.20068736463E+02 -0.11057867986E+02  0.60399897007E+01  0.23717337607E+02  0.10000000000E+01 0.  0.
    9000005    1    3    3    0    0  0.20068736463E+02  0.11057867986E+02 -0.24404053350E+03  0.24511591670E+03  0.10000000000E+01 0.  0.
<mgrwt>
<rscale>  0 0.12500824E+03</rscale>
<asrwt>0</asrwt>
<pdfrwt beam="1">  1        4 0.38540896E-02 0.12500824E+03</pdfrwt>
<pdfrwt beam="2">  1       -4 0.63354211E-01 0.12500824E+03</pdfrwt>
<totfact> 0.13889206E+03</totfact>
</mgrwt>
</event>
<event>
 5    1  0.1466870E-002  0.1249748E+03  0.7818608E-02  0.1235109E+00
          4   -1    0    0  501    0  0.00000000000E+00  0.00000000000E+00  0.72634299067E+02  0.72645401100E+02  0.12700000000E+01 0.  1.
         -4   -1    0    0    0  501 -0.00000000000E+00 -0.00000000000E+00 -0.53735287972E+02  0.53750293705E+02  0.12700000000E+01 0.  1.
         25    2    1    2    0    0  0.00000000000E+00  0.00000000000E+00  0.18899011096E+02  0.12639569481E+03  0.12497479364E+03 0.  0.
    9000005    1    3    3    0    0 -0.42259553778E+02  0.18614670279E+02 -0.33115802715E+02  0.56833372454E+02  0.10000000000E+01 0.  0.
    9000005    1    3    3    0    0  0.42259553778E+02 -0.18614670279E+02  0.52014813811E+02  0.69562322351E+02  0.10000000000E+01 0.  0.
<mgrwt>
<rscale>  0 0.12497479E+03</rscale>
<asrwt>0</asrwt>
<pdfrwt beam="1">  1        4 0.18161838E-01 0.12497479E+03</pdfrwt>
<pdfrwt beam="2">  1       -4 0.13437086E-01 0.12497479E+03</pdfrwt>
<totfact> 0.19771206E+03</totfact>
</mgrwt>
</event>
<event>
 5    1  0.1466870E-002  0.1249948E+03  0.7818608E-02  0.1235077E+00
         -4   -1    0    0    0  501 -0.00000000000E+00  0.00000000000E+00  0.77475134346E+02  0.77485542794E+02  0.12700000000E+01 0.  1.
          4   -1    0    0  501    0  0.00000000000E+00 -0.00000000000E+00 -0.50393412725E+02  0.50409413268E+02  0.12700000000E+01 0.  1.
         25    2    1    2    0    0  0.00000000000E+00  0.00000000000E+00  0.27081721622E+02  0.12789495606E+03  0.12499480045E+03 0.  0.
    9000005    1    3    3    0    0  0.55321976439E+02 -0.19816257161E+02  0.35287697145E+02  0.68552364618E+02  0.10000000000E+01 0.  0.
    9000005    1    3    3    0    0 -0.55321976439E+02  0.19816257161E+02 -0.82059755231E+01  0.59342591444E+02  0.10000000000E+01 0.  0.
<mgrwt>
<rscale>  0 0.12499480E+03</rscale>
<asrwt>0</asrwt>
<pdfrwt beam="2">  1        4 0.12601654E-01 0.12499480E+03</pdfrwt>
<pdfrwt beam="1">  1       -4 0.19372085E-01 0.12499480E+03</pdfrwt>
<totfact> 0.19680640E+03</totfact>
</mgrwt>
</event>
<event>
 5    1  0.1466870E-002  0.1250002E+03  0.7818608E-02  0.1235069E+00
          4   -1    0    0  501    0  0.00000000000E+00  0.00000000000E+00  0.21656565429E+02  0.21693771599E+02  0.12700000000E+01 0.  1.
         -4   -1    0    0    0  501 -0.00000000000E+00 -0.00000000000E+00 -0.18017888576E+03  0.18018336154E+03  0.12700000000E+01 0.  1.
         25    2    1    2    0    0  0.00000000000E+00  0.00000000000E+00 -0.15852232034E+03  0.20187713314E+03  0.12500020336E+03 0.  0.
    9000005    1    3    3    0    0  0.38294446624E+02 -0.39672834632E+02 -0.12675643273E+03  0.13823382976E+03  0.10000000000E+01 0.  0.
    9000005    1    3    3    0    0 -0.38294446624E+02  0.39672834632E+02 -0.31765887603E+02  0.63643303381E+02  0.10000000000E+01 0.  0.
<mgrwt>
<rscale>  0 0.12500020E+03</rscale>
<asrwt>0</asrwt>
<pdfrwt beam="1">  1        4 0.54193521E-02 0.12500020E+03</pdfrwt>
<pdfrwt beam="2">  1       -4 0.45049927E-01 0.12500020E+03</pdfrwt>
<totfact> 0.16247077E+03</totfact>
</mgrwt>
</event>
<event>
 5    1  0.1466870E-002  0.1250015E+03  0.7818608E-02  0.1235067E+00
         -4   -1    0    0    0  501 -0.00000000000E+00  0.00000000000E+00  0.92808804725E+03  0.92808891619E+03  0.12700000000E+01 0.  1.
          4   -1    0    0  501    0  0.00000000000E+00 -0.00000000000E+00 -0.41123284543E+01  0.43039685543E+01  0.12700000000E+01 0.  1.
         25    2    1    2    0    0  0.00000000000E+00  0.00000000000E+00  0.92397571880E+03  0.93239288474E+03  0.12500145036E+03 0.  0.
    9000005    1    3    3    0    0 -0.38773233418E+02  0.30537755069E+02  0.17605949079E+03  0.18284928879E+03  0.10000000000E+01 0.  0.
    9000005    1    3    3    0    0  0.38773233418E+02 -0.30537755069E+02  0.74791622801E+03  0.74954359595E+03  0.10000000000E+01 0.  0.
<mgrwt>
<rscale>  0 0.12500145E+03</rscale>
<asrwt>0</asrwt>
<pdfrwt beam="2">  1        4 0.10521454E-02 0.12500145E+03</pdfrwt>
<pdfrwt beam="1">  1       -4 0.23204615E+00 0.12500145E+03</pdfrwt>
<totfact> 0.41851362E+02</totfact>
</mgrwt>
</event>
<event>
 5    1  0.1466870E-002  0.1250004E+03  0.7818608E-02  0.1235069E+00
         -4   -1    0    0    0  501 -0.00000000000E+00  0.00000000000E+00  0.17473607420E+02  0.17519699092E+02  0.12700000000E+01 0. -1.
          4   -1    0    0  501    0  0.00000000000E+00 -0.00000000000E+00 -0.22321049844E+03  0.22321411137E+03  0.12700000000E+01 0. -1.
         25    2    1    2    0    0  0.00000000000E+00  0.00000000000E+00 -0.20573689102E+03  0.24073381046E+03  0.12500039669E+03 0.  0.
    9000005    1    3    3    0    0  0.26336428281E+02 -0.48950044229E+02 -0.15786731883E+03  0.16737026212E+03  0.10000000000E+01 0.  0.
    9000005    1    3    3    0    0 -0.26336428281E+02  0.48950044229E+02 -0.47869572186E+02  0.73363548345E+02  0.10000000000E+01 0.  0.
<mgrwt>
<rscale>  0 0.12500040E+03</rscale>
<asrwt>0</asrwt>
<pdfrwt beam="2">  1        4 0.55808829E-01 0.12500040E+03</pdfrwt>
<pdfrwt beam="1">  1       -4 0.43746156E-02 0.12500040E+03</pdfrwt>
<totfact> 0.14811070E+03</totfact>
</mgrwt>
</event>
<event>
 5    1  0.1466870E-002  0.1249984E+03  0.7818608E-02  0.1235072E+00
         -4   -1    0    0    0  501 -0.00000000000E+00  0.00000000000E+00  0.82736296194E+02  0.82746042853E+02  0.12700000000E+01 0. -1.
          4   -1    0    0  501    0  0.00000000000E+00 -0.00000000000E+00 -0.47190978067E+02  0.47208064045E+02  0.12700000000E+01 0. -1.
         25    2    1    2    0    0  0.00000000000E+00  0.00000000000E+00  0.35545318127E+02  0.12995410690E+03  0.12499840103E+03 0.  0.
    9000005    1    3    3    0    0  0.46235457797E+02  0.41857472094E+02  0.13694841742E+02  0.63861680358E+02  0.10000000000E+01 0.  0.
    9000005    1    3    3    0    0 -0.46235457797E+02 -0.41857472094E+02  0.21850476385E+02  0.66092426540E+02  0.10000000000E+01 0.  0.
<mgrwt>
<rscale>  0 0.12499840E+03</rscale>
<asrwt>0</asrwt>
<pdfrwt beam="2">  1        4 0.11801099E-01 0.12499840E+03</pdfrwt>
<pdfrwt beam="1">  1       -4 0.20687428E-01 0.12499840E+03</pdfrwt>
<totfact> 0.19567580E+03</totfact>
</mgrwt>
</event>
<event>
 5    1  0.1466870E-002  0.1249810E+03  0.7818608E-02  0.1235099E+00
          4   -1    0    0  501    0  0.00000000000E+00  0.00000000000E+00  0.21109975615E+02  0.21148143428E+02  0.12700000000E+01 0.  1.
         -4   -1    0    0    0  501 -0.00000000000E+00 -0.00000000000E+00 -0.18477927813E+03  0.18478364248E+03  0.12700000000E+01 0.  1.
         25    2    1    2    0    0  0.00000000000E+00  0.00000000000E+00 -0.16366930252E+03  0.20593178591E+03  0.12498103800E+03 0.  0.
    9000005    1    3    3    0    0 -0.48531044057E+02 -0.31715576328E+02 -0.12022739560E+03  0.13347946161E+03  0.10000000000E+01 0.  0.
    9000005    1    3    3    0    0  0.48531044057E+02  0.31715576328E+02 -0.43441906917E+02  0.72452324294E+02  0.10000000000E+01 0.  0.
<mgrwt>
<rscale>  0 0.12498104E+03</rscale>
<asrwt>0</asrwt>
<pdfrwt beam="1">  1        4 0.52828110E-02 0.12498104E+03</pdfrwt>
<pdfrwt beam="2">  1       -4 0.46200131E-01 0.12498104E+03</pdfrwt>
<totfact> 0.16094299E+03</totfact>
</mgrwt>
</event>
<event>
 5    1  0.1466870E-002  0.1249969E+03  0.7818608E-02  0.1235074E+00
         -4   -1    0    0    0  501 -0.00000000000E+00  0.00000000000E+00  0.83140672771E+01  0.84105062088E+01  0.12700000000E+01 0. -1.
          4   -1    0    0  501    0  0.00000000000E+00 -0.00000000000E+00 -0.46700685921E+03  0.46700858605E+03  0.12700000000E+01 0. -1.
         25    2    1    2    0    0  0.00000000000E+00  0.00000000000E+00 -0.45869279193E+03  0.47541909226E+03  0.12499694363E+03 0.  0.
    9000005    1    3    3    0    0 -0.13402674462E+02 -0.57533312877E+02 -0.30686069528E+03  0.31249672011E+03  0.10000000000E+01 0.  0.
    9000005    1    3    3    0    0  0.13402674462E+02  0.57533312877E+02 -0.15183209665E+03  0.16292237215E+03  0.10000000000E+01 0.  0.
<mgrwt>
<rscale>  0 0.12499694E+03</rscale>
<asrwt>0</asrwt>
<pdfrwt beam="2">  1        4 0.11676390E+00 0.12499694E+03</pdfrwt>
<pdfrwt beam="1">  1       -4 0.20907891E-02 0.12499694E+03</pdfrwt>
<totfact> 0.91631812E+02</totfact>
</mgrwt>
</event>
<event>
 5    1  0.1466870E-002  0.1250021E+03  0.7818608E-02  0.1235066E+00
          4   -1    0    0  501    0  0.00000000000E+00  0.00000000000E+00  0.35486168360E+03  0.35486395617E+03  0.12700000000E+01 0.  1.
         -4   -1    0    0    0  501 -0.00000000000E+00 -0.00000000000E+00 -0.10969229224E+02  0.11042503782E+02  0.12700000000E+01 0.  1.
         25    2    1    2    0    0  0.00000000000E+00  0.00000000000E+00  0.34389245438E+03  0.36590645995E+03  0.12500206901E+03 0.  0.
    9000005    1    3    3    0    0 -0.60437642104E+02 -0.13003019736E+02  0.14518316667E+03  0.15780031365E+03  0.10000000000E+01 0.  0.
    9000005    1    3    3    0    0  0.60437642104E+02  0.13003019736E+02  0.19870928771E+03  0.20810614630E+03  0.10000000000E+01 0.  0.
<mgrwt>
<rscale>  0 0.12500207E+03</rscale>
<asrwt>0</asrwt>
<pdfrwt beam="1">  1        4 0.88724864E-01 0.12500207E+03</pdfrwt>
<pdfrwt beam="2">  1       -4 0.27517507E-02 0.12500207E+03</pdfrwt>
<totfact> 0.11306396E+03</totfact>
</mgrwt>
</event>
<event>
 5    1  0.1466870E-002  0.1250016E+03  0.7818608E-02  0.1235067E+00
          4   -1    0    0  501    0  0.00000000000E+00  0.00000000000E+00  0.20608624428E+02  0.20647719022E+02  0.12700000000E+01 0.  1.
         -4   -1    0    0    0  501 -0.00000000000E+00 -0.00000000000E+00 -0.18932857400E+03  0.18933283348E+03  0.12700000000E+01 0.  1.
         25    2    1    2    0    0  0.00000000000E+00  0.00000000000E+00 -0.16871994958E+03  0.20998055250E+03  0.12500164417E+03 0.  0.
    9000005    1    3    3    0    0 -0.40862572033E+02  0.23268443957E+01 -0.16368937311E+03  0.16873166528E+03  0.10000000000E+01 0.  0.
    9000005    1    3    3    0    0  0.40862572033E+02 -0.23268443957E+01 -0.50305764675E+01  0.41248887228E+02  0.10000000000E+01 0.  0.
<mgrwt>
<rscale>  0 0.12500164E+03</rscale>
<asrwt>0</asrwt>
<pdfrwt beam="1">  1        4 0.51575759E-02 0.12500164E+03</pdfrwt>
<pdfrwt beam="2">  1       -4 0.47337558E-01 0.12500164E+03</pdfrwt>
<totfact> 0.15929451E+03</totfact>
</mgrwt>
</event>
<event>
 5    1  0.1466870E-002  0.1249985E+03  0.7818608E-02  0.1235072E+00
          4   -1    0    0  501    0  0.00000000000E+00  0.00000000000E+00  0.72189435413E+02  0.72200605851E+02  0.12700000000E+01 0. -1.
         -4   -1    0    0    0  501 -0.00000000000E+00 -0.00000000000E+00 -0.54086953288E+02  0.54101861484E+02  0.12700000000E+01 0. -1.
         25    2    1    2    0    0  0.00000000000E+00  0.00000000000E+00  0.18102482125E+02  0.12630246734E+03  0.12499845357E+03 0.  0.
    9000005    1    3    3    0    0  0.39029254969E+01  0.21805701005E+02 -0.49991488076E+02  0.54688849904E+02  0.10000000000E+01 0.  0.
    9000005    1    3    3    0    0 -0.39029254969E+01 -0.21805701005E+02  0.68093970201E+02  0.71613617431E+02  0.10000000000E+01 0.  0.
<mgrwt>
<rscale>  0 0.12499845E+03</rscale>
<asrwt>0</asrwt>
<pdfrwt beam="1">  1        4 0.18050619E-01 0.12499845E+03</pdfrwt>
<pdfrwt beam="2">  1       -4 0.13524998E-01 0.12499845E+03</pdfrwt>
<totfact> 0.19765299E+03</totfact>
</mgrwt>
</event>
<event>
 5    1  0.1466870E-002  0.1250126E+03  0.7818608E-02  0.1235050E+00
          4   -1    0    0  501    0  0.00000000000E+00  0.00000000000E+00  0.42723205292E+02  0.42742077283E+02  0.12700000000E+01 0. -1.
         -4   -1    0    0    0  501 -0.00000000000E+00 -0.00000000000E+00 -0.91406503866E+02  0.91415326116E+02  0.12700000000E+01 0. -1.
         25    2    1    2    0    0  0.00000000000E+00  0.00000000000E+00 -0.48683298574E+02  0.13415740340E+03  0.12501258067E+03 0.  0.
    9000005    1    3    3    0    0  0.36239429037E+02  0.10430741846E+02 -0.77826581684E+02  0.86487417634E+02  0.10000000000E+01 0.  0.
    9000005    1    3    3    0    0 -0.36239429037E+02 -0.10430741846E+02  0.29143283111E+02  0.47669985765E+02  0.10000000000E+01 0.  0.
<mgrwt>
<rscale>  0 0.12501258E+03</rscale>
<asrwt>0</asrwt>
<pdfrwt beam="1">  1        4 0.10684263E-01 0.12501258E+03</pdfrwt>
<pdfrwt beam="2">  1       -4 0.22855087E-01 0.12501258E+03</pdfrwt>
<totfact> 0.19337685E+03</totfact>
</mgrwt>
</event>
<event>
 5    1  0.1466870E-002  0.1250063E+03  0.7818608E-02  0.1235059E+00
          4   -1    0    0  501    0  0.00000000000E+00  0.00000000000E+00  0.85070716562E+01  0.86013468808E+01  0.12700000000E+01 0.  1.
         -4   -1    0    0    0  501 -0.00000000000E+00 -0.00000000000E+00 -0.45659752032E+03  0.45659928653E+03  0.12700000000E+01 0.  1.
         25    2    1    2    0    0  0.00000000000E+00  0.00000000000E+00 -0.44809044866E+03  0.46520063341E+03  0.12500631642E+03 0.  0.
    9000005    1    3    3    0    0 -0.45033922659E+02  0.23253076681E+02 -0.87977422732E+02  0.10153711969E+03  0.10000000000E+01 0.  0.
    9000005    1    3    3    0    0  0.45033922659E+02 -0.23253076681E+02 -0.36011302593E+03  0.36366351372E+03  0.10000000000E+01 0.  0.
<mgrwt>
<rscale>  0 0.12500632E+03</rscale>
<asrwt>0</asrwt>
<pdfrwt beam="1">  1        4 0.21387746E-02 0.12500632E+03</pdfrwt>
<pdfrwt beam="2">  1       -4 0.11416130E+00 0.12500632E+03</pdfrwt>
<totfact> 0.93337248E+02</totfact>
</mgrwt>
</event>
<event>
 5    1  0.1466870E-002  0.1250064E+03  0.7818608E-02  0.1235059E+00
          4   -1    0    0  501    0  0.00000000000E+00  0.00000000000E+00  0.10498301153E+02  0.10574839341E+02  0.12700000000E+01 0.  1.
         -4   -1    0    0    0  501 -0.00000000000E+00 -0.00000000000E+00 -0.37069274586E+03  0.37069492137E+03  0.12700000000E+01 0.  1.
         25    2    1    2    0    0  0.00000000000E+00  0.00000000000E+00 -0.36019444470E+03  0.38126976071E+03  0.12500636959E+03 0.  0.
    9000005    1    3    3    0    0  0.54129747544E+02  0.29996020214E+00 -0.27535933624E+03  0.28063122350E+03  0.10000000000E+01 0.  0.
    9000005    1    3    3    0    0 -0.54129747544E+02 -0.29996020214E+00 -0.84835108459E+02  0.10063853721E+03  0.10000000000E+01 0.  0.
<mgrwt>
<rscale>  0 0.12500637E+03</rscale>
<asrwt>0</asrwt>
<pdfrwt beam="1">  1        4 0.26344157E-02 0.12500637E+03</pdfrwt>
<pdfrwt beam="2">  1       -4 0.92682982E-01 0.12500637E+03</pdfrwt>
<totfact> 0.10963875E+03</totfact>
</mgrwt>
</event>
<event>
 5    1  0.1466870E-002  0.1250043E+03  0.7818608E-02  0.1235063E+00
         -4   -1    0    0    0  501 -0.00000000000E+00  0.00000000000E+00  0.62502989311E+03  0.62503118337E+03  0.12700000000E+01 0.  1.
          4   -1    0    0  501    0  0.00000000000E+00 -0.00000000000E+00 -0.61843086214E+01  0.63133646438E+01  0.12700000000E+01 0.  1.
         25    2    1    2    0    0  0.00000000000E+00  0.00000000000E+00  0.61884558449E+03  0.63134454801E+03  0.12500432337E+03 0.  0.
    9000005    1    3    3    0    0  0.38310493348E+02  0.38326839162E+02  0.46663140391E+03  0.46976856815E+03  0.10000000000E+01 0.  0.
    9000005    1    3    3    0    0 -0.38310493348E+02 -0.38326839162E+02  0.15221418057E+03  0.16157597986E+03  0.10000000000E+01 0.  0.
<mgrwt>
<rscale>  0 0.12500432E+03</rscale>
<asrwt>0</asrwt>
<pdfrwt beam="2">  1        4 0.15623708E-02 0.12500432E+03</pdfrwt>
<pdfrwt beam="1">  1       -4 0.15627373E+00 0.12500432E+03</pdfrwt>
<totfact> 0.69679897E+02</totfact>
</mgrwt>
</event>
<event>
 5    1  0.1466870E-002  0.1249914E+03  0.7818608E-02  0.1235083E+00
         -4   -1    0    0    0  501 -0.00000000000E+00  0.00000000000E+00  0.26553812064E+02  0.26584165120E+02  0.12700000000E+01 0. -1.
          4   -1    0    0  501    0  0.00000000000E+00 -0.00000000000E+00 -0.14696958093E+03  0.14697506802E+03  0.12700000000E+01 0. -1.
         25    2    1    2    0    0  0.00000000000E+00  0.00000000000E+00 -0.12041576887E+03  0.17355923314E+03  0.12499139977E+03 0.  0.
    9000005    1    3    3    0    0 -0.11769556061E+02  0.59819035345E+02 -0.79240560260E+02  0.99984527952E+02  0.10000000000E+01 0.  0.
    9000005    1    3    3    0    0  0.11769556061E+02 -0.59819035345E+02 -0.41175208608E+02  0.73574705188E+02  0.10000000000E+01 0.  0.
<mgrwt>
<rscale>  0 0.12499140E+03</rscale>
<asrwt>0</asrwt>
<pdfrwt beam="2">  1        4 0.36746873E-01 0.12499140E+03</pdfrwt>
<pdfrwt beam="1">  1       -4 0.66429334E-02 0.12499140E+03</pdfrwt>
<totfact> 0.17441176E+03</totfact>
</mgrwt>
</event>
<event>
 5    1  0.1466870E-002  0.1249977E+03  0.7818608E-02  0.1235073E+00
         -4   -1    0    0    0  501 -0.00000000000E+00  0.00000000000E+00  0.16550851004E+03  0.16551338253E+03  0.12700000000E+01 0.  1.
          4   -1    0    0  501    0  0.00000000000E+00 -0.00000000000E+00 -0.23578327721E+02  0.23612505969E+02  0.12700000000E+01 0.  1.
         25    2    1    2    0    0  0.00000000000E+00  0.00000000000E+00  0.14193018232E+03  0.18912588850E+03  0.12499770017E+03 0.  0.
    9000005    1    3    3    0    0  0.36808706405E+02  0.29688849514E+02  0.91562226653E+01  0.48178263420E+02  0.10000000000E+01 0.  0.
    9000005    1    3    3    0    0 -0.36808706405E+02 -0.29688849514E+02  0.13277395965E+03  0.14094762508E+03  0.10000000000E+01 0.  0.
<mgrwt>
<rscale>  0 0.12499770E+03</rscale>
<asrwt>0</asrwt>
<pdfrwt beam="2">  1        4 0.58994634E-02 0.12499770E+03</pdfrwt>
<pdfrwt beam="1">  1       -4 0.41382008E-01 0.12499770E+03</pdfrwt>
<totfact> 0.16767814E+03</totfact>
</mgrwt>
</event>
<event>
 5    1  0.1466870E-002  0.1250150E+03  0.7818608E-02  0.1235046E+00
          4   -1    0    0  501    0  0.00000000000E+00  0.00000000000E+00  0.85577178590E+03  0.85577272827E+03  0.12700000000E+01 0.  1.
         -4   -1    0    0    0  501 -0.00000000000E+00 -0.00000000000E+00 -0.44764102070E+01  0.46530794471E+01  0.12700000000E+01 0.  1.
         25    2    1    2    0    0  0.00000000000E+00  0.00000000000E+00  0.85129537570E+03  0.86042580772E+03  0.12501501470E+03 0.  0.
    9000005    1    3    3    0    0 -0.22512949809E+02 -0.57726208411E+02  0.36929435018E+03  0.37445756117E+03  0.10000000000E+01 0.  0.
    9000005    1    3    3    0    0  0.22512949809E+02  0.57726208411E+02  0.48200102552E+03  0.48596824654E+03  0.10000000000E+01 0.  0.
<mgrwt>
<rscale>  0 0.12501501E+03</rscale>
<asrwt>0</asrwt>
<pdfrwt beam="1">  1        4 0.21396519E+00 0.12501501E+03</pdfrwt>
<pdfrwt beam="2">  1       -4 0.11413038E-02 0.12501501E+03</pdfrwt>
<totfact> 0.47365907E+02</totfact>
</mgrwt>
</event>
<event>
 5    1  0.1466870E-002  0.1250008E+03  0.7818608E-02  0.1235068E+00
         -4   -1    0    0    0  501 -0.00000000000E+00  0.00000000000E+00  0.17729158981E+02  0.17774587988E+02  0.12700000000E+01 0. -1.
          4   -1    0    0  501    0  0.00000000000E+00 -0.00000000000E+00 -0.22000265885E+03  0.22000632445E+03  0.12700000000E+01 0. -1.
         25    2    1    2    0    0  0.00000000000E+00  0.00000000000E+00 -0.20227349987E+03  0.23778091244E+03  0.12500077429E+03 0.  0.
    9000005    1    3    3    0    0 -0.19971089184E+01 -0.61464365448E+02 -0.12227141087E+03  0.13686911478E+03  0.10000000000E+01 0.  0.
    9000005    1    3    3    0    0  0.19971089184E+01  0.61464365448E+02 -0.80002088993E+02  0.10091179766E+03  0.10000000000E+01 0.  0.
<mgrwt>
<rscale>  0 0.12500077E+03</rscale>
<asrwt>0</asrwt>
<pdfrwt beam="2">  1        4 0.55006793E-01 0.12500077E+03</pdfrwt>
<pdfrwt beam="1">  1       -4 0.44384273E-02 0.12500077E+03</pdfrwt>
<totfact> 0.14912946E+03</totfact>
</mgrwt>
</event>
<event>
 5    1  0.1466870E-002  0.1250000E+03  0.7818608E-02  0.1235069E+00
         -4   -1    0    0    0  501 -0.00000000000E+00  0.00000000000E+00  0.45836148614E+01  0.47563037327E+01  0.12700000000E+01 0.  1.
          4   -1    0    0  501    0  0.00000000000E+00 -0.00000000000E+00 -0.83629056331E+03  0.83629152763E+03  0.12700000000E+01 0.  1.
         25    2    1    2    0    0  0.00000000000E+00  0.00000000000E+00 -0.83170694845E+03  0.84104783136E+03  0.12500002615E+03 0.  0.
    9000005    1    3    3    0    0  0.35626174296E+02  0.49353296376E+02 -0.32063333438E+03  0.32636131400E+03  0.10000000000E+01 0.  0.
    9000005    1    3    3    0    0 -0.35626174296E+02 -0.49353296376E+02 -0.51107361406E+03  0.51468651736E+03  0.10000000000E+01 0.  0.
<mgrwt>
<rscale>  0 0.12500003E+03</rscale>
<asrwt>0</asrwt>
<pdfrwt beam="2">  1        4 0.20909384E+00 0.12500003E+03</pdfrwt>
<pdfrwt beam="1">  1       -4 0.11676132E-02 0.12500003E+03</pdfrwt>
<totfact> 0.48968808E+02</totfact>
</mgrwt>
</event>
<event>
 5    1  0.1466870E-002  0.1249988E+03  0.7818608E-02  0.1235071E+00
         -4   -1    0    0    0  501 -0.00000000000E+00  0.00000000000E+00  0.29059412983E+02  0.29087151509E+02  0.12700000000E+01 0. -1.
          4   -1    0    0  501    0  0.00000000000E+00 -0.00000000000E+00 -0.13432553040E+03  0.13433153396E+03  0.12700000000E+01 0. -1.
         25    2    1    2    0    0  0.00000000000E+00  0.00000000000E+00 -0.10526611742E+03  0.16341868547E+03  0.12499884514E+03 0.  0.
    9000005    1    3    3    0    0 -0.50553640172E+02 -0.17448847264E+02 -0.10369777516E+02  0.54485457612E+02  0.10000000000E+01 0.  0.
    9000005    1    3    3    0    0  0.50553640172E+02  0.17448847264E+02 -0.94896339899E+02  0.10893322786E+03  0.10000000000E+01 0.  0.
<mgrwt>
<rscale>  0 0.12499885E+03</rscale>
<asrwt>0</asrwt>
<pdfrwt beam="2">  1        4 0.33585599E-01 0.12499885E+03</pdfrwt>
<pdfrwt beam="1">  1       -4 0.72690714E-02 0.12499885E+03</pdfrwt>
<totfact> 0.17898523E+03</totfact>
</mgrwt>
</event>
<event>
 5    1  0.1466870E-002  0.1250045E+03  0.7818608E-02  0.1235062E+00
          4   -1    0    0  501    0  0.00000000000E+00  0.00000000000E+00  0.85984230704E+02  0.85993609238E+02  0.12700000000E+01 0.  1.
         -4   -1    0    0    0  501 -0.00000000000E+00 -0.00000000000E+00 -0.45412385888E+02  0.45430140788E+02  0.12700000000E+01 0.  1.
         25    2    1    2    0    0  0.00000000000E+00  0.00000000000E+00  0.40571844816E+02  0.13142375003E+03  0.12500450983E+03 0.  0.
    9000005    1    3    3    0    0 -0.13981341075E+02  0.58881900075E+02  0.36674063618E+02  0.70771060448E+02  0.10000000000E+01 0.  0.
    9000005    1    3    3    0    0  0.13981341075E+02 -0.58881900075E+02  0.38977811976E+01  0.60652689577E+02  0.10000000000E+01 0.  0.
<mgrwt>
<rscale>  0 0.12500451E+03</rscale>
<asrwt>0</asrwt>
<pdfrwt beam="1">  1        4 0.21499449E-01 0.12500451E+03</pdfrwt>
<pdfrwt beam="2">  1       -4 0.11356488E-01 0.12500451E+03</pdfrwt>
<totfact> 0.19486094E+03</totfact>
</mgrwt>
</event>
<event>
 5    1  0.1466870E-002  0.1250044E+03  0.7818608E-02  0.1235062E+00
          4   -1    0    0  501    0  0.00000000000E+00  0.00000000000E+00  0.65949750305E+01  0.67161444038E+01  0.12700000000E+01 0.  1.
         -4   -1    0    0    0  501 -0.00000000000E+00 -0.00000000000E+00 -0.58683442837E+03  0.58683580260E+03  0.12700000000E+01 0.  1.
         25    2    1    2    0    0  0.00000000000E+00  0.00000000000E+00 -0.58023945334E+03  0.59355194701E+03  0.12500436227E+03 0.  0.
    9000005    1    3    3    0    0  0.50720266043E+02 -0.19783473502E+02 -0.14441796094E+03  0.15434208323E+03  0.10000000000E+01 0.  0.
    9000005    1    3    3    0    0 -0.50720266043E+02  0.19783473502E+02 -0.43582149239E+03  0.43920986378E+03  0.10000000000E+01 0.  0.
<mgrwt>
<rscale>  0 0.12500436E+03</rscale>
<asrwt>0</asrwt>
<pdfrwt beam="1">  1        4 0.16640637E-02 0.12500436E+03</pdfrwt>
<pdfrwt beam="2">  1       -4 0.14672375E+00 0.12500436E+03</pdfrwt>
<totfact> 0.74312971E+02</totfact>
</mgrwt>
</event>
<event>
 5    1  0.1466870E-002  0.1250115E+03  0.7818608E-02  0.1235051E+00
          4   -1    0    0  501    0  0.00000000000E+00  0.00000000000E+00  0.33461720190E+03  0.33461961196E+03  0.12700000000E+01 0.  1.
         -4   -1    0    0    0  501 -0.00000000000E+00 -0.00000000000E+00 -0.11638937004E+02  0.11708020951E+02  0.12700000000E+01 0.  1.
         25    2    1    2    0    0  0.00000000000E+00  0.00000000000E+00  0.32297826489E+03  0.34632763291E+03  0.12501147836E+03 0.  0.
    9000005    1    3    3    0    0 -0.59142628704E+02 -0.15887586016E+02  0.19605788175E+03  0.20540194478E+03  0.10000000000E+01 0.  0.
    9000005    1    3    3    0    0  0.59142628704E+02  0.15887586016E+02  0.12692038314E+03  0.14092568813E+03  0.10000000000E+01 0.  0.
<mgrwt>
<rscale>  0 0.12501148E+03</rscale>
<asrwt>0</asrwt>
<pdfrwt beam="1">  1        4 0.83663231E-01 0.12501148E+03</pdfrwt>
<pdfrwt beam="2">  1       -4 0.29186712E-02 0.12501148E+03</pdfrwt>
<totfact> 0.11762318E+03</totfact>
</mgrwt>
</event>
<event>
 5    1  0.1466870E-002  0.1250038E+03  0.7818608E-02  0.1235063E+00
         -4   -1    0    0    0  501 -0.00000000000E+00  0.00000000000E+00  0.65121024123E+01  0.66347854395E+01  0.12700000000E+01 0.  1.
          4   -1    0    0  501    0  0.00000000000E+00 -0.00000000000E+00 -0.59415962354E+03  0.59416098083E+03  0.12700000000E+01 0.  1.
         25    2    1    2    0    0  0.00000000000E+00  0.00000000000E+00 -0.58764752113E+03  0.60079576627E+03  0.12500377468E+03 0.  0.
    9000005    1    3    3    0    0  0.46417476110E+02 -0.35043031889E+02 -0.40372657140E+03  0.40789550210E+03  0.10000000000E+01 0.  0.
    9000005    1    3    3    0    0 -0.46417476110E+02  0.35043031889E+02 -0.18392094972E+03  0.19290026418E+03  0.10000000000E+01 0.  0.
<mgrwt>
<rscale>  0 0.12500377E+03</rscale>
<asrwt>0</asrwt>
<pdfrwt beam="2">  1        4 0.14855523E+00 0.12500377E+03</pdfrwt>
<pdfrwt beam="1">  1       -4 0.16435327E-02 0.12500377E+03</pdfrwt>
<totfact> 0.73396677E+02</totfact>
</mgrwt>
</event>
<event>
 5    1  0.1466870E-002  0.1250016E+03  0.7818608E-02  0.1235067E+00
          4   -1    0    0  501    0  0.00000000000E+00  0.00000000000E+00  0.16146434993E+03  0.16146934446E+03  0.12700000000E+01 0.  1.
         -4   -1    0    0    0  501 -0.00000000000E+00 -0.00000000000E+00 -0.24171217682E+02  0.24204558749E+02  0.12700000000E+01 0.  1.
         25    2    1    2    0    0  0.00000000000E+00  0.00000000000E+00  0.13729313225E+03  0.18567390321E+03  0.12500157666E+03 0.  0.
    9000005    1    3    3    0    0  0.28634726459E+02  0.36387168643E+02  0.63073577569E+01  0.46741377420E+02  0.10000000000E+01 0.  0.
    9000005    1    3    3    0    0 -0.28634726459E+02 -0.36387168643E+02  0.13098577449E+03  0.13893252579E+03  0.10000000000E+01 0.  0.
<mgrwt>
<rscale>  0 0.12500158E+03</rscale>
<asrwt>0</asrwt>
<pdfrwt beam="1">  1        4 0.40370879E-01 0.12500158E+03</pdfrwt>
<pdfrwt beam="2">  1       -4 0.60475964E-02 0.12500158E+03</pdfrwt>
<totfact> 0.16911605E+03</totfact>
</mgrwt>
</event>
<event>
 5    1  0.1466870E-002  0.1250009E+03  0.7818608E-02  0.1235068E+00
          4   -1    0    0  501    0  0.00000000000E+00  0.00000000000E+00  0.54786148897E+02  0.54800866882E+02  0.12700000000E+01 0. -1.
         -4   -1    0    0    0  501 -0.00000000000E+00 -0.00000000000E+00 -0.71271016881E+02  0.71282331241E+02  0.12700000000E+01 0. -1.
         25    2    1    2    0    0  0.00000000000E+00  0.00000000000E+00 -0.16484867983E+02  0.12608319812E+03  0.12500088790E+03 0.  0.
    9000005    1    3    3    0    0  0.24075901948E+01  0.23495744191E+02  0.50115747743E+02  0.55411502935E+02  0.10000000000E+01 0.  0.
    9000005    1    3    3    0    0 -0.24075901948E+01 -0.23495744191E+02 -0.66600615726E+02  0.70671695188E+02  0.10000000000E+01 0.  0.
<mgrwt>
<rscale>  0 0.12500089E+03</rscale>
<asrwt>0</asrwt>
<pdfrwt beam="1">  1        4 0.13699791E-01 0.12500089E+03</pdfrwt>
<pdfrwt beam="2">  1       -4 0.17821008E-01 0.12500089E+03</pdfrwt>
<totfact> 0.19776014E+03</totfact>
</mgrwt>
</event>
<event>
 5    1  0.1466870E-002  0.1249978E+03  0.7818608E-02  0.1235073E+00
          4   -1    0    0  501    0  0.00000000000E+00  0.00000000000E+00  0.12704156670E+02  0.12767478086E+02  0.12700000000E+01 0.  1.
         -4   -1    0    0    0  501 -0.00000000000E+00 -0.00000000000E+00 -0.30663837360E+03  0.30664100356E+03  0.12700000000E+01 0.  1.
         25    2    1    2    0    0  0.00000000000E+00  0.00000000000E+00 -0.29393421693E+03  0.31940848165E+03  0.12499781704E+03 0.  0.
    9000005    1    3    3    0    0  0.22480332299E+02  0.58148874155E+02 -0.13598917543E+03  0.14960184738E+03  0.10000000000E+01 0.  0.
    9000005    1    3    3    0    0 -0.22480332299E+02 -0.58148874155E+02 -0.15794504150E+03  0.16980663426E+03  0.10000000000E+01 0.  0.
<mgrwt>
<rscale>  0 0.12499782E+03</rscale>
<asrwt>0</asrwt>
<pdfrwt beam="1">  1        4 0.31842841E-02 0.12499782E+03</pdfrwt>
<pdfrwt beam="2">  1       -4 0.76667813E-01 0.12499782E+03</pdfrwt>
<totfact> 0.12444641E+03</totfact>
</mgrwt>
</event>
<event>
 5    1  0.1466870E-002  0.1249510E+03  0.7818608E-02  0.1235146E+00
         -4   -1    0    0    0  501 -0.00000000000E+00  0.00000000000E+00  0.11579752755E+02  0.11649187691E+02  0.12700000000E+01 0. -1.
          4   -1    0    0  501    0  0.00000000000E+00 -0.00000000000E+00 -0.33599169471E+03  0.33599409491E+03  0.12700000000E+01 0. -1.
         25    2    1    2    0    0  0.00000000000E+00  0.00000000000E+00 -0.32441194195E+03  0.34764328260E+03  0.12495096580E+03 0.  0.
    9000005    1    3    3    0    0  0.33151366488E+02  0.87927160599E+01 -0.16945958077E+02  0.38268661472E+02  0.10000000000E+01 0.  0.
    9000005    1    3    3    0    0 -0.33151366488E+02 -0.87927160599E+01 -0.30746598388E+03  0.30937462113E+03  0.10000000000E+01 0.  0.
<mgrwt>
<rscale>  0 0.12495097E+03</rscale>
<asrwt>0</asrwt>
<pdfrwt beam="2">  1        4 0.84006871E-01 0.12495097E+03</pdfrwt>
<pdfrwt beam="1">  1       -4 0.29039187E-02 0.12495097E+03</pdfrwt>
<totfact> 0.11746885E+03</totfact>
</mgrwt>
</event>
<event>
 5    1  0.1466870E-002  0.1249993E+03  0.7818608E-02  0.1235070E+00
         -4   -1    0    0    0  501 -0.00000000000E+00  0.00000000000E+00  0.39105172445E+02  0.39125789602E+02  0.12700000000E+01 0.  1.
          4   -1    0    0  501    0  0.00000000000E+00 -0.00000000000E+00 -0.99838822940E+02  0.99846900132E+02  0.12700000000E+01 0.  1.
         25    2    1    2    0    0  0.00000000000E+00  0.00000000000E+00 -0.60733650495E+02  0.13897268973E+03  0.12499932876E+03 0.  0.
    9000005    1    3    3    0    0  0.42225825329E+02 -0.44303486156E+02 -0.44403063560E+02  0.75620442103E+02  0.10000000000E+01 0.  0.
    9000005    1    3    3    0    0 -0.42225825329E+02  0.44303486156E+02 -0.16330586934E+02  0.63352247631E+02  0.10000000000E+01 0.  0.
<mgrwt>
<rscale>  0 0.12499933E+03</rscale>
<asrwt>0</asrwt>
<pdfrwt beam="2">  1        4 0.24963292E-01 0.12499933E+03</pdfrwt>
<pdfrwt beam="1">  1       -4 0.97798801E-02 0.12499933E+03</pdfrwt>
<totfact> 0.19093320E+03</totfact>
</mgrwt>
</event>
<event>
 5    1  0.1466870E-002  0.1249983E+03  0.7818608E-02  0.1235072E+00
         -4   -1    0    0    0  501 -0.00000000000E+00  0.00000000000E+00  0.63536610857E+02  0.63549302272E+02  0.12700000000E+01 0.  1.
          4   -1    0    0  501    0  0.00000000000E+00 -0.00000000000E+00 -0.61453238313E+02  0.61466359898E+02  0.12700000000E+01 0.  1.
         25    2    1    2    0    0  0.00000000000E+00  0.00000000000E+00  0.20833725444E+01  0.12501566217E+03  0.12499830137E+03 0.  0.
    9000005    1    3    3    0    0 -0.20197859132E+02  0.56811861182E+02 -0.15380178625E+02  0.62234162475E+02  0.10000000000E+01 0.  0.
    9000005    1    3    3    0    0  0.20197859132E+02 -0.56811861182E+02  0.17463551169E+02  0.62781499695E+02  0.10000000000E+01 0.  0.
<mgrwt>
<rscale>  0 0.12499830E+03</rscale>
<asrwt>0</asrwt>
<pdfrwt beam="2">  1        4 0.15366536E-01 0.12499830E+03</pdfrwt>
<pdfrwt beam="1">  1       -4 0.15887379E-01 0.12499830E+03</pdfrwt>
<totfact> 0.19834994E+03</totfact>
</mgrwt>
</event>
<event>
 5    1  0.1466870E-002  0.1250007E+03  0.7818608E-02  0.1235068E+00
         -4   -1    0    0    0  501 -0.00000000000E+00  0.00000000000E+00  0.30052503650E+02  0.30079326383E+02  0.12700000000E+01 0.  1.
          4   -1    0    0  501    0  0.00000000000E+00 -0.00000000000E+00 -0.12989430508E+03  0.12990051344E+03  0.12700000000E+01 0.  1.
         25    2    1    2    0    0  0.00000000000E+00  0.00000000000E+00 -0.99841801430E+02  0.15997983982E+03  0.12500065535E+03 0.  0.
    9000005    1    3    3    0    0 -0.16470041420E+02  0.12393288002E+02 -0.12542486214E+03  0.12711117926E+03  0.10000000000E+01 0.  0.
    9000005    1    3    3    0    0  0.16470041420E+02 -0.12393288002E+02  0.25583060707E+02  0.32868660560E+02  0.10000000000E+01 0.  0.
<mgrwt>
<rscale>  0 0.12500066E+03</rscale>
<asrwt>0</asrwt>
<pdfrwt beam="2">  1        4 0.32477704E-01 0.12500066E+03</pdfrwt>
<pdfrwt beam="1">  1       -4 0.75172551E-02 0.12500066E+03</pdfrwt>
<totfact> 0.18058428E+03</totfact>
</mgrwt>
</event>
<event>
 5    1  0.1466870E-002  0.1249991E+03  0.7818608E-02  0.1235071E+00
         -4   -1    0    0    0  501 -0.00000000000E+00  0.00000000000E+00  0.42077546359E+02  0.42096707800E+02  0.12700000000E+01 0. -1.
          4   -1    0    0  501    0  0.00000000000E+00 -0.00000000000E+00 -0.92788601945E+02  0.92797292799E+02  0.12700000000E+01 0. -1.
         25    2    1    2    0    0  0.00000000000E+00  0.00000000000E+00 -0.50711055586E+02  0.13489400060E+03  0.12499912095E+03 0.  0.
    9000005    1    3    3    0    0  0.39708673291E+02  0.15618667299E+02  0.23914620691E+02  0.48924744103E+02  0.10000000000E+01 0.  0.
    9000005    1    3    3    0    0 -0.39708673291E+02 -0.15618667299E+02 -0.74625676277E+02  0.85969256496E+02  0.10000000000E+01 0.  0.
<mgrwt>
<rscale>  0 0.12499912E+03</rscale>
<asrwt>0</asrwt>
<pdfrwt beam="2">  1        4 0.23200632E-01 0.12499912E+03</pdfrwt>
<pdfrwt beam="1">  1       -4 0.10522868E-01 0.12499912E+03</pdfrwt>
<totfact> 0.19305086E+03</totfact>
</mgrwt>
</event>
<event>
 5    1  0.1466870E-002  0.1249995E+03  0.7818608E-02  0.1235070E+00
          4   -1    0    0  501    0  0.00000000000E+00  0.00000000000E+00  0.44853047752E+02  0.44871023976E+02  0.12700000000E+01 0.  1.
         -4   -1    0    0    0  501 -0.00000000000E+00 -0.00000000000E+00 -0.87049182112E+02  0.87058445922E+02  0.12700000000E+01 0.  1.
         25    2    1    2    0    0  0.00000000000E+00  0.00000000000E+00 -0.42196134360E+02  0.13192946990E+03  0.12499948509E+03 0.  0.
    9000005    1    3    3    0    0 -0.15823916250E+02  0.12153969163E+02 -0.83602069077E+02  0.85955926183E+02  0.10000000000E+01 0.  0.
    9000005    1    3    3    0    0  0.15823916250E+02 -0.12153969163E+02  0.41405934718E+02  0.45973543715E+02  0.10000000000E+01 0.  0.
<mgrwt>
<rscale>  0 0.12499949E+03</rscale>
<asrwt>0</asrwt>
<pdfrwt beam="1">  1        4 0.11216667E-01 0.12499949E+03</pdfrwt>
<pdfrwt beam="2">  1       -4 0.21765700E-01 0.12499949E+03</pdfrwt>
<totfact> 0.19461440E+03</totfact>
</mgrwt>
</event>
<event>
 5    1  0.1466870E-002  0.1249985E+03  0.7818608E-02  0.1235072E+00
         -4   -1    0    0    0  501 -0.00000000000E+00  0.00000000000E+00  0.16368233070E+02  0.16417428357E+02  0.12700000000E+01 0. -1.
          4   -1    0    0  501    0  0.00000000000E+00 -0.00000000000E+00 -0.23823369738E+03  0.23823708248E+03  0.12700000000E+01 0. -1.
         25    2    1    2    0    0  0.00000000000E+00  0.00000000000E+00 -0.22186546431E+03  0.25465451084E+03  0.12499854253E+03 0.  0.
    9000005    1    3    3    0    0  0.55685158832E+02  0.91074954140E+01 -0.56215121482E+02  0.79655026647E+02  0.10000000000E+01 0.  0.
    9000005    1    3    3    0    0 -0.55685158832E+02 -0.91074954140E+01 -0.16565034283E+03  0.17499948419E+03  0.10000000000E+01 0.  0.
<mgrwt>
<rscale>  0 0.12499854E+03</rscale>
<asrwt>0</asrwt>
<pdfrwt beam="2">  1        4 0.59564986E-01 0.12499854E+03</pdfrwt>
<pdfrwt beam="1">  1       -4 0.40986316E-02 0.12499854E+03</pdfrwt>
<totfact> 0.14344906E+03</totfact>
</mgrwt>
</event>
<event>
 5    1  0.1466870E-002  0.1250008E+03  0.7818608E-02  0.1235068E+00
          4   -1    0    0  501    0  0.00000000000E+00  0.00000000000E+00  0.92801477066E+02  0.92810166715E+02  0.12700000000E+01 0. -1.
         -4   -1    0    0    0  501 -0.00000000000E+00 -0.00000000000E+00 -0.42072870926E+02  0.42092034495E+02  0.12700000000E+01 0. -1.
         25    2    1    2    0    0  0.00000000000E+00  0.00000000000E+00  0.50728606140E+02  0.13490220121E+03  0.12500084964E+03 0.  0.
    9000005    1    3    3    0    0 -0.43287227534E+02  0.42144506920E+02  0.42610055276E+02  0.73936191014E+02  0.10000000000E+01 0.  0.
    9000005    1    3    3    0    0  0.43287227534E+02 -0.42144506920E+02  0.81185508638E+01  0.60966010196E+02  0.10000000000E+01 0.  0.
<mgrwt>
<rscale>  0 0.12500085E+03</rscale>
<asrwt>0</asrwt>
<pdfrwt beam="1">  1        4 0.23203851E-01 0.12500085E+03</pdfrwt>
<pdfrwt beam="2">  1       -4 0.10521699E-01 0.12500085E+03</pdfrwt>
<totfact> 0.19303878E+03</totfact>
</mgrwt>
</event>
<event>
 5    1  0.1466870E-002  0.1250003E+03  0.7818608E-02  0.1235069E+00
         -4   -1    0    0    0  501 -0.00000000000E+00  0.00000000000E+00  0.14086052181E+03  0.14086624686E+03  0.12700000000E+01 0.  1.
          4   -1    0    0  501    0  0.00000000000E+00 -0.00000000000E+00 -0.27710635543E+02  0.27739722822E+02  0.12700000000E+01 0.  1.
         25    2    1    2    0    0  0.00000000000E+00  0.00000000000E+00  0.11314988627E+03  0.16860596968E+03  0.12500030500E+03 0.  0.
    9000005    1    3    3    0    0  0.41207133533E+01 -0.59441174646E+02  0.81990392317E+02  0.10135905462E+03  0.10000000000E+01 0.  0.
    9000005    1    3    3    0    0 -0.41207133533E+01  0.59441174646E+02  0.31159493951E+02  0.67246915061E+02  0.10000000000E+01 0.  0.
<mgrwt>
<rscale>  0 0.12500031E+03</rscale>
<asrwt>0</asrwt>
<pdfrwt beam="2">  1        4 0.69320105E-02 0.12500031E+03</pdfrwt>
<pdfrwt beam="1">  1       -4 0.35219481E-01 0.12500031E+03</pdfrwt>
<totfact> 0.17659983E+03</totfact>
</mgrwt>
</event>
<event>
 5    1  0.1466870E-002  0.1250310E+03  0.7818608E-02  0.1235021E+00
         -4   -1    0    0    0  501 -0.00000000000E+00  0.00000000000E+00  0.22311843797E+03  0.22312205239E+03  0.12700000000E+01 0.  1.
          4   -1    0    0  501    0  0.00000000000E+00 -0.00000000000E+00 -0.17489416108E+02  0.17535466227E+02  0.12700000000E+01 0.  1.
         25    2    1    2    0    0  0.00000000000E+00  0.00000000000E+00  0.20562902186E+03  0.24065751861E+03  0.12503098270E+03 0.  0.
    9000005    1    3    3    0    0 -0.46735983285E+02 -0.22486721877E+02  0.16996935819E+03  0.17770899673E+03  0.10000000000E+01 0.  0.
    9000005    1    3    3    0    0  0.46735983285E+02  0.22486721877E+02  0.35659663664E+02  0.62948521881E+02  0.10000000000E+01 0.  0.
<mgrwt>
<rscale>  0 0.12503098E+03</rscale>
<asrwt>0</asrwt>
<pdfrwt beam="2">  1        4 0.43785621E-02 0.12503098E+03</pdfrwt>
<pdfrwt beam="1">  1       -4 0.55785817E-01 0.12503098E+03</pdfrwt>
<totfact> 0.14803262E+03</totfact>
</mgrwt>
</event>
<event>
 5    1  0.1466870E-002  0.1250001E+03  0.7818608E-02  0.1235069E+00
         -4   -1    0    0    0  501 -0.00000000000E+00  0.00000000000E+00  0.57121774364E+01  0.58516554124E+01  0.12700000000E+01 0.  1.
          4   -1    0    0  501    0  0.00000000000E+00 -0.00000000000E+00 -0.67545921726E+03  0.67546041119E+03  0.12700000000E+01 0.  1.
         25    2    1    2    0    0  0.00000000000E+00  0.00000000000E+00 -0.66974703982E+03  0.68131206660E+03  0.12500013897E+03 0.  0.
    9000005    1    3    3    0    0 -0.37288175187E+02  0.42005039591E+02 -0.18556317290E+03  0.19388017561E+03  0.10000000000E+01 0.  0.
    9000005    1    3    3    0    0  0.37288175187E+02 -0.42005039591E+02 -0.48418386692E+03  0.48743189098E+03  0.10000000000E+01 0.  0.
<mgrwt>
<rscale>  0 0.12500014E+03</rscale>
<asrwt>0</asrwt>
<pdfrwt beam="2">  1        4 0.16888212E+00 0.12500014E+03</pdfrwt>
<pdfrwt beam="1">  1       -4 0.14456306E-02 0.12500014E+03</pdfrwt>
<totfact> 0.64038900E+02</totfact>
</mgrwt>
</event>
<event>
 5    1  0.1466870E-002  0.1250051E+03  0.7818608E-02  0.1235061E+00
          4   -1    0    0  501    0  0.00000000000E+00  0.00000000000E+00  0.31307757302E+02  0.31333505506E+02  0.12700000000E+01 0. -1.
         -4   -1    0    0    0  501 -0.00000000000E+00 -0.00000000000E+00 -0.12469924352E+03  0.12470571051E+03  0.12700000000E+01 0. -1.
         25    2    1    2    0    0  0.00000000000E+00  0.00000000000E+00 -0.93391486220E+02  0.15603921602E+03  0.12500506885E+03 0.  0.
    9000005    1    3    3    0    0  0.68648059126E+01  0.10409635863E+02  0.29745271805E+02  0.32268673257E+02  0.10000000000E+01 0.  0.
    9000005    1    3    3    0    0 -0.68648059126E+01 -0.10409635863E+02 -0.12313675802E+03  0.12377054276E+03  0.10000000000E+01 0.  0.
<mgrwt>
<rscale>  0 0.12500507E+03</rscale>
<asrwt>0</asrwt>
<pdfrwt beam="1">  1        4 0.78309665E-02 0.12500507E+03</pdfrwt>
<pdfrwt beam="2">  1       -4 0.31178837E-01 0.12500507E+03</pdfrwt>
<totfact> 0.18243613E+03</totfact>
</mgrwt>
</event>
<event>
 5    1  0.1466870E-002  0.1250006E+03  0.7818608E-02  0.1235068E+00
         -4   -1    0    0    0  501 -0.00000000000E+00  0.00000000000E+00  0.38583178519E+03  0.38583387535E+03  0.12700000000E+01 0. -1.
          4   -1    0    0  501    0  0.00000000000E+00 -0.00000000000E+00 -0.10082381128E+02  0.10162052412E+02  0.12700000000E+01 0. -1.
         25    2    1    2    0    0  0.00000000000E+00  0.00000000000E+00  0.37574940406E+03  0.39599592776E+03  0.12500064058E+03 0.  0.
    9000005    1    3    3    0    0 -0.40927060602E+02  0.40359024783E+02  0.26556478059E+03  0.27171589549E+03  0.10000000000E+01 0.  0.
    9000005    1    3    3    0    0  0.40927060602E+02 -0.40359024783E+02  0.11018462348E+03  0.12428003227E+03  0.10000000000E+01 0.  0.
<mgrwt>
<rscale>  0 0.12500064E+03</rscale>
<asrwt>0</asrwt>
<pdfrwt beam="2">  1        4 0.25308157E-02 0.12500064E+03</pdfrwt>
<pdfrwt beam="1">  1       -4 0.96468159E-01 0.12500064E+03</pdfrwt>
<totfact> 0.10651989E+03</totfact>
</mgrwt>
</event>
<event>
 5    1  0.1466870E-002  0.1249927E+03  0.7818608E-02  0.1235081E+00
         -4   -1    0    0    0  501 -0.00000000000E+00  0.00000000000E+00  0.57955283925E+02  0.57969197293E+02  0.12700000000E+01 0. -1.
          4   -1    0    0  501    0  0.00000000000E+00 -0.00000000000E+00 -0.67365269646E+02  0.67377239885E+02  0.12700000000E+01 0. -1.
         25    2    1    2    0    0  0.00000000000E+00  0.00000000000E+00 -0.94099857215E+01  0.12534643718E+03  0.12499272572E+03 0.  0.
    9000005    1    3    3    0    0  0.73336796356E+01  0.21332858359E+02  0.53734452754E+02  0.58286062789E+02  0.10000000000E+01 0.  0.
    9000005    1    3    3    0    0 -0.73336796356E+01 -0.21332858359E+02 -0.63144438475E+02  0.67060374388E+02  0.10000000000E+01 0.  0.
<mgrwt>
<rscale>  0 0.12499273E+03</rscale>
<asrwt>0</asrwt>
<pdfrwt beam="2">  1        4 0.16844553E-01 0.12499273E+03</pdfrwt>
<pdfrwt beam="1">  1       -4 0.14492056E-01 0.12499273E+03</pdfrwt>
<totfact> 0.19819652E+03</totfact>
</mgrwt>
</event>
<event>
 5    1  0.1466870E-002  0.1250172E+03  0.7818608E-02  0.1235042E+00
         -4   -1    0    0    0  501 -0.00000000000E+00  0.00000000000E+00  0.53315845275E+01  0.54807566607E+01  0.12700000000E+01 0.  1.
          4   -1    0    0  501    0  0.00000000000E+00 -0.00000000000E+00 -0.72260303253E+03  0.72260414856E+03  0.12700000000E+01 0.  1.
         25    2    1    2    0    0  0.00000000000E+00  0.00000000000E+00 -0.71727144800E+03  0.72808490522E+03  0.12501719520E+03 0.  0.
    9000005    1    3    3    0    0 -0.13874893904E+02  0.73159762151E+01 -0.62892418200E+01  0.16928991450E+02  0.10000000000E+01 0.  0.
    9000005    1    3    3    0    0  0.13874893904E+02 -0.73159762151E+01 -0.71098220618E+03  0.71115591377E+03  0.10000000000E+01 0.  0.
<mgrwt>
<rscale>  0 0.12501720E+03</rscale>
<asrwt>0</asrwt>
<pdfrwt beam="2">  1        4 0.18066921E+00 0.12501720E+03</pdfrwt>
<pdfrwt beam="1">  1       -4 0.13516846E-02 0.12501720E+03</pdfrwt>
<totfact> 0.59181707E+02</totfact>
</mgrwt>
</event>
<event>
 5    1  0.1466870E-002  0.1249974E+03  0.7818608E-02  0.1235073E+00
          4   -1    0    0  501    0  0.00000000000E+00  0.00000000000E+00  0.77552966130E+01  0.78585956478E+01  0.12700000000E+01 0.  1.
         -4   -1    0    0    0  501 -0.00000000000E+00 -0.00000000000E+00 -0.50023090201E+03  0.50023251416E+03  0.12700000000E+01 0.  1.
         25    2    1    2    0    0  0.00000000000E+00  0.00000000000E+00 -0.49247560540E+03  0.50809110981E+03  0.12499741580E+03 0.  0.
    9000005    1    3    3    0    0  0.36361222004E+02  0.17214727968E+02 -0.51864791991E+02  0.65646340134E+02  0.10000000000E+01 0.  0.
    9000005    1    3    3    0    0 -0.36361222004E+02 -0.17214727968E+02 -0.44061081341E+03  0.44244476968E+03  0.10000000000E+01 0.  0.
<mgrwt>
<rscale>  0 0.12499742E+03</rscale>
<asrwt>0</asrwt>
<pdfrwt beam="1">  1        4 0.19519397E-02 0.12499742E+03</pdfrwt>
<pdfrwt beam="2">  1       -4 0.12507073E+00 0.12499742E+03</pdfrwt>
<totfact> 0.86339316E+02</totfact>
</mgrwt>
</event>
<event>
 5    1  0.1466870E-002  0.1249985E+03  0.7818608E-02  0.1235072E+00
         -4   -1    0    0    0  501 -0.00000000000E+00  0.00000000000E+00  0.69187009991E+03  0.69187126552E+03  0.12700000000E+01 0. -1.
          4   -1    0    0  501    0  0.00000000000E+00 -0.00000000000E+00 -0.55731920646E+01  0.57160624374E+01  0.12700000000E+01 0. -1.
         25    2    1    2    0    0  0.00000000000E+00  0.00000000000E+00  0.68629690784E+03  0.69758732795E+03  0.12499853761E+03 0.  0.
    9000005    1    3    3    0    0 -0.11506131534E+01  0.75701850182E+01  0.68926952797E+03  0.68931278372E+03  0.10000000000E+01 0.  0.
    9000005    1    3    3    0    0  0.11506131534E+01 -0.75701850182E+01 -0.29726201272E+01  0.82745442327E+01  0.10000000000E+01 0.  0.
<mgrwt>
<rscale>  0 0.12499854E+03</rscale>
<asrwt>0</asrwt>
<pdfrwt beam="2">  1        4 0.14113023E-02 0.12499854E+03</pdfrwt>
<pdfrwt beam="1">  1       -4 0.17298555E+00 0.12499854E+03</pdfrwt>
<totfact> 0.62319083E+02</totfact>
</mgrwt>
</event>
<event>
 5    1  0.1466870E-002  0.1249988E+03  0.7818608E-02  0.1235071E+00
          4   -1    0    0  501    0  0.00000000000E+00  0.00000000000E+00  0.42180779099E+02  0.42199893666E+02  0.12700000000E+01 0.  1.
         -4   -1    0    0    0  501 -0.00000000000E+00 -0.00000000000E+00 -0.92561191186E+02  0.92569903391E+02  0.12700000000E+01 0.  1.
         25    2    1    2    0    0  0.00000000000E+00  0.00000000000E+00 -0.50380412087E+02  0.13476979706E+03  0.12499884910E+03 0.  0.
    9000005    1    3    3    0    0  0.26182833070E+02 -0.38897975339E+02 -0.69730235634E+02  0.84035105727E+02  0.10000000000E+01 0.  0.
    9000005    1    3    3    0    0 -0.26182833070E+02  0.38897975339E+02  0.19349823547E+02  0.50734691330E+02  0.10000000000E+01 0.  0.
<mgrwt>
<rscale>  0 0.12499885E+03</rscale>
<asrwt>0</asrwt>
<pdfrwt beam="1">  1        4 0.10548673E-01 0.12499885E+03</pdfrwt>
<pdfrwt beam="2">  1       -4 0.23143776E-01 0.12499885E+03</pdfrwt>
<totfact> 0.19311720E+03</totfact>
</mgrwt>
</event>
<event>
 5    1  0.1466870E-002  0.1250017E+03  0.7818608E-02  0.1235067E+00
          4   -1    0    0  501    0  0.00000000000E+00  0.00000000000E+00  0.17014214246E+03  0.17014688225E+03  0.12700000000E+01 0. -1.
         -4   -1    0    0    0  501 -0.00000000000E+00 -0.00000000000E+00 -0.22936744332E+02  0.22971877167E+02  0.12700000000E+01 0. -1.
         25    2    1    2    0    0  0.00000000000E+00  0.00000000000E+00  0.14720539813E+03  0.19311875942E+03  0.12500170400E+03 0.  0.
    9000005    1    3    3    0    0 -0.28575978419E+01  0.29740010738E+02 -0.11195784834E+02  0.31921461467E+02  0.10000000000E+01 0.  0.
    9000005    1    3    3    0    0  0.28575978419E+01 -0.29740010738E+02  0.15840118296E+03  0.16119729795E+03  0.10000000000E+01 0.  0.
<mgrwt>
<rscale>  0 0.12500170E+03</rscale>
<asrwt>0</asrwt>
<pdfrwt beam="1">  1        4 0.42540519E-01 0.12500170E+03</pdfrwt>
<pdfrwt beam="2">  1       -4 0.57391702E-02 0.12500170E+03</pdfrwt>
<totfact> 0.16600681E+03</totfact>
</mgrwt>
</event>
<event>
 5    1  0.1466870E-002  0.1249999E+03  0.7818608E-02  0.1235069E+00
          4   -1    0    0  501    0  0.00000000000E+00  0.00000000000E+00  0.11766194991E+03  0.11766880367E+03  0.12700000000E+01 0.  1.
         -4   -1    0    0    0  501 -0.00000000000E+00 -0.00000000000E+00 -0.33178916277E+02  0.33203213479E+02  0.12700000000E+01 0.  1.
         25    2    1    2    0    0  0.00000000000E+00  0.00000000000E+00  0.84483033631E+02  0.15087201714E+03  0.12499993034E+03 0.  0.
    9000005    1    3    3    0    0  0.28700927911E+02  0.38165865920E+02 -0.64113135946E+01  0.48192131374E+02  0.10000000000E+01 0.  0.
    9000005    1    3    3    0    0 -0.28700927911E+02 -0.38165865920E+02  0.90894347225E+02  0.10267988577E+03  0.10000000000E+01 0.  0.
<mgrwt>
<rscale>  0 0.12499993E+03</rscale>
<asrwt>0</asrwt>
<pdfrwt beam="1">  1        4 0.29419381E-01 0.12499993E+03</pdfrwt>
<pdfrwt beam="2">  1       -4 0.82986230E-02 0.12499993E+03</pdfrwt>
<totfact> 0.18496017E+03</totfact>
</mgrwt>
</event>
<event>
 5    1  0.1466870E-002  0.1249975E+03  0.7818608E-02  0.1235073E+00
         -4   -1    0    0    0  501 -0.00000000000E+00  0.00000000000E+00  0.24640993223E+03  0.24641320501E+03  0.12700000000E+01 0.  1.
          4   -1    0    0  501    0  0.00000000000E+00 -0.00000000000E+00 -0.15823190291E+02  0.15874074807E+02  0.12700000000E+01 0.  1.
         25    2    1    2    0    0  0.00000000000E+00  0.00000000000E+00  0.23058674194E+03  0.26228727982E+03  0.12499748635E+03 0.  0.
    9000005    1    3    3    0    0 -0.10201024604E+02 -0.14498556914E+02 -0.10446496875E+02  0.20600930865E+02  0.10000000000E+01 0.  0.
    9000005    1    3    3    0    0  0.10201024604E+02  0.14498556914E+02  0.24103323882E+03  0.24168634895E+03  0.10000000000E+01 0.  0.
<mgrwt>
<rscale>  0 0.12499749E+03</rscale>
<asrwt>0</asrwt>
<pdfrwt beam="2">  1        4 0.39625672E-02 0.12499749E+03</pdfrwt>
<pdfrwt beam="1">  1       -4 0.61609253E-01 0.12499749E+03</pdfrwt>
<totfact> 0.14098812E+03</totfact>
</mgrwt>
</event>
<event>
 5    1  0.1466870E-002  0.1250034E+03  0.7818608E-02  0.1235064E+00
         -4   -1    0    0    0  501 -0.00000000000E+00  0.00000000000E+00  0.76848546658E+01  0.77890879591E+01  0.12700000000E+01 0.  1.
          4   -1    0    0  501    0  0.00000000000E+00 -0.00000000000E+00 -0.50480366022E+03  0.50480525777E+03  0.12700000000E+01 0.  1.
         25    2    1    2    0    0  0.00000000000E+00  0.00000000000E+00 -0.49711880556E+03  0.51259434573E+03  0.12500342570E+03 0.  0.
    9000005    1    3    3    0    0 -0.58421054372E+02  0.48148866623E+01 -0.15972947605E+03  0.17014907653E+03  0.10000000000E+01 0.  0.
    9000005    1    3    3    0    0  0.58421054372E+02 -0.48148866623E+01 -0.33738932951E+03  0.34244526920E+03  0.10000000000E+01 0.  0.
<mgrwt>
<rscale>  0 0.12500343E+03</rscale>
<asrwt>0</asrwt>
<pdfrwt beam="2">  1        4 0.12621403E+00 0.12500343E+03</pdfrwt>
<pdfrwt beam="1">  1       -4 0.19344442E-02 0.12500343E+03</pdfrwt>
<totfact> 0.85631282E+02</totfact>
</mgrwt>
</event>
<event>
 5    1  0.1466870E-002  0.1250028E+03  0.7818608E-02  0.1235065E+00
         -4   -1    0    0    0  501 -0.00000000000E+00  0.00000000000E+00  0.69536479226E+02  0.69548075769E+02  0.12700000000E+01 0. -1.
          4   -1    0    0  501    0  0.00000000000E+00 -0.00000000000E+00 -0.56154571547E+02  0.56168930964E+02  0.12700000000E+01 0. -1.
         25    2    1    2    0    0  0.00000000000E+00  0.00000000000E+00  0.13381907680E+02  0.12571700673E+03  0.12500276128E+03 0.  0.
    9000005    1    3    3    0    0  0.21249512231E+02 -0.42450221717E+01  0.65642091827E+02  0.69133538914E+02  0.10000000000E+01 0.  0.
    9000005    1    3    3    0    0 -0.21249512231E+02  0.42450221717E+01 -0.52260184148E+02  0.56583467819E+02  0.10000000000E+01 0.  0.
<mgrwt>
<rscale>  0 0.12500276E+03</rscale>
<asrwt>0</asrwt>
<pdfrwt beam="2">  1        4 0.14041887E-01 0.12500276E+03</pdfrwt>
<pdfrwt beam="1">  1       -4 0.17387364E-01 0.12500276E+03</pdfrwt>
<totfact> 0.19794942E+03</totfact>
</mgrwt>
</event>
<event>
 5    1  0.1466870E-002  0.1250003E+03  0.7818608E-02  0.1235069E+00
         -4   -1    0    0    0  501 -0.00000000000E+00  0.00000000000E+00  0.27531041402E+03  0.27531334324E+03  0.12700000000E+01 0. -1.
          4   -1    0    0  501    0  0.00000000000E+00 -0.00000000000E+00 -0.14157174595E+02  0.14214024501E+02  0.12700000000E+01 0. -1.
         25    2    1    2    0    0  0.00000000000E+00  0.00000000000E+00  0.26115323942E+03  0.28952736774E+03  0.12500032884E+03 0.  0.
    9000005    1    3    3    0    0  0.28243620745E+02  0.11975108976E+02  0.25668085385E+03  0.25850950869E+03  0.10000000000E+01 0.  0.
    9000005    1    3    3    0    0 -0.28243620745E+02 -0.11975108976E+02  0.44723855724E+01  0.31017859057E+02  0.10000000000E+01 0.  0.
<mgrwt>
<rscale>  0 0.12500033E+03</rscale>
<asrwt>0</asrwt>
<pdfrwt beam="2">  1        4 0.35467662E-02 0.12500033E+03</pdfrwt>
<pdfrwt beam="1">  1       -4 0.68835074E-01 0.12500033E+03</pdfrwt>
<totfact> 0.13269631E+03</totfact>
</mgrwt>
</event>
<event>
 5    1  0.1466870E-002  0.1250034E+03  0.7818608E-02  0.1235064E+00
         -4   -1    0    0    0  501 -0.00000000000E+00  0.00000000000E+00  0.40409382256E+03  0.40409581826E+03  0.12700000000E+01 0. -1.
          4   -1    0    0  501    0  0.00000000000E+00 -0.00000000000E+00 -0.96234749702E+01  0.97069135415E+01  0.12700000000E+01 0. -1.
         25    2    1    2    0    0  0.00000000000E+00  0.00000000000E+00  0.39447034759E+03  0.41380273180E+03  0.12500338281E+03 0.  0.
    9000005    1    3    3    0    0 -0.46006310540E+02 -0.38828351416E+02  0.25275014131E+03  0.25982273845E+03  0.10000000000E+01 0.  0.
    9000005    1    3    3    0    0  0.46006310540E+02  0.38828351416E+02  0.14172020628E+03  0.15397999335E+03  0.10000000000E+01 0.  0.
<mgrwt>
<rscale>  0 0.12500338E+03</rscale>
<asrwt>0</asrwt>
<pdfrwt beam="2">  1        4 0.24165481E-02 0.12500338E+03</pdfrwt>
<pdfrwt beam="1">  1       -4 0.10103413E+00 0.12500338E+03</pdfrwt>
<totfact> 0.10288512E+03</totfact>
</mgrwt>
</event>
<event>
 5    1  0.1466870E-002  0.1249985E+03  0.7818608E-02  0.1235072E+00
         -4   -1    0    0    0  501 -0.00000000000E+00  0.00000000000E+00  0.10242177224E+03  0.10242964575E+03  0.12700000000E+01 0.  1.
          4   -1    0    0  501    0  0.00000000000E+00 -0.00000000000E+00 -0.38118021232E+02  0.38139172023E+02  0.12700000000E+01 0.  1.
         25    2    1    2    0    0  0.00000000000E+00  0.00000000000E+00  0.64303751005E+02  0.14056881777E+03  0.12499848054E+03 0.  0.
    9000005    1    3    3    0    0  0.29392327278E+02  0.52686875831E+02  0.50470168627E+02  0.78664183139E+02  0.10000000000E+01 0.  0.
    9000005    1    3    3    0    0 -0.29392327278E+02 -0.52686875831E+02  0.13833582377E+02  0.61904634633E+02  0.10000000000E+01 0.  0.
<mgrwt>
<rscale>  0 0.12499848E+03</rscale>
<asrwt>0</asrwt>
<pdfrwt beam="2">  1        4 0.95331335E-02 0.12499848E+03</pdfrwt>
<pdfrwt beam="1">  1       -4 0.25609071E-01 0.12499848E+03</pdfrwt>
<totfact> 0.19011954E+03</totfact>
</mgrwt>
</event>
<event>
 5    1  0.1466870E-002  0.1249992E+03  0.7818608E-02  0.1235071E+00
         -4   -1    0    0    0  501 -0.00000000000E+00  0.00000000000E+00  0.26057521398E+02  0.26088451878E+02  0.12700000000E+01 0.  1.
          4   -1    0    0  501    0  0.00000000000E+00 -0.00000000000E+00 -0.14978423697E+03  0.14978962095E+03  0.12700000000E+01 0.  1.
         25    2    1    2    0    0  0.00000000000E+00  0.00000000000E+00 -0.12372671557E+03  0.17587807283E+03  0.12499918542E+03 0.  0.
    9000005    1    3    3    0    0  0.16553100542E+02  0.42838808725E+02 -0.22338314904E+01  0.45990854239E+02  0.10000000000E+01 0.  0.
    9000005    1    3    3    0    0 -0.16553100542E+02 -0.42838808725E+02 -0.12149288408E+03  0.12988721859E+03  0.10000000000E+01 0.  0.
<mgrwt>
<rscale>  0 0.12499919E+03</rscale>
<asrwt>0</asrwt>
<pdfrwt beam="2">  1        4 0.37450596E-01 0.12499919E+03</pdfrwt>
<pdfrwt beam="1">  1       -4 0.65189201E-02 0.12499919E+03</pdfrwt>
<totfact> 0.17335462E+03</totfact>
</mgrwt>
</event>
<event>
 5    1  0.1466870E-002  0.1250356E+03  0.7818608E-02  0.1235014E+00
          4   -1    0    0  501    0  0.00000000000E+00  0.00000000000E+00  0.54536950514E+02  0.54551735732E+02  0.12700000000E+01 0.  1.
         -4   -1    0    0    0  501 -0.00000000000E+00 -0.00000000000E+00 -0.71636391711E+02  0.71647648372E+02  0.12700000000E+01 0.  1.
         25    2    1    2    0    0  0.00000000000E+00  0.00000000000E+00 -0.17099441197E+02  0.12619938410E+03  0.12503556958E+03 0.  0.
    9000005    1    3    3    0    0  0.19823122244E+02  0.51215237209E+01  0.51061742043E+02  0.55022610636E+02  0.10000000000E+01 0.  0.
    9000005    1    3    3    0    0 -0.19823122244E+02 -0.51215237209E+01 -0.68161183240E+02  0.71176773468E+02  0.10000000000E+01 0.  0.
<mgrwt>
<rscale>  0 0.12503557E+03</rscale>
<asrwt>0</asrwt>
<pdfrwt beam="1">  1        4 0.13637493E-01 0.12503557E+03</pdfrwt>
<pdfrwt beam="2">  1       -4 0.17912353E-01 0.12503557E+03</pdfrwt>
<totfact> 0.19753709E+03</totfact>
</mgrwt>
</event>
<event>
 5    1  0.1466870E-002  0.1250011E+03  0.7818608E-02  0.1235068E+00
          4   -1    0    0  501    0  0.00000000000E+00  0.00000000000E+00  0.50458389258E+01  0.52032096311E+01  0.12700000000E+01 0. -1.
         -4   -1    0    0    0  501 -0.00000000000E+00 -0.00000000000E+00 -0.76212179170E+03  0.76212284987E+03  0.12700000000E+01 0. -1.
         25    2    1    2    0    0  0.00000000000E+00  0.00000000000E+00 -0.75707595278E+03  0.76732605950E+03  0.12500113324E+03 0.  0.
    9000005    1    3    3    0    0  0.45110634673E+02  0.41026735884E+02 -0.29455898184E+03  0.30080584469E+03  0.10000000000E+01 0.  0.
    9000005    1    3    3    0    0 -0.45110634673E+02 -0.41026735884E+02 -0.46251697094E+03  0.46652021481E+03  0.10000000000E+01 0.  0.
<mgrwt>
<rscale>  0 0.12500113E+03</rscale>
<asrwt>0</asrwt>
<pdfrwt beam="1">  1        4 0.12812659E-02 0.12500113E+03</pdfrwt>
<pdfrwt beam="2">  1       -4 0.19054986E+00 0.12500113E+03</pdfrwt>
<totfact> 0.55438789E+02</totfact>
</mgrwt>
</event>
<event>
 5    1  0.1466870E-002  0.1250017E+03  0.7818608E-02  0.1235067E+00
          4   -1    0    0  501    0  0.00000000000E+00  0.00000000000E+00  0.12196881710E+02  0.12262822817E+02  0.12700000000E+01 0.  1.
         -4   -1    0    0    0  501 -0.00000000000E+00 -0.00000000000E+00 -0.31934426593E+03  0.31934679126E+03  0.12700000000E+01 0.  1.
         25    2    1    2    0    0  0.00000000000E+00  0.00000000000E+00 -0.30714738422E+03  0.33160961407E+03  0.12500168203E+03 0.  0.
    9000005    1    3    3    0    0 -0.23054323948E+02  0.57157235188E+02 -0.18100254887E+03  0.19121028760E+03  0.10000000000E+01 0.  0.
    9000005    1    3    3    0    0  0.23054323948E+02 -0.57157235188E+02 -0.12614483536E+03  0.14039932647E+03  0.10000000000E+01 0.  0.
<mgrwt>
<rscale>  0 0.12500168E+03</rscale>
<asrwt>0</asrwt>
<pdfrwt beam="1">  1        4 0.30577798E-02 0.12500168E+03</pdfrwt>
<pdfrwt beam="2">  1       -4 0.79844597E-01 0.12500168E+03</pdfrwt>
<totfact> 0.12128739E+03</totfact>
</mgrwt>
</event>
<event>
 5    1  0.1466870E-002  0.1250017E+03  0.7818608E-02  0.1235067E+00
          4   -1    0    0  501    0  0.00000000000E+00  0.00000000000E+00  0.66283212695E+02  0.66295378310E+02  0.12700000000E+01 0. -1.
         -4   -1    0    0    0  501 -0.00000000000E+00 -0.00000000000E+00 -0.58909946909E+02  0.58923634857E+02  0.12700000000E+01 0. -1.
         25    2    1    2    0    0  0.00000000000E+00  0.00000000000E+00  0.73732657866E+01  0.12521901317E+03  0.12500174483E+03 0.  0.
    9000005    1    3    3    0    0  0.88817219897E+01  0.31088784089E+02  0.57258193799E+02  0.65763958509E+02  0.10000000000E+01 0.  0.
    9000005    1    3    3    0    0 -0.88817219897E+01 -0.31088784089E+02 -0.49884928012E+02  0.59455054658E+02  0.10000000000E+01 0.  0.
<mgrwt>
<rscale>  0 0.12500174E+03</rscale>
<asrwt>0</asrwt>
<pdfrwt beam="1">  1        4 0.16574035E-01 0.12500174E+03</pdfrwt>
<pdfrwt beam="2">  1       -4 0.14730719E-01 0.12500174E+03</pdfrwt>
<totfact> 0.19822373E+03</totfact>
</mgrwt>
</event>
<event>
 5    1  0.1466870E-002  0.1250021E+03  0.7818608E-02  0.1235066E+00
         -4   -1    0    0    0  501 -0.00000000000E+00  0.00000000000E+00  0.60343481979E+02  0.60356844826E+02  0.12700000000E+01 0. -1.
          4   -1    0    0  501    0  0.00000000000E+00 -0.00000000000E+00 -0.64708986254E+02  0.64721447775E+02  0.12700000000E+01 0. -1.
         25    2    1    2    0    0  0.00000000000E+00  0.00000000000E+00 -0.43655042750E+01  0.12507829260E+03  0.12500208659E+03 0.  0.
    9000005    1    3    3    0    0  0.14225285985E+02  0.44312386673E+01  0.58545150903E+02  0.60419610490E+02  0.10000000000E+01 0.  0.
    9000005    1    3    3    0    0 -0.14225285985E+02 -0.44312386673E+01 -0.62910655178E+02  0.64658682111E+02  0.10000000000E+01 0.  0.
<mgrwt>
<rscale>  0 0.12500209E+03</rscale>
<asrwt>0</asrwt>
<pdfrwt beam="2">  1        4 0.16180475E-01 0.12500209E+03</pdfrwt>
<pdfrwt beam="1">  1       -4 0.15089099E-01 0.12500209E+03</pdfrwt>
<totfact> 0.19829842E+03</totfact>
</mgrwt>
</event>
<event>
 5    1  0.1466870E-002  0.1250033E+03  0.7818608E-02  0.1235064E+00
          4   -1    0    0  501    0  0.00000000000E+00  0.00000000000E+00  0.88251201192E+02  0.88260338838E+02  0.12700000000E+01 0. -1.
         -4   -1    0    0    0  501 -0.00000000000E+00 -0.00000000000E+00 -0.44244665118E+02  0.44262888421E+02  0.12700000000E+01 0. -1.
         25    2    1    2    0    0  0.00000000000E+00  0.00000000000E+00  0.44006536074E+02  0.13252322726E+03  0.12500332214E+03 0.  0.
    9000005    1    3    3    0    0 -0.14444025945E+02  0.53341247712E+02  0.52939878645E+02  0.76534628397E+02  0.10000000000E+01 0.  0.
    9000005    1    3    3    0    0  0.14444025945E+02 -0.53341247712E+02 -0.89333425708E+01  0.55988598862E+02  0.10000000000E+01 0.  0.
<mgrwt>
<rscale>  0 0.12500332E+03</rscale>
<asrwt>0</asrwt>
<pdfrwt beam="1">  1        4 0.22066220E-01 0.12500332E+03</pdfrwt>
<pdfrwt beam="2">  1       -4 0.11064587E-01 0.12500332E+03</pdfrwt>
<totfact> 0.19428162E+03</totfact>
</mgrwt>
</event>
<event>
 5    1  0.1466870E-002  0.1250024E+03  0.7818608E-02  0.1235065E+00
         -4   -1    0    0    0  501 -0.00000000000E+00  0.00000000000E+00  0.22724824826E+02  0.22760284782E+02  0.12700000000E+01 0.  1.
          4   -1    0    0  501    0  0.00000000000E+00 -0.00000000000E+00 -0.17172840047E+03  0.17173309649E+03  0.12700000000E+01 0.  1.
         25    2    1    2    0    0  0.00000000000E+00  0.00000000000E+00 -0.14900357565E+03  0.19449338127E+03  0.12500243918E+03 0.  0.
    9000005    1    3    3    0    0 -0.43046551049E+02 -0.32501150753E+02 -0.12360746737E+03  0.13486710625E+03  0.10000000000E+01 0.  0.
    9000005    1    3    3    0    0  0.43046551049E+02  0.32501150753E+02 -0.25396108277E+02  0.59626275023E+02  0.10000000000E+01 0.  0.
<mgrwt>
<rscale>  0 0.12500244E+03</rscale>
<asrwt>0</asrwt>
<pdfrwt beam="2">  1        4 0.42937116E-01 0.12500244E+03</pdfrwt>
<pdfrwt beam="1">  1       -4 0.56862262E-02 0.12500244E+03</pdfrwt>
<totfact> 0.16544002E+03</totfact>
</mgrwt>
</event>
<event>
 5    1  0.1466870E-002  0.1249972E+03  0.7818608E-02  0.1235074E+00
         -4   -1    0    0    0  501 -0.00000000000E+00  0.00000000000E+00  0.16968917987E+02  0.17016376749E+02  0.12700000000E+01 0. -1.
          4   -1    0    0  501    0  0.00000000000E+00 -0.00000000000E+00 -0.22981939068E+03  0.22982289972E+03  0.12700000000E+01 0. -1.
         25    2    1    2    0    0  0.00000000000E+00  0.00000000000E+00 -0.21285047270E+03  0.24683927646E+03  0.12499721868E+03 0.  0.
    9000005    1    3    3    0    0 -0.56231559618E+02  0.29393376724E+01 -0.52907899880E+02  0.77271429861E+02  0.10000000000E+01 0.  0.
    9000005    1    3    3    0    0  0.56231559618E+02 -0.29393376724E+01 -0.15994257282E+03  0.16956784660E+03  0.10000000000E+01 0.  0.
<mgrwt>
<rscale>  0 0.12499722E+03</rscale>
<asrwt>0</asrwt>
<pdfrwt beam="2">  1        4 0.57461209E-01 0.12499722E+03</pdfrwt>
<pdfrwt beam="1">  1       -4 0.42486012E-02 0.12499722E+03</pdfrwt>
<totfact> 0.14604638E+03</totfact>
</mgrwt>
</event>
<event>
 5    1  0.1466870E-002  0.1250001E+03  0.7818608E-02  0.1235069E+00
         -4   -1    0    0    0  501 -0.00000000000E+00  0.00000000000E+00  0.10894057635E+03  0.10894797876E+03  0.12700000000E+01 0.  1.
          4   -1    0    0  501    0  0.00000000000E+00 -0.00000000000E+00 -0.35836880582E+02  0.35859376875E+02  0.12700000000E+01 0.  1.
         25    2    1    2    0    0  0.00000000000E+00  0.00000000000E+00  0.73103695770E+02  0.14480735564E+03  0.12500007964E+03 0.  0.
    9000005    1    3    3    0    0 -0.44383743662E+02  0.43690746547E+02  0.42510529206E+02  0.75411823534E+02  0.10000000000E+01 0.  0.
    9000005    1    3    3    0    0  0.44383743662E+02 -0.43690746547E+02  0.30593166564E+02  0.69395532102E+02  0.10000000000E+01 0.  0.
<mgrwt>
<rscale>  0 0.12500008E+03</rscale>
<asrwt>0</asrwt>
<pdfrwt beam="2">  1        4 0.89629576E-02 0.12500008E+03</pdfrwt>
<pdfrwt beam="1">  1       -4 0.27238881E-01 0.12500008E+03</pdfrwt>
<totfact> 0.18796992E+03</totfact>
</mgrwt>
</event>
<event>
 5    1  0.1466870E-002  0.1250009E+03  0.7818608E-02  0.1235068E+00
          4   -1    0    0  501    0  0.00000000000E+00  0.00000000000E+00  0.41874610572E+03  0.41874803159E+03  0.12700000000E+01 0.  1.
         -4   -1    0    0    0  501 -0.00000000000E+00 -0.00000000000E+00 -0.92834013807E+01  0.93698687929E+01  0.12700000000E+01 0.  1.
         25    2    1    2    0    0  0.00000000000E+00  0.00000000000E+00  0.40946270434E+03  0.42811790038E+03  0.12500092151E+03 0.  0.
    9000005    1    3    3    0    0 -0.33161448771E+02  0.26591689993E+01  0.23548507297E+02  0.40771130230E+02  0.10000000000E+01 0.  0.
    9000005    1    3    3    0    0  0.33161448771E+02 -0.26591689993E+01  0.38591419705E+03  0.38734677015E+03  0.10000000000E+01 0.  0.
<mgrwt>
<rscale>  0 0.12500092E+03</rscale>
<asrwt>0</asrwt>
<pdfrwt beam="1">  1        4 0.10469758E+00 0.12500092E+03</pdfrwt>
<pdfrwt beam="2">  1       -4 0.23318995E-02 0.12500092E+03</pdfrwt>
<totfact> 0.10007999E+03</totfact>
</mgrwt>
</event>
<event>
 5    1  0.1466870E-002  0.1249989E+03  0.7818608E-02  0.1235071E+00
          4   -1    0    0  501    0  0.00000000000E+00  0.00000000000E+00  0.27911156212E+02  0.27940034737E+02  0.12700000000E+01 0.  1.
         -4   -1    0    0    0  501 -0.00000000000E+00 -0.00000000000E+00 -0.13984648874E+03  0.13985225530E+03  0.12700000000E+01 0.  1.
         25    2    1    2    0    0  0.00000000000E+00  0.00000000000E+00 -0.11193533253E+03  0.16779229004E+03  0.12499893571E+03 0.  0.
    9000005    1    3    3    0    0  0.29059535894E+02 -0.19588128748E+02  0.13485567733E+02  0.37563439024E+02  0.10000000000E+01 0.  0.
    9000005    1    3    3    0    0 -0.29059535894E+02  0.19588128748E+02 -0.12542090026E+03  0.13022885101E+03  0.10000000000E+01 0.  0.
<mgrwt>
<rscale>  0 0.12499894E+03</rscale>
<asrwt>0</asrwt>
<pdfrwt beam="1">  1        4 0.69821201E-02 0.12499894E+03</pdfrwt>
<pdfrwt beam="2">  1       -4 0.34965951E-01 0.12499894E+03</pdfrwt>
<totfact> 0.17697524E+03</totfact>
</mgrwt>
</event>
<event>
 5    1  0.1466870E-002  0.1250028E+03  0.7818608E-02  0.1235065E+00
          4   -1    0    0  501    0  0.00000000000E+00  0.00000000000E+00  0.27088532294E+03  0.27088830002E+03  0.12700000000E+01 0. -1.
         -4   -1    0    0    0  501 -0.00000000000E+00 -0.00000000000E+00 -0.14389923387E+02  0.14445857367E+02  0.12700000000E+01 0. -1.
         25    2    1    2    0    0  0.00000000000E+00  0.00000000000E+00  0.25649539956E+03  0.28533415738E+03  0.12500276547E+03 0.  0.
    9000005    1    3    3    0    0 -0.53450726515E+02 -0.31856503462E+02  0.14148019332E+03  0.15456216251E+03  0.10000000000E+01 0.  0.
    9000005    1    3    3    0    0  0.53450726515E+02  0.31856503462E+02  0.11501520624E+03  0.13077199487E+03  0.10000000000E+01 0.  0.
<mgrwt>
<rscale>  0 0.12500277E+03</rscale>
<asrwt>0</asrwt>
<pdfrwt beam="1">  1        4 0.67728690E-01 0.12500277E+03</pdfrwt>
<pdfrwt beam="2">  1       -4 0.36048450E-02 0.12500277E+03</pdfrwt>
<totfact> 0.13391433E+03</totfact>
</mgrwt>
</event>
<event>
 5    1  0.1466870E-002  0.1250003E+03  0.7818608E-02  0.1235069E+00
          4   -1    0    0  501    0  0.00000000000E+00  0.00000000000E+00  0.14604842886E+02  0.14659956880E+02  0.12700000000E+01 0.  1.
         -4   -1    0    0    0  501 -0.00000000000E+00 -0.00000000000E+00 -0.26690376114E+03  0.26690678262E+03  0.12700000000E+01 0.  1.
         25    2    1    2    0    0  0.00000000000E+00  0.00000000000E+00 -0.25229891825E+03  0.28156673950E+03  0.12500033857E+03 0.  0.
    9000005    1    3    3    0    0 -0.24425058231E+02 -0.42906722212E+02 -0.39853802071E+02  0.63457827099E+02  0.10000000000E+01 0.  0.
    9000005    1    3    3    0    0  0.24425058231E+02  0.42906722212E+02 -0.21244511618E+03  0.21810891241E+03  0.10000000000E+01 0.  0.
<mgrwt>
<rscale>  0 0.12500034E+03</rscale>
<asrwt>0</asrwt>
<pdfrwt beam="1">  1        4 0.36584785E-02 0.12500034E+03</pdfrwt>
<pdfrwt beam="2">  1       -4 0.66733191E-01 0.12500034E+03</pdfrwt>
<totfact> 0.13503773E+03</totfact>
</mgrwt>
</event>
<event>
 5    1  0.1466870E-002  0.1250045E+03  0.7818608E-02  0.1235062E+00
         -4   -1    0    0    0  501 -0.00000000000E+00  0.00000000000E+00  0.20585735951E+02  0.20624873931E+02  0.12700000000E+01 0.  1.
          4   -1    0    0  501    0  0.00000000000E+00 -0.00000000000E+00 -0.18954738097E+03  0.18955163553E+03  0.12700000000E+01 0.  1.
         25    2    1    2    0    0  0.00000000000E+00  0.00000000000E+00 -0.16896164501E+03  0.21017650946E+03  0.12500451049E+03 0.  0.
    9000005    1    3    3    0    0 -0.53801404556E+02  0.12138737546E+02 -0.13389058356E+03  0.14480893774E+03  0.10000000000E+01 0.  0.
    9000005    1    3    3    0    0  0.53801404556E+02 -0.12138737546E+02 -0.35071061451E+02  0.65367571721E+02  0.10000000000E+01 0.  0.
<mgrwt>
<rscale>  0 0.12500451E+03</rscale>
<asrwt>0</asrwt>
<pdfrwt beam="2">  1        4 0.47392264E-01 0.12500451E+03</pdfrwt>
<pdfrwt beam="1">  1       -4 0.51518586E-02 0.12500451E+03</pdfrwt>
<totfact> 0.15920851E+03</totfact>
</mgrwt>
</event>
<event>
 5    1  0.1466870E-002  0.1250012E+03  0.7818608E-02  0.1235067E+00
         -4   -1    0    0    0  501 -0.00000000000E+00  0.00000000000E+00  0.98194115802E+02  0.98202328272E+02  0.12700000000E+01 0.  1.
          4   -1    0    0  501    0  0.00000000000E+00 -0.00000000000E+00 -0.39761667920E+02  0.39781944847E+02  0.12700000000E+01 0.  1.
         25    2    1    2    0    0  0.00000000000E+00  0.00000000000E+00  0.58432447882E+02  0.13798427312E+03  0.12500123465E+03 0.  0.
    9000005    1    3    3    0    0  0.25099461568E+02  0.13706358145E+02 -0.32120045763E+02  0.43017956302E+02  0.10000000000E+01 0.  0.
    9000005    1    3    3    0    0 -0.25099461568E+02 -0.13706358145E+02  0.90552493645E+02  0.94966316817E+02  0.10000000000E+01 0.  0.
<mgrwt>
<rscale>  0 0.12500123E+03</rscale>
<asrwt>0</asrwt>
<pdfrwt beam="2">  1        4 0.99439783E-02 0.12500123E+03</pdfrwt>
<pdfrwt beam="1">  1       -4 0.24552090E-01 0.12500123E+03</pdfrwt>
<totfact> 0.19143392E+03</totfact>
</mgrwt>
</event>
<event>
 5    1  0.1466870E-002  0.1250057E+03  0.7818608E-02  0.1235060E+00
         -4   -1    0    0    0  501 -0.00000000000E+00  0.00000000000E+00  0.28455028077E+02  0.28483355190E+02  0.12700000000E+01 0. -1.
          4   -1    0    0  501    0  0.00000000000E+00 -0.00000000000E+00 -0.13719093203E+03  0.13719681021E+03  0.12700000000E+01 0. -1.
         25    2    1    2    0    0  0.00000000000E+00  0.00000000000E+00 -0.10873590395E+03  0.16568016539E+03  0.12500568146E+03 0.  0.
    9000005    1    3    3    0    0  0.43141283795E+02 -0.44534397827E+02 -0.44006036382E+02  0.76039556781E+02  0.10000000000E+01 0.  0.
    9000005    1    3    3    0    0 -0.43141283795E+02  0.44534397827E+02 -0.64729867568E+02  0.89640608614E+02  0.10000000000E+01 0.  0.
<mgrwt>
<rscale>  0 0.12500568E+03</rscale>
<asrwt>0</asrwt>
<pdfrwt beam="2">  1        4 0.34302007E-01 0.12500568E+03</pdfrwt>
<pdfrwt beam="1">  1       -4 0.71180330E-02 0.12500568E+03</pdfrwt>
<totfact> 0.17791321E+03</totfact>
</mgrwt>
</event>
<event>
 5    1  0.1466870E-002  0.1250043E+03  0.7818608E-02  0.1235063E+00
         -4   -1    0    0    0  501 -0.00000000000E+00  0.00000000000E+00  0.79390653876E+02  0.79400811223E+02  0.12700000000E+01 0.  1.
          4   -1    0    0  501    0  0.00000000000E+00 -0.00000000000E+00 -0.49184754893E+02  0.49201148502E+02  0.12700000000E+01 0.  1.
         25    2    1    2    0    0  0.00000000000E+00  0.00000000000E+00  0.30205898983E+02  0.12860195972E+03  0.12500427077E+03 0.  0.
    9000005    1    3    3    0    0 -0.30173843243E+02  0.14128695340E+02  0.69496513876E+02  0.77076885569E+02  0.10000000000E+01 0.  0.
    9000005    1    3    3    0    0  0.30173843243E+02 -0.14128695340E+02 -0.39290614894E+02  0.51525074156E+02  0.10000000000E+01 0.  0.
<mgrwt>
<rscale>  0 0.12500427E+03</rscale>
<asrwt>0</asrwt>
<pdfrwt beam="2">  1        4 0.12299508E-01 0.12500427E+03</pdfrwt>
<pdfrwt beam="1">  1       -4 0.19850982E-01 0.12500427E+03</pdfrwt>
<totfact> 0.19637887E+03</totfact>
</mgrwt>
</event>
<event>
 5    1  0.1466870E-002  0.1249981E+03  0.7818608E-02  0.1235072E+00
         -4   -1    0    0    0  501 -0.00000000000E+00  0.00000000000E+00  0.10347400820E+02  0.10425046941E+02  0.12700000000E+01 0. -1.
          4   -1    0    0  501    0  0.00000000000E+00 -0.00000000000E+00 -0.37600921091E+03  0.37601135567E+03  0.12700000000E+01 0. -1.
         25    2    1    2    0    0  0.00000000000E+00  0.00000000000E+00 -0.36566181009E+03  0.38643640261E+03  0.12499813559E+03 0.  0.
    9000005    1    3    3    0    0 -0.17387836555E+02  0.58033757064E+02 -0.23021113853E+03  0.23805130145E+03  0.10000000000E+01 0.  0.
    9000005    1    3    3    0    0  0.17387836555E+02 -0.58033757064E+02 -0.13545067156E+03  0.14838510116E+03  0.10000000000E+01 0.  0.
<mgrwt>
<rscale>  0 0.12499814E+03</rscale>
<asrwt>0</asrwt>
<pdfrwt beam="2">  1        4 0.94012231E-01 0.12499814E+03</pdfrwt>
<pdfrwt beam="1">  1       -4 0.25968253E-02 0.12499814E+03</pdfrwt>
<totfact> 0.10854490E+03</totfact>
</mgrwt>
</event>
<event>
 5    1  0.1466870E-002  0.1250026E+03  0.7818608E-02  0.1235065E+00
          4   -1    0    0  501    0  0.00000000000E+00  0.00000000000E+00  0.42944908791E+02  0.42963683398E+02  0.12700000000E+01 0. -1.
         -4   -1    0    0    0  501 -0.00000000000E+00 -0.00000000000E+00 -0.90920268309E+02  0.90929137735E+02  0.12700000000E+01 0. -1.
         25    2    1    2    0    0  0.00000000000E+00  0.00000000000E+00 -0.47975359517E+02  0.13389282113E+03  0.12500260969E+03 0.  0.
    9000005    1    3    3    0    0 -0.90155949483E+01 -0.19925805449E+02  0.38717186816E+02  0.44478525493E+02  0.10000000000E+01 0.  0.
    9000005    1    3    3    0    0  0.90155949483E+01  0.19925805449E+02 -0.86692546333E+02  0.89414295640E+02  0.10000000000E+01 0.  0.
<mgrwt>
<rscale>  0 0.12500261E+03</rscale>
<asrwt>0</asrwt>
<pdfrwt beam="1">  1        4 0.10739683E-01 0.12500261E+03</pdfrwt>
<pdfrwt beam="2">  1       -4 0.22733522E-01 0.12500261E+03</pdfrwt>
<totfact> 0.19356109E+03</totfact>
</mgrwt>
</event>
<event>
 5    1  0.1466870E-002  0.1249995E+03  0.7818608E-02  0.1235070E+00
         -4   -1    0    0    0  501 -0.00000000000E+00  0.00000000000E+00  0.76401609536E+02  0.76412164213E+02  0.12700000000E+01 0. -1.
          4   -1    0    0  501    0  0.00000000000E+00 -0.00000000000E+00 -0.51105472973E+02  0.51121250648E+02  0.12700000000E+01 0. -1.
         25    2    1    2    0    0  0.00000000000E+00  0.00000000000E+00  0.25296136563E+02  0.12753341486E+03  0.12499950952E+03 0.  0.
    9000005    1    3    3    0    0 -0.49537085659E+02 -0.47443155614E+01 -0.25917485372E+02  0.56117265024E+02  0.10000000000E+01 0.  0.
    9000005    1    3    3    0    0  0.49537085659E+02  0.47443155614E+01  0.51213621935E+02  0.71416149837E+02  0.10000000000E+01 0.  0.
<mgrwt>
<rscale>  0 0.12499951E+03</rscale>
<asrwt>0</asrwt>
<pdfrwt beam="2">  1        4 0.12779660E-01 0.12499951E+03</pdfrwt>
<pdfrwt beam="1">  1       -4 0.19103694E-01 0.12499951E+03</pdfrwt>
<totfact> 0.19698186E+03</totfact>
</mgrwt>
</event>
<event>
 5    1  0.1466870E-002  0.1249987E+03  0.7818608E-02  0.1235071E+00
          4   -1    0    0  501    0  0.00000000000E+00  0.00000000000E+00  0.20909475564E+02  0.20948008697E+02  0.12700000000E+01 0. -1.
         -4   -1    0    0    0  501 -0.00000000000E+00 -0.00000000000E+00 -0.18660052874E+03  0.18660485049E+03  0.12700000000E+01 0. -1.
         25    2    1    2    0    0  0.00000000000E+00  0.00000000000E+00 -0.16569105318E+03  0.20755285919E+03  0.12499865701E+03 0.  0.
    9000005    1    3    3    0    0 -0.94890892102E+01  0.76245939465E+01  0.18929992164E+02  0.22528245609E+02  0.10000000000E+01 0.  0.
    9000005    1    3    3    0    0  0.94890892102E+01 -0.76245939465E+01 -0.18462104534E+03  0.18502461358E+03  0.10000000000E+01 0.  0.
<mgrwt>
<rscale>  0 0.12499866E+03</rscale>
<asrwt>0</asrwt>
<pdfrwt beam="1">  1        4 0.52327263E-02 0.12499866E+03</pdfrwt>
<pdfrwt beam="2">  1       -4 0.46655484E-01 0.12499866E+03</pdfrwt>
<totfact> 0.16024513E+03</totfact>
</mgrwt>
</event>
<event>
 5    1  0.1466870E-002  0.1249981E+03  0.7818608E-02  0.1235072E+00
          4   -1    0    0  501    0  0.00000000000E+00  0.00000000000E+00  0.80867900390E+02  0.80877872211E+02  0.12700000000E+01 0.  1.
         -4   -1    0    0    0  501 -0.00000000000E+00 -0.00000000000E+00 -0.48281284359E+02  0.48297984630E+02  0.12700000000E+01 0.  1.
         25    2    1    2    0    0  0.00000000000E+00  0.00000000000E+00  0.32586616031E+02  0.12917585684E+03  0.12499805777E+03 0.  0.
    9000005    1    3    3    0    0  0.29250940098E+02  0.95859528926E+01  0.72494990735E+02  0.78765675717E+02  0.10000000000E+01 0.  0.
    9000005    1    3    3    0    0 -0.29250940098E+02 -0.95859528926E+01 -0.39908374704E+02  0.50410181125E+02  0.10000000000E+01 0.  0.
<mgrwt>
<rscale>  0 0.12499806E+03</rscale>
<asrwt>0</asrwt>
<pdfrwt beam="1">  1        4 0.20220309E-01 0.12499806E+03</pdfrwt>
<pdfrwt beam="2">  1       -4 0.12073655E-01 0.12499806E+03</pdfrwt>
<totfact> 0.19609681E+03</totfact>
</mgrwt>
</event>
<event>
 5    1  0.1466870E-002  0.1249859E+03  0.7818608E-02  0.1235091E+00
         -4   -1    0    0    0  501 -0.00000000000E+00  0.00000000000E+00  0.28889544667E+03  0.28889823815E+03  0.12700000000E+01 0. -1.
          4   -1    0    0  501    0  0.00000000000E+00 -0.00000000000E+00 -0.13485591892E+02  0.13545260746E+02  0.12700000000E+01 0. -1.
         25    2    1    2    0    0  0.00000000000E+00  0.00000000000E+00  0.27540985478E+03  0.30244349890E+03  0.12498592687E+03 0.  0.
    9000005    1    3    3    0    0 -0.36496976005E+02  0.17489508265E+02  0.22503726295E+02  0.46317705621E+02  0.10000000000E+01 0.  0.
    9000005    1    3    3    0    0  0.36496976005E+02 -0.17489508265E+02  0.25290612849E+03  0.25612579328E+03  0.10000000000E+01 0.  0.
<mgrwt>
<rscale>  0 0.12498593E+03</rscale>
<asrwt>0</asrwt>
<pdfrwt beam="2">  1        4 0.33792055E-02 0.12498593E+03</pdfrwt>
<pdfrwt beam="1">  1       -4 0.72231670E-01 0.12498593E+03</pdfrwt>
<totfact> 0.12907008E+03</totfact>
</mgrwt>
</event>
<event>
 5    1  0.1466870E-002  0.1250016E+03  0.7818608E-02  0.1235067E+00
         -4   -1    0    0    0  501 -0.00000000000E+00  0.00000000000E+00  0.86125605566E+03  0.86125699203E+03  0.12700000000E+01 0. -1.
          4   -1    0    0  501    0  0.00000000000E+00 -0.00000000000E+00 -0.44457832939E+01  0.46236229405E+01  0.12700000000E+01 0. -1.
         25    2    1    2    0    0  0.00000000000E+00  0.00000000000E+00  0.85681027237E+03  0.86588061497E+03  0.12500158615E+03 0.  0.
    9000005    1    3    3    0    0 -0.55867598520E+02  0.27307205369E+02  0.47137299282E+03  0.47545806376E+03  0.10000000000E+01 0.  0.
    9000005    1    3    3    0    0  0.55867598520E+02 -0.27307205369E+02  0.38543727954E+03  0.39042255121E+03  0.10000000000E+01 0.  0.
<mgrwt>
<rscale>  0 0.12500159E+03</rscale>
<asrwt>0</asrwt>
<pdfrwt beam="2">  1        4 0.11337925E-02 0.12500159E+03</pdfrwt>
<pdfrwt beam="1">  1       -4 0.21533642E+00 0.12500159E+03</pdfrwt>
<totfact> 0.46941337E+02</totfact>
</mgrwt>
</event>
<event>
 5    1  0.1466870E-002  0.1250045E+03  0.7818608E-02  0.1235062E+00
         -4   -1    0    0    0  501 -0.00000000000E+00  0.00000000000E+00  0.30315886556E+03  0.30316152570E+03  0.12700000000E+01 0. -1.
          4   -1    0    0  501    0  0.00000000000E+00 -0.00000000000E+00 -0.12852072032E+02  0.12914668230E+02  0.12700000000E+01 0. -1.
         25    2    1    2    0    0  0.00000000000E+00  0.00000000000E+00  0.29030679352E+03  0.31607619393E+03  0.12500450393E+03 0.  0.
    9000005    1    3    3    0    0  0.40198152523E+02 -0.10319207409E+02  0.26329648292E+03  0.26654908634E+03  0.10000000000E+01 0.  0.
    9000005    1    3    3    0    0 -0.40198152523E+02  0.10319207409E+02  0.27010310602E+02  0.49527107594E+02  0.10000000000E+01 0.  0.
<mgrwt>
<rscale>  0 0.12500450E+03</rscale>
<asrwt>0</asrwt>
<pdfrwt beam="2">  1        4 0.32211750E-02 0.12500450E+03</pdfrwt>
<pdfrwt beam="1">  1       -4 0.75797874E-01 0.12500450E+03</pdfrwt>
<totfact> 0.12530867E+03</totfact>
</mgrwt>
</event>
<event>
 5    1  0.1466870E-002  0.1249997E+03  0.7818608E-02  0.1235070E+00
         -4   -1    0    0    0  501 -0.00000000000E+00  0.00000000000E+00  0.10214679405E+03  0.10215468876E+03  0.12700000000E+01 0.  1.
          4   -1    0    0  501    0  0.00000000000E+00 -0.00000000000E+00 -0.38221449001E+02  0.38242542590E+02  0.12700000000E+01 0.  1.
         25    2    1    2    0    0  0.00000000000E+00  0.00000000000E+00  0.63925345051E+02  0.14039723135E+03  0.12499973132E+03 0.  0.
    9000005    1    3    3    0    0 -0.58553019522E+02 -0.14388644390E+02  0.13515688111E+02  0.61799377081E+02  0.10000000000E+01 0.  0.
    9000005    1    3    3    0    0  0.58553019522E+02  0.14388644390E+02  0.50409656940E+02  0.78597854267E+02  0.10000000000E+01 0.  0.
<mgrwt>
<rscale>  0 0.12499973E+03</rscale>
<asrwt>0</asrwt>
<pdfrwt beam="2">  1        4 0.95589858E-02 0.12499973E+03</pdfrwt>
<pdfrwt beam="1">  1       -4 0.25540322E-01 0.12499973E+03</pdfrwt>
<totfact> 0.19020158E+03</totfact>
</mgrwt>
</event>
<event>
 5    1  0.1466870E-002  0.1250032E+03  0.7818608E-02  0.1235064E+00
         -4   -1    0    0    0  501 -0.00000000000E+00  0.00000000000E+00  0.22424460998E+02  0.22460395167E+02  0.12700000000E+01 0. -1.
          4   -1    0    0  501    0  0.00000000000E+00 -0.00000000000E+00 -0.17402702901E+03  0.17403166300E+03  0.12700000000E+01 0. -1.
         25    2    1    2    0    0  0.00000000000E+00  0.00000000000E+00 -0.15160256801E+03  0.19649205817E+03  0.12500316114E+03 0.  0.
    9000005    1    3    3    0    0 -0.53520214156E+02  0.95985727297E+01 -0.27380188911E+02  0.60886949887E+02  0.10000000000E+01 0.  0.
    9000005    1    3    3    0    0  0.53520214156E+02 -0.95985727297E+01 -0.12422237910E+03  0.13560510828E+03  0.10000000000E+01 0.  0.
<mgrwt>
<rscale>  0 0.12500316E+03</rscale>
<asrwt>0</asrwt>
<pdfrwt beam="2">  1        4 0.43511824E-01 0.12500316E+03</pdfrwt>
<pdfrwt beam="1">  1       -4 0.56111868E-02 0.12500316E+03</pdfrwt>
<totfact> 0.16462271E+03</totfact>
</mgrwt>
</event>
<event>
 5    1  0.1466870E-002  0.1249948E+03  0.7818608E-02  0.1235077E+00
          4   -1    0    0  501    0  0.00000000000E+00  0.00000000000E+00  0.89830359910E+02  0.89839336938E+02  0.12700000000E+01 0.  1.
         -4   -1    0    0    0  501 -0.00000000000E+00 -0.00000000000E+00 -0.43460709564E+02  0.43479261445E+02  0.12700000000E+01 0.  1.
         25    2    1    2    0    0  0.00000000000E+00  0.00000000000E+00  0.46369650345E+02  0.13331859838E+03  0.12499481670E+03 0.  0.
    9000005    1    3    3    0    0  0.20349950987E+02 -0.35651863188E+02 -0.27066878103E+02  0.49181213325E+02  0.10000000000E+01 0.  0.
    9000005    1    3    3    0    0 -0.20349950987E+02  0.35651863188E+02  0.73436528448E+02  0.84137385058E+02  0.10000000000E+01 0.  0.
<mgrwt>
<rscale>  0 0.12499482E+03</rscale>
<asrwt>0</asrwt>
<pdfrwt beam="1">  1        4 0.22461031E-01 0.12499482E+03</pdfrwt>
<pdfrwt beam="2">  1       -4 0.10868619E-01 0.12499482E+03</pdfrwt>
<totfact> 0.19389918E+03</totfact>
</mgrwt>
</event>
<event>
 5    1  0.1466870E-002  0.1249965E+03  0.7818608E-02  0.1235075E+00
          4   -1    0    0  501    0  0.00000000000E+00  0.00000000000E+00  0.32371330475E+02  0.32396233372E+02  0.12700000000E+01 0. -1.
         -4   -1    0    0    0  501 -0.00000000000E+00 -0.00000000000E+00 -0.12058866675E+03  0.12059535417E+03  0.12700000000E+01 0. -1.
         25    2    1    2    0    0  0.00000000000E+00  0.00000000000E+00 -0.88217336274E+02  0.15299158755E+03  0.12499650971E+03 0.  0.
    9000005    1    3    3    0    0 -0.32337900495E+01 -0.17364678971E+02  0.29258344382E+02  0.34191229720E+02  0.10000000000E+01 0.  0.
    9000005    1    3    3    0    0  0.32337900495E+01  0.17364678971E+02 -0.11747568066E+03  0.11880035782E+03  0.10000000000E+01 0.  0.
<mgrwt>
<rscale>  0 0.12499651E+03</rscale>
<asrwt>0</asrwt>
<pdfrwt beam="1">  1        4 0.80967817E-02 0.12499651E+03</pdfrwt>
<pdfrwt beam="2">  1       -4 0.30151114E-01 0.12499651E+03</pdfrwt>
<totfact> 0.18394150E+03</totfact>
</mgrwt>
</event>
<event>
 5    1  0.1466870E-002  0.1250038E+03  0.7818608E-02  0.1235063E+00
         -4   -1    0    0    0  501 -0.00000000000E+00  0.00000000000E+00  0.22397002680E+03  0.22397362748E+03  0.12700000000E+01 0.  1.
          4   -1    0    0  501    0  0.00000000000E+00 -0.00000000000E+00 -0.17415145688E+02  0.17461391678E+02  0.12700000000E+01 0.  1.
         25    2    1    2    0    0  0.00000000000E+00  0.00000000000E+00  0.20655488112E+03  0.24143501916E+03  0.12500379819E+03 0.  0.
    9000005    1    3    3    0    0  0.36023113409E+02 -0.17407459631E+02  0.19600182586E+03  0.20004599494E+03  0.10000000000E+01 0.  0.
    9000005    1    3    3    0    0 -0.36023113409E+02  0.17407459631E+02  0.10553055254E+02  0.41389024217E+02  0.10000000000E+01 0.  0.
<mgrwt>
<rscale>  0 0.12500380E+03</rscale>
<asrwt>0</asrwt>
<pdfrwt beam="2">  1        4 0.43600173E-02 0.12500380E+03</pdfrwt>
<pdfrwt beam="1">  1       -4 0.55998737E-01 0.12500380E+03</pdfrwt>
<totfact> 0.14785847E+03</totfact>
</mgrwt>
</event>
<event>
 5    1  0.1466870E-002  0.1249924E+03  0.7818608E-02  0.1235081E+00
         -4   -1    0    0    0  501 -0.00000000000E+00  0.00000000000E+00  0.13708818299E+02  0.13767519717E+02  0.12700000000E+01 0.  1.
          4   -1    0    0  501    0  0.00000000000E+00 -0.00000000000E+00 -0.28424077173E+03  0.28424360892E+03  0.12700000000E+01 0.  1.
         25    2    1    2    0    0  0.00000000000E+00  0.00000000000E+00 -0.27053195343E+03  0.29801112864E+03  0.12499237963E+03 0.  0.
    9000005    1    3    3    0    0  0.25881060359E+02  0.20848143044E+02 -0.90974073311E+01  0.34470816263E+02  0.10000000000E+01 0.  0.
    9000005    1    3    3    0    0 -0.25881060359E+02 -0.20848143044E+02 -0.26143454609E+03  0.26354031237E+03  0.10000000000E+01 0.  0.
<mgrwt>
<rscale>  0 0.12499238E+03</rscale>
<asrwt>0</asrwt>
<pdfrwt beam="2">  1        4 0.71067866E-01 0.12499238E+03</pdfrwt>
<pdfrwt beam="1">  1       -4 0.34348978E-02 0.12499238E+03</pdfrwt>
<totfact> 0.13029258E+03</totfact>
</mgrwt>
</event>
<event>
 5    1  0.1466870E-002  0.1250058E+03  0.7818608E-02  0.1235060E+00
         -4   -1    0    0    0  501 -0.00000000000E+00  0.00000000000E+00  0.56221141025E+02  0.56235483444E+02  0.12700000000E+01 0. -1.
          4   -1    0    0  501    0  0.00000000000E+00 -0.00000000000E+00 -0.69457548364E+02  0.69469158083E+02  0.12700000000E+01 0. -1.
         25    2    1    2    0    0  0.00000000000E+00  0.00000000000E+00 -0.13236407338E+02  0.12570464153E+03  0.12500581755E+03 0.  0.
    9000005    1    3    3    0    0 -0.11173580499E+02  0.58362654754E+02 -0.26080085078E+02  0.64901611758E+02  0.10000000000E+01 0.  0.
    9000005    1    3    3    0    0  0.11173580499E+02 -0.58362654754E+02  0.12843677740E+02  0.60803029768E+02  0.10000000000E+01 0.  0.
<mgrwt>
<rscale>  0 0.12500582E+03</rscale>
<asrwt>0</asrwt>
<pdfrwt beam="2">  1        4 0.17367631E-01 0.12500582E+03</pdfrwt>
<pdfrwt beam="1">  1       -4 0.14058529E-01 0.12500582E+03</pdfrwt>
<totfact> 0.19794195E+03</totfact>
</mgrwt>
</event>
<event>
 5    1  0.1466870E-002  0.1250037E+03  0.7818608E-02  0.1235063E+00
          4   -1    0    0  501    0  0.00000000000E+00  0.00000000000E+00  0.37008683463E+03  0.37008901371E+03  0.12700000000E+01 0.  1.
         -4   -1    0    0    0  501 -0.00000000000E+00 -0.00000000000E+00 -0.10515169465E+02  0.10591585758E+02  0.12700000000E+01 0.  1.
         25    2    1    2    0    0  0.00000000000E+00  0.00000000000E+00  0.35957166517E+03  0.38068059947E+03  0.12500374562E+03 0.  0.
    9000005    1    3    3    0    0  0.49900939319E+02  0.12358513635E+02  0.71572996382E+02  0.88127920747E+02  0.10000000000E+01 0.  0.
    9000005    1    3    3    0    0 -0.49900939319E+02 -0.12358513635E+02  0.28799866879E+03  0.29255267872E+03  0.10000000000E+01 0.  0.
<mgrwt>
<rscale>  0 0.12500375E+03</rscale>
<asrwt>0</asrwt>
<pdfrwt beam="1">  1        4 0.92531537E-01 0.12500375E+03</pdfrwt>
<pdfrwt beam="2">  1       -4 0.26386167E-02 0.12500375E+03</pdfrwt>
<totfact> 0.10977340E+03</totfact>
</mgrwt>
</event>
<event>
 5    1  0.1466870E-002  0.1250028E+03  0.7818608E-02  0.1235065E+00
          4   -1    0    0  501    0  0.00000000000E+00  0.00000000000E+00  0.45046861428E+02  0.45064760340E+02  0.12700000000E+01 0. -1.
         -4   -1    0    0    0  501 -0.00000000000E+00 -0.00000000000E+00 -0.86679391059E+02  0.86688694386E+02  0.12700000000E+01 0. -1.
         25    2    1    2    0    0  0.00000000000E+00  0.00000000000E+00 -0.41632529631E+02  0.13175345473E+03  0.12500282120E+03 0.  0.
    9000005    1    3    3    0    0 -0.22306790143E+02  0.32440816937E+02 -0.71969959435E+02  0.82040688387E+02  0.10000000000E+01 0.  0.
    9000005    1    3    3    0    0  0.22306790143E+02 -0.32440816937E+02  0.30337429804E+02  0.49712766339E+02  0.10000000000E+01 0.  0.
<mgrwt>
<rscale>  0 0.12500282E+03</rscale>
<asrwt>0</asrwt>
<pdfrwt beam="1">  1        4 0.11265116E-01 0.12500282E+03</pdfrwt>
<pdfrwt beam="2">  1       -4 0.21673248E-01 0.12500282E+03</pdfrwt>
<totfact> 0.19469292E+03</totfact>
</mgrwt>
</event>
<event>
 5    1  0.1466870E-002  0.1250126E+03  0.7818608E-02  0.1235050E+00
          4   -1    0    0  501    0  0.00000000000E+00  0.00000000000E+00  0.44609383348E+02  0.44627457721E+02  0.12700000000E+01 0. -1.
         -4   -1    0    0    0  501 -0.00000000000E+00 -0.00000000000E+00 -0.87542905718E+02  0.87552117288E+02  0.12700000000E+01 0. -1.
         25    2    1    2    0    0  0.00000000000E+00  0.00000000000E+00 -0.42933522371E+02  0.13217957501E+03  0.12501261019E+03 0.  0.
    9000005    1    3    3    0    0 -0.24417374421E+02 -0.46197015718E+02  0.14786949090E+02  0.54314144551E+02  0.10000000000E+01 0.  0.
    9000005    1    3    3    0    0  0.24417374421E+02  0.46197015718E+02 -0.57720471461E+02  0.77865430459E+02  0.10000000000E+01 0.  0.
<mgrwt>
<rscale>  0 0.12501261E+03</rscale>
<asrwt>0</asrwt>
<pdfrwt beam="1">  1        4 0.11155757E-01 0.12501261E+03</pdfrwt>
<pdfrwt beam="2">  1       -4 0.21889137E-01 0.12501261E+03</pdfrwt>
<totfact> 0.19442187E+03</totfact>
</mgrwt>
</event>
<event>
 5    1  0.1466870E-002  0.1250023E+03  0.7818608E-02  0.1235066E+00
          4   -1    0    0  501    0  0.00000000000E+00  0.00000000000E+00  0.81516641849E+02  0.81526534320E+02  0.12700000000E+01 0. -1.
         -4   -1    0    0    0  501 -0.00000000000E+00 -0.00000000000E+00 -0.47900180316E+02  0.47917013412E+02  0.12700000000E+01 0. -1.
         25    2    1    2    0    0  0.00000000000E+00  0.00000000000E+00  0.33616461533E+02  0.12944354773E+03  0.12500226223E+03 0.  0.
    9000005    1    3    3    0    0 -0.79309853602E+01 -0.34880023721E+02  0.69872176839E+02  0.78502469259E+02  0.10000000000E+01 0.  0.
    9000005    1    3    3    0    0  0.79309853602E+01  0.34880023721E+02 -0.36255715307E+02  0.50941078473E+02  0.10000000000E+01 0.  0.
<mgrwt>
<rscale>  0 0.12500226E+03</rscale>
<asrwt>0</asrwt>
<pdfrwt beam="1">  1        4 0.20382501E-01 0.12500226E+03</pdfrwt>
<pdfrwt beam="2">  1       -4 0.11978386E-01 0.12500226E+03</pdfrwt>
<totfact> 0.19593309E+03</totfact>
</mgrwt>
</event>
<event>
 5    1  0.1466870E-002  0.1249839E+03  0.7818608E-02  0.1235095E+00
         -4   -1    0    0    0  501 -0.00000000000E+00  0.00000000000E+00  0.13007975669E+02  0.13069825209E+02  0.12700000000E+01 0.  1.
          4   -1    0    0  501    0  0.00000000000E+00 -0.00000000000E+00 -0.29944375759E+03  0.29944645074E+03  0.12700000000E+01 0.  1.
         25    2    1    2    0    0  0.00000000000E+00  0.00000000000E+00 -0.28643578192E+03  0.31251627595E+03  0.12498386123E+03 0.  0.
    9000005    1    3    3    0    0 -0.38418367558E+02 -0.14118353683E+02 -0.25167307755E+02  0.48059257758E+02  0.10000000000E+01 0.  0.
    9000005    1    3    3    0    0  0.38418367558E+02  0.14118353683E+02 -0.26126847417E+03  0.26445701819E+03  0.10000000000E+01 0.  0.
<mgrwt>
<rscale>  0 0.12498386E+03</rscale>
<asrwt>0</asrwt>
<pdfrwt beam="2">  1        4 0.74868985E-01 0.12498386E+03</pdfrwt>
<pdfrwt beam="1">  1       -4 0.32600627E-02 0.12498386E+03</pdfrwt>
<totfact> 0.12632043E+03</totfact>
</mgrwt>
</event>
<event>
 5    1  0.1466870E-002  0.1249955E+03  0.7818608E-02  0.1235076E+00
          4   -1    0    0  501    0  0.00000000000E+00  0.00000000000E+00  0.25630712967E+02  0.25662157883E+02  0.12700000000E+01 0.  1.
         -4   -1    0    0    0  501 -0.00000000000E+00 -0.00000000000E+00 -0.15226666264E+03  0.15227195885E+03  0.12700000000E+01 0.  1.
         25    2    1    2    0    0  0.00000000000E+00  0.00000000000E+00 -0.12663594968E+03  0.17793411674E+03  0.12499554451E+03 0.  0.
    9000005    1    3    3    0    0 -0.40154390705E+02  0.47381160856E+02 -0.53494419594E+02  0.81975620917E+02  0.10000000000E+01 0.  0.
    9000005    1    3    3    0    0  0.40154390705E+02 -0.47381160856E+02 -0.73141530083E+02  0.95958495819E+02  0.10000000000E+01 0.  0.
<mgrwt>
<rscale>  0 0.12499554E+03</rscale>
<asrwt>0</asrwt>
<pdfrwt beam="1">  1        4 0.64122713E-02 0.12499554E+03</pdfrwt>
<pdfrwt beam="2">  1       -4 0.38071256E-01 0.12499554E+03</pdfrwt>
<totfact> 0.17246792E+03</totfact>
</mgrwt>
</event>
<event>
 5    1  0.1466870E-002  0.1250304E+03  0.7818608E-02  0.1235022E+00
         -4   -1    0    0    0  501 -0.00000000000E+00  0.00000000000E+00  0.43707156863E+03  0.43707341374E+03  0.12700000000E+01 0.  1.
          4   -1    0    0  501    0  0.00000000000E+00 -0.00000000000E+00 -0.88947010160E+01  0.89849099141E+01  0.12700000000E+01 0.  1.
         25    2    1    2    0    0  0.00000000000E+00  0.00000000000E+00  0.42817686761E+03  0.44605832366E+03  0.12503038890E+03 0.  0.
    9000005    1    3    3    0    0  0.27756286542E+02 -0.40582310179E+02  0.35179102730E+03  0.35521157390E+03  0.10000000000E+01 0.  0.
    9000005    1    3    3    0    0 -0.27756286542E+02  0.40582310179E+02  0.76385840312E+02  0.90846749761E+02  0.10000000000E+01 0.  0.
<mgrwt>
<rscale>  0 0.12503039E+03</rscale>
<asrwt>0</asrwt>
<pdfrwt beam="2">  1        4 0.22351820E-02 0.12503039E+03</pdfrwt>
<pdfrwt beam="1">  1       -4 0.10927940E+00 0.12503039E+03</pdfrwt>
<totfact> 0.96662203E+02</totfact>
</mgrwt>
</event>
<event>
 5    1  0.1466870E-002  0.1250019E+03  0.7818608E-02  0.1235066E+00
          4   -1    0    0  501    0  0.00000000000E+00  0.00000000000E+00  0.10478851983E+03  0.10479621552E+03  0.12700000000E+01 0.  1.
         -4   -1    0    0    0  501 -0.00000000000E+00 -0.00000000000E+00 -0.37258723461E+02  0.37280361773E+02  0.12700000000E+01 0.  1.
         25    2    1    2    0    0  0.00000000000E+00  0.00000000000E+00  0.67529796367E+02  0.14207657730E+03  0.12500192166E+03 0.  0.
    9000005    1    3    3    0    0  0.86435853136E+01 -0.23038017673E+02  0.99056410955E+02  0.10207171193E+03  0.10000000000E+01 0.  0.
    9000005    1    3    3    0    0 -0.86435853136E+01  0.23038017673E+02 -0.31526614588E+02  0.40004865363E+02  0.10000000000E+01 0.  0.
<mgrwt>
<rscale>  0 0.12500192E+03</rscale>
<asrwt>0</asrwt>
<pdfrwt beam="1">  1        4 0.26200797E-01 0.12500192E+03</pdfrwt>
<pdfrwt beam="2">  1       -4 0.93183476E-02 0.12500192E+03</pdfrwt>
<totfact> 0.18933759E+03</totfact>
</mgrwt>
</event>
<event>
 5    1  0.1466870E-002  0.1250010E+03  0.7818608E-02  0.1235068E+00
          4   -1    0    0  501    0  0.00000000000E+00  0.00000000000E+00  0.30406282482E+03  0.30406547705E+03  0.12700000000E+01 0.  1.
         -4   -1    0    0    0  501 -0.00000000000E+00 -0.00000000000E+00 -0.12812956186E+02  0.12875742551E+02  0.12700000000E+01 0.  1.
         25    2    1    2    0    0  0.00000000000E+00  0.00000000000E+00  0.29124986863E+03  0.31694121960E+03  0.12500100282E+03 0.  0.
    9000005    1    3    3    0    0  0.46718325005E+02  0.41349107696E+02  0.15475350004E+03  0.16685921123E+03  0.10000000000E+01 0.  0.
    9000005    1    3    3    0    0 -0.46718325005E+02 -0.41349107696E+02  0.13649636859E+03  0.15008200837E+03  0.10000000000E+01 0.  0.
<mgrwt>
<rscale>  0 0.12500100E+03</rscale>
<asrwt>0</asrwt>
<pdfrwt beam="1">  1        4 0.76023883E-01 0.12500100E+03</pdfrwt>
<pdfrwt beam="2">  1       -4 0.32114190E-02 0.12500100E+03</pdfrwt>
<totfact> 0.12508900E+03</totfact>
</mgrwt>
</event>
<event>
 5    1  0.1466870E-002  0.1250024E+03  0.7818608E-02  0.1235066E+00
         -4   -1    0    0    0  501 -0.00000000000E+00  0.00000000000E+00  0.22825482307E+01  0.26120732045E+01  0.12700000000E+01 0. -1.
          4   -1    0    0  501    0  0.00000000000E+00 -0.00000000000E+00 -0.15958709950E+04  0.15958715003E+04  0.12700000000E+01 0. -1.
         25    2    1    2    0    0  0.00000000000E+00  0.00000000000E+00 -0.15935884468E+04  0.15984835735E+04  0.12500238878E+03 0.  0.
    9000005    1    3    3    0    0  0.42189839756E+02  0.17506593281E+02 -0.25141503137E+03  0.25553274034E+03  0.10000000000E+01 0.  0.
    9000005    1    3    3    0    0 -0.42189839756E+02 -0.17506593281E+02 -0.13421734154E+04  0.13429508332E+04  0.10000000000E+01 0.  0.
<mgrwt>
<rscale>  0 0.12500239E+03</rscale>
<asrwt>0</asrwt>
<pdfrwt beam="2">  1        4 0.39900543E+00 0.12500239E+03</pdfrwt>
<pdfrwt beam="1">  1       -4 0.61189632E-03 0.12500239E+03</pdfrwt>
<totfact> 0.95421677E+01</totfact>
</mgrwt>
</event>
<event>
 5    1  0.1466870E-002  0.1250147E+03  0.7818608E-02  0.1235046E+00
          4   -1    0    0  501    0  0.00000000000E+00  0.00000000000E+00  0.15216676724E+03  0.15217206693E+03  0.12700000000E+01 0.  1.
         -4   -1    0    0    0  501 -0.00000000000E+00 -0.00000000000E+00 -0.25655427492E+02  0.25686842153E+02  0.12700000000E+01 0.  1.
         25    2    1    2    0    0  0.00000000000E+00  0.00000000000E+00  0.12651133975E+03  0.17785890908E+03  0.12501468895E+03 0.  0.
    9000005    1    3    3    0    0 -0.91744633699E+01  0.13191950605E+02  0.14918475643E+03  0.15005095765E+03  0.10000000000E+01 0.  0.
    9000005    1    3    3    0    0  0.91744633699E+01 -0.13191950605E+02 -0.22673416682E+02  0.27807951434E+02  0.10000000000E+01 0.  0.
<mgrwt>
<rscale>  0 0.12501469E+03</rscale>
<asrwt>0</asrwt>
<pdfrwt beam="1">  1        4 0.38046280E-01 0.12501469E+03</pdfrwt>
<pdfrwt beam="2">  1       -4 0.64184463E-02 0.12501469E+03</pdfrwt>
<totfact> 0.17242419E+03</totfact>
</mgrwt>
</event>
<event>
 5    1  0.1466870E-002  0.1250020E+03  0.7818608E-02  0.1235066E+00
          4   -1    0    0  501    0  0.00000000000E+00  0.00000000000E+00  0.68193799328E+02  0.68205624158E+02  0.12700000000E+01 0. -1.
         -4   -1    0    0    0  501 -0.00000000000E+00 -0.00000000000E+00 -0.57259605421E+02  0.57273687789E+02  0.12700000000E+01 0. -1.
         25    2    1    2    0    0  0.00000000000E+00  0.00000000000E+00  0.10934193907E+02  0.12547931195E+03  0.12500200451E+03 0.  0.
    9000005    1    3    3    0    0 -0.53376294812E+02 -0.31146002836E+02  0.14790886356E+02  0.63552125533E+02  0.10000000000E+01 0.  0.
    9000005    1    3    3    0    0  0.53376294812E+02  0.31146002836E+02 -0.38566924485E+01  0.61927186415E+02  0.10000000000E+01 0.  0.
<mgrwt>
<rscale>  0 0.12500200E+03</rscale>
<asrwt>0</asrwt>
<pdfrwt beam="1">  1        4 0.17051688E-01 0.12500200E+03</pdfrwt>
<pdfrwt beam="2">  1       -4 0.14318140E-01 0.12500200E+03</pdfrwt>
<totfact> 0.19808155E+03</totfact>
</mgrwt>
</event>
<event>
 5    1  0.1466870E-002  0.1249965E+03  0.7818608E-02  0.1235075E+00
         -4   -1    0    0    0  501 -0.00000000000E+00  0.00000000000E+00  0.19261185219E+03  0.19261603906E+03  0.12700000000E+01 0. -1.
          4   -1    0    0  501    0  0.00000000000E+00 -0.00000000000E+00 -0.20254992705E+02  0.20294768525E+02  0.12700000000E+01 0. -1.
         25    2    1    2    0    0  0.00000000000E+00  0.00000000000E+00  0.17235685948E+03  0.21291080758E+03  0.12499649985E+03 0.  0.
    9000005    1    3    3    0    0 -0.22174031099E+02  0.28470308789E+02 -0.72141722541E+00  0.36107708048E+02  0.10000000000E+01 0.  0.
    9000005    1    3    3    0    0  0.22174031099E+02 -0.28470308789E+02  0.17307827671E+03  0.17680309953E+03  0.10000000000E+01 0.  0.
<mgrwt>
<rscale>  0 0.12499650E+03</rscale>
<asrwt>0</asrwt>
<pdfrwt beam="2">  1        4 0.50692435E-02 0.12499650E+03</pdfrwt>
<pdfrwt beam="1">  1       -4 0.48158458E-01 0.12499650E+03</pdfrwt>
<totfact> 0.15819080E+03</totfact>
</mgrwt>
</event>
<event>
 5    1  0.1466870E-002  0.1250010E+03  0.7818608E-02  0.1235068E+00
          4   -1    0    0  501    0  0.00000000000E+00  0.00000000000E+00  0.17271746246E+02  0.17318375166E+02  0.12700000000E+01 0.  1.
         -4   -1    0    0    0  501 -0.00000000000E+00 -0.00000000000E+00 -0.22581450982E+03  0.22581808109E+03  0.12700000000E+01 0.  1.
         25    2    1    2    0    0  0.00000000000E+00  0.00000000000E+00 -0.20854276358E+03  0.24313645626E+03  0.12500100848E+03 0.  0.
    9000005    1    3    3    0    0 -0.52253020744E+02 -0.32755161345E+02 -0.84623778894E+02  0.10471610538E+03  0.10000000000E+01 0.  0.
    9000005    1    3    3    0    0  0.52253020744E+02  0.32755161345E+02 -0.12391898468E+03  0.13842035088E+03  0.10000000000E+01 0.  0.
<mgrwt>
<rscale>  0 0.12500101E+03</rscale>
<asrwt>0</asrwt>
<pdfrwt beam="1">  1        4 0.43242123E-02 0.12500101E+03</pdfrwt>
<pdfrwt beam="2">  1       -4 0.56459893E-01 0.12500101E+03</pdfrwt>
<totfact> 0.14728664E+03</totfact>
</mgrwt>
</event>
<event>
 5    1  0.1466870E-002  0.1250174E+03  0.7818608E-02  0.1235042E+00
         -4   -1    0    0    0  501 -0.00000000000E+00  0.00000000000E+00  0.37557644016E+01  0.39646773185E+01  0.12700000000E+01 0.  1.
          4   -1    0    0  501    0  0.00000000000E+00 -0.00000000000E+00 -0.10119957384E+04  0.10119965353E+04  0.12700000000E+01 0.  1.
         25    2    1    2    0    0  0.00000000000E+00  0.00000000000E+00 -0.10082399740E+04  0.10159612126E+04  0.12501736022E+03 0.  0.
    9000005    1    3    3    0    0  0.47477597609E+00 -0.19098970019E+02 -0.20515239348E+02  0.28051223031E+02  0.10000000000E+01 0.  0.
    9000005    1    3    3    0    0 -0.47477597609E+00  0.19098970019E+02 -0.98772473461E+03  0.98790998954E+03  0.10000000000E+01 0.  0.
<mgrwt>
<rscale>  0 0.12501736E+03</rscale>
<asrwt>0</asrwt>
<pdfrwt beam="2">  1        4 0.25302424E+00 0.12501736E+03</pdfrwt>
<pdfrwt beam="1">  1       -4 0.96515829E-03 0.12501736E+03</pdfrwt>
<totfact> 0.36031900E+02</totfact>
</mgrwt>
</event>
<event>
 5    1  0.1466870E-002  0.1249977E+03  0.7818608E-02  0.1235073E+00
         -4   -1    0    0    0  501 -0.00000000000E+00  0.00000000000E+00  0.14590467932E+02  0.14645636022E+02  0.12700000000E+01 0.  1.
          4   -1    0    0  501    0  0.00000000000E+00 -0.00000000000E+00 -0.26715425492E+03  0.26715727357E+03  0.12700000000E+01 0.  1.
         25    2    1    2    0    0  0.00000000000E+00  0.00000000000E+00 -0.25256378699E+03  0.28180290959E+03  0.12499765341E+03 0.  0.
    9000005    1    3    3    0    0 -0.23274270045E+02 -0.47287114735E+02 -0.20197758528E+03  0.20874316234E+03  0.10000000000E+01 0.  0.
    9000005    1    3    3    0    0  0.23274270045E+02  0.47287114735E+02 -0.50586201705E+02  0.73059747255E+02  0.10000000000E+01 0.  0.
<mgrwt>
<rscale>  0 0.12499765E+03</rscale>
<asrwt>0</asrwt>
<pdfrwt beam="2">  1        4 0.66795821E-01 0.12499765E+03</pdfrwt>
<pdfrwt beam="1">  1       -4 0.36548912E-02 0.12499765E+03</pdfrwt>
<totfact> 0.13497567E+03</totfact>
</mgrwt>
</event>
<event>
 5    1  0.1466870E-002  0.1250102E+03  0.7818608E-02  0.1235053E+00
         -4   -1    0    0    0  501 -0.00000000000E+00  0.00000000000E+00  0.54303806655E+03  0.54303955162E+03  0.12700000000E+01 0. -1.
          4   -1    0    0  501    0  0.00000000000E+00 -0.00000000000E+00 -0.71369444485E+01  0.72490603571E+01  0.12700000000E+01 0. -1.
         25    2    1    2    0    0  0.00000000000E+00  0.00000000000E+00  0.53590112210E+03  0.55028861198E+03  0.12501017479E+03 0.  0.
    9000005    1    3    3    0    0 -0.49226192098E+02  0.29678522732E+02  0.15995883863E+03  0.16997606525E+03  0.10000000000E+01 0.  0.
    9000005    1    3    3    0    0  0.49226192098E+02 -0.29678522732E+02  0.37594228347E+03  0.38031254673E+03  0.10000000000E+01 0.  0.
<mgrwt>
<rscale>  0 0.12501017E+03</rscale>
<asrwt>0</asrwt>
<pdfrwt beam="2">  1        4 0.17984362E-02 0.12501017E+03</pdfrwt>
<pdfrwt beam="1">  1       -4 0.13577372E+00 0.12501017E+03</pdfrwt>
<totfact> 0.80108086E+02</totfact>
</mgrwt>
</event>
<event>
 5    1  0.1466870E-002  0.1249966E+03  0.7818608E-02  0.1235075E+00
          4   -1    0    0  501    0  0.00000000000E+00  0.00000000000E+00  0.83296471388E+02  0.83306152508E+02  0.12700000000E+01 0.  1.
         -4   -1    0    0    0  501 -0.00000000000E+00 -0.00000000000E+00 -0.46872215583E+02  0.46889417715E+02  0.12700000000E+01 0.  1.
         25    2    1    2    0    0  0.00000000000E+00  0.00000000000E+00  0.36424255805E+02  0.13019557022E+03  0.12499664033E+03 0.  0.
    9000005    1    3    3    0    0 -0.76694931601E+01  0.55489037030E+02 -0.10638024277E+02  0.57026501878E+02  0.10000000000E+01 0.  0.
    9000005    1    3    3    0    0  0.76694931601E+01 -0.55489037030E+02  0.47062280083E+02  0.73169068345E+02  0.10000000000E+01 0.  0.
<mgrwt>
<rscale>  0 0.12499664E+03</rscale>
<asrwt>0</asrwt>
<pdfrwt beam="1">  1        4 0.20827478E-01 0.12499664E+03</pdfrwt>
<pdfrwt beam="2">  1       -4 0.11721414E-01 0.12499664E+03</pdfrwt>
<totfact> 0.19555408E+03</totfact>
</mgrwt>
</event>
<event>
 5    1  0.1466870E-002  0.1249995E+03  0.7818608E-02  0.1235070E+00
          4   -1    0    0  501    0  0.00000000000E+00  0.00000000000E+00  0.36563532916E+02  0.36585582396E+02  0.12700000000E+01 0.  1.
         -4   -1    0    0    0  501 -0.00000000000E+00 -0.00000000000E+00 -0.10677575456E+03  0.10678330703E+03  0.12700000000E+01 0.  1.
         25    2    1    2    0    0  0.00000000000E+00  0.00000000000E+00 -0.70212221640E+02  0.14336888943E+03  0.12499952955E+03 0.  0.
    9000005    1    3    3    0    0 -0.58729065568E+02 -0.80315236292E+01 -0.57803431004E+02  0.82800031100E+02  0.10000000000E+01 0.  0.
    9000005    1    3    3    0    0  0.58729065568E+02  0.80315236292E+01 -0.12408790636E+02  0.60568858329E+02  0.10000000000E+01 0.  0.
<mgrwt>
<rscale>  0 0.12499953E+03</rscale>
<asrwt>0</asrwt>
<pdfrwt beam="1">  1        4 0.91445837E-02 0.12499953E+03</pdfrwt>
<pdfrwt beam="2">  1       -4 0.26697638E-01 0.12499953E+03</pdfrwt>
<totfact> 0.18869508E+03</totfact>
</mgrwt>
</event>
<event>
 5    1  0.1466870E-002  0.1249990E+03  0.7818608E-02  0.1235071E+00
         -4   -1    0    0    0  501 -0.00000000000E+00  0.00000000000E+00  0.18203768831E+03  0.18204211838E+03  0.12700000000E+01 0.  1.
          4   -1    0    0  501    0  0.00000000000E+00 -0.00000000000E+00 -0.21434644329E+02  0.21472235038E+02  0.12700000000E+01 0.  1.
         25    2    1    2    0    0  0.00000000000E+00  0.00000000000E+00  0.16060304398E+03  0.20351435342E+03  0.12499901724E+03 0.  0.
    9000005    1    3    3    0    0  0.22836895396E+02 -0.83146064623E+01 -0.13432998274E+02  0.27786721911E+02  0.10000000000E+01 0.  0.
    9000005    1    3    3    0    0 -0.22836895396E+02  0.83146064623E+01  0.17403604225E+03  0.17572763151E+03  0.10000000000E+01 0.  0.
<mgrwt>
<rscale>  0 0.12499902E+03</rscale>
<asrwt>0</asrwt>
<pdfrwt beam="2">  1        4 0.53639137E-02 0.12499902E+03</pdfrwt>
<pdfrwt beam="1">  1       -4 0.45514675E-01 0.12499902E+03</pdfrwt>
<totfact> 0.16182649E+03</totfact>
</mgrwt>
</event>
<event>
 5    1  0.1466870E-002  0.1249970E+03  0.7818608E-02  0.1235074E+00
         -4   -1    0    0    0  501 -0.00000000000E+00  0.00000000000E+00  0.17087953391E+02  0.17135082465E+02  0.12700000000E+01 0. -1.
          4   -1    0    0  501    0  0.00000000000E+00 -0.00000000000E+00 -0.22822211260E+03  0.22822564619E+03  0.12700000000E+01 0. -1.
         25    2    1    2    0    0  0.00000000000E+00  0.00000000000E+00 -0.21113415921E+03  0.24536072866E+03  0.12499701589E+03 0.  0.
    9000005    1    3    3    0    0 -0.58120828836E+02 -0.22006996780E+02 -0.92736518533E+02  0.11163960105E+03  0.10000000000E+01 0.  0.
    9000005    1    3    3    0    0  0.58120828836E+02  0.22006996780E+02 -0.11839764068E+03  0.13372112761E+03  0.10000000000E+01 0.  0.
<mgrwt>
<rscale>  0 0.12499702E+03</rscale>
<asrwt>0</asrwt>
<pdfrwt beam="2">  1        4 0.57061851E-01 0.12499702E+03</pdfrwt>
<pdfrwt beam="1">  1       -4 0.42783219E-02 0.12499702E+03</pdfrwt>
<totfact> 0.14654546E+03</totfact>
</mgrwt>
</event>
<event>
 5    1  0.1466870E-002  0.1249997E+03  0.7818608E-02  0.1235070E+00
          4   -1    0    0  501    0  0.00000000000E+00  0.00000000000E+00  0.47111925234E+03  0.47112096412E+03  0.12700000000E+01 0. -1.
         -4   -1    0    0    0  501 -0.00000000000E+00 -0.00000000000E+00 -0.82410200921E+01  0.83383039138E+01  0.12700000000E+01 0. -1.
         25    2    1    2    0    0  0.00000000000E+00  0.00000000000E+00  0.46287823225E+03  0.47945926803E+03  0.12499972723E+03 0.  0.
    9000005    1    3    3    0    0 -0.36024801077E+02  0.47423098824E+02  0.15881430331E+03  0.16961638933E+03  0.10000000000E+01 0.  0.
    9000005    1    3    3    0    0  0.36024801077E+02 -0.47423098824E+02  0.30406392895E+03  0.30984287870E+03  0.10000000000E+01 0.  0.
<mgrwt>
<rscale>  0 0.12499973E+03</rscale>
<asrwt>0</asrwt>
<pdfrwt beam="1">  1        4 0.11779218E+00 0.12499973E+03</pdfrwt>
<pdfrwt beam="2">  1       -4 0.20726295E-02 0.12499973E+03</pdfrwt>
<totfact> 0.90957795E+02</totfact>
</mgrwt>
</event>
<event>
 5    1  0.1466870E-002  0.1250014E+03  0.7818608E-02  0.1235067E+00
         -4   -1    0    0    0  501 -0.00000000000E+00  0.00000000000E+00  0.19077345851E+02  0.19119571771E+02  0.12700000000E+01 0. -1.
          4   -1    0    0  501    0  0.00000000000E+00 -0.00000000000E+00 -0.20449245663E+03  0.20449640025E+03  0.12700000000E+01 0. -1.
         25    2    1    2    0    0  0.00000000000E+00  0.00000000000E+00 -0.18541511078E+03  0.22361597203E+03  0.12500135856E+03 0.  0.
    9000005    1    3    3    0    0  0.70734582036E+01 -0.42899803042E+02 -0.12407527221E+02  0.45225807275E+02  0.10000000000E+01 0.  0.
    9000005    1    3    3    0    0 -0.70734582036E+01  0.42899803042E+02 -0.17300758356E+03  0.17839016475E+03  0.10000000000E+01 0.  0.
<mgrwt>
<rscale>  0 0.12500136E+03</rscale>
<asrwt>0</asrwt>
<pdfrwt beam="2">  1        4 0.51128879E-01 0.12500136E+03</pdfrwt>
<pdfrwt beam="1">  1       -4 0.47751083E-02 0.12500136E+03</pdfrwt>
<totfact> 0.15417659E+03</totfact>
</mgrwt>
</event>
<event>
 5    1  0.1466870E-002  0.1249877E+03  0.7818608E-02  0.1235088E+00
          4   -1    0    0  501    0  0.00000000000E+00  0.00000000000E+00  0.82757213955E+01  0.83726020219E+01  0.12700000000E+01 0. -1.
         -4   -1    0    0    0  501 -0.00000000000E+00 -0.00000000000E+00 -0.46907648856E+03  0.46907820778E+03  0.12700000000E+01 0. -1.
         25    2    1    2    0    0  0.00000000000E+00  0.00000000000E+00 -0.46080076716E+03  0.47745080980E+03  0.12498771446E+03 0.  0.
    9000005    1    3    3    0    0  0.22393623293E+02  0.26628923917E+02 -0.42866842065E+03  0.43007928201E+03  0.10000000000E+01 0.  0.
    9000005    1    3    3    0    0 -0.22393623293E+02 -0.26628923917E+02 -0.32132346514E+02  0.47371527795E+02  0.10000000000E+01 0.  0.
<mgrwt>
<rscale>  0 0.12498771E+03</rscale>
<asrwt>0</asrwt>
<pdfrwt beam="1">  1        4 0.20812569E-02 0.12498771E+03</pdfrwt>
<pdfrwt beam="2">  1       -4 0.11728136E+00 0.12498771E+03</pdfrwt>
<totfact> 0.91313960E+02</totfact>
</mgrwt>
</event>
<event>
 5    1  0.1466870E-002  0.1250057E+03  0.7818608E-02  0.1235060E+00
         -4   -1    0    0    0  501 -0.00000000000E+00  0.00000000000E+00  0.37656644702E+02  0.37678054490E+02  0.12700000000E+01 0.  1.
          4   -1    0    0  501    0  0.00000000000E+00 -0.00000000000E+00 -0.10368806338E+03  0.10369584074E+03  0.12700000000E+01 0.  1.
         25    2    1    2    0    0  0.00000000000E+00  0.00000000000E+00 -0.66031418674E+02  0.14137389523E+03  0.12500571987E+03 0.  0.
    9000005    1    3    3    0    0  0.10162301338E+02  0.58370341694E+02 -0.55499465835E+02  0.81188421994E+02  0.10000000000E+01 0.  0.
    9000005    1    3    3    0    0 -0.10162301338E+02 -0.58370341694E+02 -0.10531952839E+02  0.60185473235E+02  0.10000000000E+01 0.  0.
<mgrwt>
<rscale>  0 0.12500572E+03</rscale>
<asrwt>0</asrwt>
<pdfrwt beam="2">  1        4 0.25925664E-01 0.12500572E+03</pdfrwt>
<pdfrwt beam="1">  1       -4 0.94178098E-02 0.12500572E+03</pdfrwt>
<totfact> 0.18967746E+03</totfact>
</mgrwt>
</event>
<event>
 5    1  0.1466870E-002  0.1250078E+03  0.7818608E-02  0.1235057E+00
          4   -1    0    0  501    0  0.00000000000E+00  0.00000000000E+00  0.26791786379E+03  0.26792087384E+03  0.12700000000E+01 0.  1.
         -4   -1    0    0    0  501 -0.00000000000E+00 -0.00000000000E+00 -0.14551106628E+02  0.14606423385E+02  0.12700000000E+01 0.  1.
         25    2    1    2    0    0  0.00000000000E+00  0.00000000000E+00  0.25336675716E+03  0.28252729722E+03  0.12500783992E+03 0.  0.
    9000005    1    3    3    0    0 -0.89696671343E+00  0.32754943442E+01 -0.14353490429E+02  0.14783642988E+02  0.10000000000E+01 0.  0.
    9000005    1    3    3    0    0  0.89696671343E+00 -0.32754943442E+01  0.26772024759E+03  0.26774365424E+03  0.10000000000E+01 0.  0.
<mgrwt>
<rscale>  0 0.12500784E+03</rscale>
<asrwt>0</asrwt>
<pdfrwt beam="1">  1        4 0.66986755E-01 0.12500784E+03</pdfrwt>
<pdfrwt beam="2">  1       -4 0.36450676E-02 0.12500784E+03</pdfrwt>
<totfact> 0.13472865E+03</totfact>
</mgrwt>
</event>
<event>
 5    1  0.1466870E-002  0.1250040E+03  0.7818608E-02  0.1235063E+00
          4   -1    0    0  501    0  0.00000000000E+00  0.00000000000E+00  0.16411950399E+03  0.16412441771E+03  0.12700000000E+01 0. -1.
         -4   -1    0    0    0  501 -0.00000000000E+00 -0.00000000000E+00 -0.23780561398E+02  0.23814449404E+02  0.12700000000E+01 0. -1.
         25    2    1    2    0    0  0.00000000000E+00  0.00000000000E+00  0.14033894259E+03  0.18793886712E+03  0.12500399580E+03 0.  0.
    9000005    1    3    3    0    0  0.53210180292E+02  0.32358560268E+02  0.77996151914E+02  0.99813823806E+02  0.10000000000E+01 0.  0.
    9000005    1    3    3    0    0 -0.53210180292E+02 -0.32358560268E+02  0.62342790679E+02  0.88125043313E+02  0.10000000000E+01 0.  0.
<mgrwt>
<rscale>  0 0.12500400E+03</rscale>
<asrwt>0</asrwt>
<pdfrwt beam="1">  1        4 0.41034726E-01 0.12500400E+03</pdfrwt>
<pdfrwt beam="2">  1       -4 0.59499906E-02 0.12500400E+03</pdfrwt>
<totfact> 0.16815103E+03</totfact>
</mgrwt>
</event>
<event>
 5    1  0.1466870E-002  0.1249999E+03  0.7818608E-02  0.1235069E+00
          4   -1    0    0  501    0  0.00000000000E+00  0.00000000000E+00  0.61054480530E+03  0.61054612617E+03  0.12700000000E+01 0. -1.
         -4   -1    0    0    0  501 -0.00000000000E+00 -0.00000000000E+00 -0.63335958080E+01  0.64596699497E+01  0.12700000000E+01 0. -1.
         25    2    1    2    0    0  0.00000000000E+00  0.00000000000E+00  0.60421120949E+03  0.61700579612E+03  0.12499986707E+03 0.  0.
    9000005    1    3    3    0    0  0.30300567037E+02  0.51214022746E+02  0.39631066432E+03  0.40075446740E+03  0.10000000000E+01 0.  0.
    9000005    1    3    3    0    0 -0.30300567037E+02 -0.51214022746E+02  0.20790054517E+03  0.21625132871E+03  0.10000000000E+01 0.  0.
<mgrwt>
<rscale>  0 0.12499987E+03</rscale>
<asrwt>0</asrwt>
<pdfrwt beam="1">  1        4 0.15265214E+00 0.12499987E+03</pdfrwt>
<pdfrwt beam="2">  1       -4 0.15993232E-02 0.12499987E+03</pdfrwt>
<totfact> 0.71403837E+02</totfact>
</mgrwt>
</event>
<event>
 5    1  0.1466870E-002  0.1249944E+03  0.7818608E-02  0.1235078E+00
         -4   -1    0    0    0  501 -0.00000000000E+00  0.00000000000E+00  0.45696947244E+02  0.45714591624E+02  0.12700000000E+01 0.  1.
          4   -1    0    0  501    0  0.00000000000E+00 -0.00000000000E+00 -0.85435103988E+02  0.85444542795E+02  0.12700000000E+01 0.  1.
         25    2    1    2    0    0  0.00000000000E+00  0.00000000000E+00 -0.39738156745E+02  0.13115913442E+03  0.12499438963E+03 0.  0.
    9000005    1    3    3    0    0  0.77507009820E+01  0.29052001017E+02  0.37612286346E+02  0.48164055197E+02  0.10000000000E+01 0.  0.
    9000005    1    3    3    0    0 -0.77507009820E+01 -0.29052001017E+02 -0.77350443091E+02  0.82995079223E+02  0.10000000000E+01 0.  0.
<mgrwt>
<rscale>  0 0.12499439E+03</rscale>
<asrwt>0</asrwt>
<pdfrwt beam="2">  1        4 0.21362161E-01 0.12499439E+03</pdfrwt>
<pdfrwt beam="1">  1       -4 0.11427622E-01 0.12499439E+03</pdfrwt>
<totfact> 0.19504824E+03</totfact>
</mgrwt>
</event>
<event>
 5    1  0.1466870E-002  0.1250007E+03  0.7818608E-02  0.1235068E+00
          4   -1    0    0  501    0  0.00000000000E+00  0.00000000000E+00  0.30175271120E+02  0.30201984821E+02  0.12700000000E+01 0.  1.
         -4   -1    0    0    0  501 -0.00000000000E+00 -0.00000000000E+00 -0.12936638916E+03  0.12937262286E+03  0.12700000000E+01 0.  1.
         25    2    1    2    0    0  0.00000000000E+00  0.00000000000E+00 -0.99191118045E+02  0.15957460768E+03  0.12500071007E+03 0.  0.
    9000005    1    3    3    0    0  0.59007587057E+02 -0.11394739738E+02 -0.71468086566E+02  0.93383204172E+02  0.10000000000E+01 0.  0.
    9000005    1    3    3    0    0 -0.59007587057E+02  0.11394739738E+02 -0.27723031478E+02  0.66191403508E+02  0.10000000000E+01 0.  0.
<mgrwt>
<rscale>  0 0.12500071E+03</rscale>
<asrwt>0</asrwt>
<pdfrwt beam="1">  1        4 0.75479365E-02 0.12500071E+03</pdfrwt>
<pdfrwt beam="2">  1       -4 0.32345714E-01 0.12500071E+03</pdfrwt>
<totfact> 0.18077494E+03</totfact>
</mgrwt>
</event>
<event>
 5    1  0.1466870E-002  0.1250073E+03  0.7818608E-02  0.1235058E+00
         -4   -1    0    0    0  501 -0.00000000000E+00  0.00000000000E+00  0.11412402463E+03  0.11413109085E+03  0.12700000000E+01 0.  1.
          4   -1    0    0  501    0  0.00000000000E+00 -0.00000000000E+00 -0.34212197978E+02  0.34235761865E+02  0.12700000000E+01 0.  1.
         25    2    1    2    0    0  0.00000000000E+00  0.00000000000E+00  0.79911826655E+02  0.14836685271E+03  0.12500729157E+03 0.  0.
    9000005    1    3    3    0    0 -0.23696834212E+02  0.41215265024E+01 -0.28504514481E+02  0.37309975585E+02  0.10000000000E+01 0.  0.
    9000005    1    3    3    0    0  0.23696834212E+02 -0.41215265024E+01  0.10841634114E+03  0.11105687713E+03  0.10000000000E+01 0.  0.
<mgrwt>
<rscale>  0 0.12500729E+03</rscale>
<asrwt>0</asrwt>
<pdfrwt beam="2">  1        4 0.85568784E-02 0.12500729E+03</pdfrwt>
<pdfrwt beam="1">  1       -4 0.28534834E-01 0.12500729E+03</pdfrwt>
<totfact> 0.18616216E+03</totfact>
</mgrwt>
</event>
<event>
 5    1  0.1466870E-002  0.1250007E+03  0.7818608E-02  0.1235068E+00
         -4   -1    0    0    0  501 -0.00000000000E+00  0.00000000000E+00  0.78137607305E+02  0.78147927518E+02  0.12700000000E+01 0.  1.
          4   -1    0    0  501    0  0.00000000000E+00 -0.00000000000E+00 -0.49970815340E+02  0.49986951155E+02  0.12700000000E+01 0.  1.
         25    2    1    2    0    0  0.00000000000E+00  0.00000000000E+00  0.28166791965E+02  0.12813487867E+03  0.12500071585E+03 0.  0.
    9000005    1    3    3    0    0 -0.25925432559E+02 -0.51741362085E+02 -0.10087432136E+02  0.58754173391E+02  0.10000000000E+01 0.  0.
    9000005    1    3    3    0    0  0.25925432559E+02  0.51741362085E+02  0.38254224101E+02  0.69380705281E+02  0.10000000000E+01 0.  0.
<mgrwt>
<rscale>  0 0.12500072E+03</rscale>
<asrwt>0</asrwt>
<pdfrwt beam="2">  1        4 0.12496011E-01 0.12500072E+03</pdfrwt>
<pdfrwt beam="1">  1       -4 0.19537709E-01 0.12500072E+03</pdfrwt>
<totfact> 0.19664870E+03</totfact>
</mgrwt>
</event>
<event>
 5    1  0.1466870E-002  0.1250048E+03  0.7818608E-02  0.1235062E+00
         -4   -1    0    0    0  501 -0.00000000000E+00  0.00000000000E+00  0.40795190632E+03  0.40795388314E+03  0.12700000000E+01 0. -1.
          4   -1    0    0  501    0  0.00000000000E+00 -0.00000000000E+00 -0.95318836417E+01  0.96161169792E+01  0.12700000000E+01 0. -1.
         25    2    1    2    0    0  0.00000000000E+00  0.00000000000E+00  0.39842002268E+03  0.41757000012E+03  0.12500476203E+03 0.  0.
    9000005    1    3    3    0    0  0.51533261744E+02  0.34118695991E+02  0.23014919072E+03  0.23830529258E+03  0.10000000000E+01 0.  0.
    9000005    1    3    3    0    0 -0.51533261744E+02 -0.34118695991E+02  0.16827083196E+03  0.17926470754E+03  0.10000000000E+01 0.  0.
<mgrwt>
<rscale>  0 0.12500476E+03</rscale>
<asrwt>0</asrwt>
<pdfrwt beam="2">  1        4 0.23937474E-02 0.12500476E+03</pdfrwt>
<pdfrwt beam="1">  1       -4 0.10199875E+00 0.12500476E+03</pdfrwt>
<totfact> 0.10213047E+03</totfact>
</mgrwt>
</event>
<event>
 5    1  0.1466870E-002  0.1250003E+03  0.7818608E-02  0.1235069E+00
         -4   -1    0    0    0  501 -0.00000000000E+00  0.00000000000E+00  0.35667851481E+01  0.37861400255E+01  0.12700000000E+01 0.  1.
          4   -1    0    0  501    0  0.00000000000E+00 -0.00000000000E+00 -0.10622884228E+04  0.10622891819E+04  0.12700000000E+01 0.  1.
         25    2    1    2    0    0  0.00000000000E+00  0.00000000000E+00 -0.10587216376E+04  0.10660753219E+04  0.12500034448E+03 0.  0.
    9000005    1    3    3    0    0 -0.15140145074E+02  0.25956940418E+02 -0.99666818054E+03  0.99712158178E+03  0.10000000000E+01 0.  0.
    9000005    1    3    3    0    0  0.15140145074E+02 -0.25956940418E+02 -0.62053457072E+02  0.68953740169E+02  0.10000000000E+01 0.  0.
<mgrwt>
<rscale>  0 0.12500034E+03</rscale>
<asrwt>0</asrwt>
<pdfrwt beam="2">  1        4 0.26559857E+00 0.12500034E+03</pdfrwt>
<pdfrwt beam="1">  1       -4 0.91921418E-03 0.12500034E+03</pdfrwt>
<totfact> 0.32842663E+02</totfact>
</mgrwt>
</event>
<event>
 5    1  0.1466870E-002  0.1249998E+03  0.7818608E-02  0.1235070E+00
          4   -1    0    0  501    0  0.00000000000E+00  0.00000000000E+00  0.25971032603E+02  0.26002065966E+02  0.12700000000E+01 0.  1.
         -4   -1    0    0    0  501 -0.00000000000E+00 -0.00000000000E+00 -0.15028401649E+03  0.15028938257E+03  0.12700000000E+01 0.  1.
         25    2    1    2    0    0  0.00000000000E+00  0.00000000000E+00 -0.12431298389E+03  0.17629144853E+03  0.12499982745E+03 0.  0.
    9000005    1    3    3    0    0  0.34262301829E+02  0.25567095652E+02 -0.12644136812E+03  0.13347659450E+03  0.10000000000E+01 0.  0.
    9000005    1    3    3    0    0 -0.34262301829E+02 -0.25567095652E+02  0.21283842323E+01  0.42814854036E+02  0.10000000000E+01 0.  0.
<mgrwt>
<rscale>  0 0.12499983E+03</rscale>
<asrwt>0</asrwt>
<pdfrwt beam="1">  1        4 0.64973085E-02 0.12499983E+03</pdfrwt>
<pdfrwt beam="2">  1       -4 0.37575552E-01 0.12499983E+03</pdfrwt>
<totfact> 0.17317023E+03</totfact>
</mgrwt>
</event>
<event>
 5    1  0.1466870E-002  0.1250013E+03  0.7818608E-02  0.1235067E+00
         -4   -1    0    0    0  501 -0.00000000000E+00  0.00000000000E+00  0.19891378033E+02  0.19931879491E+02  0.12700000000E+01 0. -1.
          4   -1    0    0  501    0  0.00000000000E+00 -0.00000000000E+00 -0.19614099484E+03  0.19614510638E+03  0.12700000000E+01 0. -1.
         25    2    1    2    0    0  0.00000000000E+00  0.00000000000E+00 -0.17624961681E+03  0.21607698587E+03  0.12500134559E+03 0.  0.
    9000005    1    3    3    0    0 -0.84523114237E+01  0.57434341494E+01 -0.19469539612E+03  0.19496596081E+03  0.10000000000E+01 0.  0.
    9000005    1    3    3    0    0  0.84523114237E+01 -0.57434341494E+01  0.18445779319E+02  0.21111025056E+02  0.10000000000E+01 0.  0.
<mgrwt>
<rscale>  0 0.12500135E+03</rscale>
<asrwt>0</asrwt>
<pdfrwt beam="2">  1        4 0.49040819E-01 0.12500135E+03</pdfrwt>
<pdfrwt beam="1">  1       -4 0.49784217E-02 0.12500135E+03</pdfrwt>
<totfact> 0.15697424E+03</totfact>
</mgrwt>
</event>
<event>
 5    1  0.1466870E-002  0.1250012E+03  0.7818608E-02  0.1235067E+00
         -4   -1    0    0    0  501 -0.00000000000E+00  0.00000000000E+00  0.34723215350E+03  0.34723447600E+03  0.12700000000E+01 0.  1.
          4   -1    0    0  501    0  0.00000000000E+00 -0.00000000000E+00 -0.11211677677E+02  0.11283377878E+02  0.12700000000E+01 0.  1.
         25    2    1    2    0    0  0.00000000000E+00  0.00000000000E+00  0.33602047582E+03  0.35851785388E+03  0.12500116551E+03 0.  0.
    9000005    1    3    3    0    0 -0.53085808076E+02 -0.15573256164E+02  0.84652425951E+02  0.10113190667E+03  0.10000000000E+01 0.  0.
    9000005    1    3    3    0    0  0.53085808076E+02  0.15573256164E+02  0.25136804987E+03  0.25738594721E+03  0.10000000000E+01 0.  0.
<mgrwt>
<rscale>  0 0.12500117E+03</rscale>
<asrwt>0</asrwt>
<pdfrwt beam="2">  1        4 0.28121723E-02 0.12500117E+03</pdfrwt>
<pdfrwt beam="1">  1       -4 0.86817290E-01 0.12500117E+03</pdfrwt>
<totfact> 0.11476463E+03</totfact>
</mgrwt>
</event>
<event>
 5    1  0.1466870E-002  0.1250008E+03  0.7818608E-02  0.1235068E+00
          4   -1    0    0  501    0  0.00000000000E+00  0.00000000000E+00  0.12201079353E+03  0.12201740301E+03  0.12700000000E+01 0.  1.
         -4   -1    0    0    0  501 -0.00000000000E+00 -0.00000000000E+00 -0.31995920971E+02  0.32021115826E+02  0.12700000000E+01 0.  1.
         25    2    1    2    0    0  0.00000000000E+00  0.00000000000E+00  0.90014872557E+02  0.15403851884E+03  0.12500075201E+03 0.  0.
    9000005    1    3    3    0    0  0.48417101532E+02 -0.39479835226E+02  0.43088885824E+02  0.75898123770E+02  0.10000000000E+01 0.  0.
    9000005    1    3    3    0    0 -0.48417101532E+02  0.39479835226E+02  0.46925986733E+02  0.78140395066E+02  0.10000000000E+01 0.  0.
<mgrwt>
<rscale>  0 0.12500075E+03</rscale>
<asrwt>0</asrwt>
<pdfrwt beam="1">  1        4 0.30506674E-01 0.12500075E+03</pdfrwt>
<pdfrwt beam="2">  1       -4 0.80029558E-02 0.12500075E+03</pdfrwt>
<totfact> 0.18341652E+03</totfact>
</mgrwt>
</event>
<event>
 5    1  0.1466870E-002  0.1250041E+03  0.7818608E-02  0.1235063E+00
         -4   -1    0    0    0  501 -0.00000000000E+00  0.00000000000E+00  0.45551469271E+02  0.45569169981E+02  0.12700000000E+01 0.  1.
          4   -1    0    0  501    0  0.00000000000E+00 -0.00000000000E+00 -0.85721249086E+02  0.85730656389E+02  0.12700000000E+01 0.  1.
         25    2    1    2    0    0  0.00000000000E+00  0.00000000000E+00 -0.40169779815E+02  0.13129982637E+03  0.12500413271E+03 0.  0.
    9000005    1    3    3    0    0 -0.21071391506E+01  0.55491563999E+02  0.10025116593E+02  0.56438078220E+02  0.10000000000E+01 0.  0.
    9000005    1    3    3    0    0  0.21071391506E+01 -0.55491563999E+02 -0.50194896409E+02  0.74861748149E+02  0.10000000000E+01 0.  0.
<mgrwt>
<rscale>  0 0.12500413E+03</rscale>
<asrwt>0</asrwt>
<pdfrwt beam="2">  1        4 0.21433701E-01 0.12500413E+03</pdfrwt>
<pdfrwt beam="1">  1       -4 0.11391256E-01 0.12500413E+03</pdfrwt>
<totfact> 0.19492877E+03</totfact>
</mgrwt>
</event>
<event>
 5    1  0.1466870E-002  0.1249962E+03  0.7818608E-02  0.1235075E+00
         -4   -1    0    0    0  501 -0.00000000000E+00  0.00000000000E+00  0.48822423994E+02  0.48838939226E+02  0.12700000000E+01 0. -1.
          4   -1    0    0  501    0  0.00000000000E+00 -0.00000000000E+00 -0.79969347678E+02  0.79979431531E+02  0.12700000000E+01 0. -1.
         25    2    1    2    0    0  0.00000000000E+00  0.00000000000E+00 -0.31146923684E+02  0.12881837076E+03  0.12499616710E+03 0.  0.
    9000005    1    3    3    0    0 -0.51155195234E+02  0.37289209279E+01 -0.52361675436E+02  0.73304187501E+02  0.10000000000E+01 0.  0.
    9000005    1    3    3    0    0  0.51155195234E+02 -0.37289209279E+01  0.21214751752E+02  0.55514183256E+02  0.10000000000E+01 0.  0.
<mgrwt>
<rscale>  0 0.12499617E+03</rscale>
<asrwt>0</asrwt>
<pdfrwt beam="2">  1        4 0.19995662E-01 0.12499617E+03</pdfrwt>
<pdfrwt beam="1">  1       -4 0.12208931E-01 0.12499617E+03</pdfrwt>
<totfact> 0.19629878E+03</totfact>
</mgrwt>
</event>
<event>
 5    1  0.1466870E-002  0.1250009E+03  0.7818608E-02  0.1235068E+00
          4   -1    0    0  501    0  0.00000000000E+00  0.00000000000E+00  0.82989268008E+01  0.83955396518E+01  0.12700000000E+01 0.  1.
         -4   -1    0    0    0  501 -0.00000000000E+00 -0.00000000000E+00 -0.46787858426E+03  0.46788030789E+03  0.12700000000E+01 0.  1.
         25    2    1    2    0    0  0.00000000000E+00  0.00000000000E+00 -0.45957965746E+03  0.47627584754E+03  0.12500088559E+03 0.  0.
    9000005    1    3    3    0    0  0.20221353239E+02  0.39303190883E+02 -0.39811447329E+03  0.40056182767E+03  0.10000000000E+01 0.  0.
    9000005    1    3    3    0    0 -0.20221353239E+02 -0.39303190883E+02 -0.61465184170E+02  0.75714019874E+02  0.10000000000E+01 0.  0.
<mgrwt>
<rscale>  0 0.12500089E+03</rscale>
<asrwt>0</asrwt>
<pdfrwt beam="1">  1        4 0.20870253E-02 0.12500089E+03</pdfrwt>
<pdfrwt beam="2">  1       -4 0.11698185E+00 0.12500089E+03</pdfrwt>
<totfact> 0.91481283E+02</totfact>
</mgrwt>
</event>
<event>
 5    1  0.1466870E-002  0.1249976E+03  0.7818608E-02  0.1235073E+00
          4   -1    0    0  501    0  0.00000000000E+00  0.00000000000E+00  0.15670858151E+03  0.15671372760E+03  0.12700000000E+01 0.  1.
         -4   -1    0    0    0  501 -0.00000000000E+00 -0.00000000000E+00 -0.24904130596E+02  0.24936491749E+02  0.12700000000E+01 0.  1.
         25    2    1    2    0    0  0.00000000000E+00  0.00000000000E+00  0.13180445092E+03  0.18165021935E+03  0.12499755561E+03 0.  0.
    9000005    1    3    3    0    0  0.40628751657E+01 -0.39173010960E+02  0.13641108275E+03  0.14198596846E+03  0.10000000000E+01 0.  0.
    9000005    1    3    3    0    0 -0.40628751657E+01  0.39173010960E+02 -0.46066318310E+01  0.39664250896E+02  0.10000000000E+01 0.  0.
<mgrwt>
<rscale>  0 0.12499756E+03</rscale>
<asrwt>0</asrwt>
<pdfrwt beam="1">  1        4 0.39181834E-01 0.12499756E+03</pdfrwt>
<pdfrwt beam="2">  1       -4 0.62307211E-02 0.12499756E+03</pdfrwt>
<totfact> 0.17084992E+03</totfact>
</mgrwt>
</event>
<event>
 5    1  0.1466870E-002  0.1250011E+03  0.7818608E-02  0.1235068E+00
         -4   -1    0    0    0  501 -0.00000000000E+00  0.00000000000E+00  0.35012151404E+02  0.35035177264E+02  0.12700000000E+01 0.  1.
          4   -1    0    0  501    0  0.00000000000E+00 -0.00000000000E+00 -0.11150702335E+03  0.11151425540E+03  0.12700000000E+01 0.  1.
         25    2    1    2    0    0  0.00000000000E+00  0.00000000000E+00 -0.76494871948E+02  0.14654943266E+03  0.12500108311E+03 0.  0.
    9000005    1    3    3    0    0 -0.80327222533E+01  0.30887325395E+02  0.24743225805E+02  0.40395280913E+02  0.10000000000E+01 0.  0.
    9000005    1    3    3    0    0  0.80327222533E+01 -0.30887325395E+02 -0.10123809775E+03  0.10615415175E+03  0.10000000000E+01 0.  0.
<mgrwt>
<rscale>  0 0.12500108E+03</rscale>
<asrwt>0</asrwt>
<pdfrwt beam="2">  1        4 0.27880537E-01 0.12500108E+03</pdfrwt>
<pdfrwt beam="1">  1       -4 0.87568204E-02 0.12500108E+03</pdfrwt>
<totfact> 0.18709285E+03</totfact>
</mgrwt>
</event>
<event>
 5    1  0.1466870E-002  0.1249982E+03  0.7818608E-02  0.1235072E+00
          4   -1    0    0  501    0  0.00000000000E+00  0.00000000000E+00  0.29459308633E+02  0.29486670974E+02  0.12700000000E+01 0. -1.
         -4   -1    0    0    0  501 -0.00000000000E+00 -0.00000000000E+00 -0.13250238994E+03  0.13250847610E+03  0.12700000000E+01 0. -1.
         25    2    1    2    0    0  0.00000000000E+00  0.00000000000E+00 -0.10304308130E+03  0.16199514707E+03  0.12499820427E+03 0.  0.
    9000005    1    3    3    0    0  0.48976969466E+02 -0.20798832718E+02 -0.93989412093E+02  0.10801085393E+03  0.10000000000E+01 0.  0.
    9000005    1    3    3    0    0 -0.48976969466E+02  0.20798832718E+02 -0.90536692095E+01  0.53984293148E+02  0.10000000000E+01 0.  0.
<mgrwt>
<rscale>  0 0.12499820E+03</rscale>
<asrwt>0</asrwt>
<pdfrwt beam="1">  1        4 0.73690086E-02 0.12499820E+03</pdfrwt>
<pdfrwt beam="2">  1       -4 0.33129777E-01 0.12499820E+03</pdfrwt>
<totfact> 0.17965012E+03</totfact>
</mgrwt>
</event>
<event>
 5    1  0.1466870E-002  0.1249985E+03  0.7818608E-02  0.1235072E+00
          4   -1    0    0  501    0  0.00000000000E+00  0.00000000000E+00  0.60137052457E+02  0.60150461164E+02  0.12700000000E+01 0.  1.
         -4   -1    0    0    0  501 -0.00000000000E+00 -0.00000000000E+00 -0.64927337372E+02  0.64939756992E+02  0.12700000000E+01 0.  1.
         25    2    1    2    0    0  0.00000000000E+00  0.00000000000E+00 -0.47902849146E+01  0.12509021816E+03  0.12499846339E+03 0.  0.
    9000005    1    3    3    0    0  0.19785942736E+02  0.49700716774E+02  0.29931962526E+02  0.61307154219E+02  0.10000000000E+01 0.  0.
    9000005    1    3    3    0    0 -0.19785942736E+02 -0.49700716774E+02 -0.34722247441E+02  0.63783063936E+02  0.10000000000E+01 0.  0.
<mgrwt>
<rscale>  0 0.12499846E+03</rscale>
<asrwt>0</asrwt>
<pdfrwt beam="1">  1        4 0.15037492E-01 0.12499846E+03</pdfrwt>
<pdfrwt beam="2">  1       -4 0.16235063E-01 0.12499846E+03</pdfrwt>
<totfact> 0.19830876E+03</totfact>
</mgrwt>
</event>
<event>
 5    1  0.1466870E-002  0.1249994E+03  0.7818608E-02  0.1235070E+00
          4   -1    0    0  501    0  0.00000000000E+00  0.00000000000E+00  0.52214875874E+01  0.53737168352E+01  0.12700000000E+01 0.  1.
         -4   -1    0    0    0  501 -0.00000000000E+00 -0.00000000000E+00 -0.73720242731E+03  0.73720352124E+03  0.12700000000E+01 0.  1.
         25    2    1    2    0    0  0.00000000000E+00  0.00000000000E+00 -0.73198093972E+03  0.74257723808E+03  0.12499943357E+03 0.  0.
    9000005    1    3    3    0    0  0.21446178756E+02 -0.55171361537E+01 -0.18839333485E+02  0.29091199026E+02  0.10000000000E+01 0.  0.
    9000005    1    3    3    0    0 -0.21446178756E+02  0.55171361537E+01 -0.71314160624E+03  0.71348603905E+03  0.10000000000E+01 0.  0.
<mgrwt>
<rscale>  0 0.12499943E+03</rscale>
<asrwt>0</asrwt>
<pdfrwt beam="1">  1        4 0.13245398E-02 0.12499943E+03</pdfrwt>
<pdfrwt beam="2">  1       -4 0.18431942E+00 0.12499943E+03</pdfrwt>
<totfact> 0.57784736E+02</totfact>
</mgrwt>
</event>
<event>
 5    1  0.1466870E-002  0.1250025E+03  0.7818608E-02  0.1235065E+00
          4   -1    0    0  501    0  0.00000000000E+00  0.00000000000E+00  0.96985000946E+01  0.97812986911E+01  0.12700000000E+01 0.  1.
         -4   -1    0    0    0  501 -0.00000000000E+00 -0.00000000000E+00 -0.40098890987E+03  0.40099092102E+03  0.12700000000E+01 0.  1.
         25    2    1    2    0    0  0.00000000000E+00  0.00000000000E+00 -0.39129040978E+03  0.41077221971E+03  0.12500252678E+03 0.  0.
    9000005    1    3    3    0    0  0.16201933841E+02 -0.35554259302E+02 -0.35371886188E+02  0.52714119050E+02  0.10000000000E+01 0.  0.
    9000005    1    3    3    0    0 -0.16201933841E+02  0.35554259302E+02 -0.35591852359E+03  0.35805810066E+03  0.10000000000E+01 0.  0.
<mgrwt>
<rscale>  0 0.12500253E+03</rscale>
<asrwt>0</asrwt>
<pdfrwt beam="1">  1        4 0.24352276E-02 0.12500253E+03</pdfrwt>
<pdfrwt beam="2">  1       -4 0.10025777E+00 0.12500253E+03</pdfrwt>
<totfact> 0.10349776E+03</totfact>
</mgrwt>
</event>
<event>
 5    1  0.1466870E-002  0.1249967E+03  0.7818608E-02  0.1235074E+00
          4   -1    0    0  501    0  0.00000000000E+00  0.00000000000E+00  0.34749192393E+03  0.34749424470E+03  0.12700000000E+01 0. -1.
         -4   -1    0    0    0  501 -0.00000000000E+00 -0.00000000000E+00 -0.11202436708E+02  0.11274195679E+02  0.12700000000E+01 0. -1.
         25    2    1    2    0    0  0.00000000000E+00  0.00000000000E+00  0.33628948723E+03  0.35876844038E+03  0.12499669833E+03 0.  0.
    9000005    1    3    3    0    0  0.32603401175E+02  0.16199037367E+02  0.31392420534E+03  0.31602974113E+03  0.10000000000E+01 0.  0.
    9000005    1    3    3    0    0 -0.32603401175E+02 -0.16199037367E+02  0.22365281890E+02  0.42738699253E+02  0.10000000000E+01 0.  0.
<mgrwt>
<rscale>  0 0.12499670E+03</rscale>
<asrwt>0</asrwt>
<pdfrwt beam="1">  1        4 0.86882237E-01 0.12499670E+03</pdfrwt>
<pdfrwt beam="2">  1       -4 0.28098693E-02 0.12499670E+03</pdfrwt>
<totfact> 0.11471811E+03</totfact>
</mgrwt>
</event>
<event>
 5    1  0.1466870E-002  0.1250008E+03  0.7818608E-02  0.1235068E+00
          4   -1    0    0  501    0  0.00000000000E+00  0.00000000000E+00  0.21942403199E+03  0.21942770726E+03  0.12700000000E+01 0.  1.
         -4   -1    0    0    0  501 -0.00000000000E+00 -0.00000000000E+00 -0.17776047123E+02  0.17821356607E+02  0.12700000000E+01 0.  1.
         25    2    1    2    0    0  0.00000000000E+00  0.00000000000E+00  0.20164798486E+03  0.23724906387E+03  0.12500083402E+03 0.  0.
    9000005    1    3    3    0    0 -0.52470850513E+02  0.32302642429E+02  0.12060775952E+03  0.13543958992E+03  0.10000000000E+01 0.  0.
    9000005    1    3    3    0    0  0.52470850513E+02 -0.32302642429E+02  0.81040225345E+02  0.10180947395E+03  0.10000000000E+01 0.  0.
<mgrwt>
<rscale>  0 0.12500083E+03</rscale>
<asrwt>0</asrwt>
<pdfrwt beam="1">  1        4 0.54862131E-01 0.12500083E+03</pdfrwt>
<pdfrwt beam="2">  1       -4 0.44501349E-02 0.12500083E+03</pdfrwt>
<totfact> 0.14931413E+03</totfact>
</mgrwt>
</event>
<event>
 5    1  0.1466870E-002  0.1249973E+03  0.7818608E-02  0.1235073E+00
         -4   -1    0    0    0  501 -0.00000000000E+00  0.00000000000E+00  0.24761502891E+02  0.24794050202E+02  0.12700000000E+01 0.  1.
          4   -1    0    0  501    0  0.00000000000E+00 -0.00000000000E+00 -0.15760953228E+03  0.15761464895E+03  0.12700000000E+01 0.  1.
         25    2    1    2    0    0  0.00000000000E+00  0.00000000000E+00 -0.13284802939E+03  0.18240869916E+03  0.12499733843E+03 0.  0.
    9000005    1    3    3    0    0  0.25523163290E+02  0.49679747952E+02 -0.25522588582E+02  0.61415891664E+02  0.10000000000E+01 0.  0.
    9000005    1    3    3    0    0 -0.25523163290E+02 -0.49679747952E+02 -0.10732544081E+03  0.12099280749E+03  0.10000000000E+01 0.  0.
<mgrwt>
<rscale>  0 0.12499734E+03</rscale>
<asrwt>0</asrwt>
<pdfrwt beam="2">  1        4 0.39407088E-01 0.12499734E+03</pdfrwt>
<pdfrwt beam="1">  1       -4 0.61950842E-02 0.12499734E+03</pdfrwt>
<totfact> 0.17052515E+03</totfact>
</mgrwt>
</event>
<event>
 5    1  0.1466870E-002  0.1249978E+03  0.7818608E-02  0.1235073E+00
         -4   -1    0    0    0  501 -0.00000000000E+00  0.00000000000E+00  0.16449655313E+03  0.16450145559E+03  0.12700000000E+01 0.  1.
          4   -1    0    0  501    0  0.00000000000E+00 -0.00000000000E+00 -0.23723639174E+02  0.23757608374E+02  0.12700000000E+01 0.  1.
         25    2    1    2    0    0  0.00000000000E+00  0.00000000000E+00  0.14077291395E+03  0.18825906396E+03  0.12499784743E+03 0.  0.
    9000005    1    3    3    0    0 -0.25264934567E+02 -0.46483614572E+02  0.20297142934E+02  0.56674662360E+02  0.10000000000E+01 0.  0.
    9000005    1    3    3    0    0  0.25264934567E+02  0.46483614572E+02  0.12047577102E+03  0.13158440160E+03  0.10000000000E+01 0.  0.
<mgrwt>
<rscale>  0 0.12499785E+03</rscale>
<asrwt>0</asrwt>
<pdfrwt beam="2">  1        4 0.59357688E-02 0.12499785E+03</pdfrwt>
<pdfrwt beam="1">  1       -4 0.41128997E-01 0.12499785E+03</pdfrwt>
<totfact> 0.16804057E+03</totfact>
</mgrwt>
</event>
<event>
 5    1  0.1466870E-002  0.1249952E+03  0.7818608E-02  0.1235077E+00
         -4   -1    0    0    0  501 -0.00000000000E+00  0.00000000000E+00  0.38391611358E+02  0.38412611505E+02  0.12700000000E+01 0.  1.
          4   -1    0    0  501    0  0.00000000000E+00 -0.00000000000E+00 -0.10168681660E+03  0.10169474701E+03  0.12700000000E+01 0.  1.
         25    2    1    2    0    0  0.00000000000E+00  0.00000000000E+00 -0.63295205242E+02  0.14010735852E+03  0.12499515552E+03 0.  0.
    9000005    1    3    3    0    0 -0.42465527823E+02  0.27348806087E+02 -0.72888110239E+02  0.88684580745E+02  0.10000000000E+01 0.  0.
    9000005    1    3    3    0    0  0.42465527823E+02 -0.27348806087E+02  0.95929049971E+01  0.51422777774E+02  0.10000000000E+01 0.  0.
<mgrwt>
<rscale>  0 0.12499516E+03</rscale>
<asrwt>0</asrwt>
<pdfrwt beam="2">  1        4 0.25425320E-01 0.12499516E+03</pdfrwt>
<pdfrwt beam="1">  1       -4 0.96015193E-02 0.12499516E+03</pdfrwt>
<totfact> 0.19037002E+03</totfact>
</mgrwt>
</event>
<event>
 4    1  0.1466870E-002  0.1249295E+03  0.7818608E-02  0.1235180E+00
         -4   -1    0    0    0  501 -0.00000000000E+00  0.00000000000E+00  0.13212472650E+02  0.13273369336E+02  0.12700000000E+01 0. -1.
          4   -1    0    0  501    0  0.00000000000E+00 -0.00000000000E+00 -0.29457378123E+03  0.29457651890E+03  0.12700000000E+01 0. -1.
    9000005    1    1    2    0    0  0.35043934008E+02 -0.50479111729E+02 -0.16818965635E+03  0.17906696662E+03  0.10000000000E+01 0.  0.
    9000005    1    1    2    0    0 -0.35043934008E+02  0.50479111729E+02 -0.11317165223E+03  0.12878292162E+03  0.10000000000E+01 0.  0.
<mgrwt>
<rscale>  0 0.12492945E+03</rscale>
<asrwt>0</asrwt>
<pdfrwt beam="2">  1        4 0.73651378E-01 0.12492945E+03</pdfrwt>
<pdfrwt beam="1">  1       -4 0.33110734E-02 0.12492945E+03</pdfrwt>
<totfact> 0.12774492E+03</totfact>
</mgrwt>
</event>
<event>
 5    1  0.1466870E-002  0.1250003E+03  0.7818608E-02  0.1235069E+00
         -4   -1    0    0    0  501 -0.00000000000E+00  0.00000000000E+00  0.14665416540E+02  0.14720303744E+02  0.12700000000E+01 0. -1.
          4   -1    0    0  501    0  0.00000000000E+00 -0.00000000000E+00 -0.26580540162E+03  0.26580843558E+03  0.12700000000E+01 0. -1.
         25    2    1    2    0    0  0.00000000000E+00  0.00000000000E+00 -0.25113998507E+03  0.28052873933E+03  0.12500032594E+03 0.  0.
    9000005    1    3    3    0    0  0.51250243118E+02 -0.30640902043E+02 -0.16694036696E+03  0.17730070056E+03  0.10000000000E+01 0.  0.
    9000005    1    3    3    0    0 -0.51250243118E+02  0.30640902043E+02 -0.84199618116E+02  0.10322803877E+03  0.10000000000E+01 0.  0.
<mgrwt>
<rscale>  0 0.12500033E+03</rscale>
<asrwt>0</asrwt>
<pdfrwt beam="2">  1        4 0.66458575E-01 0.12500033E+03</pdfrwt>
<pdfrwt beam="1">  1       -4 0.36735951E-02 0.12500033E+03</pdfrwt>
<totfact> 0.13534774E+03</totfact>
</mgrwt>
</event>
<event>
 5    1  0.1466870E-002  0.1249989E+03  0.7818608E-02  0.1235071E+00
         -4   -1    0    0    0  501 -0.00000000000E+00  0.00000000000E+00  0.14577755561E+02  0.14632971578E+02  0.12700000000E+01 0.  1.
          4   -1    0    0  501    0  0.00000000000E+00 -0.00000000000E+00 -0.26739186011E+03  0.26739487608E+03  0.12700000000E+01 0.  1.
         25    2    1    2    0    0  0.00000000000E+00  0.00000000000E+00 -0.25281410455E+03  0.28202784766E+03  0.12499894158E+03 0.  0.
    9000005    1    3    3    0    0 -0.49812143349E+02 -0.76344789202E+01 -0.20978576692E+03  0.21575588727E+03  0.10000000000E+01 0.  0.
    9000005    1    3    3    0    0  0.49812143349E+02  0.76344789202E+01 -0.43028337636E+02  0.66271960384E+02  0.10000000000E+01 0.  0.
<mgrwt>
<rscale>  0 0.12499894E+03</rscale>
<asrwt>0</asrwt>
<pdfrwt beam="2">  1        4 0.66855228E-01 0.12499894E+03</pdfrwt>
<pdfrwt beam="1">  1       -4 0.36517188E-02 0.12499894E+03</pdfrwt>
<totfact> 0.13490470E+03</totfact>
</mgrwt>
</event>
<event>
 5    1  0.1466870E-002  0.1250008E+03  0.7818608E-02  0.1235068E+00
         -4   -1    0    0    0  501 -0.00000000000E+00  0.00000000000E+00  0.13664487545E+03  0.13665077712E+03  0.12700000000E+01 0. -1.
          4   -1    0    0  501    0  0.00000000000E+00 -0.00000000000E+00 -0.28566598442E+02  0.28594815029E+02  0.12700000000E+01 0. -1.
         25    2    1    2    0    0  0.00000000000E+00  0.00000000000E+00  0.10807827701E+03  0.16524559214E+03  0.12500076705E+03 0.  0.
    9000005    1    3    3    0    0 -0.29665671141E+02 -0.34783666751E+02 -0.22852498438E+01  0.45784035249E+02  0.10000000000E+01 0.  0.
    9000005    1    3    3    0    0  0.29665671141E+02  0.34783666751E+02  0.11036352685E+03  0.11946155690E+03  0.10000000000E+01 0.  0.
<mgrwt>
<rscale>  0 0.12500077E+03</rscale>
<asrwt>0</asrwt>
<pdfrwt beam="2">  1        4 0.71459145E-02 0.12500077E+03</pdfrwt>
<pdfrwt beam="1">  1       -4 0.34165483E-01 0.12500077E+03</pdfrwt>
<totfact> 0.17813330E+03</totfact>
</mgrwt>
</event>
<event>
 5    1  0.1466870E-002  0.1249996E+03  0.7818608E-02  0.1235070E+00
         -4   -1    0    0    0  501 -0.00000000000E+00  0.00000000000E+00  0.27642914900E+01  0.30420728857E+01  0.12700000000E+01 0.  1.
          4   -1    0    0  501    0  0.00000000000E+00 -0.00000000000E+00 -0.13452198914E+04  0.13452204909E+04  0.12700000000E+01 0.  1.
         25    2    1    2    0    0  0.00000000000E+00  0.00000000000E+00 -0.13424555999E+04  0.13482625638E+04  0.12499961263E+03 0.  0.
    9000005    1    3    3    0    0 -0.56788896396E+02  0.25978535394E+02 -0.64624972594E+03  0.64926078838E+03  0.10000000000E+01 0.  0.
    9000005    1    3    3    0    0  0.56788896396E+02 -0.25978535394E+02 -0.69620587400E+03  0.69900177543E+03  0.10000000000E+01 0.  0.
<mgrwt>
<rscale>  0 0.12499961E+03</rscale>
<asrwt>0</asrwt>
<pdfrwt beam="2">  1        4 0.33633763E+00 0.12499961E+03</pdfrwt>
<pdfrwt beam="1">  1       -4 0.72587510E-03 0.12499961E+03</pdfrwt>
<totfact> 0.18195909E+02</totfact>
</mgrwt>
</event>
<event>
 5    1  0.1466870E-002  0.1250004E+03  0.7818608E-02  0.1235069E+00
          4   -1    0    0  501    0  0.00000000000E+00  0.00000000000E+00  0.23135610282E+02  0.23170441582E+02  0.12700000000E+01 0. -1.
         -4   -1    0    0    0  501 -0.00000000000E+00 -0.00000000000E+00 -0.16867827369E+03  0.16868305462E+03  0.12700000000E+01 0. -1.
         25    2    1    2    0    0  0.00000000000E+00  0.00000000000E+00 -0.14554266341E+03  0.19185349620E+03  0.12500038853E+03 0.  0.
    9000005    1    3    3    0    0  0.82626872152E-01 -0.46632745912E+02 -0.89209440236E+01  0.47488978308E+02  0.10000000000E+01 0.  0.
    9000005    1    3    3    0    0 -0.82626872152E-01  0.46632745912E+02 -0.13662171939E+03  0.14436451789E+03  0.10000000000E+01 0.  0.
<mgrwt>
<rscale>  0 0.12500039E+03</rscale>
<asrwt>0</asrwt>
<pdfrwt beam="1">  1        4 0.57888546E-02 0.12500039E+03</pdfrwt>
<pdfrwt beam="2">  1       -4 0.42174516E-01 0.12500039E+03</pdfrwt>
<totfact> 0.16653373E+03</totfact>
</mgrwt>
</event>
<event>
 5    1  0.1466870E-002  0.1249999E+03  0.7818608E-02  0.1235069E+00
         -4   -1    0    0    0  501 -0.00000000000E+00  0.00000000000E+00  0.27848116298E+01  0.30607312547E+01  0.12700000000E+01 0.  1.
          4   -1    0    0  501    0  0.00000000000E+00 -0.00000000000E+00 -0.13362100955E+04  0.13362106990E+04  0.12700000000E+01 0.  1.
         25    2    1    2    0    0  0.00000000000E+00  0.00000000000E+00 -0.13334252838E+04  0.13392714303E+04  0.12499990531E+03 0.  0.
    9000005    1    3    3    0    0 -0.16177457825E+02  0.60227710718E+02 -0.70977884824E+03  0.71251393018E+03  0.10000000000E+01 0.  0.
    9000005    1    3    3    0    0  0.16177457825E+02 -0.60227710718E+02 -0.62364643561E+03  0.62675750009E+03  0.10000000000E+01 0.  0.
<mgrwt>
<rscale>  0 0.12499991E+03</rscale>
<asrwt>0</asrwt>
<pdfrwt beam="2">  1        4 0.33408499E+00 0.12499991E+03</pdfrwt>
<pdfrwt beam="1">  1       -4 0.73077288E-03 0.12499991E+03</pdfrwt>
<totfact> 0.18579315E+02</totfact>
</mgrwt>
</event>
<event>
 5    1  0.1466870E-002  0.1249998E+03  0.7818608E-02  0.1235070E+00
          4   -1    0    0  501    0  0.00000000000E+00  0.00000000000E+00  0.13274781945E+03  0.13275389436E+03  0.12700000000E+01 0.  1.
         -4   -1    0    0    0  501 -0.00000000000E+00 -0.00000000000E+00 -0.29405541064E+02  0.29432953390E+02  0.12700000000E+01 0.  1.
         25    2    1    2    0    0  0.00000000000E+00  0.00000000000E+00  0.10334227838E+03  0.16218684775E+03  0.12499978833E+03 0.  0.
    9000005    1    3    3    0    0  0.23181231148E+02  0.56885870216E+02  0.66570623191E+02  0.90587082853E+02  0.10000000000E+01 0.  0.
    9000005    1    3    3    0    0 -0.23181231148E+02 -0.56885870216E+02  0.36771655193E+02  0.71599764898E+02  0.10000000000E+01 0.  0.
<mgrwt>
<rscale>  0 0.12499979E+03</rscale>
<asrwt>0</asrwt>
<pdfrwt beam="1">  1        4 0.33191141E-01 0.12499979E+03</pdfrwt>
<pdfrwt beam="2">  1       -4 0.73555712E-02 0.12499979E+03</pdfrwt>
<totfact> 0.17955409E+03</totfact>
</mgrwt>
</event>
<event>
 5    1  0.1466870E-002  0.1250008E+03  0.7818608E-02  0.1235068E+00
          4   -1    0    0  501    0  0.00000000000E+00  0.00000000000E+00  0.15992873317E+02  0.16043219656E+02  0.12700000000E+01 0. -1.
         -4   -1    0    0    0  501 -0.00000000000E+00 -0.00000000000E+00 -0.24381678660E+03  0.24382009418E+03  0.12700000000E+01 0. -1.
         25    2    1    2    0    0  0.00000000000E+00  0.00000000000E+00 -0.22782391328E+03  0.25986331384E+03  0.12500082566E+03 0.  0.
    9000005    1    3    3    0    0 -0.61272140919E+02  0.59426691215E+01 -0.91549501628E+02  0.11032634235E+03  0.10000000000E+01 0.  0.
    9000005    1    3    3    0    0  0.61272140919E+02 -0.59426691215E+01 -0.13627441165E+03  0.14953697148E+03  0.10000000000E+01 0.  0.
<mgrwt>
<rscale>  0 0.12500083E+03</rscale>
<asrwt>0</asrwt>
<pdfrwt beam="1">  1        4 0.40049258E-02 0.12500083E+03</pdfrwt>
<pdfrwt beam="2">  1       -4 0.60960892E-01 0.12500083E+03</pdfrwt>
<totfact> 0.14175274E+03</totfact>
</mgrwt>
</event>
<event>
 4    1  0.1466870E-002  0.1251660E+03  0.7818608E-02  0.1234810E+00
         -4   -1    0    0    0  501 -0.00000000000E+00  0.00000000000E+00  0.12768302401E+03  0.12768933988E+03  0.12700000000E+01 0.  1.
          4   -1    0    0  501    0  0.00000000000E+00 -0.00000000000E+00 -0.30654406624E+02  0.30680703145E+02  0.12700000000E+01 0.  1.
    9000005    1    1    2    0    0  0.59002212560E+02  0.68961221140E+01  0.23629362493E+02  0.63938754750E+02  0.10000000000E+01 0.  0.
    9000005    1    1    2    0    0 -0.59002212560E+02 -0.68961221140E+01  0.73399254893E+02  0.94431288279E+02  0.10000000000E+01 0.  0.
<mgrwt>
<rscale>  0 0.12516596E+03</rscale>
<asrwt>0</asrwt>
<pdfrwt beam="2">  1        4 0.76676782E-02 0.12516596E+03</pdfrwt>
<pdfrwt beam="1">  1       -4 0.31924832E-01 0.12516596E+03</pdfrwt>
<totfact> 0.18064943E+03</totfact>
</mgrwt>
</event>
<event>
 5    1  0.1466870E-002  0.1249710E+03  0.7818608E-02  0.1235115E+00
          4   -1    0    0  501    0  0.00000000000E+00  0.00000000000E+00  0.19196760899E+02  0.19238724724E+02  0.12700000000E+01 0.  1.
         -4   -1    0    0    0  501 -0.00000000000E+00 -0.00000000000E+00 -0.20312430927E+03  0.20312827946E+03  0.12700000000E+01 0.  1.
         25    2    1    2    0    0  0.00000000000E+00  0.00000000000E+00 -0.18392754837E+03  0.22236700418E+03  0.12497096263E+03 0.  0.
    9000005    1    3    3    0    0  0.16933317160E+02 -0.28246429464E+01 -0.19885395098E+03  0.19959611634E+03  0.10000000000E+01 0.  0.
    9000005    1    3    3    0    0 -0.16933317160E+02  0.28246429464E+01  0.14926402616E+02  0.22770887837E+02  0.10000000000E+01 0.  0.
<mgrwt>
<rscale>  0 0.12497096E+03</rscale>
<asrwt>0</asrwt>
<pdfrwt beam="1">  1        4 0.48049326E-02 0.12497096E+03</pdfrwt>
<pdfrwt beam="2">  1       -4 0.50786812E-01 0.12497096E+03</pdfrwt>
<totfact> 0.15474309E+03</totfact>
</mgrwt>
</event>
<event>
 5    1  0.1466870E-002  0.1250056E+03  0.7818608E-02  0.1235061E+00
          4   -1    0    0  501    0  0.00000000000E+00  0.00000000000E+00  0.14018490126E+03  0.14019065390E+03  0.12700000000E+01 0. -1.
         -4   -1    0    0    0  501 -0.00000000000E+00 -0.00000000000E+00 -0.27846684419E+02  0.27875629735E+02  0.12700000000E+01 0. -1.
         25    2    1    2    0    0  0.00000000000E+00  0.00000000000E+00  0.11233821684E+03  0.16806628364E+03  0.12500560281E+03 0.  0.
    9000005    1    3    3    0    0 -0.34421804084E+01 -0.75989852288E+01  0.13943953964E+03  0.13969244217E+03  0.10000000000E+01 0.  0.
    9000005    1    3    3    0    0  0.34421804084E+01  0.75989852288E+01 -0.27101322800E+02  0.28373841473E+02  0.10000000000E+01 0.  0.
<mgrwt>
<rscale>  0 0.12500560E+03</rscale>
<asrwt>0</asrwt>
<pdfrwt beam="1">  1        4 0.35050561E-01 0.12500560E+03</pdfrwt>
<pdfrwt beam="2">  1       -4 0.69660086E-02 0.12500560E+03</pdfrwt>
<totfact> 0.17682320E+03</totfact>
</mgrwt>
</event>
<event>
 5    1  0.1466870E-002  0.1249982E+03  0.7818608E-02  0.1235072E+00
          4   -1    0    0  501    0  0.00000000000E+00  0.00000000000E+00  0.36292672084E+01  0.38450592284E+01  0.12700000000E+01 0. -1.
         -4   -1    0    0    0  501 -0.00000000000E+00 -0.00000000000E+00 -0.10449976335E+04  0.10449984052E+04  0.12700000000E+01 0. -1.
         25    2    1    2    0    0  0.00000000000E+00  0.00000000000E+00 -0.10413683663E+04  0.10488434645E+04  0.12499815443E+03 0.  0.
    9000005    1    3    3    0    0 -0.28299489944E+02  0.53761060210E+02 -0.64343834081E+03  0.64630102209E+03  0.10000000000E+01 0.  0.
    9000005    1    3    3    0    0  0.28299489944E+02 -0.53761060210E+02 -0.39793002549E+03  0.40254244237E+03  0.10000000000E+01 0.  0.
<mgrwt>
<rscale>  0 0.12499815E+03</rscale>
<asrwt>0</asrwt>
<pdfrwt beam="1">  1        4 0.93439085E-03 0.12499815E+03</pdfrwt>
<pdfrwt beam="2">  1       -4 0.26127548E+00 0.12499815E+03</pdfrwt>
<totfact> 0.33923008E+02</totfact>
</mgrwt>
</event>
<event>
 5    1  0.1466870E-002  0.1249961E+03  0.7818608E-02  0.1235075E+00
          4   -1    0    0  501    0  0.00000000000E+00  0.00000000000E+00  0.29799044888E+02  0.29826095558E+02  0.12700000000E+01 0. -1.
         -4   -1    0    0    0  501 -0.00000000000E+00 -0.00000000000E+00 -0.13098860311E+03  0.13099475961E+03  0.12700000000E+01 0. -1.
         25    2    1    2    0    0  0.00000000000E+00  0.00000000000E+00 -0.10118955822E+03  0.16082085516E+03  0.12499608299E+03 0.  0.
    9000005    1    3    3    0    0 -0.34056779825E+02 -0.24375100320E+02 -0.11026610756E+03  0.11795602674E+03  0.10000000000E+01 0.  0.
    9000005    1    3    3    0    0  0.34056779825E+02  0.24375100320E+02  0.90765493444E+01  0.42864828421E+02  0.10000000000E+01 0.  0.
<mgrwt>
<rscale>  0 0.12499608E+03</rscale>
<asrwt>0</asrwt>
<pdfrwt beam="1">  1        4 0.74539125E-02 0.12499608E+03</pdfrwt>
<pdfrwt beam="2">  1       -4 0.32751300E-01 0.12499608E+03</pdfrwt>
<totfact> 0.18020832E+03</totfact>
</mgrwt>
</event>
<event>
 5    1  0.1466870E-002  0.1250007E+03  0.7818608E-02  0.1235068E+00
          4   -1    0    0  501    0  0.00000000000E+00  0.00000000000E+00  0.46083126836E+01  0.47801093910E+01  0.12700000000E+01 0. -1.
         -4   -1    0    0    0  501 -0.00000000000E+00 -0.00000000000E+00 -0.83197914144E+03  0.83198011076E+03  0.12700000000E+01 0. -1.
         25    2    1    2    0    0  0.00000000000E+00  0.00000000000E+00 -0.82737082876E+03  0.83676022015E+03  0.12500071096E+03 0.  0.
    9000005    1    3    3    0    0  0.16960172385E+02  0.60145119157E+02 -0.41060593935E+03  0.41533519022E+03  0.10000000000E+01 0.  0.
    9000005    1    3    3    0    0 -0.16960172385E+02 -0.60145119157E+02 -0.41676488941E+03  0.42142502993E+03  0.10000000000E+01 0.  0.
<mgrwt>
<rscale>  0 0.12500071E+03</rscale>
<asrwt>0</asrwt>
<pdfrwt beam="1">  1        4 0.11736768E-02 0.12500071E+03</pdfrwt>
<pdfrwt beam="2">  1       -4 0.20801588E+00 0.12500071E+03</pdfrwt>
<totfact> 0.49324235E+02</totfact>
</mgrwt>
</event>
<event>
 5    1  0.1466870E-002  0.1250017E+03  0.7818608E-02  0.1235067E+00
          4   -1    0    0  501    0  0.00000000000E+00  0.00000000000E+00  0.81677683578E+02  0.81687556547E+02  0.12700000000E+01 0.  1.
         -4   -1    0    0    0  501 -0.00000000000E+00 -0.00000000000E+00 -0.47805275074E+02  0.47822141576E+02  0.12700000000E+01 0.  1.
         25    2    1    2    0    0  0.00000000000E+00  0.00000000000E+00  0.33872408504E+02  0.12950969812E+03  0.12500168739E+03 0.  0.
    9000005    1    3    3    0    0  0.35380986573E+02  0.42303436869E+02  0.47389433669E+02  0.72719690630E+02  0.10000000000E+01 0.  0.
    9000005    1    3    3    0    0 -0.35380986573E+02 -0.42303436869E+02 -0.13517025165E+02  0.56790007494E+02  0.10000000000E+01 0.  0.
<mgrwt>
<rscale>  0 0.12500169E+03</rscale>
<asrwt>0</asrwt>
<pdfrwt beam="1">  1        4 0.20422763E-01 0.12500169E+03</pdfrwt>
<pdfrwt beam="2">  1       -4 0.11954661E-01 0.12500169E+03</pdfrwt>
<totfact> 0.19590005E+03</totfact>
</mgrwt>
</event>
<event>
 5    1  0.1466870E-002  0.1249990E+03  0.7818608E-02  0.1235071E+00
          4   -1    0    0  501    0  0.00000000000E+00  0.00000000000E+00  0.11438395110E+03  0.11439100126E+03  0.12700000000E+01 0.  1.
         -4   -1    0    0    0  501 -0.00000000000E+00 -0.00000000000E+00 -0.34129897984E+02  0.34153518653E+02  0.12700000000E+01 0.  1.
         25    2    1    2    0    0  0.00000000000E+00  0.00000000000E+00  0.80254053115E+02  0.14854451991E+03  0.12499904541E+03 0.  0.
    9000005    1    3    3    0    0 -0.36633881900E+02 -0.46743753054E+02  0.17017352973E+02  0.61786811335E+02  0.10000000000E+01 0.  0.
    9000005    1    3    3    0    0  0.36633881900E+02  0.46743753054E+02  0.63236700142E+02  0.86757708577E+02  0.10000000000E+01 0.  0.
<mgrwt>
<rscale>  0 0.12499905E+03</rscale>
<asrwt>0</asrwt>
<pdfrwt beam="1">  1        4 0.28599821E-01 0.12499905E+03</pdfrwt>
<pdfrwt beam="2">  1       -4 0.85363085E-02 0.12499905E+03</pdfrwt>
<totfact> 0.18610993E+03</totfact>
</mgrwt>
</event>
<event>
 5    1  0.1466870E-002  0.1250025E+03  0.7818608E-02  0.1235065E+00
         -4   -1    0    0    0  501 -0.00000000000E+00  0.00000000000E+00  0.23078808455E+02  0.23113725353E+02  0.12700000000E+01 0.  1.
          4   -1    0    0  501    0  0.00000000000E+00 -0.00000000000E+00 -0.16909858879E+03  0.16910335783E+03  0.12700000000E+01 0.  1.
         25    2    1    2    0    0  0.00000000000E+00  0.00000000000E+00 -0.14601978033E+03  0.19221708318E+03  0.12500252325E+03 0.  0.
    9000005    1    3    3    0    0  0.45190652637E+02  0.87381986863E+01 -0.80091889699E+01  0.46730057886E+02  0.10000000000E+01 0.  0.
    9000005    1    3    3    0    0 -0.45190652637E+02 -0.87381986863E+01 -0.13801059136E+03  0.14548702530E+03  0.10000000000E+01 0.  0.
<mgrwt>
<rscale>  0 0.12500252E+03</rscale>
<asrwt>0</asrwt>
<pdfrwt beam="2">  1        4 0.42279604E-01 0.12500252E+03</pdfrwt>
<pdfrwt beam="1">  1       -4 0.57746634E-02 0.12500252E+03</pdfrwt>
<totfact> 0.16637528E+03</totfact>
</mgrwt>
</event>
<event>
 5    1  0.1466870E-002  0.1249980E+03  0.7818608E-02  0.1235072E+00
          4   -1    0    0  501    0  0.00000000000E+00  0.00000000000E+00  0.72089575043E+03  0.72089686910E+03  0.12700000000E+01 0.  1.
         -4   -1    0    0    0  501 -0.00000000000E+00 -0.00000000000E+00 -0.53428758305E+01  0.54917412667E+01  0.12700000000E+01 0.  1.
         25    2    1    2    0    0  0.00000000000E+00  0.00000000000E+00  0.71555287460E+03  0.72638861037E+03  0.12499798771E+03 0.  0.
    9000005    1    3    3    0    0  0.11466962107E+02 -0.50197731307E+02  0.56354723293E+03  0.56589556209E+03  0.10000000000E+01 0.  0.
    9000005    1    3    3    0    0 -0.11466962107E+02  0.50197731307E+02  0.15200564166E+03  0.16049304828E+03  0.10000000000E+01 0.  0.
<mgrwt>
<rscale>  0 0.12499799E+03</rscale>
<asrwt>0</asrwt>
<pdfrwt beam="1">  1        4 0.18024271E+00 0.12499799E+03</pdfrwt>
<pdfrwt beam="2">  1       -4 0.13544668E-02 0.12499799E+03</pdfrwt>
<totfact> 0.59375988E+02</totfact>
</mgrwt>
</event>
<event>
 5    1  0.1466870E-002  0.1250020E+03  0.7818608E-02  0.1235066E+00
         -4   -1    0    0    0  501 -0.00000000000E+00  0.00000000000E+00  0.60739485944E+02  0.60752761688E+02  0.12700000000E+01 0. -1.
          4   -1    0    0  501    0  0.00000000000E+00 -0.00000000000E+00 -0.64287014645E+02  0.64299557945E+02  0.12700000000E+01 0. -1.
         25    2    1    2    0    0  0.00000000000E+00  0.00000000000E+00 -0.35475287007E+01  0.12505231963E+03  0.12500199073E+03 0.  0.
    9000005    1    3    3    0    0  0.40606355388E+02 -0.45168107755E+02  0.12940671027E+02  0.62108735478E+02  0.10000000000E+01 0.  0.
    9000005    1    3    3    0    0 -0.40606355388E+02  0.45168107755E+02 -0.16488199728E+02  0.62943584155E+02  0.10000000000E+01 0.  0.
<mgrwt>
<rscale>  0 0.12500199E+03</rscale>
<asrwt>0</asrwt>
<pdfrwt beam="2">  1        4 0.16074981E-01 0.12500199E+03</pdfrwt>
<pdfrwt beam="1">  1       -4 0.15188099E-01 0.12500199E+03</pdfrwt>
<totfact> 0.19831294E+03</totfact>
</mgrwt>
</event>
<event>
 5    1  0.1466870E-002  0.1249996E+03  0.7818608E-02  0.1235070E+00
          4   -1    0    0  501    0  0.00000000000E+00  0.00000000000E+00  0.75426128115E+01  0.76487847417E+01  0.12700000000E+01 0.  1.
         -4   -1    0    0    0  501 -0.00000000000E+00 -0.00000000000E+00 -0.51416142954E+03  0.51416299802E+03  0.12700000000E+01 0.  1.
         25    2    1    2    0    0  0.00000000000E+00  0.00000000000E+00 -0.50661881673E+03  0.52181178276E+03  0.12499964464E+03 0.  0.
    9000005    1    3    3    0    0  0.52109301229E+02  0.34450723376E+02 -0.24608356365E+03  0.25389043289E+03  0.10000000000E+01 0.  0.
    9000005    1    3    3    0    0 -0.52109301229E+02 -0.34450723376E+02 -0.26053525308E+03  0.26792134987E+03  0.10000000000E+01 0.  0.
<mgrwt>
<rscale>  0 0.12499964E+03</rscale>
<asrwt>0</asrwt>
<pdfrwt beam="1">  1        4 0.18991225E-02 0.12499964E+03</pdfrwt>
<pdfrwt beam="2">  1       -4 0.12855371E+00 0.12499964E+03</pdfrwt>
<totfact> 0.84239627E+02</totfact>
</mgrwt>
</event>
<event>
 5    1  0.1466870E-002  0.1249529E+03  0.7818608E-02  0.1235143E+00
         -4   -1    0    0    0  501 -0.00000000000E+00  0.00000000000E+00  0.14561464303E+03  0.14562018118E+03  0.12700000000E+01 0. -1.
          4   -1    0    0  501    0  0.00000000000E+00 -0.00000000000E+00 -0.26784633528E+02  0.26814725306E+02  0.12700000000E+01 0. -1.
         25    2    1    2    0    0  0.00000000000E+00  0.00000000000E+00  0.11883000951E+03  0.17243490648E+03  0.12495289438E+03 0.  0.
    9000005    1    3    3    0    0  0.79132383808E+01 -0.32570508601E+00  0.14492576821E+03  0.14514545710E+03  0.10000000000E+01 0.  0.
    9000005    1    3    3    0    0 -0.79132383808E+01  0.32570508601E+00 -0.26095758702E+02  0.27289449385E+02  0.10000000000E+01 0.  0.
<mgrwt>
<rscale>  0 0.12495289E+03</rscale>
<asrwt>0</asrwt>
<pdfrwt beam="2">  1        4 0.67006123E-02 0.12495289E+03</pdfrwt>
<pdfrwt beam="1">  1       -4 0.36408113E-01 0.12495289E+03</pdfrwt>
<totfact> 0.17506909E+03</totfact>
</mgrwt>
</event>
<event>
 5    1  0.1466870E-002  0.1250063E+03  0.7818608E-02  0.1235059E+00
          4   -1    0    0  501    0  0.00000000000E+00  0.00000000000E+00  0.11892818762E+03  0.11893496841E+03  0.12700000000E+01 0. -1.
         -4   -1    0    0    0  501 -0.00000000000E+00 -0.00000000000E+00 -0.32828751443E+02  0.32853307616E+02  0.12700000000E+01 0. -1.
         25    2    1    2    0    0  0.00000000000E+00  0.00000000000E+00  0.86099436176E+02  0.15178827602E+03  0.12500627116E+03 0.  0.
    9000005    1    3    3    0    0  0.36066318122E+02 -0.48226707749E+02  0.63333332726E+02  0.87399689230E+02  0.10000000000E+01 0.  0.
    9000005    1    3    3    0    0 -0.36066318122E+02  0.48226707749E+02  0.22766103450E+02  0.64388586795E+02  0.10000000000E+01 0.  0.
<mgrwt>
<rscale>  0 0.12500627E+03</rscale>
<asrwt>0</asrwt>
<pdfrwt beam="1">  1        4 0.29735964E-01 0.12500627E+03</pdfrwt>
<pdfrwt beam="2">  1       -4 0.82111050E-02 0.12500627E+03</pdfrwt>
<totfact> 0.18448508E+03</totfact>
</mgrwt>
</event>
<event>
 5    1  0.1466870E-002  0.1250017E+03  0.7818608E-02  0.1235067E+00
         -4   -1    0    0    0  501 -0.00000000000E+00  0.00000000000E+00  0.96815222095E+01  0.97644647725E+01  0.12700000000E+01 0.  1.
          4   -1    0    0  501    0  0.00000000000E+00 -0.00000000000E+00 -0.40168111840E+03  0.40168312608E+03  0.12700000000E+01 0.  1.
         25    2    1    2    0    0  0.00000000000E+00  0.00000000000E+00 -0.39199959619E+03  0.41144759085E+03  0.12500174641E+03 0.  0.
    9000005    1    3    3    0    0  0.45538191944E+02  0.39923197621E+02 -0.14524496021E+03  0.15736799897E+03  0.10000000000E+01 0.  0.
    9000005    1    3    3    0    0 -0.45538191944E+02 -0.39923197621E+02 -0.24675463598E+03  0.25407959188E+03  0.10000000000E+01 0.  0.
<mgrwt>
<rscale>  0 0.12500175E+03</rscale>
<asrwt>0</asrwt>
<pdfrwt beam="2">  1        4 0.10043084E+00 0.12500175E+03</pdfrwt>
<pdfrwt beam="1">  1       -4 0.24310007E-02 0.12500175E+03</pdfrwt>
<totfact> 0.10336305E+03</totfact>
</mgrwt>
</event>
<event>
 5    1  0.1466870E-002  0.1250022E+03  0.7818608E-02  0.1235066E+00
         -4   -1    0    0    0  501 -0.00000000000E+00  0.00000000000E+00  0.30363075118E+02  0.30389623732E+02  0.12700000000E+01 0. -1.
          4   -1    0    0  501    0  0.00000000000E+00 -0.00000000000E+00 -0.12856986563E+03  0.12857613794E+03  0.12700000000E+01 0. -1.
         25    2    1    2    0    0  0.00000000000E+00  0.00000000000E+00 -0.98206790512E+02  0.15896576167E+03  0.12500215871E+03 0.  0.
    9000005    1    3    3    0    0 -0.39110682980E+02 -0.45614166681E+02 -0.27257931714E+02  0.65987063630E+02  0.10000000000E+01 0.  0.
    9000005    1    3    3    0    0  0.39110682980E+02  0.45614166681E+02 -0.70948858798E+02  0.92978698043E+02  0.10000000000E+01 0.  0.
<mgrwt>
<rscale>  0 0.12500216E+03</rscale>
<asrwt>0</asrwt>
<pdfrwt beam="2">  1        4 0.32146568E-01 0.12500216E+03</pdfrwt>
<pdfrwt beam="1">  1       -4 0.75948717E-02 0.12500216E+03</pdfrwt>
<totfact> 0.18105627E+03</totfact>
</mgrwt>
</event>
<event>
 5    1  0.1466870E-002  0.1250026E+03  0.7818608E-02  0.1235065E+00
          4   -1    0    0  501    0  0.00000000000E+00  0.00000000000E+00  0.19983341548E+02  0.20023656995E+02  0.12700000000E+01 0.  1.
         -4   -1    0    0    0  501 -0.00000000000E+00 -0.00000000000E+00 -0.19524412254E+03  0.19524825296E+03  0.12700000000E+01 0.  1.
         25    2    1    2    0    0  0.00000000000E+00  0.00000000000E+00 -0.17526078099E+03  0.21527190996E+03  0.12500261543E+03 0.  0.
    9000005    1    3    3    0    0  0.56633273126E+01 -0.52565899976E+02 -0.30250159296E+02  0.60920597945E+02  0.10000000000E+01 0.  0.
    9000005    1    3    3    0    0 -0.56633273126E+01  0.52565899976E+02 -0.14501062169E+03  0.15435131201E+03  0.10000000000E+01 0.  0.
<mgrwt>
<rscale>  0 0.12500262E+03</rscale>
<asrwt>0</asrwt>
<pdfrwt beam="1">  1        4 0.50013917E-02 0.12500262E+03</pdfrwt>
<pdfrwt beam="2">  1       -4 0.48816580E-01 0.12500262E+03</pdfrwt>
<totfact> 0.15727311E+03</totfact>
</mgrwt>
</event>
<event>
 5    1  0.1466870E-002  0.1250009E+03  0.7818608E-02  0.1235068E+00
          4   -1    0    0  501    0  0.00000000000E+00  0.00000000000E+00  0.46204574677E+03  0.46204749216E+03  0.12700000000E+01 0. -1.
         -4   -1    0    0    0  501 -0.00000000000E+00 -0.00000000000E+00 -0.84048989758E+01  0.85003074529E+01  0.12700000000E+01 0. -1.
         25    2    1    2    0    0  0.00000000000E+00  0.00000000000E+00  0.45364084779E+03  0.47054779961E+03  0.12500085172E+03 0.  0.
    9000005    1    3    3    0    0 -0.33743996114E+01  0.20670150118E+02  0.51812632742E+01  0.21598314003E+02  0.10000000000E+01 0.  0.
    9000005    1    3    3    0    0  0.33743996114E+01 -0.20670150118E+02  0.44845958452E+03  0.44894948561E+03  0.10000000000E+01 0.  0.
<mgrwt>
<rscale>  0 0.12500085E+03</rscale>
<asrwt>0</asrwt>
<pdfrwt beam="1">  1        4 0.11552358E+00 0.12500085E+03</pdfrwt>
<pdfrwt beam="2">  1       -4 0.21133691E-02 0.12500085E+03</pdfrwt>
<totfact> 0.92439585E+02</totfact>
</mgrwt>
</event>
<event>
 5    1  0.1466870E-002  0.1250001E+03  0.7818608E-02  0.1235069E+00
         -4   -1    0    0    0  501 -0.00000000000E+00  0.00000000000E+00  0.41354138297E+03  0.41354333307E+03  0.12700000000E+01 0.  1.
          4   -1    0    0  501    0  0.00000000000E+00 -0.00000000000E+00 -0.94011978963E+01  0.94865916896E+01  0.12700000000E+01 0.  1.
         25    2    1    2    0    0  0.00000000000E+00  0.00000000000E+00  0.40414018507E+03  0.42302992476E+03  0.12500011221E+03 0.  0.
    9000005    1    3    3    0    0  0.10730499878E+02  0.58871104031E+02  0.14112503226E+03  0.15329130845E+03  0.10000000000E+01 0.  0.
    9000005    1    3    3    0    0 -0.10730499878E+02 -0.58871104031E+02  0.26301515282E+03  0.26973861631E+03  0.10000000000E+01 0.  0.
<mgrwt>
<rscale>  0 0.12500011E+03</rscale>
<asrwt>0</asrwt>
<pdfrwt beam="2">  1        4 0.23612176E-02 0.12500011E+03</pdfrwt>
<pdfrwt beam="1">  1       -4 0.10339626E+00 0.12500011E+03</pdfrwt>
<totfact> 0.10106703E+03</totfact>
</mgrwt>
</event>
<event>
 5    1  0.1466870E-002  0.1249996E+03  0.7818608E-02  0.1235070E+00
          4   -1    0    0  501    0  0.00000000000E+00  0.00000000000E+00  0.86514925011E+01  0.87442107990E+01  0.12700000000E+01 0. -1.
         -4   -1    0    0    0  501 -0.00000000000E+00 -0.00000000000E+00 -0.44900846197E+03  0.44901025803E+03  0.12700000000E+01 0. -1.
         25    2    1    2    0    0  0.00000000000E+00  0.00000000000E+00 -0.44035696947E+03  0.45775446883E+03  0.12499957271E+03 0.  0.
    9000005    1    3    3    0    0 -0.31893093946E+02  0.19447407455E+02 -0.36715633878E+02  0.52387105945E+02  0.10000000000E+01 0.  0.
    9000005    1    3    3    0    0  0.31893093946E+02 -0.19447407455E+02 -0.40364133559E+03  0.40536736289E+03  0.10000000000E+01 0.  0.
<mgrwt>
<rscale>  0 0.12499957E+03</rscale>
<asrwt>0</asrwt>
<pdfrwt beam="1">  1        4 0.21746889E-02 0.12499957E+03</pdfrwt>
<pdfrwt beam="2">  1       -4 0.11226385E+00 0.12499957E+03</pdfrwt>
<totfact> 0.94642223E+02</totfact>
</mgrwt>
</event>
<event>
 5    1  0.1466870E-002  0.1250002E+03  0.7818608E-02  0.1235069E+00
          4   -1    0    0  501    0  0.00000000000E+00  0.00000000000E+00  0.24861092451E+02  0.24893509553E+02  0.12700000000E+01 0.  1.
         -4   -1    0    0    0  501 -0.00000000000E+00 -0.00000000000E+00 -0.15698611775E+03  0.15699125475E+03  0.12700000000E+01 0.  1.
         25    2    1    2    0    0  0.00000000000E+00  0.00000000000E+00 -0.13212502530E+03  0.18188476430E+03  0.12500018069E+03 0.  0.
    9000005    1    3    3    0    0  0.35494168218E+02 -0.17870304479E+02 -0.13623999347E+03  0.14192082152E+03  0.10000000000E+01 0.  0.
    9000005    1    3    3    0    0 -0.35494168218E+02  0.17870304479E+02  0.41149681673E+01  0.39963942782E+02  0.10000000000E+01 0.  0.
<mgrwt>
<rscale>  0 0.12500018E+03</rscale>
<asrwt>0</asrwt>
<pdfrwt beam="1">  1        4 0.62199678E-02 0.12500018E+03</pdfrwt>
<pdfrwt beam="2">  1       -4 0.39251221E-01 0.12500018E+03</pdfrwt>
<totfact> 0.17073873E+03</totfact>
</mgrwt>
</event>
<event>
 5    1  0.1466870E-002  0.1250006E+03  0.7818608E-02  0.1235068E+00
         -4   -1    0    0    0  501 -0.00000000000E+00  0.00000000000E+00  0.18309201926E+03  0.18309642382E+03  0.12700000000E+01 0.  1.
          4   -1    0    0  501    0  0.00000000000E+00 -0.00000000000E+00 -0.21311546941E+02  0.21349354393E+02  0.12700000000E+01 0.  1.
         25    2    1    2    0    0  0.00000000000E+00  0.00000000000E+00  0.16178047232E+03  0.20444577822E+03  0.12500062003E+03 0.  0.
    9000005    1    3    3    0    0  0.49917918621E+02 -0.34682906450E+02  0.57155692582E+02  0.83441451293E+02  0.10000000000E+01 0.  0.
    9000005    1    3    3    0    0 -0.49917918621E+02  0.34682906450E+02  0.10462477974E+03  0.12100432693E+03  0.10000000000E+01 0.  0.
<mgrwt>
<rscale>  0 0.12500062E+03</rscale>
<asrwt>0</asrwt>
<pdfrwt beam="2">  1        4 0.53331632E-02 0.12500062E+03</pdfrwt>
<pdfrwt beam="1">  1       -4 0.45778282E-01 0.12500062E+03</pdfrwt>
<totfact> 0.16145329E+03</totfact>
</mgrwt>
</event>
<event>
 5    1  0.1466870E-002  0.1249898E+03  0.7818608E-02  0.1235085E+00
         -4   -1    0    0    0  501 -0.00000000000E+00  0.00000000000E+00  0.23807861235E+02  0.23841710437E+02  0.12700000000E+01 0.  1.
          4   -1    0    0  501    0  0.00000000000E+00 -0.00000000000E+00 -0.16389445646E+03  0.16389937693E+03  0.12700000000E+01 0.  1.
         25    2    1    2    0    0  0.00000000000E+00  0.00000000000E+00 -0.14008659523E+03  0.18774108737E+03  0.12498984649E+03 0.  0.
    9000005    1    3    3    0    0  0.59242838914E+02  0.64602694180E+01 -0.98270918495E+02  0.11493312171E+03  0.10000000000E+01 0.  0.
    9000005    1    3    3    0    0 -0.59242838914E+02 -0.64602694180E+01 -0.41815676733E+02  0.72807965664E+02  0.10000000000E+01 0.  0.
<mgrwt>
<rscale>  0 0.12498985E+03</rscale>
<asrwt>0</asrwt>
<pdfrwt beam="2">  1        4 0.40978457E-01 0.12498985E+03</pdfrwt>
<pdfrwt beam="1">  1       -4 0.59568120E-02 0.12498985E+03</pdfrwt>
<totfact> 0.16828926E+03</totfact>
</mgrwt>
</event>
<event>
 4    1  0.1466870E-002  0.1242572E+03  0.7818608E-02  0.1236235E+00
         -4   -1    0    0    0  501 -0.00000000000E+00  0.00000000000E+00  0.68570187971E+02  0.68581947905E+02  0.12700000000E+01 0.  1.
          4   -1    0    0  501    0  0.00000000000E+00 -0.00000000000E+00 -0.56268377582E+02  0.56282707964E+02  0.12700000000E+01 0.  1.
    9000005    1    1    2    0    0  0.60241471041E+02 -0.15753287113E+01  0.21305929518E+02  0.63925418468E+02  0.10000000000E+01 0.  0.
    9000005    1    1    2    0    0 -0.60241471041E+02  0.15753287113E+01 -0.90041191289E+01  0.60939237401E+02  0.10000000000E+01 0.  0.
<mgrwt>
<rscale>  0 0.12425718E+03</rscale>
<asrwt>0</asrwt>
<pdfrwt beam="2">  1        4 0.14070356E-01 0.12425718E+03</pdfrwt>
<pdfrwt beam="1">  1       -4 0.17145808E-01 0.12425718E+03</pdfrwt>
<totfact> 0.20191201E+03</totfact>
</mgrwt>
</event>
<event>
 5    1  0.1466870E-002  0.1250013E+03  0.7818608E-02  0.1235067E+00
         -4   -1    0    0    0  501 -0.00000000000E+00  0.00000000000E+00  0.10435835196E+03  0.10436607937E+03  0.12700000000E+01 0.  1.
          4   -1    0    0  501    0  0.00000000000E+00 -0.00000000000E+00 -0.37412029214E+02  0.37433578908E+02  0.12700000000E+01 0.  1.
         25    2    1    2    0    0  0.00000000000E+00  0.00000000000E+00  0.66946322748E+02  0.14179965828E+03  0.12500133183E+03 0.  0.
    9000005    1    3    3    0    0  0.40353049891E+02  0.40428903894E+02  0.47199466454E+01  0.57324888154E+02  0.10000000000E+01 0.  0.
    9000005    1    3    3    0    0 -0.40353049891E+02 -0.40428903894E+02  0.62226376102E+02  0.84474770129E+02  0.10000000000E+01 0.  0.
<mgrwt>
<rscale>  0 0.12500133E+03</rscale>
<asrwt>0</asrwt>
<pdfrwt beam="2">  1        4 0.93566670E-02 0.12500133E+03</pdfrwt>
<pdfrwt beam="1">  1       -4 0.26093247E-01 0.12500133E+03</pdfrwt>
<totfact> 0.18948062E+03</totfact>
</mgrwt>
</event>
<event>
 5    1  0.1466870E-002  0.1250072E+03  0.7818608E-02  0.1235058E+00
         -4   -1    0    0    0  501 -0.00000000000E+00  0.00000000000E+00  0.46592949739E+03  0.46593122823E+03  0.12700000000E+01 0.  1.
          4   -1    0    0  501    0  0.00000000000E+00 -0.00000000000E+00 -0.83349021933E+01  0.84311028087E+01  0.12700000000E+01 0.  1.
         25    2    1    2    0    0  0.00000000000E+00  0.00000000000E+00  0.45759459520E+03  0.47436233104E+03  0.12500723000E+03 0.  0.
    9000005    1    3    3    0    0  0.13809907130E+02  0.57591156869E+02  0.30452439682E+03  0.31023146704E+03  0.10000000000E+01 0.  0.
    9000005    1    3    3    0    0 -0.13809907130E+02 -0.57591156869E+02  0.15307019837E+03  0.16413086399E+03  0.10000000000E+01 0.  0.
<mgrwt>
<rscale>  0 0.12500723E+03</rscale>
<asrwt>0</asrwt>
<pdfrwt beam="2">  1        4 0.20959670E-02 0.12500723E+03</pdfrwt>
<pdfrwt beam="1">  1       -4 0.11649461E+00 0.12500723E+03</pdfrwt>
<totfact> 0.91786368E+02</totfact>
</mgrwt>
</event>
<event>
 5    1  0.1466870E-002  0.1250131E+03  0.7818608E-02  0.1235049E+00
          4   -1    0    0  501    0  0.00000000000E+00  0.00000000000E+00  0.67503470744E+01  0.68687761373E+01  0.12700000000E+01 0.  1.
         -4   -1    0    0    0  501 -0.00000000000E+00 -0.00000000000E+00 -0.57364262806E+03  0.57364403390E+03  0.12700000000E+01 0.  1.
         25    2    1    2    0    0  0.00000000000E+00  0.00000000000E+00 -0.56689228098E+03  0.58051281003E+03  0.12501305682E+03 0.  0.
    9000005    1    3    3    0    0  0.44616910142E+02 -0.27475960720E+02 -0.12525826049E+03  0.13578007552E+03  0.10000000000E+01 0.  0.
    9000005    1    3    3    0    0 -0.44616910142E+02  0.27475960720E+02 -0.44163402049E+03  0.44473273451E+03  0.10000000000E+01 0.  0.
<mgrwt>
<rscale>  0 0.12501306E+03</rscale>
<asrwt>0</asrwt>
<pdfrwt beam="1">  1        4 0.17025681E-02 0.12501306E+03</pdfrwt>
<pdfrwt beam="2">  1       -4 0.14342547E+00 0.12501306E+03</pdfrwt>
<totfact> 0.75988478E+02</totfact>
</mgrwt>
</event>
<event>
 5    1  0.1466870E-002  0.1249989E+03  0.7818608E-02  0.1235071E+00
          4   -1    0    0  501    0  0.00000000000E+00  0.00000000000E+00  0.14894133207E+03  0.14894674652E+03  0.12700000000E+01 0.  1.
         -4   -1    0    0    0  501 -0.00000000000E+00 -0.00000000000E+00 -0.26205030634E+02  0.26235787210E+02  0.12700000000E+01 0.  1.
         25    2    1    2    0    0  0.00000000000E+00  0.00000000000E+00  0.12273630144E+03  0.17518253373E+03  0.12499888173E+03 0.  0.
    9000005    1    3    3    0    0 -0.54773588940E+02 -0.18216033333E+02  0.27814357186E+02  0.64082824387E+02  0.10000000000E+01 0.  0.
    9000005    1    3    3    0    0  0.54773588940E+02  0.18216033333E+02  0.94921944249E+02  0.11109970934E+03  0.10000000000E+01 0.  0.
<mgrwt>
<rscale>  0 0.12499888E+03</rscale>
<asrwt>0</asrwt>
<pdfrwt beam="1">  1        4 0.37239854E-01 0.12499888E+03</pdfrwt>
<pdfrwt beam="2">  1       -4 0.65557791E-02 0.12499888E+03</pdfrwt>
<totfact> 0.17366245E+03</totfact>
</mgrwt>
</event>
<event>
 5    1  0.1466870E-002  0.1249973E+03  0.7818608E-02  0.1235074E+00
         -4   -1    0    0    0  501 -0.00000000000E+00  0.00000000000E+00  0.82375904182E+02  0.82385693478E+02  0.12700000000E+01 0. -1.
          4   -1    0    0  501    0  0.00000000000E+00 -0.00000000000E+00 -0.47396651417E+02  0.47413663280E+02  0.12700000000E+01 0. -1.
         25    2    1    2    0    0  0.00000000000E+00  0.00000000000E+00  0.34979252765E+02  0.12979935676E+03  0.12499729953E+03 0.  0.
    9000005    1    3    3    0    0 -0.34860615791E+01 -0.56772724938E+02  0.44364104538E+02  0.72142003671E+02  0.10000000000E+01 0.  0.
    9000005    1    3    3    0    0  0.34860615791E+01  0.56772724938E+02 -0.93848517729E+01  0.57657353087E+02  0.10000000000E+01 0.  0.
<mgrwt>
<rscale>  0 0.12499730E+03</rscale>
<asrwt>0</asrwt>
<pdfrwt beam="2">  1        4 0.11852513E-01 0.12499730E+03</pdfrwt>
<pdfrwt beam="1">  1       -4 0.20597326E-01 0.12499730E+03</pdfrwt>
<totfact> 0.19576409E+03</totfact>
</mgrwt>
</event>
<event>
 5    1  0.1466870E-002  0.1249996E+03  0.7818608E-02  0.1235070E+00
         -4   -1    0    0    0  501 -0.00000000000E+00  0.00000000000E+00  0.39874323447E+02  0.39894543115E+02  0.12700000000E+01 0.  1.
          4   -1    0    0  501    0  0.00000000000E+00 -0.00000000000E+00 -0.97914197633E+02  0.97922433579E+02  0.12700000000E+01 0.  1.
         25    2    1    2    0    0  0.00000000000E+00  0.00000000000E+00 -0.58039874186E+02  0.13781697669E+03  0.12499956828E+03 0.  0.
    9000005    1    3    3    0    0  0.62402152459E+01  0.49724163592E+01 -0.97355675538E+02  0.97687219073E+02  0.10000000000E+01 0.  0.
    9000005    1    3    3    0    0 -0.62402152459E+01 -0.49724163592E+01  0.39315801352E+02  0.40129757621E+02  0.10000000000E+01 0.  0.
<mgrwt>
<rscale>  0 0.12499957E+03</rscale>
<asrwt>0</asrwt>
<pdfrwt beam="2">  1        4 0.24482106E-01 0.12499957E+03</pdfrwt>
<pdfrwt beam="1">  1       -4 0.99721380E-02 0.12499957E+03</pdfrwt>
<totfact> 0.19152778E+03</totfact>
</mgrwt>
</event>
<event>
 5    1  0.1466870E-002  0.1249969E+03  0.7818608E-02  0.1235074E+00
          4   -1    0    0  501    0  0.00000000000E+00  0.00000000000E+00  0.13782734333E+03  0.13783319437E+03  0.12700000000E+01 0. -1.
         -4   -1    0    0    0  501 -0.00000000000E+00 -0.00000000000E+00 -0.28319536076E+02  0.28347998581E+02  0.12700000000E+01 0. -1.
         25    2    1    2    0    0  0.00000000000E+00  0.00000000000E+00  0.10950780726E+03  0.16618119295E+03  0.12499691612E+03 0.  0.
    9000005    1    3    3    0    0 -0.17155402582E+02  0.15370205116E+02  0.13198419800E+03  0.13398275846E+03  0.10000000000E+01 0.  0.
    9000005    1    3    3    0    0  0.17155402582E+02 -0.15370205116E+02 -0.22476390740E+02  0.32198434493E+02  0.10000000000E+01 0.  0.
<mgrwt>
<rscale>  0 0.12499692E+03</rscale>
<asrwt>0</asrwt>
<pdfrwt beam="1">  1        4 0.34461124E-01 0.12499692E+03</pdfrwt>
<pdfrwt beam="2">  1       -4 0.70841734E-02 0.12499692E+03</pdfrwt>
<totfact> 0.17771952E+03</totfact>
</mgrwt>
</event>
<event>
 5    1  0.1466870E-002  0.1250037E+03  0.7818608E-02  0.1235063E+00
          4   -1    0    0  501    0  0.00000000000E+00  0.00000000000E+00  0.21191718893E+03  0.21192099439E+03  0.12700000000E+01 0.  1.
         -4   -1    0    0    0  501 -0.00000000000E+00 -0.00000000000E+00 -0.18408150520E+02  0.18451907911E+02  0.12700000000E+01 0.  1.
         25    2    1    2    0    0  0.00000000000E+00  0.00000000000E+00  0.19350903841E+03  0.23037290230E+03  0.12500370462E+03 0.  0.
    9000005    1    3    3    0    0 -0.55790251278E+02  0.21081451563E+02  0.13115868448E+03  0.14408532282E+03  0.10000000000E+01 0.  0.
    9000005    1    3    3    0    0  0.55790251278E+02 -0.21081451563E+02  0.62350353925E+02  0.86287579479E+02  0.10000000000E+01 0.  0.
<mgrwt>
<rscale>  0 0.12500370E+03</rscale>
<asrwt>0</asrwt>
<pdfrwt beam="1">  1        4 0.52985244E-01 0.12500370E+03</pdfrwt>
<pdfrwt beam="2">  1       -4 0.46079829E-02 0.12500370E+03</pdfrwt>
<totfact> 0.15172700E+03</totfact>
</mgrwt>
</event>
<event>
 5    1  0.1466870E-002  0.1250035E+03  0.7818608E-02  0.1235064E+00
          4   -1    0    0  501    0  0.00000000000E+00  0.00000000000E+00  0.41779555132E+02  0.41798853179E+02  0.12700000000E+01 0. -1.
         -4   -1    0    0    0  501 -0.00000000000E+00 -0.00000000000E+00 -0.93456737324E+02  0.93465366052E+02  0.12700000000E+01 0. -1.
         25    2    1    2    0    0  0.00000000000E+00  0.00000000000E+00 -0.51677182191E+02  0.13526421923E+03  0.12500351133E+03 0.  0.
    9000005    1    3    3    0    0 -0.26599852045E+02  0.41394130223E+02  0.15852429501E+02  0.51704213241E+02  0.10000000000E+01 0.  0.
    9000005    1    3    3    0    0  0.26599852045E+02 -0.41394130223E+02 -0.67529611692E+02  0.83560005990E+02  0.10000000000E+01 0.  0.
<mgrwt>
<rscale>  0 0.12500351E+03</rscale>
<asrwt>0</asrwt>
<pdfrwt beam="1">  1        4 0.10448380E-01 0.12500351E+03</pdfrwt>
<pdfrwt beam="2">  1       -4 0.23367675E-01 0.12500351E+03</pdfrwt>
<totfact> 0.19283727E+03</totfact>
</mgrwt>
</event>
<event>
 5    1  0.1466870E-002  0.1249993E+03  0.7818608E-02  0.1235070E+00
          4   -1    0    0  501    0  0.00000000000E+00  0.00000000000E+00  0.20931189536E+02  0.20969682768E+02  0.12700000000E+01 0. -1.
         -4   -1    0    0    0  501 -0.00000000000E+00 -0.00000000000E+00 -0.18640927443E+03  0.18641360061E+03  0.12700000000E+01 0. -1.
         25    2    1    2    0    0  0.00000000000E+00  0.00000000000E+00 -0.16547808489E+03  0.20738328338E+03  0.12499931858E+03 0.  0.
    9000005    1    3    3    0    0 -0.27506418873E+02 -0.55205178357E+02 -0.66066151526E+02  0.90387782217E+02  0.10000000000E+01 0.  0.
    9000005    1    3    3    0    0  0.27506418873E+02  0.55205178357E+02 -0.99411933364E+02  0.11699550116E+03  0.10000000000E+01 0.  0.
<mgrwt>
<rscale>  0 0.12499932E+03</rscale>
<asrwt>0</asrwt>
<pdfrwt beam="1">  1        4 0.52381504E-02 0.12499932E+03</pdfrwt>
<pdfrwt beam="2">  1       -4 0.46607666E-01 0.12499932E+03</pdfrwt>
<totfact> 0.16030864E+03</totfact>
</mgrwt>
</event>
<event>
 5    1  0.1466870E-002  0.1250005E+03  0.7818608E-02  0.1235069E+00
         -4   -1    0    0    0  501 -0.00000000000E+00  0.00000000000E+00  0.73912048462E+03  0.73912157571E+03  0.12700000000E+01 0. -1.
          4   -1    0    0  501    0  0.00000000000E+00 -0.00000000000E+00 -0.52076304234E+01  0.53602532241E+01  0.12700000000E+01 0. -1.
         25    2    1    2    0    0  0.00000000000E+00  0.00000000000E+00  0.73391285420E+03  0.74448182894E+03  0.12500046425E+03 0.  0.
    9000005    1    3    3    0    0 -0.19732573636E+02 -0.27899922025E+02  0.55340639041E+02  0.65048954186E+02  0.10000000000E+01 0.  0.
    9000005    1    3    3    0    0  0.19732573636E+02  0.27899922025E+02  0.67857221515E+03  0.67943287475E+03  0.10000000000E+01 0.  0.
<mgrwt>
<rscale>  0 0.12500046E+03</rscale>
<asrwt>0</asrwt>
<pdfrwt beam="2">  1        4 0.13211214E-02 0.12500046E+03</pdfrwt>
<pdfrwt beam="1">  1       -4 0.18479939E+00 0.12500046E+03</pdfrwt>
<totfact> 0.57599244E+02</totfact>
</mgrwt>
</event>
<event>
 5    1  0.1466870E-002  0.1250008E+03  0.7818608E-02  0.1235068E+00
          4   -1    0    0  501    0  0.00000000000E+00  0.00000000000E+00  0.17865506967E+03  0.17865958362E+03  0.12700000000E+01 0. -1.
         -4   -1    0    0    0  501 -0.00000000000E+00 -0.00000000000E+00 -0.21841791632E+02  0.21878682814E+02  0.12700000000E+01 0. -1.
         25    2    1    2    0    0  0.00000000000E+00  0.00000000000E+00  0.15681327804E+03  0.20053826643E+03  0.12500076854E+03 0.  0.
    9000005    1    3    3    0    0 -0.32781198398E+02 -0.16405767745E+02 -0.27894855176E+01  0.36776859751E+02  0.10000000000E+01 0.  0.
    9000005    1    3    3    0    0  0.32781198398E+02  0.16405767745E+02  0.15960276356E+03  0.16376140668E+03  0.10000000000E+01 0.  0.
<mgrwt>
<rscale>  0 0.12500077E+03</rscale>
<asrwt>0</asrwt>
<pdfrwt beam="1">  1        4 0.44668943E-01 0.12500077E+03</pdfrwt>
<pdfrwt beam="2">  1       -4 0.54656236E-02 0.12500077E+03</pdfrwt>
<totfact> 0.16300221E+03</totfact>
</mgrwt>
</event>
<event>
 5    1  0.1466870E-002  0.1249996E+03  0.7818608E-02  0.1235070E+00
         -4   -1    0    0    0  501 -0.00000000000E+00  0.00000000000E+00  0.92028743781E+01  0.92900913245E+01  0.12700000000E+01 0. -1.
          4   -1    0    0  501    0  0.00000000000E+00 -0.00000000000E+00 -0.42236735244E+03  0.42236926179E+03  0.12700000000E+01 0. -1.
         25    2    1    2    0    0  0.00000000000E+00  0.00000000000E+00 -0.41316447806E+03  0.43165935311E+03  0.12499964480E+03 0.  0.
    9000005    1    3    3    0    0 -0.69156350524E+01 -0.41689599581E+02 -0.47604360193E+02  0.63663363332E+02  0.10000000000E+01 0.  0.
    9000005    1    3    3    0    0  0.69156350524E+01  0.41689599581E+02 -0.36556011786E+03  0.36799598978E+03  0.10000000000E+01 0.  0.
<mgrwt>
<rscale>  0 0.12499964E+03</rscale>
<asrwt>0</asrwt>
<pdfrwt beam="2">  1        4 0.10560291E+00 0.12499964E+03</pdfrwt>
<pdfrwt beam="1">  1       -4 0.23118608E-02 0.12499964E+03</pdfrwt>
<totfact> 0.99406199E+02</totfact>
</mgrwt>
</event>
<event>
 5    1  0.1466870E-002  0.1249989E+03  0.7818608E-02  0.1235071E+00
          4   -1    0    0  501    0  0.00000000000E+00  0.00000000000E+00  0.20101635292E+02  0.20141713964E+02  0.12700000000E+01 0.  1.
         -4   -1    0    0    0  501 -0.00000000000E+00 -0.00000000000E+00 -0.19408601622E+03  0.19409017130E+03  0.12700000000E+01 0.  1.
         25    2    1    2    0    0  0.00000000000E+00  0.00000000000E+00 -0.17398438093E+03  0.21423188526E+03  0.12499894341E+03 0.  0.
    9000005    1    3    3    0    0 -0.80579799904E+00  0.55849944053E+02 -0.13502087091E+03  0.14612152867E+03  0.10000000000E+01 0.  0.
    9000005    1    3    3    0    0  0.80579799904E+00 -0.55849944053E+02 -0.38963510026E+02  0.68110356589E+02  0.10000000000E+01 0.  0.
<mgrwt>
<rscale>  0 0.12499894E+03</rscale>
<asrwt>0</asrwt>
<pdfrwt beam="1">  1        4 0.50309386E-02 0.12499894E+03</pdfrwt>
<pdfrwt beam="2">  1       -4 0.48527028E-01 0.12499894E+03</pdfrwt>
<totfact> 0.15767988E+03</totfact>
</mgrwt>
</event>
<event>
 4    1  0.1466870E-002  0.1249007E+03  0.7818608E-02  0.1235225E+00
          4   -1    0    0  501    0  0.00000000000E+00  0.00000000000E+00  0.30593603932E+02  0.30619952670E+02  0.12700000000E+01 0.  1.
         -4   -1    0    0    0  501 -0.00000000000E+00 -0.00000000000E+00 -0.12739467793E+03  0.12740100810E+03  0.12700000000E+01 0.  1.
    9000005    1    1    2    0    0 -0.93654628814E+01  0.61730968889E+02 -0.49396425180E+02  0.79620545310E+02  0.10000000000E+01 0.  0.
    9000005    1    1    2    0    0  0.93654628814E+01 -0.61730968889E+02 -0.47404648822E+02  0.78400415463E+02  0.10000000000E+01 0.  0.
<mgrwt>
<rscale>  0 0.12490066E+03</rscale>
<asrwt>0</asrwt>
<pdfrwt beam="1">  1        4 0.76524862E-02 0.12490066E+03</pdfrwt>
<pdfrwt beam="2">  1       -4 0.31852753E-01 0.12490066E+03</pdfrwt>
<totfact> 0.18193271E+03</totfact>
</mgrwt>
</event>
<event>
 5    1  0.1466870E-002  0.1250011E+03  0.7818608E-02  0.1235068E+00
          4   -1    0    0  501    0  0.00000000000E+00  0.00000000000E+00  0.41980257249E+02  0.41999463076E+02  0.12700000000E+01 0.  1.
         -4   -1    0    0    0  501 -0.00000000000E+00 -0.00000000000E+00 -0.93006542406E+02  0.93015212897E+02  0.12700000000E+01 0.  1.
         25    2    1    2    0    0  0.00000000000E+00  0.00000000000E+00 -0.51026285158E+02  0.13501467597E+03  0.12500112380E+03 0.  0.
    9000005    1    3    3    0    0  0.10923902548E+02 -0.47893084504E+02 -0.67237201696E+02  0.83276169953E+02  0.10000000000E+01 0.  0.
    9000005    1    3    3    0    0 -0.10923902548E+02  0.47893084504E+02  0.16210916538E+02  0.51738506020E+02  0.10000000000E+01 0.  0.
<mgrwt>
<rscale>  0 0.12500112E+03</rscale>
<asrwt>0</asrwt>
<pdfrwt beam="1">  1        4 0.10498549E-01 0.12500112E+03</pdfrwt>
<pdfrwt beam="2">  1       -4 0.23255120E-01 0.12500112E+03</pdfrwt>
<totfact> 0.19297862E+03</totfact>
</mgrwt>
</event>
<event>
 5    1  0.1466870E-002  0.1250006E+03  0.7818608E-02  0.1235068E+00
         -4   -1    0    0    0  501 -0.00000000000E+00  0.00000000000E+00  0.72229642924E+02  0.72240807144E+02  0.12700000000E+01 0.  1.
          4   -1    0    0  501    0  0.00000000000E+00 -0.00000000000E+00 -0.54058692233E+02  0.54073608220E+02  0.12700000000E+01 0.  1.
         25    2    1    2    0    0  0.00000000000E+00  0.00000000000E+00  0.18170950691E+02  0.12631441536E+03  0.12500059232E+03 0.  0.
    9000005    1    3    3    0    0  0.47484428766E+02  0.17204642230E+02 -0.28105106085E+02  0.57807159397E+02  0.10000000000E+01 0.  0.
    9000005    1    3    3    0    0 -0.47484428766E+02 -0.17204642230E+02  0.46276056776E+02  0.68507255967E+02  0.10000000000E+01 0.  0.
<mgrwt>
<rscale>  0 0.12500059E+03</rscale>
<asrwt>0</asrwt>
<pdfrwt beam="2">  1        4 0.13517933E-01 0.12500059E+03</pdfrwt>
<pdfrwt beam="1">  1       -4 0.18060671E-01 0.12500059E+03</pdfrwt>
<totfact> 0.19763665E+03</totfact>
</mgrwt>
</event>
<event>
 5    1  0.1466870E-002  0.1250008E+03  0.7818608E-02  0.1235068E+00
          4   -1    0    0  501    0  0.00000000000E+00  0.00000000000E+00  0.20219718596E+03  0.20220117435E+03  0.12700000000E+01 0. -1.
         -4   -1    0    0    0  501 -0.00000000000E+00 -0.00000000000E+00 -0.19294205850E+02  0.19335958197E+02  0.12700000000E+01 0. -1.
         25    2    1    2    0    0  0.00000000000E+00  0.00000000000E+00  0.18290298011E+03  0.22153713255E+03  0.12500080386E+03 0.  0.
    9000005    1    3    3    0    0 -0.11095509787E+02  0.39670516010E+02  0.17473835845E+03  0.17953092795E+03  0.10000000000E+01 0.  0.
    9000005    1    3    3    0    0  0.11095509787E+02 -0.39670516010E+02  0.81646216609E+01  0.42006204599E+02  0.10000000000E+01 0.  0.
<mgrwt>
<rscale>  0 0.12500080E+03</rscale>
<asrwt>0</asrwt>
<pdfrwt beam="1">  1        4 0.50555013E-01 0.12500080E+03</pdfrwt>
<pdfrwt beam="2">  1       -4 0.48292692E-02 0.12500080E+03</pdfrwt>
<totfact> 0.15494211E+03</totfact>
</mgrwt>
</event>
<event>
 5    1  0.1466870E-002  0.1249970E+03  0.7818608E-02  0.1235074E+00
          4   -1    0    0  501    0  0.00000000000E+00  0.00000000000E+00  0.42990544551E+01  0.44827189526E+01  0.12700000000E+01 0.  1.
         -4   -1    0    0    0  501 -0.00000000000E+00 -0.00000000000E+00 -0.88939928624E+03  0.88940019298E+03  0.12700000000E+01 0.  1.
         25    2    1    2    0    0  0.00000000000E+00  0.00000000000E+00 -0.88510023179E+03  0.89388291193E+03  0.12499695969E+03 0.  0.
    9000005    1    3    3    0    0 -0.26606146300E+02 -0.45486118087E+02 -0.68274930828E+03  0.68478061590E+03  0.10000000000E+01 0.  0.
    9000005    1    3    3    0    0  0.26606146300E+02  0.45486118087E+02 -0.20235092351E+03  0.20910229603E+03  0.10000000000E+01 0.  0.
<mgrwt>
<rscale>  0 0.12499696E+03</rscale>
<asrwt>0</asrwt>
<pdfrwt beam="1">  1        4 0.10978381E-02 0.12499696E+03</pdfrwt>
<pdfrwt beam="2">  1       -4 0.22237228E+00 0.12499696E+03</pdfrwt>
<totfact> 0.44746827E+02</totfact>
</mgrwt>
</event>
<event>
 5    1  0.1466870E-002  0.1250034E+03  0.7818608E-02  0.1235064E+00
          4   -1    0    0  501    0  0.00000000000E+00  0.00000000000E+00  0.72510694633E+03  0.72510805851E+03  0.12700000000E+01 0.  1.
         -4   -1    0    0    0  501 -0.00000000000E+00 -0.00000000000E+00 -0.53114503009E+01  0.54611724290E+01  0.12700000000E+01 0.  1.
         25    2    1    2    0    0  0.00000000000E+00  0.00000000000E+00  0.71979549603E+03  0.73056923094E+03  0.12500338032E+03 0.  0.
    9000005    1    3    3    0    0 -0.53282727251E+02 -0.27522325613E+01  0.16972237802E+03  0.17791376959E+03  0.10000000000E+01 0.  0.
    9000005    1    3    3    0    0  0.53282727251E+02  0.27522325613E+01  0.55007311801E+03  0.55265546135E+03  0.10000000000E+01 0.  0.
<mgrwt>
<rscale>  0 0.12500338E+03</rscale>
<asrwt>0</asrwt>
<pdfrwt beam="1">  1        4 0.18129557E+00 0.12500338E+03</pdfrwt>
<pdfrwt beam="2">  1       -4 0.13467170E-02 0.12500338E+03</pdfrwt>
<totfact> 0.58953899E+02</totfact>
</mgrwt>
</event>
<event>
 5    1  0.1466870E-002  0.1249999E+03  0.7818608E-02  0.1235069E+00
         -4   -1    0    0    0  501 -0.00000000000E+00  0.00000000000E+00  0.10947636521E+02  0.11021054641E+02  0.12700000000E+01 0. -1.
          4   -1    0    0  501    0  0.00000000000E+00 -0.00000000000E+00 -0.35554485496E+03  0.35554712316E+03  0.12700000000E+01 0. -1.
         25    2    1    2    0    0  0.00000000000E+00  0.00000000000E+00 -0.34459721844E+03  0.36656817780E+03  0.12499994408E+03 0.  0.
    9000005    1    3    3    0    0 -0.60236672547E+02 -0.67912542733E+01 -0.12775973556E+03  0.14141473716E+03  0.10000000000E+01 0.  0.
    9000005    1    3    3    0    0  0.60236672547E+02  0.67912542733E+01 -0.21683748287E+03  0.22515344064E+03  0.10000000000E+01 0.  0.
<mgrwt>
<rscale>  0 0.12499994E+03</rscale>
<asrwt>0</asrwt>
<pdfrwt beam="2">  1        4 0.88895636E-01 0.12499994E+03</pdfrwt>
<pdfrwt beam="1">  1       -4 0.27463711E-02 0.12499994E+03</pdfrwt>
<totfact> 0.11291919E+03</totfact>
</mgrwt>
</event>
<event>
 5    1  0.1466870E-002  0.1250025E+03  0.7818608E-02  0.1235065E+00
         -4   -1    0    0    0  501 -0.00000000000E+00  0.00000000000E+00  0.25521505133E+02  0.25553084437E+02  0.12700000000E+01 0.  1.
          4   -1    0    0  501    0  0.00000000000E+00 -0.00000000000E+00 -0.15293438108E+03  0.15293965417E+03  0.12700000000E+01 0.  1.
         25    2    1    2    0    0  0.00000000000E+00  0.00000000000E+00 -0.12741287595E+03  0.17849273861E+03  0.12500246708E+03 0.  0.
    9000005    1    3    3    0    0  0.52537705886E+01 -0.61379728620E+02 -0.48707836958E+02  0.78539967991E+02  0.10000000000E+01 0.  0.
    9000005    1    3    3    0    0 -0.52537705886E+01  0.61379728620E+02 -0.78705038992E+02  0.99952770615E+02  0.10000000000E+01 0.  0.
<mgrwt>
<rscale>  0 0.12500247E+03</rscale>
<asrwt>0</asrwt>
<pdfrwt beam="2">  1        4 0.38238199E-01 0.12500247E+03</pdfrwt>
<pdfrwt beam="1">  1       -4 0.63849833E-02 0.12500247E+03</pdfrwt>
<totfact> 0.17219669E+03</totfact>
</mgrwt>
</event>
<event>
 5    1  0.1466870E-002  0.1250003E+03  0.7818608E-02  0.1235069E+00
         -4   -1    0    0    0  501 -0.00000000000E+00  0.00000000000E+00  0.20766712261E+03  0.20767100596E+03  0.12700000000E+01 0. -1.
          4   -1    0    0  501    0  0.00000000000E+00 -0.00000000000E+00 -0.18784741406E+02  0.18827623580E+02  0.12700000000E+01 0. -1.
         25    2    1    2    0    0  0.00000000000E+00  0.00000000000E+00  0.18888238121E+03  0.22649862954E+03  0.12500030100E+03 0.  0.
    9000005    1    3    3    0    0  0.56744383139E+02 -0.67409905207E+01  0.14027770021E+03  0.15147342719E+03  0.10000000000E+01 0.  0.
    9000005    1    3    3    0    0 -0.56744383139E+02  0.67409905207E+01  0.48604681002E+02  0.75025202341E+02  0.10000000000E+01 0.  0.
<mgrwt>
<rscale>  0 0.12500030E+03</rscale>
<asrwt>0</asrwt>
<pdfrwt beam="2">  1        4 0.47020311E-02 0.12500030E+03</pdfrwt>
<pdfrwt beam="1">  1       -4 0.51922626E-01 0.12500030E+03</pdfrwt>
<totfact> 0.15313129E+03</totfact>
</mgrwt>
</event>
<event>
 5    1  0.1466870E-002  0.1249960E+03  0.7818608E-02  0.1235076E+00
          4   -1    0    0  501    0  0.00000000000E+00  0.00000000000E+00  0.30561234559E+03  0.30561498438E+03  0.12700000000E+01 0. -1.
         -4   -1    0    0    0  501 -0.00000000000E+00 -0.00000000000E+00 -0.12746651320E+02  0.12809762678E+02  0.12700000000E+01 0. -1.
         25    2    1    2    0    0  0.00000000000E+00  0.00000000000E+00  0.29286569427E+03  0.31842474706E+03  0.12499601857E+03 0.  0.
    9000005    1    3    3    0    0 -0.54560189766E+02 -0.15714099326E+01  0.22394144420E+03  0.23049957499E+03  0.10000000000E+01 0.  0.
    9000005    1    3    3    0    0  0.54560189766E+02  0.15714099326E+01  0.68924250065E+02  0.87925172069E+02  0.10000000000E+01 0.  0.
<mgrwt>
<rscale>  0 0.12499602E+03</rscale>
<asrwt>0</asrwt>
<pdfrwt beam="1">  1        4 0.76411307E-01 0.12499602E+03</pdfrwt>
<pdfrwt beam="2">  1       -4 0.31948815E-02 0.12499602E+03</pdfrwt>
<totfact> 0.12471075E+03</totfact>
</mgrwt>
</event>
<event>
 5    1  0.1466870E-002  0.1250008E+03  0.7818608E-02  0.1235068E+00
          4   -1    0    0  501    0  0.00000000000E+00  0.00000000000E+00  0.69023628417E+02  0.69035311108E+02  0.12700000000E+01 0.  1.
         -4   -1    0    0    0  501 -0.00000000000E+00 -0.00000000000E+00 -0.56570031741E+02  0.56584285727E+02  0.12700000000E+01 0.  1.
         25    2    1    2    0    0  0.00000000000E+00  0.00000000000E+00  0.12453596675E+02  0.12561959683E+03  0.12500076415E+03 0.  0.
    9000005    1    3    3    0    0 -0.23542408177E+01  0.71939924640E+01 -0.56112564566E+02  0.56629637820E+02  0.10000000000E+01 0.  0.
    9000005    1    3    3    0    0  0.23542408177E+01 -0.71939924640E+01  0.68566161242E+02  0.68989959015E+02  0.10000000000E+01 0.  0.
<mgrwt>
<rscale>  0 0.12500076E+03</rscale>
<asrwt>0</asrwt>
<pdfrwt beam="1">  1        4 0.17259149E-01 0.12500076E+03</pdfrwt>
<pdfrwt beam="2">  1       -4 0.14145750E-01 0.12500076E+03</pdfrwt>
<totfact> 0.19801136E+03</totfact>
</mgrwt>
</event>
<event>
 5    1  0.1466870E-002  0.1250002E+03  0.7818608E-02  0.1235069E+00
          4   -1    0    0  501    0  0.00000000000E+00  0.00000000000E+00  0.18013286513E+03  0.18013734205E+03  0.12700000000E+01 0.  1.
         -4   -1    0    0    0  501 -0.00000000000E+00 -0.00000000000E+00 -0.21662118851E+02  0.21699315499E+02  0.12700000000E+01 0.  1.
         25    2    1    2    0    0  0.00000000000E+00  0.00000000000E+00  0.15847074628E+03  0.20183665755E+03  0.12500023561E+03 0.  0.
    9000005    1    3    3    0    0 -0.45435220919E+02  0.13544917243E+02  0.14497211967E+03  0.15253111016E+03  0.10000000000E+01 0.  0.
    9000005    1    3    3    0    0  0.45435220919E+02 -0.13544917243E+02  0.13498626606E+02  0.49305547389E+02  0.10000000000E+01 0.  0.
<mgrwt>
<rscale>  0 0.12500024E+03</rscale>
<asrwt>0</asrwt>
<pdfrwt beam="1">  1        4 0.45038424E-01 0.12500024E+03</pdfrwt>
<pdfrwt beam="2">  1       -4 0.54207390E-02 0.12500024E+03</pdfrwt>
<totfact> 0.16248673E+03</totfact>
</mgrwt>
</event>
<event>
 5    1  0.1466870E-002  0.1250000E+03  0.7818608E-02  0.1235069E+00
         -4   -1    0    0    0  501 -0.00000000000E+00  0.00000000000E+00  0.69709573606E+02  0.69721141358E+02  0.12700000000E+01 0.  1.
          4   -1    0    0  501    0  0.00000000000E+00 -0.00000000000E+00 -0.56012665976E+02  0.56027061763E+02  0.12700000000E+01 0.  1.
         25    2    1    2    0    0  0.00000000000E+00  0.00000000000E+00  0.13696907630E+02  0.12574820312E+03  0.12500002124E+03 0.  0.
    9000005    1    3    3    0    0  0.80389871289E+01  0.59115760135E+02 -0.11862684088E+02  0.60836022915E+02  0.10000000000E+01 0.  0.
    9000005    1    3    3    0    0 -0.80389871289E+01 -0.59115760135E+02  0.25559591717E+02  0.64912180206E+02  0.10000000000E+01 0.  0.
<mgrwt>
<rscale>  0 0.12500002E+03</rscale>
<asrwt>0</asrwt>
<pdfrwt beam="2">  1        4 0.14006412E-01 0.12500002E+03</pdfrwt>
<pdfrwt beam="1">  1       -4 0.17430639E-01 0.12500002E+03</pdfrwt>
<totfact> 0.19794523E+03</totfact>
</mgrwt>
</event>
<event>
 5    1  0.1466870E-002  0.1250014E+03  0.7818608E-02  0.1235067E+00
         -4   -1    0    0    0  501 -0.00000000000E+00  0.00000000000E+00  0.17034945948E+02  0.17082221268E+02  0.12700000000E+01 0. -1.
          4   -1    0    0  501    0  0.00000000000E+00 -0.00000000000E+00 -0.22894646513E+03  0.22894998754E+03  0.12700000000E+01 0. -1.
         25    2    1    2    0    0  0.00000000000E+00  0.00000000000E+00 -0.21191151918E+03  0.24603220881E+03  0.12500142323E+03 0.  0.
    9000005    1    3    3    0    0 -0.16265101619E+02  0.28505138550E+02 -0.21062891823E+03  0.21317278824E+03  0.10000000000E+01 0.  0.
    9000005    1    3    3    0    0  0.16265101619E+02 -0.28505138550E+02 -0.12826009509E+01  0.32859420562E+02  0.10000000000E+01 0.  0.
<mgrwt>
<rscale>  0 0.12500142E+03</rscale>
<asrwt>0</asrwt>
<pdfrwt beam="2">  1        4 0.57242956E-01 0.12500142E+03</pdfrwt>
<pdfrwt beam="1">  1       -4 0.42650869E-02 0.12500142E+03</pdfrwt>
<totfact> 0.14630395E+03</totfact>
</mgrwt>
</event>
<event>
 5    1  0.1466870E-002  0.1250001E+03  0.7818608E-02  0.1235069E+00
         -4   -1    0    0    0  501 -0.00000000000E+00  0.00000000000E+00  0.17136297151E+03  0.17136767754E+03  0.12700000000E+01 0. -1.
          4   -1    0    0  501    0  0.00000000000E+00 -0.00000000000E+00 -0.22772496698E+02  0.22807882538E+02  0.12700000000E+01 0. -1.
         25    2    1    2    0    0  0.00000000000E+00  0.00000000000E+00  0.14859047482E+03  0.19417556008E+03  0.12500007571E+03 0.  0.
    9000005    1    3    3    0    0  0.61489929250E+02 -0.18058149549E+01  0.91381431093E+02  0.11016278099E+03  0.10000000000E+01 0.  0.
    9000005    1    3    3    0    0 -0.61489929250E+02  0.18058149549E+01  0.57209043723E+02  0.84012779090E+02  0.10000000000E+01 0.  0.
<mgrwt>
<rscale>  0 0.12500008E+03</rscale>
<asrwt>0</asrwt>
<pdfrwt beam="2">  1        4 0.56981358E-02 0.12500008E+03</pdfrwt>
<pdfrwt beam="1">  1       -4 0.42845753E-01 0.12500008E+03</pdfrwt>
<totfact> 0.16557919E+03</totfact>
</mgrwt>
</event>
<event>
 5    1  0.1466870E-002  0.1249995E+03  0.7818608E-02  0.1235070E+00
          4   -1    0    0  501    0  0.00000000000E+00  0.00000000000E+00  0.15148269196E+02  0.15201413080E+02  0.12700000000E+01 0. -1.
         -4   -1    0    0    0  501 -0.00000000000E+00 -0.00000000000E+00 -0.25735937657E+03  0.25736251011E+03  0.12700000000E+01 0. -1.
         25    2    1    2    0    0  0.00000000000E+00  0.00000000000E+00 -0.24221110737E+03  0.27256392319E+03  0.12499948675E+03 0.  0.
    9000005    1    3    3    0    0 -0.17993437896E+02 -0.31206542632E+02 -0.23245321814E+03  0.23522991037E+03  0.10000000000E+01 0.  0.
    9000005    1    3    3    0    0  0.17993437896E+02  0.31206542632E+02 -0.97578892305E+01  0.37334012811E+02  0.10000000000E+01 0.  0.
<mgrwt>
<rscale>  0 0.12499949E+03</rscale>
<asrwt>0</asrwt>
<pdfrwt beam="1">  1        4 0.37941028E-02 0.12499949E+03</pdfrwt>
<pdfrwt beam="2">  1       -4 0.64346865E-01 0.12499949E+03</pdfrwt>
<totfact> 0.13776573E+03</totfact>
</mgrwt>
</event>
<event>
 5    1  0.1466870E-002  0.1250006E+03  0.7818608E-02  0.1235068E+00
          4   -1    0    0  501    0  0.00000000000E+00  0.00000000000E+00  0.68400037461E+01  0.69569067298E+01  0.12700000000E+01 0. -1.
         -4   -1    0    0    0  501 -0.00000000000E+00 -0.00000000000E+00 -0.56613743152E+03  0.56613885600E+03  0.12700000000E+01 0. -1.
         25    2    1    2    0    0  0.00000000000E+00  0.00000000000E+00 -0.55929742777E+03  0.57309576273E+03  0.12500056216E+03 0.  0.
    9000005    1    3    3    0    0  0.37332298758E+02  0.37631745091E+02 -0.43139176369E+03  0.43463743804E+03  0.10000000000E+01 0.  0.
    9000005    1    3    3    0    0 -0.37332298758E+02 -0.37631745091E+02 -0.12790566409E+03  0.13845832469E+03  0.10000000000E+01 0.  0.
<mgrwt>
<rscale>  0 0.12500056E+03</rscale>
<asrwt>0</asrwt>
<pdfrwt beam="1">  1        4 0.17247938E-02 0.12500056E+03</pdfrwt>
<pdfrwt beam="2">  1       -4 0.14154899E+00 0.12500056E+03</pdfrwt>
<totfact> 0.76994954E+02</totfact>
</mgrwt>
</event>
<event>
 5    1  0.1466870E-002  0.1249960E+03  0.7818608E-02  0.1235076E+00
         -4   -1    0    0    0  501 -0.00000000000E+00  0.00000000000E+00  0.11981851872E+03  0.11982524912E+03  0.12700000000E+01 0. -1.
          4   -1    0    0  501    0  0.00000000000E+00 -0.00000000000E+00 -0.32579272638E+02  0.32604016709E+02  0.12700000000E+01 0. -1.
         25    2    1    2    0    0  0.00000000000E+00  0.00000000000E+00  0.87239246080E+02  0.15242926583E+03  0.12499598004E+03 0.  0.
    9000005    1    3    3    0    0  0.51343273262E+02  0.33033844953E+02  0.59872605979E+02  0.85516639132E+02  0.10000000000E+01 0.  0.
    9000005    1    3    3    0    0 -0.51343273262E+02 -0.33033844953E+02  0.27366640101E+02  0.66912626702E+02  0.10000000000E+01 0.  0.
<mgrwt>
<rscale>  0 0.12499598E+03</rscale>
<asrwt>0</asrwt>
<pdfrwt beam="2">  1        4 0.81487525E-02 0.12499598E+03</pdfrwt>
<pdfrwt beam="1">  1       -4 0.29958564E-01 0.12499598E+03</pdfrwt>
<totfact> 0.18421698E+03</totfact>
</mgrwt>
</event>
<event>
 5    1  0.1466870E-002  0.1249633E+03  0.7818608E-02  0.1235127E+00
          4   -1    0    0  501    0  0.00000000000E+00  0.00000000000E+00  0.40797805454E+02  0.40817567662E+02  0.12700000000E+01 0. -1.
         -4   -1    0    0    0  501 -0.00000000000E+00 -0.00000000000E+00 -0.95643188004E+02  0.95651619492E+02  0.12700000000E+01 0. -1.
         25    2    1    2    0    0  0.00000000000E+00  0.00000000000E+00 -0.54845382549E+02  0.13646918715E+03  0.12496328683E+03 0.  0.
    9000005    1    3    3    0    0  0.37898271219E+02  0.43275207988E+02 -0.54037353427E+02  0.78930717425E+02  0.10000000000E+01 0.  0.
    9000005    1    3    3    0    0 -0.37898271219E+02 -0.43275207988E+02 -0.80802912236E+00  0.57538469730E+02  0.10000000000E+01 0.  0.
<mgrwt>
<rscale>  0 0.12496329E+03</rscale>
<asrwt>0</asrwt>
<pdfrwt beam="1">  1        4 0.10202976E-01 0.12496329E+03</pdfrwt>
<pdfrwt beam="2">  1       -4 0.23914321E-01 0.12496329E+03</pdfrwt>
<totfact> 0.19238930E+03</totfact>
</mgrwt>
</event>
<event>
 5    1  0.1466870E-002  0.1250061E+03  0.7818608E-02  0.1235060E+00
         -4   -1    0    0    0  501 -0.00000000000E+00  0.00000000000E+00  0.11576336585E+02  0.11645791889E+02  0.12700000000E+01 0. -1.
          4   -1    0    0  501    0  0.00000000000E+00 -0.00000000000E+00 -0.33638677782E+03  0.33638917520E+03  0.12700000000E+01 0. -1.
         25    2    1    2    0    0  0.00000000000E+00  0.00000000000E+00 -0.32481044124E+03  0.34803496709E+03  0.12500606218E+03 0.  0.
    9000005    1    3    3    0    0  0.23719808578E+02  0.53079181789E+02 -0.98576006311E+02  0.11444762068E+03  0.10000000000E+01 0.  0.
    9000005    1    3    3    0    0 -0.23719808578E+02 -0.53079181789E+02 -0.22623443492E+03  0.23358734641E+03  0.10000000000E+01 0.  0.
<mgrwt>
<rscale>  0 0.12500606E+03</rscale>
<asrwt>0</asrwt>
<pdfrwt beam="2">  1        4 0.84105644E-01 0.12500606E+03</pdfrwt>
<pdfrwt beam="1">  1       -4 0.29030668E-02 0.12500606E+03</pdfrwt>
<totfact> 0.11722710E+03</totfact>
</mgrwt>
</event>
<event>
 5    1  0.1466870E-002  0.1249966E+03  0.7818608E-02  0.1235075E+00
         -4   -1    0    0    0  501 -0.00000000000E+00  0.00000000000E+00  0.50192918122E+03  0.50193078792E+03  0.12700000000E+01 0.  1.
          4   -1    0    0  501    0  0.00000000000E+00 -0.00000000000E+00 -0.77286016316E+01  0.78322527526E+01  0.12700000000E+01 0.  1.
         25    2    1    2    0    0  0.00000000000E+00  0.00000000000E+00  0.49420057959E+03  0.50976304067E+03  0.12499657903E+03 0.  0.
    9000005    1    3    3    0    0 -0.22199246672E+02 -0.28602216816E+01  0.48504064433E+03  0.48555783803E+03  0.10000000000E+01 0.  0.
    9000005    1    3    3    0    0  0.22199246672E+02  0.28602216816E+01  0.91599352564E+01  0.24205202638E+02  0.10000000000E+01 0.  0.
<mgrwt>
<rscale>  0 0.12499658E+03</rscale>
<asrwt>0</asrwt>
<pdfrwt beam="2">  1        4 0.19453078E-02 0.12499658E+03</pdfrwt>
<pdfrwt beam="1">  1       -4 0.12549544E+00 0.12499658E+03</pdfrwt>
<totfact> 0.86081351E+02</totfact>
</mgrwt>
</event>
<event>
 5    1  0.1466870E-002  0.1249995E+03  0.7818608E-02  0.1235070E+00
          4   -1    0    0  501    0  0.00000000000E+00  0.00000000000E+00  0.43083138711E+02  0.43101853106E+02  0.12700000000E+01 0. -1.
         -4   -1    0    0    0  501 -0.00000000000E+00 -0.00000000000E+00 -0.90624101548E+02  0.90632999958E+02  0.12700000000E+01 0. -1.
         25    2    1    2    0    0  0.00000000000E+00  0.00000000000E+00 -0.47540962838E+02  0.13373485306E+03  0.12499947111E+03 0.  0.
    9000005    1    3    3    0    0 -0.96055932124E+01 -0.61699072039E+02 -0.26428884881E+02  0.67812453631E+02  0.10000000000E+01 0.  0.
    9000005    1    3    3    0    0  0.96055932124E+01  0.61699072039E+02 -0.21112077957E+02  0.65922399433E+02  0.10000000000E+01 0.  0.
<mgrwt>
<rscale>  0 0.12499947E+03</rscale>
<asrwt>0</asrwt>
<pdfrwt beam="1">  1        4 0.10774236E-01 0.12499947E+03</pdfrwt>
<pdfrwt beam="2">  1       -4 0.22659477E-01 0.12499947E+03</pdfrwt>
<totfact> 0.19365849E+03</totfact>
</mgrwt>
</event>
<event>
 5    1  0.1466870E-002  0.1250024E+03  0.7818608E-02  0.1235066E+00
          4   -1    0    0  501    0  0.00000000000E+00  0.00000000000E+00  0.43022328994E+02  0.43041069829E+02  0.12700000000E+01 0.  1.
         -4   -1    0    0    0  501 -0.00000000000E+00 -0.00000000000E+00 -0.90756383775E+02  0.90765269216E+02  0.12700000000E+01 0.  1.
         25    2    1    2    0    0  0.00000000000E+00  0.00000000000E+00 -0.47734054781E+02  0.13380633905E+03  0.12500238551E+03 0.  0.
    9000005    1    3    3    0    0  0.43097240492E+02  0.40209026631E+02 -0.46096468728E+02  0.74833297334E+02  0.10000000000E+01 0.  0.
    9000005    1    3    3    0    0 -0.43097240492E+02 -0.40209026631E+02 -0.16375860530E+01  0.58973041712E+02  0.10000000000E+01 0.  0.
<mgrwt>
<rscale>  0 0.12500239E+03</rscale>
<asrwt>0</asrwt>
<pdfrwt beam="1">  1        4 0.10759036E-01 0.12500239E+03</pdfrwt>
<pdfrwt beam="2">  1       -4 0.22692549E-01 0.12500239E+03</pdfrwt>
<totfact> 0.19360766E+03</totfact>
</mgrwt>
</event>
<event>
 5    1  0.1466870E-002  0.1249989E+03  0.7818608E-02  0.1235071E+00
          4   -1    0    0  501    0  0.00000000000E+00  0.00000000000E+00  0.40639135753E+02  0.40658975082E+02  0.12700000000E+01 0. -1.
         -4   -1    0    0    0  501 -0.00000000000E+00 -0.00000000000E+00 -0.96071173625E+02  0.96079567556E+02  0.12700000000E+01 0. -1.
         25    2    1    2    0    0  0.00000000000E+00  0.00000000000E+00 -0.55432037873E+02  0.13673854264E+03  0.12499887288E+03 0.  0.
    9000005    1    3    3    0    0 -0.52283358633E+02 -0.87099427658E+01 -0.63927303487E+02  0.83048858054E+02  0.10000000000E+01 0.  0.
    9000005    1    3    3    0    0  0.52283358633E+02  0.87099427658E+01  0.84952656148E+01  0.53689684584E+02  0.10000000000E+01 0.  0.
<mgrwt>
<rscale>  0 0.12499887E+03</rscale>
<asrwt>0</asrwt>
<pdfrwt beam="1">  1        4 0.10163313E-01 0.12499887E+03</pdfrwt>
<pdfrwt beam="2">  1       -4 0.24021322E-01 0.12499887E+03</pdfrwt>
<totfact> 0.19208962E+03</totfact>
</mgrwt>
</event>
<event>
 5    1  0.1466870E-002  0.1250005E+03  0.7818608E-02  0.1235069E+00
          4   -1    0    0  501    0  0.00000000000E+00  0.00000000000E+00  0.79164596961E+02  0.79174783309E+02  0.12700000000E+01 0.  1.
         -4   -1    0    0    0  501 -0.00000000000E+00 -0.00000000000E+00 -0.49322225888E+02  0.49338573819E+02  0.12700000000E+01 0.  1.
         25    2    1    2    0    0  0.00000000000E+00  0.00000000000E+00  0.29842371073E+02  0.12851335713E+03  0.12500046340E+03 0.  0.
    9000005    1    3    3    0    0  0.21024095734E+02  0.38444314948E+02 -0.30887710676E+02  0.53619293394E+02  0.10000000000E+01 0.  0.
    9000005    1    3    3    0    0 -0.21024095734E+02 -0.38444314948E+02  0.60730081749E+02  0.74894063734E+02  0.10000000000E+01 0.  0.
<mgrwt>
<rscale>  0 0.12500046E+03</rscale>
<asrwt>0</asrwt>
<pdfrwt beam="1">  1        4 0.19794466E-01 0.12500046E+03</pdfrwt>
<pdfrwt beam="2">  1       -4 0.12333873E-01 0.12500046E+03</pdfrwt>
<totfact> 0.19644436E+03</totfact>
</mgrwt>
</event>
<event>
 5    1  0.1466870E-002  0.1249962E+03  0.7818608E-02  0.1235075E+00
          4   -1    0    0  501    0  0.00000000000E+00  0.00000000000E+00  0.87405962824E+02  0.87415188825E+02  0.12700000000E+01 0.  1.
         -4   -1    0    0    0  501 -0.00000000000E+00 -0.00000000000E+00 -0.44667555883E+02  0.44685606727E+02  0.12700000000E+01 0.  1.
         25    2    1    2    0    0  0.00000000000E+00  0.00000000000E+00  0.42738406942E+02  0.13210079555E+03  0.12499619497E+03 0.  0.
    9000005    1    3    3    0    0  0.18499087728E+02  0.30295655772E+02  0.75721631364E+02  0.83634971524E+02  0.10000000000E+01 0.  0.
    9000005    1    3    3    0    0 -0.18499087728E+02 -0.30295655772E+02 -0.32983224422E+02  0.48465824028E+02  0.10000000000E+01 0.  0.
<mgrwt>
<rscale>  0 0.12499619E+03</rscale>
<asrwt>0</asrwt>
<pdfrwt beam="1">  1        4 0.21854900E-01 0.12499619E+03</pdfrwt>
<pdfrwt beam="2">  1       -4 0.11170299E-01 0.12499619E+03</pdfrwt>
<totfact> 0.19453823E+03</totfact>
</mgrwt>
</event>
<event>
 5    1  0.1466870E-002  0.1249947E+03  0.7818608E-02  0.1235078E+00
         -4   -1    0    0    0  501 -0.00000000000E+00  0.00000000000E+00  0.25430745782E+02  0.25462437649E+02  0.12700000000E+01 0. -1.
          4   -1    0    0  501    0  0.00000000000E+00 -0.00000000000E+00 -0.15346053370E+03  0.15346578871E+03  0.12700000000E+01 0. -1.
         25    2    1    2    0    0  0.00000000000E+00  0.00000000000E+00 -0.12802978792E+03  0.17892822636E+03  0.12499473426E+03 0.  0.
    9000005    1    3    3    0    0  0.46165282384E+02  0.25644751737E+02 -0.16193094676E+02  0.55245840607E+02  0.10000000000E+01 0.  0.
    9000005    1    3    3    0    0 -0.46165282384E+02 -0.25644751737E+02 -0.11183669324E+03  0.12368238575E+03  0.10000000000E+01 0.  0.
<mgrwt>
<rscale>  0 0.12499473E+03</rscale>
<asrwt>0</asrwt>
<pdfrwt beam="2">  1        4 0.38369749E-01 0.12499473E+03</pdfrwt>
<pdfrwt beam="1">  1       -4 0.63623052E-02 0.12499473E+03</pdfrwt>
<totfact> 0.17203806E+03</totfact>
</mgrwt>
</event>
<event>
 5    1  0.1466870E-002  0.1250007E+03  0.7818608E-02  0.1235068E+00
         -4   -1    0    0    0  501 -0.00000000000E+00  0.00000000000E+00  0.30402726465E+03  0.30402991720E+03  0.12700000000E+01 0. -1.
          4   -1    0    0  501    0  0.00000000000E+00 -0.00000000000E+00 -0.12814395510E+02  0.12877174857E+02  0.12700000000E+01 0. -1.
         25    2    1    2    0    0  0.00000000000E+00  0.00000000000E+00  0.29121286914E+03  0.31690709206E+03  0.12500067936E+03 0.  0.
    9000005    1    3    3    0    0 -0.24363321818E+02 -0.43565008722E+02  0.50279579142E+02  0.70855610318E+02  0.10000000000E+01 0.  0.
    9000005    1    3    3    0    0  0.24363321818E+02  0.43565008722E+02  0.24093329000E+03  0.24605148174E+03  0.10000000000E+01 0.  0.
<mgrwt>
<rscale>  0 0.12500068E+03</rscale>
<asrwt>0</asrwt>
<pdfrwt beam="2">  1        4 0.32117780E-02 0.12500068E+03</pdfrwt>
<pdfrwt beam="1">  1       -4 0.76014992E-01 0.12500068E+03</pdfrwt>
<totfact> 0.12509897E+03</totfact>
</mgrwt>
</event>
<event>
 5    1  0.1466870E-002  0.1249960E+03  0.7818608E-02  0.1235076E+00
         -4   -1    0    0    0  501 -0.00000000000E+00  0.00000000000E+00  0.13095649850E+02  0.13157087254E+02  0.12700000000E+01 0. -1.
          4   -1    0    0  501    0  0.00000000000E+00 -0.00000000000E+00 -0.29750594679E+03  0.29750865748E+03  0.12700000000E+01 0. -1.
         25    2    1    2    0    0  0.00000000000E+00  0.00000000000E+00 -0.28441029694E+03  0.31066574474E+03  0.12499595172E+03 0.  0.
    9000005    1    3    3    0    0  0.86354668627E+01  0.48802968800E+02 -0.23680403878E+03  0.24193687985E+03  0.10000000000E+01 0.  0.
    9000005    1    3    3    0    0 -0.86354668627E+01 -0.48802968800E+02 -0.47606258165E+02  0.68728864884E+02  0.10000000000E+01 0.  0.
<mgrwt>
<rscale>  0 0.12499595E+03</rscale>
<asrwt>0</asrwt>
<pdfrwt beam="2">  1        4 0.74384483E-01 0.12499595E+03</pdfrwt>
<pdfrwt beam="1">  1       -4 0.32819319E-02 0.12499595E+03</pdfrwt>
<totfact> 0.12678484E+03</totfact>
</mgrwt>
</event>
<event>
 5    1  0.1466870E-002  0.1249998E+03  0.7818608E-02  0.1235070E+00
         -4   -1    0    0    0  501 -0.00000000000E+00  0.00000000000E+00  0.32532206156E+03  0.32532454048E+03  0.12700000000E+01 0. -1.
          4   -1    0    0  501    0  0.00000000000E+00 -0.00000000000E+00 -0.11971171265E+02  0.12038348785E+02  0.12700000000E+01 0. -1.
         25    2    1    2    0    0  0.00000000000E+00  0.00000000000E+00  0.31335089029E+03  0.33736288926E+03  0.12499975441E+03 0.  0.
    9000005    1    3    3    0    0  0.52615476248E+02 -0.83497995979E+01  0.68510440695E+02  0.86791635417E+02  0.10000000000E+01 0.  0.
    9000005    1    3    3    0    0 -0.52615476248E+02  0.83497995979E+01  0.24484044960E+03  0.25057125385E+03  0.10000000000E+01 0.  0.
<mgrwt>
<rscale>  0 0.12499975E+03</rscale>
<asrwt>0</asrwt>
<pdfrwt beam="2">  1        4 0.30014999E-02 0.12499975E+03</pdfrwt>
<pdfrwt beam="1">  1       -4 0.81339223E-01 0.12499975E+03</pdfrwt>
<totfact> 0.11985003E+03</totfact>
</mgrwt>
</event>
<event>
 5    1  0.1466870E-002  0.1250040E+03  0.7818608E-02  0.1235063E+00
         -4   -1    0    0    0  501 -0.00000000000E+00  0.00000000000E+00  0.58340620578E+03  0.58340758809E+03  0.12700000000E+01 0. -1.
          4   -1    0    0  501    0  0.00000000000E+00 -0.00000000000E+00 -0.66343944005E+01  0.67548567018E+01  0.12700000000E+01 0. -1.
         25    2    1    2    0    0  0.00000000000E+00  0.00000000000E+00  0.57677181138E+03  0.59016244479E+03  0.12500395531E+03 0.  0.
    9000005    1    3    3    0    0  0.37232265969E+02 -0.29390980908E+01  0.51827670373E+02  0.63890432329E+02  0.10000000000E+01 0.  0.
    9000005    1    3    3    0    0 -0.37232265969E+02  0.29390980908E+01  0.52494414100E+03  0.52627201246E+03  0.10000000000E+01 0.  0.
<mgrwt>
<rscale>  0 0.12500396E+03</rscale>
<asrwt>0</asrwt>
<pdfrwt beam="2">  1        4 0.16738295E-02 0.12500396E+03</pdfrwt>
<pdfrwt beam="1">  1       -4 0.14586676E+00 0.12500396E+03</pdfrwt>
<totfact> 0.74748085E+02</totfact>
</mgrwt>
</event>
<event>
 5    1  0.1466870E-002  0.1250011E+03  0.7818608E-02  0.1235068E+00
         -4   -1    0    0    0  501 -0.00000000000E+00  0.00000000000E+00  0.10680305520E+02  0.10755548615E+02  0.12700000000E+01 0. -1.
          4   -1    0    0  501    0  0.00000000000E+00 -0.00000000000E+00 -0.36438956891E+03  0.36439178206E+03  0.12700000000E+01 0. -1.
         25    2    1    2    0    0  0.00000000000E+00  0.00000000000E+00 -0.35370926339E+03  0.37514733068E+03  0.12500110680E+03 0.  0.
    9000005    1    3    3    0    0 -0.28864479683E+02 -0.48166862669E+02 -0.25916033561E+03  0.26517594989E+03  0.10000000000E+01 0.  0.
    9000005    1    3    3    0    0  0.28864479683E+02  0.48166862669E+02 -0.94548927786E+02  0.10997138079E+03  0.10000000000E+01 0.  0.
<mgrwt>
<rscale>  0 0.12500111E+03</rscale>
<asrwt>0</asrwt>
<pdfrwt beam="2">  1        4 0.91107033E-01 0.12500111E+03</pdfrwt>
<pdfrwt beam="1">  1       -4 0.26797596E-02 0.12500111E+03</pdfrwt>
<totfact> 0.11099422E+03</totfact>
</mgrwt>
</event>
<event>
 5    1  0.1466870E-002  0.1249986E+03  0.7818608E-02  0.1235071E+00
         -4   -1    0    0    0  501 -0.00000000000E+00  0.00000000000E+00  0.17577802889E+03  0.17578261671E+03  0.12700000000E+01 0. -1.
          4   -1    0    0  501    0  0.00000000000E+00 -0.00000000000E+00 -0.22199118320E+02  0.22235416663E+02  0.12700000000E+01 0. -1.
         25    2    1    2    0    0  0.00000000000E+00  0.00000000000E+00  0.15357891057E+03  0.19801803338E+03  0.12499863908E+03 0.  0.
    9000005    1    3    3    0    0  0.27974562044E+02  0.21172976101E+01 -0.11670127541E+02  0.30401495811E+02  0.10000000000E+01 0.  0.
    9000005    1    3    3    0    0 -0.27974562044E+02 -0.21172976101E+01  0.16524903811E+03  0.16761653757E+03  0.10000000000E+01 0.  0.
<mgrwt>
<rscale>  0 0.12499864E+03</rscale>
<asrwt>0</asrwt>
<pdfrwt beam="2">  1        4 0.55548904E-02 0.12499864E+03</pdfrwt>
<pdfrwt beam="1">  1       -4 0.43949618E-01 0.12499864E+03</pdfrwt>
<totfact> 0.16402227E+03</totfact>
</mgrwt>
</event>
<event>
 5    1  0.1466870E-002  0.1249995E+03  0.7818608E-02  0.1235070E+00
          4   -1    0    0  501    0  0.00000000000E+00  0.00000000000E+00  0.38015402358E+02  0.38036610212E+02  0.12700000000E+01 0.  1.
         -4   -1    0    0    0  501 -0.00000000000E+00 -0.00000000000E+00 -0.10269984713E+03  0.10270769933E+03  0.12700000000E+01 0.  1.
         25    2    1    2    0    0  0.00000000000E+00  0.00000000000E+00 -0.64684444773E+02  0.14074430954E+03  0.12499953309E+03 0.  0.
    9000005    1    3    3    0    0  0.23967376863E+02  0.56709708791E+02 -0.20278449002E+02  0.64827785083E+02  0.10000000000E+01 0.  0.
    9000005    1    3    3    0    0 -0.23967376863E+02 -0.56709708791E+02 -0.44405995771E+02  0.75916524455E+02  0.10000000000E+01 0.  0.
<mgrwt>
<rscale>  0 0.12499953E+03</rscale>
<asrwt>0</asrwt>
<pdfrwt beam="1">  1        4 0.95074833E-02 0.12499953E+03</pdfrwt>
<pdfrwt beam="2">  1       -4 0.25678594E-01 0.12499953E+03</pdfrwt>
<totfact> 0.19002536E+03</totfact>
</mgrwt>
</event>
<event>
 5    1  0.1466870E-002  0.1250086E+03  0.7818608E-02  0.1235056E+00
         -4   -1    0    0    0  501 -0.00000000000E+00  0.00000000000E+00  0.94843387253E+02  0.94851889837E+02  0.12700000000E+01 0. -1.
          4   -1    0    0  501    0  0.00000000000E+00 -0.00000000000E+00 -0.41171844853E+02  0.41191427611E+02  0.12700000000E+01 0. -1.
         25    2    1    2    0    0  0.00000000000E+00  0.00000000000E+00  0.53671542400E+02  0.13604331745E+03  0.12500859874E+03 0.  0.
    9000005    1    3    3    0    0 -0.43898438972E+02  0.26421578005E+02 -0.12108768038E+02  0.52657335594E+02  0.10000000000E+01 0.  0.
    9000005    1    3    3    0    0  0.43898438972E+02 -0.26421578005E+02  0.65780310438E+02  0.83385981854E+02  0.10000000000E+01 0.  0.
<mgrwt>
<rscale>  0 0.12500860E+03</rscale>
<asrwt>0</asrwt>
<pdfrwt beam="2">  1        4 0.10296472E-01 0.12500860E+03</pdfrwt>
<pdfrwt beam="1">  1       -4 0.23714357E-01 0.12500860E+03</pdfrwt>
<totfact> 0.19240768E+03</totfact>
</mgrwt>
</event>
<event>
 5    1  0.1466870E-002  0.1250095E+03  0.7818608E-02  0.1235054E+00
         -4   -1    0    0    0  501 -0.00000000000E+00  0.00000000000E+00  0.15280855691E+02  0.15333540056E+02  0.12700000000E+01 0.  1.
          4   -1    0    0  501    0  0.00000000000E+00 -0.00000000000E+00 -0.25517500858E+03  0.25517816894E+03  0.12700000000E+01 0.  1.
         25    2    1    2    0    0  0.00000000000E+00  0.00000000000E+00 -0.23989415289E+03  0.27051170900E+03  0.12500952009E+03 0.  0.
    9000005    1    3    3    0    0  0.18534584715E+02  0.10503727131E+02 -0.24708569483E+03  0.24800443485E+03  0.10000000000E+01 0.  0.
    9000005    1    3    3    0    0 -0.18534584715E+02 -0.10503727131E+02  0.71915419404E+01  0.22507274150E+02  0.10000000000E+01 0.  0.
<mgrwt>
<rscale>  0 0.12500952E+03</rscale>
<asrwt>0</asrwt>
<pdfrwt beam="2">  1        4 0.63800719E-01 0.12500952E+03</pdfrwt>
<pdfrwt beam="1">  1       -4 0.38271953E-02 0.12500952E+03</pdfrwt>
<totfact> 0.13836695E+03</totfact>
</mgrwt>
</event>
<event>
 5    1  0.1466870E-002  0.1250004E+03  0.7818608E-02  0.1235069E+00
         -4   -1    0    0    0  501 -0.00000000000E+00  0.00000000000E+00  0.83931344803E+02  0.83940952701E+02  0.12700000000E+01 0. -1.
          4   -1    0    0  501    0  0.00000000000E+00 -0.00000000000E+00 -0.46520361218E+02  0.46537693410E+02  0.12700000000E+01 0. -1.
         25    2    1    2    0    0  0.00000000000E+00  0.00000000000E+00  0.37410983584E+02  0.13047864611E+03  0.12500038159E+03 0.  0.
    9000005    1    3    3    0    0  0.50715102209E+02  0.36005279642E+02  0.12367130188E+02  0.63421980916E+02  0.10000000000E+01 0.  0.
    9000005    1    3    3    0    0 -0.50715102209E+02 -0.36005279642E+02  0.25043853396E+02  0.67056665195E+02  0.10000000000E+01 0.  0.
<mgrwt>
<rscale>  0 0.12500038E+03</rscale>
<asrwt>0</asrwt>
<pdfrwt beam="2">  1        4 0.11633458E-01 0.12500038E+03</pdfrwt>
<pdfrwt beam="1">  1       -4 0.20986204E-01 0.12500038E+03</pdfrwt>
<totfact> 0.19538512E+03</totfact>
</mgrwt>
</event>
<event>
 5    1  0.1466870E-002  0.1249699E+03  0.7818608E-02  0.1235116E+00
         -4   -1    0    0    0  501 -0.00000000000E+00  0.00000000000E+00  0.12300573691E+03  0.12301229293E+03  0.12700000000E+01 0. -1.
          4   -1    0    0  501    0  0.00000000000E+00 -0.00000000000E+00 -0.31721233077E+02  0.31746645931E+02  0.12700000000E+01 0. -1.
         25    2    1    2    0    0  0.00000000000E+00  0.00000000000E+00  0.91284503833E+02  0.15475893886E+03  0.12496987044E+03 0.  0.
    9000005    1    3    3    0    0  0.24651481846E+02 -0.48230218515E+02  0.84201474664E+02  0.10012361295E+03  0.10000000000E+01 0.  0.
    9000005    1    3    3    0    0 -0.24651481846E+02  0.48230218515E+02  0.70830291681E+01  0.54635325911E+02  0.10000000000E+01 0.  0.
<mgrwt>
<rscale>  0 0.12496987E+03</rscale>
<asrwt>0</asrwt>
<pdfrwt beam="2">  1        4 0.79343044E-02 0.12496987E+03</pdfrwt>
<pdfrwt beam="1">  1       -4 0.30755430E-01 0.12496987E+03</pdfrwt>
<totfact> 0.18320066E+03</totfact>
</mgrwt>
</event>
<event>
 5    1  0.1466870E-002  0.1249983E+03  0.7818608E-02  0.1235072E+00
          4   -1    0    0  501    0  0.00000000000E+00  0.00000000000E+00  0.34736896203E+03  0.34737128362E+03  0.12700000000E+01 0. -1.
         -4   -1    0    0    0  501 -0.00000000000E+00 -0.00000000000E+00 -0.11206716310E+02  0.11278448052E+02  0.12700000000E+01 0. -1.
         25    2    1    2    0    0  0.00000000000E+00  0.00000000000E+00  0.33616224572E+03  0.35864973167E+03  0.12499829830E+03 0.  0.
    9000005    1    3    3    0    0 -0.32390278440E+02  0.52903846773E+02  0.14638155167E+03  0.15898586670E+03  0.10000000000E+01 0.  0.
    9000005    1    3    3    0    0  0.32390278440E+02 -0.52903846773E+02  0.18978069405E+03  0.19966386497E+03  0.10000000000E+01 0.  0.
<mgrwt>
<rscale>  0 0.12499830E+03</rscale>
<asrwt>0</asrwt>
<pdfrwt beam="1">  1        4 0.86851495E-01 0.12499830E+03</pdfrwt>
<pdfrwt beam="2">  1       -4 0.28109358E-02 0.12499830E+03</pdfrwt>
<totfact> 0.11474149E+03</totfact>
</mgrwt>
</event>
<event>
 5    1  0.1466870E-002  0.1249988E+03  0.7818608E-02  0.1235071E+00
          4   -1    0    0  501    0  0.00000000000E+00  0.00000000000E+00  0.84873165743E+01  0.85818088205E+01  0.12700000000E+01 0.  1.
         -4   -1    0    0    0  501 -0.00000000000E+00 -0.00000000000E+00 -0.45759386119E+03  0.45759562356E+03  0.12700000000E+01 0.  1.
         25    2    1    2    0    0  0.00000000000E+00  0.00000000000E+00 -0.44910654461E+03  0.46617743238E+03  0.12499884016E+03 0.  0.
    9000005    1    3    3    0    0  0.19376034945E+02 -0.58538845274E+02 -0.18671256661E+03  0.19663369413E+03  0.10000000000E+01 0.  0.
    9000005    1    3    3    0    0 -0.19376034945E+02  0.58538845274E+02 -0.26239397800E+03  0.26954373824E+03  0.10000000000E+01 0.  0.
<mgrwt>
<rscale>  0 0.12499884E+03</rscale>
<asrwt>0</asrwt>
<pdfrwt beam="1">  1        4 0.21338625E-02 0.12499884E+03</pdfrwt>
<pdfrwt beam="2">  1       -4 0.11441041E+00 0.12499884E+03</pdfrwt>
<totfact> 0.93185922E+02</totfact>
</mgrwt>
</event>
<event>
 5    1  0.1466870E-002  0.1249993E+03  0.7818608E-02  0.1235070E+00
         -4   -1    0    0    0  501 -0.00000000000E+00  0.00000000000E+00  0.16066380338E+03  0.16066882279E+03  0.12700000000E+01 0. -1.
          4   -1    0    0  501    0  0.00000000000E+00 -0.00000000000E+00 -0.24290921884E+02  0.24324098873E+02  0.12700000000E+01 0. -1.
         25    2    1    2    0    0  0.00000000000E+00  0.00000000000E+00  0.13637288150E+03  0.18499292166E+03  0.12499927303E+03 0.  0.
    9000005    1    3    3    0    0 -0.38220228970E+02  0.38951019407E+02  0.11325181084E+03  0.12571770151E+03  0.10000000000E+01 0.  0.
    9000005    1    3    3    0    0  0.38220228970E+02 -0.38951019407E+02  0.23121070656E+02  0.59275220148E+02  0.10000000000E+01 0.  0.
<mgrwt>
<rscale>  0 0.12499927E+03</rscale>
<asrwt>0</asrwt>
<pdfrwt beam="2">  1        4 0.60775050E-02 0.12499927E+03</pdfrwt>
<pdfrwt beam="1">  1       -4 0.40170726E-01 0.12499927E+03</pdfrwt>
<totfact> 0.16941410E+03</totfact>
</mgrwt>
</event>
<event>
 5    1  0.1466870E-002  0.1249991E+03  0.7818608E-02  0.1235071E+00
          4   -1    0    0  501    0  0.00000000000E+00  0.00000000000E+00  0.90862809172E+02  0.90871684207E+02  0.12700000000E+01 0. -1.
         -4   -1    0    0    0  501 -0.00000000000E+00 -0.00000000000E+00 -0.42969666531E+02  0.42988430325E+02  0.12700000000E+01 0. -1.
         25    2    1    2    0    0  0.00000000000E+00  0.00000000000E+00  0.47893142640E+02  0.13386011453E+03  0.12499910860E+03 0.  0.
    9000005    1    3    3    0    0  0.46407432797E+02  0.40008584545E+02  0.10793477471E+02  0.62224077429E+02  0.10000000000E+01 0.  0.
    9000005    1    3    3    0    0 -0.46407432797E+02 -0.40008584545E+02  0.37099665170E+02  0.71636037102E+02  0.10000000000E+01 0.  0.
<mgrwt>
<rscale>  0 0.12499911E+03</rscale>
<asrwt>0</asrwt>
<pdfrwt beam="1">  1        4 0.22719157E-01 0.12499911E+03</pdfrwt>
<pdfrwt beam="2">  1       -4 0.10745872E-01 0.12499911E+03</pdfrwt>
<totfact> 0.19359413E+03</totfact>
</mgrwt>
</event>
<event>
 5    1  0.1466870E-002  0.1250049E+03  0.7818608E-02  0.1235062E+00
         -4   -1    0    0    0  501 -0.00000000000E+00  0.00000000000E+00  0.10353486223E+03  0.10354265110E+03  0.12700000000E+01 0. -1.
          4   -1    0    0  501    0  0.00000000000E+00 -0.00000000000E+00 -0.37711918569E+02  0.37733296995E+02  0.12700000000E+01 0. -1.
         25    2    1    2    0    0  0.00000000000E+00  0.00000000000E+00  0.65822943659E+02  0.14127594809E+03  0.12500493429E+03 0.  0.
    9000005    1    3    3    0    0 -0.81554108246E+01 -0.49286667146E+02 -0.95241856059E+01  0.50866456487E+02  0.10000000000E+01 0.  0.
    9000005    1    3    3    0    0  0.81554108246E+01  0.49286667146E+02  0.75347129265E+02  0.90409491607E+02  0.10000000000E+01 0.  0.
<mgrwt>
<rscale>  0 0.12500493E+03</rscale>
<asrwt>0</asrwt>
<pdfrwt beam="2">  1        4 0.94316256E-02 0.12500493E+03</pdfrwt>
<pdfrwt beam="1">  1       -4 0.25887361E-01 0.12500493E+03</pdfrwt>
<totfact> 0.18973073E+03</totfact>
</mgrwt>
</event>
<event>
 5    1  0.1466870E-002  0.1250015E+03  0.7818608E-02  0.1235067E+00
         -4   -1    0    0    0  501 -0.00000000000E+00  0.00000000000E+00  0.14074568478E+02  0.14131750700E+02  0.12700000000E+01 0. -1.
          4   -1    0    0  501    0  0.00000000000E+00 -0.00000000000E+00 -0.27692487939E+03  0.27692779153E+03  0.12700000000E+01 0. -1.
         25    2    1    2    0    0  0.00000000000E+00  0.00000000000E+00 -0.26285031091E+03  0.29105954223E+03  0.12500148471E+03 0.  0.
    9000005    1    3    3    0    0 -0.25494717692E+02  0.46890542355E+02 -0.55736632476E+02  0.77176912301E+02  0.10000000000E+01 0.  0.
    9000005    1    3    3    0    0  0.25494717692E+02 -0.46890542355E+02 -0.20711367843E+03  0.21388262993E+03  0.10000000000E+01 0.  0.
<mgrwt>
<rscale>  0 0.12500148E+03</rscale>
<asrwt>0</asrwt>
<pdfrwt beam="2">  1        4 0.69238714E-01 0.12500148E+03</pdfrwt>
<pdfrwt beam="1">  1       -4 0.35261548E-02 0.12500148E+03</pdfrwt>
<totfact> 0.13224932E+03</totfact>
</mgrwt>
</event>
<event>
 5    1  0.1466870E-002  0.1250009E+03  0.7818608E-02  0.1235068E+00
         -4   -1    0    0    0  501 -0.00000000000E+00  0.00000000000E+00  0.39360208897E+02  0.39380692534E+02  0.12700000000E+01 0.  1.
          4   -1    0    0  501    0  0.00000000000E+00 -0.00000000000E+00 -0.99194641866E+02  0.99202771508E+02  0.12700000000E+01 0.  1.
         25    2    1    2    0    0  0.00000000000E+00  0.00000000000E+00 -0.59834432969E+02  0.13858346404E+03  0.12500086855E+03 0.  0.
    9000005    1    3    3    0    0  0.37165065874E+02  0.42974220837E+02 -0.10648108812E+01  0.56834493050E+02  0.10000000000E+01 0.  0.
    9000005    1    3    3    0    0 -0.37165065874E+02 -0.42974220837E+02 -0.58769622088E+02  0.81748970992E+02  0.10000000000E+01 0.  0.
<mgrwt>
<rscale>  0 0.12500087E+03</rscale>
<asrwt>0</asrwt>
<pdfrwt beam="2">  1        4 0.24802237E-01 0.12500087E+03</pdfrwt>
<pdfrwt beam="1">  1       -4 0.98436291E-02 0.12500087E+03</pdfrwt>
<totfact> 0.19112659E+03</totfact>
</mgrwt>
</event>
<event>
 5    1  0.1466870E-002  0.1250006E+03  0.7818608E-02  0.1235068E+00
          4   -1    0    0  501    0  0.00000000000E+00  0.00000000000E+00  0.27209764473E+02  0.27239386606E+02  0.12700000000E+01 0.  1.
         -4   -1    0    0    0  501 -0.00000000000E+00 -0.00000000000E+00 -0.14345141654E+03  0.14345703820E+03  0.12700000000E+01 0.  1.
         25    2    1    2    0    0  0.00000000000E+00  0.00000000000E+00 -0.11624165207E+03  0.17069642480E+03  0.12500059106E+03 0.  0.
    9000005    1    3    3    0    0 -0.50421227200E+02  0.33666033700E+02 -0.37429702239E+02  0.71257873861E+02  0.10000000000E+01 0.  0.
    9000005    1    3    3    0    0  0.50421227200E+02 -0.33666033700E+02 -0.78811949832E+02  0.99438550944E+02  0.10000000000E+01 0.  0.
<mgrwt>
<rscale>  0 0.12500059E+03</rscale>
<asrwt>0</asrwt>
<pdfrwt beam="1">  1        4 0.68068470E-02 0.12500059E+03</pdfrwt>
<pdfrwt beam="2">  1       -4 0.35867258E-01 0.12500059E+03</pdfrwt>
<totfact> 0.17565440E+03</totfact>
</mgrwt>
</event>
<event>
 5    1  0.1466870E-002  0.1249992E+03  0.7818608E-02  0.1235070E+00
         -4   -1    0    0    0  501 -0.00000000000E+00  0.00000000000E+00  0.21067353475E+03  0.21067736268E+03  0.12700000000E+01 0.  1.
          4   -1    0    0  501    0  0.00000000000E+00 -0.00000000000E+00 -0.18515750166E+02  0.18559253870E+02  0.12700000000E+01 0.  1.
         25    2    1    2    0    0  0.00000000000E+00  0.00000000000E+00  0.19215778458E+03  0.22923661655E+03  0.12499924875E+03 0.  0.
    9000005    1    3    3    0    0 -0.15690908616E+02 -0.51242456886E+02  0.37130673482E+02  0.65204914800E+02  0.10000000000E+01 0.  0.
    9000005    1    3    3    0    0  0.15690908616E+02  0.51242456886E+02  0.15502711110E+03  0.16403170175E+03  0.10000000000E+01 0.  0.
<mgrwt>
<rscale>  0 0.12499925E+03</rscale>
<asrwt>0</asrwt>
<pdfrwt beam="2">  1        4 0.46348540E-02 0.12499925E+03</pdfrwt>
<pdfrwt beam="1">  1       -4 0.52674301E-01 0.12499925E+03</pdfrwt>
<totfact> 0.15214891E+03</totfact>
</mgrwt>
</event>
<event>
 5    1  0.1466870E-002  0.1250046E+03  0.7818608E-02  0.1235062E+00
         -4   -1    0    0    0  501 -0.00000000000E+00  0.00000000000E+00  0.61759054104E+02  0.61772110729E+02  0.12700000000E+01 0. -1.
          4   -1    0    0  501    0  0.00000000000E+00 -0.00000000000E+00 -0.63228348221E+02  0.63241101499E+02  0.12700000000E+01 0. -1.
         25    2    1    2    0    0  0.00000000000E+00  0.00000000000E+00 -0.14692941170E+01  0.12501321223E+03  0.12500457754E+03 0.  0.
    9000005    1    3    3    0    0  0.56723438058E+02 -0.79236543120E+01 -0.25740441458E+02  0.62800501983E+02  0.10000000000E+01 0.  0.
    9000005    1    3    3    0    0 -0.56723438058E+02  0.79236543120E+01  0.24271147341E+02  0.62212710245E+02  0.10000000000E+01 0.  0.
<mgrwt>
<rscale>  0 0.12500458E+03</rscale>
<asrwt>0</asrwt>
<pdfrwt beam="2">  1        4 0.15810313E-01 0.12500458E+03</pdfrwt>
<pdfrwt beam="1">  1       -4 0.15442990E-01 0.12500458E+03</pdfrwt>
<totfact> 0.19832215E+03</totfact>
</mgrwt>
</event>
<event>
 5    1  0.1466870E-002  0.1250011E+03  0.7818608E-02  0.1235068E+00
          4   -1    0    0  501    0  0.00000000000E+00  0.00000000000E+00  0.37335356263E+02  0.37356950187E+02  0.12700000000E+01 0. -1.
         -4   -1    0    0    0  501 -0.00000000000E+00 -0.00000000000E+00 -0.10457223275E+03  0.10457994436E+03  0.12700000000E+01 0. -1.
         25    2    1    2    0    0  0.00000000000E+00  0.00000000000E+00 -0.67236876486E+02  0.14193689455E+03  0.12500113789E+03 0.  0.
    9000005    1    3    3    0    0  0.49194991128E+02 -0.22301228441E+02 -0.69306442105E+02  0.87874199053E+02  0.10000000000E+01 0.  0.
    9000005    1    3    3    0    0 -0.49194991128E+02  0.22301228441E+02  0.20695656191E+01  0.54062695493E+02  0.10000000000E+01 0.  0.
<mgrwt>
<rscale>  0 0.12500114E+03</rscale>
<asrwt>0</asrwt>
<pdfrwt beam="1">  1        4 0.93375025E-02 0.12500114E+03</pdfrwt>
<pdfrwt beam="2">  1       -4 0.26146721E-01 0.12500114E+03</pdfrwt>
<totfact> 0.18941186E+03</totfact>
</mgrwt>
</event>
<event>
 5    1  0.1466870E-002  0.1249991E+03  0.7818608E-02  0.1235071E+00
          4   -1    0    0  501    0  0.00000000000E+00  0.00000000000E+00  0.30968769000E+02  0.30994798812E+02  0.12700000000E+01 0. -1.
         -4   -1    0    0    0  501 -0.00000000000E+00 -0.00000000000E+00 -0.12605114480E+03  0.12605754244E+03  0.12700000000E+01 0. -1.
         25    2    1    2    0    0  0.00000000000E+00  0.00000000000E+00 -0.95082375802E+02  0.15705234125E+03  0.12499911881E+03 0.  0.
    9000005    1    3    3    0    0 -0.60127603964E+01 -0.12342940002E+02  0.29056530910E+02  0.32152502920E+02  0.10000000000E+01 0.  0.
    9000005    1    3    3    0    0  0.60127603964E+01  0.12342940002E+02 -0.12413890671E+03  0.12489983833E+03  0.10000000000E+01 0.  0.
<mgrwt>
<rscale>  0 0.12499912E+03</rscale>
<asrwt>0</asrwt>
<pdfrwt beam="1">  1        4 0.77462460E-02 0.12499912E+03</pdfrwt>
<pdfrwt beam="2">  1       -4 0.31516838E-01 0.12499912E+03</pdfrwt>
<totfact> 0.18197737E+03</totfact>
</mgrwt>
</event>
<event>
 5    1  0.1466870E-002  0.1249977E+03  0.7818608E-02  0.1235073E+00
          4   -1    0    0  501    0  0.00000000000E+00  0.00000000000E+00  0.15996218896E+03  0.15996723039E+03  0.12700000000E+01 0. -1.
         -4   -1    0    0    0  501 -0.00000000000E+00 -0.00000000000E+00 -0.24396987676E+02  0.24430020623E+02  0.12700000000E+01 0. -1.
         25    2    1    2    0    0  0.00000000000E+00  0.00000000000E+00  0.13556520129E+03  0.18439725101E+03  0.12499768950E+03 0.  0.
    9000005    1    3    3    0    0 -0.40384865527E+02  0.44638391048E+02  0.43028046168E+02  0.73999568080E+02  0.10000000000E+01 0.  0.
    9000005    1    3    3    0    0  0.40384865527E+02 -0.44638391048E+02  0.92537155120E+02  0.11039768293E+03  0.10000000000E+01 0.  0.
<mgrwt>
<rscale>  0 0.12499769E+03</rscale>
<asrwt>0</asrwt>
<pdfrwt beam="1">  1        4 0.39995306E-01 0.12499769E+03</pdfrwt>
<pdfrwt beam="2">  1       -4 0.61040062E-02 0.12499769E+03</pdfrwt>
<totfact> 0.16967380E+03</totfact>
</mgrwt>
</event>
<event>
 5    1  0.1466870E-002  0.1250041E+03  0.7818608E-02  0.1235063E+00
          4   -1    0    0  501    0  0.00000000000E+00  0.00000000000E+00  0.11992545888E+02  0.12059604341E+02  0.12700000000E+01 0.  1.
         -4   -1    0    0    0  501 -0.00000000000E+00 -0.00000000000E+00 -0.32476804739E+03  0.32477053053E+03  0.12700000000E+01 0.  1.
         25    2    1    2    0    0  0.00000000000E+00  0.00000000000E+00 -0.31277550150E+03  0.33683013488E+03  0.12500410162E+03 0.  0.
    9000005    1    3    3    0    0 -0.60171553264E+02 -0.74479270528E+01 -0.11557449059E+03  0.13051647526E+03  0.10000000000E+01 0.  0.
    9000005    1    3    3    0    0  0.60171553264E+02  0.74479270528E+01 -0.19720101091E+03  0.20631365961E+03  0.10000000000E+01 0.  0.
<mgrwt>
<rscale>  0 0.12500410E+03</rscale>
<asrwt>0</asrwt>
<pdfrwt beam="1">  1        4 0.30068302E-02 0.12500410E+03</pdfrwt>
<pdfrwt beam="2">  1       -4 0.81200676E-01 0.12500410E+03</pdfrwt>
<totfact> 0.11997063E+03</totfact>
</mgrwt>
</event>
<event>
 5    1  0.1466870E-002  0.1249994E+03  0.7818608E-02  0.1235070E+00
         -4   -1    0    0    0  501 -0.00000000000E+00  0.00000000000E+00  0.20933034885E+02  0.20971524730E+02  0.12700000000E+01 0. -1.
          4   -1    0    0  501    0  0.00000000000E+00 -0.00000000000E+00 -0.18639322553E+03  0.18639755208E+03  0.12700000000E+01 0. -1.
         25    2    1    2    0    0  0.00000000000E+00  0.00000000000E+00 -0.16546019064E+03  0.20736907681E+03  0.12499943732E+03 0.  0.
    9000005    1    3    3    0    0 -0.28302350810E+02  0.22912820072E+02  0.15214700661E+01  0.36460050140E+02  0.10000000000E+01 0.  0.
    9000005    1    3    3    0    0  0.28302350810E+02 -0.22912820072E+02 -0.16698166071E+03  0.17090902667E+03  0.10000000000E+01 0.  0.
<mgrwt>
<rscale>  0 0.12499944E+03</rscale>
<asrwt>0</asrwt>
<pdfrwt beam="2">  1        4 0.46603653E-01 0.12499944E+03</pdfrwt>
<pdfrwt beam="1">  1       -4 0.52386113E-02 0.12499944E+03</pdfrwt>
<totfact> 0.16031373E+03</totfact>
</mgrwt>
</event>
<event>
 5    1  0.1466870E-002  0.1249853E+03  0.7818608E-02  0.1235092E+00
         -4   -1    0    0    0  501 -0.00000000000E+00  0.00000000000E+00  0.80684449637E+02  0.80694444129E+02  0.12700000000E+01 0.  1.
          4   -1    0    0  501    0  0.00000000000E+00 -0.00000000000E+00 -0.48381225717E+02  0.48397891502E+02  0.12700000000E+01 0.  1.
         25    2    1    2    0    0  0.00000000000E+00  0.00000000000E+00  0.32303223921E+02  0.12909233563E+03  0.12498533051E+03 0.  0.
    9000005    1    3    3    0    0 -0.60653654459E+02  0.87869901584E+01  0.35754572797E+01  0.61399192910E+02  0.10000000000E+01 0.  0.
    9000005    1    3    3    0    0  0.60653654459E+02 -0.87869901584E+01  0.28727766641E+02  0.67693142721E+02  0.10000000000E+01 0.  0.
<mgrwt>
<rscale>  0 0.12498533E+03</rscale>
<asrwt>0</asrwt>
<pdfrwt beam="2">  1        4 0.12098639E-01 0.12498533E+03</pdfrwt>
<pdfrwt beam="1">  1       -4 0.20174445E-01 0.12498533E+03</pdfrwt>
<totfact> 0.19620021E+03</totfact>
</mgrwt>
</event>
<event>
 5    1  0.1466870E-002  0.1249955E+03  0.7818608E-02  0.1235076E+00
          4   -1    0    0  501    0  0.00000000000E+00  0.00000000000E+00  0.10885932750E+02  0.10959764223E+02  0.12700000000E+01 0. -1.
         -4   -1    0    0    0  501 -0.00000000000E+00 -0.00000000000E+00 -0.35752110443E+03  0.35752336010E+03  0.12700000000E+01 0. -1.
         25    2    1    2    0    0  0.00000000000E+00  0.00000000000E+00 -0.34663517168E+03  0.36848312432E+03  0.12499548256E+03 0.  0.
    9000005    1    3    3    0    0  0.59696535742E+02 -0.15676437732E+02 -0.20213249369E+03  0.21134798813E+03  0.10000000000E+01 0.  0.
    9000005    1    3    3    0    0 -0.59696535742E+02  0.15676437732E+02 -0.14450267799E+03  0.15713513619E+03  0.10000000000E+01 0.  0.
<mgrwt>
<rscale>  0 0.12499548E+03</rscale>
<asrwt>0</asrwt>
<pdfrwt beam="1">  1        4 0.27309953E-02 0.12499548E+03</pdfrwt>
<pdfrwt beam="2">  1       -4 0.89389748E-01 0.12499548E+03</pdfrwt>
<totfact> 0.11249738E+03</totfact>
</mgrwt>
</event>
<event>
 5    1  0.1466870E-002  0.1249996E+03  0.7818608E-02  0.1235070E+00
          4   -1    0    0  501    0  0.00000000000E+00  0.00000000000E+00  0.77717176269E+02  0.77727552304E+02  0.12700000000E+01 0. -1.
         -4   -1    0    0    0  501 -0.00000000000E+00 -0.00000000000E+00 -0.50240332811E+02  0.50256382092E+02  0.12700000000E+01 0. -1.
         25    2    1    2    0    0  0.00000000000E+00  0.00000000000E+00  0.27476843457E+02  0.12798393440E+03  0.12499964215E+03 0.  0.
    9000005    1    3    3    0    0  0.56377440332E+02 -0.25850269342E+02  0.21574602265E+02  0.65674315119E+02  0.10000000000E+01 0.  0.
    9000005    1    3    3    0    0 -0.56377440332E+02  0.25850269342E+02  0.59022411919E+01  0.62309619277E+02  0.10000000000E+01 0.  0.
<mgrwt>
<rscale>  0 0.12499964E+03</rscale>
<asrwt>0</asrwt>
<pdfrwt beam="1">  1        4 0.19432597E-01 0.12499964E+03</pdfrwt>
<pdfrwt beam="2">  1       -4 0.12563386E-01 0.12499964E+03</pdfrwt>
<totfact> 0.19673572E+03</totfact>
</mgrwt>
</event>
<event>
 5    1  0.1466870E-002  0.1250033E+03  0.7818608E-02  0.1235064E+00
         -4   -1    0    0    0  501 -0.00000000000E+00  0.00000000000E+00  0.11035555560E+02  0.11108392617E+02  0.12700000000E+01 0. -1.
          4   -1    0    0  501    0  0.00000000000E+00 -0.00000000000E+00 -0.35275000416E+03  0.35275229033E+03  0.12700000000E+01 0. -1.
         25    2    1    2    0    0  0.00000000000E+00  0.00000000000E+00 -0.34171444860E+03  0.36386068295E+03  0.12500332881E+03 0.  0.
    9000005    1    3    3    0    0 -0.29908478317E+02  0.42941247243E+02 -0.27029403084E+03  0.27531496672E+03  0.10000000000E+01 0.  0.
    9000005    1    3    3    0    0  0.29908478317E+02 -0.42941247243E+02 -0.71420417754E+02  0.88545716227E+02  0.10000000000E+01 0.  0.
<mgrwt>
<rscale>  0 0.12500333E+03</rscale>
<asrwt>0</asrwt>
<pdfrwt beam="2">  1        4 0.88196854E-01 0.12500333E+03</pdfrwt>
<pdfrwt beam="1">  1       -4 0.27682805E-02 0.12500333E+03</pdfrwt>
<totfact> 0.11352721E+03</totfact>
</mgrwt>
</event>
<event>
 5    1  0.1466870E-002  0.1250017E+03  0.7818608E-02  0.1235067E+00
          4   -1    0    0  501    0  0.00000000000E+00  0.00000000000E+00  0.42111855649E+02  0.42131001486E+02  0.12700000000E+01 0.  1.
         -4   -1    0    0    0  501 -0.00000000000E+00 -0.00000000000E+00 -0.92716908713E+02  0.92725606287E+02  0.12700000000E+01 0.  1.
         25    2    1    2    0    0  0.00000000000E+00  0.00000000000E+00 -0.50605053064E+02  0.13485660777E+03  0.12500173305E+03 0.  0.
    9000005    1    3    3    0    0 -0.26860593067E+02  0.39936742658E+02  0.17701357607E+02  0.51291060968E+02  0.10000000000E+01 0.  0.
    9000005    1    3    3    0    0  0.26860593067E+02 -0.39936742658E+02 -0.68306410671E+02  0.83565546805E+02  0.10000000000E+01 0.  0.
<mgrwt>
<rscale>  0 0.12500173E+03</rscale>
<asrwt>0</asrwt>
<pdfrwt beam="1">  1        4 0.10531445E-01 0.12500173E+03</pdfrwt>
<pdfrwt beam="2">  1       -4 0.23182707E-01 0.12500173E+03</pdfrwt>
<totfact> 0.19305870E+03</totfact>
</mgrwt>
</event>
<event>
 5    1  0.1466870E-002  0.1249997E+03  0.7818608E-02  0.1235070E+00
         -4   -1    0    0    0  501 -0.00000000000E+00  0.00000000000E+00  0.15535642458E+03  0.15536161546E+03  0.12700000000E+01 0.  1.
          4   -1    0    0  501    0  0.00000000000E+00 -0.00000000000E+00 -0.25122002210E+02  0.25154083069E+02  0.12700000000E+01 0.  1.
         25    2    1    2    0    0  0.00000000000E+00  0.00000000000E+00  0.13023442237E+03  0.18051569853E+03  0.12499965058E+03 0.  0.
    9000005    1    3    3    0    0 -0.14744733907E+02  0.24410500971E+02 -0.15184037359E+02  0.32323903325E+02  0.10000000000E+01 0.  0.
    9000005    1    3    3    0    0  0.14744733907E+02 -0.24410500971E+02  0.14541845973E+03  0.14819179520E+03  0.10000000000E+01 0.  0.
<mgrwt>
<rscale>  0 0.12499965E+03</rscale>
<asrwt>0</asrwt>
<pdfrwt beam="2">  1        4 0.62851595E-02 0.12499965E+03</pdfrwt>
<pdfrwt beam="1">  1       -4 0.38843765E-01 0.12499965E+03</pdfrwt>
<totfact> 0.17133054E+03</totfact>
</mgrwt>
</event>
<event>
 5    1  0.1466870E-002  0.1249937E+03  0.7818608E-02  0.1235079E+00
         -4   -1    0    0    0  501 -0.00000000000E+00  0.00000000000E+00  0.97018328726E+02  0.97026640717E+02  0.12700000000E+01 0. -1.
          4   -1    0    0  501    0  0.00000000000E+00 -0.00000000000E+00 -0.40238910509E+02  0.40258947067E+02  0.12700000000E+01 0. -1.
         25    2    1    2    0    0  0.00000000000E+00  0.00000000000E+00  0.56779418217E+02  0.13728558778E+03  0.12499372096E+03 0.  0.
    9000005    1    3    3    0    0 -0.15404566947E+02 -0.32461798691E+02 -0.27763162826E+02  0.45418743567E+02  0.10000000000E+01 0.  0.
    9000005    1    3    3    0    0  0.15404566947E+02  0.32461798691E+02  0.84542581043E+02  0.91866844218E+02  0.10000000000E+01 0.  0.
<mgrwt>
<rscale>  0 0.12499372E+03</rscale>
<asrwt>0</asrwt>
<pdfrwt beam="2">  1        4 0.10063271E-01 0.12499372E+03</pdfrwt>
<pdfrwt beam="1">  1       -4 0.24258126E-01 0.12499372E+03</pdfrwt>
<totfact> 0.19182890E+03</totfact>
</mgrwt>
</event>
<event>
 5    1  0.1466870E-002  0.1250004E+03  0.7818608E-02  0.1235069E+00
         -4   -1    0    0    0  501 -0.00000000000E+00  0.00000000000E+00  0.86104119695E+01  0.87035679054E+01  0.12700000000E+01 0.  1.
          4   -1    0    0  501    0  0.00000000000E+00 -0.00000000000E+00 -0.45113411737E+03  0.45113590497E+03  0.12700000000E+01 0.  1.
         25    2    1    2    0    0  0.00000000000E+00  0.00000000000E+00 -0.44252370540E+03  0.45983947288E+03  0.12500044390E+03 0.  0.
    9000005    1    3    3    0    0 -0.60839016700E+02  0.13047543998E+02 -0.19992113212E+03  0.20938262446E+03  0.10000000000E+01 0.  0.
    9000005    1    3    3    0    0  0.60839016700E+02 -0.13047543998E+02 -0.24260257329E+03  0.25045684842E+03  0.10000000000E+01 0.  0.
<mgrwt>
<rscale>  0 0.12500044E+03</rscale>
<asrwt>0</asrwt>
<pdfrwt beam="2">  1        4 0.11279532E+00 0.12500044E+03</pdfrwt>
<pdfrwt beam="1">  1       -4 0.21644725E-02 0.12500044E+03</pdfrwt>
<totfact> 0.94276010E+02</totfact>
</mgrwt>
</event>
<event>
 5    1  0.1466870E-002  0.1250018E+03  0.7818608E-02  0.1235066E+00
          4   -1    0    0  501    0  0.00000000000E+00  0.00000000000E+00  0.59411064775E+02  0.59424637295E+02  0.12700000000E+01 0. -1.
         -4   -1    0    0    0  501 -0.00000000000E+00 -0.00000000000E+00 -0.65724248309E+02  0.65736517368E+02  0.12700000000E+01 0. -1.
         25    2    1    2    0    0  0.00000000000E+00  0.00000000000E+00 -0.63131835339E+01  0.12516115466E+03  0.12500183339E+03 0.  0.
    9000005    1    3    3    0    0 -0.29879864405E+02  0.35783360137E+02  0.38515072073E+02  0.60478640331E+02  0.10000000000E+01 0.  0.
    9000005    1    3    3    0    0  0.29879864405E+02 -0.35783360137E+02 -0.44828255607E+02  0.64682514332E+02  0.10000000000E+01 0.  0.
<mgrwt>
<rscale>  0 0.12500183E+03</rscale>
<asrwt>0</asrwt>
<pdfrwt beam="1">  1        4 0.14855996E-01 0.12500183E+03</pdfrwt>
<pdfrwt beam="2">  1       -4 0.16434292E-01 0.12500183E+03</pdfrwt>
<totfact> 0.19825468E+03</totfact>
</mgrwt>
</event>
<event>
 5    1  0.1466870E-002  0.1250007E+03  0.7818608E-02  0.1235068E+00
          4   -1    0    0  501    0  0.00000000000E+00  0.00000000000E+00  0.45879640705E+02  0.45897214852E+02  0.12700000000E+01 0.  1.
         -4   -1    0    0    0  501 -0.00000000000E+00 -0.00000000000E+00 -0.85103543283E+02  0.85113018859E+02  0.12700000000E+01 0.  1.
         25    2    1    2    0    0  0.00000000000E+00  0.00000000000E+00 -0.39223902578E+02  0.13101023371E+03  0.12500066721E+03 0.  0.
    9000005    1    3    3    0    0  0.44808346799E+02  0.43559299769E+02 -0.19295505766E+02  0.65410374422E+02  0.10000000000E+01 0.  0.
    9000005    1    3    3    0    0 -0.44808346799E+02 -0.43559299769E+02 -0.19928396812E+02  0.65599859289E+02  0.10000000000E+01 0.  0.
<mgrwt>
<rscale>  0 0.12500067E+03</rscale>
<asrwt>0</asrwt>
<pdfrwt beam="1">  1        4 0.11473292E-01 0.12500067E+03</pdfrwt>
<pdfrwt beam="2">  1       -4 0.21279267E-01 0.12500067E+03</pdfrwt>
<totfact> 0.19509923E+03</totfact>
</mgrwt>
</event>
<event>
 5    1  0.1466870E-002  0.1250003E+03  0.7818608E-02  0.1235069E+00
         -4   -1    0    0    0  501 -0.00000000000E+00  0.00000000000E+00  0.19376860894E+02  0.19418435522E+02  0.12700000000E+01 0.  1.
          4   -1    0    0  501    0  0.00000000000E+00 -0.00000000000E+00 -0.20133482873E+03  0.20133883420E+03  0.12700000000E+01 0.  1.
         25    2    1    2    0    0  0.00000000000E+00  0.00000000000E+00 -0.18195796783E+03  0.22075726973E+03  0.12500028032E+03 0.  0.
    9000005    1    3    3    0    0  0.39290596197E+02 -0.47579817369E+02 -0.73524725369E+02  0.95992058062E+02  0.10000000000E+01 0.  0.
    9000005    1    3    3    0    0 -0.39290596197E+02  0.47579817369E+02 -0.10843324246E+03  0.12476521166E+03  0.10000000000E+01 0.  0.
<mgrwt>
<rscale>  0 0.12500028E+03</rscale>
<asrwt>0</asrwt>
<pdfrwt beam="2">  1        4 0.50339398E-01 0.12500028E+03</pdfrwt>
<pdfrwt beam="1">  1       -4 0.48499134E-02 0.12500028E+03</pdfrwt>
<totfact> 0.15523196E+03</totfact>
</mgrwt>
</event>
<event>
 5    1  0.1466870E-002  0.1250008E+03  0.7818608E-02  0.1235068E+00
          4   -1    0    0  501    0  0.00000000000E+00  0.00000000000E+00  0.20881846796E+03  0.20882232989E+03  0.12700000000E+01 0. -1.
         -4   -1    0    0    0  501 -0.00000000000E+00 -0.00000000000E+00 -0.18681096280E+02  0.18724215824E+02  0.12700000000E+01 0. -1.
         25    2    1    2    0    0  0.00000000000E+00  0.00000000000E+00  0.19013737168E+03  0.22754654571E+03  0.12500084143E+03 0.  0.
    9000005    1    3    3    0    0 -0.31651736537E+02 -0.24635783144E+02  0.78328136607E+01  0.40879178156E+02  0.10000000000E+01 0.  0.
    9000005    1    3    3    0    0  0.31651736537E+02  0.24635783144E+02  0.18230455802E+03  0.18666736756E+03  0.10000000000E+01 0.  0.
<mgrwt>
<rscale>  0 0.12500084E+03</rscale>
<asrwt>0</asrwt>
<pdfrwt beam="1">  1        4 0.52210488E-01 0.12500084E+03</pdfrwt>
<pdfrwt beam="2">  1       -4 0.46761469E-02 0.12500084E+03</pdfrwt>
<totfact> 0.15275081E+03</totfact>
</mgrwt>
</event>
<event>
 5    1  0.1466870E-002  0.1250003E+03  0.7818608E-02  0.1235069E+00
         -4   -1    0    0    0  501 -0.00000000000E+00  0.00000000000E+00  0.33804697877E+02  0.33828545617E+02  0.12700000000E+01 0. -1.
          4   -1    0    0  501    0  0.00000000000E+00 -0.00000000000E+00 -0.11548598397E+03  0.11549296686E+03  0.12700000000E+01 0. -1.
         25    2    1    2    0    0  0.00000000000E+00  0.00000000000E+00 -0.81681286091E+02  0.14932151247E+03  0.12500032636E+03 0.  0.
    9000005    1    3    3    0    0 -0.54068944808E+02  0.30362293068E+02 -0.31591348805E+02  0.69601242463E+02  0.10000000000E+01 0.  0.
    9000005    1    3    3    0    0  0.54068944808E+02 -0.30362293068E+02 -0.50089937286E+02  0.79720270009E+02  0.10000000000E+01 0.  0.
<mgrwt>
<rscale>  0 0.12500033E+03</rscale>
<asrwt>0</asrwt>
<pdfrwt beam="2">  1        4 0.28875349E-01 0.12500033E+03</pdfrwt>
<pdfrwt beam="1">  1       -4 0.84550286E-02 0.12500033E+03</pdfrwt>
<totfact> 0.18572051E+03</totfact>
</mgrwt>
</event>
<event>
 5    1  0.1466870E-002  0.1250014E+03  0.7818608E-02  0.1235067E+00
         -4   -1    0    0    0  501 -0.00000000000E+00  0.00000000000E+00  0.23378563411E+03  0.23378908361E+03  0.12700000000E+01 0. -1.
          4   -1    0    0  501    0  0.00000000000E+00 -0.00000000000E+00 -0.16681351797E+02  0.16729626349E+02  0.12700000000E+01 0. -1.
         25    2    1    2    0    0  0.00000000000E+00  0.00000000000E+00  0.21710428231E+03  0.25051870996E+03  0.12500141856E+03 0.  0.
    9000005    1    3    3    0    0  0.27494441113E+02 -0.15082336394E+01 -0.38777651968E+01  0.27825458195E+02  0.10000000000E+01 0.  0.
    9000005    1    3    3    0    0 -0.27494441113E+02  0.15082336394E+01  0.22098204751E+03  0.22269325177E+03  0.10000000000E+01 0.  0.
<mgrwt>
<rscale>  0 0.12500142E+03</rscale>
<asrwt>0</asrwt>
<pdfrwt beam="2">  1        4 0.41768035E-02 0.12500142E+03</pdfrwt>
<pdfrwt beam="1">  1       -4 0.58452873E-01 0.12500142E+03</pdfrwt>
<totfact> 0.14480275E+03</totfact>
</mgrwt>
</event>
<event>
 5    1  0.1466870E-002  0.1249987E+03  0.7818608E-02  0.1235071E+00
          4   -1    0    0  501    0  0.00000000000E+00  0.00000000000E+00  0.39436693317E+02  0.39457137247E+02  0.12700000000E+01 0.  1.
         -4   -1    0    0    0  501 -0.00000000000E+00 -0.00000000000E+00 -0.98998975518E+02  0.99007121227E+02  0.12700000000E+01 0.  1.
         25    2    1    2    0    0  0.00000000000E+00  0.00000000000E+00 -0.59562282202E+02  0.13846425847E+03  0.12499874165E+03 0.  0.
    9000005    1    3    3    0    0  0.10811867371E+02  0.61543956734E+02 -0.28911547232E+02  0.68858061619E+02  0.10000000000E+01 0.  0.
    9000005    1    3    3    0    0 -0.10811867371E+02 -0.61543956734E+02 -0.30650734969E+02  0.69606196856E+02  0.10000000000E+01 0.  0.
<mgrwt>
<rscale>  0 0.12499874E+03</rscale>
<asrwt>0</asrwt>
<pdfrwt beam="1">  1        4 0.98627472E-02 0.12499874E+03</pdfrwt>
<pdfrwt beam="2">  1       -4 0.24753317E-01 0.12499874E+03</pdfrwt>
<totfact> 0.19119747E+03</totfact>
</mgrwt>
</event>
<event>
 5    1  0.1466870E-002  0.1249985E+03  0.7818608E-02  0.1235072E+00
          4   -1    0    0  501    0  0.00000000000E+00  0.00000000000E+00  0.58477262548E+02  0.58491051752E+02  0.12700000000E+01 0. -1.
         -4   -1    0    0    0  501 -0.00000000000E+00 -0.00000000000E+00 -0.66770112160E+02  0.66782189077E+02  0.12700000000E+01 0. -1.
         25    2    1    2    0    0  0.00000000000E+00  0.00000000000E+00 -0.82928496120E+01  0.12527324083E+03  0.12499845404E+03 0.  0.
    9000005    1    3    3    0    0 -0.17972050249E+02 -0.42703199818E+02 -0.46174224280E+02  0.65418780581E+02  0.10000000000E+01 0.  0.
    9000005    1    3    3    0    0  0.17972050249E+02  0.42703199818E+02  0.37881374668E+02  0.59854460248E+02  0.10000000000E+01 0.  0.
<mgrwt>
<rscale>  0 0.12499845E+03</rscale>
<asrwt>0</asrwt>
<pdfrwt beam="1">  1        4 0.14622549E-01 0.12499845E+03</pdfrwt>
<pdfrwt beam="2">  1       -4 0.16695761E-01 0.12499845E+03</pdfrwt>
<totfact> 0.19820961E+03</totfact>
</mgrwt>
</event>
<event>
 5    1  0.1466870E-002  0.1250012E+03  0.7818608E-02  0.1235067E+00
          4   -1    0    0  501    0  0.00000000000E+00  0.00000000000E+00  0.28219703487E+03  0.28219989261E+03  0.12700000000E+01 0. -1.
         -4   -1    0    0    0  501 -0.00000000000E+00 -0.00000000000E+00 -0.13810478936E+02  0.13868750068E+02  0.12700000000E+01 0. -1.
         25    2    1    2    0    0  0.00000000000E+00  0.00000000000E+00  0.26838655593E+03  0.29606864268E+03  0.12500119108E+03 0.  0.
    9000005    1    3    3    0    0  0.46307661999E+02  0.46730839839E+01  0.23296643541E+03  0.23757229910E+03  0.10000000000E+01 0.  0.
    9000005    1    3    3    0    0 -0.46307661999E+02 -0.46730839839E+01  0.35420120526E+02  0.58496343576E+02  0.10000000000E+01 0.  0.
<mgrwt>
<rscale>  0 0.12500119E+03</rscale>
<asrwt>0</asrwt>
<pdfrwt beam="1">  1        4 0.70556903E-01 0.12500119E+03</pdfrwt>
<pdfrwt beam="2">  1       -4 0.34602607E-02 0.12500119E+03</pdfrwt>
<totfact> 0.13081602E+03</totfact>
</mgrwt>
</event>
<event>
 5    1  0.1466870E-002  0.1249989E+03  0.7818608E-02  0.1235071E+00
         -4   -1    0    0    0  501 -0.00000000000E+00  0.00000000000E+00  0.80239226844E+01  0.81238066967E+01  0.12700000000E+01 0. -1.
          4   -1    0    0  501    0  0.00000000000E+00 -0.00000000000E+00 -0.48370452805E+03  0.48370619529E+03  0.12700000000E+01 0. -1.
         25    2    1    2    0    0  0.00000000000E+00  0.00000000000E+00 -0.47568060537E+03  0.49183000199E+03  0.12499885010E+03 0.  0.
    9000005    1    3    3    0    0 -0.14545539158E+02 -0.15034459509E+01 -0.47689722416E+03  0.47712241141E+03  0.10000000000E+01 0.  0.
    9000005    1    3    3    0    0  0.14545539158E+02  0.15034459509E+01  0.12166187927E+01  0.14707590571E+02  0.10000000000E+01 0.  0.
<mgrwt>
<rscale>  0 0.12499885E+03</rscale>
<asrwt>0</asrwt>
<pdfrwt beam="2">  1        4 0.12093873E+00 0.12499885E+03</pdfrwt>
<pdfrwt beam="1">  1       -4 0.20186762E-02 0.12499885E+03</pdfrwt>
<totfact> 0.88923135E+02</totfact>
</mgrwt>
</event>
<event>
 5    1  0.1466870E-002  0.1249935E+03  0.7818608E-02  0.1235079E+00
          4   -1    0    0  501    0  0.00000000000E+00  0.00000000000E+00  0.11334374100E+04  0.11334381215E+04  0.12700000000E+01 0.  1.
         -4   -1    0    0    0  501 -0.00000000000E+00 -0.00000000000E+00 -0.33282654658E+01  0.35623378575E+01  0.12700000000E+01 0.  1.
         25    2    1    2    0    0  0.00000000000E+00  0.00000000000E+00  0.11301091445E+04  0.11370004593E+04  0.12499346398E+03 0.  0.
    9000005    1    3    3    0    0 -0.57282102395E+02 -0.40465853350E+01  0.78920987476E+03  0.79129693575E+03  0.10000000000E+01 0.  0.
    9000005    1    3    3    0    0  0.57282102395E+02  0.40465853350E+01  0.34089926973E+03  0.34570352357E+03  0.10000000000E+01 0.  0.
<mgrwt>
<rscale>  0 0.12499346E+03</rscale>
<asrwt>0</asrwt>
<pdfrwt beam="1">  1        4 0.28338853E+00 0.12499346E+03</pdfrwt>
<pdfrwt beam="2">  1       -4 0.86141489E-03 0.12499346E+03</pdfrwt>
<totfact> 0.28639974E+02</totfact>
</mgrwt>
</event>
<event>
 5    1  0.1466870E-002  0.1249909E+03  0.7818608E-02  0.1235084E+00
          4   -1    0    0  501    0  0.00000000000E+00  0.00000000000E+00  0.14328518017E+02  0.14384690770E+02  0.12700000000E+01 0.  1.
         -4   -1    0    0    0  501 -0.00000000000E+00 -0.00000000000E+00 -0.27198999621E+03  0.27199296120E+03  0.12700000000E+01 0.  1.
         25    2    1    2    0    0  0.00000000000E+00  0.00000000000E+00 -0.25766147820E+03  0.28637765197E+03  0.12499088846E+03 0.  0.
    9000005    1    3    3    0    0 -0.29563957228E+02 -0.27212478622E+02 -0.23847634078E+03  0.24183984716E+03  0.10000000000E+01 0.  0.
    9000005    1    3    3    0    0  0.29563957228E+02  0.27212478622E+02 -0.19185137416E+02  0.44537804811E+02  0.10000000000E+01 0.  0.
<mgrwt>
<rscale>  0 0.12499089E+03</rscale>
<asrwt>0</asrwt>
<pdfrwt beam="1">  1        4 0.35895226E-02 0.12499089E+03</pdfrwt>
<pdfrwt beam="2">  1       -4 0.68004875E-01 0.12499089E+03</pdfrwt>
<totfact> 0.13364417E+03</totfact>
</mgrwt>
</event>
<event>
 5    1  0.1466870E-002  0.1249977E+03  0.7818608E-02  0.1235073E+00
          4   -1    0    0  501    0  0.00000000000E+00  0.00000000000E+00  0.27827120070E+03  0.27827409876E+03  0.12700000000E+01 0. -1.
         -4   -1    0    0    0  501 -0.00000000000E+00 -0.00000000000E+00 -0.14005334257E+02  0.14062798002E+02  0.12700000000E+01 0. -1.
         25    2    1    2    0    0  0.00000000000E+00  0.00000000000E+00  0.26426586644E+03  0.29233689676E+03  0.12499765214E+03 0.  0.
    9000005    1    3    3    0    0  0.26991176543E+02  0.44956529558E+02  0.52633342818E+02  0.74302637486E+02  0.10000000000E+01 0.  0.
    9000005    1    3    3    0    0 -0.26991176543E+02 -0.44956529558E+02  0.21163252363E+03  0.21803425927E+03  0.10000000000E+01 0.  0.
<mgrwt>
<rscale>  0 0.12499765E+03</rscale>
<asrwt>0</asrwt>
<pdfrwt beam="1">  1        4 0.69575348E-01 0.12499765E+03</pdfrwt>
<pdfrwt beam="2">  1       -4 0.35088787E-02 0.12499765E+03</pdfrwt>
<totfact> 0.13189289E+03</totfact>
</mgrwt>
</event>
<event>
 5    1  0.1466870E-002  0.1250002E+03  0.7818608E-02  0.1235069E+00
          4   -1    0    0  501    0  0.00000000000E+00  0.00000000000E+00  0.44427564167E+02  0.44445712479E+02  0.12700000000E+01 0.  1.
         -4   -1    0    0    0  501 -0.00000000000E+00 -0.00000000000E+00 -0.87883672890E+02  0.87892848745E+02  0.12700000000E+01 0.  1.
         25    2    1    2    0    0  0.00000000000E+00  0.00000000000E+00 -0.43456108723E+02  0.13233856122E+03  0.12500024561E+03 0.  0.
    9000005    1    3    3    0    0  0.10741601753E+02  0.30254584869E+02 -0.78490353770E+02  0.84808357776E+02  0.10000000000E+01 0.  0.
    9000005    1    3    3    0    0 -0.10741601753E+02 -0.30254584869E+02  0.35034245047E+02  0.47530203448E+02  0.10000000000E+01 0.  0.
<mgrwt>
<rscale>  0 0.12500025E+03</rscale>
<asrwt>0</asrwt>
<pdfrwt beam="1">  1        4 0.11110307E-01 0.12500025E+03</pdfrwt>
<pdfrwt beam="2">  1       -4 0.21974334E-01 0.12500025E+03</pdfrwt>
<totfact> 0.19439355E+03</totfact>
</mgrwt>
</event>
<event>
 5    1  0.1466870E-002  0.1250002E+03  0.7818608E-02  0.1235069E+00
         -4   -1    0    0    0  501 -0.00000000000E+00  0.00000000000E+00  0.75559036480E+02  0.75569708837E+02  0.12700000000E+01 0. -1.
          4   -1    0    0  501    0  0.00000000000E+00 -0.00000000000E+00 -0.51676008934E+02  0.51691612466E+02  0.12700000000E+01 0. -1.
         25    2    1    2    0    0  0.00000000000E+00  0.00000000000E+00  0.23883027546E+02  0.12726132130E+03  0.12500017958E+03 0.  0.
    9000005    1    3    3    0    0 -0.33468004770E+02 -0.52659889911E+02  0.15481460265E+02  0.64294999500E+02  0.10000000000E+01 0.  0.
    9000005    1    3    3    0    0  0.33468004770E+02  0.52659889911E+02  0.84015672807E+01  0.62966321804E+02  0.10000000000E+01 0.  0.
<mgrwt>
<rscale>  0 0.12500018E+03</rscale>
<asrwt>0</asrwt>
<pdfrwt beam="2">  1        4 0.12922287E-01 0.12500018E+03</pdfrwt>
<pdfrwt beam="1">  1       -4 0.18893043E-01 0.12500018E+03</pdfrwt>
<totfact> 0.19712738E+03</totfact>
</mgrwt>
</event>
<event>
 5    1  0.1466870E-002  0.1249988E+03  0.7818608E-02  0.1235071E+00
         -4   -1    0    0    0  501 -0.00000000000E+00  0.00000000000E+00  0.14938491714E+02  0.14992379221E+02  0.12700000000E+01 0. -1.
          4   -1    0    0  501    0  0.00000000000E+00 -0.00000000000E+00 -0.26095780340E+03  0.26096089373E+03  0.12700000000E+01 0. -1.
         25    2    1    2    0    0  0.00000000000E+00  0.00000000000E+00 -0.24601931169E+03  0.27595327295E+03  0.12499882851E+03 0.  0.
    9000005    1    3    3    0    0  0.56809614707E+02 -0.49872027610E+01 -0.66596944317E+02  0.87683279518E+02  0.10000000000E+01 0.  0.
    9000005    1    3    3    0    0 -0.56809614707E+02  0.49872027610E+01 -0.17942236737E+03  0.18826999343E+03  0.10000000000E+01 0.  0.
<mgrwt>
<rscale>  0 0.12499883E+03</rscale>
<asrwt>0</asrwt>
<pdfrwt beam="2">  1        4 0.65246558E-01 0.12499883E+03</pdfrwt>
<pdfrwt beam="1">  1       -4 0.37417460E-02 0.12499883E+03</pdfrwt>
<totfact> 0.13673191E+03</totfact>
</mgrwt>
</event>
<event>
 5    1  0.1466870E-002  0.1250022E+03  0.7818608E-02  0.1235066E+00
         -4   -1    0    0    0  501 -0.00000000000E+00  0.00000000000E+00  0.57297771988E+03  0.57297912735E+03  0.12700000000E+01 0. -1.
          4   -1    0    0  501    0  0.00000000000E+00 -0.00000000000E+00 -0.67571231254E+01  0.68754354722E+01  0.12700000000E+01 0. -1.
         25    2    1    2    0    0  0.00000000000E+00  0.00000000000E+00  0.56622059676E+03  0.57985456283E+03  0.12500219933E+03 0.  0.
    9000005    1    3    3    0    0 -0.99007365887E+01 -0.36916380486E+02  0.51246113556E+03  0.51388545338E+03  0.10000000000E+01 0.  0.
    9000005    1    3    3    0    0  0.99007365887E+01  0.36916380486E+02  0.53759461199E+02  0.65969109450E+02  0.10000000000E+01 0.  0.
<mgrwt>
<rscale>  0 0.12500220E+03</rscale>
<asrwt>0</asrwt>
<pdfrwt beam="2">  1        4 0.17042455E-02 0.12500220E+03</pdfrwt>
<pdfrwt beam="1">  1       -4 0.14325941E+00 0.12500220E+03</pdfrwt>
<totfact> 0.76093778E+02</totfact>
</mgrwt>
</event>
<event>
 5    1  0.1466870E-002  0.1249960E+03  0.7818608E-02  0.1235075E+00
         -4   -1    0    0    0  501 -0.00000000000E+00  0.00000000000E+00  0.77468078285E+02  0.77478487680E+02  0.12700000000E+01 0.  1.
          4   -1    0    0  501    0  0.00000000000E+00 -0.00000000000E+00 -0.50399003568E+02  0.50415002337E+02  0.12700000000E+01 0.  1.
         25    2    1    2    0    0  0.00000000000E+00  0.00000000000E+00  0.27069074717E+02  0.12789349002E+03  0.12499603987E+03 0.  0.
    9000005    1    3    3    0    0 -0.49110229771E+02 -0.26713653636E+02  0.42102504409E+02  0.69993248505E+02  0.10000000000E+01 0.  0.
    9000005    1    3    3    0    0  0.49110229771E+02  0.26713653636E+02 -0.15033429692E+02  0.57900241511E+02  0.10000000000E+01 0.  0.
<mgrwt>
<rscale>  0 0.12499604E+03</rscale>
<asrwt>0</asrwt>
<pdfrwt beam="2">  1        4 0.12603052E-01 0.12499604E+03</pdfrwt>
<pdfrwt beam="1">  1       -4 0.19370320E-01 0.12499604E+03</pdfrwt>
<totfact> 0.19680150E+03</totfact>
</mgrwt>
</event>
<event>
 4    1  0.1466870E-002  0.1244745E+03  0.7818608E-02  0.1235893E+00
         -4   -1    0    0    0  501 -0.00000000000E+00  0.00000000000E+00  0.35283972581E+02  0.35306821170E+02  0.12700000000E+01 0. -1.
          4   -1    0    0  501    0  0.00000000000E+00 -0.00000000000E+00 -0.10971793879E+03  0.10972528876E+03  0.12700000000E+01 0. -1.
    9000005    1    1    2    0    0 -0.46039133247E+01 -0.39578105014E+02 -0.92911553712E+02  0.10109984781E+03  0.10000000000E+01 0.  0.
    9000005    1    1    2    0    0  0.46039133247E+01  0.39578105014E+02  0.18477587503E+02  0.43932262113E+02  0.10000000000E+01 0.  0.
<mgrwt>
<rscale>  0 0.12447449E+03</rscale>
<asrwt>0</asrwt>
<pdfrwt beam="2">  1        4 0.27433259E-01 0.12447449E+03</pdfrwt>
<pdfrwt beam="1">  1       -4 0.88247682E-02 0.12447449E+03</pdfrwt>
<totfact> 0.19017508E+03</totfact>
</mgrwt>
</event>
<event>
 5    1  0.1466870E-002  0.1250018E+03  0.7818608E-02  0.1235066E+00
         -4   -1    0    0    0  501 -0.00000000000E+00  0.00000000000E+00  0.11026808582E+02  0.11099703037E+02  0.12700000000E+01 0.  1.
          4   -1    0    0  501    0  0.00000000000E+00 -0.00000000000E+00 -0.35301952554E+03  0.35302180997E+03  0.12700000000E+01 0.  1.
         25    2    1    2    0    0  0.00000000000E+00  0.00000000000E+00 -0.34199271696E+03  0.36412151301E+03  0.12500183111E+03 0.  0.
    9000005    1    3    3    0    0 -0.14751873554E+02 -0.31937824804E+02 -0.32144915011E+03  0.32337006438E+03  0.10000000000E+01 0.  0.
    9000005    1    3    3    0    0  0.14751873554E+02  0.31937824804E+02 -0.20543566848E+02  0.40751448630E+02  0.10000000000E+01 0.  0.
<mgrwt>
<rscale>  0 0.12500183E+03</rscale>
<asrwt>0</asrwt>
<pdfrwt beam="2">  1        4 0.88264241E-01 0.12500183E+03</pdfrwt>
<pdfrwt beam="1">  1       -4 0.27661007E-02 0.12500183E+03</pdfrwt>
<totfact> 0.11347145E+03</totfact>
</mgrwt>
</event>
<event>
 5    1  0.1466870E-002  0.1250001E+03  0.7818608E-02  0.1235069E+00
         -4   -1    0    0    0  501 -0.00000000000E+00  0.00000000000E+00  0.41524331556E+02  0.41543748160E+02  0.12700000000E+01 0.  1.
          4   -1    0    0  501    0  0.00000000000E+00 -0.00000000000E+00 -0.94025810316E+02  0.94034386825E+02  0.12700000000E+01 0.  1.
         25    2    1    2    0    0  0.00000000000E+00  0.00000000000E+00 -0.52501478760E+02  0.13557813498E+03  0.12500010166E+03 0.  0.
    9000005    1    3    3    0    0  0.13339096633E+02 -0.25266255377E+02  0.34030768813E+02  0.44445566548E+02  0.10000000000E+01 0.  0.
    9000005    1    3    3    0    0 -0.13339096633E+02  0.25266255377E+02 -0.86532247573E+02  0.91132568437E+02  0.10000000000E+01 0.  0.
<mgrwt>
<rscale>  0 0.12500010E+03</rscale>
<asrwt>0</asrwt>
<pdfrwt beam="2">  1        4 0.23509951E-01 0.12500010E+03</pdfrwt>
<pdfrwt beam="1">  1       -4 0.10384582E-01 0.12500010E+03</pdfrwt>
<totfact> 0.19268852E+03</totfact>
</mgrwt>
</event>
<event>
 5    1  0.1466870E-002  0.1249990E+03  0.7818608E-02  0.1235071E+00
         -4   -1    0    0    0  501 -0.00000000000E+00  0.00000000000E+00  0.80198615790E+02  0.80208670820E+02  0.12700000000E+01 0.  1.
          4   -1    0    0  501    0  0.00000000000E+00 -0.00000000000E+00 -0.48685002738E+02  0.48701564570E+02  0.12700000000E+01 0.  1.
         25    2    1    2    0    0  0.00000000000E+00  0.00000000000E+00  0.31513613053E+02  0.12891023539E+03  0.12499896392E+03 0.  0.
    9000005    1    3    3    0    0 -0.17953108629E+02 -0.55994143253E+02  0.37573585756E+02  0.69788484255E+02  0.10000000000E+01 0.  0.
    9000005    1    3    3    0    0  0.17953108629E+02  0.55994143253E+02 -0.60599727032E+01  0.59121751135E+02  0.10000000000E+01 0.  0.
<mgrwt>
<rscale>  0 0.12499896E+03</rscale>
<asrwt>0</asrwt>
<pdfrwt beam="2">  1        4 0.12174578E-01 0.12499896E+03</pdfrwt>
<pdfrwt beam="1">  1       -4 0.20052981E-01 0.12499896E+03</pdfrwt>
<totfact> 0.19623625E+03</totfact>
</mgrwt>
</event>
<event>
 5    1  0.1466870E-002  0.1250002E+03  0.7818608E-02  0.1235069E+00
          4   -1    0    0  501    0  0.00000000000E+00  0.00000000000E+00  0.77069594481E+02  0.77080057690E+02  0.12700000000E+01 0. -1.
         -4   -1    0    0    0  501 -0.00000000000E+00 -0.00000000000E+00 -0.50663017553E+02  0.50678932976E+02  0.12700000000E+01 0. -1.
         25    2    1    2    0    0  0.00000000000E+00  0.00000000000E+00  0.26406576928E+02  0.12775899067E+03  0.12500020956E+03 0.  0.
    9000005    1    3    3    0    0  0.42786721969E+02  0.13043868099E+02 -0.31399474127E+02  0.54660525494E+02  0.10000000000E+01 0.  0.
    9000005    1    3    3    0    0 -0.42786721969E+02 -0.13043868099E+02  0.57806051055E+02  0.73098465171E+02  0.10000000000E+01 0.  0.
<mgrwt>
<rscale>  0 0.12500021E+03</rscale>
<asrwt>0</asrwt>
<pdfrwt beam="1">  1        4 0.19270696E-01 0.12500021E+03</pdfrwt>
<pdfrwt beam="2">  1       -4 0.12669052E-01 0.12500021E+03</pdfrwt>
<totfact> 0.19685561E+03</totfact>
</mgrwt>
</event>
<event>
 5    1  0.1466870E-002  0.1250071E+03  0.7818608E-02  0.1235058E+00
         -4   -1    0    0    0  501 -0.00000000000E+00  0.00000000000E+00  0.74825661815E+03  0.74825769592E+03  0.12700000000E+01 0. -1.
          4   -1    0    0  501    0  0.00000000000E+00 -0.00000000000E+00 -0.51427300327E+01  0.52972230639E+01  0.12700000000E+01 0. -1.
         25    2    1    2    0    0  0.00000000000E+00  0.00000000000E+00  0.74311388812E+03  0.75355491898E+03  0.12500706066E+03 0.  0.
    9000005    1    3    3    0    0 -0.56687344603E+02 -0.21785818632E+01  0.52961388524E+03  0.53264441112E+03  0.10000000000E+01 0.  0.
    9000005    1    3    3    0    0  0.56687344603E+02  0.21785818632E+01  0.21350000288E+03  0.22091050787E+03  0.10000000000E+01 0.  0.
<mgrwt>
<rscale>  0 0.12500706E+03</rscale>
<asrwt>0</asrwt>
<pdfrwt beam="2">  1        4 0.13051285E-02 0.12500706E+03</pdfrwt>
<pdfrwt beam="1">  1       -4 0.18708366E+00 0.12500706E+03</pdfrwt>
<totfact> 0.56722733E+02</totfact>
</mgrwt>
</event>
<event>
 5    1  0.1466870E-002  0.1249966E+03  0.7818608E-02  0.1235075E+00
          4   -1    0    0  501    0  0.00000000000E+00  0.00000000000E+00  0.42092325091E+01  0.43966508067E+01  0.12700000000E+01 0. -1.
         -4   -1    0    0    0  501 -0.00000000000E+00 -0.00000000000E+00 -0.90757241376E+03  0.90757330234E+03  0.12700000000E+01 0. -1.
         25    2    1    2    0    0  0.00000000000E+00  0.00000000000E+00 -0.90336318125E+03  0.91196995315E+03  0.12499663276E+03 0.  0.
    9000005    1    3    3    0    0  0.25885243040E+02 -0.47024119133E+02 -0.21824223556E+03  0.22474871962E+03  0.10000000000E+01 0.  0.
    9000005    1    3    3    0    0 -0.25885243040E+02  0.47024119133E+02 -0.68512094569E+03  0.68722123353E+03  0.10000000000E+01 0.  0.
<mgrwt>
<rscale>  0 0.12499663E+03</rscale>
<asrwt>0</asrwt>
<pdfrwt beam="1">  1        4 0.10758496E-02 0.12499663E+03</pdfrwt>
<pdfrwt beam="2">  1       -4 0.22691599E+00 0.12499663E+03</pdfrwt>
<totfact> 0.43372161E+02</totfact>
</mgrwt>
</event>
<event>
 5    1  0.1466870E-002  0.1250012E+03  0.7818608E-02  0.1235067E+00
          4   -1    0    0  501    0  0.00000000000E+00  0.00000000000E+00  0.21497558872E+02  0.21535039760E+02  0.12700000000E+01 0. -1.
         -4   -1    0    0    0  501 -0.00000000000E+00 -0.00000000000E+00 -0.18151216415E+03  0.18151660705E+03  0.12700000000E+01 0. -1.
         25    2    1    2    0    0  0.00000000000E+00  0.00000000000E+00 -0.16001460528E+03  0.20305164681E+03  0.12500118947E+03 0.  0.
    9000005    1    3    3    0    0 -0.57743614390E+02 -0.17250675059E+02 -0.10686707868E+03  0.12269263751E+03  0.10000000000E+01 0.  0.
    9000005    1    3    3    0    0  0.57743614390E+02  0.17250675059E+02 -0.53147526604E+02  0.80359009308E+02  0.10000000000E+01 0.  0.
<mgrwt>
<rscale>  0 0.12500119E+03</rscale>
<asrwt>0</asrwt>
<pdfrwt beam="1">  1        4 0.53796307E-02 0.12500119E+03</pdfrwt>
<pdfrwt beam="2">  1       -4 0.45383277E-01 0.12500119E+03</pdfrwt>
<totfact> 0.16200129E+03</totfact>
</mgrwt>
</event>
<event>
 5    1  0.1466870E-002  0.1249904E+03  0.7818608E-02  0.1235084E+00
          4   -1    0    0  501    0  0.00000000000E+00  0.00000000000E+00  0.93407669795E+02  0.93416303055E+02  0.12700000000E+01 0.  1.
         -4   -1    0    0    0  501 -0.00000000000E+00 -0.00000000000E+00 -0.41792765425E+02  0.41812057374E+02  0.12700000000E+01 0.  1.
         25    2    1    2    0    0  0.00000000000E+00  0.00000000000E+00  0.51614904370E+02  0.13522836043E+03  0.12499044408E+03 0.  0.
    9000005    1    3    3    0    0  0.30151222306E+02 -0.41461212695E+02  0.64462439393E+02  0.82368285506E+02  0.10000000000E+01 0.  0.
    9000005    1    3    3    0    0 -0.30151222306E+02  0.41461212695E+02 -0.12847535023E+02  0.52860074923E+02  0.10000000000E+01 0.  0.
<mgrwt>
<rscale>  0 0.12499044E+03</rscale>
<asrwt>0</asrwt>
<pdfrwt beam="1">  1        4 0.23355408E-01 0.12499044E+03</pdfrwt>
<pdfrwt beam="2">  1       -4 0.10451682E-01 0.12499044E+03</pdfrwt>
<totfact> 0.19291483E+03</totfact>
</mgrwt>
</event>
<event>
 5    1  0.1466870E-002  0.1250003E+03  0.7818608E-02  0.1235069E+00
         -4   -1    0    0    0  501 -0.00000000000E+00  0.00000000000E+00  0.19917239540E+02  0.19957688516E+02  0.12700000000E+01 0.  1.
          4   -1    0    0  501    0  0.00000000000E+00 -0.00000000000E+00 -0.19588363947E+03  0.19588775641E+03  0.12700000000E+01 0.  1.
         25    2    1    2    0    0  0.00000000000E+00  0.00000000000E+00 -0.17596639993E+03  0.21584544492E+03  0.12500032877E+03 0.  0.
    9000005    1    3    3    0    0 -0.33232910394E+02  0.29489211994E+02 -0.16386695244E+03  0.16978638950E+03  0.10000000000E+01 0.  0.
    9000005    1    3    3    0    0  0.33232910394E+02 -0.29489211994E+02 -0.12099447487E+02  0.46059055426E+02  0.10000000000E+01 0.  0.
<mgrwt>
<rscale>  0 0.12500033E+03</rscale>
<asrwt>0</asrwt>
<pdfrwt beam="2">  1        4 0.48976475E-01 0.12500033E+03</pdfrwt>
<pdfrwt beam="1">  1       -4 0.49848812E-02 0.12500033E+03</pdfrwt>
<totfact> 0.15706511E+03</totfact>
</mgrwt>
</event>
<event>
 5    1  0.1466870E-002  0.1250014E+03  0.7818608E-02  0.1235067E+00
         -4   -1    0    0    0  501 -0.00000000000E+00  0.00000000000E+00  0.15089398561E+02  0.15142749054E+02  0.12700000000E+01 0.  1.
          4   -1    0    0  501    0  0.00000000000E+00 -0.00000000000E+00 -0.25836770643E+03  0.25837082774E+03  0.12700000000E+01 0.  1.
         25    2    1    2    0    0  0.00000000000E+00  0.00000000000E+00 -0.24327830787E+03  0.27351357679E+03  0.12500136643E+03 0.  0.
    9000005    1    3    3    0    0  0.15326097382E+02 -0.52213564317E+02 -0.54404404526E+02  0.76954433215E+02  0.10000000000E+01 0.  0.
    9000005    1    3    3    0    0 -0.15326097382E+02  0.52213564317E+02 -0.18887390334E+03  0.19655914358E+03  0.10000000000E+01 0.  0.
<mgrwt>
<rscale>  0 0.12500137E+03</rscale>
<asrwt>0</asrwt>
<pdfrwt beam="2">  1        4 0.64598971E-01 0.12500137E+03</pdfrwt>
<pdfrwt beam="1">  1       -4 0.37794094E-02 0.12500137E+03</pdfrwt>
<totfact> 0.13746834E+03</totfact>
</mgrwt>
</event>
<event>
 5    1  0.1466870E-002  0.1249962E+03  0.7818608E-02  0.1235075E+00
         -4   -1    0    0    0  501 -0.00000000000E+00  0.00000000000E+00  0.22841085220E+03  0.22841438287E+03  0.12700000000E+01 0.  1.
          4   -1    0    0  501    0  0.00000000000E+00 -0.00000000000E+00 -0.17073574905E+02  0.17120743560E+02  0.12700000000E+01 0.  1.
         25    2    1    2    0    0  0.00000000000E+00  0.00000000000E+00  0.21133727730E+03  0.24553512643E+03  0.12499621409E+03 0.  0.
    9000005    1    3    3    0    0 -0.55413824360E+01  0.40168330827E+02  0.19906908780E+03  0.20315930556E+03  0.10000000000E+01 0.  0.
    9000005    1    3    3    0    0  0.55413824360E+01 -0.40168330827E+02  0.12268189499E+02  0.42375820869E+02  0.10000000000E+01 0.  0.
<mgrwt>
<rscale>  0 0.12499621E+03</rscale>
<asrwt>0</asrwt>
<pdfrwt beam="2">  1        4 0.42747312E-02 0.12499621E+03</pdfrwt>
<pdfrwt beam="1">  1       -4 0.57109050E-01 0.12499621E+03</pdfrwt>
<totfact> 0.14648923E+03</totfact>
</mgrwt>
</event>
<event>
 5    1  0.1466870E-002  0.1250017E+03  0.7818608E-02  0.1235067E+00
          4   -1    0    0  501    0  0.00000000000E+00  0.00000000000E+00  0.32105786981E+03  0.32106038166E+03  0.12700000000E+01 0. -1.
         -4   -1    0    0    0  501 -0.00000000000E+00 -0.00000000000E+00 -0.12131431034E+02  0.12197725974E+02  0.12700000000E+01 0. -1.
         25    2    1    2    0    0  0.00000000000E+00  0.00000000000E+00  0.30892643878E+03  0.33325810763E+03  0.12500168688E+03 0.  0.
    9000005    1    3    3    0    0 -0.34769503397E+01  0.22017997036E+02  0.31011168591E+03  0.31091339488E+03  0.10000000000E+01 0.  0.
    9000005    1    3    3    0    0  0.34769503397E+01 -0.22017997036E+02 -0.11852471300E+01  0.22344712751E+02  0.10000000000E+01 0.  0.
<mgrwt>
<rscale>  0 0.12500169E+03</rscale>
<asrwt>0</asrwt>
<pdfrwt beam="1">  1        4 0.80273064E-01 0.12500169E+03</pdfrwt>
<pdfrwt beam="2">  1       -4 0.30414588E-02 0.12500169E+03</pdfrwt>
<totfact> 0.12087132E+03</totfact>
</mgrwt>
</event>
<event>
 5    1  0.1466870E-002  0.1249980E+03  0.7818608E-02  0.1235072E+00
          4   -1    0    0  501    0  0.00000000000E+00  0.00000000000E+00  0.94126102351E+03  0.94126188029E+03  0.12700000000E+01 0. -1.
         -4   -1    0    0    0  501 -0.00000000000E+00 -0.00000000000E+00 -0.40518376170E+01  0.42462086706E+01  0.12700000000E+01 0. -1.
         25    2    1    2    0    0  0.00000000000E+00  0.00000000000E+00  0.93720918589E+03  0.94550808896E+03  0.12499795262E+03 0.  0.
    9000005    1    3    3    0    0  0.56334600182E+02  0.23907272828E+02  0.56427802456E+03  0.56758773231E+03  0.10000000000E+01 0.  0.
    9000005    1    3    3    0    0 -0.56334600182E+02 -0.23907272828E+02  0.37293116134E+03  0.37792035665E+03  0.10000000000E+01 0.  0.
<mgrwt>
<rscale>  0 0.12499795E+03</rscale>
<asrwt>0</asrwt>
<pdfrwt beam="1">  1        4 0.23533965E+00 0.12499795E+03</pdfrwt>
<pdfrwt beam="2">  1       -4 0.10373629E-02 0.12499795E+03</pdfrwt>
<totfact> 0.40901599E+02</totfact>
</mgrwt>
</event>
<event>
 5    1  0.1466870E-002  0.1249996E+03  0.7818608E-02  0.1235070E+00
         -4   -1    0    0    0  501 -0.00000000000E+00  0.00000000000E+00  0.22299727726E+03  0.22300089364E+03  0.12700000000E+01 0. -1.
          4   -1    0    0  501    0  0.00000000000E+00 -0.00000000000E+00 -0.17490145584E+02  0.17536193787E+02  0.12700000000E+01 0. -1.
         25    2    1    2    0    0  0.00000000000E+00  0.00000000000E+00  0.20550713168E+03  0.24053708743E+03  0.12499963704E+03 0.  0.
    9000005    1    3    3    0    0 -0.52085730342E+02 -0.22323582699E+02  0.15344575376E+03  0.16357831457E+03  0.10000000000E+01 0.  0.
    9000005    1    3    3    0    0  0.52085730342E+02  0.22323582699E+02  0.52061377914E+02  0.76958772860E+02  0.10000000000E+01 0.  0.
<mgrwt>
<rscale>  0 0.12499964E+03</rscale>
<asrwt>0</asrwt>
<pdfrwt beam="2">  1        4 0.43787445E-02 0.12499964E+03</pdfrwt>
<pdfrwt beam="1">  1       -4 0.55755527E-01 0.12499964E+03</pdfrwt>
<totfact> 0.14818090E+03</totfact>
</mgrwt>
</event>
<event>
 5    1  0.1466870E-002  0.1250007E+03  0.7818608E-02  0.1235068E+00
         -4   -1    0    0    0  501 -0.00000000000E+00  0.00000000000E+00  0.11240757248E+03  0.11241474659E+03  0.12700000000E+01 0. -1.
          4   -1    0    0  501    0  0.00000000000E+00 -0.00000000000E+00 -0.34731281639E+02  0.34754493584E+02  0.12700000000E+01 0. -1.
         25    2    1    2    0    0  0.00000000000E+00  0.00000000000E+00  0.77676290846E+02  0.14716924018E+03  0.12500071638E+03 0.  0.
    9000005    1    3    3    0    0  0.61743636654E+02  0.77371379575E+01  0.45617334860E+02  0.77162693128E+02  0.10000000000E+01 0.  0.
    9000005    1    3    3    0    0 -0.61743636654E+02 -0.77371379575E+01  0.32058955986E+02  0.70006547051E+02  0.10000000000E+01 0.  0.
<mgrwt>
<rscale>  0 0.12500072E+03</rscale>
<asrwt>0</asrwt>
<pdfrwt beam="2">  1        4 0.86866187E-02 0.12500072E+03</pdfrwt>
<pdfrwt beam="1">  1       -4 0.28105691E-01 0.12500072E+03</pdfrwt>
<totfact> 0.18678539E+03</totfact>
</mgrwt>
</event>
<event>
 5    1  0.1466870E-002  0.1249966E+03  0.7818608E-02  0.1235075E+00
         -4   -1    0    0    0  501 -0.00000000000E+00  0.00000000000E+00  0.97165001812E+03  0.97165084810E+03  0.12700000000E+01 0. -1.
          4   -1    0    0  501    0  0.00000000000E+00 -0.00000000000E+00 -0.39188454817E+01  0.41194963174E+01  0.12700000000E+01 0. -1.
         25    2    1    2    0    0  0.00000000000E+00  0.00000000000E+00  0.96773117264E+03  0.97577034442E+03  0.12499657014E+03 0.  0.
    9000005    1    3    3    0    0  0.95424975886E+01 -0.26245419368E+02  0.92026610064E+03  0.92069027217E+03  0.10000000000E+01 0.  0.
    9000005    1    3    3    0    0 -0.95424975886E+01  0.26245419368E+02  0.47465072005E+02  0.55080072244E+02  0.10000000000E+01 0.  0.
<mgrwt>
<rscale>  0 0.12499657E+03</rscale>
<asrwt>0</asrwt>
<pdfrwt beam="2">  1        4 0.10048967E-02 0.12499657E+03</pdfrwt>
<pdfrwt beam="1">  1       -4 0.24293764E+00 0.12499657E+03</pdfrwt>
<totfact> 0.38765626E+02</totfact>
</mgrwt>
</event>
<event>
 5    1  0.1466870E-002  0.1249955E+03  0.7818608E-02  0.1235076E+00
         -4   -1    0    0    0  501 -0.00000000000E+00  0.00000000000E+00  0.21079430331E+03  0.21079812904E+03  0.12700000000E+01 0.  1.
          4   -1    0    0  501    0  0.00000000000E+00 -0.00000000000E+00 -0.18503998826E+02  0.18547530093E+02  0.12700000000E+01 0.  1.
         25    2    1    2    0    0  0.00000000000E+00  0.00000000000E+00  0.19229030448E+03  0.22934565914E+03  0.12499548058E+03 0.  0.
    9000005    1    3    3    0    0 -0.29460319723E+02 -0.25884185127E+02  0.68760014400E+01  0.39826886316E+02  0.10000000000E+01 0.  0.
    9000005    1    3    3    0    0  0.29460319723E+02  0.25884185127E+02  0.18541430304E+03  0.18951877282E+03  0.10000000000E+01 0.  0.
<mgrwt>
<rscale>  0 0.12499548E+03</rscale>
<asrwt>0</asrwt>
<pdfrwt beam="2">  1        4 0.46319194E-02 0.12499548E+03</pdfrwt>
<pdfrwt beam="1">  1       -4 0.52704495E-01 0.12499548E+03</pdfrwt>
<totfact> 0.15212306E+03</totfact>
</mgrwt>
</event>
<event>
 5    1  0.1466870E-002  0.1249807E+03  0.7818608E-02  0.1235099E+00
         -4   -1    0    0    0  501 -0.00000000000E+00  0.00000000000E+00  0.53515111092E+02  0.53530178547E+02  0.12700000000E+01 0.  1.
          4   -1    0    0  501    0  0.00000000000E+00 -0.00000000000E+00 -0.72939966272E+02  0.72951021787E+02  0.12700000000E+01 0.  1.
         25    2    1    2    0    0  0.00000000000E+00  0.00000000000E+00 -0.19424855180E+02  0.12648120033E+03  0.12498067466E+03 0.  0.
    9000005    1    3    3    0    0 -0.20273937822E+02  0.23477775553E+02  0.45177159417E+02  0.54810712755E+02  0.10000000000E+01 0.  0.
    9000005    1    3    3    0    0  0.20273937822E+02 -0.23477775553E+02 -0.64602014597E+02  0.71670487578E+02  0.10000000000E+01 0.  0.
<mgrwt>
<rscale>  0 0.12498067E+03</rscale>
<asrwt>0</asrwt>
<pdfrwt beam="2">  1        4 0.18238257E-01 0.12498067E+03</pdfrwt>
<pdfrwt beam="1">  1       -4 0.13382043E-01 0.12498067E+03</pdfrwt>
<totfact> 0.19763871E+03</totfact>
</mgrwt>
</event>
<event>
 5    1  0.1466870E-002  0.1250017E+03  0.7818608E-02  0.1235067E+00
          4   -1    0    0  501    0  0.00000000000E+00  0.00000000000E+00  0.25512466103E+03  0.25512782201E+03  0.12700000000E+01 0.  1.
         -4   -1    0    0    0  501 -0.00000000000E+00 -0.00000000000E+00 -0.15281956016E+02  0.15334636600E+02  0.12700000000E+01 0.  1.
         25    2    1    2    0    0  0.00000000000E+00  0.00000000000E+00  0.23984270501E+03  0.27046245861E+03  0.12500167347E+03 0.  0.
    9000005    1    3    3    0    0  0.23463660673E+02 -0.18978094941E+02  0.23832462402E+03  0.24022976059E+03  0.10000000000E+01 0.  0.
    9000005    1    3    3    0    0 -0.23463660673E+02  0.18978094941E+02  0.15180809939E+01  0.30232698022E+02  0.10000000000E+01 0.  0.
<mgrwt>
<rscale>  0 0.12500167E+03</rscale>
<asrwt>0</asrwt>
<pdfrwt beam="1">  1        4 0.63788143E-01 0.12500167E+03</pdfrwt>
<pdfrwt beam="2">  1       -4 0.38274693E-02 0.12500167E+03</pdfrwt>
<totfact> 0.13840712E+03</totfact>
</mgrwt>
</event>
<event>
 5    1  0.1466870E-002  0.1250011E+03  0.7818608E-02  0.1235068E+00
          4   -1    0    0  501    0  0.00000000000E+00  0.00000000000E+00  0.61182985568E+02  0.61196165100E+02  0.12700000000E+01 0.  1.
         -4   -1    0    0    0  501 -0.00000000000E+00 -0.00000000000E+00 -0.63820123146E+02  0.63832758192E+02  0.12700000000E+01 0.  1.
         25    2    1    2    0    0  0.00000000000E+00  0.00000000000E+00 -0.26371375787E+01  0.12502892329E+03  0.12500110866E+03 0.  0.
    9000005    1    3    3    0    0 -0.26856854609E+02 -0.42804927618E+02  0.35455993987E+02  0.61738804471E+02  0.10000000000E+01 0.  0.
    9000005    1    3    3    0    0  0.26856854609E+02  0.42804927618E+02 -0.38093131566E+02  0.63290118821E+02  0.10000000000E+01 0.  0.
<mgrwt>
<rscale>  0 0.12500111E+03</rscale>
<asrwt>0</asrwt>
<pdfrwt beam="1">  1        4 0.15298973E-01 0.12500111E+03</pdfrwt>
<pdfrwt beam="2">  1       -4 0.15958258E-01 0.12500111E+03</pdfrwt>
<totfact> 0.19832972E+03</totfact>
</mgrwt>
</event>
<event>
 5    1  0.1466870E-002  0.1249962E+03  0.7818608E-02  0.1235075E+00
          4   -1    0    0  501    0  0.00000000000E+00  0.00000000000E+00  0.27973580732E+02  0.28002394879E+02  0.12700000000E+01 0. -1.
         -4   -1    0    0    0  501 -0.00000000000E+00 -0.00000000000E+00 -0.13952862628E+03  0.13953440598E+03  0.12700000000E+01 0. -1.
         25    2    1    2    0    0  0.00000000000E+00  0.00000000000E+00 -0.11155504555E+03  0.16753680086E+03  0.12499620576E+03 0.  0.
    9000005    1    3    3    0    0  0.52477732843E+02 -0.23220526232E+02 -0.22621967571E+02  0.61691642057E+02  0.10000000000E+01 0.  0.
    9000005    1    3    3    0    0 -0.52477732843E+02  0.23220526232E+02 -0.88933077976E+02  0.10584515880E+03  0.10000000000E+01 0.  0.
<mgrwt>
<rscale>  0 0.12499621E+03</rscale>
<asrwt>0</asrwt>
<pdfrwt beam="1">  1        4 0.69977198E-02 0.12499621E+03</pdfrwt>
<pdfrwt beam="2">  1       -4 0.34886479E-01 0.12499621E+03</pdfrwt>
<totfact> 0.17710284E+03</totfact>
</mgrwt>
</event>
<event>
 5    1  0.1466870E-002  0.1250010E+03  0.7818608E-02  0.1235068E+00
         -4   -1    0    0    0  501 -0.00000000000E+00  0.00000000000E+00  0.85695736077E+02  0.85705146181E+02  0.12700000000E+01 0. -1.
          4   -1    0    0  501    0  0.00000000000E+00 -0.00000000000E+00 -0.45562719313E+02  0.45580415654E+02  0.12700000000E+01 0. -1.
         25    2    1    2    0    0  0.00000000000E+00  0.00000000000E+00  0.40133016764E+02  0.13128556184E+03  0.12500095884E+03 0.  0.
    9000005    1    3    3    0    0 -0.22185383570E+02  0.56359488773E+02  0.36225983606E+02  0.70582611932E+02  0.10000000000E+01 0.  0.
    9000005    1    3    3    0    0  0.22185383570E+02 -0.56359488773E+02  0.39070331586E+01  0.60702949904E+02  0.10000000000E+01 0.  0.
<mgrwt>
<rscale>  0 0.12500096E+03</rscale>
<asrwt>0</asrwt>
<pdfrwt beam="2">  1        4 0.11394068E-01 0.12500096E+03</pdfrwt>
<pdfrwt beam="1">  1       -4 0.21427322E-01 0.12500096E+03</pdfrwt>
<totfact> 0.19495082E+03</totfact>
</mgrwt>
</event>
<event>
 5    1  0.1466870E-002  0.1250011E+03  0.7818608E-02  0.1235067E+00
         -4   -1    0    0    0  501 -0.00000000000E+00  0.00000000000E+00  0.18867815913E+03  0.18868243329E+03  0.12700000000E+01 0.  1.
          4   -1    0    0  501    0  0.00000000000E+00 -0.00000000000E+00 -0.20679633190E+02  0.20718593796E+02  0.12700000000E+01 0.  1.
         25    2    1    2    0    0  0.00000000000E+00  0.00000000000E+00  0.16799852594E+03  0.20940102709E+03  0.12500114170E+03 0.  0.
    9000005    1    3    3    0    0  0.53234050126E+02  0.32428728486E+02  0.91459954767E+02  0.11068608698E+03  0.10000000000E+01 0.  0.
    9000005    1    3    3    0    0 -0.53234050126E+02 -0.32428728486E+02  0.76538571176E+02  0.98714940114E+02  0.10000000000E+01 0.  0.
<mgrwt>
<rscale>  0 0.12500114E+03</rscale>
<asrwt>0</asrwt>
<pdfrwt beam="2">  1        4 0.51753126E-02 0.12500114E+03</pdfrwt>
<pdfrwt beam="1">  1       -4 0.47174944E-01 0.12500114E+03</pdfrwt>
<totfact> 0.15951984E+03</totfact>
</mgrwt>
</event>
<event>
 5    1  0.1466870E-002  0.1250010E+03  0.7818608E-02  0.1235068E+00
         -4   -1    0    0    0  501 -0.00000000000E+00  0.00000000000E+00  0.26035147165E+03  0.26035456917E+03  0.12700000000E+01 0. -1.
          4   -1    0    0  501    0  0.00000000000E+00 -0.00000000000E+00 -0.14973920424E+02  0.15027680887E+02  0.12700000000E+01 0. -1.
         25    2    1    2    0    0  0.00000000000E+00  0.00000000000E+00  0.24537755122E+03  0.27538225006E+03  0.12500096401E+03 0.  0.
    9000005    1    3    3    0    0 -0.22476445642E+02  0.55753316121E+02  0.85063351470E+02  0.10416523715E+03  0.10000000000E+01 0.  0.
    9000005    1    3    3    0    0  0.22476445642E+02 -0.55753316121E+02  0.16031419975E+03  0.17121701291E+03  0.10000000000E+01 0.  0.
<mgrwt>
<rscale>  0 0.12500096E+03</rscale>
<asrwt>0</asrwt>
<pdfrwt beam="2">  1        4 0.37505874E-02 0.12500096E+03</pdfrwt>
<pdfrwt beam="1">  1       -4 0.65094975E-01 0.12500096E+03</pdfrwt>
<totfact> 0.13689886E+03</totfact>
</mgrwt>
</event>
<event>
 5    1  0.1466870E-002  0.1249995E+03  0.7818608E-02  0.1235070E+00
         -4   -1    0    0    0  501 -0.00000000000E+00  0.00000000000E+00  0.46017354508E+03  0.46017529757E+03  0.12700000000E+01 0. -1.
          4   -1    0    0  501    0  0.00000000000E+00 -0.00000000000E+00 -0.84393009416E+01  0.85343248346E+01  0.12700000000E+01 0. -1.
         25    2    1    2    0    0  0.00000000000E+00  0.00000000000E+00  0.45173424414E+03  0.46870962240E+03  0.12499953122E+03 0.  0.
    9000005    1    3    3    0    0  0.93379845250E+01 -0.60673288374E+02  0.26972004724E+03  0.27661950358E+03  0.10000000000E+01 0.  0.
    9000005    1    3    3    0    0 -0.93379845250E+01  0.60673288374E+02  0.18201419690E+03  0.19209011883E+03  0.10000000000E+01 0.  0.
<mgrwt>
<rscale>  0 0.12499953E+03</rscale>
<asrwt>0</asrwt>
<pdfrwt beam="2">  1        4 0.21219222E-02 0.12499953E+03</pdfrwt>
<pdfrwt beam="1">  1       -4 0.11505549E+00 0.12499953E+03</pdfrwt>
<totfact> 0.92753291E+02</totfact>
</mgrwt>
</event>
<event>
 5    1  0.1466870E-002  0.1249964E+03  0.7818608E-02  0.1235075E+00
          4   -1    0    0  501    0  0.00000000000E+00  0.00000000000E+00  0.49775095687E+03  0.49775257706E+03  0.12700000000E+01 0. -1.
         -4   -1    0    0    0  501 -0.00000000000E+00 -0.00000000000E+00 -0.77943226763E+01  0.78971112429E+01  0.12700000000E+01 0. -1.
         25    2    1    2    0    0  0.00000000000E+00  0.00000000000E+00  0.48995663420E+03  0.50564968830E+03  0.12499641549E+03 0.  0.
    9000005    1    3    3    0    0  0.37444718462E+02 -0.29848315613E+02  0.40739637422E+03  0.41020218748E+03  0.10000000000E+01 0.  0.
    9000005    1    3    3    0    0 -0.37444718462E+02  0.29848315613E+02  0.82560259976E+02  0.95447500821E+02  0.10000000000E+01 0.  0.
<mgrwt>
<rscale>  0 0.12499642E+03</rscale>
<asrwt>0</asrwt>
<pdfrwt beam="1">  1        4 0.12445080E+00 0.12499642E+03</pdfrwt>
<pdfrwt beam="2">  1       -4 0.19616316E-02 0.12499642E+03</pdfrwt>
<totfact> 0.86722331E+02</totfact>
</mgrwt>
</event>
<event>
 5    1  0.1466870E-002  0.1249944E+03  0.7818608E-02  0.1235078E+00
         -4   -1    0    0    0  501 -0.00000000000E+00  0.00000000000E+00  0.41827131470E+02  0.41846407576E+02  0.12700000000E+01 0.  1.
          4   -1    0    0  501    0  0.00000000000E+00 -0.00000000000E+00 -0.93336873022E+02  0.93345512830E+02  0.12700000000E+01 0.  1.
         25    2    1    2    0    0  0.00000000000E+00  0.00000000000E+00 -0.51509741552E+02  0.13519192041E+03  0.12499440735E+03 0.  0.
    9000005    1    3    3    0    0  0.28216653043E+02  0.46832407684E+02  0.69699028798E+01  0.55127429330E+02  0.10000000000E+01 0.  0.
    9000005    1    3    3    0    0 -0.28216653043E+02 -0.46832407684E+02 -0.58479644432E+02  0.80064491076E+02  0.10000000000E+01 0.  0.
<mgrwt>
<rscale>  0 0.12499441E+03</rscale>
<asrwt>0</asrwt>
<pdfrwt beam="2">  1        4 0.23337707E-01 0.12499441E+03</pdfrwt>
<pdfrwt beam="1">  1       -4 0.10460273E-01 0.12499441E+03</pdfrwt>
<totfact> 0.19291606E+03</totfact>
</mgrwt>
</event>
<event>
 5    1  0.1466870E-002  0.1250001E+03  0.7818608E-02  0.1235069E+00
         -4   -1    0    0    0  501 -0.00000000000E+00  0.00000000000E+00  0.19824314222E+02  0.19864952413E+02  0.12700000000E+01 0.  1.
          4   -1    0    0  501    0  0.00000000000E+00 -0.00000000000E+00 -0.19679927807E+03  0.19680337585E+03  0.12700000000E+01 0.  1.
         25    2    1    2    0    0  0.00000000000E+00  0.00000000000E+00 -0.17697496384E+03  0.21666832827E+03  0.12500010659E+03 0.  0.
    9000005    1    3    3    0    0  0.17812722159E+02  0.50391852886E+02 -0.14461748963E+03  0.15418122523E+03  0.10000000000E+01 0.  0.
    9000005    1    3    3    0    0 -0.17812722159E+02 -0.50391852886E+02 -0.32357474217E+02  0.62487103035E+02  0.10000000000E+01 0.  0.
<mgrwt>
<rscale>  0 0.12500011E+03</rscale>
<asrwt>0</asrwt>
<pdfrwt beam="2">  1        4 0.49205406E-01 0.12500011E+03</pdfrwt>
<pdfrwt beam="1">  1       -4 0.49616712E-02 0.12500011E+03</pdfrwt>
<totfact> 0.15675640E+03</totfact>
</mgrwt>
</event>
<event>
 5    1  0.1466870E-002  0.1249970E+03  0.7818608E-02  0.1235074E+00
          4   -1    0    0  501    0  0.00000000000E+00  0.00000000000E+00  0.26119466523E+03  0.26119775276E+03  0.12700000000E+01 0. -1.
         -4   -1    0    0    0  501 -0.00000000000E+00 -0.00000000000E+00 -0.14924457886E+02  0.14978395881E+02  0.12700000000E+01 0. -1.
         25    2    1    2    0    0  0.00000000000E+00  0.00000000000E+00  0.24627020735E+03  0.27617614864E+03  0.12499700017E+03 0.  0.
    9000005    1    3    3    0    0  0.47060444642E+02  0.35925122843E+02  0.16731123347E+03  0.17748055878E+03  0.10000000000E+01 0.  0.
    9000005    1    3    3    0    0 -0.47060444642E+02 -0.35925122843E+02  0.78958973876E+02  0.98695589855E+02  0.10000000000E+01 0.  0.
<mgrwt>
<rscale>  0 0.12499700E+03</rscale>
<asrwt>0</asrwt>
<pdfrwt beam="1">  1        4 0.65305795E-01 0.12499700E+03</pdfrwt>
<pdfrwt beam="2">  1       -4 0.37382426E-02 0.12499700E+03</pdfrwt>
<totfact> 0.13666993E+03</totfact>
</mgrwt>
</event>
<event>
 5    1  0.1466870E-002  0.1249986E+03  0.7818608E-02  0.1235071E+00
          4   -1    0    0  501    0  0.00000000000E+00  0.00000000000E+00  0.13031000018E+03  0.13031618874E+03  0.12700000000E+01 0.  1.
         -4   -1    0    0    0  501 -0.00000000000E+00 -0.00000000000E+00 -0.29955570117E+02  0.29982479568E+02  0.12700000000E+01 0.  1.
         25    2    1    2    0    0  0.00000000000E+00  0.00000000000E+00  0.10035443007E+03  0.16029866831E+03  0.12499860570E+03 0.  0.
    9000005    1    3    3    0    0  0.13913413186E+01 -0.61736725542E+02  0.62464472149E+02  0.87841729219E+02  0.10000000000E+01 0.  0.
    9000005    1    3    3    0    0 -0.13913413186E+01  0.61736725542E+02  0.37889957918E+02  0.72456939091E+02  0.10000000000E+01 0.  0.
<mgrwt>
<rscale>  0 0.12499861E+03</rscale>
<asrwt>0</asrwt>
<pdfrwt beam="1">  1        4 0.32581636E-01 0.12499861E+03</pdfrwt>
<pdfrwt beam="2">  1       -4 0.74930300E-02 0.12499861E+03</pdfrwt>
<totfact> 0.18044292E+03</totfact>
</mgrwt>
</event>
<event>
 5    1  0.1466870E-002  0.1250008E+03  0.7818608E-02  0.1235068E+00
         -4   -1    0    0    0  501 -0.00000000000E+00  0.00000000000E+00  0.56148612104E+02  0.56162973044E+02  0.12700000000E+01 0.  1.
          4   -1    0    0  501    0  0.00000000000E+00 -0.00000000000E+00 -0.69541704275E+02  0.69553299947E+02  0.12700000000E+01 0.  1.
         25    2    1    2    0    0  0.00000000000E+00  0.00000000000E+00 -0.13393092171E+02  0.12571627299E+03  0.12500082550E+03 0.  0.
    9000005    1    3    3    0    0  0.31332913558E+01  0.16046250671E+02  0.53964525535E+02  0.56395653126E+02  0.10000000000E+01 0.  0.
    9000005    1    3    3    0    0 -0.31332913558E+01 -0.16046250671E+02 -0.67357617706E+02  0.69320619864E+02  0.10000000000E+01 0.  0.
<mgrwt>
<rscale>  0 0.12500083E+03</rscale>
<asrwt>0</asrwt>
<pdfrwt beam="2">  1        4 0.17388671E-01 0.12500083E+03</pdfrwt>
<pdfrwt beam="1">  1       -4 0.14040398E-01 0.12500083E+03</pdfrwt>
<totfact> 0.19795878E+03</totfact>
</mgrwt>
</event>
<event>
 5    1  0.1466870E-002  0.1249969E+03  0.7818608E-02  0.1235074E+00
         -4   -1    0    0    0  501 -0.00000000000E+00  0.00000000000E+00  0.19972162604E+03  0.19972566387E+03  0.12700000000E+01 0. -1.
          4   -1    0    0  501    0  0.00000000000E+00 -0.00000000000E+00 -0.19532638751E+02  0.19573882512E+02  0.12700000000E+01 0. -1.
         25    2    1    2    0    0  0.00000000000E+00  0.00000000000E+00  0.18018898729E+03  0.21929954638E+03  0.12499687957E+03 0.  0.
    9000005    1    3    3    0    0  0.50077124272E+02 -0.36048619383E+02  0.72741169862E+02  0.95391294821E+02  0.10000000000E+01 0.  0.
    9000005    1    3    3    0    0 -0.50077124272E+02  0.36048619383E+02  0.10744781742E+03  0.12390825156E+03  0.10000000000E+01 0.  0.
<mgrwt>
<rscale>  0 0.12499688E+03</rscale>
<asrwt>0</asrwt>
<pdfrwt beam="2">  1        4 0.48888198E-02 0.12499688E+03</pdfrwt>
<pdfrwt beam="1">  1       -4 0.49936067E-01 0.12499688E+03</pdfrwt>
<totfact> 0.15578474E+03</totfact>
</mgrwt>
</event>
<event>
 5    1  0.1466870E-002  0.1249950E+03  0.7818608E-02  0.1235077E+00
         -4   -1    0    0    0  501 -0.00000000000E+00  0.00000000000E+00  0.87422961794E+02  0.87432186000E+02  0.12700000000E+01 0.  1.
          4   -1    0    0  501    0  0.00000000000E+00 -0.00000000000E+00 -0.44657986385E+02  0.44676041096E+02  0.12700000000E+01 0.  1.
         25    2    1    2    0    0  0.00000000000E+00  0.00000000000E+00  0.42764975409E+02  0.13210822710E+03  0.12499496208E+03 0.  0.
    9000005    1    3    3    0    0 -0.37845629443E+02 -0.37876864743E+02  0.55433750754E+02  0.77076904929E+02  0.10000000000E+01 0.  0.
    9000005    1    3    3    0    0  0.37845629443E+02  0.37876864743E+02 -0.12668775345E+02  0.55031322167E+02  0.10000000000E+01 0.  0.
<mgrwt>
<rscale>  0 0.12499496E+03</rscale>
<asrwt>0</asrwt>
<pdfrwt beam="2">  1        4 0.11167907E-01 0.12499496E+03</pdfrwt>
<pdfrwt beam="1">  1       -4 0.21859150E-01 0.12499496E+03</pdfrwt>
<totfact> 0.19453988E+03</totfact>
</mgrwt>
</event>
<event>
 5    1  0.1466870E-002  0.1249979E+03  0.7818608E-02  0.1235073E+00
         -4   -1    0    0    0  501 -0.00000000000E+00  0.00000000000E+00  0.33142045014E+03  0.33142288345E+03  0.12700000000E+01 0. -1.
          4   -1    0    0  501    0  0.00000000000E+00 -0.00000000000E+00 -0.11749290366E+02  0.11817729228E+02  0.12700000000E+01 0. -1.
         25    2    1    2    0    0  0.00000000000E+00  0.00000000000E+00  0.31967115978E+03  0.34324061267E+03  0.12499787117E+03 0.  0.
    9000005    1    3    3    0    0  0.41882571168E+02 -0.43568771414E+02  0.20348956365E+03  0.21227668295E+03  0.10000000000E+01 0.  0.
    9000005    1    3    3    0    0 -0.41882571168E+02  0.43568771414E+02  0.11618159613E+03  0.13096392973E+03  0.10000000000E+01 0.  0.
<mgrwt>
<rscale>  0 0.12499787E+03</rscale>
<asrwt>0</asrwt>
<pdfrwt beam="2">  1        4 0.29461816E-02 0.12499787E+03</pdfrwt>
<pdfrwt beam="1">  1       -4 0.82863971E-01 0.12499787E+03</pdfrwt>
<totfact> 0.11840794E+03</totfact>
</mgrwt>
</event>
<event>
 5    1  0.1466870E-002  0.1249822E+03  0.7818608E-02  0.1235097E+00
         -4   -1    0    0    0  501 -0.00000000000E+00  0.00000000000E+00  0.21917568174E+02  0.21954332025E+02  0.12700000000E+01 0.  1.
          4   -1    0    0  501    0  0.00000000000E+00 -0.00000000000E+00 -0.17798554499E+03  0.17799007591E+03  0.12700000000E+01 0.  1.
         25    2    1    2    0    0  0.00000000000E+00  0.00000000000E+00 -0.15606797681E+03  0.19994440794E+03  0.12498221025E+03 0.  0.
    9000005    1    3    3    0    0  0.42238247646E+02 -0.34779307427E+02 -0.12630578996E+03  0.13765108923E+03  0.10000000000E+01 0.  0.
    9000005    1    3    3    0    0 -0.42238247646E+02  0.34779307427E+02 -0.29762186851E+02  0.62293318706E+02  0.10000000000E+01 0.  0.
<mgrwt>
<rscale>  0 0.12498221E+03</rscale>
<asrwt>0</asrwt>
<pdfrwt beam="2">  1        4 0.44501544E-01 0.12498221E+03</pdfrwt>
<pdfrwt beam="1">  1       -4 0.54845544E-02 0.12498221E+03</pdfrwt>
<totfact> 0.16330984E+03</totfact>
</mgrwt>
</event>
<event>
 5    1  0.1466870E-002  0.1249981E+03  0.7818608E-02  0.1235072E+00
         -4   -1    0    0    0  501 -0.00000000000E+00  0.00000000000E+00  0.35737024492E+01  0.37926572736E+01  0.12700000000E+01 0.  1.
          4   -1    0    0  501    0  0.00000000000E+00 -0.00000000000E+00 -0.10603128210E+04  0.10603135816E+04  0.12700000000E+01 0.  1.
         25    2    1    2    0    0  0.00000000000E+00  0.00000000000E+00 -0.10567391186E+04  0.10641062389E+04  0.12499809153E+03 0.  0.
    9000005    1    3    3    0    0 -0.60039303333E+02  0.14878821697E+02 -0.45268852570E+03  0.45689604789E+03  0.10000000000E+01 0.  0.
    9000005    1    3    3    0    0  0.60039303333E+02 -0.14878821697E+02 -0.60405059288E+03  0.60721019098E+03  0.10000000000E+01 0.  0.
<mgrwt>
<rscale>  0 0.12499809E+03</rscale>
<asrwt>0</asrwt>
<pdfrwt beam="2">  1        4 0.26510462E+00 0.12499809E+03</pdfrwt>
<pdfrwt beam="1">  1       -4 0.92089367E-03 0.12499809E+03</pdfrwt>
<totfact> 0.32966533E+02</totfact>
</mgrwt>
</event>
<event>
 5    1  0.1466870E-002  0.1250022E+03  0.7818608E-02  0.1235066E+00
         -4   -1    0    0    0  501 -0.00000000000E+00  0.00000000000E+00  0.13738567900E+03  0.13739154884E+03  0.12700000000E+01 0. -1.
          4   -1    0    0  501    0  0.00000000000E+00 -0.00000000000E+00 -0.28413056857E+02  0.28441425772E+02  0.12700000000E+01 0. -1.
         25    2    1    2    0    0  0.00000000000E+00  0.00000000000E+00  0.10897262214E+03  0.16583297462E+03  0.12500217236E+03 0.  0.
    9000005    1    3    3    0    0  0.13369597448E+02 -0.59946101928E+02  0.39180734256E+02  0.72858844413E+02  0.10000000000E+01 0.  0.
    9000005    1    3    3    0    0 -0.13369597448E+02  0.59946101928E+02  0.69791887885E+02  0.92974130202E+02  0.10000000000E+01 0.  0.
<mgrwt>
<rscale>  0 0.12500217E+03</rscale>
<asrwt>0</asrwt>
<pdfrwt beam="2">  1        4 0.71075442E-02 0.12500217E+03</pdfrwt>
<pdfrwt beam="1">  1       -4 0.34350699E-01 0.12500217E+03</pdfrwt>
<totfact> 0.17785754E+03</totfact>
</mgrwt>
</event>
<event>
 5    1  0.1466870E-002  0.1249990E+03  0.7818608E-02  0.1235071E+00
          4   -1    0    0  501    0  0.00000000000E+00  0.00000000000E+00  0.98340040119E+01  0.99156711778E+01  0.12700000000E+01 0. -1.
         -4   -1    0    0    0  501 -0.00000000000E+00 -0.00000000000E+00 -0.39548683095E+03  0.39548887007E+03  0.12700000000E+01 0. -1.
         25    2    1    2    0    0  0.00000000000E+00  0.00000000000E+00 -0.38565282694E+03  0.40540454125E+03  0.12499895657E+03 0.  0.
    9000005    1    3    3    0    0  0.91341942552E+01  0.53445328151E+02 -0.92058048330E+02  0.10684344092E+03  0.10000000000E+01 0.  0.
    9000005    1    3    3    0    0 -0.91341942552E+01 -0.53445328151E+02 -0.29359477861E+03  0.29856110033E+03  0.10000000000E+01 0.  0.
<mgrwt>
<rscale>  0 0.12499896E+03</rscale>
<asrwt>0</asrwt>
<pdfrwt beam="1">  1        4 0.24689656E-02 0.12499896E+03</pdfrwt>
<pdfrwt beam="2">  1       -4 0.98882118E-01 0.12499896E+03</pdfrwt>
<totfact> 0.10458968E+03</totfact>
</mgrwt>
</event>
<event>
 5    1  0.1466870E-002  0.1249987E+03  0.7818608E-02  0.1235071E+00
          4   -1    0    0  501    0  0.00000000000E+00  0.00000000000E+00  0.67297659371E+03  0.67297779204E+03  0.12700000000E+01 0.  1.
         -4   -1    0    0    0  501 -0.00000000000E+00 -0.00000000000E+00 -0.57336242443E+01  0.58725928665E+01  0.12700000000E+01 0.  1.
         25    2    1    2    0    0  0.00000000000E+00  0.00000000000E+00  0.66724296946E+03  0.67885038490E+03  0.12499865915E+03 0.  0.
    9000005    1    3    3    0    0  0.43669197892E+02  0.27218255921E+02  0.14104909215E+03  0.15014552506E+03  0.10000000000E+01 0.  0.
    9000005    1    3    3    0    0 -0.43669197892E+02 -0.27218255921E+02  0.52619387732E+03  0.52870485985E+03  0.10000000000E+01 0.  0.
<mgrwt>
<rscale>  0 0.12499866E+03</rscale>
<asrwt>0</asrwt>
<pdfrwt beam="1">  1        4 0.16826172E+00 0.12499866E+03</pdfrwt>
<pdfrwt beam="2">  1       -4 0.14509265E-02 0.12499866E+03</pdfrwt>
<totfact> 0.64306093E+02</totfact>
</mgrwt>
</event>
<event>
 5    1  0.1466870E-002  0.1249965E+03  0.7818608E-02  0.1235075E+00
         -4   -1    0    0    0  501 -0.00000000000E+00  0.00000000000E+00  0.84101053520E+03  0.84101149410E+03  0.12700000000E+01 0.  1.
          4   -1    0    0  501    0  0.00000000000E+00 -0.00000000000E+00 -0.45566509967E+01  0.47303243341E+01  0.12700000000E+01 0.  1.
         25    2    1    2    0    0  0.00000000000E+00  0.00000000000E+00  0.83645388420E+03  0.84574181844E+03  0.12499649218E+03 0.  0.
    9000005    1    3    3    0    0 -0.58207115340E+02  0.21634645990E+02  0.37091020894E+03  0.37607380829E+03  0.10000000000E+01 0.  0.
    9000005    1    3    3    0    0  0.58207115340E+02 -0.21634645990E+02  0.46554367525E+03  0.46966801014E+03  0.10000000000E+01 0.  0.
<mgrwt>
<rscale>  0 0.12499649E+03</rscale>
<asrwt>0</asrwt>
<pdfrwt beam="2">  1        4 0.11609914E-02 0.12499649E+03</pdfrwt>
<pdfrwt beam="1">  1       -4 0.21027454E+00 0.12499649E+03</pdfrwt>
<totfact> 0.48585074E+02</totfact>
</mgrwt>
</event>
<event>
 5    1  0.1466870E-002  0.1250293E+03  0.7818608E-02  0.1235024E+00
         -4   -1    0    0    0  501 -0.00000000000E+00  0.00000000000E+00  0.17923144915E+02  0.17968083472E+02  0.12700000000E+01 0. -1.
          4   -1    0    0  501    0  0.00000000000E+00 -0.00000000000E+00 -0.21772676144E+03  0.21773046537E+03  0.12700000000E+01 0. -1.
         25    2    1    2    0    0  0.00000000000E+00  0.00000000000E+00 -0.19980361653E+03  0.23569854884E+03  0.12502927956E+03 0.  0.
    9000005    1    3    3    0    0  0.93499937991E+01  0.47474163831E+02 -0.25304722258E+02  0.54612705335E+02  0.10000000000E+01 0.  0.
    9000005    1    3    3    0    0 -0.93499937991E+01 -0.47474163831E+02 -0.17449889427E+03  0.18108584350E+03  0.10000000000E+01 0.  0.
<mgrwt>
<rscale>  0 0.12502928E+03</rscale>
<asrwt>0</asrwt>
<pdfrwt beam="2">  1        4 0.54437762E-01 0.12502928E+03</pdfrwt>
<pdfrwt beam="1">  1       -4 0.44868672E-02 0.12502928E+03</pdfrwt>
<totfact> 0.14975702E+03</totfact>
</mgrwt>
</event>
<event>
 5    1  0.1466870E-002  0.1250134E+03  0.7818608E-02  0.1235048E+00
         -4   -1    0    0    0  501 -0.00000000000E+00  0.00000000000E+00  0.29693366285E+03  0.29693637876E+03  0.12700000000E+01 0. -1.
          4   -1    0    0  501    0  0.00000000000E+00 -0.00000000000E+00 -0.13124686698E+02  0.13185988811E+02  0.12700000000E+01 0. -1.
         25    2    1    2    0    0  0.00000000000E+00  0.00000000000E+00  0.28380897615E+03  0.31012236757E+03  0.12501339099E+03 0.  0.
    9000005    1    3    3    0    0 -0.58792981563E+02 -0.13702205064E+02  0.18203702077E+03  0.19178853468E+03  0.10000000000E+01 0.  0.
    9000005    1    3    3    0    0  0.58792981563E+02  0.13702205064E+02  0.10177195538E+03  0.11833383289E+03  0.10000000000E+01 0.  0.
<mgrwt>
<rscale>  0 0.12501339E+03</rscale>
<asrwt>0</asrwt>
<pdfrwt beam="2">  1        4 0.32891740E-02 0.12501339E+03</pdfrwt>
<pdfrwt beam="1">  1       -4 0.74241417E-01 0.12501339E+03</pdfrwt>
<totfact> 0.12688136E+03</totfact>
</mgrwt>
</event>
<event>
 5    1  0.1466870E-002  0.1249996E+03  0.7818608E-02  0.1235070E+00
          4   -1    0    0  501    0  0.00000000000E+00  0.00000000000E+00  0.18297535465E+03  0.18297976202E+03  0.12700000000E+01 0.  1.
         -4   -1    0    0    0  501 -0.00000000000E+00 -0.00000000000E+00 -0.21324826809E+02  0.21362610758E+02  0.12700000000E+01 0.  1.
         25    2    1    2    0    0  0.00000000000E+00  0.00000000000E+00  0.16165052784E+03  0.20434237278E+03  0.12499964865E+03 0.  0.
    9000005    1    3    3    0    0 -0.60161798328E+02 -0.11423878132E+02  0.10119610207E+03  0.11828608559E+03  0.10000000000E+01 0.  0.
    9000005    1    3    3    0    0  0.60161798328E+02  0.11423878132E+02  0.60454425766E+02  0.86056287187E+02  0.10000000000E+01 0.  0.
<mgrwt>
<rscale>  0 0.12499965E+03</rscale>
<asrwt>0</asrwt>
<pdfrwt beam="1">  1        4 0.45749113E-01 0.12499965E+03</pdfrwt>
<pdfrwt beam="2">  1       -4 0.53364806E-02 0.12499965E+03</pdfrwt>
<totfact> 0.16149761E+03</totfact>
</mgrwt>
</event>
<event>
 5    1  0.1466870E-002  0.1249951E+03  0.7818608E-02  0.1235077E+00
          4   -1    0    0  501    0  0.00000000000E+00  0.00000000000E+00  0.22123563946E+02  0.22159986048E+02  0.12700000000E+01 0. -1.
         -4   -1    0    0    0  501 -0.00000000000E+00 -0.00000000000E+00 -0.17636743642E+03  0.17637200892E+03  0.12700000000E+01 0. -1.
         25    2    1    2    0    0  0.00000000000E+00  0.00000000000E+00 -0.15424387247E+03  0.19853199496E+03  0.12499512322E+03 0.  0.
    9000005    1    3    3    0    0 -0.90734570844E+01 -0.13025106967E+02 -0.17311948506E+03  0.17384860408E+03  0.10000000000E+01 0.  0.
    9000005    1    3    3    0    0  0.90734570844E+01  0.13025106967E+02  0.18875612585E+02  0.24683390881E+02  0.10000000000E+01 0.  0.
<mgrwt>
<rscale>  0 0.12499512E+03</rscale>
<asrwt>0</asrwt>
<pdfrwt beam="1">  1        4 0.55360158E-02 0.12499512E+03</pdfrwt>
<pdfrwt beam="2">  1       -4 0.44096979E-01 0.12499512E+03</pdfrwt>
<totfact> 0.16382839E+03</totfact>
</mgrwt>
</event>
<event>
 5    1  0.1466870E-002  0.1249925E+03  0.7818608E-02  0.1235081E+00
         -4   -1    0    0    0  501 -0.00000000000E+00  0.00000000000E+00  0.28327489668E+02  0.28355944190E+02  0.12700000000E+01 0. -1.
          4   -1    0    0  501    0  0.00000000000E+00 -0.00000000000E+00 -0.13777886961E+03  0.13778472271E+03  0.12700000000E+01 0. -1.
         25    2    1    2    0    0  0.00000000000E+00  0.00000000000E+00 -0.10945137995E+03  0.16614066690E+03  0.12499246628E+03 0.  0.
    9000005    1    3    3    0    0 -0.26771063649E+02 -0.35386349260E+02  0.37577726181E+01  0.44542164495E+02  0.10000000000E+01 0.  0.
    9000005    1    3    3    0    0  0.26771063649E+02  0.35386349260E+02 -0.11320915256E+03  0.12159850240E+03  0.10000000000E+01 0.  0.
<mgrwt>
<rscale>  0 0.12499247E+03</rscale>
<asrwt>0</asrwt>
<pdfrwt beam="2">  1        4 0.34449004E-01 0.12499247E+03</pdfrwt>
<pdfrwt beam="1">  1       -4 0.70861612E-02 0.12499247E+03</pdfrwt>
<totfact> 0.17775647E+03</totfact>
</mgrwt>
</event>
<event>
 5    1  0.1466870E-002  0.1249903E+03  0.7818608E-02  0.1235084E+00
         -4   -1    0    0    0  501 -0.00000000000E+00  0.00000000000E+00  0.24571380050E+02  0.24604178864E+02  0.12700000000E+01 0. -1.
          4   -1    0    0  501    0  0.00000000000E+00 -0.00000000000E+00 -0.15880964857E+03  0.15881472658E+03  0.12700000000E+01 0. -1.
         25    2    1    2    0    0  0.00000000000E+00  0.00000000000E+00 -0.13423826852E+03  0.18341890544E+03  0.12499032818E+03 0.  0.
    9000005    1    3    3    0    0  0.58102810008E+02 -0.81566855145E+01 -0.98667152394E+02  0.11479841032E+03  0.10000000000E+01 0.  0.
    9000005    1    3    3    0    0 -0.58102810008E+02  0.81566855145E+01 -0.35571116125E+02  0.68620495129E+02  0.10000000000E+01 0.  0.
<mgrwt>
<rscale>  0 0.12499033E+03</rscale>
<asrwt>0</asrwt>
<pdfrwt beam="2">  1        4 0.39707144E-01 0.12499033E+03</pdfrwt>
<pdfrwt beam="1">  1       -4 0.61475801E-02 0.12499033E+03</pdfrwt>
<totfact> 0.17012034E+03</totfact>
</mgrwt>
</event>
<event>
 5    1  0.1466870E-002  0.1249990E+03  0.7818608E-02  0.1235071E+00
          4   -1    0    0  501    0  0.00000000000E+00  0.00000000000E+00  0.30034577318E+02  0.30061416046E+02  0.12700000000E+01 0. -1.
         -4   -1    0    0    0  501 -0.00000000000E+00 -0.00000000000E+00 -0.12996823015E+03  0.12997443498E+03  0.12700000000E+01 0. -1.
         25    2    1    2    0    0  0.00000000000E+00  0.00000000000E+00 -0.99933652832E+02  0.16003585103E+03  0.12499895458E+03 0.  0.
    9000005    1    3    3    0    0  0.61752248092E+02  0.77310998855E+01 -0.57217721215E+02  0.84545713499E+02  0.10000000000E+01 0.  0.
    9000005    1    3    3    0    0 -0.61752248092E+02 -0.77310998855E+01 -0.42715931617E+02  0.75490137527E+02  0.10000000000E+01 0.  0.
<mgrwt>
<rscale>  0 0.12499895E+03</rscale>
<asrwt>0</asrwt>
<pdfrwt beam="1">  1        4 0.75127751E-02 0.12499895E+03</pdfrwt>
<pdfrwt beam="2">  1       -4 0.32496187E-01 0.12499895E+03</pdfrwt>
<totfact> 0.18056506E+03</totfact>
</mgrwt>
</event>
<event>
 5    1  0.1466870E-002  0.1249978E+03  0.7818608E-02  0.1235073E+00
         -4   -1    0    0    0  501 -0.00000000000E+00  0.00000000000E+00  0.69925091583E+02  0.69936623688E+02  0.12700000000E+01 0. -1.
          4   -1    0    0  501    0  0.00000000000E+00 -0.00000000000E+00 -0.55837996400E+02  0.55852437207E+02  0.12700000000E+01 0. -1.
         25    2    1    2    0    0  0.00000000000E+00  0.00000000000E+00  0.14087095182E+02  0.12578906090E+03  0.12499776634E+03 0.  0.
    9000005    1    3    3    0    0  0.35735569635E+01  0.58286326826E+02 -0.15346891363E+02  0.60387029060E+02  0.10000000000E+01 0.  0.
    9000005    1    3    3    0    0 -0.35735569635E+01 -0.58286326826E+02  0.29433986546E+02  0.65402031835E+02  0.10000000000E+01 0.  0.
<mgrwt>
<rscale>  0 0.12499777E+03</rscale>
<asrwt>0</asrwt>
<pdfrwt beam="2">  1        4 0.13962746E-01 0.12499777E+03</pdfrwt>
<pdfrwt beam="1">  1       -4 0.17484519E-01 0.12499777E+03</pdfrwt>
<totfact> 0.19793357E+03</totfact>
</mgrwt>
</event>
<event>
 5    1  0.1466870E-002  0.1250026E+03  0.7818608E-02  0.1235065E+00
         -4   -1    0    0    0  501 -0.00000000000E+00  0.00000000000E+00  0.18717967387E+03  0.18718398224E+03  0.12700000000E+01 0. -1.
          4   -1    0    0  501    0  0.00000000000E+00 -0.00000000000E+00 -0.20845994799E+02  0.20884645057E+02  0.12700000000E+01 0. -1.
         25    2    1    2    0    0  0.00000000000E+00  0.00000000000E+00  0.16633367907E+03  0.20806862730E+03  0.12500264347E+03 0.  0.
    9000005    1    3    3    0    0 -0.61235452746E+02 -0.12446358233E+02  0.81751794739E+02  0.10290310223E+03  0.10000000000E+01 0.  0.
    9000005    1    3    3    0    0  0.61235452746E+02  0.12446358233E+02  0.84581884329E+02  0.10516552507E+03  0.10000000000E+01 0.  0.
<mgrwt>
<rscale>  0 0.12500264E+03</rscale>
<asrwt>0</asrwt>
<pdfrwt beam="2">  1        4 0.52168686E-02 0.12500264E+03</pdfrwt>
<pdfrwt beam="1">  1       -4 0.46800288E-01 0.12500264E+03</pdfrwt>
<totfact> 0.16003002E+03</totfact>
</mgrwt>
</event>
<event>
 5    1  0.1466870E-002  0.1249992E+03  0.7818608E-02  0.1235071E+00
          4   -1    0    0  501    0  0.00000000000E+00  0.00000000000E+00  0.36529852044E+02  0.36551921843E+02  0.12700000000E+01 0. -1.
         -4   -1    0    0    0  501 -0.00000000000E+00 -0.00000000000E+00 -0.10687354936E+03  0.10688109493E+03  0.12700000000E+01 0. -1.
         25    2    1    2    0    0  0.00000000000E+00  0.00000000000E+00 -0.70343697319E+02  0.14343301677E+03  0.12499917819E+03 0.  0.
    9000005    1    3    3    0    0  0.34540389523E+02  0.28137858390E+02 -0.85457051278E+02  0.96377825231E+02  0.10000000000E+01 0.  0.
    9000005    1    3    3    0    0 -0.34540389523E+02 -0.28137858390E+02  0.15113353959E+02  0.47055191542E+02  0.10000000000E+01 0.  0.
<mgrwt>
<rscale>  0 0.12499918E+03</rscale>
<asrwt>0</asrwt>
<pdfrwt beam="1">  1        4 0.91361652E-02 0.12499918E+03</pdfrwt>
<pdfrwt beam="2">  1       -4 0.26722089E-01 0.12499918E+03</pdfrwt>
<totfact> 0.18866431E+03</totfact>
</mgrwt>
</event>
<event>
 5    1  0.1466870E-002  0.1250001E+03  0.7818608E-02  0.1235069E+00
         -4   -1    0    0    0  501 -0.00000000000E+00  0.00000000000E+00  0.16195262859E+03  0.16195760805E+03  0.12700000000E+01 0. -1.
          4   -1    0    0  501    0  0.00000000000E+00 -0.00000000000E+00 -0.24097686768E+02  0.24131129430E+02  0.12700000000E+01 0. -1.
         25    2    1    2    0    0  0.00000000000E+00  0.00000000000E+00  0.13785494182E+03  0.18608873748E+03  0.12500013294E+03 0.  0.
    9000005    1    3    3    0    0  0.33373460018E+02  0.50655062650E+01  0.14722009942E+03  0.15104371838E+03  0.10000000000E+01 0.  0.
    9000005    1    3    3    0    0 -0.33373460018E+02 -0.50655062650E+01 -0.93651576013E+01  0.35045019107E+02  0.10000000000E+01 0.  0.
<mgrwt>
<rscale>  0 0.12500013E+03</rscale>
<asrwt>0</asrwt>
<pdfrwt beam="2">  1        4 0.60292246E-02 0.12500013E+03</pdfrwt>
<pdfrwt beam="1">  1       -4 0.40492959E-01 0.12500013E+03</pdfrwt>
<totfact> 0.16894603E+03</totfact>
</mgrwt>
</event>
<event>
 5    1  0.1466870E-002  0.1250145E+03  0.7818608E-02  0.1235047E+00
         -4   -1    0    0    0  501 -0.00000000000E+00  0.00000000000E+00  0.44159963397E+02  0.44178221640E+02  0.12700000000E+01 0. -1.
          4   -1    0    0  501    0  0.00000000000E+00 -0.00000000000E+00 -0.88436212839E+02  0.88445331371E+02  0.12700000000E+01 0. -1.
         25    2    1    2    0    0  0.00000000000E+00  0.00000000000E+00 -0.44276249442E+02  0.13262355301E+03  0.12501448136E+03 0.  0.
    9000005    1    3    3    0    0  0.57735818743E+02 -0.22380004555E+02 -0.31131472097E+02  0.69314197137E+02  0.10000000000E+01 0.  0.
    9000005    1    3    3    0    0 -0.57735818743E+02  0.22380004555E+02 -0.13144777345E+02  0.63309355874E+02  0.10000000000E+01 0.  0.
<mgrwt>
<rscale>  0 0.12501448E+03</rscale>
<asrwt>0</asrwt>
<pdfrwt beam="2">  1        4 0.22112475E-01 0.12501448E+03</pdfrwt>
<pdfrwt beam="1">  1       -4 0.11043413E-01 0.12501448E+03</pdfrwt>
<totfact> 0.19417786E+03</totfact>
</mgrwt>
</event>
<event>
 5    1  0.1466870E-002  0.1250045E+03  0.7818608E-02  0.1235062E+00
          4   -1    0    0  501    0  0.00000000000E+00  0.00000000000E+00  0.26056150773E+02  0.26087082878E+02  0.12700000000E+01 0. -1.
         -4   -1    0    0    0  501 -0.00000000000E+00 -0.00000000000E+00 -0.14980491319E+03  0.14981029643E+03  0.12700000000E+01 0. -1.
         25    2    1    2    0    0  0.00000000000E+00  0.00000000000E+00 -0.12374876241E+03  0.17589737930E+03  0.12500452731E+03 0.  0.
    9000005    1    3    3    0    0 -0.25333344335E+02 -0.45492127277E+01  0.18258557716E+02  0.31572909298E+02  0.10000000000E+01 0.  0.
    9000005    1    3    3    0    0  0.25333344335E+02  0.45492127277E+01 -0.14200732013E+03  0.14432447001E+03  0.10000000000E+01 0.  0.
<mgrwt>
<rscale>  0 0.12500453E+03</rscale>
<asrwt>0</asrwt>
<pdfrwt beam="1">  1        4 0.65185775E-02 0.12500453E+03</pdfrwt>
<pdfrwt beam="2">  1       -4 0.37455765E-01 0.12500453E+03</pdfrwt>
<totfact> 0.17332464E+03</totfact>
</mgrwt>
</event>
