<event>
 5    1  0.3267085E-002  0.1249923E+03  0.7818608E-02  0.1235081E+00
         -4   -1    0    0    0  501 -0.00000000000E+00  0.00000000000E+00  0.14149184816E+02  0.14206066695E+02  0.12700000000E+01 0.  1.
          4   -1    0    0  501    0  0.00000000000E+00 -0.00000000000E+00 -0.27542999763E+03  0.27543292558E+03  0.12700000000E+01 0.  1.
         25    2    1    2    0    0  0.00000000000E+00  0.00000000000E+00 -0.26128081282E+03  0.28963899228E+03  0.12499233057E+03 0.  0.
    9000005    1    3    3    0    0  0.38480617742E+01 -0.46986631789E+02 -0.22568228176E+03  0.23055594429E+03  0.10000000000E+01 0.  0.
    9000005    1    3    3    0    0 -0.38480617742E+01  0.46986631789E+02 -0.35598531052E+02  0.59083047987E+02  0.10000000000E+01 0.  0.
<mgrwt>
<rscale>  0 0.12499233E+03</rscale>
<asrwt>0</asrwt>
<pdfrwt beam="2">  1        4 0.42378442E-01 0.12499233E+03</pdfrwt>
<pdfrwt beam="1">  1       -4 0.21813986E-02 0.12499233E+03</pdfrwt>
<totfact> 0.76930268E+03</totfact>
</mgrwt>
</event>
<event>
 5    1  0.3267085E-002  0.1249995E+03  0.7818608E-02  0.1235070E+00
         -4   -1    0    0    0  501 -0.00000000000E+00  0.00000000000E+00  0.32735758294E+02  0.32760384172E+02  0.12700000000E+01 0.  1.
          4   -1    0    0  501    0  0.00000000000E+00 -0.00000000000E+00 -0.11925285555E+03  0.11925961788E+03  0.12700000000E+01 0.  1.
         25    2    1    2    0    0  0.00000000000E+00  0.00000000000E+00 -0.86517097258E+02  0.15202000205E+03  0.12499949162E+03 0.  0.
    9000005    1    3    3    0    0 -0.53167361082E+02  0.17043363606E+02 -0.91197410055E+01  0.56581041024E+02  0.10000000000E+01 0.  0.
    9000005    1    3    3    0    0  0.53167361082E+02 -0.17043363606E+02 -0.77397356252E+02  0.95438961028E+02  0.10000000000E+01 0.  0.
<mgrwt>
<rscale>  0 0.12499949E+03</rscale>
<asrwt>0</asrwt>
<pdfrwt beam="2">  1        4 0.18349007E-01 0.12499949E+03</pdfrwt>
<pdfrwt beam="1">  1       -4 0.50386851E-02 0.12499949E+03</pdfrwt>
<totfact> 0.98903686E+03</totfact>
</mgrwt>
</event>
<event>
 5    1  0.3267085E-002  0.1249977E+03  0.7818608E-02  0.1235073E+00
          4   -1    0    0  501    0  0.00000000000E+00  0.00000000000E+00  0.33679704988E+03  0.33679944434E+03  0.12700000000E+01 0.  1.
         -4   -1    0    0    0  501 -0.00000000000E+00 -0.00000000000E+00 -0.11560600595E+02  0.11630149875E+02  0.12700000000E+01 0.  1.
         25    2    1    2    0    0  0.00000000000E+00  0.00000000000E+00  0.32523644928E+03  0.34842959421E+03  0.12499773671E+03 0.  0.
    9000005    1    3    3    0    0  0.50062090642E+02  0.72339495618E+01  0.60329763870E+02  0.78735146881E+02  0.10000000000E+01 0.  0.
    9000005    1    3    3    0    0 -0.50062090642E+02 -0.72339495618E+01  0.26490668541E+03  0.26969444733E+03  0.10000000000E+01 0.  0.
<mgrwt>
<rscale>  0 0.12499774E+03</rscale>
<asrwt>0</asrwt>
<pdfrwt beam="1">  1        4 0.51820465E-01 0.12499774E+03</pdfrwt>
<pdfrwt beam="2">  1       -4 0.17840881E-02 0.12499774E+03</pdfrwt>
<totfact> 0.69901165E+03</totfact>
</mgrwt>
</event>
<event>
 5    1  0.3267085E-002  0.1250004E+03  0.7818608E-02  0.1235069E+00
          4   -1    0    0  501    0  0.00000000000E+00  0.00000000000E+00  0.84668059317E+02  0.84677583624E+02  0.12700000000E+01 0. -1.
         -4   -1    0    0    0  501 -0.00000000000E+00 -0.00000000000E+00 -0.46115499301E+02  0.46132983599E+02  0.12700000000E+01 0. -1.
         25    2    1    2    0    0  0.00000000000E+00  0.00000000000E+00  0.38552560016E+02  0.13081056722E+03  0.12500041845E+03 0.  0.
    9000005    1    3    3    0    0 -0.59703679612E+02  0.16204931566E+02  0.28527254458E+02  0.68131735727E+02  0.10000000000E+01 0.  0.
    9000005    1    3    3    0    0  0.59703679612E+02 -0.16204931566E+02  0.10025305558E+02  0.62678831497E+02  0.10000000000E+01 0.  0.
<mgrwt>
<rscale>  0 0.12500042E+03</rscale>
<asrwt>0</asrwt>
<pdfrwt beam="1">  1        4 0.13027933E-01 0.12500042E+03</pdfrwt>
<pdfrwt beam="2">  1       -4 0.70967698E-02 0.12500042E+03</pdfrwt>
<totfact> 0.10327055E+04</totfact>
</mgrwt>
</event>
<event>
 5    1  0.3267085E-002  0.1249967E+03  0.7818608E-02  0.1235074E+00
         -4   -1    0    0    0  501 -0.00000000000E+00  0.00000000000E+00  0.50031331076E+01  0.51618059720E+01  0.12700000000E+01 0. -1.
          4   -1    0    0  501    0  0.00000000000E+00 -0.00000000000E+00 -0.76837335007E+03  0.76837439963E+03  0.12700000000E+01 0. -1.
         25    2    1    2    0    0  0.00000000000E+00  0.00000000000E+00 -0.76337021697E+03  0.77353620560E+03  0.12499669285E+03 0.  0.
    9000005    1    3    3    0    0 -0.11554370397E+02  0.59368126947E+02 -0.47893746215E+03  0.48274234393E+03  0.10000000000E+01 0.  0.
    9000005    1    3    3    0    0  0.11554370397E+02 -0.59368126947E+02 -0.28443275482E+03  0.29079386167E+03  0.10000000000E+01 0.  0.
<mgrwt>
<rscale>  0 0.12499669E+03</rscale>
<asrwt>0</asrwt>
<pdfrwt beam="2">  1        4 0.11822348E+00 0.12499669E+03</pdfrwt>
<pdfrwt beam="1">  1       -4 0.78199973E-03 0.12499669E+03</pdfrwt>
<totfact> 0.39475756E+03</totfact>
</mgrwt>
</event>
<event>
 5    1  0.3267085E-002  0.1250005E+03  0.7818608E-02  0.1235069E+00
         -4   -1    0    0    0  501 -0.00000000000E+00  0.00000000000E+00  0.72668155210E+02  0.72679252071E+02  0.12700000000E+01 0.  1.
          4   -1    0    0  501    0  0.00000000000E+00 -0.00000000000E+00 -0.53732353727E+02  0.53747360280E+02  0.12700000000E+01 0.  1.
         25    2    1    2    0    0  0.00000000000E+00  0.00000000000E+00  0.18935801483E+02  0.12642661235E+03  0.12500049493E+03 0.  0.
    9000005    1    3    3    0    0 -0.39946367671E+01  0.60417415767E+02 -0.61700534795E+01  0.60871099964E+02  0.10000000000E+01 0.  0.
    9000005    1    3    3    0    0  0.39946367671E+01 -0.60417415767E+02  0.25105854963E+02  0.65555512387E+02  0.10000000000E+01 0.  0.
<mgrwt>
<rscale>  0 0.12500049E+03</rscale>
<asrwt>0</asrwt>
<pdfrwt beam="2">  1        4 0.82685240E-02 0.12500049E+03</pdfrwt>
<pdfrwt beam="1">  1       -4 0.11181724E-01 0.12500049E+03</pdfrwt>
<totfact> 0.10421513E+04</totfact>
</mgrwt>
</event>
<event>
 5    1  0.3267085E-002  0.1249928E+03  0.7818608E-02  0.1235081E+00
         -4   -1    0    0    0  501 -0.00000000000E+00  0.00000000000E+00  0.55283175858E+02  0.55297761555E+02  0.12700000000E+01 0. -1.
          4   -1    0    0  501    0  0.00000000000E+00 -0.00000000000E+00 -0.70621156505E+02  0.70632574964E+02  0.12700000000E+01 0. -1.
         25    2    1    2    0    0  0.00000000000E+00  0.00000000000E+00 -0.15337980646E+02  0.12593033652E+03  0.12499278381E+03 0.  0.
    9000005    1    3    3    0    0 -0.28240232949E+02  0.54273909518E+02 -0.20477769539E+02  0.64525243561E+02  0.10000000000E+01 0.  0.
    9000005    1    3    3    0    0  0.28240232949E+02 -0.54273909518E+02  0.51397888927E+01  0.61405092958E+02  0.10000000000E+01 0.  0.
<mgrwt>
<rscale>  0 0.12499278E+03</rscale>
<asrwt>0</asrwt>
<pdfrwt beam="2">  1        4 0.10866794E-01 0.12499278E+03</pdfrwt>
<pdfrwt beam="1">  1       -4 0.85071043E-02 0.12499278E+03</pdfrwt>
<totfact> 0.10434183E+04</totfact>
</mgrwt>
</event>
<event>
 5    1  0.3267085E-002  0.1249965E+03  0.7818608E-02  0.1235075E+00
          4   -1    0    0  501    0  0.00000000000E+00  0.00000000000E+00  0.21202761432E+01  0.24715321005E+01  0.12700000000E+01 0.  1.
         -4   -1    0    0    0  501 -0.00000000000E+00 -0.00000000000E+00 -0.17009539681E+04  0.17009544422E+04  0.12700000000E+01 0.  1.
         25    2    1    2    0    0  0.00000000000E+00  0.00000000000E+00 -0.16988336920E+04  0.17034259743E+04  0.12499654815E+03 0.  0.
    9000005    1    3    3    0    0  0.57513454989E+02 -0.24423422413E+02 -0.83774780728E+03  0.84007540713E+03  0.10000000000E+01 0.  0.
    9000005    1    3    3    0    0 -0.57513454989E+02  0.24423422413E+02 -0.86108588470E+03  0.86335056721E+03  0.10000000000E+01 0.  0.
<mgrwt>
<rscale>  0 0.12499655E+03</rscale>
<asrwt>0</asrwt>
<pdfrwt beam="1">  1        4 0.35325385E-03 0.12499655E+03</pdfrwt>
<pdfrwt beam="2">  1       -4 0.26171127E+00 0.12499655E+03</pdfrwt>
<totfact> 0.14252024E+03</totfact>
</mgrwt>
</event>
<event>
 5    1  0.3267085E-002  0.1250039E+03  0.7818608E-02  0.1235063E+00
          4   -1    0    0  501    0  0.00000000000E+00  0.00000000000E+00  0.30549704969E+02  0.30576091537E+02  0.12700000000E+01 0.  1.
         -4   -1    0    0    0  501 -0.00000000000E+00 -0.00000000000E+00 -0.12778865286E+03  0.12779496352E+03  0.12700000000E+01 0.  1.
         25    2    1    2    0    0  0.00000000000E+00  0.00000000000E+00 -0.97238947895E+02  0.15837105506E+03  0.12500391231E+03 0.  0.
    9000005    1    3    3    0    0 -0.19153687709E+02  0.20342605353E+02  0.22201835957E+02  0.35701636730E+02  0.10000000000E+01 0.  0.
    9000005    1    3    3    0    0  0.19153687709E+02 -0.20342605353E+02 -0.11944078385E+03  0.12266941833E+03  0.10000000000E+01 0.  0.
<mgrwt>
<rscale>  0 0.12500391E+03</rscale>
<asrwt>0</asrwt>
<pdfrwt beam="1">  1        4 0.47024699E-02 0.12500391E+03</pdfrwt>
<pdfrwt beam="2">  1       -4 0.19662308E-01 0.12500391E+03</pdfrwt>
<totfact> 0.97649166E+03</totfact>
</mgrwt>
</event>
<event>
 5    1  0.3267085E-002  0.1250006E+03  0.7818608E-02  0.1235068E+00
          4   -1    0    0  501    0  0.00000000000E+00  0.00000000000E+00  0.52924039283E+02  0.52939274967E+02  0.12700000000E+01 0.  1.
         -4   -1    0    0    0  501 -0.00000000000E+00 -0.00000000000E+00 -0.73778053310E+02  0.73788983258E+02  0.12700000000E+01 0.  1.
         25    2    1    2    0    0  0.00000000000E+00  0.00000000000E+00 -0.20854014027E+02  0.12672825822E+03  0.12500064612E+03 0.  0.
    9000005    1    3    3    0    0  0.40313422807E+00 -0.60289790405E+02  0.62400667082E+01  0.60621446509E+02  0.10000000000E+01 0.  0.
    9000005    1    3    3    0    0 -0.40313422807E+00  0.60289790405E+02 -0.27094080736E+02  0.66106811716E+02  0.10000000000E+01 0.  0.
<mgrwt>
<rscale>  0 0.12500065E+03</rscale>
<asrwt>0</asrwt>
<pdfrwt beam="1">  1        4 0.81441726E-02 0.12500065E+03</pdfrwt>
<pdfrwt beam="2">  1       -4 0.11352482E-01 0.12500065E+03</pdfrwt>
<totfact> 0.10414903E+04</totfact>
</mgrwt>
</event>
<event>
 5    1  0.3267085E-002  0.1250015E+03  0.7818608E-02  0.1235067E+00
          4   -1    0    0  501    0  0.00000000000E+00  0.00000000000E+00  0.27925549400E+02  0.27954413055E+02  0.12700000000E+01 0. -1.
         -4   -1    0    0    0  501 -0.00000000000E+00 -0.00000000000E+00 -0.13978013699E+03  0.13978590628E+03  0.12700000000E+01 0. -1.
         25    2    1    2    0    0  0.00000000000E+00  0.00000000000E+00 -0.11185458759E+03  0.16774031934E+03  0.12500146386E+03 0.  0.
    9000005    1    3    3    0    0  0.98828159581E+00 -0.27925592947E+02 -0.13093647788E+03  0.13388867272E+03  0.10000000000E+01 0.  0.
    9000005    1    3    3    0    0 -0.98828159581E+00  0.27925592947E+02  0.19081890294E+02  0.33851646624E+02  0.10000000000E+01 0.  0.
<mgrwt>
<rscale>  0 0.12500146E+03</rscale>
<asrwt>0</asrwt>
<pdfrwt beam="1">  1        4 0.42989025E-02 0.12500146E+03</pdfrwt>
<pdfrwt beam="2">  1       -4 0.21507300E-01 0.12500146E+03</pdfrwt>
<totfact> 0.95867770E+03</totfact>
</mgrwt>
</event>
<event>
 5    1  0.3267085E-002  0.1249823E+03  0.7818608E-02  0.1235097E+00
          4   -1    0    0  501    0  0.00000000000E+00  0.00000000000E+00  0.36105844465E+02  0.36128173280E+02  0.12700000000E+01 0. -1.
         -4   -1    0    0    0  501 -0.00000000000E+00 -0.00000000000E+00 -0.10809873545E+03  0.10810619550E+03  0.12700000000E+01 0. -1.
         25    2    1    2    0    0  0.00000000000E+00  0.00000000000E+00 -0.71992890984E+02  0.14423436878E+03  0.12498230589E+03 0.  0.
    9000005    1    3    3    0    0 -0.13804365029E+02 -0.50051197012E+02 -0.76114199695E+02  0.92141490173E+02  0.10000000000E+01 0.  0.
    9000005    1    3    3    0    0  0.13804365029E+02  0.50051197012E+02  0.41213087106E+01  0.52092878608E+02  0.10000000000E+01 0.  0.
<mgrwt>
<rscale>  0 0.12498231E+03</rscale>
<asrwt>0</asrwt>
<pdfrwt beam="1">  1        4 0.55570368E-02 0.12498231E+03</pdfrwt>
<pdfrwt beam="2">  1       -4 0.16632866E-01 0.12498231E+03</pdfrwt>
<totfact> 0.10050572E+04</totfact>
</mgrwt>
</event>
<event>
 5    1  0.3267085E-002  0.1250416E+03  0.7818608E-02  0.1235004E+00
          4   -1    0    0  501    0  0.00000000000E+00  0.00000000000E+00  0.38145299815E+02  0.38166435490E+02  0.12700000000E+01 0. -1.
         -4   -1    0    0    0  501 -0.00000000000E+00 -0.00000000000E+00 -0.10241914141E+03  0.10242701513E+03  0.12700000000E+01 0. -1.
         25    2    1    2    0    0  0.00000000000E+00  0.00000000000E+00 -0.64273841598E+02  0.14059345062E+03  0.12504155966E+03 0.  0.
    9000005    1    3    3    0    0  0.59232705935E+02 -0.19226794852E+02 -0.38260869605E+02  0.73096355830E+02  0.10000000000E+01 0.  0.
    9000005    1    3    3    0    0 -0.59232705935E+02  0.19226794852E+02 -0.26012971993E+02  0.67497094787E+02  0.10000000000E+01 0.  0.
<mgrwt>
<rscale>  0 0.12504156E+03</rscale>
<asrwt>0</asrwt>
<pdfrwt beam="1">  1        4 0.58707392E-02 0.12504156E+03</pdfrwt>
<pdfrwt beam="2">  1       -4 0.15759022E-01 0.12504156E+03</pdfrwt>
<totfact> 0.10111831E+04</totfact>
</mgrwt>
</event>
<event>
 5    1  0.3267085E-002  0.1249994E+03  0.7818608E-02  0.1235070E+00
         -4   -1    0    0    0  501 -0.00000000000E+00  0.00000000000E+00  0.23450798711E+02  0.23485162554E+02  0.12700000000E+01 0.  1.
          4   -1    0    0  501    0  0.00000000000E+00 -0.00000000000E+00 -0.16641171871E+03  0.16641656476E+03  0.12700000000E+01 0.  1.
         25    2    1    2    0    0  0.00000000000E+00  0.00000000000E+00 -0.14296092000E+03  0.18990172731E+03  0.12499936555E+03 0.  0.
    9000005    1    3    3    0    0  0.34181866871E+02  0.68192635648E+01  0.73187938744E+01  0.35629582121E+02  0.10000000000E+01 0.  0.
    9000005    1    3    3    0    0 -0.34181866871E+02 -0.68192635648E+01 -0.15027971388E+03  0.15427214519E+03  0.10000000000E+01 0.  0.
<mgrwt>
<rscale>  0 0.12499937E+03</rscale>
<asrwt>0</asrwt>
<pdfrwt beam="2">  1        4 0.25604818E-01 0.12499937E+03</pdfrwt>
<pdfrwt beam="1">  1       -4 0.36108314E-02 0.12499937E+03</pdfrwt>
<totfact> 0.91865722E+03</totfact>
</mgrwt>
</event>
<event>
 5    1  0.3267085E-002  0.1250017E+03  0.7818608E-02  0.1235067E+00
          4   -1    0    0  501    0  0.00000000000E+00  0.00000000000E+00  0.58316407890E+01  0.59683275959E+01  0.12700000000E+01 0. -1.
         -4   -1    0    0    0  501 -0.00000000000E+00 -0.00000000000E+00 -0.66195852463E+03  0.66195974291E+03  0.12700000000E+01 0. -1.
         25    2    1    2    0    0  0.00000000000E+00  0.00000000000E+00 -0.65612688384E+03  0.66792807050E+03  0.12500167866E+03 0.  0.
    9000005    1    3    3    0    0 -0.58741717139E+02  0.20052392947E+02 -0.28928559946E+03  0.29587133327E+03  0.10000000000E+01 0.  0.
    9000005    1    3    3    0    0  0.58741717139E+02 -0.20052392947E+02 -0.36684128438E+03  0.37205673723E+03  0.10000000000E+01 0.  0.
<mgrwt>
<rscale>  0 0.12500168E+03</rscale>
<asrwt>0</asrwt>
<pdfrwt beam="1">  1        4 0.90778411E-03 0.12500168E+03</pdfrwt>
<pdfrwt beam="2">  1       -4 0.10185032E+00 0.12500168E+03</pdfrwt>
<totfact> 0.44832999E+03</totfact>
</mgrwt>
</event>
<event>
 5    1  0.3267085E-002  0.1249991E+03  0.7818608E-02  0.1235071E+00
          4   -1    0    0  501    0  0.00000000000E+00  0.00000000000E+00  0.88260598490E+01  0.89169631859E+01  0.12700000000E+01 0.  1.
         -4   -1    0    0    0  501 -0.00000000000E+00 -0.00000000000E+00 -0.44021561384E+03  0.44021744578E+03  0.12700000000E+01 0.  1.
         25    2    1    2    0    0  0.00000000000E+00  0.00000000000E+00 -0.43138955399E+03  0.44913440897E+03  0.12499908009E+03 0.  0.
    9000005    1    3    3    0    0 -0.60193061214E+02 -0.11339021804E+02 -0.17119040503E+03  0.18182115611E+03  0.10000000000E+01 0.  0.
    9000005    1    3    3    0    0  0.60193061214E+02  0.11339021804E+02 -0.26019914896E+03  0.26731325286E+03  0.10000000000E+01 0.  0.
<mgrwt>
<rscale>  0 0.12499908E+03</rscale>
<asrwt>0</asrwt>
<pdfrwt beam="1">  1        4 0.13649892E-02 0.12499908E+03</pdfrwt>
<pdfrwt beam="2">  1       -4 0.67732596E-01 0.12499908E+03</pdfrwt>
<totfact> 0.60040078E+03</totfact>
</mgrwt>
</event>
<event>
 5    1  0.3267085E-002  0.1249848E+03  0.7818608E-02  0.1235093E+00
          4   -1    0    0  501    0  0.00000000000E+00  0.00000000000E+00  0.45182012911E+03  0.45182191400E+03  0.12700000000E+01 0.  1.
         -4   -1    0    0    0  501 -0.00000000000E+00 -0.00000000000E+00 -0.85950271487E+01  0.86883480413E+01  0.12700000000E+01 0.  1.
         25    2    1    2    0    0  0.00000000000E+00  0.00000000000E+00  0.44322510196E+03  0.46051026204E+03  0.12498484082E+03 0.  0.
    9000005    1    3    3    0    0 -0.57648582424E+01 -0.14560070300E+02 -0.12656173940E+01  0.15742649875E+02  0.10000000000E+01 0.  0.
    9000005    1    3    3    0    0  0.57648582424E+01  0.14560070300E+02  0.44449071936E+03  0.44476761217E+03  0.10000000000E+01 0.  0.
<mgrwt>
<rscale>  0 0.12498484E+03</rscale>
<asrwt>0</asrwt>
<pdfrwt beam="1">  1        4 0.69518119E-01 0.12498484E+03</pdfrwt>
<pdfrwt beam="2">  1       -4 0.13296274E-02 0.12498484E+03</pdfrwt>
<totfact> 0.59083694E+03</totfact>
</mgrwt>
</event>
<event>
 5    1  0.3267085E-002  0.1249993E+03  0.7818608E-02  0.1235070E+00
         -4   -1    0    0    0  501 -0.00000000000E+00  0.00000000000E+00  0.19250613886E+02  0.19292460574E+02  0.12700000000E+01 0. -1.
          4   -1    0    0  501    0  0.00000000000E+00 -0.00000000000E+00 -0.20264908414E+03  0.20265306364E+03  0.12700000000E+01 0. -1.
         25    2    1    2    0    0  0.00000000000E+00  0.00000000000E+00 -0.18339847026E+03  0.22194552422E+03  0.12499926731E+03 0.  0.
    9000005    1    3    3    0    0  0.12724778529E+02  0.81747173651E+01  0.15960607628E+02  0.22011065137E+02  0.10000000000E+01 0.  0.
    9000005    1    3    3    0    0 -0.12724778529E+02 -0.81747173651E+01 -0.19935907788E+03  0.19993445908E+03  0.10000000000E+01 0.  0.
<mgrwt>
<rscale>  0 0.12499927E+03</rscale>
<asrwt>0</asrwt>
<pdfrwt beam="2">  1        4 0.31180306E-01 0.12499927E+03</pdfrwt>
<pdfrwt beam="1">  1       -4 0.29651581E-02 0.12499927E+03</pdfrwt>
<totfact> 0.86562846E+03</totfact>
</mgrwt>
</event>
<event>
 5    1  0.3267085E-002  0.1250015E+03  0.7818608E-02  0.1235067E+00
         -4   -1    0    0    0  501 -0.00000000000E+00  0.00000000000E+00  0.91241518700E+02  0.91250356901E+02  0.12700000000E+01 0. -1.
          4   -1    0    0  501    0  0.00000000000E+00 -0.00000000000E+00 -0.42792899177E+02  0.42811740446E+02  0.12700000000E+01 0. -1.
         25    2    1    2    0    0  0.00000000000E+00  0.00000000000E+00  0.48448619523E+02  0.13406209735E+03  0.12500150884E+03 0.  0.
    9000005    1    3    3    0    0 -0.60335302844E+02  0.43654057884E+01  0.74051518154E+01  0.60952783451E+02  0.10000000000E+01 0.  0.
    9000005    1    3    3    0    0  0.60335302844E+02 -0.43654057884E+01  0.41043467707E+02  0.73109313896E+02  0.10000000000E+01 0.  0.
<mgrwt>
<rscale>  0 0.12500151E+03</rscale>
<asrwt>0</asrwt>
<pdfrwt beam="2">  1        4 0.65856522E-02 0.12500151E+03</pdfrwt>
<pdfrwt beam="1">  1       -4 0.14039286E-01 0.12500151E+03</pdfrwt>
<totfact> 0.10257528E+04</totfact>
</mgrwt>
</event>
<event>
 5    1  0.3267085E-002  0.1249992E+03  0.7818608E-02  0.1235071E+00
         -4   -1    0    0    0  501 -0.00000000000E+00  0.00000000000E+00  0.10588495691E+03  0.10589257292E+03  0.12700000000E+01 0.  1.
          4   -1    0    0  501    0  0.00000000000E+00 -0.00000000000E+00 -0.36871115682E+02  0.36892981333E+02  0.12700000000E+01 0.  1.
         25    2    1    2    0    0  0.00000000000E+00  0.00000000000E+00  0.69013841228E+02  0.14278555426E+03  0.12499921689E+03 0.  0.
    9000005    1    3    3    0    0  0.19799735951E+02 -0.38492419474E+02 -0.16978699016E+02  0.46507764094E+02  0.10000000000E+01 0.  0.
    9000005    1    3    3    0    0 -0.19799735951E+02  0.38492419474E+02  0.85992540244E+02  0.96277790161E+02  0.10000000000E+01 0.  0.
<mgrwt>
<rscale>  0 0.12499922E+03</rscale>
<asrwt>0</asrwt>
<pdfrwt beam="2">  1        4 0.56747473E-02 0.12499922E+03</pdfrwt>
<pdfrwt beam="1">  1       -4 0.16292261E-01 0.12499922E+03</pdfrwt>
<totfact> 0.10076354E+04</totfact>
</mgrwt>
</event>
<event>
 5    1  0.3267085E-002  0.1250019E+03  0.7818608E-02  0.1235066E+00
          4   -1    0    0  501    0  0.00000000000E+00  0.00000000000E+00  0.35193583471E+02  0.35216490704E+02  0.12700000000E+01 0. -1.
         -4   -1    0    0    0  501 -0.00000000000E+00 -0.00000000000E+00 -0.11093398652E+03  0.11094125592E+03  0.12700000000E+01 0. -1.
         25    2    1    2    0    0  0.00000000000E+00  0.00000000000E+00 -0.75740403047E+02  0.14615774662E+03  0.12500191296E+03 0.  0.
    9000005    1    3    3    0    0 -0.47429193763E+02  0.28343381784E+02 -0.37312006676E+01  0.55387702339E+02  0.10000000000E+01 0.  0.
    9000005    1    3    3    0    0  0.47429193763E+02 -0.28343381784E+02 -0.72009202379E+02  0.90770044283E+02  0.10000000000E+01 0.  0.
<mgrwt>
<rscale>  0 0.12500191E+03</rscale>
<asrwt>0</asrwt>
<pdfrwt beam="1">  1        4 0.54167188E-02 0.12500191E+03</pdfrwt>
<pdfrwt beam="2">  1       -4 0.17069088E-01 0.12500191E+03</pdfrwt>
<totfact> 0.10007087E+04</totfact>
</mgrwt>
</event>
<event>
 5    1  0.3267085E-002  0.1249975E+03  0.7818608E-02  0.1235073E+00
          4   -1    0    0  501    0  0.00000000000E+00  0.00000000000E+00  0.16360346769E+02  0.16409565698E+02  0.12700000000E+01 0.  1.
         -4   -1    0    0    0  501 -0.00000000000E+00 -0.00000000000E+00 -0.23834428285E+03  0.23834766637E+03  0.12700000000E+01 0.  1.
         25    2    1    2    0    0  0.00000000000E+00  0.00000000000E+00 -0.22198393608E+03  0.25475723207E+03  0.12499751764E+03 0.  0.
    9000005    1    3    3    0    0  0.45098694075E+02 -0.27254246389E+02 -0.17945534964E+03  0.18703451197E+03  0.10000000000E+01 0.  0.
    9000005    1    3    3    0    0 -0.45098694075E+02  0.27254246389E+02 -0.42528586437E+02  0.67722720100E+02  0.10000000000E+01 0.  0.
<mgrwt>
<rscale>  0 0.12499752E+03</rscale>
<asrwt>0</asrwt>
<pdfrwt beam="1">  1        4 0.25210230E-02 0.12499752E+03</pdfrwt>
<pdfrwt beam="2">  1       -4 0.36672395E-01 0.12499752E+03</pdfrwt>
<totfact> 0.81652000E+03</totfact>
</mgrwt>
</event>
<event>
 5    1  0.3267085E-002  0.1250517E+03  0.7818608E-02  0.1234989E+00
          4   -1    0    0  501    0  0.00000000000E+00  0.00000000000E+00  0.15137710364E+03  0.15138243097E+03  0.12700000000E+01 0. -1.
         -4   -1    0    0    0  501 -0.00000000000E+00 -0.00000000000E+00 -0.25804697800E+02  0.25835930960E+02  0.12700000000E+01 0. -1.
         25    2    1    2    0    0  0.00000000000E+00  0.00000000000E+00  0.12557240584E+03  0.17721836193E+03  0.12505166411E+03 0.  0.
    9000005    1    3    3    0    0 -0.48262417740E+02 -0.35526708365E+01  0.66945909780E+01  0.48864097091E+02  0.10000000000E+01 0.  0.
    9000005    1    3    3    0    0  0.48262417740E+02  0.35526708365E+01  0.11887781486E+03  0.12835426484E+03  0.10000000000E+01 0.  0.
<mgrwt>
<rscale>  0 0.12505166E+03</rscale>
<asrwt>0</asrwt>
<pdfrwt beam="1">  1        4 0.23291597E-01 0.12505166E+03</pdfrwt>
<pdfrwt beam="2">  1       -4 0.39727659E-02 0.12505166E+03</pdfrwt>
<totfact> 0.94011139E+03</totfact>
</mgrwt>
</event>
<event>
 5    1  0.3267085E-002  0.1250001E+03  0.7818608E-02  0.1235069E+00
         -4   -1    0    0    0  501 -0.00000000000E+00  0.00000000000E+00  0.10052106816E+03  0.10052909054E+03  0.12700000000E+01 0. -1.
          4   -1    0    0  501    0  0.00000000000E+00 -0.00000000000E+00 -0.38840102821E+02  0.38860860607E+02  0.12700000000E+01 0. -1.
         25    2    1    2    0    0  0.00000000000E+00  0.00000000000E+00  0.61680965340E+02  0.13938995114E+03  0.12500006798E+03 0.  0.
    9000005    1    3    3    0    0 -0.46331845310E+02  0.96594282306E+01  0.76346490398E+02  0.89831681715E+02  0.10000000000E+01 0.  0.
    9000005    1    3    3    0    0  0.46331845310E+02 -0.96594282306E+01 -0.14665525058E+02  0.49558269429E+02  0.10000000000E+01 0.  0.
<mgrwt>
<rscale>  0 0.12500007E+03</rscale>
<asrwt>0</asrwt>
<pdfrwt beam="2">  1        4 0.59776145E-02 0.12500007E+03</pdfrwt>
<pdfrwt beam="1">  1       -4 0.15466993E-01 0.12500007E+03</pdfrwt>
<totfact> 0.10146229E+04</totfact>
</mgrwt>
</event>
<event>
 5    1  0.3267085E-002  0.1249986E+03  0.7818608E-02  0.1235071E+00
         -4   -1    0    0    0  501 -0.00000000000E+00  0.00000000000E+00  0.29897814413E+03  0.29898084148E+03  0.12700000000E+01 0.  1.
          4   -1    0    0  501    0  0.00000000000E+00 -0.00000000000E+00 -0.13031415695E+02  0.13093154510E+02  0.12700000000E+01 0.  1.
         25    2    1    2    0    0  0.00000000000E+00  0.00000000000E+00  0.28594672844E+03  0.31207399598E+03  0.12499858985E+03 0.  0.
    9000005    1    3    3    0    0 -0.90471158587E+01  0.60211960561E+02  0.17808896020E+03  0.18821266760E+03  0.10000000000E+01 0.  0.
    9000005    1    3    3    0    0  0.90471158587E+01 -0.60211960561E+02  0.10785776824E+03  0.12386132839E+03  0.10000000000E+01 0.  0.
<mgrwt>
<rscale>  0 0.12499859E+03</rscale>
<asrwt>0</asrwt>
<pdfrwt beam="2">  1        4 0.20097899E-02 0.12499859E+03</pdfrwt>
<pdfrwt beam="1">  1       -4 0.46001592E-01 0.12499859E+03</pdfrwt>
<totfact> 0.74111154E+03</totfact>
</mgrwt>
</event>
<event>
 5    1  0.3267085E-002  0.1249512E+03  0.7818608E-02  0.1235146E+00
          4   -1    0    0  501    0  0.00000000000E+00  0.00000000000E+00  0.34930654649E+02  0.34953734195E+02  0.12700000000E+01 0.  1.
         -4   -1    0    0    0  501 -0.00000000000E+00 -0.00000000000E+00 -0.11167782481E+03  0.11168504580E+03  0.12700000000E+01 0.  1.
         25    2    1    2    0    0  0.00000000000E+00  0.00000000000E+00 -0.76747170166E+02  0.14663878000E+03  0.12495120516E+03 0.  0.
    9000005    1    3    3    0    0  0.21758377851E+02 -0.23042110619E+02 -0.10154858062E+03  0.10638364580E+03  0.10000000000E+01 0.  0.
    9000005    1    3    3    0    0 -0.21758377851E+02  0.23042110619E+02  0.24801410453E+02  0.40255134193E+02  0.10000000000E+01 0.  0.
<mgrwt>
<rscale>  0 0.12495121E+03</rscale>
<asrwt>0</asrwt>
<pdfrwt beam="1">  1        4 0.53762778E-02 0.12495121E+03</pdfrwt>
<pdfrwt beam="2">  1       -4 0.17183534E-01 0.12495121E+03</pdfrwt>
<totfact> 0.10008789E+04</totfact>
</mgrwt>
</event>
<event>
 5    1  0.3267085E-002  0.1249936E+03  0.7818608E-02  0.1235079E+00
         -4   -1    0    0    0  501 -0.00000000000E+00  0.00000000000E+00  0.33987110285E+03  0.33987347566E+03  0.12700000000E+01 0.  1.
          4   -1    0    0  501    0  0.00000000000E+00 -0.00000000000E+00 -0.11454636423E+02  0.11524825187E+02  0.12700000000E+01 0.  1.
         25    2    1    2    0    0  0.00000000000E+00  0.00000000000E+00  0.32841646643E+03  0.35139830084E+03  0.12499356149E+03 0.  0.
    9000005    1    3    3    0    0  0.17004202931E+02 -0.41837727137E+02  0.28562745336E+03  0.28917742036E+03  0.10000000000E+01 0.  0.
    9000005    1    3    3    0    0 -0.17004202931E+02  0.41837727137E+02  0.42789013067E+02  0.62220880487E+02  0.10000000000E+01 0.  0.
<mgrwt>
<rscale>  0 0.12499356E+03</rscale>
<asrwt>0</asrwt>
<pdfrwt beam="2">  1        4 0.17678333E-02 0.12499356E+03</pdfrwt>
<pdfrwt beam="1">  1       -4 0.52293446E-01 0.12499356E+03</pdfrwt>
<totfact> 0.69580909E+03</totfact>
</mgrwt>
</event>
<event>
 5    1  0.3267085E-002  0.1249965E+03  0.7818608E-02  0.1235075E+00
         -4   -1    0    0    0  501 -0.00000000000E+00  0.00000000000E+00  0.17489885698E+01  0.21614488236E+01  0.12700000000E+01 0.  1.
          4   -1    0    0  501    0  0.00000000000E+00 -0.00000000000E+00 -0.19973326655E+04  0.19973330692E+04  0.12700000000E+01 0.  1.
         25    2    1    2    0    0  0.00000000000E+00  0.00000000000E+00 -0.19955836769E+04  0.19994945180E+04  0.12499646487E+03 0.  0.
    9000005    1    3    3    0    0 -0.19692454486E+02  0.58632036982E+02 -0.85514500718E+03  0.85737943283E+03  0.10000000000E+01 0.  0.
    9000005    1    3    3    0    0  0.19692454486E+02 -0.58632036982E+02 -0.11404386697E+04  0.11421150852E+04  0.10000000000E+01 0.  0.
<mgrwt>
<rscale>  0 0.12499646E+03</rscale>
<asrwt>0</asrwt>
<pdfrwt beam="2">  1        4 0.30731208E+00 0.12499646E+03</pdfrwt>
<pdfrwt beam="1">  1       -4 0.30083553E-03 0.12499646E+03</pdfrwt>
<totfact> 0.98687103E+02</totfact>
</mgrwt>
</event>
<event>
 5    1  0.3267085E-002  0.1249955E+03  0.7818608E-02  0.1235076E+00
         -4   -1    0    0    0  501 -0.00000000000E+00  0.00000000000E+00  0.35770258949E+02  0.35792797115E+02  0.12700000000E+01 0.  1.
          4   -1    0    0  501    0  0.00000000000E+00 -0.00000000000E+00 -0.10913531646E+03  0.10914270566E+03  0.12700000000E+01 0.  1.
         25    2    1    2    0    0  0.00000000000E+00  0.00000000000E+00 -0.73365057506E+02  0.14493550277E+03  0.12499547312E+03 0.  0.
    9000005    1    3    3    0    0 -0.35178075095E+01 -0.14738739293E+02 -0.10697851647E+03  0.10805095276E+03  0.10000000000E+01 0.  0.
    9000005    1    3    3    0    0  0.35178075095E+01  0.14738739293E+02  0.33613458968E+02  0.36884550009E+02  0.10000000000E+01 0.  0.
<mgrwt>
<rscale>  0 0.12499547E+03</rscale>
<asrwt>0</asrwt>
<pdfrwt beam="2">  1        4 0.16792351E-01 0.12499547E+03</pdfrwt>
<pdfrwt beam="1">  1       -4 0.55054189E-02 0.12499547E+03</pdfrwt>
<totfact> 0.10033322E+04</totfact>
</mgrwt>
</event>
<event>
 5    1  0.3267085E-002  0.1249995E+03  0.7818608E-02  0.1235070E+00
          4   -1    0    0  501    0  0.00000000000E+00  0.00000000000E+00  0.40677004768E+01  0.42613480460E+01  0.12700000000E+01 0. -1.
         -4   -1    0    0    0  501 -0.00000000000E+00 -0.00000000000E+00 -0.93778050704E+03  0.93778136699E+03  0.12700000000E+01 0. -1.
         25    2    1    2    0    0  0.00000000000E+00  0.00000000000E+00 -0.93371280656E+03  0.94204271504E+03  0.12499948729E+03 0.  0.
    9000005    1    3    3    0    0  0.32523776002E+02  0.36672282511E+02 -0.17472443065E+03  0.18147252954E+03  0.10000000000E+01 0.  0.
    9000005    1    3    3    0    0 -0.32523776002E+02 -0.36672282511E+02 -0.75898837591E+03  0.76057018550E+03  0.10000000000E+01 0.  0.
<mgrwt>
<rscale>  0 0.12499949E+03</rscale>
<asrwt>0</asrwt>
<pdfrwt beam="1">  1        4 0.64076293E-03 0.12499949E+03</pdfrwt>
<pdfrwt beam="2">  1       -4 0.14428872E+00 0.12499949E+03</pdfrwt>
<totfact> 0.32600585E+03</totfact>
</mgrwt>
</event>
<event>
 5    1  0.3267085E-002  0.1249979E+03  0.7818608E-02  0.1235073E+00
          4   -1    0    0  501    0  0.00000000000E+00  0.00000000000E+00  0.11077434353E+03  0.11078162340E+03  0.12700000000E+01 0. -1.
         -4   -1    0    0    0  501 -0.00000000000E+00 -0.00000000000E+00 -0.35242068663E+02  0.35264944401E+02  0.12700000000E+01 0. -1.
         25    2    1    2    0    0  0.00000000000E+00  0.00000000000E+00  0.75532274865E+02  0.14604656781E+03  0.12499790167E+03 0.  0.
    9000005    1    3    3    0    0  0.39512708769E+02 -0.27593827021E+02 -0.87124586379E+01  0.48985511934E+02  0.10000000000E+01 0.  0.
    9000005    1    3    3    0    0 -0.39512708769E+02  0.27593827021E+02  0.84244733503E+02  0.97061055871E+02  0.10000000000E+01 0.  0.
<mgrwt>
<rscale>  0 0.12499790E+03</rscale>
<asrwt>0</asrwt>
<pdfrwt beam="1">  1        4 0.17044526E-01 0.12499790E+03</pdfrwt>
<pdfrwt beam="2">  1       -4 0.54241765E-02 0.12499790E+03</pdfrwt>
<totfact> 0.10010241E+04</totfact>
</mgrwt>
</event>
<event>
 5    1  0.3267085E-002  0.1249952E+03  0.7818608E-02  0.1235077E+00
          4   -1    0    0  501    0  0.00000000000E+00  0.00000000000E+00  0.54168466473E+02  0.54183352241E+02  0.12700000000E+01 0. -1.
         -4   -1    0    0    0  501 -0.00000000000E+00 -0.00000000000E+00 -0.72077067688E+02  0.72088255538E+02  0.12700000000E+01 0. -1.
         25    2    1    2    0    0  0.00000000000E+00  0.00000000000E+00 -0.17908601215E+02  0.12627160778E+03  0.12499520364E+03 0.  0.
    9000005    1    3    3    0    0  0.46692877056E+02  0.29028624339E+02  0.21048549860E+02  0.58880618628E+02  0.10000000000E+01 0.  0.
    9000005    1    3    3    0    0 -0.46692877056E+02 -0.29028624339E+02 -0.38957151075E+02  0.67390989150E+02  0.10000000000E+01 0.  0.
<mgrwt>
<rscale>  0 0.12499520E+03</rscale>
<asrwt>0</asrwt>
<pdfrwt beam="1">  1        4 0.83356159E-02 0.12499520E+03</pdfrwt>
<pdfrwt beam="2">  1       -4 0.11090785E-01 0.12499520E+03</pdfrwt>
<totfact> 0.10426142E+04</totfact>
</mgrwt>
</event>
<event>
 5    1  0.3267085E-002  0.1249989E+03  0.7818608E-02  0.1235071E+00
         -4   -1    0    0    0  501 -0.00000000000E+00  0.00000000000E+00  0.47683084168E+03  0.47683253294E+03  0.12700000000E+01 0.  1.
          4   -1    0    0  501    0  0.00000000000E+00 -0.00000000000E+00 -0.81410287358E+01  0.82394932415E+01  0.12700000000E+01 0.  1.
         25    2    1    2    0    0  0.00000000000E+00  0.00000000000E+00  0.46868981294E+03  0.48507202619E+03  0.12499891933E+03 0.  0.
    9000005    1    3    3    0    0  0.61690489089E+02  0.58534977807E+00  0.19570927432E+03  0.20520521224E+03  0.10000000000E+01 0.  0.
    9000005    1    3    3    0    0 -0.61690489089E+02 -0.58534977807E+00  0.27298053863E+03  0.27986681394E+03  0.10000000000E+01 0.  0.
<mgrwt>
<rscale>  0 0.12499892E+03</rscale>
<asrwt>0</asrwt>
<pdfrwt beam="2">  1        4 0.12601703E-02 0.12499892E+03</pdfrwt>
<pdfrwt beam="1">  1       -4 0.73366290E-01 0.12499892E+03</pdfrwt>
<totfact> 0.57042842E+03</totfact>
</mgrwt>
</event>
<event>
 5    1  0.3267085E-002  0.1250025E+03  0.7818608E-02  0.1235065E+00
          4   -1    0    0  501    0  0.00000000000E+00  0.00000000000E+00  0.22091848219E+03  0.22092213261E+03  0.12700000000E+01 0.  1.
         -4   -1    0    0    0  501 -0.00000000000E+00 -0.00000000000E+00 -0.17655952113E+02  0.17701568998E+02  0.12700000000E+01 0.  1.
         25    2    1    2    0    0  0.00000000000E+00  0.00000000000E+00  0.20326253008E+03  0.23862370160E+03  0.12500245930E+03 0.  0.
    9000005    1    3    3    0    0  0.23361176869E+02  0.43649377826E+01 -0.87023068353E+01  0.25328391398E+02  0.10000000000E+01 0.  0.
    9000005    1    3    3    0    0 -0.23361176869E+02 -0.43649377826E+01  0.21196483692E+03  0.21329531021E+03  0.10000000000E+01 0.  0.
<mgrwt>
<rscale>  0 0.12500246E+03</rscale>
<asrwt>0</asrwt>
<pdfrwt beam="1">  1        4 0.33991248E-01 0.12500246E+03</pdfrwt>
<pdfrwt beam="2">  1       -4 0.27200902E-02 0.12500246E+03</pdfrwt>
<totfact> 0.83998164E+03</totfact>
</mgrwt>
</event>
<event>
 5    1  0.3267085E-002  0.1250006E+03  0.7818608E-02  0.1235068E+00
         -4   -1    0    0    0  501 -0.00000000000E+00  0.00000000000E+00  0.36333740931E+01  0.38489358660E+01  0.12700000000E+01 0.  1.
          4   -1    0    0  501    0  0.00000000000E+00 -0.00000000000E+00 -0.10439236245E+04  0.10439243970E+04  0.12700000000E+01 0.  1.
         25    2    1    2    0    0  0.00000000000E+00  0.00000000000E+00 -0.10402902504E+04  0.10477733329E+04  0.12500060804E+03 0.  0.
    9000005    1    3    3    0    0 -0.31161958112E+02 -0.71863609390E+01 -0.70110796907E+02  0.77066434068E+02  0.10000000000E+01 0.  0.
    9000005    1    3    3    0    0  0.31161958112E+02  0.71863609390E+01 -0.97017945348E+03  0.97070689880E+03  0.10000000000E+01 0.  0.
<mgrwt>
<rscale>  0 0.12500061E+03</rscale>
<asrwt>0</asrwt>
<pdfrwt beam="2">  1        4 0.16062004E+00 0.12500061E+03</pdfrwt>
<pdfrwt beam="1">  1       -4 0.57562256E-03 0.12500061E+03</pdfrwt>
<totfact> 0.29064055E+03</totfact>
</mgrwt>
</event>
<event>
 5    1  0.3267085E-002  0.1250010E+03  0.7818608E-02  0.1235068E+00
         -4   -1    0    0    0  501 -0.00000000000E+00  0.00000000000E+00  0.26934426430E+03  0.26934725841E+03  0.12700000000E+01 0. -1.
          4   -1    0    0  501    0  0.00000000000E+00 -0.00000000000E+00 -0.14472160428E+02  0.14527777788E+02  0.12700000000E+01 0. -1.
         25    2    1    2    0    0  0.00000000000E+00  0.00000000000E+00  0.25487210387E+03  0.28387503620E+03  0.12500098737E+03 0.  0.
    9000005    1    3    3    0    0 -0.41832964641E+01 -0.57784320200E+02  0.18063640463E+03  0.18970249947E+03  0.10000000000E+01 0.  0.
    9000005    1    3    3    0    0  0.41832964641E+01  0.57784320200E+02  0.74235699247E+02  0.94172536724E+02  0.10000000000E+01 0.  0.
<mgrwt>
<rscale>  0 0.12500099E+03</rscale>
<asrwt>0</asrwt>
<pdfrwt beam="2">  1        4 0.22309951E-02 0.12500099E+03</pdfrwt>
<pdfrwt beam="1">  1       -4 0.41442082E-01 0.12500099E+03</pdfrwt>
<totfact> 0.77665393E+03</totfact>
</mgrwt>
</event>
<event>
 5    1  0.3267085E-002  0.1250197E+03  0.7818608E-02  0.1235038E+00
         -4   -1    0    0    0  501 -0.00000000000E+00  0.00000000000E+00  0.11037439492E+03  0.11038170117E+03  0.12700000000E+01 0. -1.
          4   -1    0    0  501    0  0.00000000000E+00 -0.00000000000E+00 -0.35382196999E+02  0.35404982199E+02  0.12700000000E+01 0. -1.
         25    2    1    2    0    0  0.00000000000E+00  0.00000000000E+00  0.74992197919E+02  0.14578668337E+03  0.12501970764E+03 0.  0.
    9000005    1    3    3    0    0  0.33725417129E+02 -0.97503176332E+01  0.97796588699E+02  0.10391171838E+03  0.10000000000E+01 0.  0.
    9000005    1    3    3    0    0 -0.33725417129E+02  0.97503176332E+01 -0.22804390780E+02  0.41874964995E+02  0.10000000000E+01 0.  0.
<mgrwt>
<rscale>  0 0.12501971E+03</rscale>
<asrwt>0</asrwt>
<pdfrwt beam="2">  1        4 0.54457298E-02 0.12501971E+03</pdfrwt>
<pdfrwt beam="1">  1       -4 0.16982991E-01 0.12501971E+03</pdfrwt>
<totfact> 0.10010587E+04</totfact>
</mgrwt>
</event>
<event>
 4    1  0.3267085E-002  0.1248041E+03  0.7818608E-02  0.1235376E+00
          4   -1    0    0  501    0  0.00000000000E+00  0.00000000000E+00  0.87396920964E+03  0.87397013239E+03  0.12700000000E+01 0. -1.
         -4   -1    0    0    0  501 -0.00000000000E+00 -0.00000000000E+00 -0.43641081705E+01  0.45451446758E+01  0.12700000000E+01 0. -1.
    9000005    1    1    2    0    0  0.18133421031E+02 -0.14228514517E+02  0.26668534517E+02  0.35263044635E+02  0.10000000000E+01 0.  0.
    9000005    1    1    2    0    0 -0.18133421031E+02  0.14228514517E+02  0.84293656696E+03  0.84325223243E+03  0.10000000000E+01 0.  0.
<mgrwt>
<rscale>  0 0.12480408E+03</rscale>
<asrwt>0</asrwt>
<pdfrwt beam="1">  1        4 0.13447076E+00 0.12480408E+03</pdfrwt>
<pdfrwt beam="2">  1       -4 0.68539832E-03 0.12480408E+03</pdfrwt>
<totfact> 0.35138087E+03</totfact>
</mgrwt>
</event>
<event>
 5    1  0.3267085E-002  0.1250042E+03  0.7818608E-02  0.1235063E+00
          4   -1    0    0  501    0  0.00000000000E+00  0.00000000000E+00  0.29607872929E+03  0.29608145304E+03  0.12700000000E+01 0.  1.
         -4   -1    0    0    0  501 -0.00000000000E+00 -0.00000000000E+00 -0.13160806105E+02  0.13221940756E+02  0.12700000000E+01 0.  1.
         25    2    1    2    0    0  0.00000000000E+00  0.00000000000E+00  0.28291792318E+03  0.30930339380E+03  0.12500415256E+03 0.  0.
    9000005    1    3    3    0    0  0.29942637903E+02 -0.19352105559E+02  0.26845925651E+03  0.27081809016E+03  0.10000000000E+01 0.  0.
    9000005    1    3    3    0    0 -0.29942637903E+02  0.19352105559E+02  0.14458666676E+02  0.38485303639E+02  0.10000000000E+01 0.  0.
<mgrwt>
<rscale>  0 0.12500415E+03</rscale>
<asrwt>0</asrwt>
<pdfrwt beam="1">  1        4 0.45555483E-01 0.12500415E+03</pdfrwt>
<pdfrwt beam="2">  1       -4 0.20296517E-02 0.12500415E+03</pdfrwt>
<totfact> 0.74439605E+03</totfact>
</mgrwt>
</event>
<event>
 5    1  0.3267085E-002  0.1250007E+03  0.7818608E-02  0.1235068E+00
          4   -1    0    0  501    0  0.00000000000E+00  0.00000000000E+00  0.11192681272E+02  0.11264502388E+02  0.12700000000E+01 0.  1.
         -4   -1    0    0    0  501 -0.00000000000E+00 -0.00000000000E+00 -0.34781492343E+03  0.34781724204E+03  0.12700000000E+01 0.  1.
         25    2    1    2    0    0  0.00000000000E+00  0.00000000000E+00 -0.33662224216E+03  0.35908174443E+03  0.12500066106E+03 0.  0.
    9000005    1    3    3    0    0  0.44447683224E+02 -0.43732482634E+02 -0.18021256273E+03  0.19069791385E+03  0.10000000000E+01 0.  0.
    9000005    1    3    3    0    0 -0.44447683224E+02  0.43732482634E+02 -0.15640967943E+03  0.16838383058E+03  0.10000000000E+01 0.  0.
<mgrwt>
<rscale>  0 0.12500066E+03</rscale>
<asrwt>0</asrwt>
<pdfrwt beam="1">  1        4 0.17276543E-02 0.12500066E+03</pdfrwt>
<pdfrwt beam="2">  1       -4 0.53515683E-01 0.12500066E+03</pdfrwt>
<totfact> 0.68735873E+03</totfact>
</mgrwt>
</event>
<event>
 5    1  0.3267085E-002  0.1249928E+03  0.7818608E-02  0.1235081E+00
          4   -1    0    0  501    0  0.00000000000E+00  0.00000000000E+00  0.25928590698E+03  0.25928901724E+03  0.12700000000E+01 0.  1.
         -4   -1    0    0    0  501 -0.00000000000E+00 -0.00000000000E+00 -0.15033694175E+02  0.15087241648E+02  0.12700000000E+01 0.  1.
         25    2    1    2    0    0  0.00000000000E+00  0.00000000000E+00  0.24425221281E+03  0.27437625889E+03  0.12499275170E+03 0.  0.
    9000005    1    3    3    0    0  0.12795265336E+02  0.58129329102E+02  0.16389486246E+03  0.17437105166E+03  0.10000000000E+01 0.  0.
    9000005    1    3    3    0    0 -0.12795265336E+02 -0.58129329102E+02  0.80357350348E+02  0.10000520722E+03  0.10000000000E+01 0.  0.
<mgrwt>
<rscale>  0 0.12499275E+03</rscale>
<asrwt>0</asrwt>
<pdfrwt beam="1">  1        4 0.39894499E-01 0.12499275E+03</pdfrwt>
<pdfrwt beam="2">  1       -4 0.23172343E-02 0.12499275E+03</pdfrwt>
<totfact> 0.78942451E+03</totfact>
</mgrwt>
</event>
<event>
 5    1  0.3267085E-002  0.1249990E+03  0.7818608E-02  0.1235071E+00
         -4   -1    0    0    0  501 -0.00000000000E+00  0.00000000000E+00  0.30684501498E+01  0.33208863759E+01  0.12700000000E+01 0.  1.
          4   -1    0    0  501    0  0.00000000000E+00 -0.00000000000E+00 -0.12224678331E+04  0.12224684928E+04  0.12700000000E+01 0.  1.
         25    2    1    2    0    0  0.00000000000E+00  0.00000000000E+00 -0.12193993830E+04  0.12257893792E+04  0.12499898774E+03 0.  0.
    9000005    1    3    3    0    0 -0.14565265411E+02 -0.68750703058E+01 -0.12018121257E+04  0.12019204629E+04  0.10000000000E+01 0.  0.
    9000005    1    3    3    0    0  0.14565265411E+02  0.68750703058E+01 -0.17587257242E+02  0.23868916304E+02  0.10000000000E+01 0.  0.
<mgrwt>
<rscale>  0 0.12499899E+03</rscale>
<asrwt>0</asrwt>
<pdfrwt beam="2">  1        4 0.18809107E+00 0.12499899E+03</pdfrwt>
<pdfrwt beam="1">  1       -4 0.49153915E-03 0.12499899E+03</pdfrwt>
<totfact> 0.24048118E+03</totfact>
</mgrwt>
</event>
<event>
 5    1  0.3267085E-002  0.1249981E+03  0.7818608E-02  0.1235072E+00
          4   -1    0    0  501    0  0.00000000000E+00  0.00000000000E+00  0.78427533474E+03  0.78427636301E+03  0.12700000000E+01 0. -1.
         -4   -1    0    0    0  501 -0.00000000000E+00 -0.00000000000E+00 -0.48985554000E+01  0.50605083744E+01  0.12700000000E+01 0. -1.
         25    2    1    2    0    0  0.00000000000E+00  0.00000000000E+00  0.77937677934E+03  0.78933687139E+03  0.12499812942E+03 0.  0.
    9000005    1    3    3    0    0  0.39079444923E+02  0.48353764477E+02  0.42954843672E+03  0.43402551659E+03  0.10000000000E+01 0.  0.
    9000005    1    3    3    0    0 -0.39079444923E+02 -0.48353764477E+02  0.34982834262E+03  0.35531135480E+03  0.10000000000E+01 0.  0.
<mgrwt>
<rscale>  0 0.12499813E+03</rscale>
<asrwt>0</asrwt>
<pdfrwt beam="1">  1        4 0.12067033E+00 0.12499813E+03</pdfrwt>
<pdfrwt beam="2">  1       -4 0.76616059E-03 0.12499813E+03</pdfrwt>
<totfact> 0.38746781E+03</totfact>
</mgrwt>
</event>
<event>
 5    1  0.3267085E-002  0.1250011E+03  0.7818608E-02  0.1235068E+00
          4   -1    0    0  501    0  0.00000000000E+00  0.00000000000E+00  0.30183407084E+02  0.30210113591E+02  0.12700000000E+01 0.  1.
         -4   -1    0    0    0  501 -0.00000000000E+00 -0.00000000000E+00 -0.12933241781E+03  0.12933865314E+03  0.12700000000E+01 0.  1.
         25    2    1    2    0    0  0.00000000000E+00  0.00000000000E+00 -0.99149010726E+02  0.15954876673E+03  0.12500113055E+03 0.  0.
    9000005    1    3    3    0    0  0.18644218245E+02  0.49903864058E+02 -0.91273583655E+02  0.10568760379E+03  0.10000000000E+01 0.  0.
    9000005    1    3    3    0    0 -0.18644218245E+02 -0.49903864058E+02 -0.78754270711E+01  0.53861162942E+02  0.10000000000E+01 0.  0.
<mgrwt>
<rscale>  0 0.12500113E+03</rscale>
<asrwt>0</asrwt>
<pdfrwt beam="1">  1        4 0.46461351E-02 0.12500113E+03</pdfrwt>
<pdfrwt beam="2">  1       -4 0.19899829E-01 0.12500113E+03</pdfrwt>
<totfact> 0.97427374E+03</totfact>
</mgrwt>
</event>
<event>
 5    1  0.3267085E-002  0.1250005E+03  0.7818608E-02  0.1235068E+00
         -4   -1    0    0    0  501 -0.00000000000E+00  0.00000000000E+00  0.40834350108E+03  0.40834547601E+03  0.12700000000E+01 0.  1.
          4   -1    0    0  501    0  0.00000000000E+00 -0.00000000000E+00 -0.95220097880E+01  0.96063297051E+01  0.12700000000E+01 0.  1.
         25    2    1    2    0    0  0.00000000000E+00  0.00000000000E+00  0.39882149129E+03  0.41795180571E+03  0.12500051992E+03 0.  0.
    9000005    1    3    3    0    0  0.42159090318E+02 -0.31213496094E+02  0.85845843835E+02  0.10060904601E+03  0.10000000000E+01 0.  0.
    9000005    1    3    3    0    0 -0.42159090318E+02  0.31213496094E+02  0.31297564746E+03  0.31734275970E+03  0.10000000000E+01 0.  0.
<mgrwt>
<rscale>  0 0.12500052E+03</rscale>
<asrwt>0</asrwt>
<pdfrwt beam="2">  1        4 0.14715627E-02 0.12500052E+03</pdfrwt>
<pdfrwt beam="1">  1       -4 0.62828712E-01 0.12500052E+03</pdfrwt>
<totfact> 0.62842759E+03</totfact>
</mgrwt>
</event>
<event>
 5    1  0.3267085E-002  0.1249995E+03  0.7818608E-02  0.1235070E+00
          4   -1    0    0  501    0  0.00000000000E+00  0.00000000000E+00  0.20119123380E+02  0.20159167284E+02  0.12700000000E+01 0. -1.
         -4   -1    0    0    0  501 -0.00000000000E+00 -0.00000000000E+00 -0.19391943480E+03  0.19392359344E+03  0.12700000000E+01 0. -1.
         25    2    1    2    0    0  0.00000000000E+00  0.00000000000E+00 -0.17380031142E+03  0.21408276072E+03  0.12499952076E+03 0.  0.
    9000005    1    3    3    0    0 -0.14401777344E+01 -0.13195010384E+02  0.17685405691E+02  0.22134949410E+02  0.10000000000E+01 0.  0.
    9000005    1    3    3    0    0  0.14401777344E+01  0.13195010384E+02 -0.19148571711E+03  0.19194781131E+03  0.10000000000E+01 0.  0.
<mgrwt>
<rscale>  0 0.12499952E+03</rscale>
<asrwt>0</asrwt>
<pdfrwt beam="1">  1        4 0.30986501E-02 0.12499952E+03</pdfrwt>
<pdfrwt beam="2">  1       -4 0.29837158E-01 0.12499952E+03</pdfrwt>
<totfact> 0.87814364E+03</totfact>
</mgrwt>
</event>
<event>
 5    1  0.3267085E-002  0.1249999E+03  0.7818608E-02  0.1235069E+00
         -4   -1    0    0    0  501 -0.00000000000E+00  0.00000000000E+00  0.19815873342E+01  0.23536330137E+01  0.12700000000E+01 0.  1.
          4   -1    0    0  501    0  0.00000000000E+00 -0.00000000000E+00 -0.18017248822E+04  0.18017253298E+04  0.12700000000E+01 0.  1.
         25    2    1    2    0    0  0.00000000000E+00  0.00000000000E+00 -0.17997432949E+04  0.18040789629E+04  0.12499990659E+03 0.  0.
    9000005    1    3    3    0    0  0.25224665072E+02  0.27929162474E+02 -0.17984010040E+03  0.18373835625E+03  0.10000000000E+01 0.  0.
    9000005    1    3    3    0    0 -0.25224665072E+02 -0.27929162474E+02 -0.16199031945E+04  0.16203406066E+04  0.10000000000E+01 0.  0.
<mgrwt>
<rscale>  0 0.12499991E+03</rscale>
<asrwt>0</asrwt>
<pdfrwt beam="2">  1        4 0.27721590E+00 0.12499991E+03</pdfrwt>
<pdfrwt beam="1">  1       -4 0.33351436E-03 0.12499991E+03</pdfrwt>
<totfact> 0.12640897E+03</totfact>
</mgrwt>
</event>
<event>
 5    1  0.3267085E-002  0.1250097E+03  0.7818608E-02  0.1235054E+00
          4   -1    0    0  501    0  0.00000000000E+00  0.00000000000E+00  0.55301100697E+02  0.55315681667E+02  0.12700000000E+01 0. -1.
         -4   -1    0    0    0  501 -0.00000000000E+00 -0.00000000000E+00 -0.70617381917E+02  0.70628800987E+02  0.12700000000E+01 0. -1.
         25    2    1    2    0    0  0.00000000000E+00  0.00000000000E+00 -0.15316281220E+02  0.12594448265E+03  0.12500969659E+03 0.  0.
    9000005    1    3    3    0    0 -0.59513389178E+02  0.12410304466E+02  0.69414910736E+01  0.61196760100E+02  0.10000000000E+01 0.  0.
    9000005    1    3    3    0    0  0.59513389178E+02 -0.12410304466E+02 -0.22257772294E+02  0.64747722554E+02  0.10000000000E+01 0.  0.
<mgrwt>
<rscale>  0 0.12500970E+03</rscale>
<asrwt>0</asrwt>
<pdfrwt beam="1">  1        4 0.85098616E-02 0.12500970E+03</pdfrwt>
<pdfrwt beam="2">  1       -4 0.10866213E-01 0.12500970E+03</pdfrwt>
<totfact> 0.10429892E+04</totfact>
</mgrwt>
</event>
<event>
 5    1  0.3267085E-002  0.1249960E+03  0.7818608E-02  0.1235075E+00
         -4   -1    0    0    0  501 -0.00000000000E+00  0.00000000000E+00  0.15817416163E+03  0.15817926004E+03  0.12700000000E+01 0. -1.
          4   -1    0    0  501    0  0.00000000000E+00 -0.00000000000E+00 -0.24672481987E+02  0.24705146578E+02  0.12700000000E+01 0. -1.
         25    2    1    2    0    0  0.00000000000E+00  0.00000000000E+00  0.13350167965E+03  0.18288440662E+03  0.12499603081E+03 0.  0.
    9000005    1    3    3    0    0  0.55008127849E+01  0.61511724764E+02  0.80712019314E+02  0.10163356378E+03  0.10000000000E+01 0.  0.
    9000005    1    3    3    0    0 -0.55008127849E+01 -0.61511724764E+02  0.52789660331E+02  0.81250842842E+02  0.10000000000E+01 0.  0.
<mgrwt>
<rscale>  0 0.12499603E+03</rscale>
<asrwt>0</asrwt>
<pdfrwt beam="2">  1        4 0.37986713E-02 0.12499603E+03</pdfrwt>
<pdfrwt beam="1">  1       -4 0.24337392E-01 0.12499603E+03</pdfrwt>
<totfact> 0.93108645E+03</totfact>
</mgrwt>
</event>
<event>
 5    1  0.3267085E-002  0.1249997E+03  0.7818608E-02  0.1235070E+00
         -4   -1    0    0    0  501 -0.00000000000E+00  0.00000000000E+00  0.56954173747E+02  0.56968331616E+02  0.12700000000E+01 0.  1.
          4   -1    0    0  501    0  0.00000000000E+00 -0.00000000000E+00 -0.68556907658E+02  0.68568669869E+02  0.12700000000E+01 0.  1.
         25    2    1    2    0    0  0.00000000000E+00  0.00000000000E+00 -0.11602733911E+02  0.12553700149E+03  0.12499966123E+03 0.  0.
    9000005    1    3    3    0    0  0.22924719692E+02  0.10083520064E+02  0.51698648909E+02  0.57454072518E+02  0.10000000000E+01 0.  0.
    9000005    1    3    3    0    0 -0.22924719692E+02 -0.10083520064E+02 -0.63301382821E+02  0.68082928968E+02  0.10000000000E+01 0.  0.
<mgrwt>
<rscale>  0 0.12499966E+03</rscale>
<asrwt>0</asrwt>
<pdfrwt beam="2">  1        4 0.10549210E-01 0.12499966E+03</pdfrwt>
<pdfrwt beam="1">  1       -4 0.87641744E-02 0.12499966E+03</pdfrwt>
<totfact> 0.10441217E+04</totfact>
</mgrwt>
</event>
<event>
 5    1  0.3267085E-002  0.1250019E+03  0.7818608E-02  0.1235066E+00
          4   -1    0    0  501    0  0.00000000000E+00  0.00000000000E+00  0.10699335082E+02  0.10774445285E+02  0.12700000000E+01 0.  1.
         -4   -1    0    0    0  501 -0.00000000000E+00 -0.00000000000E+00 -0.36375056750E+03  0.36375278453E+03  0.12700000000E+01 0.  1.
         25    2    1    2    0    0  0.00000000000E+00  0.00000000000E+00 -0.35305123242E+03  0.37452722982E+03  0.12500189264E+03 0.  0.
    9000005    1    3    3    0    0  0.18549729175E+02 -0.53415612115E+02 -0.96799937026E+02  0.11210953518E+03  0.10000000000E+01 0.  0.
    9000005    1    3    3    0    0 -0.18549729175E+02  0.53415612115E+02 -0.25625129539E+03  0.26241769464E+03  0.10000000000E+01 0.  0.
<mgrwt>
<rscale>  0 0.12500189E+03</rscale>
<asrwt>0</asrwt>
<pdfrwt beam="1">  1        4 0.16520001E-02 0.12500189E+03</pdfrwt>
<pdfrwt beam="2">  1       -4 0.55967565E-01 0.12500189E+03</pdfrwt>
<totfact> 0.67105146E+03</totfact>
</mgrwt>
</event>
<event>
 5    1  0.3267085E-002  0.1249994E+03  0.7818608E-02  0.1235070E+00
         -4   -1    0    0    0  501 -0.00000000000E+00  0.00000000000E+00  0.78015298914E+03  0.78015402285E+03  0.12700000000E+01 0. -1.
          4   -1    0    0  501    0  0.00000000000E+00 -0.00000000000E+00 -0.49253971844E+01  0.50864955937E+01  0.12700000000E+01 0. -1.
         25    2    1    2    0    0  0.00000000000E+00  0.00000000000E+00  0.77522759196E+03  0.78524051844E+03  0.12499940988E+03 0.  0.
    9000005    1    3    3    0    0 -0.17694884528E+02  0.54926029745E+02  0.23694699950E+03  0.24387467736E+03  0.10000000000E+01 0.  0.
    9000005    1    3    3    0    0  0.17694884528E+02 -0.54926029745E+02  0.53828059246E+03  0.54136584109E+03  0.10000000000E+01 0.  0.
<mgrwt>
<rscale>  0 0.12499941E+03</rscale>
<asrwt>0</asrwt>
<pdfrwt beam="2">  1        4 0.77022493E-03 0.12499941E+03</pdfrwt>
<pdfrwt beam="1">  1       -4 0.12003604E+00 0.12499941E+03</pdfrwt>
<totfact> 0.38932676E+03</totfact>
</mgrwt>
</event>
<event>
 5    1  0.3267085E-002  0.1249963E+03  0.7818608E-02  0.1235075E+00
         -4   -1    0    0    0  501 -0.00000000000E+00  0.00000000000E+00  0.73806806921E+02  0.73817732612E+02  0.12700000000E+01 0. -1.
          4   -1    0    0  501    0  0.00000000000E+00 -0.00000000000E+00 -0.52899713926E+02  0.52914956614E+02  0.12700000000E+01 0. -1.
         25    2    1    2    0    0  0.00000000000E+00  0.00000000000E+00  0.20907092995E+02  0.12673268923E+03  0.12499627187E+03 0.  0.
    9000005    1    3    3    0    0 -0.62410000345E+02 -0.31630998346E+01  0.10392278830E+02  0.63356237285E+02  0.10000000000E+01 0.  0.
    9000005    1    3    3    0    0  0.62410000345E+02  0.31630998346E+01  0.10514814165E+02  0.63376451941E+02  0.10000000000E+01 0.  0.
<mgrwt>
<rscale>  0 0.12499627E+03</rscale>
<asrwt>0</asrwt>
<pdfrwt beam="2">  1        4 0.81404305E-02 0.12499627E+03</pdfrwt>
<pdfrwt beam="1">  1       -4 0.11356906E-01 0.12499627E+03</pdfrwt>
<totfact> 0.10415835E+04</totfact>
</mgrwt>
</event>
<event>
 5    1  0.3267085E-002  0.1250064E+03  0.7818608E-02  0.1235059E+00
         -4   -1    0    0    0  501 -0.00000000000E+00  0.00000000000E+00  0.42362220182E+02  0.42381252916E+02  0.12700000000E+01 0. -1.
          4   -1    0    0  501    0  0.00000000000E+00 -0.00000000000E+00 -0.92176084735E+02  0.92184833336E+02  0.12700000000E+01 0. -1.
         25    2    1    2    0    0  0.00000000000E+00  0.00000000000E+00 -0.49813864553E+02  0.13456608625E+03  0.12500644170E+03 0.  0.
    9000005    1    3    3    0    0  0.78888970399E+01  0.58964719602E+02 -0.42964824176E+01  0.59653437582E+02  0.10000000000E+01 0.  0.
    9000005    1    3    3    0    0 -0.78888970399E+01 -0.58964719602E+02 -0.45517382136E+02  0.74912648670E+02  0.10000000000E+01 0.  0.
<mgrwt>
<rscale>  0 0.12500644E+03</rscale>
<asrwt>0</asrwt>
<pdfrwt beam="2">  1        4 0.14183073E-01 0.12500644E+03</pdfrwt>
<pdfrwt beam="1">  1       -4 0.65194017E-02 0.12500644E+03</pdfrwt>
<totfact> 0.10245736E+04</totfact>
</mgrwt>
</event>
<event>
 5    1  0.3267085E-002  0.1250005E+03  0.7818608E-02  0.1235069E+00
          4   -1    0    0  501    0  0.00000000000E+00  0.00000000000E+00  0.29660689102E+01  0.32265251866E+01  0.12700000000E+01 0.  1.
         -4   -1    0    0    0  501 -0.00000000000E+00 -0.00000000000E+00 -0.12613363182E+04  0.12613369576E+04  0.12700000000E+01 0.  1.
         25    2    1    2    0    0  0.00000000000E+00  0.00000000000E+00 -0.12583702493E+04  0.12645634828E+04  0.12500047041E+03 0.  0.
    9000005    1    3    3    0    0 -0.52313292340E+02 -0.33924963647E+02 -0.58662893846E+03  0.58993397525E+03  0.10000000000E+01 0.  0.
    9000005    1    3    3    0    0  0.52313292340E+02  0.33924963647E+02 -0.67174131088E+03  0.67462950755E+03  0.10000000000E+01 0.  0.
<mgrwt>
<rscale>  0 0.12500047E+03</rscale>
<asrwt>0</asrwt>
<pdfrwt beam="1">  1        4 0.47640358E-03 0.12500047E+03</pdfrwt>
<pdfrwt beam="2">  1       -4 0.19407142E+00 0.12500047E+03</pdfrwt>
<totfact> 0.23080464E+03</totfact>
</mgrwt>
</event>
<event>
 5    1  0.3267085E-002  0.1250010E+03  0.7818608E-02  0.1235068E+00
         -4   -1    0    0    0  501 -0.00000000000E+00  0.00000000000E+00  0.30761856298E+02  0.30788061045E+02  0.12700000000E+01 0.  1.
          4   -1    0    0  501    0  0.00000000000E+00 -0.00000000000E+00 -0.12690218487E+03  0.12690853961E+03  0.12700000000E+01 0.  1.
         25    2    1    2    0    0  0.00000000000E+00  0.00000000000E+00 -0.96140328574E+02  0.15769660065E+03  0.12500102031E+03 0.  0.
    9000005    1    3    3    0    0 -0.50224144146E+02  0.35353116263E+02 -0.33520771935E+02  0.69978208292E+02  0.10000000000E+01 0.  0.
    9000005    1    3    3    0    0  0.50224144146E+02 -0.35353116263E+02 -0.62619556639E+02  0.87718392361E+02  0.10000000000E+01 0.  0.
<mgrwt>
<rscale>  0 0.12500102E+03</rscale>
<asrwt>0</asrwt>
<pdfrwt beam="2">  1        4 0.19525917E-01 0.12500102E+03</pdfrwt>
<pdfrwt beam="1">  1       -4 0.47350979E-02 0.12500102E+03</pdfrwt>
<totfact> 0.97786466E+03</totfact>
</mgrwt>
</event>
<event>
 5    1  0.3267085E-002  0.1250026E+03  0.7818608E-02  0.1235065E+00
          4   -1    0    0  501    0  0.00000000000E+00  0.00000000000E+00  0.93633965320E+01  0.94491319504E+01  0.12700000000E+01 0.  1.
         -4   -1    0    0    0  501 -0.00000000000E+00 -0.00000000000E+00 -0.41521202082E+03  0.41521396307E+03  0.12700000000E+01 0.  1.
         25    2    1    2    0    0  0.00000000000E+00  0.00000000000E+00 -0.40584862428E+03  0.42466309502E+03  0.12500255374E+03 0.  0.
    9000005    1    3    3    0    0  0.47979159684E+02  0.38371996646E+02 -0.24180740641E+03  0.24949194713E+03  0.10000000000E+01 0.  0.
    9000005    1    3    3    0    0 -0.47979159684E+02 -0.38371996646E+02 -0.16404121788E+03  0.17517114789E+03  0.10000000000E+01 0.  0.
<mgrwt>
<rscale>  0 0.12500255E+03</rscale>
<asrwt>0</asrwt>
<pdfrwt beam="1">  1        4 0.14472673E-02 0.12500255E+03</pdfrwt>
<pdfrwt beam="2">  1       -4 0.63885503E-01 0.12500255E+03</pdfrwt>
<totfact> 0.62219248E+03</totfact>
</mgrwt>
</event>
<event>
 5    1  0.3267085E-002  0.1250034E+03  0.7818608E-02  0.1235064E+00
          4   -1    0    0  501    0  0.00000000000E+00  0.00000000000E+00  0.61825044306E+01  0.63115973442E+01  0.12700000000E+01 0.  1.
         -4   -1    0    0    0  501 -0.00000000000E+00 -0.00000000000E+00 -0.62519948167E+03  0.62520077157E+03  0.12700000000E+01 0.  1.
         25    2    1    2    0    0  0.00000000000E+00  0.00000000000E+00 -0.61901697724E+03  0.63151236892E+03  0.12500341591E+03 0.  0.
    9000005    1    3    3    0    0 -0.42841961326E+02 -0.36685854091E+02 -0.17355741837E+03  0.18249510408E+03  0.10000000000E+01 0.  0.
    9000005    1    3    3    0    0  0.42841961326E+02  0.36685854091E+02 -0.44545955887E+03  0.44901726484E+03  0.10000000000E+01 0.  0.
<mgrwt>
<rscale>  0 0.12500342E+03</rscale>
<asrwt>0</asrwt>
<pdfrwt beam="1">  1        4 0.96118447E-03 0.12500342E+03</pdfrwt>
<pdfrwt beam="2">  1       -4 0.96194516E-01 0.12500342E+03</pdfrwt>
<totfact> 0.46933524E+03</totfact>
</mgrwt>
</event>
<event>
 4    1  0.3267085E-002  0.1251412E+03  0.7818608E-02  0.1234849E+00
          4   -1    0    0  501    0  0.00000000000E+00  0.00000000000E+00  0.33644965891E+03  0.33645205584E+03  0.12700000000E+01 0. -1.
         -4   -1    0    0    0  501 -0.00000000000E+00 -0.00000000000E+00 -0.11599347433E+02  0.11668665771E+02  0.12700000000E+01 0. -1.
    9000005    1    1    2    0    0 -0.15866255714E+02  0.42027067688E+02  0.28355644469E+03  0.28709453114E+03  0.10000000000E+01 0.  0.
    9000005    1    1    2    0    0  0.15866255714E+02 -0.42027067688E+02  0.41293866787E+02  0.61026190468E+02  0.10000000000E+01 0.  0.
<mgrwt>
<rscale>  0 0.12514117E+03</rscale>
<asrwt>0</asrwt>
<pdfrwt beam="1">  1        4 0.51767008E-01 0.12514117E+03</pdfrwt>
<pdfrwt beam="2">  1       -4 0.17900314E-02 0.12514117E+03</pdfrwt>
<totfact> 0.69713744E+03</totfact>
</mgrwt>
</event>
<event>
 5    1  0.3267085E-002  0.1250000E+03  0.7818608E-02  0.1235069E+00
         -4   -1    0    0    0  501 -0.00000000000E+00  0.00000000000E+00  0.17524008291E+02  0.17569967745E+02  0.12700000000E+01 0. -1.
          4   -1    0    0  501    0  0.00000000000E+00 -0.00000000000E+00 -0.22256882357E+03  0.22257244692E+03  0.12700000000E+01 0. -1.
         25    2    1    2    0    0  0.00000000000E+00  0.00000000000E+00 -0.20504481528E+03  0.24014241466E+03  0.12500001218E+03 0.  0.
    9000005    1    3    3    0    0  0.57776319754E+02  0.61396976247E+01 -0.14672747045E+03  0.15781555562E+03  0.10000000000E+01 0.  0.
    9000005    1    3    3    0    0 -0.57776319754E+02 -0.61396976247E+01 -0.58317344832E+02  0.82326859041E+02  0.10000000000E+01 0.  0.
<mgrwt>
<rscale>  0 0.12500001E+03</rscale>
<asrwt>0</asrwt>
<pdfrwt beam="2">  1        4 0.34245170E-01 0.12500001E+03</pdfrwt>
<pdfrwt beam="1">  1       -4 0.26998155E-02 0.12500001E+03</pdfrwt>
<totfact> 0.83776140E+03</totfact>
</mgrwt>
</event>
<event>
 5    1  0.3267085E-002  0.1250004E+03  0.7818608E-02  0.1235069E+00
          4   -1    0    0  501    0  0.00000000000E+00  0.00000000000E+00  0.13427534485E+04  0.13427540491E+04  0.12700000000E+01 0. -1.
         -4   -1    0    0    0  501 -0.00000000000E+00 -0.00000000000E+00 -0.27699189232E+01  0.30471873656E+01  0.12700000000E+01 0. -1.
         25    2    1    2    0    0  0.00000000000E+00  0.00000000000E+00  0.13399835296E+04  0.13458012365E+04  0.12500043408E+03 0.  0.
    9000005    1    3    3    0    0  0.13987959943E+02 -0.36018188155E+02  0.14119907718E+03  0.14639382602E+03  0.10000000000E+01 0.  0.
    9000005    1    3    3    0    0 -0.13987959943E+02  0.36018188155E+02  0.11987844524E+04  0.11994074105E+04  0.10000000000E+01 0.  0.
<mgrwt>
<rscale>  0 0.12500043E+03</rscale>
<asrwt>0</asrwt>
<pdfrwt beam="1">  1        4 0.20659868E+00 0.12500043E+03</pdfrwt>
<pdfrwt beam="2">  1       -4 0.44751623E-03 0.12500043E+03</pdfrwt>
<totfact> 0.21172442E+03</totfact>
</mgrwt>
</event>
<event>
 5    1  0.3267085E-002  0.1250122E+03  0.7818608E-02  0.1235050E+00
          4   -1    0    0  501    0  0.00000000000E+00  0.00000000000E+00  0.94599376385E+01  0.95448059238E+01  0.12700000000E+01 0. -1.
         -4   -1    0    0    0  501 -0.00000000000E+00 -0.00000000000E+00 -0.41107623097E+03  0.41107819277E+03  0.12700000000E+01 0. -1.
         25    2    1    2    0    0  0.00000000000E+00  0.00000000000E+00 -0.40161629333E+03  0.42062299869E+03  0.12501223923E+03 0.  0.
    9000005    1    3    3    0    0 -0.45307327995E+02  0.19221351942E+02 -0.71201206045E+02  0.86561111839E+02  0.10000000000E+01 0.  0.
    9000005    1    3    3    0    0  0.45307327995E+02 -0.19221351942E+02 -0.33041508729E+03  0.33406188685E+03  0.10000000000E+01 0.  0.
<mgrwt>
<rscale>  0 0.12501224E+03</rscale>
<asrwt>0</asrwt>
<pdfrwt beam="1">  1        4 0.14620546E-02 0.12501224E+03</pdfrwt>
<pdfrwt beam="2">  1       -4 0.63249163E-01 0.12501224E+03</pdfrwt>
<totfact> 0.62578365E+03</totfact>
</mgrwt>
</event>
<event>
 4    1  0.3267085E-002  0.1252678E+03  0.7818608E-02  0.1234651E+00
         -4   -1    0    0    0  501 -0.00000000000E+00  0.00000000000E+00  0.88408636297E+02  0.88417757673E+02  0.12700000000E+01 0. -1.
          4   -1    0    0  501    0  0.00000000000E+00 -0.00000000000E+00 -0.44353055987E+02  0.44371234774E+02  0.12700000000E+01 0. -1.
    9000005    1    1    2    0    0 -0.25587416469E+01  0.53980156987E+02  0.55576050850E+02  0.77524847212E+02  0.10000000000E+01 0.  0.
    9000005    1    1    2    0    0  0.25587416469E+01 -0.53980156987E+02 -0.11520470540E+02  0.55264145235E+02  0.10000000000E+01 0.  0.
<mgrwt>
<rscale>  0 0.12526780E+03</rscale>
<asrwt>0</asrwt>
<pdfrwt beam="2">  1        4 0.68256472E-02 0.12526780E+03</pdfrwt>
<pdfrwt beam="1">  1       -4 0.13603428E-01 0.12526780E+03</pdfrwt>
<totfact> 0.10223002E+04</totfact>
</mgrwt>
</event>
<event>
 5    1  0.3267085E-002  0.1250054E+03  0.7818608E-02  0.1235061E+00
         -4   -1    0    0    0  501 -0.00000000000E+00  0.00000000000E+00  0.73132570130E+03  0.73132680402E+03  0.12700000000E+01 0.  1.
          4   -1    0    0  501    0  0.00000000000E+00 -0.00000000000E+00 -0.52651786276E+01  0.54161800173E+01  0.12700000000E+01 0.  1.
         25    2    1    2    0    0  0.00000000000E+00  0.00000000000E+00  0.72606052267E+03  0.73674298404E+03  0.12500536768E+03 0.  0.
    9000005    1    3    3    0    0  0.39549365598E+02 -0.48252314895E+02  0.34166022679E+03  0.34731131393E+03  0.10000000000E+01 0.  0.
    9000005    1    3    3    0    0 -0.39549365598E+02  0.48252314895E+02  0.38440029588E+03  0.38943167011E+03  0.10000000000E+01 0.  0.
<mgrwt>
<rscale>  0 0.12500537E+03</rscale>
<asrwt>0</asrwt>
<pdfrwt beam="2">  1        4 0.82172831E-03 0.12500537E+03</pdfrwt>
<pdfrwt beam="1">  1       -4 0.11252328E+00 0.12500537E+03</pdfrwt>
<totfact> 0.41211574E+03</totfact>
</mgrwt>
</event>
<event>
 5    1  0.3267085E-002  0.1250023E+03  0.7818608E-02  0.1235066E+00
         -4   -1    0    0    0  501 -0.00000000000E+00  0.00000000000E+00  0.90015649010E+01  0.90907134300E+01  0.12700000000E+01 0.  1.
          4   -1    0    0  501    0  0.00000000000E+00 -0.00000000000E+00 -0.43174003252E+03  0.43174190043E+03  0.12700000000E+01 0.  1.
         25    2    1    2    0    0  0.00000000000E+00  0.00000000000E+00 -0.42273846762E+03  0.44083261386E+03  0.12500232570E+03 0.  0.
    9000005    1    3    3    0    0  0.19312308981E+02 -0.43830595749E+02 -0.69807773383E+02  0.84665291747E+02  0.10000000000E+01 0.  0.
    9000005    1    3    3    0    0 -0.19312308981E+02  0.43830595749E+02 -0.35293069424E+03  0.35616732211E+03  0.10000000000E+01 0.  0.
<mgrwt>
<rscale>  0 0.12500233E+03</rscale>
<asrwt>0</asrwt>
<pdfrwt beam="2">  1        4 0.66428529E-01 0.12500233E+03</pdfrwt>
<pdfrwt beam="1">  1       -4 0.13918577E-02 0.12500233E+03</pdfrwt>
<totfact> 0.60763099E+03</totfact>
</mgrwt>
</event>
<event>
 5    1  0.3267085E-002  0.1250018E+03  0.7818608E-02  0.1235066E+00
         -4   -1    0    0    0  501 -0.00000000000E+00  0.00000000000E+00  0.70054573665E+01  0.71196441564E+01  0.12700000000E+01 0. -1.
          4   -1    0    0  501    0  0.00000000000E+00 -0.00000000000E+00 -0.55299440906E+03  0.55299586739E+03  0.12700000000E+01 0. -1.
         25    2    1    2    0    0  0.00000000000E+00  0.00000000000E+00 -0.54598895169E+03  0.56011551155E+03  0.12500180361E+03 0.  0.
    9000005    1    3    3    0    0 -0.55583349982E+02 -0.28511656278E+02 -0.28067674858E+03  0.28754627546E+03  0.10000000000E+01 0.  0.
    9000005    1    3    3    0    0  0.55583349982E+02  0.28511656278E+02 -0.26531220311E+03  0.27256923608E+03  0.10000000000E+01 0.  0.
<mgrwt>
<rscale>  0 0.12500180E+03</rscale>
<asrwt>0</asrwt>
<pdfrwt beam="2">  1        4 0.85084925E-01 0.12500180E+03</pdfrwt>
<pdfrwt beam="1">  1       -4 0.10866589E-02 0.12500180E+03</pdfrwt>
<totfact> 0.51484046E+03</totfact>
</mgrwt>
</event>
<event>
 4    1  0.3267085E-002  0.1262803E+03  0.7818608E-02  0.1233082E+00
         -4   -1    0    0    0  501 -0.00000000000E+00  0.00000000000E+00  0.43009826180E+02  0.43028572461E+02  0.12700000000E+01 0. -1.
          4   -1    0    0  501    0  0.00000000000E+00 -0.00000000000E+00 -0.92649023492E+02  0.92657727438E+02  0.12700000000E+01 0. -1.
    9000005    1    1    2    0    0 -0.56215753590E+02 -0.27975182061E+02 -0.31853885289E+02  0.70416558926E+02  0.10000000000E+01 0.  0.
    9000005    1    1    2    0    0  0.56215753590E+02  0.27975182061E+02 -0.17785312022E+02  0.65269740973E+02  0.10000000000E+01 0.  0.
<mgrwt>
<rscale>  0 0.12628033E+03</rscale>
<asrwt>0</asrwt>
<pdfrwt beam="2">  1        4 0.14255807E-01 0.12628033E+03</pdfrwt>
<pdfrwt beam="1">  1       -4 0.66190079E-02 0.12628033E+03</pdfrwt>
<totfact> 0.99339553E+03</totfact>
</mgrwt>
</event>
<event>
 5    1  0.3267085E-002  0.1249904E+03  0.7818608E-02  0.1235084E+00
         -4   -1    0    0    0  501 -0.00000000000E+00  0.00000000000E+00  0.95659203797E+02  0.95667633874E+02  0.12700000000E+01 0.  1.
          4   -1    0    0  501    0  0.00000000000E+00 -0.00000000000E+00 -0.40808708276E+02  0.40828465207E+02  0.12700000000E+01 0.  1.
         25    2    1    2    0    0  0.00000000000E+00  0.00000000000E+00  0.54850495520E+02  0.13649609908E+03  0.12499043246E+03 0.  0.
    9000005    1    3    3    0    0  0.33862966811E+01 -0.60141883818E+02  0.45572347687E+02  0.75540400237E+02  0.10000000000E+01 0.  0.
    9000005    1    3    3    0    0 -0.33862966811E+01  0.60141883818E+02  0.92781478336E+01  0.60955698844E+02  0.10000000000E+01 0.  0.
<mgrwt>
<rscale>  0 0.12499043E+03</rscale>
<asrwt>0</asrwt>
<pdfrwt beam="2">  1        4 0.62804312E-02 0.12499043E+03</pdfrwt>
<pdfrwt beam="1">  1       -4 0.14718969E-01 0.12499043E+03</pdfrwt>
<totfact> 0.10208835E+04</totfact>
</mgrwt>
</event>
<event>
 5    1  0.3267085E-002  0.1249949E+03  0.7818608E-02  0.1235077E+00
         -4   -1    0    0    0  501 -0.00000000000E+00  0.00000000000E+00  0.45555523693E+02  0.45573222828E+02  0.12700000000E+01 0. -1.
          4   -1    0    0  501    0  0.00000000000E+00 -0.00000000000E+00 -0.85700915408E+02  0.85710324943E+02  0.12700000000E+01 0. -1.
         25    2    1    2    0    0  0.00000000000E+00  0.00000000000E+00 -0.40145391715E+02  0.13128354777E+03  0.12499486965E+03 0.  0.
    9000005    1    3    3    0    0  0.25031703988E+02 -0.24842643677E+02  0.34109393559E+02  0.49073352019E+02  0.10000000000E+01 0.  0.
    9000005    1    3    3    0    0 -0.25031703988E+02  0.24842643677E+02 -0.74254785274E+02  0.82210195752E+02  0.10000000000E+01 0.  0.
<mgrwt>
<rscale>  0 0.12499487E+03</rscale>
<asrwt>0</asrwt>
<pdfrwt beam="2">  1        4 0.13186841E-01 0.12499487E+03</pdfrwt>
<pdfrwt beam="1">  1       -4 0.70106274E-02 0.12499487E+03</pdfrwt>
<totfact> 0.10318209E+04</totfact>
</mgrwt>
</event>
<event>
 5    1  0.3267085E-002  0.1249991E+03  0.7818608E-02  0.1235071E+00
         -4   -1    0    0    0  501 -0.00000000000E+00  0.00000000000E+00  0.48376269168E+02  0.48392936660E+02  0.12700000000E+01 0. -1.
          4   -1    0    0  501    0  0.00000000000E+00 -0.00000000000E+00 -0.80710544200E+02  0.80720535460E+02  0.12700000000E+01 0. -1.
         25    2    1    2    0    0  0.00000000000E+00  0.00000000000E+00 -0.32334275032E+02  0.12911347212E+03  0.12499913336E+03 0.  0.
    9000005    1    3    3    0    0 -0.12160344160E+02 -0.48990742467E+02 -0.54220332507E+02  0.74086512097E+02  0.10000000000E+01 0.  0.
    9000005    1    3    3    0    0  0.12160344160E+02  0.48990742467E+02  0.21886057476E+02  0.55026960023E+02  0.10000000000E+01 0.  0.
<mgrwt>
<rscale>  0 0.12499913E+03</rscale>
<asrwt>0</asrwt>
<pdfrwt beam="2">  1        4 0.12419057E-01 0.12499913E+03</pdfrwt>
<pdfrwt beam="1">  1       -4 0.74445536E-02 0.12499913E+03</pdfrwt>
<totfact> 0.10363712E+04</totfact>
</mgrwt>
</event>
<event>
 5    1  0.3267085E-002  0.1250003E+03  0.7818608E-02  0.1235069E+00
          4   -1    0    0  501    0  0.00000000000E+00  0.00000000000E+00  0.65518751791E+02  0.65531059325E+02  0.12700000000E+01 0.  1.
         -4   -1    0    0    0  501 -0.00000000000E+00 -0.00000000000E+00 -0.59595955315E+02  0.59609485738E+02  0.12700000000E+01 0.  1.
         25    2    1    2    0    0  0.00000000000E+00  0.00000000000E+00  0.59227964754E+01  0.12514054506E+03  0.12500030600E+03 0.  0.
    9000005    1    3    3    0    0 -0.29566666601E+02 -0.54289436096E+02  0.12122537856E+02  0.63003861545E+02  0.10000000000E+01 0.  0.
    9000005    1    3    3    0    0  0.29566666601E+02  0.54289436096E+02 -0.61997413806E+01  0.62136683518E+02  0.10000000000E+01 0.  0.
<mgrwt>
<rscale>  0 0.12500031E+03</rscale>
<asrwt>0</asrwt>
<pdfrwt beam="1">  1        4 0.10081795E-01 0.12500031E+03</pdfrwt>
<pdfrwt beam="2">  1       -4 0.91705961E-02 0.12500031E+03</pdfrwt>
<totfact> 0.10449739E+04</totfact>
</mgrwt>
</event>
<event>
 5    1  0.3267085E-002  0.1250047E+03  0.7818608E-02  0.1235062E+00
          4   -1    0    0  501    0  0.00000000000E+00  0.00000000000E+00  0.19621156084E+04  0.19621160195E+04  0.12700000000E+01 0. -1.
         -4   -1    0    0    0  501 -0.00000000000E+00 -0.00000000000E+00 -0.17880062718E+01  0.21931407679E+01  0.12700000000E+01 0. -1.
         25    2    1    2    0    0  0.00000000000E+00  0.00000000000E+00  0.19603276022E+04  0.19643091602E+04  0.12500467629E+03 0.  0.
    9000005    1    3    3    0    0  0.18638930658E+02 -0.58250312315E+02  0.11820328972E+04  0.11836144975E+04  0.10000000000E+01 0.  0.
    9000005    1    3    3    0    0 -0.18638930658E+02  0.58250312315E+02  0.77829470502E+03  0.78069466277E+03  0.10000000000E+01 0.  0.
<mgrwt>
<rscale>  0 0.12500468E+03</rscale>
<asrwt>0</asrwt>
<pdfrwt beam="1">  1        4 0.30189562E+00 0.12500468E+03</pdfrwt>
<pdfrwt beam="2">  1       -4 0.30627320E-03 0.12500468E+03</pdfrwt>
<totfact> 0.10333287E+03</totfact>
</mgrwt>
</event>
<event>
 5    1  0.3267085E-002  0.1249977E+03  0.7818608E-02  0.1235073E+00
         -4   -1    0    0    0  501 -0.00000000000E+00  0.00000000000E+00  0.33101252597E+02  0.33125606765E+02  0.12700000000E+01 0.  1.
          4   -1    0    0  501    0  0.00000000000E+00 -0.00000000000E+00 -0.11793355652E+03  0.11794039449E+03  0.12700000000E+01 0.  1.
         25    2    1    2    0    0  0.00000000000E+00  0.00000000000E+00 -0.84832303923E+02  0.15106600126E+03  0.12499766777E+03 0.  0.
    9000005    1    3    3    0    0 -0.57578929328E+02  0.23923063887E+02 -0.47465832639E+02  0.78368688623E+02  0.10000000000E+01 0.  0.
    9000005    1    3    3    0    0  0.57578929328E+02 -0.23923063887E+02 -0.37366471284E+02  0.72697312636E+02  0.10000000000E+01 0.  0.
<mgrwt>
<rscale>  0 0.12499767E+03</rscale>
<asrwt>0</asrwt>
<pdfrwt beam="2">  1        4 0.18146023E-01 0.12499767E+03</pdfrwt>
<pdfrwt beam="1">  1       -4 0.50948999E-02 0.12499767E+03</pdfrwt>
<totfact> 0.99096831E+03</totfact>
</mgrwt>
</event>
<event>
 5    1  0.3267085E-002  0.1249991E+03  0.7818608E-02  0.1235071E+00
         -4   -1    0    0    0  501 -0.00000000000E+00  0.00000000000E+00  0.53654317014E+03  0.53654467318E+03  0.12700000000E+01 0. -1.
          4   -1    0    0  501    0  0.00000000000E+00 -0.00000000000E+00 -0.72233922929E+01  0.73341868136E+01  0.12700000000E+01 0. -1.
         25    2    1    2    0    0  0.00000000000E+00  0.00000000000E+00  0.52931977785E+03  0.54387886000E+03  0.12499914853E+03 0.  0.
    9000005    1    3    3    0    0 -0.17701417571E+02 -0.59542804380E+02  0.29433368974E+03  0.30081889344E+03  0.10000000000E+01 0.  0.
    9000005    1    3    3    0    0  0.17701417571E+02  0.59542804380E+02  0.23498608811E+03  0.24305996655E+03  0.10000000000E+01 0.  0.
<mgrwt>
<rscale>  0 0.12499915E+03</rscale>
<asrwt>0</asrwt>
<pdfrwt beam="2">  1        4 0.11199290E-02 0.12499915E+03</pdfrwt>
<pdfrwt beam="1">  1       -4 0.82553771E-01 0.12499915E+03</pdfrwt>
<totfact> 0.52614668E+03</totfact>
</mgrwt>
</event>
<event>
 5    1  0.3267085E-002  0.1249929E+03  0.7818608E-02  0.1235080E+00
         -4   -1    0    0    0  501 -0.00000000000E+00  0.00000000000E+00  0.18015021483E+03  0.18015469132E+03  0.12700000000E+01 0.  1.
          4   -1    0    0  501    0  0.00000000000E+00 -0.00000000000E+00 -0.21657478915E+02  0.21694683518E+02  0.12700000000E+01 0.  1.
         25    2    1    2    0    0  0.00000000000E+00  0.00000000000E+00  0.15849273592E+03  0.20184937484E+03  0.12499289093E+03 0.  0.
    9000005    1    3    3    0    0 -0.10231012232E+02  0.60713222814E+02  0.96491413289E+02  0.11446554885E+03  0.10000000000E+01 0.  0.
    9000005    1    3    3    0    0  0.10231012232E+02 -0.60713222814E+02  0.62001322629E+02  0.87383825983E+02  0.10000000000E+01 0.  0.
<mgrwt>
<rscale>  0 0.12499289E+03</rscale>
<asrwt>0</asrwt>
<pdfrwt beam="2">  1        4 0.33351260E-02 0.12499289E+03</pdfrwt>
<pdfrwt beam="1">  1       -4 0.27718624E-01 0.12499289E+03</pdfrwt>
<totfact> 0.89838817E+03</totfact>
</mgrwt>
</event>
<event>
 5    1  0.3267085E-002  0.1249987E+03  0.7818608E-02  0.1235071E+00
         -4   -1    0    0    0  501 -0.00000000000E+00  0.00000000000E+00  0.28220397135E+02  0.28248959529E+02  0.12700000000E+01 0. -1.
          4   -1    0    0  501    0  0.00000000000E+00 -0.00000000000E+00 -0.13831511691E+03  0.13832094731E+03  0.12700000000E+01 0. -1.
         25    2    1    2    0    0  0.00000000000E+00  0.00000000000E+00 -0.11009471977E+03  0.16656990684E+03  0.12499874617E+03 0.  0.
    9000005    1    3    3    0    0 -0.38907387513E+02  0.34002386773E+02 -0.82130808299E+01  0.52329741124E+02  0.10000000000E+01 0.  0.
    9000005    1    3    3    0    0  0.38907387513E+02 -0.34002386773E+02 -0.10188163894E+03  0.11424016572E+03  0.10000000000E+01 0.  0.
<mgrwt>
<rscale>  0 0.12499875E+03</rscale>
<asrwt>0</asrwt>
<pdfrwt beam="2">  1        4 0.21281894E-01 0.12499875E+03</pdfrwt>
<pdfrwt beam="1">  1       -4 0.43442452E-02 0.12499875E+03</pdfrwt>
<totfact> 0.96093607E+03</totfact>
</mgrwt>
</event>
<event>
 5    1  0.3267085E-002  0.1249970E+03  0.7818608E-02  0.1235074E+00
         -4   -1    0    0    0  501 -0.00000000000E+00  0.00000000000E+00  0.21757293462E+01  0.25192654064E+01  0.12700000000E+01 0.  1.
          4   -1    0    0  501    0  0.00000000000E+00 -0.00000000000E+00 -0.16635825343E+04  0.16635830191E+04  0.12700000000E+01 0.  1.
         25    2    1    2    0    0  0.00000000000E+00  0.00000000000E+00 -0.16614068050E+04  0.16661022845E+04  0.12499700309E+03 0.  0.
    9000005    1    3    3    0    0 -0.31892004724E+02  0.43812510869E+02 -0.41590658179E+03  0.41942331939E+03  0.10000000000E+01 0.  0.
    9000005    1    3    3    0    0  0.31892004724E+02 -0.43812510869E+02 -0.12455002232E+04  0.12466789651E+04  0.10000000000E+01 0.  0.
<mgrwt>
<rscale>  0 0.12499700E+03</rscale>
<asrwt>0</asrwt>
<pdfrwt beam="2">  1        4 0.25596130E+00 0.12499700E+03</pdfrwt>
<pdfrwt beam="1">  1       -4 0.36119206E-03 0.12499700E+03</pdfrwt>
<totfact> 0.14882455E+03</totfact>
</mgrwt>
</event>
<event>
 5    1  0.3267085E-002  0.1250017E+03  0.7818608E-02  0.1235067E+00
         -4   -1    0    0    0  501 -0.00000000000E+00  0.00000000000E+00  0.11038525156E+02  0.11111342746E+02  0.12700000000E+01 0. -1.
          4   -1    0    0  501    0  0.00000000000E+00 -0.00000000000E+00 -0.35264673422E+03  0.35264902107E+03  0.12700000000E+01 0. -1.
         25    2    1    2    0    0  0.00000000000E+00  0.00000000000E+00 -0.34160820907E+03  0.36376036381E+03  0.12500173510E+03 0.  0.
    9000005    1    3    3    0    0  0.49006304351E+02  0.33993108872E+02 -0.22510655270E+03  0.23287573808E+03  0.10000000000E+01 0.  0.
    9000005    1    3    3    0    0 -0.49006304351E+02 -0.33993108872E+02 -0.11650165637E+03  0.13088462573E+03  0.10000000000E+01 0.  0.
<mgrwt>
<rscale>  0 0.12500174E+03</rscale>
<asrwt>0</asrwt>
<pdfrwt beam="2">  1        4 0.54259112E-01 0.12500174E+03</pdfrwt>
<pdfrwt beam="1">  1       -4 0.17040122E-02 0.12500174E+03</pdfrwt>
<totfact> 0.68234197E+03</totfact>
</mgrwt>
</event>
<event>
 5    1  0.3267085E-002  0.1249987E+03  0.7818608E-02  0.1235071E+00
         -4   -1    0    0    0  501 -0.00000000000E+00  0.00000000000E+00  0.71891567959E+02  0.71902784672E+02  0.12700000000E+01 0. -1.
          4   -1    0    0  501    0  0.00000000000E+00 -0.00000000000E+00 -0.54311269527E+02  0.54326116166E+02  0.12700000000E+01 0. -1.
         25    2    1    2    0    0  0.00000000000E+00  0.00000000000E+00  0.17580298431E+02  0.12622890084E+03  0.12499867405E+03 0.  0.
    9000005    1    3    3    0    0 -0.14049690166E+02 -0.55183450174E+02  0.34783726612E+02  0.66734658191E+02  0.10000000000E+01 0.  0.
    9000005    1    3    3    0    0  0.14049690166E+02  0.55183450174E+02 -0.17203428181E+02  0.59494242646E+02  0.10000000000E+01 0.  0.
<mgrwt>
<rscale>  0 0.12499867E+03</rscale>
<asrwt>0</asrwt>
<pdfrwt beam="2">  1        4 0.83575848E-02 0.12499867E+03</pdfrwt>
<pdfrwt beam="1">  1       -4 0.11062246E-01 0.12499867E+03</pdfrwt>
<totfact> 0.10426259E+04</totfact>
</mgrwt>
</event>
<event>
 5    1  0.3267085E-002  0.1249992E+03  0.7818608E-02  0.1235070E+00
         -4   -1    0    0    0  501 -0.00000000000E+00  0.00000000000E+00  0.91689764487E+01  0.92565127947E+01  0.12700000000E+01 0. -1.
          4   -1    0    0  501    0  0.00000000000E+00 -0.00000000000E+00 -0.42391130533E+03  0.42391320773E+03  0.12700000000E+01 0. -1.
         25    2    1    2    0    0  0.00000000000E+00  0.00000000000E+00 -0.41474232888E+03  0.43316972052E+03  0.12499922965E+03 0.  0.
    9000005    1    3    3    0    0  0.42609580034E+02 -0.30755349609E+02 -0.32456729493E+03  0.32879537220E+03  0.10000000000E+01 0.  0.
    9000005    1    3    3    0    0 -0.42609580034E+02  0.30755349609E+02 -0.90175033950E+02  0.10437434832E+03  0.10000000000E+01 0.  0.
<mgrwt>
<rscale>  0 0.12499923E+03</rscale>
<asrwt>0</asrwt>
<pdfrwt beam="2">  1        4 0.65223989E-01 0.12499923E+03</pdfrwt>
<pdfrwt beam="1">  1       -4 0.14174920E-02 0.12499923E+03</pdfrwt>
<totfact> 0.61450773E+03</totfact>
</mgrwt>
</event>
<event>
 5    1  0.3267085E-002  0.1249936E+03  0.7818608E-02  0.1235079E+00
          4   -1    0    0  501    0  0.00000000000E+00  0.00000000000E+00  0.61540280440E+02  0.61553383471E+02  0.12700000000E+01 0. -1.
         -4   -1    0    0    0  501 -0.00000000000E+00 -0.00000000000E+00 -0.63441931053E+02  0.63454641404E+02  0.12700000000E+01 0. -1.
         25    2    1    2    0    0  0.00000000000E+00  0.00000000000E+00 -0.19016506129E+01  0.12500802488E+03  0.12499355987E+03 0.  0.
    9000005    1    3    3    0    0 -0.39693440240E+02 -0.46357427204E+02  0.12477092350E+02  0.62299743889E+02  0.10000000000E+01 0.  0.
    9000005    1    3    3    0    0  0.39693440240E+02  0.46357427204E+02 -0.14378742963E+02  0.62708280986E+02  0.10000000000E+01 0.  0.
<mgrwt>
<rscale>  0 0.12499356E+03</rscale>
<asrwt>0</asrwt>
<pdfrwt beam="1">  1        4 0.94697210E-02 0.12499356E+03</pdfrwt>
<pdfrwt beam="2">  1       -4 0.97622828E-02 0.12499356E+03</pdfrwt>
<totfact> 0.10454210E+04</totfact>
</mgrwt>
</event>
<event>
 5    1  0.3267085E-002  0.1249985E+03  0.7818608E-02  0.1235072E+00
         -4   -1    0    0    0  501 -0.00000000000E+00  0.00000000000E+00  0.27619905596E+03  0.27620197576E+03  0.12700000000E+01 0.  1.
          4   -1    0    0  501    0  0.00000000000E+00 -0.00000000000E+00 -0.14111017817E+02  0.14168052930E+02  0.12700000000E+01 0.  1.
         25    2    1    2    0    0  0.00000000000E+00  0.00000000000E+00  0.26208803814E+03  0.29037002869E+03  0.12499845528E+03 0.  0.
    9000005    1    3    3    0    0 -0.61562713817E+02 -0.93916388460E+01  0.11897725019E+03  0.13429354666E+03  0.10000000000E+01 0.  0.
    9000005    1    3    3    0    0  0.61562713817E+02  0.93916388460E+01  0.14311078796E+03  0.15607648203E+03  0.10000000000E+01 0.  0.
<mgrwt>
<rscale>  0 0.12499846E+03</rscale>
<asrwt>0</asrwt>
<pdfrwt beam="2">  1        4 0.21755379E-02 0.12499846E+03</pdfrwt>
<pdfrwt beam="1">  1       -4 0.42496771E-01 0.12499846E+03</pdfrwt>
<totfact> 0.76825541E+03</totfact>
</mgrwt>
</event>
<event>
 5    1  0.3267085E-002  0.1250003E+03  0.7818608E-02  0.1235069E+00
         -4   -1    0    0    0  501 -0.00000000000E+00  0.00000000000E+00  0.66422520778E+03  0.66422642190E+03  0.12700000000E+01 0.  1.
          4   -1    0    0  501    0  0.00000000000E+00 -0.00000000000E+00 -0.58111390029E+01  0.59482969420E+01  0.12700000000E+01 0.  1.
         25    2    1    2    0    0  0.00000000000E+00  0.00000000000E+00  0.65841406877E+03  0.67017471884E+03  0.12500027125E+03 0.  0.
    9000005    1    3    3    0    0  0.41563650155E+02 -0.32621782884E+02  0.15029819662E+03  0.15931812715E+03  0.10000000000E+01 0.  0.
    9000005    1    3    3    0    0 -0.41563650155E+02  0.32621782884E+02  0.50811587215E+03  0.51085659169E+03  0.10000000000E+01 0.  0.
<mgrwt>
<rscale>  0 0.12500027E+03</rscale>
<asrwt>0</asrwt>
<pdfrwt beam="2">  1        4 0.90466536E-03 0.12500027E+03</pdfrwt>
<pdfrwt beam="1">  1       -4 0.10219914E+00 0.12500027E+03</pdfrwt>
<totfact> 0.44708300E+03</totfact>
</mgrwt>
</event>
<event>
 5    1  0.3267085E-002  0.1250037E+03  0.7818608E-02  0.1235063E+00
          4   -1    0    0  501    0  0.00000000000E+00  0.00000000000E+00  0.23671075618E+02  0.23705120142E+02  0.12700000000E+01 0.  1.
         -4   -1    0    0    0  501 -0.00000000000E+00 -0.00000000000E+00 -0.16487686544E+03  0.16488175659E+03  0.12700000000E+01 0.  1.
         25    2    1    2    0    0  0.00000000000E+00  0.00000000000E+00 -0.14120578982E+03  0.18858687674E+03  0.12500373993E+03 0.  0.
    9000005    1    3    3    0    0 -0.44213266803E+02  0.40543397825E+02 -0.44173360661E+02  0.74504133178E+02  0.10000000000E+01 0.  0.
    9000005    1    3    3    0    0  0.44213266803E+02 -0.40543397825E+02 -0.97032429161E+02  0.11408274356E+03  0.10000000000E+01 0.  0.
<mgrwt>
<rscale>  0 0.12500374E+03</rscale>
<asrwt>0</asrwt>
<pdfrwt beam="1">  1        4 0.36446991E-02 0.12500374E+03</pdfrwt>
<pdfrwt beam="2">  1       -4 0.25368666E-01 0.12500374E+03</pdfrwt>
<totfact> 0.92086061E+03</totfact>
</mgrwt>
</event>
<event>
 5    1  0.3267085E-002  0.1250190E+03  0.7818608E-02  0.1235040E+00
         -4   -1    0    0    0  501 -0.00000000000E+00  0.00000000000E+00  0.40484707074E+02  0.40504622043E+02  0.12700000000E+01 0. -1.
          4   -1    0    0  501    0  0.00000000000E+00 -0.00000000000E+00 -0.96468615297E+02  0.96476974648E+02  0.12700000000E+01 0. -1.
         25    2    1    2    0    0  0.00000000000E+00  0.00000000000E+00 -0.55983908223E+02  0.13698159669E+03  0.12501903796E+03 0.  0.
    9000005    1    3    3    0    0  0.41237143925E+02 -0.44810159139E+02 -0.43409137036E+02  0.74791748070E+02  0.10000000000E+01 0.  0.
    9000005    1    3    3    0    0 -0.41237143925E+02  0.44810159139E+02 -0.12574771187E+02  0.62189848622E+02  0.10000000000E+01 0.  0.
<mgrwt>
<rscale>  0 0.12501904E+03</rscale>
<asrwt>0</asrwt>
<pdfrwt beam="2">  1        4 0.14843500E-01 0.12501904E+03</pdfrwt>
<pdfrwt beam="1">  1       -4 0.62305914E-02 0.12501904E+03</pdfrwt>
<totfact> 0.10192095E+04</totfact>
</mgrwt>
</event>
<event>
 5    1  0.3267085E-002  0.1250011E+03  0.7818608E-02  0.1235067E+00
         -4   -1    0    0    0  501 -0.00000000000E+00  0.00000000000E+00  0.67257627171E+02  0.67269616564E+02  0.12700000000E+01 0. -1.
          4   -1    0    0  501    0  0.00000000000E+00 -0.00000000000E+00 -0.58055872015E+02  0.58069761283E+02  0.12700000000E+01 0. -1.
         25    2    1    2    0    0  0.00000000000E+00  0.00000000000E+00  0.92017551558E+01  0.12533937785E+03  0.12500114936E+03 0.  0.
    9000005    1    3    3    0    0 -0.28295841715E+00 -0.36055714677E+02  0.55780412023E+02  0.66427020044E+02  0.10000000000E+01 0.  0.
    9000005    1    3    3    0    0  0.28295841715E+00  0.36055714677E+02 -0.46578656868E+02  0.58912357803E+02  0.10000000000E+01 0.  0.
<mgrwt>
<rscale>  0 0.12500115E+03</rscale>
<asrwt>0</asrwt>
<pdfrwt beam="2">  1        4 0.89336633E-02 0.12500115E+03</pdfrwt>
<pdfrwt beam="1">  1       -4 0.10349318E-01 0.12500115E+03</pdfrwt>
<totfact> 0.10445224E+04</totfact>
</mgrwt>
</event>
<event>
 5    1  0.3267085E-002  0.1249899E+03  0.7818608E-02  0.1235085E+00
         -4   -1    0    0    0  501 -0.00000000000E+00  0.00000000000E+00  0.97677201833E+01  0.98499369328E+01  0.12700000000E+01 0.  1.
          4   -1    0    0  501    0  0.00000000000E+00 -0.00000000000E+00 -0.39809048324E+03  0.39809250903E+03  0.12700000000E+01 0.  1.
         25    2    1    2    0    0  0.00000000000E+00  0.00000000000E+00 -0.38832276305E+03  0.40794244596E+03  0.12498988323E+03 0.  0.
    9000005    1    3    3    0    0  0.32326682017E+02  0.17594180163E+02 -0.29345815487E+02  0.47082336735E+02  0.10000000000E+01 0.  0.
    9000005    1    3    3    0    0 -0.32326682017E+02 -0.17594180163E+02 -0.35897694757E+03  0.36086010922E+03  0.10000000000E+01 0.  0.
<mgrwt>
<rscale>  0 0.12498988E+03</rscale>
<asrwt>0</asrwt>
<pdfrwt beam="2">  1        4 0.61251157E-01 0.12498988E+03</pdfrwt>
<pdfrwt beam="1">  1       -4 0.15092067E-02 0.12498988E+03</pdfrwt>
<totfact> 0.63801828E+03</totfact>
</mgrwt>
</event>
<event>
 5    1  0.3267085E-002  0.1250134E+03  0.7818608E-02  0.1235048E+00
          4   -1    0    0  501    0  0.00000000000E+00  0.00000000000E+00  0.13650090670E+03  0.13650681459E+03  0.12700000000E+01 0.  1.
         -4   -1    0    0    0  501 -0.00000000000E+00 -0.00000000000E+00 -0.28602523592E+02  0.28630704774E+02  0.12700000000E+01 0.  1.
         25    2    1    2    0    0  0.00000000000E+00  0.00000000000E+00  0.10789838311E+03  0.16513751936E+03  0.12501335619E+03 0.  0.
    9000005    1    3    3    0    0  0.33742891121E+02  0.52394342623E+02  0.47706354627E+02  0.78489783488E+02  0.10000000000E+01 0.  0.
    9000005    1    3    3    0    0 -0.33742891121E+02 -0.52394342623E+02  0.60192028480E+02  0.86647735877E+02  0.10000000000E+01 0.  0.
<mgrwt>
<rscale>  0 0.12501336E+03</rscale>
<asrwt>0</asrwt>
<pdfrwt beam="1">  1        4 0.21002762E-01 0.12501336E+03</pdfrwt>
<pdfrwt beam="2">  1       -4 0.44030105E-02 0.12501336E+03</pdfrwt>
<totfact> 0.96332448E+03</totfact>
</mgrwt>
</event>
<event>
 5    1  0.3267085E-002  0.1249993E+03  0.7818608E-02  0.1235070E+00
         -4   -1    0    0    0  501 -0.00000000000E+00  0.00000000000E+00  0.16595882927E+02  0.16644405370E+02  0.12700000000E+01 0. -1.
          4   -1    0    0  501    0  0.00000000000E+00 -0.00000000000E+00 -0.23497808312E+03  0.23498151511E+03  0.12700000000E+01 0. -1.
         25    2    1    2    0    0  0.00000000000E+00  0.00000000000E+00 -0.21838220019E+03  0.25162592048E+03  0.12499927400E+03 0.  0.
    9000005    1    3    3    0    0  0.44034723828E+02  0.30635571970E+02 -0.17372113964E+03  0.18181757211E+03  0.10000000000E+01 0.  0.
    9000005    1    3    3    0    0 -0.44034723828E+02 -0.30635571970E+02 -0.44661060551E+02  0.69808348369E+02  0.10000000000E+01 0.  0.
<mgrwt>
<rscale>  0 0.12499927E+03</rscale>
<asrwt>0</asrwt>
<pdfrwt beam="2">  1        4 0.36154469E-01 0.12499927E+03</pdfrwt>
<pdfrwt beam="1">  1       -4 0.25572094E-02 0.12499927E+03</pdfrwt>
<totfact> 0.82097127E+03</totfact>
</mgrwt>
</event>
<event>
 5    1  0.3267085E-002  0.1250006E+03  0.7818608E-02  0.1235068E+00
         -4   -1    0    0    0  501 -0.00000000000E+00  0.00000000000E+00  0.30318848211E+03  0.30319114199E+03  0.12700000000E+01 0.  1.
          4   -1    0    0  501    0  0.00000000000E+00 -0.00000000000E+00 -0.12850006601E+02  0.12912612812E+02  0.12700000000E+01 0.  1.
         25    2    1    2    0    0  0.00000000000E+00  0.00000000000E+00  0.29033847551E+03  0.31610375480E+03  0.12500061377E+03 0.  0.
    9000005    1    3    3    0    0 -0.41017231418E+02 -0.25787767057E+02  0.45357278502E+02  0.66375484300E+02  0.10000000000E+01 0.  0.
    9000005    1    3    3    0    0  0.41017231418E+02  0.25787767057E+02  0.24498119700E+03  0.24972827050E+03  0.10000000000E+01 0.  0.
<mgrwt>
<rscale>  0 0.12500061E+03</rscale>
<asrwt>0</asrwt>
<pdfrwt beam="2">  1        4 0.19819446E-02 0.12500061E+03</pdfrwt>
<pdfrwt beam="1">  1       -4 0.46649403E-01 0.12500061E+03</pdfrwt>
<totfact> 0.73620937E+03</totfact>
</mgrwt>
</event>
<event>
 5    1  0.3267085E-002  0.1249995E+03  0.7818608E-02  0.1235070E+00
         -4   -1    0    0    0  501 -0.00000000000E+00  0.00000000000E+00  0.11927002433E+03  0.11927678568E+03  0.12700000000E+01 0. -1.
          4   -1    0    0  501    0  0.00000000000E+00 -0.00000000000E+00 -0.32731069092E+02  0.32755698495E+02  0.12700000000E+01 0. -1.
         25    2    1    2    0    0  0.00000000000E+00  0.00000000000E+00  0.86538955233E+02  0.15203248418E+03  0.12499954189E+03 0.  0.
    9000005    1    3    3    0    0  0.57130640353E+02 -0.20262936697E+02  0.24794878943E+02  0.65500249561E+02  0.10000000000E+01 0.  0.
    9000005    1    3    3    0    0 -0.57130640353E+02  0.20262936697E+02  0.61744076290E+02  0.86532234616E+02  0.10000000000E+01 0.  0.
<mgrwt>
<rscale>  0 0.12499954E+03</rscale>
<asrwt>0</asrwt>
<pdfrwt beam="2">  1        4 0.50379637E-02 0.12499954E+03</pdfrwt>
<pdfrwt beam="1">  1       -4 0.18351649E-01 0.12499954E+03</pdfrwt>
<totfact> 0.98901105E+03</totfact>
</mgrwt>
</event>
<event>
 5    1  0.3267085E-002  0.1250004E+03  0.7818608E-02  0.1235069E+00
         -4   -1    0    0    0  501 -0.00000000000E+00  0.00000000000E+00  0.45276959444E+01  0.47024387891E+01  0.12700000000E+01 0.  1.
          4   -1    0    0  501    0  0.00000000000E+00 -0.00000000000E+00 -0.84624315816E+03  0.84624411114E+03  0.12700000000E+01 0.  1.
         25    2    1    2    0    0  0.00000000000E+00  0.00000000000E+00 -0.84171546222E+03  0.85094654993E+03  0.12500044599E+03 0.  0.
    9000005    1    3    3    0    0  0.44808926423E+02 -0.14416999858E+02 -0.14103619227E+03  0.14868724660E+03  0.10000000000E+01 0.  0.
    9000005    1    3    3    0    0 -0.44808926423E+02  0.14416999858E+02 -0.70067926995E+03  0.70225930333E+03  0.10000000000E+01 0.  0.
<mgrwt>
<rscale>  0 0.12500045E+03</rscale>
<asrwt>0</asrwt>
<pdfrwt beam="2">  1        4 0.13020465E+00 0.12500045E+03</pdfrwt>
<pdfrwt beam="1">  1       -4 0.71008434E-03 0.12500045E+03</pdfrwt>
<totfact> 0.36088300E+03</totfact>
</mgrwt>
</event>
<event>
 5    1  0.3267085E-002  0.1250034E+03  0.7818608E-02  0.1235064E+00
         -4   -1    0    0    0  501 -0.00000000000E+00  0.00000000000E+00  0.11854655799E+02  0.11922489845E+02  0.12700000000E+01 0.  1.
          4   -1    0    0  501    0  0.00000000000E+00 -0.00000000000E+00 -0.32852064909E+03  0.32852310387E+03  0.12700000000E+01 0.  1.
         25    2    1    2    0    0  0.00000000000E+00  0.00000000000E+00 -0.31666599329E+03  0.34044559372E+03  0.12500340386E+03 0.  0.
    9000005    1    3    3    0    0 -0.22176309231E+02  0.81226398005E+01 -0.31591221270E+03  0.31679534735E+03  0.10000000000E+01 0.  0.
    9000005    1    3    3    0    0  0.22176309231E+02 -0.81226398005E+01 -0.75378059560E+00  0.23650246375E+02  0.10000000000E+01 0.  0.
<mgrwt>
<rscale>  0 0.12500340E+03</rscale>
<asrwt>0</asrwt>
<pdfrwt beam="2">  1        4 0.50547038E-01 0.12500340E+03</pdfrwt>
<pdfrwt beam="1">  1       -4 0.18292003E-02 0.12500340E+03</pdfrwt>
<totfact> 0.70783275E+03</totfact>
</mgrwt>
</event>
<event>
 5    1  0.3267085E-002  0.1249661E+03  0.7818608E-02  0.1235122E+00
          4   -1    0    0  501    0  0.00000000000E+00  0.00000000000E+00  0.10145293830E+02  0.10224474896E+02  0.12700000000E+01 0.  1.
         -4   -1    0    0    0  501 -0.00000000000E+00 -0.00000000000E+00 -0.38324587640E+03  0.38324798065E+03  0.12700000000E+01 0.  1.
         25    2    1    2    0    0  0.00000000000E+00  0.00000000000E+00 -0.37310058257E+03  0.39347245555E+03  0.12496610966E+03 0.  0.
    9000005    1    3    3    0    0  0.29719489624E+02 -0.53027269568E+02 -0.14114084624E+03  0.15367783789E+03  0.10000000000E+01 0.  0.
    9000005    1    3    3    0    0 -0.29719489624E+02  0.53027269568E+02 -0.23195973632E+03  0.23979461766E+03  0.10000000000E+01 0.  0.
<mgrwt>
<rscale>  0 0.12496611E+03</rscale>
<asrwt>0</asrwt>
<pdfrwt beam="1">  1        4 0.15670675E-02 0.12496611E+03</pdfrwt>
<pdfrwt beam="2">  1       -4 0.58967146E-01 0.12496611E+03</pdfrwt>
<totfact> 0.65241460E+03</totfact>
</mgrwt>
</event>
<event>
 5    1  0.3267085E-002  0.1250003E+03  0.7818608E-02  0.1235069E+00
         -4   -1    0    0    0  501 -0.00000000000E+00  0.00000000000E+00  0.35718333859E+02  0.35740904769E+02  0.12700000000E+01 0. -1.
          4   -1    0    0  501    0  0.00000000000E+00 -0.00000000000E+00 -0.10930229073E+03  0.10930966865E+03  0.12700000000E+01 0. -1.
         25    2    1    2    0    0  0.00000000000E+00  0.00000000000E+00 -0.73583956874E+02  0.14505057342E+03  0.12500028055E+03 0.  0.
    9000005    1    3    3    0    0 -0.31869456398E+02 -0.57661746418E+01  0.25225580569E+02  0.41063864116E+02  0.10000000000E+01 0.  0.
    9000005    1    3    3    0    0  0.31869456398E+02  0.57661746418E+01 -0.98809537443E+02  0.10398670930E+03  0.10000000000E+01 0.  0.
<mgrwt>
<rscale>  0 0.12500028E+03</rscale>
<asrwt>0</asrwt>
<pdfrwt beam="2">  1        4 0.16818041E-01 0.12500028E+03</pdfrwt>
<pdfrwt beam="1">  1       -4 0.54974321E-02 0.12500028E+03</pdfrwt>
<totfact> 0.10029898E+04</totfact>
</mgrwt>
</event>
<event>
 5    1  0.3267085E-002  0.1249998E+03  0.7818608E-02  0.1235070E+00
         -4   -1    0    0    0  501 -0.00000000000E+00  0.00000000000E+00  0.92340600289E+01  0.93209851741E+01  0.12700000000E+01 0.  1.
          4   -1    0    0  501    0  0.00000000000E+00 -0.00000000000E+00 -0.42095524711E+03  0.42095716287E+03  0.12700000000E+01 0.  1.
         25    2    1    2    0    0  0.00000000000E+00  0.00000000000E+00 -0.41172118708E+03  0.43027814804E+03  0.12499979516E+03 0.  0.
    9000005    1    3    3    0    0  0.40050250167E+02 -0.15731165813E+02 -0.36185651994E+03  0.36440723530E+03  0.10000000000E+01 0.  0.
    9000005    1    3    3    0    0 -0.40050250167E+02  0.15731165813E+02 -0.49864667144E+02  0.65870912743E+02  0.10000000000E+01 0.  0.
<mgrwt>
<rscale>  0 0.12499980E+03</rscale>
<asrwt>0</asrwt>
<pdfrwt beam="2">  1        4 0.64769165E-01 0.12499980E+03</pdfrwt>
<pdfrwt beam="1">  1       -4 0.14274589E-02 0.12499980E+03</pdfrwt>
<totfact> 0.61711073E+03</totfact>
</mgrwt>
</event>
<event>
 5    1  0.3267085E-002  0.1250001E+03  0.7818608E-02  0.1235069E+00
         -4   -1    0    0    0  501 -0.00000000000E+00  0.00000000000E+00  0.48286158188E+03  0.48286325202E+03  0.12700000000E+01 0.  1.
          4   -1    0    0  501    0  0.00000000000E+00 -0.00000000000E+00 -0.80382695653E+01  0.81379774886E+01  0.12700000000E+01 0.  1.
         25    2    1    2    0    0  0.00000000000E+00  0.00000000000E+00  0.47482331231E+03  0.49100122951E+03  0.12500011786E+03 0.  0.
    9000005    1    3    3    0    0  0.46859955139E+02  0.24983852696E+02  0.36681004402E+03  0.37063547683E+03  0.10000000000E+01 0.  0.
    9000005    1    3    3    0    0 -0.46859955139E+02 -0.24983852696E+02  0.10801326829E+03  0.12036575268E+03  0.10000000000E+01 0.  0.
<mgrwt>
<rscale>  0 0.12500012E+03</rscale>
<asrwt>0</asrwt>
<pdfrwt beam="2">  1        4 0.12444553E-02 0.12500012E+03</pdfrwt>
<pdfrwt beam="1">  1       -4 0.74294189E-01 0.12500012E+03</pdfrwt>
<totfact> 0.56569238E+03</totfact>
</mgrwt>
</event>
<event>
 5    1  0.3267085E-002  0.1249982E+03  0.7818608E-02  0.1235072E+00
         -4   -1    0    0    0  501 -0.00000000000E+00  0.00000000000E+00  0.43488348072E+03  0.43488533512E+03  0.12700000000E+01 0. -1.
          4   -1    0    0  501    0  0.00000000000E+00 -0.00000000000E+00 -0.89352544460E+01  0.90250580061E+01  0.12700000000E+01 0. -1.
         25    2    1    2    0    0  0.00000000000E+00  0.00000000000E+00  0.42594822627E+03  0.44391039312E+03  0.12499818263E+03 0.  0.
    9000005    1    3    3    0    0  0.34156810437E+02 -0.55464305409E+01  0.39776934021E+03  0.39927296252E+03  0.10000000000E+01 0.  0.
    9000005    1    3    3    0    0 -0.34156810437E+02  0.55464305409E+01  0.28178886061E+02  0.44637430601E+02  0.10000000000E+01 0.  0.
<mgrwt>
<rscale>  0 0.12499818E+03</rscale>
<asrwt>0</asrwt>
<pdfrwt beam="2">  1        4 0.13817052E-02 0.12499818E+03</pdfrwt>
<pdfrwt beam="1">  1       -4 0.66912200E-01 0.12499818E+03</pdfrwt>
<totfact> 0.60497413E+03</totfact>
</mgrwt>
</event>
<event>
 5    1  0.3267085E-002  0.1249977E+03  0.7818608E-02  0.1235073E+00
         -4   -1    0    0    0  501 -0.00000000000E+00  0.00000000000E+00  0.38876075781E+03  0.38876283222E+03  0.12700000000E+01 0.  1.
          4   -1    0    0  501    0  0.00000000000E+00 -0.00000000000E+00 -0.10005346190E+02  0.10085626029E+02  0.12700000000E+01 0.  1.
         25    2    1    2    0    0  0.00000000000E+00  0.00000000000E+00  0.37875541162E+03  0.39884845824E+03  0.12499772323E+03 0.  0.
    9000005    1    3    3    0    0 -0.35293772977E+02 -0.22605091288E+02  0.41477025092E+02  0.58974436611E+02  0.10000000000E+01 0.  0.
    9000005    1    3    3    0    0  0.35293772977E+02  0.22605091288E+02  0.33727838653E+03  0.33987402163E+03  0.10000000000E+01 0.  0.
<mgrwt>
<rscale>  0 0.12499772E+03</rscale>
<asrwt>0</asrwt>
<pdfrwt beam="2">  1        4 0.15456193E-02 0.12499772E+03</pdfrwt>
<pdfrwt beam="1">  1       -4 0.59815671E-01 0.12499772E+03</pdfrwt>
<totfact> 0.64668197E+03</totfact>
</mgrwt>
</event>
<event>
 5    1  0.3267085E-002  0.1249983E+03  0.7818608E-02  0.1235072E+00
         -4   -1    0    0    0  501 -0.00000000000E+00  0.00000000000E+00  0.22906318219E+03  0.22906670281E+03  0.12700000000E+01 0. -1.
          4   -1    0    0  501    0  0.00000000000E+00 -0.00000000000E+00 -0.17025395022E+02  0.17072696789E+02  0.12700000000E+01 0. -1.
         25    2    1    2    0    0  0.00000000000E+00  0.00000000000E+00  0.21203778717E+03  0.24613939960E+03  0.12499832337E+03 0.  0.
    9000005    1    3    3    0    0  0.57119000994E+02 -0.65669376916E+01  0.15423031161E+03  0.16460162200E+03  0.10000000000E+01 0.  0.
    9000005    1    3    3    0    0 -0.57119000994E+02  0.65669376916E+01  0.57807475559E+02  0.81537777599E+02  0.10000000000E+01 0.  0.
<mgrwt>
<rscale>  0 0.12499832E+03</rscale>
<asrwt>0</asrwt>
<pdfrwt beam="2">  1        4 0.26232010E-02 0.12499832E+03</pdfrwt>
<pdfrwt beam="1">  1       -4 0.35244399E-01 0.12499832E+03</pdfrwt>
<totfact> 0.82894522E+03</totfact>
</mgrwt>
</event>
<event>
 5    1  0.3267085E-002  0.1249997E+03  0.7818608E-02  0.1235070E+00
         -4   -1    0    0    0  501 -0.00000000000E+00  0.00000000000E+00  0.22524718980E+02  0.22560493459E+02  0.12700000000E+01 0. -1.
          4   -1    0    0  501    0  0.00000000000E+00 -0.00000000000E+00 -0.17324394820E+03  0.17324860313E+03  0.12700000000E+01 0. -1.
         25    2    1    2    0    0  0.00000000000E+00  0.00000000000E+00 -0.15071922922E+03  0.19580909659E+03  0.12499966501E+03 0.  0.
    9000005    1    3    3    0    0  0.14502670854E+02  0.50627070016E+02 -0.12805943374E+03  0.13846893605E+03  0.10000000000E+01 0.  0.
    9000005    1    3    3    0    0 -0.14502670854E+02 -0.50627070016E+02 -0.22659795482E+02  0.57340160548E+02  0.10000000000E+01 0.  0.
<mgrwt>
<rscale>  0 0.12499967E+03</rscale>
<asrwt>0</asrwt>
<pdfrwt beam="2">  1        4 0.26656024E-01 0.12499967E+03</pdfrwt>
<pdfrwt beam="1">  1       -4 0.34684515E-02 0.12499967E+03</pdfrwt>
<totfact> 0.90846942E+03</totfact>
</mgrwt>
</event>
<event>
 5    1  0.3267085E-002  0.1250152E+03  0.7818608E-02  0.1235046E+00
          4   -1    0    0  501    0  0.00000000000E+00  0.00000000000E+00  0.17885847660E+03  0.17886298541E+03  0.12700000000E+01 0. -1.
         -4   -1    0    0    0  501 -0.00000000000E+00 -0.00000000000E+00 -0.21821950226E+02  0.21858874895E+02  0.12700000000E+01 0. -1.
         25    2    1    2    0    0  0.00000000000E+00  0.00000000000E+00  0.15703652637E+03  0.20072186031E+03  0.12501517744E+03 0.  0.
    9000005    1    3    3    0    0 -0.26032939408E+02 -0.47137723443E+02  0.12945640294E+03  0.14021283524E+03  0.10000000000E+01 0.  0.
    9000005    1    3    3    0    0  0.26032939408E+02  0.47137723443E+02  0.27580123435E+02  0.60509025065E+02  0.10000000000E+01 0.  0.
<mgrwt>
<rscale>  0 0.12501518E+03</rscale>
<asrwt>0</asrwt>
<pdfrwt beam="1">  1        4 0.27519874E-01 0.12501518E+03</pdfrwt>
<pdfrwt beam="2">  1       -4 0.33604105E-02 0.12501518E+03</pdfrwt>
<totfact> 0.89983340E+03</totfact>
</mgrwt>
</event>
<event>
 5    1  0.3267085E-002  0.1249997E+03  0.7818608E-02  0.1235070E+00
          4   -1    0    0  501    0  0.00000000000E+00  0.00000000000E+00  0.16272974440E+03  0.16273470008E+03  0.12700000000E+01 0. -1.
         -4   -1    0    0    0  501 -0.00000000000E+00 -0.00000000000E+00 -0.23982267424E+02  0.24015870811E+02  0.12700000000E+01 0. -1.
         25    2    1    2    0    0  0.00000000000E+00  0.00000000000E+00  0.13874747697E+03  0.18675057090E+03  0.12499965345E+03 0.  0.
    9000005    1    3    3    0    0 -0.39956829040E+02 -0.43162209444E+02  0.10091480049E+03  0.11680891006E+03  0.10000000000E+01 0.  0.
    9000005    1    3    3    0    0  0.39956829040E+02  0.43162209444E+02  0.37832676487E+02  0.69941660841E+02  0.10000000000E+01 0.  0.
<mgrwt>
<rscale>  0 0.12499965E+03</rscale>
<asrwt>0</asrwt>
<pdfrwt beam="1">  1        4 0.25038311E-01 0.12499965E+03</pdfrwt>
<pdfrwt beam="2">  1       -4 0.36925457E-02 0.12499965E+03</pdfrwt>
<totfact> 0.92416516E+03</totfact>
</mgrwt>
</event>
<event>
 5    1  0.3267085E-002  0.1249943E+03  0.7818608E-02  0.1235078E+00
          4   -1    0    0  501    0  0.00000000000E+00  0.00000000000E+00  0.27356140696E+03  0.27356435491E+03  0.12700000000E+01 0. -1.
         -4   -1    0    0    0  501 -0.00000000000E+00 -0.00000000000E+00 -0.14246667796E+02  0.14303162004E+02  0.12700000000E+01 0. -1.
         25    2    1    2    0    0  0.00000000000E+00  0.00000000000E+00  0.25931473916E+03  0.28786751691E+03  0.12499429326E+03 0.  0.
    9000005    1    3    3    0    0 -0.99600534993E+01  0.15609083848E+02 -0.77950248398E+01  0.20114884453E+02  0.10000000000E+01 0.  0.
    9000005    1    3    3    0    0  0.99600534993E+01 -0.15609083848E+02  0.26710976400E+03  0.26775263246E+03  0.10000000000E+01 0.  0.
<mgrwt>
<rscale>  0 0.12499429E+03</rscale>
<asrwt>0</asrwt>
<pdfrwt beam="1">  1        4 0.42090944E-01 0.12499429E+03</pdfrwt>
<pdfrwt beam="2">  1       -4 0.21963675E-02 0.12499429E+03</pdfrwt>
<totfact> 0.77156142E+03</totfact>
</mgrwt>
</event>
<event>
 5    1  0.3267085E-002  0.1250264E+03  0.7818608E-02  0.1235028E+00
         -4   -1    0    0    0  501 -0.00000000000E+00  0.00000000000E+00  0.11018823788E+02  0.11091770718E+02  0.12700000000E+01 0.  1.
          4   -1    0    0  501    0  0.00000000000E+00 -0.00000000000E+00 -0.35341229912E+03  0.35341458101E+03  0.12700000000E+01 0.  1.
         25    2    1    2    0    0  0.00000000000E+00  0.00000000000E+00 -0.34239347533E+03  0.36450635173E+03  0.12502635122E+03 0.  0.
    9000005    1    3    3    0    0 -0.61388069273E+02 -0.19590282603E+01 -0.20501633605E+03  0.21402109917E+03  0.10000000000E+01 0.  0.
    9000005    1    3    3    0    0  0.61388069273E+02  0.19590282603E+01 -0.13737713928E+03  0.15048525256E+03  0.10000000000E+01 0.  0.
<mgrwt>
<rscale>  0 0.12502635E+03</rscale>
<asrwt>0</asrwt>
<pdfrwt beam="2">  1        4 0.54376901E-01 0.12502635E+03</pdfrwt>
<pdfrwt beam="1">  1       -4 0.17009908E-02 0.12502635E+03</pdfrwt>
<totfact> 0.68117920E+03</totfact>
</mgrwt>
</event>
<event>
 5    1  0.3267085E-002  0.1250008E+03  0.7818608E-02  0.1235068E+00
         -4   -1    0    0    0  501 -0.00000000000E+00  0.00000000000E+00  0.90737799063E+01  0.91622258097E+01  0.12700000000E+01 0. -1.
          4   -1    0    0  501    0  0.00000000000E+00 -0.00000000000E+00 -0.42832672242E+03  0.42832860521E+03  0.12700000000E+01 0. -1.
         25    2    1    2    0    0  0.00000000000E+00  0.00000000000E+00 -0.41925294251E+03  0.43749083102E+03  0.12500078967E+03 0.  0.
    9000005    1    3    3    0    0 -0.20226143104E+02 -0.58987233235E+02 -0.22393282278E+03  0.23245537135E+03  0.10000000000E+01 0.  0.
    9000005    1    3    3    0    0  0.20226143104E+02  0.58987233235E+02 -0.19532011973E+03  0.20503545967E+03  0.10000000000E+01 0.  0.
<mgrwt>
<rscale>  0 0.12500079E+03</rscale>
<asrwt>0</asrwt>
<pdfrwt beam="2">  1        4 0.65903351E-01 0.12500079E+03</pdfrwt>
<pdfrwt beam="1">  1       -4 0.14029148E-02 0.12500079E+03</pdfrwt>
<totfact> 0.61061758E+03</totfact>
</mgrwt>
</event>
<event>
 5    1  0.3267085E-002  0.1249982E+03  0.7818608E-02  0.1235072E+00
         -4   -1    0    0    0  501 -0.00000000000E+00  0.00000000000E+00  0.10557556181E+02  0.10633667877E+02  0.12700000000E+01 0.  1.
          4   -1    0    0  501    0  0.00000000000E+00 -0.00000000000E+00 -0.36857869012E+03  0.36858087812E+03  0.12700000000E+01 0.  1.
         25    2    1    2    0    0  0.00000000000E+00  0.00000000000E+00 -0.35802113394E+03  0.37921454599E+03  0.12499815816E+03 0.  0.
    9000005    1    3    3    0    0  0.53485771556E+02 -0.79157147303E+01 -0.83954133281E+02  0.99863320562E+02  0.10000000000E+01 0.  0.
    9000005    1    3    3    0    0 -0.53485771556E+02  0.79157147303E+01 -0.27406700066E+03  0.27935122543E+03  0.10000000000E+01 0.  0.
<mgrwt>
<rscale>  0 0.12499816E+03</rscale>
<asrwt>0</asrwt>
<pdfrwt beam="2">  1        4 0.56710427E-01 0.12499816E+03</pdfrwt>
<pdfrwt beam="1">  1       -4 0.16302628E-02 0.12499816E+03</pdfrwt>
<totfact> 0.66628532E+03</totfact>
</mgrwt>
</event>
<event>
 5    1  0.3267085E-002  0.1250004E+03  0.7818608E-02  0.1235069E+00
         -4   -1    0    0    0  501 -0.00000000000E+00  0.00000000000E+00  0.56758355584E+01  0.58161851145E+01  0.12700000000E+01 0.  1.
          4   -1    0    0  501    0  0.00000000000E+00 -0.00000000000E+00 -0.67968341217E+03  0.67968459868E+03  0.12700000000E+01 0.  1.
         25    2    1    2    0    0  0.00000000000E+00  0.00000000000E+00 -0.67400757661E+03  0.68550078379E+03  0.12500044500E+03 0.  0.
    9000005    1    3    3    0    0  0.17576229778E+02  0.60946786279E+00 -0.81482336457E+01  0.19408477937E+02  0.10000000000E+01 0.  0.
    9000005    1    3    3    0    0 -0.17576229778E+02 -0.60946786279E+00 -0.66585934297E+03  0.66609230586E+03  0.10000000000E+01 0.  0.
<mgrwt>
<rscale>  0 0.12500044E+03</rscale>
<asrwt>0</asrwt>
<pdfrwt beam="2">  1        4 0.10457750E+00 0.12500044E+03</pdfrwt>
<pdfrwt beam="1">  1       -4 0.88409340E-03 0.12500044E+03</pdfrwt>
<totfact> 0.43862815E+03</totfact>
</mgrwt>
</event>
<event>
 5    1  0.3267085E-002  0.1249918E+03  0.7818608E-02  0.1235082E+00
         -4   -1    0    0    0  501 -0.00000000000E+00  0.00000000000E+00  0.86638023771E+01  0.87563903311E+01  0.12700000000E+01 0. -1.
          4   -1    0    0  501    0  0.00000000000E+00 -0.00000000000E+00 -0.44832169165E+03  0.44832349046E+03  0.12700000000E+01 0. -1.
         25    2    1    2    0    0  0.00000000000E+00  0.00000000000E+00 -0.43965788927E+03  0.45707988080E+03  0.12499183105E+03 0.  0.
    9000005    1    3    3    0    0  0.59749997936E+02 -0.11793931696E+02 -0.16868748524E+03  0.17934778157E+03  0.10000000000E+01 0.  0.
    9000005    1    3    3    0    0 -0.59749997936E+02  0.11793931696E+02 -0.27097040404E+03  0.27773209923E+03  0.10000000000E+01 0.  0.
<mgrwt>
<rscale>  0 0.12499183E+03</rscale>
<asrwt>0</asrwt>
<pdfrwt beam="2">  1        4 0.68979810E-01 0.12499183E+03</pdfrwt>
<pdfrwt beam="1">  1       -4 0.13401535E-02 0.12499183E+03</pdfrwt>
<totfact> 0.59366022E+03</totfact>
</mgrwt>
</event>
<event>
 5    1  0.3267085E-002  0.1250004E+03  0.7818608E-02  0.1235069E+00
         -4   -1    0    0    0  501 -0.00000000000E+00  0.00000000000E+00  0.91456446768E+02  0.91465264201E+02  0.12700000000E+01 0. -1.
          4   -1    0    0  501    0  0.00000000000E+00 -0.00000000000E+00 -0.42691560624E+02  0.42710446597E+02  0.12700000000E+01 0. -1.
         25    2    1    2    0    0  0.00000000000E+00  0.00000000000E+00  0.48764886144E+02  0.13417571080E+03  0.12500042899E+03 0.  0.
    9000005    1    3    3    0    0  0.23624032415E+02 -0.38769904151E+02 -0.21712349017E+02  0.50335141554E+02  0.10000000000E+01 0.  0.
    9000005    1    3    3    0    0 -0.23624032415E+02  0.38769904151E+02  0.70477235160E+02  0.83840569245E+02  0.10000000000E+01 0.  0.
<mgrwt>
<rscale>  0 0.12500043E+03</rscale>
<asrwt>0</asrwt>
<pdfrwt beam="2">  1        4 0.65700636E-02 0.12500043E+03</pdfrwt>
<pdfrwt beam="1">  1       -4 0.14072353E-01 0.12500043E+03</pdfrwt>
<totfact> 0.10255375E+04</totfact>
</mgrwt>
</event>
<event>
 5    1  0.3267085E-002  0.1249996E+03  0.7818608E-02  0.1235070E+00
          4   -1    0    0  501    0  0.00000000000E+00  0.00000000000E+00  0.18663137965E+02  0.18706298904E+02  0.12700000000E+01 0.  1.
         -4   -1    0    0    0  501 -0.00000000000E+00 -0.00000000000E+00 -0.20901470287E+03  0.20901856118E+03  0.12700000000E+01 0.  1.
         25    2    1    2    0    0  0.00000000000E+00  0.00000000000E+00 -0.19035156491E+03  0.22772486008E+03  0.12499957455E+03 0.  0.
    9000005    1    3    3    0    0 -0.57351119845E+02  0.19006852078E+02 -0.66094612273E+02  0.89553945445E+02  0.10000000000E+01 0.  0.
    9000005    1    3    3    0    0  0.57351119845E+02 -0.19006852078E+02 -0.12425695263E+03  0.13817091464E+03  0.10000000000E+01 0.  0.
<mgrwt>
<rscale>  0 0.12499957E+03</rscale>
<asrwt>0</asrwt>
<pdfrwt beam="1">  1        4 0.28748690E-02 0.12499957E+03</pdfrwt>
<pdfrwt beam="2">  1       -4 0.32159723E-01 0.12499957E+03</pdfrwt>
<totfact> 0.85660989E+03</totfact>
</mgrwt>
</event>
<event>
 5    1  0.3267085E-002  0.1249998E+03  0.7818608E-02  0.1235070E+00
         -4   -1    0    0    0  501 -0.00000000000E+00  0.00000000000E+00  0.75614642073E+02  0.75625306583E+02  0.12700000000E+01 0. -1.
          4   -1    0    0  501    0  0.00000000000E+00 -0.00000000000E+00 -0.51637674564E+02  0.51653289676E+02  0.12700000000E+01 0. -1.
         25    2    1    2    0    0  0.00000000000E+00  0.00000000000E+00  0.23976967509E+02  0.12727859626E+03  0.12499978438E+03 0.  0.
    9000005    1    3    3    0    0 -0.25697701429E+02 -0.11105019775E+02  0.68877809679E+02  0.74356210159E+02  0.10000000000E+01 0.  0.
    9000005    1    3    3    0    0  0.25697701429E+02  0.11105019775E+02 -0.44900842170E+02  0.52922386100E+02  0.10000000000E+01 0.  0.
<mgrwt>
<rscale>  0 0.12499978E+03</rscale>
<asrwt>0</asrwt>
<pdfrwt beam="2">  1        4 0.79462791E-02 0.12499978E+03</pdfrwt>
<pdfrwt beam="1">  1       -4 0.11635043E-01 0.12499978E+03</pdfrwt>
<totfact> 0.10403149E+04</totfact>
</mgrwt>
</event>
<event>
 5    1  0.3267085E-002  0.1249872E+03  0.7818608E-02  0.1235089E+00
          4   -1    0    0  501    0  0.00000000000E+00  0.00000000000E+00  0.84719636654E+02  0.84729155163E+02  0.12700000000E+01 0. -1.
         -4   -1    0    0    0  501 -0.00000000000E+00 -0.00000000000E+00 -0.46077699660E+02  0.46095198296E+02  0.12700000000E+01 0. -1.
         25    2    1    2    0    0  0.00000000000E+00  0.00000000000E+00  0.38641936994E+02  0.13082435346E+03  0.12498724800E+03 0.  0.
    9000005    1    3    3    0    0  0.24353223407E+02 -0.16939913100E+02  0.76883970081E+02  0.82414713502E+02  0.10000000000E+01 0.  0.
    9000005    1    3    3    0    0 -0.24353223407E+02  0.16939913100E+02 -0.38242033088E+02  0.48409639958E+02  0.10000000000E+01 0.  0.
<mgrwt>
<rscale>  0 0.12498725E+03</rscale>
<asrwt>0</asrwt>
<pdfrwt beam="1">  1        4 0.13035868E-01 0.12498725E+03</pdfrwt>
<pdfrwt beam="2">  1       -4 0.70909552E-02 0.12498725E+03</pdfrwt>
<totfact> 0.10329828E+04</totfact>
</mgrwt>
</event>
<event>
 5    1  0.3267085E-002  0.1249992E+03  0.7818608E-02  0.1235071E+00
         -4   -1    0    0    0  501 -0.00000000000E+00  0.00000000000E+00  0.30981939901E+02  0.31007958657E+02  0.12700000000E+01 0. -1.
          4   -1    0    0  501    0  0.00000000000E+00 -0.00000000000E+00 -0.12599777889E+03  0.12600417924E+03  0.12700000000E+01 0. -1.
         25    2    1    2    0    0  0.00000000000E+00  0.00000000000E+00 -0.95015838992E+02  0.15701213790E+03  0.12499920715E+03 0.  0.
    9000005    1    3    3    0    0 -0.11732334122E+02 -0.15184693884E+02 -0.12221162405E+03  0.12371298900E+03  0.10000000000E+01 0.  0.
    9000005    1    3    3    0    0  0.11732334122E+02  0.15184693884E+02  0.27195785063E+02  0.33299148900E+02  0.10000000000E+01 0.  0.
<mgrwt>
<rscale>  0 0.12499921E+03</rscale>
<asrwt>0</asrwt>
<pdfrwt beam="2">  1        4 0.19386767E-01 0.12499921E+03</pdfrwt>
<pdfrwt beam="1">  1       -4 0.47689461E-02 0.12499921E+03</pdfrwt>
<totfact> 0.97923679E+03</totfact>
</mgrwt>
</event>
<event>
 5    1  0.3267085E-002  0.1249965E+03  0.7818608E-02  0.1235075E+00
          4   -1    0    0  501    0  0.00000000000E+00  0.00000000000E+00  0.63608848391E+02  0.63621525396E+02  0.12700000000E+01 0.  1.
         -4   -1    0    0    0  501 -0.00000000000E+00 -0.00000000000E+00 -0.61381638644E+02  0.61394775532E+02  0.12700000000E+01 0.  1.
         25    2    1    2    0    0  0.00000000000E+00  0.00000000000E+00  0.22272097476E+01  0.12501630093E+03  0.12499646009E+03 0.  0.
    9000005    1    3    3    0    0 -0.30508491613E+02  0.38503932445E+02  0.39742369844E+02  0.63196335614E+02  0.10000000000E+01 0.  0.
    9000005    1    3    3    0    0  0.30508491613E+02 -0.38503932445E+02 -0.37515160097E+02  0.61819965313E+02  0.10000000000E+01 0.  0.
<mgrwt>
<rscale>  0 0.12499646E+03</rscale>
<asrwt>0</asrwt>
<pdfrwt beam="1">  1        4 0.97879624E-02 0.12499646E+03</pdfrwt>
<pdfrwt beam="2">  1       -4 0.94453147E-02 0.12499646E+03</pdfrwt>
<totfact> 0.10453345E+04</totfact>
</mgrwt>
</event>
<event>
 5    1  0.3267085E-002  0.1250016E+03  0.7818608E-02  0.1235067E+00
         -4   -1    0    0    0  501 -0.00000000000E+00  0.00000000000E+00  0.55340901062E+02  0.55355471548E+02  0.12700000000E+01 0. -1.
          4   -1    0    0  501    0  0.00000000000E+00 -0.00000000000E+00 -0.70557448202E+02  0.70568876970E+02  0.12700000000E+01 0. -1.
         25    2    1    2    0    0  0.00000000000E+00  0.00000000000E+00 -0.15216547141E+02  0.12592434852E+03  0.12500159296E+03 0.  0.
    9000005    1    3    3    0    0 -0.60701030992E+02  0.87129288744E+00 -0.22549321921E+02  0.64767632610E+02  0.10000000000E+01 0.  0.
    9000005    1    3    3    0    0  0.60701030992E+02 -0.87129288744E+00  0.73327747803E+01  0.61156715909E+02  0.10000000000E+01 0.  0.
<mgrwt>
<rscale>  0 0.12500159E+03</rscale>
<asrwt>0</asrwt>
<pdfrwt beam="2">  1        4 0.10856992E-01 0.12500159E+03</pdfrwt>
<pdfrwt beam="1">  1       -4 0.85159848E-02 0.12500159E+03</pdfrwt>
<totfact> 0.10432240E+04</totfact>
</mgrwt>
</event>
<event>
 5    1  0.3267085E-002  0.1250038E+03  0.7818608E-02  0.1235063E+00
         -4   -1    0    0    0  501 -0.00000000000E+00  0.00000000000E+00  0.14710859272E+03  0.14711407462E+03  0.12700000000E+01 0.  1.
          4   -1    0    0  501    0  0.00000000000E+00 -0.00000000000E+00 -0.26533960428E+02  0.26564336167E+02  0.12700000000E+01 0.  1.
         25    2    1    2    0    0  0.00000000000E+00  0.00000000000E+00  0.12057463229E+03  0.17367841079E+03  0.12500379363E+03 0.  0.
    9000005    1    3    3    0    0  0.96137170626E+01  0.58919711218E+02  0.85963934290E+02  0.10466496035E+03  0.10000000000E+01 0.  0.
    9000005    1    3    3    0    0 -0.96137170626E+01 -0.58919711218E+02  0.34610698003E+02  0.69013450443E+02  0.10000000000E+01 0.  0.
<mgrwt>
<rscale>  0 0.12500379E+03</rscale>
<asrwt>0</asrwt>
<pdfrwt beam="2">  1        4 0.40849060E-02 0.12500379E+03</pdfrwt>
<pdfrwt beam="1">  1       -4 0.22634850E-01 0.12500379E+03</pdfrwt>
<totfact> 0.94759379E+03</totfact>
</mgrwt>
</event>
<event>
 5    1  0.3267085E-002  0.1249698E+03  0.7818608E-02  0.1235116E+00
          4   -1    0    0  501    0  0.00000000000E+00  0.00000000000E+00  0.14415002473E+02  0.14470839516E+02  0.12700000000E+01 0. -1.
         -4   -1    0    0    0  501 -0.00000000000E+00 -0.00000000000E+00 -0.27027320947E+03  0.27027619329E+03  0.12700000000E+01 0. -1.
         25    2    1    2    0    0  0.00000000000E+00  0.00000000000E+00 -0.25585820700E+03  0.28474703280E+03  0.12496979876E+03 0.  0.
    9000005    1    3    3    0    0  0.16315777209E+02  0.35779148229E+02 -0.23854942239E+03  0.24177092248E+03  0.10000000000E+01 0.  0.
    9000005    1    3    3    0    0 -0.16315777209E+02 -0.35779148229E+02 -0.17308784607E+02  0.42976110323E+02  0.10000000000E+01 0.  0.
<mgrwt>
<rscale>  0 0.12496980E+03</rscale>
<asrwt>0</asrwt>
<pdfrwt beam="1">  1        4 0.22222176E-02 0.12496980E+03</pdfrwt>
<pdfrwt beam="2">  1       -4 0.41585015E-01 0.12496980E+03</pdfrwt>
<totfact> 0.77604936E+03</totfact>
</mgrwt>
</event>
<event>
 5    1  0.3267085E-002  0.1250008E+03  0.7818608E-02  0.1235068E+00
          4   -1    0    0  501    0  0.00000000000E+00  0.00000000000E+00  0.71503861408E+01  0.72622945384E+01  0.12700000000E+01 0.  1.
         -4   -1    0    0    0  501 -0.00000000000E+00 -0.00000000000E+00 -0.54195138890E+03  0.54195287694E+03  0.12700000000E+01 0.  1.
         25    2    1    2    0    0  0.00000000000E+00  0.00000000000E+00 -0.53480100276E+03  0.54921517148E+03  0.12500076815E+03 0.  0.
    9000005    1    3    3    0    0  0.18651545990E+02 -0.56360821166E+02 -0.35314800091E+03  0.35810463956E+03  0.10000000000E+01 0.  0.
    9000005    1    3    3    0    0 -0.18651545990E+02  0.56360821166E+02 -0.18165300185E+03  0.19111053192E+03  0.10000000000E+01 0.  0.
<mgrwt>
<rscale>  0 0.12500077E+03</rscale>
<asrwt>0</asrwt>
<pdfrwt beam="1">  1        4 0.11087826E-02 0.12500077E+03</pdfrwt>
<pdfrwt beam="2">  1       -4 0.83385828E-01 0.12500077E+03</pdfrwt>
<totfact> 0.52237809E+03</totfact>
</mgrwt>
</event>
<event>
 5    1  0.3267085E-002  0.1250008E+03  0.7818608E-02  0.1235068E+00
         -4   -1    0    0    0  501 -0.00000000000E+00  0.00000000000E+00  0.18964720291E+01  0.22824342613E+01  0.12700000000E+01 0. -1.
          4   -1    0    0  501    0  0.00000000000E+00 -0.00000000000E+00 -0.18691465660E+04  0.18691469974E+04  0.12700000000E+01 0. -1.
         25    2    1    2    0    0  0.00000000000E+00  0.00000000000E+00 -0.18672500939E+04  0.18714294317E+04  0.12500081781E+03 0.  0.
    9000005    1    3    3    0    0 -0.49618466912E+02 -0.33448389584E+02 -0.12033228317E+04  0.12048102027E+04  0.10000000000E+01 0.  0.
    9000005    1    3    3    0    0  0.49618466912E+02  0.33448389584E+02 -0.66392726218E+03  0.66661922901E+03  0.10000000000E+01 0.  0.
<mgrwt>
<rscale>  0 0.12500082E+03</rscale>
<asrwt>0</asrwt>
<pdfrwt beam="2">  1        4 0.28758940E+00 0.12500082E+03</pdfrwt>
<pdfrwt beam="1">  1       -4 0.32148901E-03 0.12500082E+03</pdfrwt>
<totfact> 0.11634104E+03</totfact>
</mgrwt>
</event>
<event>
 5    1  0.3267085E-002  0.1249999E+03  0.7818608E-02  0.1235069E+00
          4   -1    0    0  501    0  0.00000000000E+00  0.00000000000E+00  0.82845539847E+02  0.82855273655E+02  0.12700000000E+01 0.  1.
         -4   -1    0    0    0  501 -0.00000000000E+00 -0.00000000000E+00 -0.47129844129E+02  0.47146952263E+02  0.12700000000E+01 0.  1.
         25    2    1    2    0    0  0.00000000000E+00  0.00000000000E+00  0.35715695717E+02  0.13000222592E+03  0.12499987129E+03 0.  0.
    9000005    1    3    3    0    0 -0.23312846231E+02 -0.56899323997E+02  0.29449280980E+02  0.68185643803E+02  0.10000000000E+01 0.  0.
    9000005    1    3    3    0    0  0.23312846231E+02  0.56899323997E+02  0.62664147373E+01  0.61816582115E+02  0.10000000000E+01 0.  0.
<mgrwt>
<rscale>  0 0.12499987E+03</rscale>
<asrwt>0</asrwt>
<pdfrwt beam="1">  1        4 0.12747532E-01 0.12499987E+03</pdfrwt>
<pdfrwt beam="2">  1       -4 0.72528101E-02 0.12499987E+03</pdfrwt>
<totfact> 0.10344490E+04</totfact>
</mgrwt>
</event>
<event>
 5    1  0.3267085E-002  0.1250030E+03  0.7818608E-02  0.1235065E+00
          4   -1    0    0  501    0  0.00000000000E+00  0.00000000000E+00  0.11292844688E+02  0.11364032786E+02  0.12700000000E+01 0. -1.
         -4   -1    0    0    0  501 -0.00000000000E+00 -0.00000000000E+00 -0.34476243720E+03  0.34476477634E+03  0.12700000000E+01 0. -1.
         25    2    1    2    0    0  0.00000000000E+00  0.00000000000E+00 -0.33346959251E+03  0.35612880912E+03  0.12500303820E+03 0.  0.
    9000005    1    3    3    0    0  0.69584086950E+01  0.84884872843E+01  0.85392172086E+01  0.13942456687E+02  0.10000000000E+01 0.  0.
    9000005    1    3    3    0    0 -0.69584086950E+01 -0.84884872843E+01 -0.34200880972E+03  0.34218635244E+03  0.10000000000E+01 0.  0.
<mgrwt>
<rscale>  0 0.12500304E+03</rscale>
<asrwt>0</asrwt>
<pdfrwt beam="1">  1        4 0.17430169E-02 0.12500304E+03</pdfrwt>
<pdfrwt beam="2">  1       -4 0.53046023E-01 0.12500304E+03</pdfrwt>
<totfact> 0.69050896E+03</totfact>
</mgrwt>
</event>
<event>
 5    1  0.3267085E-002  0.1250010E+03  0.7818608E-02  0.1235068E+00
          4   -1    0    0  501    0  0.00000000000E+00  0.00000000000E+00  0.32576764627E+02  0.32601510602E+02  0.12700000000E+01 0.  1.
         -4   -1    0    0    0  501 -0.00000000000E+00 -0.00000000000E+00 -0.11983744937E+03  0.11984417871E+03  0.12700000000E+01 0.  1.
         25    2    1    2    0    0  0.00000000000E+00  0.00000000000E+00 -0.87260684744E+02  0.15244568932E+03  0.12500104435E+03 0.  0.
    9000005    1    3    3    0    0  0.34661035770E+02  0.31057085889E+02 -0.94493041499E+02  0.10533691127E+03  0.10000000000E+01 0.  0.
    9000005    1    3    3    0    0 -0.34661035770E+02 -0.31057085889E+02  0.72323567554E+01  0.47108778044E+02  0.10000000000E+01 0.  0.
<mgrwt>
<rscale>  0 0.12500104E+03</rscale>
<asrwt>0</asrwt>
<pdfrwt beam="1">  1        4 0.50142312E-02 0.12500104E+03</pdfrwt>
<pdfrwt beam="2">  1       -4 0.18438952E-01 0.12500104E+03</pdfrwt>
<totfact> 0.98816080E+03</totfact>
</mgrwt>
</event>
<event>
 5    1  0.3267085E-002  0.1250002E+03  0.7818608E-02  0.1235069E+00
         -4   -1    0    0    0  501 -0.00000000000E+00  0.00000000000E+00  0.14821926202E+03  0.14822470285E+03  0.12700000000E+01 0. -1.
          4   -1    0    0  501    0  0.00000000000E+00 -0.00000000000E+00 -0.26333404699E+02  0.26364011513E+02  0.12700000000E+01 0. -1.
         25    2    1    2    0    0  0.00000000000E+00  0.00000000000E+00  0.12188585733E+03  0.17458871436E+03  0.12500022787E+03 0.  0.
    9000005    1    3    3    0    0  0.50702842621E+02  0.11317345999E+02  0.12430648542E+02  0.53426412882E+02  0.10000000000E+01 0.  0.
    9000005    1    3    3    0    0 -0.50702842621E+02 -0.11317345999E+02  0.10945520878E+03  0.12116230148E+03  0.10000000000E+01 0.  0.
<mgrwt>
<rscale>  0 0.12500023E+03</rscale>
<asrwt>0</asrwt>
<pdfrwt beam="2">  1        4 0.40540660E-02 0.12500023E+03</pdfrwt>
<pdfrwt beam="1">  1       -4 0.22805736E-01 0.12500023E+03</pdfrwt>
<totfact> 0.94599737E+03</totfact>
</mgrwt>
</event>
<event>
 5    1  0.3267085E-002  0.1250004E+03  0.7818608E-02  0.1235069E+00
          4   -1    0    0  501    0  0.00000000000E+00  0.00000000000E+00  0.34701091833E+03  0.34701324231E+03  0.12700000000E+01 0.  1.
         -4   -1    0    0    0  501 -0.00000000000E+00 -0.00000000000E+00 -0.11218725133E+02  0.11290380578E+02  0.12700000000E+01 0.  1.
         25    2    1    2    0    0  0.00000000000E+00  0.00000000000E+00  0.33579219320E+03  0.35830362289E+03  0.12500035666E+03 0.  0.
    9000005    1    3    3    0    0 -0.60487207958E+02  0.12100521660E+02  0.13921077938E+03  0.15226872971E+03  0.10000000000E+01 0.  0.
    9000005    1    3    3    0    0  0.60487207958E+02 -0.12100521660E+02  0.19658141382E+03  0.20603489319E+03  0.10000000000E+01 0.  0.
<mgrwt>
<rscale>  0 0.12500036E+03</rscale>
<asrwt>0</asrwt>
<pdfrwt beam="1">  1        4 0.53391984E-01 0.12500036E+03</pdfrwt>
<pdfrwt beam="2">  1       -4 0.17316485E-02 0.12500036E+03</pdfrwt>
<totfact> 0.68820070E+03</totfact>
</mgrwt>
</event>
<event>
 5    1  0.3267085E-002  0.1249948E+03  0.7818608E-02  0.1235077E+00
         -4   -1    0    0    0  501 -0.00000000000E+00  0.00000000000E+00  0.35262724499E+02  0.35285586847E+02  0.12700000000E+01 0. -1.
          4   -1    0    0  501    0  0.00000000000E+00 -0.00000000000E+00 -0.11070392677E+03  0.11071121128E+03  0.12700000000E+01 0. -1.
         25    2    1    2    0    0  0.00000000000E+00  0.00000000000E+00 -0.75441202274E+02  0.14599679813E+03  0.12499476014E+03 0.  0.
    9000005    1    3    3    0    0  0.95185357915E+01 -0.59425530820E+02 -0.18073966552E+02  0.62846356328E+02  0.10000000000E+01 0.  0.
    9000005    1    3    3    0    0 -0.95185357915E+01  0.59425530820E+02 -0.57367235723E+02  0.83150441798E+02  0.10000000000E+01 0.  0.
<mgrwt>
<rscale>  0 0.12499476E+03</rscale>
<asrwt>0</asrwt>
<pdfrwt beam="2">  1        4 0.17033692E-01 0.12499476E+03</pdfrwt>
<pdfrwt beam="1">  1       -4 0.54273536E-02 0.12499476E+03</pdfrwt>
<totfact> 0.10011956E+04</totfact>
</mgrwt>
</event>
<event>
 5    1  0.3267085E-002  0.1249987E+03  0.7818608E-02  0.1235071E+00
         -4   -1    0    0    0  501 -0.00000000000E+00  0.00000000000E+00  0.19171950353E+02  0.19213968365E+02  0.12700000000E+01 0. -1.
          4   -1    0    0  501    0  0.00000000000E+00 -0.00000000000E+00 -0.20347684828E+03  0.20348081159E+03  0.12700000000E+01 0. -1.
         25    2    1    2    0    0  0.00000000000E+00  0.00000000000E+00 -0.18430489793E+03  0.22269477996E+03  0.12499867847E+03 0.  0.
    9000005    1    3    3    0    0  0.43252286781E+02 -0.44860831912E+02 -0.83812678796E+02  0.10444529515E+03  0.10000000000E+01 0.  0.
    9000005    1    3    3    0    0 -0.43252286781E+02  0.44860831912E+02 -0.10049221913E+03  0.11824948481E+03  0.10000000000E+01 0.  0.
<mgrwt>
<rscale>  0 0.12499868E+03</rscale>
<asrwt>0</asrwt>
<pdfrwt beam="2">  1        4 0.31307666E-01 0.12499868E+03</pdfrwt>
<pdfrwt beam="1">  1       -4 0.29530680E-02 0.12499868E+03</pdfrwt>
<totfact> 0.86446276E+03</totfact>
</mgrwt>
</event>
<event>
 5    1  0.3267085E-002  0.1249976E+03  0.7818608E-02  0.1235073E+00
          4   -1    0    0  501    0  0.00000000000E+00  0.00000000000E+00  0.68044118442E+01  0.69219159592E+01  0.12700000000E+01 0. -1.
         -4   -1    0    0    0  501 -0.00000000000E+00 -0.00000000000E+00 -0.56902148243E+03  0.56902289969E+03  0.12700000000E+01 0. -1.
         25    2    1    2    0    0  0.00000000000E+00  0.00000000000E+00 -0.56221707059E+03  0.57594481564E+03  0.12499758482E+03 0.  0.
    9000005    1    3    3    0    0 -0.25655944150E+02 -0.55839695135E+02 -0.22881629684E+03  0.23692656399E+03  0.10000000000E+01 0.  0.
    9000005    1    3    3    0    0  0.25655944150E+02  0.55839695135E+02 -0.33340077374E+03  0.33901825165E+03  0.10000000000E+01 0.  0.
<mgrwt>
<rscale>  0 0.12499758E+03</rscale>
<asrwt>0</asrwt>
<pdfrwt beam="1">  1        4 0.10559808E-02 0.12499758E+03</pdfrwt>
<pdfrwt beam="2">  1       -4 0.87550878E-01 0.12499758E+03</pdfrwt>
<totfact> 0.50424809E+03</totfact>
</mgrwt>
</event>
<event>
 5    1  0.3267085E-002  0.1249968E+03  0.7818608E-02  0.1235074E+00
          4   -1    0    0  501    0  0.00000000000E+00  0.00000000000E+00  0.79852525715E+01  0.80856143013E+01  0.12700000000E+01 0. -1.
         -4   -1    0    0    0  501 -0.00000000000E+00 -0.00000000000E+00 -0.48600183689E+03  0.48600349624E+03  0.12700000000E+01 0. -1.
         25    2    1    2    0    0  0.00000000000E+00  0.00000000000E+00 -0.47801658432E+03  0.49408911054E+03  0.12499677706E+03 0.  0.
    9000005    1    3    3    0    0 -0.22331163275E+02  0.39426058850E+01 -0.46918377566E+03  0.46973252000E+03  0.10000000000E+01 0.  0.
    9000005    1    3    3    0    0  0.22331163275E+02 -0.39426058850E+01 -0.88328086522E+01  0.24356590547E+02  0.10000000000E+01 0.  0.
<mgrwt>
<rscale>  0 0.12499678E+03</rscale>
<asrwt>0</asrwt>
<pdfrwt beam="1">  1        4 0.12363485E-02 0.12499678E+03</pdfrwt>
<pdfrwt beam="2">  1       -4 0.74777338E-01 0.12499678E+03</pdfrwt>
<totfact> 0.56329915E+03</totfact>
</mgrwt>
</event>
<event>
 5    1  0.3267085E-002  0.1250088E+03  0.7818608E-02  0.1235056E+00
         -4   -1    0    0    0  501 -0.00000000000E+00  0.00000000000E+00  0.82936359694E+01  0.83903097436E+01  0.12700000000E+01 0.  1.
          4   -1    0    0  501    0  0.00000000000E+00 -0.00000000000E+00 -0.46823294056E+03  0.46823466289E+03  0.12700000000E+01 0.  1.
         25    2    1    2    0    0  0.00000000000E+00  0.00000000000E+00 -0.45993930459E+03  0.47662497263E+03  0.12500880219E+03 0.  0.
    9000005    1    3    3    0    0  0.79195134079E+01 -0.16673714132E+02 -0.23183430322E+01  0.18630785007E+02  0.10000000000E+01 0.  0.
    9000005    1    3    3    0    0 -0.79195134079E+01  0.16673714132E+02 -0.45762096156E+03  0.45799418762E+03  0.10000000000E+01 0.  0.
<mgrwt>
<rscale>  0 0.12500880E+03</rscale>
<asrwt>0</asrwt>
<pdfrwt beam="2">  1        4 0.72043386E-01 0.12500880E+03</pdfrwt>
<pdfrwt beam="1">  1       -4 0.12835133E-02 0.12500880E+03</pdfrwt>
<totfact> 0.57713544E+03</totfact>
</mgrwt>
</event>
<event>
 5    1  0.3267085E-002  0.1249979E+03  0.7818608E-02  0.1235073E+00
         -4   -1    0    0    0  501 -0.00000000000E+00  0.00000000000E+00  0.82293606807E+02  0.82303405891E+02  0.12700000000E+01 0.  1.
          4   -1    0    0  501    0  0.00000000000E+00 -0.00000000000E+00 -0.47444498036E+02  0.47461492748E+02  0.12700000000E+01 0.  1.
         25    2    1    2    0    0  0.00000000000E+00  0.00000000000E+00  0.34849108771E+02  0.12976489864E+03  0.12499787413E+03 0.  0.
    9000005    1    3    3    0    0 -0.42906509543E+02 -0.96160839163E+01 -0.28672456592E+02  0.52502832286E+02  0.10000000000E+01 0.  0.
    9000005    1    3    3    0    0  0.42906509543E+02  0.96160839163E+01  0.63521565363E+02  0.77262066353E+02  0.10000000000E+01 0.  0.
<mgrwt>
<rscale>  0 0.12499787E+03</rscale>
<asrwt>0</asrwt>
<pdfrwt beam="2">  1        4 0.73012146E-02 0.12499787E+03</pdfrwt>
<pdfrwt beam="1">  1       -4 0.12662616E-01 0.12499787E+03</pdfrwt>
<totfact> 0.10350036E+04</totfact>
</mgrwt>
</event>
<event>
 5    1  0.3267085E-002  0.1250025E+03  0.7818608E-02  0.1235065E+00
         -4   -1    0    0    0  501 -0.00000000000E+00  0.00000000000E+00  0.74140668022E+02  0.74151544521E+02  0.12700000000E+01 0. -1.
          4   -1    0    0  501    0  0.00000000000E+00 -0.00000000000E+00 -0.52666687590E+02  0.52681997701E+02  0.12700000000E+01 0. -1.
         25    2    1    2    0    0  0.00000000000E+00  0.00000000000E+00  0.21473980432E+02  0.12683354222E+03  0.12500246236E+03 0.  0.
    9000005    1    3    3    0    0 -0.46226709423E+02  0.35746420170E+02  0.33212966916E+02  0.67222142114E+02  0.10000000000E+01 0.  0.
    9000005    1    3    3    0    0  0.46226709423E+02 -0.35746420170E+02 -0.11738986484E+02  0.59611400107E+02  0.10000000000E+01 0.  0.
<mgrwt>
<rscale>  0 0.12500246E+03</rscale>
<asrwt>0</asrwt>
<pdfrwt beam="2">  1        4 0.81045818E-02 0.12500246E+03</pdfrwt>
<pdfrwt beam="1">  1       -4 0.11408271E-01 0.12500246E+03</pdfrwt>
<totfact> 0.10412185E+04</totfact>
</mgrwt>
</event>
<event>
 5    1  0.3267085E-002  0.1249893E+03  0.7818608E-02  0.1235086E+00
         -4   -1    0    0    0  501 -0.00000000000E+00  0.00000000000E+00  0.37984268718E+02  0.38005493946E+02  0.12700000000E+01 0.  1.
          4   -1    0    0  501    0  0.00000000000E+00 -0.00000000000E+00 -0.10276717683E+03  0.10277502389E+03  0.12700000000E+01 0.  1.
         25    2    1    2    0    0  0.00000000000E+00  0.00000000000E+00 -0.64782908117E+02  0.14078051783E+03  0.12498931561E+03 0.  0.
    9000005    1    3    3    0    0  0.54816438391E+02  0.29459194788E+02 -0.26030254844E+02  0.67463028709E+02  0.10000000000E+01 0.  0.
    9000005    1    3    3    0    0 -0.54816438391E+02 -0.29459194788E+02 -0.38752653273E+02  0.73317489122E+02  0.10000000000E+01 0.  0.
<mgrwt>
<rscale>  0 0.12498932E+03</rscale>
<asrwt>0</asrwt>
<pdfrwt beam="2">  1        4 0.15812571E-01 0.12498932E+03</pdfrwt>
<pdfrwt beam="1">  1       -4 0.58459700E-02 0.12498932E+03</pdfrwt>
<totfact> 0.10119870E+04</totfact>
</mgrwt>
</event>
<event>
 5    1  0.3267085E-002  0.1250033E+03  0.7818608E-02  0.1235064E+00
         -4   -1    0    0    0  501 -0.00000000000E+00  0.00000000000E+00  0.64077768818E+02  0.64090353071E+02  0.12700000000E+01 0. -1.
          4   -1    0    0  501    0  0.00000000000E+00 -0.00000000000E+00 -0.60939121548E+02  0.60952353811E+02  0.12700000000E+01 0. -1.
         25    2    1    2    0    0  0.00000000000E+00  0.00000000000E+00  0.31386472701E+01  0.12504270688E+03  0.12500330971E+03 0.  0.
    9000005    1    3    3    0    0  0.53997825516E+02  0.34355538001E+01  0.32850390858E+02  0.63306527072E+02  0.10000000000E+01 0.  0.
    9000005    1    3    3    0    0 -0.53997825516E+02 -0.34355538001E+01 -0.29711743588E+02  0.61736179809E+02  0.10000000000E+01 0.  0.
<mgrwt>
<rscale>  0 0.12500331E+03</rscale>
<asrwt>0</asrwt>
<pdfrwt beam="2">  1        4 0.93772353E-02 0.12500331E+03</pdfrwt>
<pdfrwt beam="1">  1       -4 0.98601042E-02 0.12500331E+03</pdfrwt>
<totfact> 0.10451153E+04</totfact>
</mgrwt>
</event>
<event>
 5    1  0.3267085E-002  0.1249997E+03  0.7818608E-02  0.1235070E+00
         -4   -1    0    0    0  501 -0.00000000000E+00  0.00000000000E+00  0.11641834396E+03  0.11642527093E+03  0.12700000000E+01 0.  1.
          4   -1    0    0  501    0  0.00000000000E+00 -0.00000000000E+00 -0.33533428372E+02  0.33557468891E+02  0.12700000000E+01 0.  1.
         25    2    1    2    0    0  0.00000000000E+00  0.00000000000E+00  0.82884915588E+02  0.14998273982E+03  0.12499965204E+03 0.  0.
    9000005    1    3    3    0    0 -0.56098416380E+02 -0.27329001525E+02  0.37405199476E+02  0.72760261081E+02  0.10000000000E+01 0.  0.
    9000005    1    3    3    0    0  0.56098416380E+02  0.27329001525E+02  0.45479716112E+02  0.77222478737E+02  0.10000000000E+01 0.  0.
<mgrwt>
<rscale>  0 0.12499965E+03</rscale>
<asrwt>0</asrwt>
<pdfrwt beam="2">  1        4 0.51613712E-02 0.12499965E+03</pdfrwt>
<pdfrwt beam="1">  1       -4 0.17912896E-01 0.12499965E+03</pdfrwt>
<totfact> 0.99307916E+03</totfact>
</mgrwt>
</event>
<event>
 5    1  0.3267085E-002  0.1250008E+03  0.7818608E-02  0.1235068E+00
          4   -1    0    0  501    0  0.00000000000E+00  0.00000000000E+00  0.88844905401E+02  0.88853981992E+02  0.12700000000E+01 0.  1.
         -4   -1    0    0    0  501 -0.00000000000E+00 -0.00000000000E+00 -0.43947131805E+02  0.43965478433E+02  0.12700000000E+01 0.  1.
         25    2    1    2    0    0  0.00000000000E+00  0.00000000000E+00  0.44897773597E+02  0.13281946043E+03  0.12500079597E+03 0.  0.
    9000005    1    3    3    0    0 -0.94706912227E+01 -0.14199689375E+02 -0.41427667328E+02  0.44817148402E+02  0.10000000000E+01 0.  0.
    9000005    1    3    3    0    0  0.94706912227E+01  0.14199689375E+02  0.86325440925E+02  0.88002312023E+02  0.10000000000E+01 0.  0.
<mgrwt>
<rscale>  0 0.12500080E+03</rscale>
<asrwt>0</asrwt>
<pdfrwt beam="1">  1        4 0.13670556E-01 0.12500080E+03</pdfrwt>
<pdfrwt beam="2">  1       -4 0.67632068E-02 0.12500080E+03</pdfrwt>
<totfact> 0.10284054E+04</totfact>
</mgrwt>
</event>
<event>
 5    1  0.3267085E-002  0.1249932E+03  0.7818608E-02  0.1235080E+00
          4   -1    0    0  501    0  0.00000000000E+00  0.00000000000E+00  0.44803028412E+02  0.44821024697E+02  0.12700000000E+01 0.  1.
         -4   -1    0    0    0  501 -0.00000000000E+00 -0.00000000000E+00 -0.87137508183E+02  0.87146762604E+02  0.12700000000E+01 0.  1.
         25    2    1    2    0    0  0.00000000000E+00  0.00000000000E+00 -0.42334479771E+02  0.13196778730E+03  0.12499315464E+03 0.  0.
    9000005    1    3    3    0    0  0.40658871723E+02  0.28589091337E+02 -0.61153251828E+02  0.78811168006E+02  0.10000000000E+01 0.  0.
    9000005    1    3    3    0    0 -0.40658871723E+02 -0.28589091337E+02  0.18818772057E+02  0.53156619296E+02  0.10000000000E+01 0.  0.
<mgrwt>
<rscale>  0 0.12499315E+03</rscale>
<asrwt>0</asrwt>
<pdfrwt beam="1">  1        4 0.68948698E-02 0.12499315E+03</pdfrwt>
<pdfrwt beam="2">  1       -4 0.13407867E-01 0.12499315E+03</pdfrwt>
<totfact> 0.10303977E+04</totfact>
</mgrwt>
</event>
<event>
 5    1  0.3267085E-002  0.1250007E+03  0.7818608E-02  0.1235068E+00
         -4   -1    0    0    0  501 -0.00000000000E+00  0.00000000000E+00  0.49819653943E+02  0.49835838701E+02  0.12700000000E+01 0. -1.
          4   -1    0    0  501    0  0.00000000000E+00 -0.00000000000E+00 -0.78374665647E+02  0.78384954649E+02  0.12700000000E+01 0. -1.
         25    2    1    2    0    0  0.00000000000E+00  0.00000000000E+00 -0.28555011704E+02  0.12822079335E+03  0.12500073261E+03 0.  0.
    9000005    1    3    3    0    0  0.48034240683E+02 -0.29029753529E+02 -0.42467835754E+02  0.70388436135E+02  0.10000000000E+01 0.  0.
    9000005    1    3    3    0    0 -0.48034240683E+02  0.29029753529E+02  0.13912824049E+02  0.57832357214E+02  0.10000000000E+01 0.  0.
<mgrwt>
<rscale>  0 0.12500073E+03</rscale>
<asrwt>0</asrwt>
<pdfrwt beam="2">  1        4 0.12059677E-01 0.12500073E+03</pdfrwt>
<pdfrwt beam="1">  1       -4 0.76665986E-02 0.12500073E+03</pdfrwt>
<totfact> 0.10382550E+04</totfact>
</mgrwt>
</event>
<event>
 5    1  0.3267085E-002  0.1250025E+03  0.7818608E-02  0.1235065E+00
          4   -1    0    0  501    0  0.00000000000E+00  0.00000000000E+00  0.16227838711E+02  0.16277458316E+02  0.12700000000E+01 0. -1.
         -4   -1    0    0    0  501 -0.00000000000E+00 -0.00000000000E+00 -0.24030382715E+03  0.24030718308E+03  0.12700000000E+01 0. -1.
         25    2    1    2    0    0  0.00000000000E+00  0.00000000000E+00 -0.22407598844E+03  0.25658464140E+03  0.12500251841E+03 0.  0.
    9000005    1    3    3    0    0 -0.31087804517E+02  0.54111808859E+02 -0.11880483250E+03  0.13420181695E+03  0.10000000000E+01 0.  0.
    9000005    1    3    3    0    0  0.31087804517E+02 -0.54111808859E+02 -0.10527115593E+03  0.12238282444E+03  0.10000000000E+01 0.  0.
<mgrwt>
<rscale>  0 0.12500252E+03</rscale>
<asrwt>0</asrwt>
<pdfrwt beam="1">  1        4 0.25006658E-02 0.12500252E+03</pdfrwt>
<pdfrwt beam="2">  1       -4 0.36973892E-01 0.12500252E+03</pdfrwt>
<totfact> 0.81383197E+03</totfact>
</mgrwt>
</event>
<event>
 5    1  0.3267085E-002  0.1249813E+03  0.7818608E-02  0.1235098E+00
         -4   -1    0    0    0  501 -0.00000000000E+00  0.00000000000E+00  0.55562394901E+01  0.56995348294E+01  0.12700000000E+01 0. -1.
          4   -1    0    0  501    0  0.00000000000E+00 -0.00000000000E+00 -0.69373679734E+03  0.69373795981E+03  0.12700000000E+01 0. -1.
         25    2    1    2    0    0  0.00000000000E+00  0.00000000000E+00 -0.68818055785E+03  0.69943749464E+03  0.12498131343E+03 0.  0.
    9000005    1    3    3    0    0 -0.59926321092E+02  0.17094213450E+02 -0.31862474374E+03  0.32466306137E+03  0.10000000000E+01 0.  0.
    9000005    1    3    3    0    0  0.59926321092E+02 -0.17094213450E+02 -0.36955581411E+03  0.37477443327E+03  0.10000000000E+01 0.  0.
<mgrwt>
<rscale>  0 0.12498131E+03</rscale>
<asrwt>0</asrwt>
<pdfrwt beam="2">  1        4 0.10673978E+00 0.12498131E+03</pdfrwt>
<pdfrwt beam="1">  1       -4 0.86591876E-03 0.12498131E+03</pdfrwt>
<totfact> 0.43134055E+03</totfact>
</mgrwt>
</event>
<event>
 5    1  0.3267085E-002  0.1250059E+03  0.7818608E-02  0.1235060E+00
          4   -1    0    0  501    0  0.00000000000E+00  0.00000000000E+00  0.45818869089E+02  0.45836466537E+02  0.12700000000E+01 0. -1.
         -4   -1    0    0    0  501 -0.00000000000E+00 -0.00000000000E+00 -0.85223461930E+02  0.85232924175E+02  0.12700000000E+01 0. -1.
         25    2    1    2    0    0  0.00000000000E+00  0.00000000000E+00 -0.39404592841E+02  0.13106939071E+03  0.12500585284E+03 0.  0.
    9000005    1    3    3    0    0  0.57647298683E+02  0.15401518297E+02 -0.39183019304E+02  0.71391363715E+02  0.10000000000E+01 0.  0.
    9000005    1    3    3    0    0 -0.57647298683E+02 -0.15401518297E+02 -0.22157353697E+00  0.59678026996E+02  0.10000000000E+01 0.  0.
<mgrwt>
<rscale>  0 0.12500585E+03</rscale>
<asrwt>0</asrwt>
<pdfrwt beam="1">  1        4 0.70511383E-02 0.12500585E+03</pdfrwt>
<pdfrwt beam="2">  1       -4 0.13113383E-01 0.12500585E+03</pdfrwt>
<totfact> 0.10320239E+04</totfact>
</mgrwt>
</event>
<event>
 5    1  0.3267085E-002  0.1250049E+03  0.7818608E-02  0.1235062E+00
         -4   -1    0    0    0  501 -0.00000000000E+00  0.00000000000E+00  0.87783251239E+02  0.87792437591E+02  0.12700000000E+01 0.  1.
          4   -1    0    0  501    0  0.00000000000E+00 -0.00000000000E+00 -0.44481739776E+02  0.44499865994E+02  0.12700000000E+01 0.  1.
         25    2    1    2    0    0  0.00000000000E+00  0.00000000000E+00  0.43301511464E+02  0.13229230358E+03  0.12500493067E+03 0.  0.
    9000005    1    3    3    0    0  0.37858466799E+01 -0.25825083501E+02 -0.38442332569E+02  0.46476666256E+02  0.10000000000E+01 0.  0.
    9000005    1    3    3    0    0 -0.37858466799E+01  0.25825083501E+02  0.81743844033E+02  0.85815637329E+02  0.10000000000E+01 0.  0.
<mgrwt>
<rscale>  0 0.12500493E+03</rscale>
<asrwt>0</asrwt>
<pdfrwt beam="2">  1        4 0.68454456E-02 0.12500493E+03</pdfrwt>
<pdfrwt beam="1">  1       -4 0.13507216E-01 0.12500493E+03</pdfrwt>
<totfact> 0.10294318E+04</totfact>
</mgrwt>
</event>
<event>
 5    1  0.3267085E-002  0.1250027E+03  0.7818608E-02  0.1235065E+00
         -4   -1    0    0    0  501 -0.00000000000E+00  0.00000000000E+00  0.45259135755E+02  0.45276950750E+02  0.12700000000E+01 0.  1.
          4   -1    0    0  501    0  0.00000000000E+00 -0.00000000000E+00 -0.86272769032E+02  0.86282116203E+02  0.12700000000E+01 0.  1.
         25    2    1    2    0    0  0.00000000000E+00  0.00000000000E+00 -0.41013633278E+02  0.13155906695E+03  0.12500267990E+03 0.  0.
    9000005    1    3    3    0    0 -0.51750095853E+02 -0.14185229330E+02 -0.54220131479E+02  0.76289683506E+02  0.10000000000E+01 0.  0.
    9000005    1    3    3    0    0  0.51750095853E+02  0.14185229330E+02  0.13206498201E+02  0.55269383447E+02  0.10000000000E+01 0.  0.
<mgrwt>
<rscale>  0 0.12500268E+03</rscale>
<asrwt>0</asrwt>
<pdfrwt beam="2">  1        4 0.13274823E-01 0.12500268E+03</pdfrwt>
<pdfrwt beam="1">  1       -4 0.69650333E-02 0.12500268E+03</pdfrwt>
<totfact> 0.10310495E+04</totfact>
</mgrwt>
</event>
<event>
 5    1  0.3267085E-002  0.1249954E+03  0.7818608E-02  0.1235076E+00
          4   -1    0    0  501    0  0.00000000000E+00  0.00000000000E+00  0.11696253083E+03  0.11696942557E+03  0.12700000000E+01 0.  1.
         -4   -1    0    0    0  501 -0.00000000000E+00 -0.00000000000E+00 -0.33375036744E+02  0.33399191273E+02  0.12700000000E+01 0.  1.
         25    2    1    2    0    0  0.00000000000E+00  0.00000000000E+00  0.83587494089E+02  0.15036861685E+03  0.12499540697E+03 0.  0.
    9000005    1    3    3    0    0 -0.30795029241E+02  0.31861598721E+02 -0.11212643045E+02  0.45718909251E+02  0.10000000000E+01 0.  0.
    9000005    1    3    3    0    0  0.30795029241E+02 -0.31861598721E+02  0.94800137134E+02  0.10464970759E+03  0.10000000000E+01 0.  0.
<mgrwt>
<rscale>  0 0.12499541E+03</rscale>
<asrwt>0</asrwt>
<pdfrwt beam="1">  1        4 0.17996624E-01 0.12499541E+03</pdfrwt>
<pdfrwt beam="2">  1       -4 0.51370094E-02 0.12499541E+03</pdfrwt>
<totfact> 0.99240528E+03</totfact>
</mgrwt>
</event>
<event>
 5    1  0.3267085E-002  0.1250077E+03  0.7818608E-02  0.1235057E+00
          4   -1    0    0  501    0  0.00000000000E+00  0.00000000000E+00  0.21545094395E+03  0.21545468699E+03  0.12700000000E+01 0.  1.
         -4   -1    0    0    0  501 -0.00000000000E+00 -0.00000000000E+00 -0.18106660273E+02  0.18151144488E+02  0.12700000000E+01 0.  1.
         25    2    1    2    0    0  0.00000000000E+00  0.00000000000E+00  0.19734428367E+03  0.23360583148E+03  0.12500767258E+03 0.  0.
    9000005    1    3    3    0    0 -0.36012651786E+02  0.48410986483E+02  0.68240207839E+02  0.91094789461E+02  0.10000000000E+01 0.  0.
    9000005    1    3    3    0    0  0.36012651786E+02 -0.48410986483E+02  0.12910407584E+03  0.14251104202E+03  0.10000000000E+01 0.  0.
<mgrwt>
<rscale>  0 0.12500767E+03</rscale>
<asrwt>0</asrwt>
<pdfrwt beam="1">  1        4 0.33150010E-01 0.12500767E+03</pdfrwt>
<pdfrwt beam="2">  1       -4 0.27893498E-02 0.12500767E+03</pdfrwt>
<totfact> 0.84744471E+03</totfact>
</mgrwt>
</event>
<event>
 5    1  0.3267085E-002  0.1250008E+03  0.7818608E-02  0.1235068E+00
          4   -1    0    0  501    0  0.00000000000E+00  0.00000000000E+00  0.18062268293E+03  0.18062714771E+03  0.12700000000E+01 0.  1.
         -4   -1    0    0    0  501 -0.00000000000E+00 -0.00000000000E+00 -0.21603467627E+02  0.21640765086E+02  0.12700000000E+01 0.  1.
         25    2    1    2    0    0  0.00000000000E+00  0.00000000000E+00  0.15901921531E+03  0.20226791280E+03  0.12500079084E+03 0.  0.
    9000005    1    3    3    0    0 -0.58380548657E+02 -0.19664850150E+02  0.62515001182E+02  0.87773117557E+02  0.10000000000E+01 0.  0.
    9000005    1    3    3    0    0  0.58380548657E+02  0.19664850150E+02  0.96504214125E+02  0.11449479524E+03  0.10000000000E+01 0.  0.
<mgrwt>
<rscale>  0 0.12500079E+03</rscale>
<asrwt>0</asrwt>
<pdfrwt beam="1">  1        4 0.27791319E-01 0.12500079E+03</pdfrwt>
<pdfrwt beam="2">  1       -4 0.33268228E-02 0.12500079E+03</pdfrwt>
<totfact> 0.89752820E+03</totfact>
</mgrwt>
</event>
<event>
 5    1  0.3267085E-002  0.1249972E+03  0.7818608E-02  0.1235074E+00
          4   -1    0    0  501    0  0.00000000000E+00  0.00000000000E+00  0.62617513988E+03  0.62617642777E+03  0.12700000000E+01 0.  1.
         -4   -1    0    0    0  501 -0.00000000000E+00 -0.00000000000E+00 -0.61720479784E+01  0.63013551120E+01  0.12700000000E+01 0.  1.
         25    2    1    2    0    0  0.00000000000E+00  0.00000000000E+00  0.62000309190E+03  0.63247778289E+03  0.12499724749E+03 0.  0.
    9000005    1    3    3    0    0 -0.39303128224E+02  0.17964301313E+02  0.81595783015E+02  0.92338095149E+02  0.10000000000E+01 0.  0.
    9000005    1    3    3    0    0  0.39303128224E+02 -0.17964301313E+02  0.53840730888E+03  0.54013968774E+03  0.10000000000E+01 0.  0.
<mgrwt>
<rscale>  0 0.12499725E+03</rscale>
<asrwt>0</asrwt>
<pdfrwt beam="1">  1        4 0.96344684E-01 0.12499725E+03</pdfrwt>
<pdfrwt beam="2">  1       -4 0.95959160E-03 0.12499725E+03</pdfrwt>
<totfact> 0.46882490E+03</totfact>
</mgrwt>
</event>
<event>
 5    1  0.3267085E-002  0.1249999E+03  0.7818608E-02  0.1235069E+00
          4   -1    0    0  501    0  0.00000000000E+00  0.00000000000E+00  0.17507638329E+03  0.17508098950E+03  0.12700000000E+01 0. -1.
         -4   -1    0    0    0  501 -0.00000000000E+00 -0.00000000000E+00 -0.22288684000E+02  0.22324836717E+02  0.12700000000E+01 0. -1.
         25    2    1    2    0    0  0.00000000000E+00  0.00000000000E+00  0.15278769929E+03  0.19740582622E+03  0.12499991669E+03 0.  0.
    9000005    1    3    3    0    0  0.22580280812E+02  0.54203915591E+02  0.11016580321E+03  0.12484165068E+03  0.10000000000E+01 0.  0.
    9000005    1    3    3    0    0 -0.22580280812E+02 -0.54203915591E+02  0.42621896080E+02  0.72564175544E+02  0.10000000000E+01 0.  0.
<mgrwt>
<rscale>  0 0.12499992E+03</rscale>
<asrwt>0</asrwt>
<pdfrwt beam="1">  1        4 0.26937965E-01 0.12499992E+03</pdfrwt>
<pdfrwt beam="2">  1       -4 0.34321634E-02 0.12499992E+03</pdfrwt>
<totfact> 0.90574620E+03</totfact>
</mgrwt>
</event>
<event>
 5    1  0.3267085E-002  0.1250082E+03  0.7818608E-02  0.1235056E+00
         -4   -1    0    0    0  501 -0.00000000000E+00  0.00000000000E+00  0.19367639589E+02  0.19409233969E+02  0.12700000000E+01 0.  1.
          4   -1    0    0  501    0  0.00000000000E+00 -0.00000000000E+00 -0.20145613353E+03  0.20146013660E+03  0.12700000000E+01 0.  1.
         25    2    1    2    0    0  0.00000000000E+00  0.00000000000E+00 -0.18208849394E+03  0.22086937057E+03  0.12500823664E+03 0.  0.
    9000005    1    3    3    0    0 -0.46774181143E+01 -0.61130353657E+02 -0.11246357957E+03  0.12809315012E+03  0.10000000000E+01 0.  0.
    9000005    1    3    3    0    0  0.46774181143E+01  0.61130353657E+02 -0.69624914373E+02  0.92776220444E+02  0.10000000000E+01 0.  0.
<mgrwt>
<rscale>  0 0.12500824E+03</rscale>
<asrwt>0</asrwt>
<pdfrwt beam="2">  1        4 0.30996757E-01 0.12500824E+03</pdfrwt>
<pdfrwt beam="1">  1       -4 0.29831445E-02 0.12500824E+03</pdfrwt>
<totfact> 0.86715017E+03</totfact>
</mgrwt>
</event>
<event>
 5    1  0.3267085E-002  0.1249914E+03  0.7818608E-02  0.1235083E+00
         -4   -1    0    0    0  501 -0.00000000000E+00  0.00000000000E+00  0.10397876538E+03  0.10398652100E+03  0.12700000000E+01 0. -1.
          4   -1    0    0  501    0  0.00000000000E+00 -0.00000000000E+00 -0.37542699151E+02  0.37564173883E+02  0.12700000000E+01 0. -1.
         25    2    1    2    0    0  0.00000000000E+00  0.00000000000E+00  0.66436066227E+02  0.14155069488E+03  0.12499139301E+03 0.  0.
    9000005    1    3    3    0    0 -0.14905715364E+02  0.60664848644E+02  0.31497600898E+02  0.69967871726E+02  0.10000000000E+01 0.  0.
    9000005    1    3    3    0    0  0.14905715364E+02 -0.60664848644E+02  0.34938465329E+02  0.71582823156E+02  0.10000000000E+01 0.  0.
<mgrwt>
<rscale>  0 0.12499139E+03</rscale>
<asrwt>0</asrwt>
<pdfrwt beam="2">  1        4 0.57780484E-02 0.12499139E+03</pdfrwt>
<pdfrwt beam="1">  1       -4 0.15998981E-01 0.12499139E+03</pdfrwt>
<totfact> 0.10103506E+04</totfact>
</mgrwt>
</event>
<event>
 5    1  0.3267085E-002  0.1250327E+03  0.7818608E-02  0.1235018E+00
          4   -1    0    0  501    0  0.00000000000E+00  0.00000000000E+00  0.24412826283E+03  0.24413156619E+03  0.12700000000E+01 0.  1.
         -4   -1    0    0    0  501 -0.00000000000E+00 -0.00000000000E+00 -0.15980583398E+02  0.16030968335E+02  0.12700000000E+01 0.  1.
         25    2    1    2    0    0  0.00000000000E+00  0.00000000000E+00  0.22814767943E+03  0.26016253453E+03  0.12503271869E+03 0.  0.
    9000005    1    3    3    0    0  0.40339674763E+01  0.50118695140E+02  0.19134635541E+03  0.19784484887E+03  0.10000000000E+01 0.  0.
    9000005    1    3    3    0    0 -0.40339674763E+01 -0.50118695140E+02  0.36801324023E+02  0.62317685659E+02  0.10000000000E+01 0.  0.
<mgrwt>
<rscale>  0 0.12503272E+03</rscale>
<asrwt>0</asrwt>
<pdfrwt beam="1">  1        4 0.37562322E-01 0.12503272E+03</pdfrwt>
<pdfrwt beam="2">  1       -4 0.24626813E-02 0.12503272E+03</pdfrwt>
<totfact> 0.80824378E+03</totfact>
</mgrwt>
</event>
<event>
 5    1  0.3267085E-002  0.1249787E+03  0.7818608E-02  0.1235103E+00
          4   -1    0    0  501    0  0.00000000000E+00  0.00000000000E+00  0.40105806684E+02  0.40125909707E+02  0.12700000000E+01 0. -1.
         -4   -1    0    0    0  501 -0.00000000000E+00 -0.00000000000E+00 -0.97316787022E+02  0.97325073523E+02  0.12700000000E+01 0. -1.
         25    2    1    2    0    0  0.00000000000E+00  0.00000000000E+00 -0.57210980337E+02  0.13745098323E+03  0.12497870426E+03 0.  0.
    9000005    1    3    3    0    0 -0.88888460947E+01  0.60426964101E+02 -0.14119489563E+02  0.62696009131E+02  0.10000000000E+01 0.  0.
    9000005    1    3    3    0    0  0.88888460947E+01 -0.60426964101E+02 -0.43091490775E+02  0.74754974099E+02  0.10000000000E+01 0.  0.
<mgrwt>
<rscale>  0 0.12497870E+03</rscale>
<asrwt>0</asrwt>
<pdfrwt beam="1">  1        4 0.61723079E-02 0.12497870E+03</pdfrwt>
<pdfrwt beam="2">  1       -4 0.14973997E-01 0.12497870E+03</pdfrwt>
<totfact> 0.10191557E+04</totfact>
</mgrwt>
</event>
<event>
 5    1  0.3267085E-002  0.1249982E+03  0.7818608E-02  0.1235072E+00
         -4   -1    0    0    0  501 -0.00000000000E+00  0.00000000000E+00  0.19524497522E+02  0.19565758444E+02  0.12700000000E+01 0.  1.
          4   -1    0    0  501    0  0.00000000000E+00 -0.00000000000E+00 -0.19980911052E+03  0.19981314658E+03  0.12700000000E+01 0.  1.
         25    2    1    2    0    0  0.00000000000E+00  0.00000000000E+00 -0.18028461300E+03  0.21937890502E+03  0.12499824913E+03 0.  0.
    9000005    1    3    3    0    0  0.58802280653E+01  0.59422522509E+02 -0.57803179654E+02  0.83113301232E+02  0.10000000000E+01 0.  0.
    9000005    1    3    3    0    0 -0.58802280653E+01 -0.59422522509E+02 -0.12248143334E+03  0.13626560379E+03  0.10000000000E+01 0.  0.
<mgrwt>
<rscale>  0 0.12499825E+03</rscale>
<asrwt>0</asrwt>
<pdfrwt beam="2">  1        4 0.30743346E-01 0.12499825E+03</pdfrwt>
<pdfrwt beam="1">  1       -4 0.30072534E-02 0.12499825E+03</pdfrwt>
<totfact> 0.86970127E+03</totfact>
</mgrwt>
</event>
<event>
 5    1  0.3267085E-002  0.1249960E+03  0.7818608E-02  0.1235075E+00
         -4   -1    0    0    0  501 -0.00000000000E+00  0.00000000000E+00  0.66432347680E+02  0.66444485988E+02  0.12700000000E+01 0.  1.
          4   -1    0    0  501    0  0.00000000000E+00 -0.00000000000E+00 -0.58772309644E+02  0.58786029640E+02  0.12700000000E+01 0.  1.
         25    2    1    2    0    0  0.00000000000E+00  0.00000000000E+00  0.76600380361E+01  0.12523051563E+03  0.12499602338E+03 0.  0.
    9000005    1    3    3    0    0  0.13748290068E+01 -0.31988139320E+02 -0.49935077917E+02  0.59326581045E+02  0.10000000000E+01 0.  0.
    9000005    1    3    3    0    0 -0.13748290068E+01  0.31988139320E+02  0.57595115953E+02  0.65903934583E+02  0.10000000000E+01 0.  0.
<mgrwt>
<rscale>  0 0.12499602E+03</rscale>
<asrwt>0</asrwt>
<pdfrwt beam="2">  1        4 0.90438830E-02 0.12499602E+03</pdfrwt>
<pdfrwt beam="1">  1       -4 0.10222350E-01 0.12499602E+03</pdfrwt>
<totfact> 0.10448797E+04</totfact>
</mgrwt>
</event>
<event>
 5    1  0.3267085E-002  0.1250006E+03  0.7818608E-02  0.1235068E+00
          4   -1    0    0  501    0  0.00000000000E+00  0.00000000000E+00  0.13398705836E+03  0.13399307709E+03  0.12700000000E+01 0.  1.
         -4   -1    0    0    0  501 -0.00000000000E+00 -0.00000000000E+00 -0.29133696243E+02  0.29161364111E+02  0.12700000000E+01 0.  1.
         25    2    1    2    0    0  0.00000000000E+00  0.00000000000E+00  0.10485336212E+03  0.16315444121E+03  0.12500057655E+03 0.  0.
    9000005    1    3    3    0    0 -0.36935516484E+02  0.38748940044E+02  0.10342930018E+02  0.54531540724E+02  0.10000000000E+01 0.  0.
    9000005    1    3    3    0    0  0.36935516484E+02 -0.38748940044E+02  0.94510432104E+02  0.10862290048E+03  0.10000000000E+01 0.  0.
<mgrwt>
<rscale>  0 0.12500058E+03</rscale>
<asrwt>0</asrwt>
<pdfrwt beam="1">  1        4 0.20615985E-01 0.12500058E+03</pdfrwt>
<pdfrwt beam="2">  1       -4 0.44846983E-02 0.12500058E+03</pdfrwt>
<totfact> 0.96736804E+03</totfact>
</mgrwt>
</event>
<event>
 5    1  0.3267085E-002  0.1250006E+03  0.7818608E-02  0.1235068E+00
          4   -1    0    0  501    0  0.00000000000E+00  0.00000000000E+00  0.37672425013E+02  0.37693825838E+02  0.12700000000E+01 0.  1.
         -4   -1    0    0    0  501 -0.00000000000E+00 -0.00000000000E+00 -0.10363620465E+03  0.10364398591E+03  0.12700000000E+01 0.  1.
         25    2    1    2    0    0  0.00000000000E+00  0.00000000000E+00 -0.65963779642E+02  0.14133781175E+03  0.12500062722E+03 0.  0.
    9000005    1    3    3    0    0 -0.12451691975E+02 -0.32209415893E+02  0.25909920806E+02  0.43183504969E+02  0.10000000000E+01 0.  0.
    9000005    1    3    3    0    0  0.12451691975E+02  0.32209415893E+02 -0.91873700448E+02  0.98154306779E+02  0.10000000000E+01 0.  0.
<mgrwt>
<rscale>  0 0.12500063E+03</rscale>
<asrwt>0</asrwt>
<pdfrwt beam="1">  1        4 0.57980025E-02 0.12500063E+03</pdfrwt>
<pdfrwt beam="2">  1       -4 0.15946276E-01 0.12500063E+03</pdfrwt>
<totfact> 0.10105791E+04</totfact>
</mgrwt>
</event>
<event>
 5    1  0.3267085E-002  0.1250013E+03  0.7818608E-02  0.1235067E+00
         -4   -1    0    0    0  501 -0.00000000000E+00  0.00000000000E+00  0.21977578965E+02  0.22014242598E+02  0.12700000000E+01 0. -1.
          4   -1    0    0  501    0  0.00000000000E+00 -0.00000000000E+00 -0.17755464146E+03  0.17755918338E+03  0.12700000000E+01 0. -1.
         25    2    1    2    0    0  0.00000000000E+00  0.00000000000E+00 -0.15557706249E+03  0.19957342598E+03  0.12500131993E+03 0.  0.
    9000005    1    3    3    0    0 -0.29740886249E+02 -0.54711627029E+02 -0.86153410472E+02  0.10630753775E+03  0.10000000000E+01 0.  0.
    9000005    1    3    3    0    0  0.29740886249E+02  0.54711627029E+02 -0.69423652018E+02  0.93265888226E+02  0.10000000000E+01 0.  0.
<mgrwt>
<rscale>  0 0.12500132E+03</rscale>
<asrwt>0</asrwt>
<pdfrwt beam="2">  1        4 0.27319267E-01 0.12500132E+03</pdfrwt>
<pdfrwt beam="1">  1       -4 0.33843358E-02 0.12500132E+03</pdfrwt>
<totfact> 0.90204837E+03</totfact>
</mgrwt>
</event>
<event>
 5    1  0.3267085E-002  0.1249987E+03  0.7818608E-02  0.1235071E+00
          4   -1    0    0  501    0  0.00000000000E+00  0.00000000000E+00  0.18253742272E+03  0.18254184066E+03  0.12700000000E+01 0. -1.
         -4   -1    0    0    0  501 -0.00000000000E+00 -0.00000000000E+00 -0.21375768966E+02  0.21413463029E+02  0.12700000000E+01 0. -1.
         25    2    1    2    0    0  0.00000000000E+00  0.00000000000E+00  0.16116165375E+03  0.20395530369E+03  0.12499874905E+03 0.  0.
    9000005    1    3    3    0    0 -0.51677870247E+02  0.19447825425E+02  0.32832803188E+02  0.64248059521E+02  0.10000000000E+01 0.  0.
    9000005    1    3    3    0    0  0.51677870247E+02 -0.19447825425E+02  0.12832885057E+03  0.13970724417E+03  0.10000000000E+01 0.  0.
<mgrwt>
<rscale>  0 0.12499875E+03</rscale>
<asrwt>0</asrwt>
<pdfrwt beam="1">  1        4 0.28085919E-01 0.12499875E+03</pdfrwt>
<pdfrwt beam="2">  1       -4 0.32918193E-02 0.12499875E+03</pdfrwt>
<totfact> 0.89475177E+03</totfact>
</mgrwt>
</event>
<event>
 5    1  0.3267085E-002  0.1250051E+03  0.7818608E-02  0.1235061E+00
          4   -1    0    0  501    0  0.00000000000E+00  0.00000000000E+00  0.30324248765E+03  0.30324514707E+03  0.12700000000E+01 0. -1.
         -4   -1    0    0    0  501 -0.00000000000E+00 -0.00000000000E+00 -0.12848634330E+02  0.12911247196E+02  0.12700000000E+01 0. -1.
         25    2    1    2    0    0  0.00000000000E+00  0.00000000000E+00  0.29039385332E+03  0.31615639426E+03  0.12500510223E+03 0.  0.
    9000005    1    3    3    0    0  0.60812458645E+02 -0.30306407710E+01  0.18080576534E+03  0.19078538909E+03  0.10000000000E+01 0.  0.
    9000005    1    3    3    0    0 -0.60812458645E+02  0.30306407710E+01  0.10958808799E+03  0.12537100518E+03  0.10000000000E+01 0.  0.
<mgrwt>
<rscale>  0 0.12500510E+03</rscale>
<asrwt>0</asrwt>
<pdfrwt beam="1">  1        4 0.46657713E-01 0.12500510E+03</pdfrwt>
<pdfrwt beam="2">  1       -4 0.19817338E-02 0.12500510E+03</pdfrwt>
<totfact> 0.73607284E+03</totfact>
</mgrwt>
</event>
<event>
 5    1  0.3267085E-002  0.1249989E+03  0.7818608E-02  0.1235071E+00
         -4   -1    0    0    0  501 -0.00000000000E+00  0.00000000000E+00  0.14827010937E+03  0.14827554833E+03  0.12700000000E+01 0. -1.
          4   -1    0    0  501    0  0.00000000000E+00 -0.00000000000E+00 -0.26323821827E+02  0.26354439770E+02  0.12700000000E+01 0. -1.
         25    2    1    2    0    0  0.00000000000E+00  0.00000000000E+00  0.12194628755E+03  0.17462998811E+03  0.12499894279E+03 0.  0.
    9000005    1    3    3    0    0  0.13555063824E+02 -0.15323311721E+02  0.14346594600E+03  0.14492074144E+03  0.10000000000E+01 0.  0.
    9000005    1    3    3    0    0 -0.13555063824E+02  0.15323311721E+02 -0.21519658455E+02  0.29709246665E+02  0.10000000000E+01 0.  0.
<mgrwt>
<rscale>  0 0.12499894E+03</rscale>
<asrwt>0</asrwt>
<pdfrwt beam="2">  1        4 0.40525924E-02 0.12499894E+03</pdfrwt>
<pdfrwt beam="1">  1       -4 0.22813559E-01 0.12499894E+03</pdfrwt>
<totfact> 0.94594894E+03</totfact>
</mgrwt>
</event>
<event>
 5    1  0.3267085E-002  0.1249999E+03  0.7818608E-02  0.1235069E+00
          4   -1    0    0  501    0  0.00000000000E+00  0.00000000000E+00  0.75405654105E+01  0.76467657679E+01  0.12700000000E+01 0.  1.
         -4   -1    0    0    0  501 -0.00000000000E+00 -0.00000000000E+00 -0.51430128621E+03  0.51430285426E+03  0.12700000000E+01 0.  1.
         25    2    1    2    0    0  0.00000000000E+00  0.00000000000E+00 -0.50676072080E+03  0.52194962003E+03  0.12499991080E+03 0.  0.
    9000005    1    3    3    0    0  0.57314817499E+01  0.62017461597E+02 -0.23199533649E+03  0.24021209707E+03  0.10000000000E+01 0.  0.
    9000005    1    3    3    0    0 -0.57314817499E+01 -0.62017461597E+02 -0.27476538431E+03  0.28173752295E+03  0.10000000000E+01 0.  0.
<mgrwt>
<rscale>  0 0.12499991E+03</rscale>
<asrwt>0</asrwt>
<pdfrwt beam="1">  1        4 0.11683773E-02 0.12499991E+03</pdfrwt>
<pdfrwt beam="2">  1       -4 0.79131537E-01 0.12499991E+03</pdfrwt>
<totfact> 0.54200794E+03</totfact>
</mgrwt>
</event>
<event>
 5    1  0.3267085E-002  0.1250023E+03  0.7818608E-02  0.1235066E+00
         -4   -1    0    0    0  501 -0.00000000000E+00  0.00000000000E+00  0.82197181474E+02  0.82206992052E+02  0.12700000000E+01 0.  1.
          4   -1    0    0  501    0  0.00000000000E+00 -0.00000000000E+00 -0.47503498243E+02  0.47520471855E+02  0.12700000000E+01 0.  1.
         25    2    1    2    0    0  0.00000000000E+00  0.00000000000E+00  0.34693683231E+02  0.12972746391E+03  0.12500225292E+03 0.  0.
    9000005    1    3    3    0    0 -0.41696794366E+02 -0.22808380867E+02 -0.24764687356E+02  0.53601629061E+02  0.10000000000E+01 0.  0.
    9000005    1    3    3    0    0  0.41696794366E+02  0.22808380867E+02  0.59458370587E+02  0.76125834846E+02  0.10000000000E+01 0.  0.
<mgrwt>
<rscale>  0 0.12500225E+03</rscale>
<asrwt>0</asrwt>
<pdfrwt beam="2">  1        4 0.73102908E-02 0.12500225E+03</pdfrwt>
<pdfrwt beam="1">  1       -4 0.12647781E-01 0.12500225E+03</pdfrwt>
<totfact> 0.10349815E+04</totfact>
</mgrwt>
</event>
<event>
 5    1  0.3267085E-002  0.1250017E+03  0.7818608E-02  0.1235067E+00
         -4   -1    0    0    0  501 -0.00000000000E+00  0.00000000000E+00  0.45387278306E+02  0.45405043024E+02  0.12700000000E+01 0.  1.
          4   -1    0    0  501    0  0.00000000000E+00 -0.00000000000E+00 -0.86027858305E+02  0.86037232084E+02  0.12700000000E+01 0.  1.
         25    2    1    2    0    0  0.00000000000E+00  0.00000000000E+00 -0.40640579999E+02  0.13144227511E+03  0.12500165976E+03 0.  0.
    9000005    1    3    3    0    0 -0.58250276245E+02 -0.22514672669E+02 -0.17888432999E+02  0.64969232743E+02  0.10000000000E+01 0.  0.
    9000005    1    3    3    0    0  0.58250276245E+02  0.22514672669E+02 -0.22752147000E+02  0.66473042364E+02  0.10000000000E+01 0.  0.
<mgrwt>
<rscale>  0 0.12500166E+03</rscale>
<asrwt>0</asrwt>
<pdfrwt beam="2">  1        4 0.13237143E-01 0.12500166E+03</pdfrwt>
<pdfrwt beam="1">  1       -4 0.69847458E-02 0.12500166E+03</pdfrwt>
<totfact> 0.10313231E+04</totfact>
</mgrwt>
</event>
<event>
 5    1  0.3267085E-002  0.1250010E+03  0.7818608E-02  0.1235068E+00
          4   -1    0    0  501    0  0.00000000000E+00  0.00000000000E+00  0.51209215858E+02  0.51224961580E+02  0.12700000000E+01 0.  1.
         -4   -1    0    0    0  501 -0.00000000000E+00 -0.00000000000E+00 -0.76248646738E+02  0.76259222585E+02  0.12700000000E+01 0.  1.
         25    2    1    2    0    0  0.00000000000E+00  0.00000000000E+00 -0.25039430879E+02  0.12748418416E+03  0.12500097645E+03 0.  0.
    9000005    1    3    3    0    0 -0.83867196445E+01 -0.61492025951E+02 -0.19993646318E+02  0.65210062222E+02  0.10000000000E+01 0.  0.
    9000005    1    3    3    0    0  0.83867196445E+01  0.61492025951E+02 -0.50457845610E+01  0.62274121943E+02  0.10000000000E+01 0.  0.
<mgrwt>
<rscale>  0 0.12500098E+03</rscale>
<asrwt>0</asrwt>
<pdfrwt beam="1">  1        4 0.78803656E-02 0.12500098E+03</pdfrwt>
<pdfrwt beam="2">  1       -4 0.11732586E-01 0.12500098E+03</pdfrwt>
<totfact> 0.10398414E+04</totfact>
</mgrwt>
</event>
<event>
 5    1  0.3267085E-002  0.1249991E+03  0.7818608E-02  0.1235071E+00
         -4   -1    0    0    0  501 -0.00000000000E+00  0.00000000000E+00  0.16037050733E+03  0.16037553592E+03  0.12700000000E+01 0.  1.
          4   -1    0    0  501    0  0.00000000000E+00 -0.00000000000E+00 -0.24335331255E+02  0.24368447781E+02  0.12700000000E+01 0.  1.
         25    2    1    2    0    0  0.00000000000E+00  0.00000000000E+00  0.13603517607E+03  0.18474398370E+03  0.12499908153E+03 0.  0.
    9000005    1    3    3    0    0 -0.42385117405E+02  0.45796560033E+02  0.73001086294E+02  0.96041562297E+02  0.10000000000E+01 0.  0.
    9000005    1    3    3    0    0  0.42385117405E+02 -0.45796560033E+02  0.63034089780E+02  0.88702421403E+02  0.10000000000E+01 0.  0.
<mgrwt>
<rscale>  0 0.12499908E+03</rscale>
<asrwt>0</asrwt>
<pdfrwt beam="2">  1        4 0.37468315E-02 0.12499908E+03</pdfrwt>
<pdfrwt beam="1">  1       -4 0.24675319E-01 0.12499908E+03</pdfrwt>
<totfact> 0.92771884E+03</totfact>
</mgrwt>
</event>
<event>
 5    1  0.3267085E-002  0.1249963E+03  0.7818608E-02  0.1235075E+00
         -4   -1    0    0    0  501 -0.00000000000E+00  0.00000000000E+00  0.32112882598E+02  0.32137985761E+02  0.12700000000E+01 0.  1.
          4   -1    0    0  501    0  0.00000000000E+00 -0.00000000000E+00 -0.12155808130E+03  0.12156471540E+03  0.12700000000E+01 0.  1.
         25    2    1    2    0    0  0.00000000000E+00  0.00000000000E+00 -0.89445198706E+02  0.15370270116E+03  0.12499630704E+03 0.  0.
    9000005    1    3    3    0    0  0.19592147416E+02  0.23919054388E+02 -0.11149931820E+03  0.11571115487E+03  0.10000000000E+01 0.  0.
    9000005    1    3    3    0    0 -0.19592147416E+02 -0.23919054388E+02  0.22054119489E+02  0.37991546291E+02  0.10000000000E+01 0.  0.
<mgrwt>
<rscale>  0 0.12499631E+03</rscale>
<asrwt>0</asrwt>
<pdfrwt beam="2">  1        4 0.18703684E-01 0.12499631E+03</pdfrwt>
<pdfrwt beam="1">  1       -4 0.49428849E-02 0.12499631E+03</pdfrwt>
<totfact> 0.98578864E+03</totfact>
</mgrwt>
</event>
<event>
 5    1  0.3267085E-002  0.1250135E+03  0.7818608E-02  0.1235048E+00
          4   -1    0    0  501    0  0.00000000000E+00  0.00000000000E+00  0.36565975360E+02  0.36588023369E+02  0.12700000000E+01 0. -1.
         -4   -1    0    0    0  501 -0.00000000000E+00 -0.00000000000E+00 -0.10679255306E+03  0.10680010435E+03  0.12700000000E+01 0. -1.
         25    2    1    2    0    0  0.00000000000E+00  0.00000000000E+00 -0.70226577702E+02  0.14338812772E+03  0.12501353109E+03 0.  0.
    9000005    1    3    3    0    0 -0.29217121927E+02 -0.14955179662E+02  0.25890547810E+02  0.41816480942E+02  0.10000000000E+01 0.  0.
    9000005    1    3    3    0    0  0.29217121927E+02  0.14955179662E+02 -0.96117125512E+02  0.10157164678E+03  0.10000000000E+01 0.  0.
<mgrwt>
<rscale>  0 0.12501353E+03</rscale>
<asrwt>0</asrwt>
<pdfrwt beam="1">  1        4 0.56278116E-02 0.12501353E+03</pdfrwt>
<pdfrwt beam="2">  1       -4 0.16431900E-01 0.12501353E+03</pdfrwt>
<totfact> 0.10060775E+04</totfact>
</mgrwt>
</event>
<event>
 5    1  0.3267085E-002  0.1249990E+03  0.7818608E-02  0.1235071E+00
          4   -1    0    0  501    0  0.00000000000E+00  0.00000000000E+00  0.40402173761E+02  0.40422129393E+02  0.12700000000E+01 0.  1.
         -4   -1    0    0    0  501 -0.00000000000E+00 -0.00000000000E+00 -0.96634653887E+02  0.96642998876E+02  0.12700000000E+01 0.  1.
         25    2    1    2    0    0  0.00000000000E+00  0.00000000000E+00 -0.56232480125E+02  0.13706512827E+03  0.12499903026E+03 0.  0.
    9000005    1    3    3    0    0 -0.14128018090E+02 -0.14166210504E+02  0.36800780769E+02  0.41899640576E+02  0.10000000000E+01 0.  0.
    9000005    1    3    3    0    0  0.14128018090E+02  0.14166210504E+02 -0.93033260894E+02  0.95165487693E+02  0.10000000000E+01 0.  0.
<mgrwt>
<rscale>  0 0.12499903E+03</rscale>
<asrwt>0</asrwt>
<pdfrwt beam="1">  1        4 0.62178961E-02 0.12499903E+03</pdfrwt>
<pdfrwt beam="2">  1       -4 0.14869047E-01 0.12499903E+03</pdfrwt>
<totfact> 0.10194947E+04</totfact>
</mgrwt>
</event>
<event>
 5    1  0.3267085E-002  0.1249977E+03  0.7818608E-02  0.1235073E+00
         -4   -1    0    0    0  501 -0.00000000000E+00  0.00000000000E+00  0.24794990455E+03  0.24795315700E+03  0.12700000000E+01 0.  1.
          4   -1    0    0  501    0  0.00000000000E+00 -0.00000000000E+00 -0.15724653464E+02  0.15775855810E+02  0.12700000000E+01 0.  1.
         25    2    1    2    0    0  0.00000000000E+00  0.00000000000E+00  0.23222525109E+03  0.26372901281E+03  0.12499769980E+03 0.  0.
    9000005    1    3    3    0    0  0.34152536409E+02 -0.20338686694E+02  0.21784797456E+03  0.22144705448E+03  0.10000000000E+01 0.  0.
    9000005    1    3    3    0    0 -0.34152536409E+02  0.20338686694E+02  0.14377276526E+02  0.42281958326E+02  0.10000000000E+01 0.  0.
<mgrwt>
<rscale>  0 0.12499770E+03</rscale>
<asrwt>0</asrwt>
<pdfrwt beam="2">  1        4 0.24233664E-02 0.12499770E+03</pdfrwt>
<pdfrwt beam="1">  1       -4 0.38150327E-01 0.12499770E+03</pdfrwt>
<totfact> 0.80389693E+03</totfact>
</mgrwt>
</event>
<event>
 5    1  0.3267085E-002  0.1249993E+03  0.7818608E-02  0.1235070E+00
          4   -1    0    0  501    0  0.00000000000E+00  0.00000000000E+00  0.17869627826E+03  0.17870079116E+03  0.12700000000E+01 0.  1.
         -4   -1    0    0    0  501 -0.00000000000E+00 -0.00000000000E+00 -0.21836247154E+02  0.21873147687E+02  0.12700000000E+01 0.  1.
         25    2    1    2    0    0  0.00000000000E+00  0.00000000000E+00  0.15686003110E+03  0.20057393885E+03  0.12499934235E+03 0.  0.
    9000005    1    3    3    0    0  0.27014663669E+02 -0.42451595687E+02  0.13789292346E+03  0.14679028704E+03  0.10000000000E+01 0.  0.
    9000005    1    3    3    0    0 -0.27014663669E+02  0.42451595687E+02  0.18967107641E+02  0.53783651808E+02  0.10000000000E+01 0.  0.
<mgrwt>
<rscale>  0 0.12499934E+03</rscale>
<asrwt>0</asrwt>
<pdfrwt beam="1">  1        4 0.27494921E-01 0.12499934E+03</pdfrwt>
<pdfrwt beam="2">  1       -4 0.33626083E-02 0.12499934E+03</pdfrwt>
<totfact> 0.90040122E+03</totfact>
</mgrwt>
</event>
<event>
 5    1  0.3267085E-002  0.1249782E+03  0.7818608E-02  0.1235103E+00
          4   -1    0    0  501    0  0.00000000000E+00  0.00000000000E+00  0.11462054211E+02  0.11532197828E+02  0.12700000000E+01 0. -1.
         -4   -1    0    0    0  501 -0.00000000000E+00 -0.00000000000E+00 -0.33956879729E+03  0.33957117220E+03  0.12700000000E+01 0. -1.
         25    2    1    2    0    0  0.00000000000E+00  0.00000000000E+00 -0.32810674308E+03  0.35110337003E+03  0.12497816447E+03 0.  0.
    9000005    1    3    3    0    0  0.48494185365E+02  0.67439150322E+01 -0.27310119148E+03  0.27745707270E+03  0.10000000000E+01 0.  0.
    9000005    1    3    3    0    0 -0.48494185365E+02 -0.67439150322E+01 -0.55005551600E+02  0.73646297334E+02  0.10000000000E+01 0.  0.
<mgrwt>
<rscale>  0 0.12497816E+03</rscale>
<asrwt>0</asrwt>
<pdfrwt beam="1">  1        4 0.17689716E-02 0.12497816E+03</pdfrwt>
<pdfrwt beam="2">  1       -4 0.52246924E-01 0.12497816E+03</pdfrwt>
<totfact> 0.69636988E+03</totfact>
</mgrwt>
</event>
<event>
 5    1  0.3267085E-002  0.1250033E+03  0.7818608E-02  0.1235064E+00
          4   -1    0    0  501    0  0.00000000000E+00  0.00000000000E+00  0.33471909365E+02  0.33495994038E+02  0.12700000000E+01 0.  1.
         -4   -1    0    0    0  501 -0.00000000000E+00 -0.00000000000E+00 -0.11663896156E+03  0.11664587543E+03  0.12700000000E+01 0.  1.
         25    2    1    2    0    0  0.00000000000E+00  0.00000000000E+00 -0.83167052198E+02  0.15014186947E+03  0.12500328954E+03 0.  0.
    9000005    1    3    3    0    0  0.39420635611E+02  0.17831003847E+02 -0.95746820268E+02  0.10507323542E+03  0.10000000000E+01 0.  0.
    9000005    1    3    3    0    0 -0.39420635611E+02 -0.17831003847E+02  0.12579768070E+02  0.45068634047E+02  0.10000000000E+01 0.  0.
<mgrwt>
<rscale>  0 0.12500329E+03</rscale>
<asrwt>0</asrwt>
<pdfrwt beam="1">  1        4 0.51519091E-02 0.12500329E+03</pdfrwt>
<pdfrwt beam="2">  1       -4 0.17946840E-01 0.12500329E+03</pdfrwt>
<totfact> 0.99268077E+03</totfact>
</mgrwt>
</event>
<event>
 5    1  0.3267085E-002  0.1249991E+03  0.7818608E-02  0.1235071E+00
          4   -1    0    0  501    0  0.00000000000E+00  0.00000000000E+00  0.23582010650E+02  0.23616183568E+02  0.12700000000E+01 0.  1.
         -4   -1    0    0    0  501 -0.00000000000E+00 -0.00000000000E+00 -0.16548632250E+03  0.16549119564E+03  0.12700000000E+01 0.  1.
         25    2    1    2    0    0  0.00000000000E+00  0.00000000000E+00 -0.14190431185E+03  0.18910737921E+03  0.12499906859E+03 0.  0.
    9000005    1    3    3    0    0 -0.37132868317E+02  0.19719749889E+01  0.50302877778E+01  0.37537213402E+02  0.10000000000E+01 0.  0.
    9000005    1    3    3    0    0  0.37132868317E+02 -0.19719749889E+01 -0.14693459963E+03  0.15157016581E+03  0.10000000000E+01 0.  0.
<mgrwt>
<rscale>  0 0.12499907E+03</rscale>
<asrwt>0</asrwt>
<pdfrwt beam="1">  1        4 0.36310053E-02 0.12499907E+03</pdfrwt>
<pdfrwt beam="2">  1       -4 0.25462437E-01 0.12499907E+03</pdfrwt>
<totfact> 0.92004780E+03</totfact>
</mgrwt>
</event>
<event>
 5    1  0.3267085E-002  0.1249980E+03  0.7818608E-02  0.1235072E+00
          4   -1    0    0  501    0  0.00000000000E+00  0.00000000000E+00  0.23885365398E+03  0.23885703029E+03  0.12700000000E+01 0. -1.
         -4   -1    0    0    0  501 -0.00000000000E+00 -0.00000000000E+00 -0.16325472669E+02  0.16374796422E+02  0.12700000000E+01 0. -1.
         25    2    1    2    0    0  0.00000000000E+00  0.00000000000E+00  0.22252818131E+03  0.25523182672E+03  0.12499797554E+03 0.  0.
    9000005    1    3    3    0    0 -0.26896579558E+02 -0.42097286445E+02  0.34604437931E+02  0.60778899649E+02  0.10000000000E+01 0.  0.
    9000005    1    3    3    0    0  0.26896579558E+02  0.42097286445E+02  0.18792374338E+03  0.19445292707E+03  0.10000000000E+01 0.  0.
<mgrwt>
<rscale>  0 0.12499798E+03</rscale>
<asrwt>0</asrwt>
<pdfrwt beam="1">  1        4 0.36750773E-01 0.12499798E+03</pdfrwt>
<pdfrwt beam="2">  1       -4 0.25156648E-02 0.12499798E+03</pdfrwt>
<totfact> 0.81583572E+03</totfact>
</mgrwt>
</event>
<event>
 5    1  0.3267085E-002  0.1249985E+03  0.7818608E-02  0.1235072E+00
         -4   -1    0    0    0  501 -0.00000000000E+00  0.00000000000E+00  0.16262540333E+02  0.16312054380E+02  0.12700000000E+01 0. -1.
          4   -1    0    0  501    0  0.00000000000E+00 -0.00000000000E+00 -0.23977701024E+03  0.23978037355E+03  0.12700000000E+01 0. -1.
         25    2    1    2    0    0  0.00000000000E+00  0.00000000000E+00 -0.22351446991E+03  0.25609242793E+03  0.12499845353E+03 0.  0.
    9000005    1    3    3    0    0  0.12506576015E+02 -0.46806200655E+02 -0.19262295584E+03  0.19862486747E+03  0.10000000000E+01 0.  0.
    9000005    1    3    3    0    0 -0.12506576015E+02  0.46806200655E+02 -0.30891514070E+02  0.57467560457E+02  0.10000000000E+01 0.  0.
<mgrwt>
<rscale>  0 0.12499845E+03</rscale>
<asrwt>0</asrwt>
<pdfrwt beam="2">  1        4 0.36892836E-01 0.12499845E+03</pdfrwt>
<pdfrwt beam="1">  1       -4 0.25059969E-02 0.12499845E+03</pdfrwt>
<totfact> 0.81460386E+03</totfact>
</mgrwt>
</event>
<event>
 5    1  0.3267085E-002  0.1250054E+03  0.7818608E-02  0.1235061E+00
          4   -1    0    0  501    0  0.00000000000E+00  0.00000000000E+00  0.14298629100E+02  0.14354918814E+02  0.12700000000E+01 0.  1.
         -4   -1    0    0    0  501 -0.00000000000E+00 -0.00000000000E+00 -0.27261966334E+03  0.27262262148E+03  0.12700000000E+01 0.  1.
         25    2    1    2    0    0  0.00000000000E+00  0.00000000000E+00 -0.25832103424E+03  0.28697754029E+03  0.12500540748E+03 0.  0.
    9000005    1    3    3    0    0  0.70365494355E+01  0.61953617588E+02 -0.11946827375E+03  0.13476435802E+03  0.10000000000E+01 0.  0.
    9000005    1    3    3    0    0 -0.70365494355E+01 -0.61953617588E+02 -0.13885276049E+03  0.15221318227E+03  0.10000000000E+01 0.  0.
<mgrwt>
<rscale>  0 0.12500541E+03</rscale>
<asrwt>0</asrwt>
<pdfrwt beam="1">  1        4 0.22043468E-02 0.12500541E+03</pdfrwt>
<pdfrwt beam="2">  1       -4 0.41946040E-01 0.12500541E+03</pdfrwt>
<totfact> 0.77252658E+03</totfact>
</mgrwt>
</event>
<event>
 5    1  0.3267085E-002  0.1249992E+03  0.7818608E-02  0.1235070E+00
          4   -1    0    0  501    0  0.00000000000E+00  0.00000000000E+00  0.52404890383E+01  0.53921818738E+01  0.12700000000E+01 0. -1.
         -4   -1    0    0    0  501 -0.00000000000E+00 -0.00000000000E+00 -0.73460242234E+03  0.73460352014E+03  0.12700000000E+01 0. -1.
         25    2    1    2    0    0  0.00000000000E+00  0.00000000000E+00 -0.72936193330E+03  0.73999570202E+03  0.12499923702E+03 0.  0.
    9000005    1    3    3    0    0  0.52777277312E+02  0.27926976354E+02 -0.47381556952E+03  0.47756418514E+03  0.10000000000E+01 0.  0.
    9000005    1    3    3    0    0 -0.52777277312E+02 -0.27926976354E+02 -0.25554636378E+03  0.26243151688E+03  0.10000000000E+01 0.  0.
<mgrwt>
<rscale>  0 0.12499924E+03</rscale>
<asrwt>0</asrwt>
<pdfrwt beam="1">  1        4 0.81798279E-03 0.12499924E+03</pdfrwt>
<pdfrwt beam="2">  1       -4 0.11302743E+00 0.12499924E+03</pdfrwt>
<totfact> 0.41057984E+03</totfact>
</mgrwt>
</event>
<event>
 5    1  0.3267085E-002  0.1250004E+03  0.7818608E-02  0.1235069E+00
         -4   -1    0    0    0  501 -0.00000000000E+00  0.00000000000E+00  0.10124584529E+02  0.10203926297E+02  0.12700000000E+01 0. -1.
          4   -1    0    0  501    0  0.00000000000E+00 -0.00000000000E+00 -0.38423441147E+03  0.38423651031E+03  0.12700000000E+01 0. -1.
         25    2    1    2    0    0  0.00000000000E+00  0.00000000000E+00 -0.37410982694E+03  0.39444043661E+03  0.12500038168E+03 0.  0.
    9000005    1    3    3    0    0  0.17636697256E+02  0.39371881528E+02 -0.32972028787E+03  0.33253220352E+03  0.10000000000E+01 0.  0.
    9000005    1    3    3    0    0 -0.17636697256E+02 -0.39371881528E+02 -0.44389539067E+02  0.61908233085E+02  0.10000000000E+01 0.  0.
<mgrwt>
<rscale>  0 0.12500038E+03</rscale>
<asrwt>0</asrwt>
<pdfrwt beam="2">  1        4 0.59119240E-01 0.12500038E+03</pdfrwt>
<pdfrwt beam="1">  1       -4 0.15638933E-02 0.12500038E+03</pdfrwt>
<totfact> 0.65096577E+03</totfact>
</mgrwt>
</event>
<event>
 5    1  0.3267085E-002  0.1249976E+03  0.7818608E-02  0.1235073E+00
         -4   -1    0    0    0  501 -0.00000000000E+00  0.00000000000E+00  0.35911552092E+01  0.38091069474E+01  0.12700000000E+01 0.  1.
          4   -1    0    0  501    0  0.00000000000E+00 -0.00000000000E+00 -0.10554469269E+04  0.10554476910E+04  0.12700000000E+01 0.  1.
         25    2    1    2    0    0  0.00000000000E+00  0.00000000000E+00 -0.10518557717E+04  0.10592567980E+04  0.12499759807E+03 0.  0.
    9000005    1    3    3    0    0  0.46778939220E+01  0.22433072542E+02 -0.10185980932E+04  0.10188563200E+04  0.10000000000E+01 0.  0.
    9000005    1    3    3    0    0 -0.46778939220E+01 -0.22433072542E+02 -0.33257678548E+02  0.40400477938E+02  0.10000000000E+01 0.  0.
<mgrwt>
<rscale>  0 0.12499760E+03</rscale>
<asrwt>0</asrwt>
<pdfrwt beam="2">  1        4 0.16239303E+00 0.12499760E+03</pdfrwt>
<pdfrwt beam="1">  1       -4 0.56931055E-03 0.12499760E+03</pdfrwt>
<totfact> 0.28709039E+03</totfact>
</mgrwt>
</event>
<event>
 5    1  0.3267085E-002  0.1250058E+03  0.7818608E-02  0.1235060E+00
         -4   -1    0    0    0  501 -0.00000000000E+00  0.00000000000E+00  0.13343171406E+03  0.13343775784E+03  0.12700000000E+01 0.  1.
          4   -1    0    0  501    0  0.00000000000E+00 -0.00000000000E+00 -0.29257514391E+02  0.29285065278E+02  0.12700000000E+01 0.  1.
         25    2    1    2    0    0  0.00000000000E+00  0.00000000000E+00  0.10417419967E+03  0.16272282312E+03  0.12500581301E+03 0.  0.
    9000005    1    3    3    0    0  0.17690815398E+02 -0.55271587087E+02  0.82271899158E+02  0.10068554355E+03  0.10000000000E+01 0.  0.
    9000005    1    3    3    0    0 -0.17690815398E+02  0.55271587087E+02  0.21902300511E+02  0.62037279568E+02  0.10000000000E+01 0.  0.
<mgrwt>
<rscale>  0 0.12500581E+03</rscale>
<asrwt>0</asrwt>
<pdfrwt beam="2">  1        4 0.45037403E-02 0.12500581E+03</pdfrwt>
<pdfrwt beam="1">  1       -4 0.20530540E-01 0.12500581E+03</pdfrwt>
<totfact> 0.96807754E+03</totfact>
</mgrwt>
</event>
<event>
 5    1  0.3267085E-002  0.1250057E+03  0.7818608E-02  0.1235060E+00
          4   -1    0    0  501    0  0.00000000000E+00  0.00000000000E+00  0.24439513517E+03  0.24439843492E+03  0.12700000000E+01 0.  1.
         -4   -1    0    0    0  501 -0.00000000000E+00 -0.00000000000E+00 -0.15956168341E+02  0.16006630130E+02  0.12700000000E+01 0.  1.
         25    2    1    2    0    0  0.00000000000E+00  0.00000000000E+00  0.22843896683E+03  0.26040506505E+03  0.12500574523E+03 0.  0.
    9000005    1    3    3    0    0  0.59313155589E+02 -0.19626016761E+02  0.11743193678E+03  0.13302064026E+03  0.10000000000E+01 0.  0.
    9000005    1    3    3    0    0 -0.59313155589E+02  0.19626016761E+02  0.11100703005E+03  0.12738442479E+03  0.10000000000E+01 0.  0.
<mgrwt>
<rscale>  0 0.12500575E+03</rscale>
<asrwt>0</asrwt>
<pdfrwt beam="1">  1        4 0.37603384E-01 0.12500575E+03</pdfrwt>
<pdfrwt beam="2">  1       -4 0.24589308E-02 0.12500575E+03</pdfrwt>
<totfact> 0.80838912E+03</totfact>
</mgrwt>
</event>
<event>
 5    1  0.3267085E-002  0.1249999E+03  0.7818608E-02  0.1235069E+00
          4   -1    0    0  501    0  0.00000000000E+00  0.00000000000E+00  0.54084123780E+02  0.54099032755E+02  0.12700000000E+01 0. -1.
         -4   -1    0    0    0  501 -0.00000000000E+00 -0.00000000000E+00 -0.72194911812E+02  0.72206081403E+02  0.12700000000E+01 0. -1.
         25    2    1    2    0    0  0.00000000000E+00  0.00000000000E+00 -0.18110788032E+02  0.12630511416E+03  0.12499992488E+03 0.  0.
    9000005    1    3    3    0    0  0.60075585376E+02 -0.11528425225E+02 -0.21966320514E+02  0.65003844374E+02  0.10000000000E+01 0.  0.
    9000005    1    3    3    0    0 -0.60075585376E+02  0.11528425225E+02  0.38555324823E+01  0.61301269784E+02  0.10000000000E+01 0.  0.
<mgrwt>
<rscale>  0 0.12499992E+03</rscale>
<asrwt>0</asrwt>
<pdfrwt beam="1">  1        4 0.83226405E-02 0.12499992E+03</pdfrwt>
<pdfrwt beam="2">  1       -4 0.11108916E-01 0.12499992E+03</pdfrwt>
<totfact> 0.10424299E+04</totfact>
</mgrwt>
</event>
<event>
 5    1  0.3267085E-002  0.1250009E+03  0.7818608E-02  0.1235068E+00
          4   -1    0    0  501    0  0.00000000000E+00  0.00000000000E+00  0.46245736289E+03  0.46245910672E+03  0.12700000000E+01 0.  1.
         -4   -1    0    0    0  501 -0.00000000000E+00 -0.00000000000E+00 -0.83973384255E+01  0.84928318383E+01  0.12700000000E+01 0.  1.
         25    2    1    2    0    0  0.00000000000E+00  0.00000000000E+00  0.45406002446E+03  0.47095193856E+03  0.12500089047E+03 0.  0.
    9000005    1    3    3    0    0 -0.14262756752E+02 -0.32910641660E+02  0.34227767834E+02  0.49589077986E+02  0.10000000000E+01 0.  0.
    9000005    1    3    3    0    0  0.14262756752E+02  0.32910641660E+02  0.41983225663E+03  0.42136286057E+03  0.10000000000E+01 0.  0.
<mgrwt>
<rscale>  0 0.12500089E+03</rscale>
<asrwt>0</asrwt>
<pdfrwt beam="1">  1        4 0.71154762E-01 0.12500089E+03</pdfrwt>
<pdfrwt beam="2">  1       -4 0.12993781E-02 0.12500089E+03</pdfrwt>
<totfact> 0.58189606E+03</totfact>
</mgrwt>
</event>
<event>
 5    1  0.3267085E-002  0.1250071E+03  0.7818608E-02  0.1235058E+00
          4   -1    0    0  501    0  0.00000000000E+00  0.00000000000E+00  0.15864456376E+02  0.15915208956E+02  0.12700000000E+01 0.  1.
         -4   -1    0    0    0  501 -0.00000000000E+00 -0.00000000000E+00 -0.24580883744E+03  0.24581211821E+03  0.12700000000E+01 0.  1.
         25    2    1    2    0    0  0.00000000000E+00  0.00000000000E+00 -0.22994438106E+03  0.26172732717E+03  0.12500710143E+03 0.  0.
    9000005    1    3    3    0    0 -0.39698045894E+02  0.47475760986E+02 -0.96742434798E+02  0.11484764438E+03  0.10000000000E+01 0.  0.
    9000005    1    3    3    0    0  0.39698045894E+02 -0.47475760986E+02 -0.13320194626E+03  0.14687968279E+03  0.10000000000E+01 0.  0.
<mgrwt>
<rscale>  0 0.12500710E+03</rscale>
<asrwt>0</asrwt>
<pdfrwt beam="1">  1        4 0.24448422E-02 0.12500710E+03</pdfrwt>
<pdfrwt beam="2">  1       -4 0.37820898E-01 0.12500710E+03</pdfrwt>
<totfact> 0.80651517E+03</totfact>
</mgrwt>
</event>
<event>
 5    1  0.3267085E-002  0.1249963E+03  0.7818608E-02  0.1235075E+00
         -4   -1    0    0    0  501 -0.00000000000E+00  0.00000000000E+00  0.34489498251E+03  0.34489732075E+03  0.12700000000E+01 0.  1.
          4   -1    0    0  501    0  0.00000000000E+00 -0.00000000000E+00 -0.11287248349E+02  0.11358471521E+02  0.12700000000E+01 0.  1.
         25    2    1    2    0    0  0.00000000000E+00  0.00000000000E+00  0.33360773416E+03  0.35625579227E+03  0.12499627689E+03 0.  0.
    9000005    1    3    3    0    0 -0.55493060734E+02  0.83955658657E+01  0.24512036987E+03  0.25146562596E+03  0.10000000000E+01 0.  0.
    9000005    1    3    3    0    0  0.55493060734E+02 -0.83955658657E+01  0.88487364294E+02  0.10479016631E+03  0.10000000000E+01 0.  0.
<mgrwt>
<rscale>  0 0.12499628E+03</rscale>
<asrwt>0</asrwt>
<pdfrwt beam="2">  1        4 0.17421582E-02 0.12499628E+03</pdfrwt>
<pdfrwt beam="1">  1       -4 0.53066428E-01 0.12499628E+03</pdfrwt>
<totfact> 0.69047465E+03</totfact>
</mgrwt>
</event>
<event>
 5    1  0.3267085E-002  0.1249990E+03  0.7818608E-02  0.1235071E+00
         -4   -1    0    0    0  501 -0.00000000000E+00  0.00000000000E+00  0.31512372703E+02  0.31537953855E+02  0.12700000000E+01 0. -1.
          4   -1    0    0  501    0  0.00000000000E+00 -0.00000000000E+00 -0.12387817257E+03  0.12388468243E+03  0.12700000000E+01 0. -1.
         25    2    1    2    0    0  0.00000000000E+00  0.00000000000E+00 -0.92365799871E+02  0.15542263628E+03  0.12499901953E+03 0.  0.
    9000005    1    3    3    0    0  0.57977558773E+02  0.22438938506E+02 -0.54074802438E+02  0.82401380700E+02  0.10000000000E+01 0.  0.
    9000005    1    3    3    0    0 -0.57977558773E+02 -0.22438938506E+02 -0.38290997433E+02  0.73021255583E+02  0.10000000000E+01 0.  0.
<mgrwt>
<rscale>  0 0.12499902E+03</rscale>
<asrwt>0</asrwt>
<pdfrwt beam="2">  1        4 0.19060649E-01 0.12499902E+03</pdfrwt>
<pdfrwt beam="1">  1       -4 0.48505260E-02 0.12499902E+03</pdfrwt>
<totfact> 0.98234760E+03</totfact>
</mgrwt>
</event>
<event>
 5    1  0.3267085E-002  0.1249998E+03  0.7818608E-02  0.1235070E+00
         -4   -1    0    0    0  501 -0.00000000000E+00  0.00000000000E+00  0.18022705917E+02  0.18067396840E+02  0.12700000000E+01 0. -1.
          4   -1    0    0  501    0  0.00000000000E+00 -0.00000000000E+00 -0.21642495964E+03  0.21642868584E+03  0.12700000000E+01 0. -1.
         25    2    1    2    0    0  0.00000000000E+00  0.00000000000E+00 -0.19840225372E+03  0.23449608268E+03  0.12499983404E+03 0.  0.
    9000005    1    3    3    0    0 -0.45267241264E+02 -0.41960197684E+02 -0.11752988405E+03  0.13275562123E+03  0.10000000000E+01 0.  0.
    9000005    1    3    3    0    0  0.45267241264E+02  0.41960197684E+02 -0.80872369669E+02  0.10174046146E+03  0.10000000000E+01 0.  0.
<mgrwt>
<rscale>  0 0.12499983E+03</rscale>
<asrwt>0</asrwt>
<pdfrwt beam="2">  1        4 0.33299870E-01 0.12499983E+03</pdfrwt>
<pdfrwt beam="1">  1       -4 0.27764485E-02 0.12499983E+03</pdfrwt>
<totfact> 0.84624281E+03</totfact>
</mgrwt>
</event>
<event>
 5    1  0.3267085E-002  0.1249984E+03  0.7818608E-02  0.1235072E+00
          4   -1    0    0  501    0  0.00000000000E+00  0.00000000000E+00  0.12601834078E+03  0.12602474008E+03  0.12700000000E+01 0.  1.
         -4   -1    0    0    0  501 -0.00000000000E+00 -0.00000000000E+00 -0.30976481740E+02  0.31002505076E+02  0.12700000000E+01 0.  1.
         25    2    1    2    0    0  0.00000000000E+00  0.00000000000E+00  0.95041859036E+02  0.15702724515E+03  0.12499840300E+03 0.  0.
    9000005    1    3    3    0    0 -0.21587482326E+02  0.24156684608E+02  0.11465115754E+03  0.11914467143E+03  0.10000000000E+01 0.  0.
    9000005    1    3    3    0    0  0.21587482326E+02 -0.24156684608E+02 -0.19609298503E+02  0.37882573727E+02  0.10000000000E+01 0.  0.
<mgrwt>
<rscale>  0 0.12499840E+03</rscale>
<asrwt>0</asrwt>
<pdfrwt beam="1">  1        4 0.19389931E-01 0.12499840E+03</pdfrwt>
<pdfrwt beam="2">  1       -4 0.47681066E-02 0.12499840E+03</pdfrwt>
<totfact> 0.97922505E+03</totfact>
</mgrwt>
</event>
<event>
 5    1  0.3267085E-002  0.1250004E+03  0.7818608E-02  0.1235069E+00
         -4   -1    0    0    0  501 -0.00000000000E+00  0.00000000000E+00  0.18177629009E+03  0.18178072653E+03  0.12700000000E+01 0. -1.
          4   -1    0    0  501    0  0.00000000000E+00 -0.00000000000E+00 -0.21465988522E+02  0.21503524437E+02  0.12700000000E+01 0. -1.
         25    2    1    2    0    0  0.00000000000E+00  0.00000000000E+00  0.16031030157E+03  0.20328425097E+03  0.12500037561E+03 0.  0.
    9000005    1    3    3    0    0 -0.20275753387E+02 -0.10328084489E+01 -0.15961352537E+02  0.25844489616E+02  0.10000000000E+01 0.  0.
    9000005    1    3    3    0    0  0.20275753387E+02  0.10328084489E+01  0.17627165410E+03  0.17743976135E+03  0.10000000000E+01 0.  0.
<mgrwt>
<rscale>  0 0.12500038E+03</rscale>
<asrwt>0</asrwt>
<pdfrwt beam="2">  1        4 0.33056885E-02 0.12500038E+03</pdfrwt>
<pdfrwt beam="1">  1       -4 0.27968811E-01 0.12500038E+03</pdfrwt>
<totfact> 0.89583780E+03</totfact>
</mgrwt>
</event>
<event>
 5    1  0.3267085E-002  0.1249969E+03  0.7818608E-02  0.1235074E+00
         -4   -1    0    0    0  501 -0.00000000000E+00  0.00000000000E+00  0.46869019220E+02  0.46886222525E+02  0.12700000000E+01 0.  1.
          4   -1    0    0  501    0  0.00000000000E+00 -0.00000000000E+00 -0.83302499200E+02  0.83312179619E+02  0.12700000000E+01 0.  1.
         25    2    1    2    0    0  0.00000000000E+00  0.00000000000E+00 -0.36433479980E+02  0.13019840214E+03  0.12499690179E+03 0.  0.
    9000005    1    3    3    0    0 -0.25634247958E+01 -0.62327838069E+02 -0.22075746795E+02  0.66179068757E+02  0.10000000000E+01 0.  0.
    9000005    1    3    3    0    0  0.25634247958E+01  0.62327838069E+02 -0.14357733185E+02  0.64019333387E+02  0.10000000000E+01 0.  0.
<mgrwt>
<rscale>  0 0.12499690E+03</rscale>
<asrwt>0</asrwt>
<pdfrwt beam="2">  1        4 0.12817837E-01 0.12499690E+03</pdfrwt>
<pdfrwt beam="1">  1       -4 0.72126863E-02 0.12499690E+03</pdfrwt>
<totfact> 0.10340988E+04</totfact>
</mgrwt>
</event>
<event>
 5    1  0.3267085E-002  0.1249992E+03  0.7818608E-02  0.1235071E+00
          4   -1    0    0  501    0  0.00000000000E+00  0.00000000000E+00  0.28067392629E+02  0.28096110567E+02  0.12700000000E+01 0. -1.
         -4   -1    0    0    0  501 -0.00000000000E+00 -0.00000000000E+00 -0.13906936540E+03  0.13907516419E+03  0.12700000000E+01 0. -1.
         25    2    1    2    0    0  0.00000000000E+00  0.00000000000E+00 -0.11100197278E+03  0.16717127476E+03  0.12499918857E+03 0.  0.
    9000005    1    3    3    0    0  0.40603657293E+02  0.13049862907E+01 -0.11900662084E+03  0.12575347224E+03  0.10000000000E+01 0.  0.
    9000005    1    3    3    0    0 -0.40603657293E+02 -0.13049862907E+01  0.80046480675E+01  0.41417802519E+02  0.10000000000E+01 0.  0.
<mgrwt>
<rscale>  0 0.12499919E+03</rscale>
<asrwt>0</asrwt>
<pdfrwt beam="1">  1        4 0.43207156E-02 0.12499919E+03</pdfrwt>
<pdfrwt beam="2">  1       -4 0.21397942E-01 0.12499919E+03</pdfrwt>
<totfact> 0.95979510E+03</totfact>
</mgrwt>
</event>
<event>
 5    1  0.3267085E-002  0.1250077E+03  0.7818608E-02  0.1235057E+00
          4   -1    0    0  501    0  0.00000000000E+00  0.00000000000E+00  0.12207373761E+02  0.12273258497E+02  0.12700000000E+01 0. -1.
         -4   -1    0    0    0  501 -0.00000000000E+00 -0.00000000000E+00 -0.31910190122E+03  0.31910442846E+03  0.12700000000E+01 0. -1.
         25    2    1    2    0    0  0.00000000000E+00  0.00000000000E+00 -0.30689452746E+03  0.33137768696E+03  0.12500768148E+03 0.  0.
    9000005    1    3    3    0    0  0.15849293572E+02 -0.35533174666E+02 -0.23800940548E+02  0.45621172492E+02  0.10000000000E+01 0.  0.
    9000005    1    3    3    0    0 -0.15849293572E+02  0.35533174666E+02 -0.28309358691E+03  0.28575651446E+03  0.10000000000E+01 0.  0.
<mgrwt>
<rscale>  0 0.12500768E+03</rscale>
<asrwt>0</asrwt>
<pdfrwt beam="1">  1        4 0.18833202E-02 0.12500768E+03</pdfrwt>
<pdfrwt beam="2">  1       -4 0.49097856E-01 0.12500768E+03</pdfrwt>
<totfact> 0.71810809E+03</totfact>
</mgrwt>
</event>
<event>
 5    1  0.3267085E-002  0.1249994E+03  0.7818608E-02  0.1235070E+00
         -4   -1    0    0    0  501 -0.00000000000E+00  0.00000000000E+00  0.35530130139E+04  0.35530132409E+04  0.12700000000E+01 0.  1.
          4   -1    0    0  501    0  0.00000000000E+00 -0.00000000000E+00 -0.73233965716E+00  0.14660222964E+01  0.12700000000E+01 0.  1.
         25    2    1    2    0    0  0.00000000000E+00  0.00000000000E+00  0.35522806742E+04  0.35544792632E+04  0.12499937490E+03 0.  0.
    9000005    1    3    3    0    0  0.76355081703E+01  0.52014823851E+01  0.18655626030E+02  0.20841995744E+02  0.10000000000E+01 0.  0.
    9000005    1    3    3    0    0 -0.76355081703E+01 -0.52014823851E+01  0.35336250482E+04  0.35336372674E+04  0.10000000000E+01 0.  0.
<mgrwt>
<rscale>  0 0.12499937E+03</rscale>
<asrwt>0</asrwt>
<pdfrwt beam="2">  1        4 0.16912361E-03 0.12499937E+03</pdfrwt>
<pdfrwt beam="1">  1       -4 0.54666937E+00 0.12499937E+03</pdfrwt>
<totfact> 0.50411466E+01</totfact>
</mgrwt>
</event>
<event>
 5    1  0.3267085E-002  0.1250017E+03  0.7818608E-02  0.1235067E+00
         -4   -1    0    0    0  501 -0.00000000000E+00  0.00000000000E+00  0.90458380675E+02  0.90467295385E+02  0.12700000000E+01 0. -1.
          4   -1    0    0  501    0  0.00000000000E+00 -0.00000000000E+00 -0.43163615024E+02  0.43182294543E+02  0.12700000000E+01 0. -1.
         25    2    1    2    0    0  0.00000000000E+00  0.00000000000E+00  0.47294765650E+02  0.13364958993E+03  0.12500167211E+03 0.  0.
    9000005    1    3    3    0    0  0.26945037379E+02 -0.52804323491E+02  0.25050503534E+01  0.59343128465E+02  0.10000000000E+01 0.  0.
    9000005    1    3    3    0    0 -0.26945037379E+02  0.52804323491E+02  0.44789715297E+02  0.74306461463E+02  0.10000000000E+01 0.  0.
<mgrwt>
<rscale>  0 0.12500167E+03</rscale>
<asrwt>0</asrwt>
<pdfrwt beam="2">  1        4 0.66426789E-02 0.12500167E+03</pdfrwt>
<pdfrwt beam="1">  1       -4 0.13918796E-01 0.12500167E+03</pdfrwt>
<totfact> 0.10266226E+04</totfact>
</mgrwt>
</event>
<event>
 5    1  0.3267085E-002  0.1250043E+03  0.7818608E-02  0.1235063E+00
         -4   -1    0    0    0  501 -0.00000000000E+00  0.00000000000E+00  0.54113983289E+03  0.54114132317E+03  0.12700000000E+01 0. -1.
          4   -1    0    0  501    0  0.00000000000E+00 -0.00000000000E+00 -0.71616869538E+01  0.72734214799E+01  0.12700000000E+01 0. -1.
         25    2    1    2    0    0  0.00000000000E+00  0.00000000000E+00  0.53397814594E+03  0.54841474465E+03  0.12500428717E+03 0.  0.
    9000005    1    3    3    0    0  0.13440338447E+02 -0.45444500156E+02  0.88259904515E+02  0.10018311253E+03  0.10000000000E+01 0.  0.
    9000005    1    3    3    0    0 -0.13440338447E+02  0.45444500156E+02  0.44571824142E+03  0.44823163211E+03  0.10000000000E+01 0.  0.
<mgrwt>
<rscale>  0 0.12500429E+03</rscale>
<asrwt>0</asrwt>
<pdfrwt beam="2">  1        4 0.11105076E-02 0.12500429E+03</pdfrwt>
<pdfrwt beam="1">  1       -4 0.83260989E-01 0.12500429E+03</pdfrwt>
<totfact> 0.52289679E+03</totfact>
</mgrwt>
</event>
<event>
 5    1  0.3267085E-002  0.1249980E+03  0.7818608E-02  0.1235072E+00
          4   -1    0    0  501    0  0.00000000000E+00  0.00000000000E+00  0.46260160714E+02  0.46277590358E+02  0.12700000000E+01 0.  1.
         -4   -1    0    0    0  501 -0.00000000000E+00 -0.00000000000E+00 -0.84400126450E+02  0.84409680990E+02  0.12700000000E+01 0.  1.
         25    2    1    2    0    0  0.00000000000E+00  0.00000000000E+00 -0.38139965736E+02  0.13068727135E+03  0.12499802361E+03 0.  0.
    9000005    1    3    3    0    0 -0.20371582457E+02 -0.29183890205E+02 -0.72773480901E+02  0.81016543630E+02  0.10000000000E+01 0.  0.
    9000005    1    3    3    0    0  0.20371582457E+02  0.29183890205E+02  0.34633515165E+02  0.49670727718E+02  0.10000000000E+01 0.  0.
<mgrwt>
<rscale>  0 0.12499802E+03</rscale>
<asrwt>0</asrwt>
<pdfrwt beam="1">  1        4 0.71190235E-02 0.12499802E+03</pdfrwt>
<pdfrwt beam="2">  1       -4 0.12986711E-01 0.12499802E+03</pdfrwt>
<totfact> 0.10330259E+04</totfact>
</mgrwt>
</event>
<event>
 5    1  0.3267085E-002  0.1249942E+03  0.7818608E-02  0.1235078E+00
         -4   -1    0    0    0  501 -0.00000000000E+00  0.00000000000E+00  0.46617455114E+03  0.46617628107E+03  0.12700000000E+01 0. -1.
          4   -1    0    0  501    0  0.00000000000E+00 -0.00000000000E+00 -0.83287163546E+01  0.84249876033E+01  0.12700000000E+01 0. -1.
         25    2    1    2    0    0  0.00000000000E+00  0.00000000000E+00  0.45784583478E+03  0.47460126867E+03  0.12499422304E+03 0.  0.
    9000005    1    3    3    0    0 -0.50082511080E+02  0.30511348795E+02  0.14698465132E+03  0.15825513592E+03  0.10000000000E+01 0.  0.
    9000005    1    3    3    0    0  0.50082511080E+02 -0.30511348795E+02  0.31086118346E+03  0.31634613275E+03  0.10000000000E+01 0.  0.
<mgrwt>
<rscale>  0 0.12499422E+03</rscale>
<asrwt>0</asrwt>
<pdfrwt beam="2">  1        4 0.12888794E-02 0.12499422E+03</pdfrwt>
<pdfrwt beam="1">  1       -4 0.71726709E-01 0.12499422E+03</pdfrwt>
<totfact> 0.57897645E+03</totfact>
</mgrwt>
</event>
<event>
 5    1  0.3267085E-002  0.1250031E+03  0.7818608E-02  0.1235064E+00
         -4   -1    0    0    0  501 -0.00000000000E+00  0.00000000000E+00  0.10455597060E+02  0.10532445579E+02  0.12700000000E+01 0.  1.
          4   -1    0    0  501    0  0.00000000000E+00 -0.00000000000E+00 -0.37217627096E+03  0.37217843780E+03  0.12700000000E+01 0.  1.
         25    2    1    2    0    0  0.00000000000E+00  0.00000000000E+00 -0.36172067390E+03  0.38271088338E+03  0.12500309729E+03 0.  0.
    9000005    1    3    3    0    0  0.49499347148E+01  0.13204769892E+02  0.55356168341E+01  0.15182583947E+02  0.10000000000E+01 0.  0.
    9000005    1    3    3    0    0 -0.49499347148E+01 -0.13204769892E+02 -0.36725629073E+03  0.36752829943E+03  0.10000000000E+01 0.  0.
<mgrwt>
<rscale>  0 0.12500310E+03</rscale>
<asrwt>0</asrwt>
<pdfrwt beam="2">  1        4 0.57263956E-01 0.12500310E+03</pdfrwt>
<pdfrwt beam="1">  1       -4 0.16146318E-02 0.12500310E+03</pdfrwt>
<totfact> 0.66265245E+03</totfact>
</mgrwt>
</event>
<event>
 5    1  0.3267085E-002  0.1250072E+03  0.7818608E-02  0.1235058E+00
         -4   -1    0    0    0  501 -0.00000000000E+00  0.00000000000E+00  0.15374697343E+03  0.15375221865E+03  0.12700000000E+01 0.  1.
          4   -1    0    0  501    0  0.00000000000E+00 -0.00000000000E+00 -0.25388387171E+02  0.25420131848E+02  0.12700000000E+01 0.  1.
         25    2    1    2    0    0  0.00000000000E+00  0.00000000000E+00  0.12835858626E+03  0.17917235049E+03  0.12500721785E+03 0.  0.
    9000005    1    3    3    0    0  0.40882477701E+02 -0.71021133326E+01 -0.28015635423E+01  0.41601271075E+02  0.10000000000E+01 0.  0.
    9000005    1    3    3    0    0 -0.40882477701E+02  0.71021133326E+01  0.13116014980E+03  0.13757107942E+03  0.10000000000E+01 0.  0.
<mgrwt>
<rscale>  0 0.12500722E+03</rscale>
<asrwt>0</asrwt>
<pdfrwt beam="2">  1        4 0.39087512E-02 0.12500722E+03</pdfrwt>
<pdfrwt beam="1">  1       -4 0.23656225E-01 0.12500722E+03</pdfrwt>
<totfact> 0.93751021E+03</totfact>
</mgrwt>
</event>
<event>
 5    1  0.3267085E-002  0.1250005E+03  0.7818608E-02  0.1235068E+00
          4   -1    0    0  501    0  0.00000000000E+00  0.00000000000E+00  0.28670846127E+02  0.28698960219E+02  0.12700000000E+01 0. -1.
         -4   -1    0    0    0  501 -0.00000000000E+00 -0.00000000000E+00 -0.13614791765E+03  0.13615384086E+03  0.12700000000E+01 0. -1.
         25    2    1    2    0    0  0.00000000000E+00  0.00000000000E+00 -0.10747707153E+03  0.16485280108E+03  0.12500050048E+03 0.  0.
    9000005    1    3    3    0    0 -0.16203681087E+01  0.61756096944E+02 -0.41308016019E+02  0.74322226083E+02  0.10000000000E+01 0.  0.
    9000005    1    3    3    0    0  0.16203681087E+01 -0.61756096944E+02 -0.66169055508E+02  0.90530574997E+02  0.10000000000E+01 0.  0.
<mgrwt>
<rscale>  0 0.12500050E+03</rscale>
<asrwt>0</asrwt>
<pdfrwt beam="1">  1        4 0.44135177E-02 0.12500050E+03</pdfrwt>
<pdfrwt beam="2">  1       -4 0.20948451E-01 0.12500050E+03</pdfrwt>
<totfact> 0.96414193E+03</totfact>
</mgrwt>
</event>
<event>
 5    1  0.3267085E-002  0.1250078E+03  0.7818608E-02  0.1235057E+00
         -4   -1    0    0    0  501 -0.00000000000E+00  0.00000000000E+00  0.23434293499E+03  0.23434637628E+03  0.12700000000E+01 0.  1.
          4   -1    0    0  501    0  0.00000000000E+00 -0.00000000000E+00 -0.16643265359E+02  0.16691650063E+02  0.12700000000E+01 0.  1.
         25    2    1    2    0    0  0.00000000000E+00  0.00000000000E+00  0.21769966963E+03  0.25103802635E+03  0.12500777783E+03 0.  0.
    9000005    1    3    3    0    0  0.44436665276E+02 -0.33593865488E+02  0.16574092262E+03  0.17485484967E+03  0.10000000000E+01 0.  0.
    9000005    1    3    3    0    0 -0.44436665276E+02  0.33593865488E+02  0.51958747003E+02  0.76183176682E+02  0.10000000000E+01 0.  0.
<mgrwt>
<rscale>  0 0.12500778E+03</rscale>
<asrwt>0</asrwt>
<pdfrwt beam="2">  1        4 0.25644891E-02 0.12500778E+03</pdfrwt>
<pdfrwt beam="1">  1       -4 0.36056744E-01 0.12500778E+03</pdfrwt>
<totfact> 0.82166197E+03</totfact>
</mgrwt>
</event>
<event>
 5    1  0.3267085E-002  0.1249989E+03  0.7818608E-02  0.1235071E+00
         -4   -1    0    0    0  501 -0.00000000000E+00  0.00000000000E+00  0.25237076801E+03  0.25237396349E+03  0.12700000000E+01 0.  1.
          4   -1    0    0  501    0  0.00000000000E+00 -0.00000000000E+00 -0.15448594888E+02  0.15500709145E+02  0.12700000000E+01 0.  1.
         25    2    1    2    0    0  0.00000000000E+00  0.00000000000E+00  0.23692217312E+03  0.26787467263E+03  0.12499889648E+03 0.  0.
    9000005    1    3    3    0    0 -0.22767324327E+02 -0.14211914492E+02 -0.24789415561E+01  0.26971739317E+02  0.10000000000E+01 0.  0.
    9000005    1    3    3    0    0  0.22767324327E+02  0.14211914492E+02  0.23940111468E+03  0.24090293331E+03  0.10000000000E+01 0.  0.
<mgrwt>
<rscale>  0 0.12499890E+03</rscale>
<asrwt>0</asrwt>
<pdfrwt beam="2">  1        4 0.23809618E-02 0.12499890E+03</pdfrwt>
<pdfrwt beam="1">  1       -4 0.38830521E-01 0.12499890E+03</pdfrwt>
<totfact> 0.79815470E+03</totfact>
</mgrwt>
</event>
<event>
 5    1  0.3267085E-002  0.1249526E+03  0.7818608E-02  0.1235143E+00
         -4   -1    0    0    0  501 -0.00000000000E+00  0.00000000000E+00  0.93903586182E+02  0.93912173853E+02  0.12700000000E+01 0.  1.
          4   -1    0    0  501    0  0.00000000000E+00 -0.00000000000E+00 -0.41546767382E+02  0.41566173506E+02  0.12700000000E+01 0.  1.
         25    2    1    2    0    0  0.00000000000E+00  0.00000000000E+00  0.52356818799E+02  0.13547834736E+03  0.12495257552E+03 0.  0.
    9000005    1    3    3    0    0 -0.58277248348E+02  0.15029421208E+02  0.80302789191E+01  0.60725666373E+02  0.10000000000E+01 0.  0.
    9000005    1    3    3    0    0  0.58277248348E+02 -0.15029421208E+02  0.44326539880E+02  0.74752680986E+02  0.10000000000E+01 0.  0.
<mgrwt>
<rscale>  0 0.12495258E+03</rscale>
<asrwt>0</asrwt>
<pdfrwt beam="2">  1        4 0.63939637E-02 0.12495258E+03</pdfrwt>
<pdfrwt beam="1">  1       -4 0.14448859E-01 0.12495258E+03</pdfrwt>
<totfact> 0.10238945E+04</totfact>
</mgrwt>
</event>
<event>
 5    1  0.3267085E-002  0.1250121E+03  0.7818608E-02  0.1235050E+00
          4   -1    0    0  501    0  0.00000000000E+00  0.00000000000E+00  0.61749655333E+02  0.61762713944E+02  0.12700000000E+01 0.  1.
         -4   -1    0    0    0  501 -0.00000000000E+00 -0.00000000000E+00 -0.63245584098E+02  0.63258333901E+02  0.12700000000E+01 0.  1.
         25    2    1    2    0    0  0.00000000000E+00  0.00000000000E+00 -0.14959287657E+01  0.12502104784E+03  0.12501209782E+03 0.  0.
    9000005    1    3    3    0    0 -0.45577075488E+01 -0.28900089599E+02  0.54482960022E+02  0.61849662971E+02  0.10000000000E+01 0.  0.
    9000005    1    3    3    0    0  0.45577075488E+01  0.28900089599E+02 -0.55978888787E+02  0.63171384873E+02  0.10000000000E+01 0.  0.
<mgrwt>
<rscale>  0 0.12501210E+03</rscale>
<asrwt>0</asrwt>
<pdfrwt beam="1">  1        4 0.95019323E-02 0.12501210E+03</pdfrwt>
<pdfrwt beam="2">  1       -4 0.97320751E-02 0.12501210E+03</pdfrwt>
<totfact> 0.10449548E+04</totfact>
</mgrwt>
</event>
<event>
 5    1  0.3267085E-002  0.1250580E+03  0.7818608E-02  0.1234979E+00
          4   -1    0    0  501    0  0.00000000000E+00  0.00000000000E+00  0.24343757542E+03  0.24344088816E+03  0.12700000000E+01 0.  1.
         -4   -1    0    0    0  501 -0.00000000000E+00 -0.00000000000E+00 -0.16032566704E+02  0.16082788785E+02  0.12700000000E+01 0.  1.
         25    2    1    2    0    0  0.00000000000E+00  0.00000000000E+00  0.22740500872E+03  0.25952367694E+03  0.12505799017E+03 0.  0.
    9000005    1    3    3    0    0 -0.27219445706E+02 -0.72736887467E+01  0.22952674929E+03  0.23125166683E+03  0.10000000000E+01 0.  0.
    9000005    1    3    3    0    0  0.27219445706E+02  0.72736887467E+01 -0.21217405751E+01  0.28272010109E+02  0.10000000000E+01 0.  0.
<mgrwt>
<rscale>  0 0.12505799E+03</rscale>
<asrwt>0</asrwt>
<pdfrwt beam="1">  1        4 0.37456053E-01 0.12505799E+03</pdfrwt>
<pdfrwt beam="2">  1       -4 0.24706668E-02 0.12505799E+03</pdfrwt>
<totfact> 0.80868512E+03</totfact>
</mgrwt>
</event>
<event>
 5    1  0.3267085E-002  0.1250007E+03  0.7818608E-02  0.1235068E+00
          4   -1    0    0  501    0  0.00000000000E+00  0.00000000000E+00  0.19272569426E+03  0.19272987866E+03  0.12700000000E+01 0. -1.
         -4   -1    0    0    0  501 -0.00000000000E+00 -0.00000000000E+00 -0.20244377041E+02  0.20284173678E+02  0.12700000000E+01 0. -1.
         25    2    1    2    0    0  0.00000000000E+00  0.00000000000E+00  0.17248131722E+03  0.21301405234E+03  0.12500072681E+03 0.  0.
    9000005    1    3    3    0    0 -0.59863653824E+02  0.11053674022E+02  0.11030742919E+03  0.12599432405E+03  0.10000000000E+01 0.  0.
    9000005    1    3    3    0    0  0.59863653824E+02 -0.11053674022E+02  0.62173888033E+02  0.87019728290E+02  0.10000000000E+01 0.  0.
<mgrwt>
<rscale>  0 0.12500073E+03</rscale>
<asrwt>0</asrwt>
<pdfrwt beam="1">  1        4 0.29653490E-01 0.12500073E+03</pdfrwt>
<pdfrwt beam="2">  1       -4 0.31179027E-02 0.12500073E+03</pdfrwt>
<totfact> 0.87984571E+03</totfact>
</mgrwt>
</event>
<event>
 5    1  0.3267085E-002  0.1250034E+03  0.7818608E-02  0.1235064E+00
         -4   -1    0    0    0  501 -0.00000000000E+00  0.00000000000E+00  0.10929192840E+02  0.11002734030E+02  0.12700000000E+01 0. -1.
          4   -1    0    0  501    0  0.00000000000E+00 -0.00000000000E+00 -0.35616029393E+03  0.35616255821E+03  0.12700000000E+01 0. -1.
         25    2    1    2    0    0  0.00000000000E+00  0.00000000000E+00 -0.34523110109E+03  0.36716529224E+03  0.12500335463E+03 0.  0.
    9000005    1    3    3    0    0  0.51868172071E+02 -0.28458067806E+02 -0.11348344961E+03  0.12798305447E+03  0.10000000000E+01 0.  0.
    9000005    1    3    3    0    0 -0.51868172071E+02  0.28458067806E+02 -0.23174765148E+03  0.23918223777E+03  0.10000000000E+01 0.  0.
<mgrwt>
<rscale>  0 0.12500335E+03</rscale>
<asrwt>0</asrwt>
<pdfrwt beam="2">  1        4 0.54799714E-01 0.12500335E+03</pdfrwt>
<pdfrwt beam="1">  1       -4 0.16872458E-02 0.12500335E+03</pdfrwt>
<totfact> 0.67871516E+03</totfact>
</mgrwt>
</event>
<event>
 5    1  0.3267085E-002  0.1250015E+03  0.7818608E-02  0.1235067E+00
         -4   -1    0    0    0  501 -0.00000000000E+00  0.00000000000E+00  0.92607366262E+02  0.92616074123E+02  0.12700000000E+01 0.  1.
          4   -1    0    0  501    0  0.00000000000E+00 -0.00000000000E+00 -0.42161536789E+02  0.42180660076E+02  0.12700000000E+01 0.  1.
         25    2    1    2    0    0  0.00000000000E+00  0.00000000000E+00  0.50445829472E+02  0.13479673420E+03  0.12500151135E+03 0.  0.
    9000005    1    3    3    0    0 -0.85890431560E+01  0.21303533630E+02 -0.37449541660E+02  0.43944059644E+02  0.10000000000E+01 0.  0.
    9000005    1    3    3    0    0  0.85890431560E+01 -0.21303533630E+02  0.87895371132E+02  0.90852674555E+02  0.10000000000E+01 0.  0.
<mgrwt>
<rscale>  0 0.12500151E+03</rscale>
<asrwt>0</asrwt>
<pdfrwt beam="2">  1        4 0.64885312E-02 0.12500151E+03</pdfrwt>
<pdfrwt beam="1">  1       -4 0.14249428E-01 0.12500151E+03</pdfrwt>
<totfact> 0.10242008E+04</totfact>
</mgrwt>
</event>
<event>
 5    1  0.3267085E-002  0.1250004E+03  0.7818608E-02  0.1235069E+00
         -4   -1    0    0    0  501 -0.00000000000E+00  0.00000000000E+00  0.18371262504E+03  0.18371701473E+03  0.12700000000E+01 0.  1.
          4   -1    0    0  501    0  0.00000000000E+00 -0.00000000000E+00 -0.21239344424E+02  0.21277280173E+02  0.12700000000E+01 0.  1.
         25    2    1    2    0    0  0.00000000000E+00  0.00000000000E+00  0.16247328062E+03  0.20499429490E+03  0.12500037611E+03 0.  0.
    9000005    1    3    3    0    0 -0.41177578583E+02  0.46612936145E+02  0.91200559595E+02  0.11039429725E+03  0.10000000000E+01 0.  0.
    9000005    1    3    3    0    0  0.41177578583E+02 -0.46612936145E+02  0.71272721024E+02  0.94599997654E+02  0.10000000000E+01 0.  0.
<mgrwt>
<rscale>  0 0.12500038E+03</rscale>
<asrwt>0</asrwt>
<pdfrwt beam="2">  1        4 0.32708471E-02 0.12500038E+03</pdfrwt>
<pdfrwt beam="1">  1       -4 0.28266738E-01 0.12500038E+03</pdfrwt>
<totfact> 0.89299206E+03</totfact>
</mgrwt>
</event>
<event>
 5    1  0.3267085E-002  0.1250029E+03  0.7818608E-02  0.1235065E+00
          4   -1    0    0  501    0  0.00000000000E+00  0.00000000000E+00  0.83006791312E+02  0.83016506213E+02  0.12700000000E+01 0.  1.
         -4   -1    0    0    0  501 -0.00000000000E+00 -0.00000000000E+00 -0.47040523701E+02  0.47057664307E+02  0.12700000000E+01 0.  1.
         25    2    1    2    0    0  0.00000000000E+00  0.00000000000E+00  0.35966267611E+02  0.13007417052E+03  0.12500286969E+03 0.  0.
    9000005    1    3    3    0    0 -0.12312154520E+02  0.29826335484E+02 -0.37706584416E+02  0.49638553017E+02  0.10000000000E+01 0.  0.
    9000005    1    3    3    0    0  0.12312154520E+02 -0.29826335484E+02  0.73672852027E+02  0.80435617503E+02  0.10000000000E+01 0.  0.
<mgrwt>
<rscale>  0 0.12500287E+03</rscale>
<asrwt>0</asrwt>
<pdfrwt beam="1">  1        4 0.12772341E-01 0.12500287E+03</pdfrwt>
<pdfrwt beam="2">  1       -4 0.72390695E-02 0.12500287E+03</pdfrwt>
<totfact> 0.10342251E+04</totfact>
</mgrwt>
</event>
<event>
 5    1  0.3267085E-002  0.1249980E+03  0.7818608E-02  0.1235072E+00
          4   -1    0    0  501    0  0.00000000000E+00  0.00000000000E+00  0.36502132740E+02  0.36524219287E+02  0.12700000000E+01 0.  1.
         -4   -1    0    0    0  501 -0.00000000000E+00 -0.00000000000E+00 -0.10695258258E+03  0.10696012257E+03  0.12700000000E+01 0.  1.
         25    2    1    2    0    0  0.00000000000E+00  0.00000000000E+00 -0.70450449838E+02  0.14348434186E+03  0.12499796189E+03 0.  0.
    9000005    1    3    3    0    0 -0.55665063860E+02  0.27207362021E+02 -0.25879741043E+02  0.67153561924E+02  0.10000000000E+01 0.  0.
    9000005    1    3    3    0    0  0.55665063860E+02 -0.27207362021E+02 -0.44570708795E+02  0.76330779933E+02  0.10000000000E+01 0.  0.
<mgrwt>
<rscale>  0 0.12499796E+03</rscale>
<asrwt>0</asrwt>
<pdfrwt beam="1">  1        4 0.56179917E-02 0.12499796E+03</pdfrwt>
<pdfrwt beam="2">  1       -4 0.16456522E-01 0.12499796E+03</pdfrwt>
<totfact> 0.10062336E+04</totfact>
</mgrwt>
</event>
<event>
 5    1  0.3267085E-002  0.1250043E+03  0.7818608E-02  0.1235063E+00
          4   -1    0    0  501    0  0.00000000000E+00  0.00000000000E+00  0.56326086671E+02  0.56340402374E+02  0.12700000000E+01 0.  1.
         -4   -1    0    0    0  501 -0.00000000000E+00 -0.00000000000E+00 -0.69326459469E+02  0.69338091137E+02  0.12700000000E+01 0.  1.
         25    2    1    2    0    0  0.00000000000E+00  0.00000000000E+00 -0.13000372798E+02  0.12567849351E+03  0.12500429608E+03 0.  0.
    9000005    1    3    3    0    0  0.92840943755E+01 -0.41422235869E+02  0.39611351387E+02  0.58069399786E+02  0.10000000000E+01 0.  0.
    9000005    1    3    3    0    0 -0.92840943755E+01  0.41422235869E+02 -0.52611724185E+02  0.67609093726E+02  0.10000000000E+01 0.  0.
<mgrwt>
<rscale>  0 0.12500430E+03</rscale>
<asrwt>0</asrwt>
<pdfrwt beam="1">  1        4 0.86675477E-02 0.12500430E+03</pdfrwt>
<pdfrwt beam="2">  1       -4 0.10667605E-01 0.12500430E+03</pdfrwt>
<totfact> 0.10437006E+04</totfact>
</mgrwt>
</event>
<event>
 5    1  0.3267085E-002  0.1250004E+03  0.7818608E-02  0.1235069E+00
          4   -1    0    0  501    0  0.00000000000E+00  0.00000000000E+00  0.11674625400E+02  0.11743499404E+02  0.12700000000E+01 0.  1.
         -4   -1    0    0    0  501 -0.00000000000E+00 -0.00000000000E+00 -0.33354118434E+03  0.33354360217E+03  0.12700000000E+01 0.  1.
         25    2    1    2    0    0  0.00000000000E+00  0.00000000000E+00 -0.32186655894E+03  0.34528710157E+03  0.12500040301E+03 0.  0.
    9000005    1    3    3    0    0  0.27626013014E+01 -0.56741153179E+02 -0.89003134880E+02  0.10559236927E+03  0.10000000000E+01 0.  0.
    9000005    1    3    3    0    0 -0.27626013014E+01  0.56741153179E+02 -0.23286342406E+03  0.23969473230E+03  0.10000000000E+01 0.  0.
<mgrwt>
<rscale>  0 0.12500040E+03</rscale>
<asrwt>0</asrwt>
<pdfrwt beam="1">  1        4 0.18015804E-02 0.12500040E+03</pdfrwt>
<pdfrwt beam="2">  1       -4 0.51319505E-01 0.12500040E+03</pdfrwt>
<totfact> 0.70245539E+03</totfact>
</mgrwt>
</event>
<event>
 5    1  0.3267085E-002  0.1250035E+03  0.7818608E-02  0.1235064E+00
         -4   -1    0    0    0  501 -0.00000000000E+00  0.00000000000E+00  0.10379105847E+04  0.10379113617E+04  0.12700000000E+01 0. -1.
          4   -1    0    0  501    0  0.00000000000E+00 -0.00000000000E+00 -0.36558493888E+01  0.38701595256E+01  0.12700000000E+01 0. -1.
         25    2    1    2    0    0  0.00000000000E+00  0.00000000000E+00  0.10342547353E+04  0.10417815212E+04  0.12500352171E+03 0.  0.
    9000005    1    3    3    0    0  0.19649388481E+02 -0.44589815204E+02  0.84323354018E+03  0.84464084283E+03  0.10000000000E+01 0.  0.
    9000005    1    3    3    0    0 -0.19649388481E+02  0.44589815204E+02  0.19102119515E+03  0.19714067841E+03  0.10000000000E+01 0.  0.
<mgrwt>
<rscale>  0 0.12500352E+03</rscale>
<asrwt>0</asrwt>
<pdfrwt beam="2">  1        4 0.57898230E-03 0.12500352E+03</pdfrwt>
<pdfrwt beam="1">  1       -4 0.15969544E+00 0.12500352E+03</pdfrwt>
<totfact> 0.29250457E+03</totfact>
</mgrwt>
</event>
<event>
 5    1  0.3267085E-002  0.1249968E+03  0.7818608E-02  0.1235074E+00
         -4   -1    0    0    0  501 -0.00000000000E+00  0.00000000000E+00  0.18678491215E+02  0.18721616759E+02  0.12700000000E+01 0. -1.
          4   -1    0    0  501    0  0.00000000000E+00 -0.00000000000E+00 -0.20883409681E+03  0.20883795846E+03  0.12700000000E+01 0. -1.
         25    2    1    2    0    0  0.00000000000E+00  0.00000000000E+00 -0.19015560560E+03  0.22755957521E+03  0.12499682369E+03 0.  0.
    9000005    1    3    3    0    0  0.34546420925E+02 -0.27521612515E+02 -0.17555556243E+03  0.18102941709E+03  0.10000000000E+01 0.  0.
    9000005    1    3    3    0    0 -0.34546420925E+02  0.27521612515E+02 -0.14600043171E+02  0.46530158121E+02  0.10000000000E+01 0.  0.
<mgrwt>
<rscale>  0 0.12499682E+03</rscale>
<asrwt>0</asrwt>
<pdfrwt beam="2">  1        4 0.32131935E-01 0.12499682E+03</pdfrwt>
<pdfrwt beam="1">  1       -4 0.28772286E-02 0.12499682E+03</pdfrwt>
<totfact> 0.85691815E+03</totfact>
</mgrwt>
</event>
<event>
 5    1  0.3267085E-002  0.1250021E+03  0.7818608E-02  0.1235066E+00
          4   -1    0    0  501    0  0.00000000000E+00  0.00000000000E+00  0.95155147306E+02  0.95163622035E+02  0.12700000000E+01 0.  1.
         -4   -1    0    0    0  501 -0.00000000000E+00 -0.00000000000E+00 -0.41032619472E+02  0.41052268643E+02  0.12700000000E+01 0.  1.
         25    2    1    2    0    0  0.00000000000E+00  0.00000000000E+00  0.54122527834E+02  0.13621589068E+03  0.12500208340E+03 0.  0.
    9000005    1    3    3    0    0  0.10539077915E+02  0.51458370510E+02 -0.98337801555E+01  0.53448473234E+02  0.10000000000E+01 0.  0.
    9000005    1    3    3    0    0 -0.10539077915E+02 -0.51458370510E+02  0.63956307989E+02  0.82767417445E+02  0.10000000000E+01 0.  0.
<mgrwt>
<rscale>  0 0.12500208E+03</rscale>
<asrwt>0</asrwt>
<pdfrwt beam="1">  1        4 0.14641417E-01 0.12500208E+03</pdfrwt>
<pdfrwt beam="2">  1       -4 0.63148741E-02 0.12500208E+03</pdfrwt>
<totfact> 0.10212026E+04</totfact>
</mgrwt>
</event>
<event>
 5    1  0.3267085E-002  0.1250013E+03  0.7818608E-02  0.1235067E+00
          4   -1    0    0  501    0  0.00000000000E+00  0.00000000000E+00  0.12504509539E+03  0.12505154449E+03  0.12700000000E+01 0. -1.
         -4   -1    0    0    0  501 -0.00000000000E+00 -0.00000000000E+00 -0.31219196804E+02  0.31245017989E+02  0.12700000000E+01 0. -1.
         25    2    1    2    0    0  0.00000000000E+00  0.00000000000E+00  0.93825898583E+02  0.15629656248E+03  0.12500126479E+03 0.  0.
    9000005    1    3    3    0    0 -0.41140533971E+02  0.36634021935E+02  0.10017079036E+02  0.55999437238E+02  0.10000000000E+01 0.  0.
    9000005    1    3    3    0    0  0.41140533971E+02 -0.36634021935E+02  0.83808819547E+02  0.10029712524E+03  0.10000000000E+01 0.  0.
<mgrwt>
<rscale>  0 0.12500126E+03</rscale>
<asrwt>0</asrwt>
<pdfrwt beam="1">  1        4 0.19240189E-01 0.12500126E+03</pdfrwt>
<pdfrwt beam="2">  1       -4 0.48054357E-02 0.12500126E+03</pdfrwt>
<totfact> 0.98058778E+03</totfact>
</mgrwt>
</event>
<event>
 5    1  0.3267085E-002  0.1249983E+03  0.7818608E-02  0.1235072E+00
          4   -1    0    0  501    0  0.00000000000E+00  0.00000000000E+00  0.10267452618E+03  0.10268238031E+03  0.12700000000E+01 0. -1.
         -4   -1    0    0    0  501 -0.00000000000E+00 -0.00000000000E+00 -0.38024011084E+02  0.38045214140E+02  0.12700000000E+01 0. -1.
         25    2    1    2    0    0  0.00000000000E+00  0.00000000000E+00  0.64650515097E+02  0.14072759445E+03  0.12499826694E+03 0.  0.
    9000005    1    3    3    0    0 -0.53548501151E+02  0.20972946219E+02  0.59852710341E+02  0.83009959546E+02  0.10000000000E+01 0.  0.
    9000005    1    3    3    0    0  0.53548501151E+02 -0.20972946219E+02  0.47978047559E+01  0.57717634906E+02  0.10000000000E+01 0.  0.
<mgrwt>
<rscale>  0 0.12499827E+03</rscale>
<asrwt>0</asrwt>
<pdfrwt beam="1">  1        4 0.15798316E-01 0.12499827E+03</pdfrwt>
<pdfrwt beam="2">  1       -4 0.58520830E-02 0.12499827E+03</pdfrwt>
<totfact> 0.10118923E+04</totfact>
</mgrwt>
</event>
<event>
 5    1  0.3267085E-002  0.1250014E+03  0.7818608E-02  0.1235067E+00
          4   -1    0    0  501    0  0.00000000000E+00  0.00000000000E+00  0.20819366969E+02  0.20858066569E+02  0.12700000000E+01 0.  1.
         -4   -1    0    0    0  501 -0.00000000000E+00 -0.00000000000E+00 -0.18741485138E+03  0.18741915435E+03  0.12700000000E+01 0.  1.
         25    2    1    2    0    0  0.00000000000E+00  0.00000000000E+00 -0.16659548441E+03  0.20827722092E+03  0.12500138130E+03 0.  0.
    9000005    1    3    3    0    0  0.43089183171E+02  0.43420739490E+02 -0.10458978867E+03  0.12116955978E+03  0.10000000000E+01 0.  0.
    9000005    1    3    3    0    0 -0.43089183171E+02 -0.43420739490E+02 -0.62005695745E+02  0.87107661139E+02  0.10000000000E+01 0.  0.
<mgrwt>
<rscale>  0 0.12500138E+03</rscale>
<asrwt>0</asrwt>
<pdfrwt beam="1">  1        4 0.32062875E-02 0.12500138E+03</pdfrwt>
<pdfrwt beam="2">  1       -4 0.28836361E-01 0.12500138E+03</pdfrwt>
<totfact> 0.88755267E+03</totfact>
</mgrwt>
</event>
<event>
 5    1  0.3267085E-002  0.1250004E+03  0.7818608E-02  0.1235069E+00
          4   -1    0    0  501    0  0.00000000000E+00  0.00000000000E+00  0.11234182150E+04  0.11234189328E+04  0.12700000000E+01 0.  1.
         -4   -1    0    0    0  501 -0.00000000000E+00 -0.00000000000E+00 -0.33604256457E+01  0.35924031678E+01  0.12700000000E+01 0.  1.
         25    2    1    2    0    0  0.00000000000E+00  0.00000000000E+00  0.11200577893E+04  0.11270113360E+04  0.12500040011E+03 0.  0.
    9000005    1    3    3    0    0  0.34641687859E+02  0.44613091599E+02  0.31896082524E+03  0.32392496433E+03  0.10000000000E+01 0.  0.
    9000005    1    3    3    0    0 -0.34641687859E+02 -0.44613091599E+02  0.80109696409E+03  0.80308637167E+03  0.10000000000E+01 0.  0.
<mgrwt>
<rscale>  0 0.12500040E+03</rscale>
<asrwt>0</asrwt>
<pdfrwt beam="1">  1        4 0.17285141E+00 0.12500040E+03</pdfrwt>
<pdfrwt beam="2">  1       -4 0.53488841E-03 0.12500040E+03</pdfrwt>
<totfact> 0.26705763E+03</totfact>
</mgrwt>
</event>
<event>
 5    1  0.3267085E-002  0.1250005E+03  0.7818608E-02  0.1235068E+00
         -4   -1    0    0    0  501 -0.00000000000E+00  0.00000000000E+00  0.56492534504E+01  0.57902473649E+01  0.12700000000E+01 0. -1.
          4   -1    0    0  501    0  0.00000000000E+00 -0.00000000000E+00 -0.68280493862E+03  0.68280611971E+03  0.12700000000E+01 0. -1.
         25    2    1    2    0    0  0.00000000000E+00  0.00000000000E+00 -0.67715568517E+03  0.68859636707E+03  0.12500053913E+03 0.  0.
    9000005    1    3    3    0    0 -0.43068344994E+02 -0.41709927687E+02 -0.43567617847E+03  0.43978327947E+03  0.10000000000E+01 0.  0.
    9000005    1    3    3    0    0  0.43068344994E+02  0.41709927687E+02 -0.24147950670E+03  0.24881308761E+03  0.10000000000E+01 0.  0.
<mgrwt>
<rscale>  0 0.12500054E+03</rscale>
<asrwt>0</asrwt>
<pdfrwt beam="2">  1        4 0.10505779E+00 0.12500054E+03</pdfrwt>
<pdfrwt beam="1">  1       -4 0.88005299E-03 0.12500054E+03</pdfrwt>
<totfact> 0.43695055E+03</totfact>
</mgrwt>
</event>
<event>
 5    1  0.3267085E-002  0.1250003E+03  0.7818608E-02  0.1235069E+00
         -4   -1    0    0    0  501 -0.00000000000E+00  0.00000000000E+00  0.23574981283E+02  0.23609164376E+02  0.12700000000E+01 0.  1.
          4   -1    0    0  501    0  0.00000000000E+00 -0.00000000000E+00 -0.16553879238E+03  0.16554366397E+03  0.12700000000E+01 0.  1.
         25    2    1    2    0    0  0.00000000000E+00  0.00000000000E+00 -0.14196381109E+03  0.18915282835E+03  0.12500027525E+03 0.  0.
    9000005    1    3    3    0    0 -0.42349365796E+02 -0.42322596228E+02 -0.43887408003E+02  0.74241332936E+02  0.10000000000E+01 0.  0.
    9000005    1    3    3    0    0  0.42349365796E+02  0.42322596228E+02 -0.98076403089E+02  0.11491149541E+03  0.10000000000E+01 0.  0.
<mgrwt>
<rscale>  0 0.12500028E+03</rscale>
<asrwt>0</asrwt>
<pdfrwt beam="2">  1        4 0.25470510E-01 0.12500028E+03</pdfrwt>
<pdfrwt beam="1">  1       -4 0.36299245E-02 0.12500028E+03</pdfrwt>
<totfact> 0.91994362E+03</totfact>
</mgrwt>
</event>
<event>
 5    1  0.3267085E-002  0.1249981E+03  0.7818608E-02  0.1235072E+00
          4   -1    0    0  501    0  0.00000000000E+00  0.00000000000E+00  0.20993748272E+02  0.21032127009E+02  0.12700000000E+01 0. -1.
         -4   -1    0    0    0  501 -0.00000000000E+00 -0.00000000000E+00 -0.18585130909E+03  0.18585564826E+03  0.12700000000E+01 0. -1.
         25    2    1    2    0    0  0.00000000000E+00  0.00000000000E+00 -0.16485756082E+03  0.20688777527E+03  0.12499814477E+03 0.  0.
    9000005    1    3    3    0    0  0.55362388206E+02  0.28211378586E+02 -0.71417753109E+02  0.94669801778E+02  0.10000000000E+01 0.  0.
    9000005    1    3    3    0    0 -0.55362388206E+02 -0.28211378586E+02 -0.93439807707E+02  0.11221797349E+03  0.10000000000E+01 0.  0.
<mgrwt>
<rscale>  0 0.12499814E+03</rscale>
<asrwt>0</asrwt>
<pdfrwt beam="1">  1        4 0.32330935E-02 0.12499814E+03</pdfrwt>
<pdfrwt beam="2">  1       -4 0.28595794E-01 0.12499814E+03</pdfrwt>
<totfact> 0.88990376E+03</totfact>
</mgrwt>
</event>
<event>
 5    1  0.3267085E-002  0.1250002E+03  0.7818608E-02  0.1235069E+00
          4   -1    0    0  501    0  0.00000000000E+00  0.00000000000E+00  0.18446494676E+04  0.18446499048E+04  0.12700000000E+01 0.  1.
         -4   -1    0    0    0  501 -0.00000000000E+00 -0.00000000000E+00 -0.19267248004E+01  0.23076326520E+01  0.12700000000E+01 0.  1.
         25    2    1    2    0    0  0.00000000000E+00  0.00000000000E+00  0.18427227428E+04  0.18469575375E+04  0.12500015303E+03 0.  0.
    9000005    1    3    3    0    0 -0.38384017233E+02 -0.34089067197E+02  0.14478932595E+04  0.14488033988E+04  0.10000000000E+01 0.  0.
    9000005    1    3    3    0    0  0.38384017233E+02  0.34089067197E+02  0.39482948332E+03  0.39815413872E+03  0.10000000000E+01 0.  0.
<mgrwt>
<rscale>  0 0.12500015E+03</rscale>
<asrwt>0</asrwt>
<pdfrwt beam="1">  1        4 0.28382093E+00 0.12500015E+03</pdfrwt>
<pdfrwt beam="2">  1       -4 0.32575415E-03 0.12500015E+03</pdfrwt>
<totfact> 0.11993823E+03</totfact>
</mgrwt>
</event>
<event>
 5    1  0.3267085E-002  0.1249994E+03  0.7818608E-02  0.1235070E+00
          4   -1    0    0  501    0  0.00000000000E+00  0.00000000000E+00  0.54911284375E+02  0.54925968829E+02  0.12700000000E+01 0. -1.
         -4   -1    0    0    0  501 -0.00000000000E+00 -0.00000000000E+00 -0.71106951483E+02  0.71118291946E+02  0.12700000000E+01 0. -1.
         25    2    1    2    0    0  0.00000000000E+00  0.00000000000E+00 -0.16195667108E+02  0.12604426077E+03  0.12499942416E+03 0.  0.
    9000005    1    3    3    0    0 -0.41503536780E+02 -0.47956892293E+01  0.38762884918E+02  0.57000907428E+02  0.10000000000E+01 0.  0.
    9000005    1    3    3    0    0  0.41503536780E+02  0.47956892293E+01 -0.54958552026E+02  0.69043353346E+02  0.10000000000E+01 0.  0.
<mgrwt>
<rscale>  0 0.12499942E+03</rscale>
<asrwt>0</asrwt>
<pdfrwt beam="1">  1        4 0.84498918E-02 0.12499942E+03</pdfrwt>
<pdfrwt beam="2">  1       -4 0.10941533E-01 0.12499942E+03</pdfrwt>
<totfact> 0.10430123E+04</totfact>
</mgrwt>
</event>
<event>
 5    1  0.3267085E-002  0.1249958E+03  0.7818608E-02  0.1235076E+00
          4   -1    0    0  501    0  0.00000000000E+00  0.00000000000E+00  0.63520052235E+01  0.64777210776E+01  0.12700000000E+01 0. -1.
         -4   -1    0    0    0  501 -0.00000000000E+00 -0.00000000000E+00 -0.60877032192E+03  0.60877164664E+03  0.12700000000E+01 0. -1.
         25    2    1    2    0    0  0.00000000000E+00  0.00000000000E+00 -0.60241831670E+03  0.61524936772E+03  0.12499582466E+03 0.  0.
    9000005    1    3    3    0    0 -0.44148542394E+02 -0.93398671327E+01 -0.88433931440E+02  0.99286893110E+02  0.10000000000E+01 0.  0.
    9000005    1    3    3    0    0  0.44148542394E+02  0.93398671327E+01 -0.51398438526E+03  0.51596247461E+03  0.10000000000E+01 0.  0.
<mgrwt>
<rscale>  0 0.12499582E+03</rscale>
<asrwt>0</asrwt>
<pdfrwt beam="1">  1        4 0.98700440E-03 0.12499582E+03</pdfrwt>
<pdfrwt beam="2">  1       -4 0.93666700E-01 0.12499582E+03</pdfrwt>
<totfact> 0.47923364E+03</totfact>
</mgrwt>
</event>
<event>
 5    1  0.3267085E-002  0.1250012E+03  0.7818608E-02  0.1235067E+00
         -4   -1    0    0    0  501 -0.00000000000E+00  0.00000000000E+00  0.83404822046E+02  0.83414490591E+02  0.12700000000E+01 0.  1.
          4   -1    0    0  501    0  0.00000000000E+00 -0.00000000000E+00 -0.46814729884E+02  0.46831953131E+02  0.12700000000E+01 0.  1.
         25    2    1    2    0    0  0.00000000000E+00  0.00000000000E+00  0.36590092162E+02  0.13024644372E+03  0.12500120503E+03 0.  0.
    9000005    1    3    3    0    0  0.60240162157E+02  0.71046142504E+01  0.26318783590E+01  0.60722973116E+02  0.10000000000E+01 0.  0.
    9000005    1    3    3    0    0 -0.60240162157E+02 -0.71046142504E+01  0.33958213803E+02  0.69523470606E+02  0.10000000000E+01 0.  0.
<mgrwt>
<rscale>  0 0.12500121E+03</rscale>
<asrwt>0</asrwt>
<pdfrwt beam="2">  1        4 0.72043347E-02 0.12500121E+03</pdfrwt>
<pdfrwt beam="1">  1       -4 0.12833580E-01 0.12500121E+03</pdfrwt>
<totfact> 0.10338957E+04</totfact>
</mgrwt>
</event>
<event>
 5    1  0.3267085E-002  0.1249789E+03  0.7818608E-02  0.1235102E+00
         -4   -1    0    0    0  501 -0.00000000000E+00  0.00000000000E+00  0.17569539659E+03  0.17569998658E+03  0.12700000000E+01 0. -1.
          4   -1    0    0  501    0  0.00000000000E+00 -0.00000000000E+00 -0.22202539544E+02  0.22238832303E+02  0.12700000000E+01 0. -1.
         25    2    1    2    0    0  0.00000000000E+00  0.00000000000E+00  0.15349285705E+03  0.19793881888E+03  0.12497887364E+03 0.  0.
    9000005    1    3    3    0    0 -0.43437932873E+02  0.86117406239E+01  0.14655698744E+03  0.15310443056E+03  0.10000000000E+01 0.  0.
    9000005    1    3    3    0    0  0.43437932873E+02 -0.86117406239E+01  0.69358696046E+01  0.44834388320E+02  0.10000000000E+01 0.  0.
<mgrwt>
<rscale>  0 0.12497887E+03</rscale>
<asrwt>0</asrwt>
<pdfrwt beam="2">  1        4 0.34189202E-02 0.12497887E+03</pdfrwt>
<pdfrwt beam="1">  1       -4 0.27033205E-01 0.12497887E+03</pdfrwt>
<totfact> 0.90526840E+03</totfact>
</mgrwt>
</event>
<event>
 5    1  0.3267085E-002  0.1249997E+03  0.7818608E-02  0.1235070E+00
         -4   -1    0    0    0  501 -0.00000000000E+00  0.00000000000E+00  0.63759674806E+02  0.63772321828E+02  0.12700000000E+01 0.  1.
          4   -1    0    0  501    0  0.00000000000E+00 -0.00000000000E+00 -0.61239594143E+02  0.61252761496E+02  0.12700000000E+01 0.  1.
         25    2    1    2    0    0  0.00000000000E+00  0.00000000000E+00  0.25200806627E+01  0.12502508332E+03  0.12499968261E+03 0.  0.
    9000005    1    3    3    0    0  0.86750170750E+01 -0.71126038293E+01  0.62749236569E+02  0.63751954828E+02  0.10000000000E+01 0.  0.
    9000005    1    3    3    0    0 -0.86750170750E+01  0.71126038293E+01 -0.60229155906E+02  0.61273128495E+02  0.10000000000E+01 0.  0.
<mgrwt>
<rscale>  0 0.12499968E+03</rscale>
<asrwt>0</asrwt>
<pdfrwt beam="2">  1        4 0.94234618E-02 0.12499968E+03</pdfrwt>
<pdfrwt beam="1">  1       -4 0.98111664E-02 0.12499968E+03</pdfrwt>
<totfact> 0.10452393E+04</totfact>
</mgrwt>
</event>
<event>
 5    1  0.3267085E-002  0.1250009E+03  0.7818608E-02  0.1235068E+00
         -4   -1    0    0    0  501 -0.00000000000E+00  0.00000000000E+00  0.99069728632E+02  0.99077868523E+02  0.12700000000E+01 0. -1.
          4   -1    0    0  501    0  0.00000000000E+00 -0.00000000000E+00 -0.39409865435E+02  0.39430323276E+02  0.12700000000E+01 0. -1.
         25    2    1    2    0    0  0.00000000000E+00  0.00000000000E+00  0.59659863196E+02  0.13850819180E+03  0.12500087967E+03 0.  0.
    9000005    1    3    3    0    0 -0.97390542982E+01 -0.50178000111E+02 -0.10008159075E+02  0.52094569025E+02  0.10000000000E+01 0.  0.
    9000005    1    3    3    0    0  0.97390542982E+01  0.50178000111E+02  0.69668022272E+02  0.86413622775E+02  0.10000000000E+01 0.  0.
<mgrwt>
<rscale>  0 0.12500088E+03</rscale>
<asrwt>0</asrwt>
<pdfrwt beam="2">  1        4 0.60652561E-02 0.12500088E+03</pdfrwt>
<pdfrwt beam="1">  1       -4 0.15243696E-01 0.12500088E+03</pdfrwt>
<totfact> 0.10164397E+04</totfact>
</mgrwt>
</event>
<event>
 5    1  0.3267085E-002  0.1249912E+03  0.7818608E-02  0.1235083E+00
         -4   -1    0    0    0  501 -0.00000000000E+00  0.00000000000E+00  0.33535384653E+02  0.33559423771E+02  0.12700000000E+01 0. -1.
          4   -1    0    0  501    0  0.00000000000E+00 -0.00000000000E+00 -0.11639582122E+03  0.11640274953E+03  0.12700000000E+01 0. -1.
         25    2    1    2    0    0  0.00000000000E+00  0.00000000000E+00 -0.82860436565E+02  0.14996217330E+03  0.12499120558E+03 0.  0.
    9000005    1    3    3    0    0 -0.94682103447E+01 -0.58282361211E+02 -0.65966261541E+02  0.88538287182E+02  0.10000000000E+01 0.  0.
    9000005    1    3    3    0    0  0.94682103447E+01  0.58282361211E+02 -0.16894175025E+02  0.61423886113E+02  0.10000000000E+01 0.  0.
<mgrwt>
<rscale>  0 0.12499121E+03</rscale>
<asrwt>0</asrwt>
<pdfrwt beam="2">  1        4 0.17909431E-01 0.12499121E+03</pdfrwt>
<pdfrwt beam="1">  1       -4 0.51616721E-02 0.12499121E+03</pdfrwt>
<totfact> 0.99330897E+03</totfact>
</mgrwt>
</event>
<event>
 5    1  0.3267085E-002  0.1250030E+03  0.7818608E-02  0.1235065E+00
         -4   -1    0    0    0  501 -0.00000000000E+00  0.00000000000E+00  0.23472121512E+03  0.23472465087E+03  0.12700000000E+01 0. -1.
          4   -1    0    0  501    0  0.00000000000E+00 -0.00000000000E+00 -0.16615089915E+02  0.16663556430E+02  0.12700000000E+01 0. -1.
         25    2    1    2    0    0  0.00000000000E+00  0.00000000000E+00  0.21810612521E+03  0.25138820730E+03  0.12500299564E+03 0.  0.
    9000005    1    3    3    0    0 -0.11804752210E+02  0.58053533639E+02  0.69039978201E+02  0.90978478404E+02  0.10000000000E+01 0.  0.
    9000005    1    3    3    0    0  0.11804752210E+02 -0.58053533639E+02  0.14906614701E+03  0.16040972890E+03  0.10000000000E+01 0.  0.
<mgrwt>
<rscale>  0 0.12500300E+03</rscale>
<asrwt>0</asrwt>
<pdfrwt beam="2">  1        4 0.25601602E-02 0.12500300E+03</pdfrwt>
<pdfrwt beam="1">  1       -4 0.36114949E-01 0.12500300E+03</pdfrwt>
<totfact> 0.82124521E+03</totfact>
</mgrwt>
</event>
<event>
 5    1  0.3267085E-002  0.1249979E+03  0.7818608E-02  0.1235073E+00
         -4   -1    0    0    0  501 -0.00000000000E+00  0.00000000000E+00  0.65225853438E+03  0.65225977077E+03  0.12700000000E+01 0. -1.
          4   -1    0    0  501    0  0.00000000000E+00 -0.00000000000E+00 -0.59200205259E+01  0.60547124645E+01  0.12700000000E+01 0. -1.
         25    2    1    2    0    0  0.00000000000E+00  0.00000000000E+00  0.64633851385E+03  0.65831448324E+03  0.12499793739E+03 0.  0.
    9000005    1    3    3    0    0  0.16638238593E+02 -0.60161665679E+02  0.30748920225E+03  0.31376243641E+03  0.10000000000E+01 0.  0.
    9000005    1    3    3    0    0 -0.16638238593E+02  0.60161665679E+02  0.33884931160E+03  0.34455204683E+03  0.10000000000E+01 0.  0.
<mgrwt>
<rscale>  0 0.12499794E+03</rscale>
<asrwt>0</asrwt>
<pdfrwt beam="2">  1        4 0.92122810E-03 0.12499794E+03</pdfrwt>
<pdfrwt beam="1">  1       -4 0.10035796E+00 0.12499794E+03</pdfrwt>
<totfact> 0.45382278E+03</totfact>
</mgrwt>
</event>
<event>
 5    1  0.3267085E-002  0.1250049E+03  0.7818608E-02  0.1235062E+00
          4   -1    0    0  501    0  0.00000000000E+00  0.00000000000E+00  0.99661216832E+02  0.99669308418E+02  0.12700000000E+01 0. -1.
         -4   -1    0    0    0  501 -0.00000000000E+00 -0.00000000000E+00 -0.39178407622E+02  0.39198986260E+02  0.12700000000E+01 0. -1.
         25    2    1    2    0    0  0.00000000000E+00  0.00000000000E+00  0.60482809210E+02  0.13886829468E+03  0.12500493213E+03 0.  0.
    9000005    1    3    3    0    0 -0.26473466002E+02  0.21340166606E+02  0.88490327692E+02  0.94803930340E+02  0.10000000000E+01 0.  0.
    9000005    1    3    3    0    0  0.26473466002E+02 -0.21340166606E+02 -0.28007518482E+02  0.44064364337E+02  0.10000000000E+01 0.  0.
<mgrwt>
<rscale>  0 0.12500493E+03</rscale>
<asrwt>0</asrwt>
<pdfrwt beam="1">  1        4 0.15334700E-01 0.12500493E+03</pdfrwt>
<pdfrwt beam="2">  1       -4 0.60296528E-02 0.12500493E+03</pdfrwt>
<totfact> 0.10155966E+04</totfact>
</mgrwt>
</event>
<event>
 5    1  0.3267085E-002  0.1249412E+03  0.7818608E-02  0.1235161E+00
         -4   -1    0    0    0  501 -0.00000000000E+00  0.00000000000E+00  0.34687163188E+02  0.34710404636E+02  0.12700000000E+01 0. -1.
          4   -1    0    0  501    0  0.00000000000E+00 -0.00000000000E+00 -0.11244329120E+03  0.11245046303E+03  0.12700000000E+01 0. -1.
         25    2    1    2    0    0  0.00000000000E+00  0.00000000000E+00 -0.77756128016E+02  0.14716086767E+03  0.12494120829E+03 0.  0.
    9000005    1    3    3    0    0 -0.59478561095E+02 -0.42959255971E+01 -0.16987258327E+02  0.62013878705E+02  0.10000000000E+01 0.  0.
    9000005    1    3    3    0    0  0.59478561095E+02  0.42959255971E+01 -0.60768869689E+02  0.85146988966E+02  0.10000000000E+01 0.  0.
<mgrwt>
<rscale>  0 0.12494121E+03</rscale>
<asrwt>0</asrwt>
<pdfrwt beam="2">  1        4 0.17301307E-01 0.12494121E+03</pdfrwt>
<pdfrwt beam="1">  1       -4 0.53388262E-02 0.12494121E+03</pdfrwt>
<totfact> 0.10000498E+04</totfact>
</mgrwt>
</event>
<event>
 5    1  0.3267085E-002  0.1249893E+03  0.7818608E-02  0.1235086E+00
         -4   -1    0    0    0  501 -0.00000000000E+00  0.00000000000E+00  0.30638788455E+02  0.30665098370E+02  0.12700000000E+01 0.  1.
          4   -1    0    0  501    0  0.00000000000E+00 -0.00000000000E+00 -0.12738766030E+03  0.12739399082E+03  0.12700000000E+01 0.  1.
         25    2    1    2    0    0  0.00000000000E+00  0.00000000000E+00 -0.96748871849E+02  0.15805908919E+03  0.12498932543E+03 0.  0.
    9000005    1    3    3    0    0  0.18348200448E+02  0.55079302767E+02 -0.77602308012E+02  0.96920092147E+02  0.10000000000E+01 0.  0.
    9000005    1    3    3    0    0 -0.18348200448E+02 -0.55079302767E+02 -0.19146563837E+02  0.61138997046E+02  0.10000000000E+01 0.  0.
<mgrwt>
<rscale>  0 0.12498933E+03</rscale>
<asrwt>0</asrwt>
<pdfrwt beam="2">  1        4 0.19600612E-01 0.12498933E+03</pdfrwt>
<pdfrwt beam="1">  1       -4 0.47161706E-02 0.12498933E+03</pdfrwt>
<totfact> 0.97741742E+03</totfact>
</mgrwt>
</event>
<event>
 5    1  0.3267085E-002  0.1249978E+03  0.7818608E-02  0.1235073E+00
          4   -1    0    0  501    0  0.00000000000E+00  0.00000000000E+00  0.52558355523E+02  0.52573697181E+02  0.12700000000E+01 0. -1.
         -4   -1    0    0    0  501 -0.00000000000E+00 -0.00000000000E+00 -0.74287964054E+02  0.74298818990E+02  0.12700000000E+01 0. -1.
         25    2    1    2    0    0  0.00000000000E+00  0.00000000000E+00 -0.21729608531E+02  0.12687251617E+03  0.12499783787E+03 0.  0.
    9000005    1    3    3    0    0  0.58528978061E+02  0.69007833084E+01 -0.31957540142E+02  0.67048836343E+02  0.10000000000E+01 0.  0.
    9000005    1    3    3    0    0 -0.58528978061E+02 -0.69007833084E+01  0.10227931611E+02  0.59823679828E+02  0.10000000000E+01 0.  0.
<mgrwt>
<rscale>  0 0.12499784E+03</rscale>
<asrwt>0</asrwt>
<pdfrwt beam="1">  1        4 0.80879159E-02 0.12499784E+03</pdfrwt>
<pdfrwt beam="2">  1       -4 0.11430933E-01 0.12499784E+03</pdfrwt>
<totfact> 0.10412425E+04</totfact>
</mgrwt>
</event>
<event>
 5    1  0.3267085E-002  0.1250005E+03  0.7818608E-02  0.1235069E+00
          4   -1    0    0  501    0  0.00000000000E+00  0.00000000000E+00  0.33352751413E+03  0.33352993206E+03  0.12700000000E+01 0. -1.
         -4   -1    0    0    0  501 -0.00000000000E+00 -0.00000000000E+00 -0.11675121769E+02  0.11743992861E+02  0.12700000000E+01 0. -1.
         25    2    1    2    0    0  0.00000000000E+00  0.00000000000E+00  0.32185239236E+03  0.34527392492E+03  0.12500048305E+03 0.  0.
    9000005    1    3    3    0    0 -0.19522161892E+02  0.35795886988E+02  0.29173870862E+03  0.29457585515E+03  0.10000000000E+01 0.  0.
    9000005    1    3    3    0    0  0.19522161892E+02 -0.35795886988E+02  0.30113683740E+02  0.50698069772E+02  0.10000000000E+01 0.  0.
<mgrwt>
<rscale>  0 0.12500048E+03</rscale>
<asrwt>0</asrwt>
<pdfrwt beam="1">  1        4 0.51317397E-01 0.12500048E+03</pdfrwt>
<pdfrwt beam="2">  1       -4 0.18016568E-02 0.12500048E+03</pdfrwt>
<totfact> 0.70246885E+03</totfact>
</mgrwt>
</event>
<event>
 5    1  0.3267085E-002  0.1249993E+03  0.7818608E-02  0.1235070E+00
          4   -1    0    0  501    0  0.00000000000E+00  0.00000000000E+00  0.30499955626E+02  0.30526385197E+02  0.12700000000E+01 0.  1.
         -4   -1    0    0    0  501 -0.00000000000E+00 -0.00000000000E+00 -0.12798738629E+03  0.12799368715E+03  0.12700000000E+01 0.  1.
         25    2    1    2    0    0  0.00000000000E+00  0.00000000000E+00 -0.97487430664E+02  0.15852007234E+03  0.12499925679E+03 0.  0.
    9000005    1    3    3    0    0 -0.11902300040E+01 -0.12429156448E+02 -0.12639561757E+03  0.12701477362E+03  0.10000000000E+01 0.  0.
    9000005    1    3    3    0    0  0.11902300040E+01  0.12429156448E+02  0.28908186905E+02  0.31505298722E+02  0.10000000000E+01 0.  0.
<mgrwt>
<rscale>  0 0.12499926E+03</rscale>
<asrwt>0</asrwt>
<pdfrwt beam="1">  1        4 0.46948186E-02 0.12499926E+03</pdfrwt>
<pdfrwt beam="2">  1       -4 0.19692885E-01 0.12499926E+03</pdfrwt>
<totfact> 0.97630495E+03</totfact>
</mgrwt>
</event>
<event>
 5    1  0.3267085E-002  0.1250008E+03  0.7818608E-02  0.1235068E+00
          4   -1    0    0  501    0  0.00000000000E+00  0.00000000000E+00  0.16617527883E+04  0.16617532736E+04  0.12700000000E+01 0.  1.
         -4   -1    0    0    0  501 -0.00000000000E+00 -0.00000000000E+00 -0.21786577801E+01  0.25217949406E+01  0.12700000000E+01 0.  1.
         25    2    1    2    0    0  0.00000000000E+00  0.00000000000E+00  0.16595741306E+04  0.16642750686E+04  0.12500083631E+03 0.  0.
    9000005    1    3    3    0    0 -0.46722416949E+02  0.34212857093E+02  0.51703339117E+03  0.52026726922E+03  0.10000000000E+01 0.  0.
    9000005    1    3    3    0    0  0.46722416949E+02 -0.34212857093E+02  0.11425407394E+04  0.11440077994E+04  0.10000000000E+01 0.  0.
<mgrwt>
<rscale>  0 0.12500084E+03</rscale>
<asrwt>0</asrwt>
<pdfrwt beam="1">  1        4 0.25568201E+00 0.12500084E+03</pdfrwt>
<pdfrwt beam="2">  1       -4 0.36160877E-03 0.12500084E+03</pdfrwt>
<totfact> 0.14912320E+03</totfact>
</mgrwt>
</event>
<event>
 5    1  0.3267085E-002  0.1250039E+03  0.7818608E-02  0.1235063E+00
          4   -1    0    0  501    0  0.00000000000E+00  0.00000000000E+00  0.31482762693E+02  0.31508367885E+02  0.12700000000E+01 0. -1.
         -4   -1    0    0    0  501 -0.00000000000E+00 -0.00000000000E+00 -0.12400423809E+03  0.12401074133E+03  0.12700000000E+01 0. -1.
         25    2    1    2    0    0  0.00000000000E+00  0.00000000000E+00 -0.92521475399E+02  0.15551910921E+03  0.12500387962E+03 0.  0.
    9000005    1    3    3    0    0 -0.41704696150E+02 -0.31535421480E+02 -0.36740688709E+01  0.52423880732E+02  0.10000000000E+01 0.  0.
    9000005    1    3    3    0    0  0.41704696150E+02  0.31535421480E+02 -0.88847406528E+02  0.10309522848E+03  0.10000000000E+01 0.  0.
<mgrwt>
<rscale>  0 0.12500388E+03</rscale>
<asrwt>0</asrwt>
<pdfrwt beam="1">  1        4 0.48459719E-02 0.12500388E+03</pdfrwt>
<pdfrwt beam="2">  1       -4 0.19080045E-01 0.12500388E+03</pdfrwt>
<totfact> 0.98205119E+03</totfact>
</mgrwt>
</event>
<event>
 5    1  0.3267085E-002  0.1250001E+03  0.7818608E-02  0.1235069E+00
         -4   -1    0    0    0  501 -0.00000000000E+00  0.00000000000E+00  0.12743776889E+04  0.12743783217E+04  0.12700000000E+01 0.  1.
          4   -1    0    0  501    0  0.00000000000E+00 -0.00000000000E+00 -0.29330192259E+01  0.31961698608E+01  0.12700000000E+01 0.  1.
         25    2    1    2    0    0  0.00000000000E+00  0.00000000000E+00  0.12714446697E+04  0.12775744916E+04  0.12500013397E+03 0.  0.
    9000005    1    3    3    0    0 -0.14518226046E+02  0.30848001792E+02  0.11710000694E+04  0.11714967096E+04  0.10000000000E+01 0.  0.
    9000005    1    3    3    0    0  0.14518226046E+02 -0.30848001792E+02  0.10044460025E+03  0.10607778194E+03  0.10000000000E+01 0.  0.
<mgrwt>
<rscale>  0 0.12500013E+03</rscale>
<asrwt>0</asrwt>
<pdfrwt beam="2">  1        4 0.47152474E-03 0.12500013E+03</pdfrwt>
<pdfrwt beam="1">  1       -4 0.19607841E+00 0.12500013E+03</pdfrwt>
<totfact> 0.22763996E+03</totfact>
</mgrwt>
</event>
<event>
 5    1  0.3267085E-002  0.1250132E+03  0.7818608E-02  0.1235049E+00
         -4   -1    0    0    0  501 -0.00000000000E+00  0.00000000000E+00  0.59643080340E+02  0.59656600074E+02  0.12700000000E+01 0. -1.
          4   -1    0    0  501    0  0.00000000000E+00 -0.00000000000E+00 -0.65480521408E+02  0.65492836126E+02  0.12700000000E+01 0. -1.
         25    2    1    2    0    0  0.00000000000E+00  0.00000000000E+00 -0.58374410682E+01  0.12514943620E+03  0.12501322195E+03 0.  0.
    9000005    1    3    3    0    0  0.25444876714E+02 -0.22717580290E+02 -0.55345107175E+02  0.65020082232E+02  0.10000000000E+01 0.  0.
    9000005    1    3    3    0    0 -0.25444876714E+02  0.22717580290E+02  0.49507666107E+02  0.60129353968E+02  0.10000000000E+01 0.  0.
<mgrwt>
<rscale>  0 0.12501322E+03</rscale>
<asrwt>0</asrwt>
<pdfrwt beam="2">  1        4 0.10075914E-01 0.12501322E+03</pdfrwt>
<pdfrwt beam="1">  1       -4 0.91778458E-02 0.12501322E+03</pdfrwt>
<totfact> 0.10446496E+04</totfact>
</mgrwt>
</event>
<event>
 5    1  0.3267085E-002  0.1249997E+03  0.7818608E-02  0.1235070E+00
          4   -1    0    0  501    0  0.00000000000E+00  0.00000000000E+00  0.13379382219E+03  0.13379984961E+03  0.12700000000E+01 0.  1.
         -4   -1    0    0    0  501 -0.00000000000E+00 -0.00000000000E+00 -0.29175406893E+02  0.29203035243E+02  0.12700000000E+01 0.  1.
         25    2    1    2    0    0  0.00000000000E+00  0.00000000000E+00  0.10461841530E+03  0.16300288485E+03  0.12499971061E+03 0.  0.
    9000005    1    3    3    0    0 -0.25276603420E+02 -0.56869937895E+02  0.44916932673E+02  0.76756936868E+02  0.10000000000E+01 0.  0.
    9000005    1    3    3    0    0  0.25276603420E+02  0.56869937895E+02  0.59701482623E+02  0.86245947986E+02  0.10000000000E+01 0.  0.
<mgrwt>
<rscale>  0 0.12499971E+03</rscale>
<asrwt>0</asrwt>
<pdfrwt beam="1">  1        4 0.20586254E-01 0.12499971E+03</pdfrwt>
<pdfrwt beam="2">  1       -4 0.44911130E-02 0.12499971E+03</pdfrwt>
<totfact> 0.96767585E+03</totfact>
</mgrwt>
</event>
<event>
 5    1  0.3267085E-002  0.1249651E+03  0.7818608E-02  0.1235124E+00
         -4   -1    0    0    0  501 -0.00000000000E+00  0.00000000000E+00  0.20913720520E+02  0.20952245846E+02  0.12700000000E+01 0. -1.
          4   -1    0    0  501    0  0.00000000000E+00 -0.00000000000E+00 -0.18646255005E+03  0.18646687500E+03  0.12700000000E+01 0. -1.
         25    2    1    2    0    0  0.00000000000E+00  0.00000000000E+00 -0.16554882953E+03  0.20741912084E+03  0.12496510206E+03 0.  0.
    9000005    1    3    3    0    0  0.56421160400E+02  0.15766855000E+02 -0.11880153566E+03  0.13246413074E+03  0.10000000000E+01 0.  0.
    9000005    1    3    3    0    0 -0.56421160400E+02 -0.15766855000E+02 -0.46747293873E+02  0.74954990107E+02  0.10000000000E+01 0.  0.
<mgrwt>
<rscale>  0 0.12496510E+03</rscale>
<asrwt>0</asrwt>
<pdfrwt beam="2">  1        4 0.28689841E-01 0.12496510E+03</pdfrwt>
<pdfrwt beam="1">  1       -4 0.32207918E-02 0.12496510E+03</pdfrwt>
<totfact> 0.88968526E+03</totfact>
</mgrwt>
</event>
<event>
 5    1  0.3267085E-002  0.1250019E+03  0.7818608E-02  0.1235066E+00
          4   -1    0    0  501    0  0.00000000000E+00  0.00000000000E+00  0.92426189944E+01  0.93294643938E+01  0.12700000000E+01 0.  1.
         -4   -1    0    0    0  501 -0.00000000000E+00 -0.00000000000E+00 -0.42058348795E+03  0.42058540540E+03  0.12700000000E+01 0.  1.
         25    2    1    2    0    0  0.00000000000E+00  0.00000000000E+00 -0.41134086895E+03  0.42991486979E+03  0.12500193917E+03 0.  0.
    9000005    1    3    3    0    0 -0.12689633509E+02  0.58491062818E+02 -0.26749499776E+03  0.27411093567E+03  0.10000000000E+01 0.  0.
    9000005    1    3    3    0    0  0.12689633509E+02 -0.58491062818E+02 -0.14384587119E+03  0.15580393412E+03  0.10000000000E+01 0.  0.
<mgrwt>
<rscale>  0 0.12500194E+03</rscale>
<asrwt>0</asrwt>
<pdfrwt beam="1">  1        4 0.14287696E-02 0.12500194E+03</pdfrwt>
<pdfrwt beam="2">  1       -4 0.64711965E-01 0.12500194E+03</pdfrwt>
<totfact> 0.61741075E+03</totfact>
</mgrwt>
</event>
<event>
 5    1  0.3267085E-002  0.1250007E+03  0.7818608E-02  0.1235068E+00
         -4   -1    0    0    0  501 -0.00000000000E+00  0.00000000000E+00  0.28515455742E+02  0.28543722886E+02  0.12700000000E+01 0.  1.
          4   -1    0    0  501    0  0.00000000000E+00 -0.00000000000E+00 -0.13688947279E+03  0.13689536391E+03  0.12700000000E+01 0.  1.
         25    2    1    2    0    0  0.00000000000E+00  0.00000000000E+00 -0.10837401705E+03  0.16543908680E+03  0.12500065548E+03 0.  0.
    9000005    1    3    3    0    0  0.12862337084E+02 -0.52031638149E+02 -0.96715840755E+02  0.11057886297E+03  0.10000000000E+01 0.  0.
    9000005    1    3    3    0    0 -0.12862337084E+02  0.52031638149E+02 -0.11658176294E+02  0.54860223826E+02  0.10000000000E+01 0.  0.
<mgrwt>
<rscale>  0 0.12500066E+03</rscale>
<asrwt>0</asrwt>
<pdfrwt beam="2">  1        4 0.21062546E-01 0.12500066E+03</pdfrwt>
<pdfrwt beam="1">  1       -4 0.43896208E-02 0.12500066E+03</pdfrwt>
<totfact> 0.96302883E+03</totfact>
</mgrwt>
</event>
<event>
 5    1  0.3267085E-002  0.1249993E+03  0.7818608E-02  0.1235070E+00
         -4   -1    0    0    0  501 -0.00000000000E+00  0.00000000000E+00  0.90243855511E+01  0.91133108460E+01  0.12700000000E+01 0. -1.
          4   -1    0    0  501    0  0.00000000000E+00 -0.00000000000E+00 -0.43063776055E+03  0.43063963324E+03  0.12700000000E+01 0. -1.
         25    2    1    2    0    0  0.00000000000E+00  0.00000000000E+00 -0.42161337500E+03  0.43975294408E+03  0.12499925539E+03 0.  0.
    9000005    1    3    3    0    0 -0.54597795958E+02  0.24709770737E+02 -0.27311793679E+03  0.27961741628E+03  0.10000000000E+01 0.  0.
    9000005    1    3    3    0    0  0.54597795958E+02 -0.24709770737E+02 -0.14849543822E+03  0.16013552780E+03  0.10000000000E+01 0.  0.
<mgrwt>
<rscale>  0 0.12499926E+03</rscale>
<asrwt>0</asrwt>
<pdfrwt beam="2">  1        4 0.66258932E-01 0.12499926E+03</pdfrwt>
<pdfrwt beam="1">  1       -4 0.13953518E-02 0.12499926E+03</pdfrwt>
<totfact> 0.60862793E+03</totfact>
</mgrwt>
</event>
<event>
 4    1  0.3267085E-002  0.1249389E+03  0.7818608E-02  0.1235165E+00
         -4   -1    0    0    0  501 -0.00000000000E+00  0.00000000000E+00  0.45360843002E+02  0.45378618069E+02  0.12700000000E+01 0.  1.
          4   -1    0    0  501    0  0.00000000000E+00 -0.00000000000E+00 -0.85991503389E+02  0.86000881129E+02  0.12700000000E+01 0.  1.
    9000005    1    1    2    0    0  0.21985151586E+02 -0.57424210886E+02 -0.87701097732E+01  0.62119253952E+02  0.10000000000E+01 0.  0.
    9000005    1    1    2    0    0 -0.21985151586E+02  0.57424210886E+02 -0.31860550613E+02  0.69260245246E+02  0.10000000000E+01 0.  0.
<mgrwt>
<rscale>  0 0.12493887E+03</rscale>
<asrwt>0</asrwt>
<pdfrwt beam="2">  1        4 0.13231551E-01 0.12493887E+03</pdfrwt>
<pdfrwt beam="1">  1       -4 0.69806799E-02 0.12493887E+03</pdfrwt>
<totfact> 0.10329198E+04</totfact>
</mgrwt>
</event>
<event>
 5    1  0.3267085E-002  0.1249992E+03  0.7818608E-02  0.1235071E+00
          4   -1    0    0  501    0  0.00000000000E+00  0.00000000000E+00  0.44978198114E+02  0.44996124340E+02  0.12700000000E+01 0. -1.
         -4   -1    0    0    0  501 -0.00000000000E+00 -0.00000000000E+00 -0.86806670571E+02  0.86815960259E+02  0.12700000000E+01 0. -1.
         25    2    1    2    0    0  0.00000000000E+00  0.00000000000E+00 -0.41828472457E+02  0.13181208460E+03  0.12499921815E+03 0.  0.
    9000005    1    3    3    0    0  0.15959540355E+02 -0.42494160753E+02 -0.66205618365E+02  0.80278543395E+02  0.10000000000E+01 0.  0.
    9000005    1    3    3    0    0 -0.15959540355E+02  0.42494160753E+02  0.24377145908E+02  0.51533541204E+02  0.10000000000E+01 0.  0.
<mgrwt>
<rscale>  0 0.12499922E+03</rscale>
<asrwt>0</asrwt>
<pdfrwt beam="1">  1        4 0.69218164E-02 0.12499922E+03</pdfrwt>
<pdfrwt beam="2">  1       -4 0.13356966E-01 0.12499922E+03</pdfrwt>
<totfact> 0.10305893E+04</totfact>
</mgrwt>
</event>
<event>
 5    1  0.3267085E-002  0.1250249E+03  0.7818608E-02  0.1235030E+00
          4   -1    0    0  501    0  0.00000000000E+00  0.00000000000E+00  0.84274361149E+02  0.84283929946E+02  0.12700000000E+01 0.  1.
         -4   -1    0    0    0  501 -0.00000000000E+00 -0.00000000000E+00 -0.46349133641E+02  0.46366529839E+02  0.12700000000E+01 0.  1.
         25    2    1    2    0    0  0.00000000000E+00  0.00000000000E+00  0.37925227508E+02  0.13065045978E+03  0.12502487657E+03 0.  0.
    9000005    1    3    3    0    0 -0.48515078708E+02  0.29294958429E+02  0.46509649912E+02  0.73321586087E+02  0.10000000000E+01 0.  0.
    9000005    1    3    3    0    0  0.48515078708E+02 -0.29294958429E+02 -0.85844224044E+01  0.57328873697E+02  0.10000000000E+01 0.  0.
<mgrwt>
<rscale>  0 0.12502488E+03</rscale>
<asrwt>0</asrwt>
<pdfrwt beam="1">  1        4 0.12967361E-01 0.12502488E+03</pdfrwt>
<pdfrwt beam="2">  1       -4 0.71327102E-02 0.12502488E+03</pdfrwt>
<totfact> 0.10324793E+04</totfact>
</mgrwt>
</event>
<event>
 5    1  0.3267085E-002  0.1250063E+03  0.7818608E-02  0.1235059E+00
          4   -1    0    0  501    0  0.00000000000E+00  0.00000000000E+00  0.39770865489E+02  0.39791137728E+02  0.12700000000E+01 0.  1.
         -4   -1    0    0    0  501 -0.00000000000E+00 -0.00000000000E+00 -0.98179376780E+02  0.98187590484E+02  0.12700000000E+01 0.  1.
         25    2    1    2    0    0  0.00000000000E+00  0.00000000000E+00 -0.58408511292E+02  0.13797872821E+03  0.12500630083E+03 0.  0.
    9000005    1    3    3    0    0  0.65737110921E+01 -0.62113844780E+02 -0.31493202562E+02  0.69958310432E+02  0.10000000000E+01 0.  0.
    9000005    1    3    3    0    0 -0.65737110921E+01  0.62113844780E+02 -0.26915308730E+02  0.68020417780E+02  0.10000000000E+01 0.  0.
<mgrwt>
<rscale>  0 0.12500630E+03</rscale>
<asrwt>0</asrwt>
<pdfrwt beam="1">  1        4 0.61207859E-02 0.12500630E+03</pdfrwt>
<pdfrwt beam="2">  1       -4 0.15106711E-01 0.12500630E+03</pdfrwt>
<totfact> 0.10174206E+04</totfact>
</mgrwt>
</event>
<event>
 5    1  0.3267085E-002  0.1250038E+03  0.7818608E-02  0.1235063E+00
          4   -1    0    0  501    0  0.00000000000E+00  0.00000000000E+00  0.65802901134E+02  0.65815155532E+02  0.12700000000E+01 0.  1.
         -4   -1    0    0    0  501 -0.00000000000E+00 -0.00000000000E+00 -0.59341871459E+02  0.59355459802E+02  0.12700000000E+01 0.  1.
         25    2    1    2    0    0  0.00000000000E+00  0.00000000000E+00  0.64610296748E+01  0.12517061533E+03  0.12500375210E+03 0.  0.
    9000005    1    3    3    0    0 -0.55374312124E+02  0.15727718081E+02 -0.21129082367E+02  0.61327919261E+02  0.10000000000E+01 0.  0.
    9000005    1    3    3    0    0  0.55374312124E+02 -0.15727718081E+02  0.27590112042E+02  0.63842696072E+02  0.10000000000E+01 0.  0.
<mgrwt>
<rscale>  0 0.12500375E+03</rscale>
<asrwt>0</asrwt>
<pdfrwt beam="1">  1        4 0.10125511E-01 0.12500375E+03</pdfrwt>
<pdfrwt beam="2">  1       -4 0.91315066E-02 0.12500375E+03</pdfrwt>
<totfact> 0.10448272E+04</totfact>
</mgrwt>
</event>
<event>
 5    1  0.3267085E-002  0.1249958E+03  0.7818608E-02  0.1235076E+00
         -4   -1    0    0    0  501 -0.00000000000E+00  0.00000000000E+00  0.12005842332E+02  0.12072826931E+02  0.12700000000E+01 0.  1.
          4   -1    0    0  501    0  0.00000000000E+00 -0.00000000000E+00 -0.32436714209E+03  0.32436962831E+03  0.12700000000E+01 0.  1.
         25    2    1    2    0    0  0.00000000000E+00  0.00000000000E+00 -0.31236129976E+03  0.33644245524E+03  0.12499577633E+03 0.  0.
    9000005    1    3    3    0    0 -0.55473513190E+02  0.22363282744E+01 -0.23338279948E+03  0.23989756757E+03  0.10000000000E+01 0.  0.
    9000005    1    3    3    0    0  0.55473513190E+02 -0.22363282744E+01 -0.78978500275E+02  0.96544887671E+02  0.10000000000E+01 0.  0.
<mgrwt>
<rscale>  0 0.12499578E+03</rscale>
<asrwt>0</asrwt>
<pdfrwt beam="2">  1        4 0.49907974E-01 0.12499578E+03</pdfrwt>
<pdfrwt beam="1">  1       -4 0.18523968E-02 0.12499578E+03</pdfrwt>
<totfact> 0.71248931E+03</totfact>
</mgrwt>
</event>
<event>
 5    1  0.3267085E-002  0.1250013E+03  0.7818608E-02  0.1235067E+00
         -4   -1    0    0    0  501 -0.00000000000E+00  0.00000000000E+00  0.55228108638E+02  0.55242708874E+02  0.12700000000E+01 0.  1.
          4   -1    0    0  501    0  0.00000000000E+00 -0.00000000000E+00 -0.70701167841E+02  0.70712573381E+02  0.12700000000E+01 0.  1.
         25    2    1    2    0    0  0.00000000000E+00  0.00000000000E+00 -0.15473059203E+02  0.12595528225E+03  0.12500127026E+03 0.  0.
    9000005    1    3    3    0    0  0.21578545611E+02 -0.47120331910E+02 -0.42922515690E+02  0.67300086650E+02  0.10000000000E+01 0.  0.
    9000005    1    3    3    0    0 -0.21578545611E+02  0.47120331910E+02  0.27449456487E+02  0.58655195604E+02  0.10000000000E+01 0.  0.
<mgrwt>
<rscale>  0 0.12500127E+03</rscale>
<asrwt>0</asrwt>
<pdfrwt beam="2">  1        4 0.10879103E-01 0.12500127E+03</pdfrwt>
<pdfrwt beam="1">  1       -4 0.84986326E-02 0.12500127E+03</pdfrwt>
<totfact> 0.10431638E+04</totfact>
</mgrwt>
</event>
<event>
 5    1  0.3267085E-002  0.1250063E+03  0.7818608E-02  0.1235059E+00
         -4   -1    0    0    0  501 -0.00000000000E+00  0.00000000000E+00  0.51313804984E+03  0.51313962144E+03  0.12700000000E+01 0. -1.
          4   -1    0    0  501    0  0.00000000000E+00 -0.00000000000E+00 -0.75586846752E+01  0.76646339781E+01  0.12700000000E+01 0. -1.
         25    2    1    2    0    0  0.00000000000E+00  0.00000000000E+00  0.50557936516E+03  0.52080425542E+03  0.12500631177E+03 0.  0.
    9000005    1    3    3    0    0 -0.30625956921E+02 -0.24466956094E+02  0.50006975490E+02  0.63547452943E+02  0.10000000000E+01 0.  0.
    9000005    1    3    3    0    0  0.30625956921E+02  0.24466956094E+02  0.45557238967E+03  0.45725680247E+03  0.10000000000E+01 0.  0.
<mgrwt>
<rscale>  0 0.12500631E+03</rscale>
<asrwt>0</asrwt>
<pdfrwt beam="2">  1        4 0.11711451E-02 0.12500631E+03</pdfrwt>
<pdfrwt beam="1">  1       -4 0.78952603E-01 0.12500631E+03</pdfrwt>
<totfact> 0.54278048E+03</totfact>
</mgrwt>
</event>
<event>
 5    1  0.3267085E-002  0.1250003E+03  0.7818608E-02  0.1235069E+00
         -4   -1    0    0    0  501 -0.00000000000E+00  0.00000000000E+00  0.23686082459E+02  0.23720105444E+02  0.12700000000E+01 0.  1.
          4   -1    0    0  501    0  0.00000000000E+00 -0.00000000000E+00 -0.16476337860E+03  0.16476827313E+03  0.12700000000E+01 0.  1.
         25    2    1    2    0    0  0.00000000000E+00  0.00000000000E+00 -0.14107729614E+03  0.18848837857E+03  0.12500026147E+03 0.  0.
    9000005    1    3    3    0    0 -0.47351179253E+01 -0.23558791023E+01  0.23355401523E+02  0.23967609151E+02  0.10000000000E+01 0.  0.
    9000005    1    3    3    0    0  0.47351179253E+01  0.23558791023E+01 -0.16443269767E+03  0.16452076942E+03  0.10000000000E+01 0.  0.
<mgrwt>
<rscale>  0 0.12500026E+03</rscale>
<asrwt>0</asrwt>
<pdfrwt beam="2">  1        4 0.25351205E-01 0.12500026E+03</pdfrwt>
<pdfrwt beam="1">  1       -4 0.36470064E-02 0.12500026E+03</pdfrwt>
<totfact> 0.92110459E+03</totfact>
</mgrwt>
</event>
<event>
 5    1  0.3267085E-002  0.1249983E+03  0.7818608E-02  0.1235072E+00
          4   -1    0    0  501    0  0.00000000000E+00  0.00000000000E+00  0.67326099949E+01  0.68513456593E+01  0.12700000000E+01 0. -1.
         -4   -1    0    0    0  501 -0.00000000000E+00 -0.00000000000E+00 -0.57499216365E+03  0.57499356619E+03  0.12700000000E+01 0. -1.
         25    2    1    2    0    0  0.00000000000E+00  0.00000000000E+00 -0.56825955366E+03  0.58184491185E+03  0.12499832448E+03 0.  0.
    9000005    1    3    3    0    0  0.12317975318E+01 -0.14864234937E+02 -0.56660813919E+03  0.56680529832E+03  0.10000000000E+01 0.  0.
    9000005    1    3    3    0    0 -0.12317975318E+01  0.14864234937E+02 -0.16514144659E+01  0.15039613531E+02  0.10000000000E+01 0.  0.
<mgrwt>
<rscale>  0 0.12499832E+03</rscale>
<asrwt>0</asrwt>
<pdfrwt beam="1">  1        4 0.10450280E-02 0.12499832E+03</pdfrwt>
<pdfrwt beam="2">  1       -4 0.88469536E-01 0.12499832E+03</pdfrwt>
<totfact> 0.50035893E+03</totfact>
</mgrwt>
</event>
<event>
 5    1  0.3267085E-002  0.1249984E+03  0.7818608E-02  0.1235072E+00
         -4   -1    0    0    0  501 -0.00000000000E+00  0.00000000000E+00  0.11685368258E+03  0.11686058374E+03  0.12700000000E+01 0.  1.
          4   -1    0    0  501    0  0.00000000000E+00 -0.00000000000E+00 -0.33407725114E+02  0.33431856025E+02  0.12700000000E+01 0.  1.
         25    2    1    2    0    0  0.00000000000E+00  0.00000000000E+00  0.83445957463E+02  0.15029243976E+03  0.12499835852E+03 0.  0.
    9000005    1    3    3    0    0 -0.62057283948E+02  0.60725691844E+01  0.46704390719E+02  0.77912018970E+02  0.10000000000E+01 0.  0.
    9000005    1    3    3    0    0  0.62057283948E+02 -0.60725691844E+01  0.36741566743E+02  0.72380420793E+02  0.10000000000E+01 0.  0.
<mgrwt>
<rscale>  0 0.12499836E+03</rscale>
<asrwt>0</asrwt>
<pdfrwt beam="2">  1        4 0.51420372E-02 0.12499836E+03</pdfrwt>
<pdfrwt beam="1">  1       -4 0.17979876E-01 0.12499836E+03</pdfrwt>
<totfact> 0.99249103E+03</totfact>
</mgrwt>
</event>
<event>
 5    1  0.3267085E-002  0.1249988E+03  0.7818608E-02  0.1235071E+00
         -4   -1    0    0    0  501 -0.00000000000E+00  0.00000000000E+00  0.35184302823E+01  0.37406218269E+01  0.12700000000E+01 0. -1.
          4   -1    0    0  501    0  0.00000000000E+00 -0.00000000000E+00 -0.10759993253E+04  0.10760000748E+04  0.12700000000E+01 0. -1.
         25    2    1    2    0    0  0.00000000000E+00  0.00000000000E+00 -0.10724808950E+04  0.10797406966E+04  0.12499880700E+03 0.  0.
    9000005    1    3    3    0    0 -0.56178521119E+02 -0.89175743740E+01 -0.31271355567E+03  0.31784637369E+03  0.10000000000E+01 0.  0.
    9000005    1    3    3    0    0  0.56178521119E+02  0.89175743740E+01 -0.75976733933E+03  0.76189432291E+03  0.10000000000E+01 0.  0.
<mgrwt>
<rscale>  0 0.12499881E+03</rscale>
<asrwt>0</asrwt>
<pdfrwt beam="2">  1        4 0.16555525E+00 0.12499881E+03</pdfrwt>
<pdfrwt beam="1">  1       -4 0.55844713E-03 0.12499881E+03</pdfrwt>
<totfact> 0.28084795E+03</totfact>
</mgrwt>
</event>
<event>
 5    1  0.3267085E-002  0.1250019E+03  0.7818608E-02  0.1235066E+00
         -4   -1    0    0    0  501 -0.00000000000E+00  0.00000000000E+00  0.34008295341E+02  0.34032000412E+02  0.12700000000E+01 0. -1.
          4   -1    0    0  501    0  0.00000000000E+00 -0.00000000000E+00 -0.11479794070E+03  0.11480496544E+03  0.12700000000E+01 0. -1.
         25    2    1    2    0    0  0.00000000000E+00  0.00000000000E+00 -0.80789645361E+02  0.14883696585E+03  0.12500190241E+03 0.  0.
    9000005    1    3    3    0    0  0.48997685716E+02 -0.15945464200E+02 -0.82497322008E+02  0.97271985549E+02  0.10000000000E+01 0.  0.
    9000005    1    3    3    0    0 -0.48997685716E+02  0.15945464200E+02  0.17076766469E+01  0.51564980303E+02  0.10000000000E+01 0.  0.
<mgrwt>
<rscale>  0 0.12500190E+03</rscale>
<asrwt>0</asrwt>
<pdfrwt beam="2">  1        4 0.17663585E-01 0.12500190E+03</pdfrwt>
<pdfrwt beam="1">  1       -4 0.52344093E-02 0.12500190E+03</pdfrwt>
<totfact> 0.99531776E+03</totfact>
</mgrwt>
</event>
<event>
 5    1  0.3267085E-002  0.1249998E+03  0.7818608E-02  0.1235070E+00
          4   -1    0    0  501    0  0.00000000000E+00  0.00000000000E+00  0.45328158258E+03  0.45328336172E+03  0.12700000000E+01 0. -1.
         -4   -1    0    0    0  501 -0.00000000000E+00 -0.00000000000E+00 -0.85690855697E+01  0.86626859287E+01  0.12700000000E+01 0. -1.
         25    2    1    2    0    0  0.00000000000E+00  0.00000000000E+00  0.44471249701E+03  0.46194604765E+03  0.12499978374E+03 0.  0.
    9000005    1    3    3    0    0 -0.42807591757E+02 -0.19950916425E+02  0.71121538675E+02  0.85380338730E+02  0.10000000000E+01 0.  0.
    9000005    1    3    3    0    0  0.42807591757E+02  0.19950916425E+02  0.37359095834E+03  0.37656570892E+03  0.10000000000E+01 0.  0.
<mgrwt>
<rscale>  0 0.12499978E+03</rscale>
<asrwt>0</asrwt>
<pdfrwt beam="1">  1        4 0.69742967E-01 0.12499978E+03</pdfrwt>
<pdfrwt beam="2">  1       -4 0.13256577E-02 0.12499978E+03</pdfrwt>
<totfact> 0.58942980E+03</totfact>
</mgrwt>
</event>
<event>
 5    1  0.3267085E-002  0.1249975E+03  0.7818608E-02  0.1235073E+00
         -4   -1    0    0    0  501 -0.00000000000E+00  0.00000000000E+00  0.12967315325E+02  0.13029357879E+02  0.12700000000E+01 0. -1.
          4   -1    0    0  501    0  0.00000000000E+00 -0.00000000000E+00 -0.30044366552E+03  0.30044634970E+03  0.12700000000E+01 0. -1.
         25    2    1    2    0    0  0.00000000000E+00  0.00000000000E+00 -0.28747635019E+03  0.31347570758E+03  0.12499746927E+03 0.  0.
    9000005    1    3    3    0    0  0.51940469492E+02  0.27783966595E+02 -0.19606354399E+03  0.20472340963E+03  0.10000000000E+01 0.  0.
    9000005    1    3    3    0    0 -0.51940469492E+02 -0.27783966595E+02 -0.91412806202E+02  0.10875229795E+03  0.10000000000E+01 0.  0.
<mgrwt>
<rscale>  0 0.12499747E+03</rscale>
<asrwt>0</asrwt>
<pdfrwt beam="2">  1        4 0.46227076E-01 0.12499747E+03</pdfrwt>
<pdfrwt beam="1">  1       -4 0.19999508E-02 0.12499747E+03</pdfrwt>
<totfact> 0.73943034E+03</totfact>
</mgrwt>
</event>
<event>
 5    1  0.3267085E-002  0.1250007E+03  0.7818608E-02  0.1235068E+00
         -4   -1    0    0    0  501 -0.00000000000E+00  0.00000000000E+00  0.25664351445E+02  0.25695755196E+02  0.12700000000E+01 0.  1.
          4   -1    0    0  501    0  0.00000000000E+00 -0.00000000000E+00 -0.15207992930E+03  0.15208523201E+03  0.12700000000E+01 0.  1.
         25    2    1    2    0    0  0.00000000000E+00  0.00000000000E+00 -0.12641557785E+03  0.17778098721E+03  0.12500072435E+03 0.  0.
    9000005    1    3    3    0    0 -0.53425398607E+01  0.53923420609E+02 -0.18934831079E+02  0.57409109471E+02  0.10000000000E+01 0.  0.
    9000005    1    3    3    0    0  0.53425398607E+01 -0.53923420609E+02 -0.10748074677E+03  0.12037187773E+03  0.10000000000E+01 0.  0.
<mgrwt>
<rscale>  0 0.12500072E+03</rscale>
<asrwt>0</asrwt>
<pdfrwt beam="2">  1        4 0.23399735E-01 0.12500072E+03</pdfrwt>
<pdfrwt beam="1">  1       -4 0.39511854E-02 0.12500072E+03</pdfrwt>
<totfact> 0.94016437E+03</totfact>
</mgrwt>
</event>
<event>
 5    1  0.3267085E-002  0.1250000E+03  0.7818608E-02  0.1235069E+00
         -4   -1    0    0    0  501 -0.00000000000E+00  0.00000000000E+00  0.88469971232E+02  0.88479086285E+02  0.12700000000E+01 0.  1.
          4   -1    0    0  501    0  0.00000000000E+00 -0.00000000000E+00 -0.44132865775E+02  0.44151135223E+02  0.12700000000E+01 0.  1.
         25    2    1    2    0    0  0.00000000000E+00  0.00000000000E+00  0.44337105457E+02  0.13263022151E+03  0.12499998695E+03 0.  0.
    9000005    1    3    3    0    0  0.28512615739E+02 -0.43880297496E+02 -0.14074988921E+02  0.54199216578E+02  0.10000000000E+01 0.  0.
    9000005    1    3    3    0    0 -0.28512615739E+02  0.43880297496E+02  0.58412094378E+02  0.78431004929E+02  0.10000000000E+01 0.  0.
<mgrwt>
<rscale>  0 0.12499999E+03</rscale>
<asrwt>0</asrwt>
<pdfrwt beam="2">  1        4 0.67917782E-02 0.12499999E+03</pdfrwt>
<pdfrwt beam="1">  1       -4 0.13612871E-01 0.12499999E+03</pdfrwt>
<totfact> 0.10288268E+04</totfact>
</mgrwt>
</event>
<event>
 5    1  0.3267085E-002  0.1250012E+03  0.7818608E-02  0.1235067E+00
         -4   -1    0    0    0  501 -0.00000000000E+00  0.00000000000E+00  0.10940644351E+02  0.11014109080E+02  0.12700000000E+01 0.  1.
          4   -1    0    0  501    0  0.00000000000E+00 -0.00000000000E+00 -0.35577783717E+03  0.35578010388E+03  0.12700000000E+01 0.  1.
         25    2    1    2    0    0  0.00000000000E+00  0.00000000000E+00 -0.34483719282E+03  0.36679421296E+03  0.12500122045E+03 0.  0.
    9000005    1    3    3    0    0  0.17152073750E+02  0.60026959740E+02 -0.16417280417E+03  0.17564492352E+03  0.10000000000E+01 0.  0.
    9000005    1    3    3    0    0 -0.17152073750E+02 -0.60026959740E+02 -0.18066438865E+03  0.19114928944E+03  0.10000000000E+01 0.  0.
<mgrwt>
<rscale>  0 0.12500122E+03</rscale>
<asrwt>0</asrwt>
<pdfrwt beam="2">  1        4 0.54740869E-01 0.12500122E+03</pdfrwt>
<pdfrwt beam="1">  1       -4 0.16890018E-02 0.12500122E+03</pdfrwt>
<totfact> 0.67913832E+03</totfact>
</mgrwt>
</event>
<event>
 5    1  0.3267085E-002  0.1249993E+03  0.7818608E-02  0.1235070E+00
         -4   -1    0    0    0  501 -0.00000000000E+00  0.00000000000E+00  0.33970792746E+02  0.33994523968E+02  0.12700000000E+01 0. -1.
          4   -1    0    0  501    0  0.00000000000E+00 -0.00000000000E+00 -0.11491975723E+03  0.11492677452E+03  0.12700000000E+01 0. -1.
         25    2    1    2    0    0  0.00000000000E+00  0.00000000000E+00 -0.80948964487E+02  0.14892129849E+03  0.12499927317E+03 0.  0.
    9000005    1    3    3    0    0 -0.38712772238E+02 -0.33788047656E+02 -0.82846225975E+02  0.97492605140E+02  0.10000000000E+01 0.  0.
    9000005    1    3    3    0    0  0.38712772238E+02  0.33788047656E+02  0.18972614876E+01  0.51428693352E+02  0.10000000000E+01 0.  0.
<mgrwt>
<rscale>  0 0.12499927E+03</rscale>
<asrwt>0</asrwt>
<pdfrwt beam="2">  1        4 0.17682328E-01 0.12499927E+03</pdfrwt>
<pdfrwt beam="1">  1       -4 0.52286411E-02 0.12499927E+03</pdfrwt>
<totfact> 0.99520785E+03</totfact>
</mgrwt>
</event>
<event>
 5    1  0.3267085E-002  0.1250012E+03  0.7818608E-02  0.1235067E+00
         -4   -1    0    0    0  501 -0.00000000000E+00  0.00000000000E+00  0.55096654843E+02  0.55111289904E+02  0.12700000000E+01 0.  1.
          4   -1    0    0  501    0  0.00000000000E+00 -0.00000000000E+00 -0.70869748109E+02  0.70881126522E+02  0.12700000000E+01 0.  1.
         25    2    1    2    0    0  0.00000000000E+00  0.00000000000E+00 -0.15773093266E+02  0.12599241643E+03  0.12500119410E+03 0.  0.
    9000005    1    3    3    0    0 -0.60138695964E+02  0.43604961874E+01 -0.24437720732E+02  0.65068263184E+02  0.10000000000E+01 0.  0.
    9000005    1    3    3    0    0  0.60138695964E+02 -0.43604961874E+01  0.86646274659E+01  0.60924153243E+02  0.10000000000E+01 0.  0.
<mgrwt>
<rscale>  0 0.12500119E+03</rscale>
<asrwt>0</asrwt>
<pdfrwt beam="2">  1        4 0.10905039E-01 0.12500119E+03</pdfrwt>
<pdfrwt beam="1">  1       -4 0.84784095E-02 0.12500119E+03</pdfrwt>
<totfact> 0.10430842E+04</totfact>
</mgrwt>
</event>
<event>
 5    1  0.3267085E-002  0.1250039E+03  0.7818608E-02  0.1235063E+00
         -4   -1    0    0    0  501 -0.00000000000E+00  0.00000000000E+00  0.11696095461E+03  0.11696784945E+03  0.12700000000E+01 0. -1.
          4   -1    0    0  501    0  0.00000000000E+00 -0.00000000000E+00 -0.33380050591E+02  0.33404201494E+02  0.12700000000E+01 0. -1.
         25    2    1    2    0    0  0.00000000000E+00  0.00000000000E+00  0.83580904022E+02  0.15037205094E+03  0.12500394468E+03 0.  0.
    9000005    1    3    3    0    0 -0.11453433652E+02  0.12785394915E+02 -0.30494529396E+02  0.35008053197E+02  0.10000000000E+01 0.  0.
    9000005    1    3    3    0    0  0.11453433652E+02 -0.12785394915E+02  0.11407543342E+03  0.11536399774E+03  0.10000000000E+01 0.  0.
<mgrwt>
<rscale>  0 0.12500394E+03</rscale>
<asrwt>0</asrwt>
<pdfrwt beam="2">  1        4 0.51377805E-02 0.12500394E+03</pdfrwt>
<pdfrwt beam="1">  1       -4 0.17996381E-01 0.12500394E+03</pdfrwt>
<totfact> 0.99220778E+03</totfact>
</mgrwt>
</event>
<event>
 5    1  0.3267085E-002  0.1249959E+03  0.7818608E-02  0.1235076E+00
         -4   -1    0    0    0  501 -0.00000000000E+00  0.00000000000E+00  0.19662893904E+03  0.19663304037E+03  0.12700000000E+01 0.  1.
          4   -1    0    0  501    0  0.00000000000E+00 -0.00000000000E+00 -0.19840180792E+02  0.19880786551E+02  0.12700000000E+01 0.  1.
         25    2    1    2    0    0  0.00000000000E+00  0.00000000000E+00  0.17678875824E+03  0.21651382692E+03  0.12499588876E+03 0.  0.
    9000005    1    3    3    0    0  0.43076183420E+02 -0.29845676863E+02  0.14735607750E+03  0.15640056133E+03  0.10000000000E+01 0.  0.
    9000005    1    3    3    0    0 -0.43076183420E+02  0.29845676863E+02  0.29432680740E+02  0.60113265599E+02  0.10000000000E+01 0.  0.
<mgrwt>
<rscale>  0 0.12499589E+03</rscale>
<asrwt>0</asrwt>
<pdfrwt beam="2">  1        4 0.30557747E-02 0.12499589E+03</pdfrwt>
<pdfrwt beam="1">  1       -4 0.30254043E-01 0.12499589E+03</pdfrwt>
<totfact> 0.87431047E+03</totfact>
</mgrwt>
</event>
<event>
 5    1  0.3267085E-002  0.1250012E+03  0.7818608E-02  0.1235067E+00
          4   -1    0    0  501    0  0.00000000000E+00  0.00000000000E+00  0.14972138977E+03  0.14972677601E+03  0.12700000000E+01 0.  1.
         -4   -1    0    0    0  501 -0.00000000000E+00 -0.00000000000E+00 -0.26069322138E+02  0.26100238634E+02  0.12700000000E+01 0.  1.
         25    2    1    2    0    0  0.00000000000E+00  0.00000000000E+00  0.12365206763E+03  0.17582701464E+03  0.12500122099E+03 0.  0.
    9000005    1    3    3    0    0 -0.47148072274E+02  0.25923918240E+02  0.10653599298E+03  0.11935622337E+03  0.10000000000E+01 0.  0.
    9000005    1    3    3    0    0  0.47148072274E+02 -0.25923918240E+02  0.17116074651E+02  0.56470791277E+02  0.10000000000E+01 0.  0.
<mgrwt>
<rscale>  0 0.12500122E+03</rscale>
<asrwt>0</asrwt>
<pdfrwt beam="1">  1        4 0.23036853E-01 0.12500122E+03</pdfrwt>
<pdfrwt beam="2">  1       -4 0.40134574E-02 0.12500122E+03</pdfrwt>
<totfact> 0.94371008E+03</totfact>
</mgrwt>
</event>
<event>
 5    1  0.3267085E-002  0.1250021E+03  0.7818608E-02  0.1235066E+00
         -4   -1    0    0    0  501 -0.00000000000E+00  0.00000000000E+00  0.67667579185E+02  0.67679495956E+02  0.12700000000E+01 0.  1.
          4   -1    0    0  501    0  0.00000000000E+00 -0.00000000000E+00 -0.57705009803E+02  0.57718983501E+02  0.12700000000E+01 0.  1.
         25    2    1    2    0    0  0.00000000000E+00  0.00000000000E+00  0.99625693821E+01  0.12539847946E+03  0.12500210343E+03 0.  0.
    9000005    1    3    3    0    0  0.61235771684E+02  0.11555932241E+02  0.96889428792E+01  0.63073250414E+02  0.10000000000E+01 0.  0.
    9000005    1    3    3    0    0 -0.61235771684E+02 -0.11555932241E+02  0.27362650288E+00  0.62325229042E+02  0.10000000000E+01 0.  0.
<mgrwt>
<rscale>  0 0.12500210E+03</rscale>
<asrwt>0</asrwt>
<pdfrwt beam="2">  1        4 0.88796854E-02 0.12500210E+03</pdfrwt>
<pdfrwt beam="1">  1       -4 0.10412388E-01 0.12500210E+03</pdfrwt>
<totfact> 0.10443705E+04</totfact>
</mgrwt>
</event>
<event>
 5    1  0.3267085E-002  0.1250054E+03  0.7818608E-02  0.1235061E+00
         -4   -1    0    0    0  501 -0.00000000000E+00  0.00000000000E+00  0.50477785658E+01  0.52050906283E+01  0.12700000000E+01 0.  1.
          4   -1    0    0  501    0  0.00000000000E+00 -0.00000000000E+00 -0.76188937813E+03  0.76189043662E+03  0.12700000000E+01 0.  1.
         25    2    1    2    0    0  0.00000000000E+00  0.00000000000E+00 -0.75684159957E+03  0.76709552725E+03  0.12500536424E+03 0.  0.
    9000005    1    3    3    0    0 -0.20751066260E+02 -0.57281542704E+02 -0.46384904417E+03  0.46783407065E+03  0.10000000000E+01 0.  0.
    9000005    1    3    3    0    0  0.20751066260E+02  0.57281542704E+02 -0.29299255540E+03  0.29926145660E+03  0.10000000000E+01 0.  0.
<mgrwt>
<rscale>  0 0.12500536E+03</rscale>
<asrwt>0</asrwt>
<pdfrwt beam="2">  1        4 0.11722584E+00 0.12500536E+03</pdfrwt>
<pdfrwt beam="1">  1       -4 0.78876427E-03 0.12500536E+03</pdfrwt>
<totfact> 0.39764862E+03</totfact>
</mgrwt>
</event>
<event>
 5    1  0.3267085E-002  0.1249977E+03  0.7818608E-02  0.1235073E+00
          4   -1    0    0  501    0  0.00000000000E+00  0.00000000000E+00  0.11658399689E+02  0.11727368984E+02  0.12700000000E+01 0. -1.
         -4   -1    0    0    0  501 -0.00000000000E+00 -0.00000000000E+00 -0.33398835508E+03  0.33399076968E+03  0.12700000000E+01 0. -1.
         25    2    1    2    0    0  0.00000000000E+00  0.00000000000E+00 -0.32232995539E+03  0.34571813866E+03  0.12499772501E+03 0.  0.
    9000005    1    3    3    0    0 -0.46423393806E+02 -0.37694917822E+02 -0.21133726121E+03  0.21963714689E+03  0.10000000000E+01 0.  0.
    9000005    1    3    3    0    0  0.46423393806E+02  0.37694917822E+02 -0.11099269419E+03  0.12608099177E+03  0.10000000000E+01 0.  0.
<mgrwt>
<rscale>  0 0.12499773E+03</rscale>
<asrwt>0</asrwt>
<pdfrwt beam="1">  1        4 0.17990913E-02 0.12499773E+03</pdfrwt>
<pdfrwt beam="2">  1       -4 0.51388308E-01 0.12499773E+03</pdfrwt>
<totfact> 0.70201734E+03</totfact>
</mgrwt>
</event>
<event>
 5    1  0.3267085E-002  0.1250024E+03  0.7818608E-02  0.1235065E+00
         -4   -1    0    0    0  501 -0.00000000000E+00  0.00000000000E+00  0.40712393978E+03  0.40712592062E+03  0.12700000000E+01 0.  1.
          4   -1    0    0  501    0  0.00000000000E+00 -0.00000000000E+00 -0.95510785396E+01  0.96351440710E+01  0.12700000000E+01 0.  1.
         25    2    1    2    0    0  0.00000000000E+00  0.00000000000E+00  0.39757286124E+03  0.41676106469E+03  0.12500242017E+03 0.  0.
    9000005    1    3    3    0    0 -0.48516255288E+02 -0.25673505154E+02  0.29838647623E+03  0.30339486662E+03  0.10000000000E+01 0.  0.
    9000005    1    3    3    0    0  0.48516255288E+02  0.25673505154E+02  0.99186385008E+02  0.11336619807E+03  0.10000000000E+01 0.  0.
<mgrwt>
<rscale>  0 0.12500242E+03</rscale>
<asrwt>0</asrwt>
<pdfrwt beam="2">  1        4 0.14760155E-02 0.12500242E+03</pdfrwt>
<pdfrwt beam="1">  1       -4 0.62641077E-01 0.12500242E+03</pdfrwt>
<totfact> 0.62951266E+03</totfact>
</mgrwt>
</event>
<event>
 5    1  0.3267085E-002  0.1249995E+03  0.7818608E-02  0.1235070E+00
         -4   -1    0    0    0  501 -0.00000000000E+00  0.00000000000E+00  0.11085636715E+04  0.11085643990E+04  0.12700000000E+01 0.  1.
          4   -1    0    0  501    0  0.00000000000E+00 -0.00000000000E+00 -0.34084897068E+01  0.36374032058E+01  0.12700000000E+01 0.  1.
         25    2    1    2    0    0  0.00000000000E+00  0.00000000000E+00  0.11051551818E+04  0.11122018022E+04  0.12499949170E+03 0.  0.
    9000005    1    3    3    0    0 -0.34570976515E+02 -0.19084013468E+02  0.12162750613E+03  0.12788120360E+03  0.10000000000E+01 0.  0.
    9000005    1    3    3    0    0  0.34570976515E+02  0.19084013468E+02  0.98352767570E+03  0.98432059862E+03  0.10000000000E+01 0.  0.
<mgrwt>
<rscale>  0 0.12499949E+03</rscale>
<asrwt>0</asrwt>
<pdfrwt beam="2">  1        4 0.54204737E-03 0.12499949E+03</pdfrwt>
<pdfrwt beam="1">  1       -4 0.17056603E+00 0.12499949E+03</pdfrwt>
<totfact> 0.27129281E+03</totfact>
</mgrwt>
</event>
<event>
 5    1  0.3267085E-002  0.1249995E+03  0.7818608E-02  0.1235070E+00
         -4   -1    0    0    0  501 -0.00000000000E+00  0.00000000000E+00  0.16260925726E+02  0.16310444674E+02  0.12700000000E+01 0.  1.
          4   -1    0    0  501    0  0.00000000000E+00 -0.00000000000E+00 -0.23980459122E+03  0.23980795414E+03  0.12700000000E+01 0.  1.
         25    2    1    2    0    0  0.00000000000E+00  0.00000000000E+00 -0.22354366549E+03  0.25611839881E+03  0.12499945532E+03 0.  0.
    9000005    1    3    3    0    0 -0.56405846526E+02 -0.26049470373E+02 -0.12551993567E+03  0.14005873297E+03  0.10000000000E+01 0.  0.
    9000005    1    3    3    0    0  0.56405846526E+02  0.26049470373E+02 -0.98023729818E+02  0.11605966585E+03  0.10000000000E+01 0.  0.
<mgrwt>
<rscale>  0 0.12499946E+03</rscale>
<asrwt>0</asrwt>
<pdfrwt beam="2">  1        4 0.36897079E-01 0.12499946E+03</pdfrwt>
<pdfrwt beam="1">  1       -4 0.25057489E-02 0.12499946E+03</pdfrwt>
<totfact> 0.81454882E+03</totfact>
</mgrwt>
</event>
<event>
 5    1  0.3267085E-002  0.1249961E+03  0.7818608E-02  0.1235075E+00
          4   -1    0    0  501    0  0.00000000000E+00  0.00000000000E+00  0.58781778493E+03  0.58781915687E+03  0.12700000000E+01 0. -1.
         -4   -1    0    0    0  501 -0.00000000000E+00 -0.00000000000E+00 -0.65828479199E+01  0.67042364768E+01  0.12700000000E+01 0. -1.
         25    2    1    2    0    0  0.00000000000E+00  0.00000000000E+00  0.58123493701E+03  0.59452339335E+03  0.12499605287E+03 0.  0.
    9000005    1    3    3    0    0  0.13849526999E+02 -0.34344541788E+02  0.53002932115E+03  0.53132234870E+03  0.10000000000E+01 0.  0.
    9000005    1    3    3    0    0 -0.13849526999E+02  0.34344541788E+02  0.51205615866E+02  0.63201044650E+02  0.10000000000E+01 0.  0.
<mgrwt>
<rscale>  0 0.12499605E+03</rscale>
<asrwt>0</asrwt>
<pdfrwt beam="1">  1        4 0.90442938E-01 0.12499605E+03</pdfrwt>
<pdfrwt beam="2">  1       -4 0.10221891E-02 0.12499605E+03</pdfrwt>
<totfact> 0.49219409E+03</totfact>
</mgrwt>
</event>
<event>
 5    1  0.3267085E-002  0.1250001E+03  0.7818608E-02  0.1235069E+00
          4   -1    0    0  501    0  0.00000000000E+00  0.00000000000E+00  0.69268611448E+03  0.69268727871E+03  0.12700000000E+01 0. -1.
         -4   -1    0    0    0  501 -0.00000000000E+00 -0.00000000000E+00 -0.55666046120E+01  0.57096398228E+01  0.12700000000E+01 0. -1.
         25    2    1    2    0    0  0.00000000000E+00  0.00000000000E+00  0.68711950987E+03  0.69839691854E+03  0.12500013993E+03 0.  0.
    9000005    1    3    3    0    0  0.26119498070E+02 -0.39491443569E+02  0.11568430817E+03  0.12500264577E+03  0.10000000000E+01 0.  0.
    9000005    1    3    3    0    0 -0.26119498070E+02  0.39491443569E+02  0.57143520170E+03  0.57339427276E+03  0.10000000000E+01 0.  0.
<mgrwt>
<rscale>  0 0.12500014E+03</rscale>
<asrwt>0</asrwt>
<pdfrwt beam="1">  1        4 0.10657809E+00 0.12500014E+03</pdfrwt>
<pdfrwt beam="2">  1       -4 0.86749375E-03 0.12500014E+03</pdfrwt>
<totfact> 0.43171348E+03</totfact>
</mgrwt>
</event>
<event>
 5    1  0.3267085E-002  0.1249962E+03  0.7818608E-02  0.1235075E+00
         -4   -1    0    0    0  501 -0.00000000000E+00  0.00000000000E+00  0.54344093956E+01  0.55808337620E+01  0.12700000000E+01 0. -1.
          4   -1    0    0  501    0  0.00000000000E+00 -0.00000000000E+00 -0.70905388896E+03  0.70905502632E+03  0.12700000000E+01 0. -1.
         25    2    1    2    0    0  0.00000000000E+00  0.00000000000E+00 -0.70361947957E+03  0.71463586008E+03  0.12499616191E+03 0.  0.
    9000005    1    3    3    0    0 -0.50544949828E+01 -0.38382776963E+02 -0.71359244263E+02  0.81190684372E+02  0.10000000000E+01 0.  0.
    9000005    1    3    3    0    0  0.50544949828E+01  0.38382776963E+02 -0.63226023530E+03  0.63344517571E+03  0.10000000000E+01 0.  0.
<mgrwt>
<rscale>  0 0.12499616E+03</rscale>
<asrwt>0</asrwt>
<pdfrwt beam="2">  1        4 0.10909649E+00 0.12499616E+03</pdfrwt>
<pdfrwt beam="1">  1       -4 0.84741445E-03 0.12499616E+03</pdfrwt>
<totfact> 0.42328845E+03</totfact>
</mgrwt>
</event>
<event>
 5    1  0.3267085E-002  0.1250015E+03  0.7818608E-02  0.1235067E+00
         -4   -1    0    0    0  501 -0.00000000000E+00  0.00000000000E+00  0.31905891776E+02  0.31931157668E+02  0.12700000000E+01 0. -1.
          4   -1    0    0  501    0  0.00000000000E+00 -0.00000000000E+00 -0.12235631575E+03  0.12236290657E+03  0.12700000000E+01 0. -1.
         25    2    1    2    0    0  0.00000000000E+00  0.00000000000E+00 -0.90450423977E+02  0.15429406424E+03  0.12500151624E+03 0.  0.
    9000005    1    3    3    0    0  0.90518403492E+01 -0.30329923713E+02  0.21286052275E+02  0.38156730830E+02  0.10000000000E+01 0.  0.
    9000005    1    3    3    0    0 -0.90518403492E+01  0.30329923713E+02 -0.11173647625E+03  0.11613733341E+03  0.10000000000E+01 0.  0.
<mgrwt>
<rscale>  0 0.12500152E+03</rscale>
<asrwt>0</asrwt>
<pdfrwt beam="2">  1        4 0.18826499E-01 0.12500152E+03</pdfrwt>
<pdfrwt beam="1">  1       -4 0.49110493E-02 0.12500152E+03</pdfrwt>
<totfact> 0.98450904E+03</totfact>
</mgrwt>
</event>
<event>
 5    1  0.3267085E-002  0.1250015E+03  0.7818608E-02  0.1235067E+00
         -4   -1    0    0    0  501 -0.00000000000E+00  0.00000000000E+00  0.27117575906E+03  0.27117873294E+03  0.12700000000E+01 0.  1.
          4   -1    0    0  501    0  0.00000000000E+00 -0.00000000000E+00 -0.14374152787E+02  0.14430147897E+02  0.12700000000E+01 0.  1.
         25    2    1    2    0    0  0.00000000000E+00  0.00000000000E+00  0.25680160627E+03  0.28560888084E+03  0.12500147132E+03 0.  0.
    9000005    1    3    3    0    0 -0.13316564440E+02  0.39591908516E+02  0.22198753435E+02  0.47314213113E+02  0.10000000000E+01 0.  0.
    9000005    1    3    3    0    0  0.13316564440E+02 -0.39591908516E+02  0.23460285283E+03  0.23829466772E+03  0.10000000000E+01 0.  0.
<mgrwt>
<rscale>  0 0.12500147E+03</rscale>
<asrwt>0</asrwt>
<pdfrwt beam="2">  1        4 0.22159443E-02 0.12500147E+03</pdfrwt>
<pdfrwt beam="1">  1       -4 0.41723882E-01 0.12500147E+03</pdfrwt>
<totfact> 0.77437707E+03</totfact>
</mgrwt>
</event>
<event>
 5    1  0.3267085E-002  0.1250038E+03  0.7818608E-02  0.1235063E+00
          4   -1    0    0  501    0  0.00000000000E+00  0.00000000000E+00  0.33329125229E+02  0.33353313007E+02  0.12700000000E+01 0.  1.
         -4   -1    0    0    0  501 -0.00000000000E+00 -0.00000000000E+00 -0.11713928755E+03  0.11714617189E+03  0.12700000000E+01 0.  1.
         25    2    1    2    0    0  0.00000000000E+00  0.00000000000E+00 -0.83810162322E+02  0.15049948489E+03  0.12500380652E+03 0.  0.
    9000005    1    3    3    0    0  0.39665814603E+02  0.38717578396E+02 -0.71554687424E+01  0.55898376165E+02  0.10000000000E+01 0.  0.
    9000005    1    3    3    0    0 -0.39665814603E+02 -0.38717578396E+02 -0.76654693580E+02  0.94601108729E+02  0.10000000000E+01 0.  0.
<mgrwt>
<rscale>  0 0.12500381E+03</rscale>
<asrwt>0</asrwt>
<pdfrwt beam="1">  1        4 0.51299479E-02 0.12500381E+03</pdfrwt>
<pdfrwt beam="2">  1       -4 0.18023819E-01 0.12500381E+03</pdfrwt>
<totfact> 0.99195729E+03</totfact>
</mgrwt>
</event>
<event>
 5    1  0.3267085E-002  0.1250030E+03  0.7818608E-02  0.1235065E+00
          4   -1    0    0  501    0  0.00000000000E+00  0.00000000000E+00  0.28385145512E+04  0.28385148354E+04  0.12700000000E+01 0. -1.
         -4   -1    0    0    0  501 -0.00000000000E+00 -0.00000000000E+00 -0.10828888781E+01  0.16689962020E+01  0.12700000000E+01 0. -1.
         25    2    1    2    0    0  0.00000000000E+00  0.00000000000E+00  0.28374316624E+04  0.28401838316E+04  0.12500303370E+03 0.  0.
    9000005    1    3    3    0    0  0.31195252641E+02 -0.45767056114E+02  0.20763176411E+04  0.20770565023E+04  0.10000000000E+01 0.  0.
    9000005    1    3    3    0    0 -0.31195252641E+02  0.45767056114E+02  0.76111402127E+03  0.76312732921E+03  0.10000000000E+01 0.  0.
<mgrwt>
<rscale>  0 0.12500303E+03</rscale>
<asrwt>0</asrwt>
<pdfrwt beam="1">  1        4 0.43674288E+00 0.12500303E+03</pdfrwt>
<pdfrwt beam="2">  1       -4 0.21170376E-03 0.12500303E+03</pdfrwt>
<totfact> 0.25131890E+02</totfact>
</mgrwt>
</event>
<event>
 5    1  0.3267085E-002  0.1249978E+03  0.7818608E-02  0.1235073E+00
         -4   -1    0    0    0  501 -0.00000000000E+00  0.00000000000E+00  0.39875467185E+02  0.39895686273E+02  0.12700000000E+01 0.  1.
          4   -1    0    0  501    0  0.00000000000E+00 -0.00000000000E+00 -0.97908541900E+02  0.97916778322E+02  0.12700000000E+01 0.  1.
         25    2    1    2    0    0  0.00000000000E+00  0.00000000000E+00 -0.58033074715E+02  0.13781246460E+03  0.12499775053E+03 0.  0.
    9000005    1    3    3    0    0  0.54954017710E+02 -0.24159101373E+02 -0.48160517790E+02  0.76967796613E+02  0.10000000000E+01 0.  0.
    9000005    1    3    3    0    0 -0.54954017710E+02  0.24159101373E+02 -0.98725569251E+01  0.60844667982E+02  0.10000000000E+01 0.  0.
<mgrwt>
<rscale>  0 0.12499775E+03</rscale>
<asrwt>0</asrwt>
<pdfrwt beam="2">  1        4 0.15065041E-01 0.12499775E+03</pdfrwt>
<pdfrwt beam="1">  1       -4 0.61368761E-02 0.12499775E+03</pdfrwt>
<totfact> 0.10179642E+04</totfact>
</mgrwt>
</event>
<event>
 5    1  0.3267085E-002  0.1249958E+03  0.7818608E-02  0.1235076E+00
         -4   -1    0    0    0  501 -0.00000000000E+00  0.00000000000E+00  0.17640857162E+02  0.17686512980E+02  0.12700000000E+01 0.  1.
          4   -1    0    0  501    0  0.00000000000E+00 -0.00000000000E+00 -0.22108333221E+03  0.22108697990E+03  0.12700000000E+01 0.  1.
         25    2    1    2    0    0  0.00000000000E+00  0.00000000000E+00 -0.20344247505E+03  0.23877349288E+03  0.12499576092E+03 0.  0.
    9000005    1    3    3    0    0  0.47843701206E+02 -0.40184024246E+02 -0.10382209213E+03  0.12117674019E+03  0.10000000000E+01 0.  0.
    9000005    1    3    3    0    0 -0.47843701206E+02  0.40184024246E+02 -0.99620382921E+02  0.11759675269E+03  0.10000000000E+01 0.  0.
<mgrwt>
<rscale>  0 0.12499576E+03</rscale>
<asrwt>0</asrwt>
<pdfrwt beam="2">  1        4 0.34016611E-01 0.12499576E+03</pdfrwt>
<pdfrwt beam="1">  1       -4 0.27177708E-02 0.12499576E+03</pdfrwt>
<totfact> 0.83988312E+03</totfact>
</mgrwt>
</event>
<event>
 5    1  0.3267085E-002  0.1249966E+03  0.7818608E-02  0.1235075E+00
          4   -1    0    0  501    0  0.00000000000E+00  0.00000000000E+00  0.19544063661E+02  0.19585283363E+02  0.12700000000E+01 0. -1.
         -4   -1    0    0    0  501 -0.00000000000E+00 -0.00000000000E+00 -0.19960416674E+03  0.19960820695E+03  0.12700000000E+01 0. -1.
         25    2    1    2    0    0  0.00000000000E+00  0.00000000000E+00 -0.18006010308E+03  0.21919349031E+03  0.12499658185E+03 0.  0.
    9000005    1    3    3    0    0 -0.43280952429E+02  0.43024210696E+02 -0.66456555454E+02  0.90231908502E+02  0.10000000000E+01 0.  0.
    9000005    1    3    3    0    0  0.43280952429E+02 -0.43024210696E+02 -0.11360354763E+03  0.12896158181E+03  0.10000000000E+01 0.  0.
<mgrwt>
<rscale>  0 0.12499658E+03</rscale>
<asrwt>0</asrwt>
<pdfrwt beam="1">  1        4 0.30102607E-02 0.12499658E+03</pdfrwt>
<pdfrwt beam="2">  1       -4 0.30711813E-01 0.12499658E+03</pdfrwt>
<totfact> 0.87002774E+03</totfact>
</mgrwt>
</event>
<event>
 5    1  0.3267085E-002  0.1250111E+03  0.7818608E-02  0.1235052E+00
          4   -1    0    0  501    0  0.00000000000E+00  0.00000000000E+00  0.10153249422E+03  0.10154043669E+03  0.12700000000E+01 0. -1.
         -4   -1    0    0    0  501 -0.00000000000E+00 -0.00000000000E+00 -0.38459779318E+02  0.38480742264E+02  0.12700000000E+01 0. -1.
         25    2    1    2    0    0  0.00000000000E+00  0.00000000000E+00  0.63072714906E+02  0.14002117895E+03  0.12501105227E+03 0.  0.
    9000005    1    3    3    0    0 -0.59386321074E+02 -0.13655144928E+02  0.15986218641E+02  0.63006010031E+02  0.10000000000E+01 0.  0.
    9000005    1    3    3    0    0  0.59386321074E+02  0.13655144928E+02  0.47086496265E+02  0.77015168922E+02  0.10000000000E+01 0.  0.
<mgrwt>
<rscale>  0 0.12501105E+03</rscale>
<asrwt>0</asrwt>
<pdfrwt beam="1">  1        4 0.15622607E-01 0.12501105E+03</pdfrwt>
<pdfrwt beam="2">  1       -4 0.59191128E-02 0.12501105E+03</pdfrwt>
<totfact> 0.10130624E+04</totfact>
</mgrwt>
</event>
<event>
 5    1  0.3267085E-002  0.1250238E+03  0.7818608E-02  0.1235032E+00
          4   -1    0    0  501    0  0.00000000000E+00  0.00000000000E+00  0.72218368544E+01  0.73326548774E+01  0.12700000000E+01 0. -1.
         -4   -1    0    0    0  501 -0.00000000000E+00 -0.00000000000E+00 -0.53686833813E+03  0.53686984027E+03  0.12700000000E+01 0. -1.
         25    2    1    2    0    0  0.00000000000E+00  0.00000000000E+00 -0.52964650128E+03  0.54420249514E+03  0.12502375537E+03 0.  0.
    9000005    1    3    3    0    0 -0.28116607427E+02  0.28333499780E+02 -0.55463239535E+02  0.68341069371E+02  0.10000000000E+01 0.  0.
    9000005    1    3    3    0    0  0.28116607427E+02 -0.28333499780E+02 -0.47418326174E+03  0.47586142577E+03  0.10000000000E+01 0.  0.
<mgrwt>
<rscale>  0 0.12502376E+03</rscale>
<asrwt>0</asrwt>
<pdfrwt beam="1">  1        4 0.11196923E-02 0.12502376E+03</pdfrwt>
<pdfrwt beam="2">  1       -4 0.82603738E-01 0.12502376E+03</pdfrwt>
<totfact> 0.52563405E+03</totfact>
</mgrwt>
</event>
<event>
 5    1  0.3267085E-002  0.1250056E+03  0.7818608E-02  0.1235061E+00
          4   -1    0    0  501    0  0.00000000000E+00  0.00000000000E+00  0.93863626343E+03  0.93863712260E+03  0.12700000000E+01 0.  1.
         -4   -1    0    0    0  501 -0.00000000000E+00 -0.00000000000E+00 -0.40642321181E+01  0.42580374247E+01  0.12700000000E+01 0.  1.
         25    2    1    2    0    0  0.00000000000E+00  0.00000000000E+00  0.93457203131E+03  0.94289516002E+03  0.12500560424E+03 0.  0.
    9000005    1    3    3    0    0 -0.22195369384E+02 -0.51413259315E+02  0.67654228416E+03  0.67885670057E+03  0.10000000000E+01 0.  0.
    9000005    1    3    3    0    0  0.22195369384E+02  0.51413259315E+02  0.25802974715E+03  0.26403845945E+03  0.10000000000E+01 0.  0.
<mgrwt>
<rscale>  0 0.12500560E+03</rscale>
<asrwt>0</asrwt>
<pdfrwt beam="1">  1        4 0.14442059E+00 0.12500560E+03</pdfrwt>
<pdfrwt beam="2">  1       -4 0.64024050E-03 0.12500560E+03</pdfrwt>
<totfact> 0.32565580E+03</totfact>
</mgrwt>
</event>
<event>
 5    1  0.3267085E-002  0.1250019E+03  0.7818608E-02  0.1235066E+00
          4   -1    0    0  501    0  0.00000000000E+00  0.00000000000E+00  0.23548560535E+02  0.23582781924E+02  0.12700000000E+01 0. -1.
         -4   -1    0    0    0  501 -0.00000000000E+00 -0.00000000000E+00 -0.16572851862E+03  0.16573338464E+03  0.12700000000E+01 0. -1.
         25    2    1    2    0    0  0.00000000000E+00  0.00000000000E+00 -0.14217995808E+03  0.18931616656E+03  0.12500188175E+03 0.  0.
    9000005    1    3    3    0    0  0.17632074953E+02  0.37935209260E+02 -0.77710783549E+00  0.41851810777E+02  0.10000000000E+01 0.  0.
    9000005    1    3    3    0    0 -0.17632074953E+02 -0.37935209260E+02 -0.14140285025E+03  0.14746435578E+03  0.10000000000E+01 0.  0.
<mgrwt>
<rscale>  0 0.12500188E+03</rscale>
<asrwt>0</asrwt>
<pdfrwt beam="1">  1        4 0.36258623E-02 0.12500188E+03</pdfrwt>
<pdfrwt beam="2">  1       -4 0.25499701E-01 0.12500188E+03</pdfrwt>
<totfact> 0.91962559E+03</totfact>
</mgrwt>
</event>
<event>
 5    1  0.3267085E-002  0.1250041E+03  0.7818608E-02  0.1235063E+00
         -4   -1    0    0    0  501 -0.00000000000E+00  0.00000000000E+00  0.16595337092E+03  0.16595823035E+03  0.12700000000E+01 0.  1.
          4   -1    0    0  501    0  0.00000000000E+00 -0.00000000000E+00 -0.23517459693E+02  0.23551726273E+02  0.12700000000E+01 0.  1.
         25    2    1    2    0    0  0.00000000000E+00  0.00000000000E+00  0.14243591123E+03  0.18950995662E+03  0.12500413934E+03 0.  0.
    9000005    1    3    3    0    0  0.31342431653E+02 -0.44121858536E+02  0.11859047481E+03  0.13036022069E+03  0.10000000000E+01 0.  0.
    9000005    1    3    3    0    0 -0.31342431653E+02  0.44121858536E+02  0.23845436415E+02  0.59149735928E+02  0.10000000000E+01 0.  0.
<mgrwt>
<rscale>  0 0.12500414E+03</rscale>
<asrwt>0</asrwt>
<pdfrwt beam="2">  1        4 0.36210805E-02 0.12500414E+03</pdfrwt>
<pdfrwt beam="1">  1       -4 0.25534297E-01 0.12500414E+03</pdfrwt>
<totfact> 0.91924127E+03</totfact>
</mgrwt>
</event>
<event>
 5    1  0.3267085E-002  0.1249923E+03  0.7818608E-02  0.1235081E+00
          4   -1    0    0  501    0  0.00000000000E+00  0.00000000000E+00  0.45766322950E+02  0.45783940595E+02  0.12700000000E+01 0. -1.
         -4   -1    0    0    0  501 -0.00000000000E+00 -0.00000000000E+00 -0.85302839567E+02  0.85312293007E+02  0.12700000000E+01 0. -1.
         25    2    1    2    0    0  0.00000000000E+00  0.00000000000E+00 -0.39536516617E+02  0.13109623360E+03  0.12499234504E+03 0.  0.
    9000005    1    3    3    0    0  0.14402080820E+01 -0.56477273421E+02  0.82380665210E+01  0.57101859448E+02  0.10000000000E+01 0.  0.
    9000005    1    3    3    0    0 -0.14402080820E+01  0.56477273421E+02 -0.47774583138E+02  0.73994374154E+02  0.10000000000E+01 0.  0.
<mgrwt>
<rscale>  0 0.12499235E+03</rscale>
<asrwt>0</asrwt>
<pdfrwt beam="1">  1        4 0.70430552E-02 0.12499235E+03</pdfrwt>
<pdfrwt beam="2">  1       -4 0.13125596E-01 0.12499235E+03</pdfrwt>
<totfact> 0.10322809E+04</totfact>
</mgrwt>
</event>
<event>
 5    1  0.3267085E-002  0.1249952E+03  0.7818608E-02  0.1235077E+00
          4   -1    0    0  501    0  0.00000000000E+00  0.00000000000E+00  0.68125264462E+02  0.68137101186E+02  0.12700000000E+01 0.  1.
         -4   -1    0    0    0  501 -0.00000000000E+00 -0.00000000000E+00 -0.57310975813E+02  0.57325045562E+02  0.12700000000E+01 0.  1.
         25    2    1    2    0    0  0.00000000000E+00  0.00000000000E+00  0.10814288649E+02  0.12546214675E+03  0.12499520562E+03 0.  0.
    9000005    1    3    3    0    0 -0.17736284747E+02 -0.53323055291E+02  0.32841029409E+02  0.65095754353E+02  0.10000000000E+01 0.  0.
    9000005    1    3    3    0    0  0.17736284747E+02  0.53323055291E+02 -0.22026740761E+02  0.60366392394E+02  0.10000000000E+01 0.  0.
<mgrwt>
<rscale>  0 0.12499521E+03</rscale>
<asrwt>0</asrwt>
<pdfrwt beam="1">  1        4 0.10482803E-01 0.12499521E+03</pdfrwt>
<pdfrwt beam="2">  1       -4 0.88190660E-02 0.12499521E+03</pdfrwt>
<totfact> 0.10443920E+04</totfact>
</mgrwt>
</event>
<event>
 5    1  0.3267085E-002  0.1250027E+03  0.7818608E-02  0.1235065E+00
         -4   -1    0    0    0  501 -0.00000000000E+00  0.00000000000E+00  0.12585863706E+03  0.12586504449E+03  0.12700000000E+01 0.  1.
          4   -1    0    0  501    0  0.00000000000E+00 -0.00000000000E+00 -0.31017936289E+02  0.31043924875E+02  0.12700000000E+01 0.  1.
         25    2    1    2    0    0  0.00000000000E+00  0.00000000000E+00  0.94840700774E+02  0.15690896936E+03  0.12500266454E+03 0.  0.
    9000005    1    3    3    0    0 -0.56597624064E+02  0.22737691472E+02  0.30341503715E+02  0.68131494265E+02  0.10000000000E+01 0.  0.
    9000005    1    3    3    0    0  0.56597624064E+02 -0.22737691472E+02  0.64499197058E+02  0.88777475095E+02  0.10000000000E+01 0.  0.
<mgrwt>
<rscale>  0 0.12500266E+03</rscale>
<asrwt>0</asrwt>
<pdfrwt beam="2">  1        4 0.47744822E-02 0.12500266E+03</pdfrwt>
<pdfrwt beam="1">  1       -4 0.19365359E-01 0.12500266E+03</pdfrwt>
<totfact> 0.97936175E+03</totfact>
</mgrwt>
</event>
<event>
 5    1  0.3267085E-002  0.1250027E+03  0.7818608E-02  0.1235065E+00
         -4   -1    0    0    0  501 -0.00000000000E+00  0.00000000000E+00  0.98125822180E+02  0.98134040366E+02  0.12700000000E+01 0.  1.
          4   -1    0    0  501    0  0.00000000000E+00 -0.00000000000E+00 -0.39790263131E+02  0.39810525493E+02  0.12700000000E+01 0.  1.
         25    2    1    2    0    0  0.00000000000E+00  0.00000000000E+00  0.58335559049E+02  0.13794456586E+03  0.12500266317E+03 0.  0.
    9000005    1    3    3    0    0  0.47778618771E+02  0.30839065074E+02  0.57765515673E+02  0.81066017216E+02  0.10000000000E+01 0.  0.
    9000005    1    3    3    0    0 -0.47778618771E+02 -0.30839065074E+02  0.57004337632E+00  0.56878548643E+02  0.10000000000E+01 0.  0.
<mgrwt>
<rscale>  0 0.12500266E+03</rscale>
<asrwt>0</asrwt>
<pdfrwt beam="2">  1        4 0.61237698E-02 0.12500266E+03</pdfrwt>
<pdfrwt beam="1">  1       -4 0.15098471E-01 0.12500266E+03</pdfrwt>
<totfact> 0.10175754E+04</totfact>
</mgrwt>
</event>
<event>
 5    1  0.3267085E-002  0.1250019E+03  0.7818608E-02  0.1235066E+00
         -4   -1    0    0    0  501 -0.00000000000E+00  0.00000000000E+00  0.16221224918E+03  0.16221722067E+03  0.12700000000E+01 0. -1.
          4   -1    0    0  501    0  0.00000000000E+00 -0.00000000000E+00 -0.24059740314E+02  0.24093235648E+02  0.12700000000E+01 0. -1.
         25    2    1    2    0    0  0.00000000000E+00  0.00000000000E+00  0.13815250886E+03  0.18631045632E+03  0.12500188170E+03 0.  0.
    9000005    1    3    3    0    0 -0.18468347284E+02 -0.54949748726E+02  0.34287061130E+02  0.67358424101E+02  0.10000000000E+01 0.  0.
    9000005    1    3    3    0    0  0.18468347284E+02  0.54949748726E+02  0.10386544773E+03  0.11895203222E+03  0.10000000000E+01 0.  0.
<mgrwt>
<rscale>  0 0.12500188E+03</rscale>
<asrwt>0</asrwt>
<pdfrwt beam="2">  1        4 0.37044574E-02 0.12500188E+03</pdfrwt>
<pdfrwt beam="1">  1       -4 0.24958690E-01 0.12500188E+03</pdfrwt>
<totfact> 0.92489375E+03</totfact>
</mgrwt>
</event>
<event>
 5    1  0.3267085E-002  0.1249985E+03  0.7818608E-02  0.1235072E+00
         -4   -1    0    0    0  501 -0.00000000000E+00  0.00000000000E+00  0.45971840444E+02  0.45989379359E+02  0.12700000000E+01 0.  1.
          4   -1    0    0  501    0  0.00000000000E+00 -0.00000000000E+00 -0.84929922274E+02  0.84939417219E+02  0.12700000000E+01 0.  1.
         25    2    1    2    0    0  0.00000000000E+00  0.00000000000E+00 -0.38958081830E+02  0.13092879658E+03  0.12499847052E+03 0.  0.
    9000005    1    3    3    0    0 -0.11727793806E+02  0.44071027353E+02  0.25272138036E+02  0.52148610341E+02  0.10000000000E+01 0.  0.
    9000005    1    3    3    0    0  0.11727793806E+02 -0.44071027353E+02 -0.64230219866E+02  0.78780186237E+02  0.10000000000E+01 0.  0.
<mgrwt>
<rscale>  0 0.12499847E+03</rscale>
<asrwt>0</asrwt>
<pdfrwt beam="2">  1        4 0.13068221E-01 0.12499847E+03</pdfrwt>
<pdfrwt beam="1">  1       -4 0.70746704E-02 0.12499847E+03</pdfrwt>
<totfact> 0.10324972E+04</totfact>
</mgrwt>
</event>
<event>
 5    1  0.3267085E-002  0.1250002E+03  0.7818608E-02  0.1235069E+00
          4   -1    0    0  501    0  0.00000000000E+00  0.00000000000E+00  0.11319970336E+01  0.17012693156E+01  0.12700000000E+01 0.  1.
         -4   -1    0    0    0  501 -0.00000000000E+00 -0.00000000000E+00 -0.27568589821E+04  0.27568592746E+04  0.12700000000E+01 0.  1.
         25    2    1    2    0    0  0.00000000000E+00  0.00000000000E+00 -0.27557269850E+04  0.27585605439E+04  0.12500023345E+03 0.  0.
    9000005    1    3    3    0    0 -0.16644522618E+02  0.24267200238E+02 -0.16122811084E+03  0.16389460291E+03  0.10000000000E+01 0.  0.
    9000005    1    3    3    0    0  0.16644522618E+02 -0.24267200238E+02 -0.25944988742E+04  0.25946659410E+04  0.10000000000E+01 0.  0.
<mgrwt>
<rscale>  0 0.12500023E+03</rscale>
<asrwt>0</asrwt>
<pdfrwt beam="1">  1        4 0.21796827E-03 0.12500023E+03</pdfrwt>
<pdfrwt beam="2">  1       -4 0.42417167E+00 0.12500023E+03</pdfrwt>
<totfact> 0.29417525E+02</totfact>
</mgrwt>
</event>
<event>
 5    1  0.3267085E-002  0.1250016E+03  0.7818608E-02  0.1235067E+00
         -4   -1    0    0    0  501 -0.00000000000E+00  0.00000000000E+00  0.16646078245E+03  0.16646562706E+03  0.12700000000E+01 0. -1.
          4   -1    0    0  501    0  0.00000000000E+00 -0.00000000000E+00 -0.23444733481E+02  0.23479106200E+02  0.12700000000E+01 0. -1.
         25    2    1    2    0    0  0.00000000000E+00  0.00000000000E+00  0.14301604897E+03  0.18994473327E+03  0.12500164572E+03 0.  0.
    9000005    1    3    3    0    0  0.20882497888E+02 -0.40181018885E+02  0.60662043786E+01  0.45698925942E+02  0.10000000000E+01 0.  0.
    9000005    1    3    3    0    0 -0.20882497888E+02  0.40181018885E+02  0.13694984459E+03  0.14424580732E+03  0.10000000000E+01 0.  0.
<mgrwt>
<rscale>  0 0.12500165E+03</rscale>
<asrwt>0</asrwt>
<pdfrwt beam="2">  1        4 0.36098988E-02 0.12500165E+03</pdfrwt>
<pdfrwt beam="1">  1       -4 0.25612368E-01 0.12500165E+03</pdfrwt>
<totfact> 0.91853545E+03</totfact>
</mgrwt>
</event>
<event>
 5    1  0.3267085E-002  0.1250059E+03  0.7818608E-02  0.1235060E+00
         -4   -1    0    0    0  501 -0.00000000000E+00  0.00000000000E+00  0.29345826720E+02  0.29373294774E+02  0.12700000000E+01 0.  1.
          4   -1    0    0  501    0  0.00000000000E+00 -0.00000000000E+00 -0.13303061602E+03  0.13303667802E+03  0.12700000000E+01 0.  1.
         25    2    1    2    0    0  0.00000000000E+00  0.00000000000E+00 -0.10368478930E+03  0.16240997280E+03  0.12500585479E+03 0.  0.
    9000005    1    3    3    0    0  0.15318612483E+02  0.47576750205E+02 -0.31016136821E+01  0.50088192779E+02  0.10000000000E+01 0.  0.
    9000005    1    3    3    0    0 -0.15318612483E+02 -0.47576750205E+02 -0.10058317562E+03  0.11232178002E+03  0.10000000000E+01 0.  0.
<mgrwt>
<rscale>  0 0.12500585E+03</rscale>
<asrwt>0</asrwt>
<pdfrwt beam="2">  1        4 0.20468828E-01 0.12500585E+03</pdfrwt>
<pdfrwt beam="1">  1       -4 0.45173219E-02 0.12500585E+03</pdfrwt>
<totfact> 0.96867418E+03</totfact>
</mgrwt>
</event>
<event>
 5    1  0.3267085E-002  0.1249985E+03  0.7818608E-02  0.1235072E+00
          4   -1    0    0  501    0  0.00000000000E+00  0.00000000000E+00  0.18598694817E+03  0.18599128418E+03  0.12700000000E+01 0. -1.
         -4   -1    0    0    0  501 -0.00000000000E+00 -0.00000000000E+00 -0.20978519935E+02  0.21016926480E+02  0.12700000000E+01 0. -1.
         25    2    1    2    0    0  0.00000000000E+00  0.00000000000E+00  0.16500842824E+03  0.20700821066E+03  0.12499847155E+03 0.  0.
    9000005    1    3    3    0    0  0.17754031040E+02  0.59751274438E+02  0.75147378284E+02  0.97639893886E+02  0.10000000000E+01 0.  0.
    9000005    1    3    3    0    0 -0.17754031040E+02 -0.59751274438E+02  0.89861049953E+02  0.10936831677E+03  0.10000000000E+01 0.  0.
<mgrwt>
<rscale>  0 0.12499847E+03</rscale>
<asrwt>0</asrwt>
<pdfrwt beam="1">  1        4 0.28616666E-01 0.12499847E+03</pdfrwt>
<pdfrwt beam="2">  1       -4 0.32307524E-02 0.12499847E+03</pdfrwt>
<totfact> 0.88969861E+03</totfact>
</mgrwt>
</event>
<event>
 5    1  0.3267085E-002  0.1250025E+03  0.7818608E-02  0.1235065E+00
          4   -1    0    0  501    0  0.00000000000E+00  0.00000000000E+00  0.88956596402E+01  0.89858589147E+01  0.12700000000E+01 0. -1.
         -4   -1    0    0    0  501 -0.00000000000E+00 -0.00000000000E+00 -0.43682998082E+03  0.43683182696E+03  0.12700000000E+01 0. -1.
         25    2    1    2    0    0  0.00000000000E+00  0.00000000000E+00 -0.42793432118E+03  0.44581768587E+03  0.12500250315E+03 0.  0.
    9000005    1    3    3    0    0 -0.36646515727E+01  0.52098226205E+02 -0.91571664884E+02  0.10542307458E+03  0.10000000000E+01 0.  0.
    9000005    1    3    3    0    0  0.36646515727E+01 -0.52098226205E+02 -0.33636265629E+03  0.34039461129E+03  0.10000000000E+01 0.  0.
<mgrwt>
<rscale>  0 0.12500250E+03</rscale>
<asrwt>0</asrwt>
<pdfrwt beam="1">  1        4 0.13756438E-02 0.12500250E+03</pdfrwt>
<pdfrwt beam="2">  1       -4 0.67211676E-01 0.12500250E+03</pdfrwt>
<totfact> 0.60324509E+03</totfact>
</mgrwt>
</event>
<event>
 5    1  0.3267085E-002  0.1249993E+03  0.7818608E-02  0.1235070E+00
         -4   -1    0    0    0  501 -0.00000000000E+00  0.00000000000E+00  0.15761787448E+02  0.15812869555E+02  0.12700000000E+01 0.  1.
          4   -1    0    0  501    0  0.00000000000E+00 -0.00000000000E+00 -0.24737397138E+03  0.24737723140E+03  0.12700000000E+01 0.  1.
         25    2    1    2    0    0  0.00000000000E+00  0.00000000000E+00 -0.23161218393E+03  0.26319010096E+03  0.12499930198E+03 0.  0.
    9000005    1    3    3    0    0 -0.38767852778E+02 -0.29727160788E+02 -0.19785585880E+03  0.20380037134E+03  0.10000000000E+01 0.  0.
    9000005    1    3    3    0    0  0.38767852778E+02  0.29727160788E+02 -0.33756325132E+02  0.59389729617E+02  0.10000000000E+01 0.  0.
<mgrwt>
<rscale>  0 0.12499930E+03</rscale>
<asrwt>0</asrwt>
<pdfrwt beam="2">  1        4 0.38061711E-01 0.12499930E+03</pdfrwt>
<pdfrwt beam="1">  1       -4 0.24290707E-02 0.12499930E+03</pdfrwt>
<totfact> 0.80461701E+03</totfact>
</mgrwt>
</event>
<event>
 5    1  0.3267085E-002  0.1250201E+03  0.7818608E-02  0.1235038E+00
          4   -1    0    0  501    0  0.00000000000E+00  0.00000000000E+00  0.28938275305E+03  0.28938553983E+03  0.12700000000E+01 0.  1.
         -4   -1    0    0    0  501 -0.00000000000E+00 -0.00000000000E+00 -0.13470168884E+02  0.13529905755E+02  0.12700000000E+01 0.  1.
         25    2    1    2    0    0  0.00000000000E+00  0.00000000000E+00  0.27591258416E+03  0.30291544558E+03  0.12502005068E+03 0.  0.
    9000005    1    3    3    0    0  0.71277730342E+00  0.58812378468E+02  0.18918858222E+03  0.19812300108E+03  0.10000000000E+01 0.  0.
    9000005    1    3    3    0    0 -0.71277730342E+00 -0.58812378468E+02  0.86724001937E+02  0.10479244450E+03  0.10000000000E+01 0.  0.
<mgrwt>
<rscale>  0 0.12502005E+03</rscale>
<asrwt>0</asrwt>
<pdfrwt beam="1">  1        4 0.44525234E-01 0.12502005E+03</pdfrwt>
<pdfrwt beam="2">  1       -4 0.20771431E-02 0.12502005E+03</pdfrwt>
<totfact> 0.75201106E+03</totfact>
</mgrwt>
</event>
<event>
 5    1  0.3267085E-002  0.1249948E+03  0.7818608E-02  0.1235077E+00
          4   -1    0    0  501    0  0.00000000000E+00  0.00000000000E+00  0.55052994380E+02  0.55067641045E+02  0.12700000000E+01 0.  1.
         -4   -1    0    0    0  501 -0.00000000000E+00 -0.00000000000E+00 -0.70918632423E+02  0.70930002994E+02  0.12700000000E+01 0.  1.
         25    2    1    2    0    0  0.00000000000E+00  0.00000000000E+00 -0.15865638042E+02  0.12599764404E+03  0.12499475122E+03 0.  0.
    9000005    1    3    3    0    0  0.10166445319E+02 -0.43139535176E+02  0.36472255431E+02  0.57407329862E+02  0.10000000000E+01 0.  0.
    9000005    1    3    3    0    0 -0.10166445319E+02  0.43139535176E+02 -0.52337893473E+02  0.68590314177E+02  0.10000000000E+01 0.  0.
<mgrwt>
<rscale>  0 0.12499475E+03</rscale>
<asrwt>0</asrwt>
<pdfrwt beam="1">  1        4 0.84716927E-02 0.12499475E+03</pdfrwt>
<pdfrwt beam="2">  1       -4 0.10912560E-01 0.12499475E+03</pdfrwt>
<totfact> 0.10432244E+04</totfact>
</mgrwt>
</event>
<event>
 5    1  0.3267085E-002  0.1250002E+03  0.7818608E-02  0.1235069E+00
         -4   -1    0    0    0  501 -0.00000000000E+00  0.00000000000E+00  0.55814567903E+03  0.55814712391E+03  0.12700000000E+01 0. -1.
          4   -1    0    0  501    0  0.00000000000E+00 -0.00000000000E+00 -0.69395578502E+01  0.70548113480E+01  0.12700000000E+01 0. -1.
         25    2    1    2    0    0  0.00000000000E+00  0.00000000000E+00  0.55120612118E+03  0.56520193525E+03  0.12500015834E+03 0.  0.
    9000005    1    3    3    0    0  0.28786512194E+02 -0.35243636597E+02  0.46926750145E+03  0.47146979237E+03  0.10000000000E+01 0.  0.
    9000005    1    3    3    0    0 -0.28786512194E+02  0.35243636597E+02  0.81938619738E+02  0.93732142883E+02  0.10000000000E+01 0.  0.
<mgrwt>
<rscale>  0 0.12500016E+03</rscale>
<asrwt>0</asrwt>
<pdfrwt beam="2">  1        4 0.10766010E-02 0.12500016E+03</pdfrwt>
<pdfrwt beam="1">  1       -4 0.85877549E-01 0.12500016E+03</pdfrwt>
<totfact> 0.51140332E+03</totfact>
</mgrwt>
</event>
<event>
 5    1  0.3267085E-002  0.1249807E+03  0.7818608E-02  0.1235099E+00
         -4   -1    0    0    0  501 -0.00000000000E+00  0.00000000000E+00  0.16843745548E+02  0.16891555999E+02  0.12700000000E+01 0. -1.
          4   -1    0    0  501    0  0.00000000000E+00 -0.00000000000E+00 -0.23146144837E+03  0.23146493251E+03  0.12700000000E+01 0. -1.
         25    2    1    2    0    0  0.00000000000E+00  0.00000000000E+00 -0.21461770282E+03  0.24835648850E+03  0.12498074659E+03 0.  0.
    9000005    1    3    3    0    0 -0.28571159025E+02  0.12876601311E+01 -0.21770039709E+03  0.21957329548E+03  0.10000000000E+01 0.  0.
    9000005    1    3    3    0    0  0.28571159025E+02 -0.12876601311E+01  0.30826942696E+01  0.28783193023E+02  0.10000000000E+01 0.  0.
<mgrwt>
<rscale>  0 0.12498075E+03</rscale>
<asrwt>0</asrwt>
<pdfrwt beam="2">  1        4 0.35613397E-01 0.12498075E+03</pdfrwt>
<pdfrwt beam="1">  1       -4 0.25952914E-02 0.12498075E+03</pdfrwt>
<totfact> 0.82603777E+03</totfact>
</mgrwt>
</event>
<event>
 5    1  0.3267085E-002  0.1249970E+03  0.7818608E-02  0.1235074E+00
          4   -1    0    0  501    0  0.00000000000E+00  0.00000000000E+00  0.60778883955E+03  0.60779016641E+03  0.12700000000E+01 0. -1.
         -4   -1    0    0    0  501 -0.00000000000E+00 -0.00000000000E+00 -0.63625872736E+01  0.64880980892E+01  0.12700000000E+01 0. -1.
         25    2    1    2    0    0  0.00000000000E+00  0.00000000000E+00  0.60142625228E+03  0.61427826450E+03  0.12499699719E+03 0.  0.
    9000005    1    3    3    0    0  0.77608599426E+01 -0.61426790268E+02  0.25913509757E+03  0.26643100477E+03  0.10000000000E+01 0.  0.
    9000005    1    3    3    0    0 -0.77608599426E+01  0.61426790268E+02  0.34229115471E+03  0.34784725973E+03  0.10000000000E+01 0.  0.
<mgrwt>
<rscale>  0 0.12499700E+03</rscale>
<asrwt>0</asrwt>
<pdfrwt beam="1">  1        4 0.93515786E-01 0.12499700E+03</pdfrwt>
<pdfrwt beam="2">  1       -4 0.98861575E-03 0.12499700E+03</pdfrwt>
<totfact> 0.47981689E+03</totfact>
</mgrwt>
</event>
<event>
 4    1  0.3267085E-002  0.1251300E+03  0.7818608E-02  0.1234866E+00
         -4   -1    0    0    0  501 -0.00000000000E+00  0.00000000000E+00  0.10200438936E+02  0.10279195225E+02  0.12700000000E+01 0. -1.
          4   -1    0    0  501    0  0.00000000000E+00 -0.00000000000E+00 -0.38219070117E+03  0.38219281123E+03  0.12700000000E+01 0. -1.
    9000005    1    1    2    0    0  0.52178293409E+02  0.23454575991E+02 -0.26538603200E+03  0.27148377008E+03  0.10000000000E+01 0.  0.
    9000005    1    1    2    0    0 -0.52178293409E+02 -0.23454575991E+02 -0.10660423023E+03  0.12098823638E+03  0.10000000000E+01 0.  0.
<mgrwt>
<rscale>  0 0.12513002E+03</rscale>
<asrwt>0</asrwt>
<pdfrwt beam="2">  1        4 0.58804779E-01 0.12513002E+03</pdfrwt>
<pdfrwt beam="1">  1       -4 0.15755191E-02 0.12513002E+03</pdfrwt>
<totfact> 0.65104486E+03</totfact>
</mgrwt>
</event>
<event>
 5    1  0.3267085E-002  0.1250149E+03  0.7818608E-02  0.1235046E+00
          4   -1    0    0  501    0  0.00000000000E+00  0.00000000000E+00  0.79899018475E+02  0.79909111203E+02  0.12700000000E+01 0. -1.
         -4   -1    0    0    0  501 -0.00000000000E+00 -0.00000000000E+00 -0.48880068220E+02  0.48896563982E+02  0.12700000000E+01 0. -1.
         25    2    1    2    0    0  0.00000000000E+00  0.00000000000E+00  0.31018950255E+02  0.12880567519E+03  0.12501490585E+03 0.  0.
    9000005    1    3    3    0    0  0.41719932484E+02 -0.46519620588E+02  0.14225160358E+02  0.64093549233E+02  0.10000000000E+01 0.  0.
    9000005    1    3    3    0    0 -0.41719932484E+02  0.46519620588E+02  0.16793789897E+02  0.64712125952E+02  0.10000000000E+01 0.  0.
<mgrwt>
<rscale>  0 0.12501491E+03</rscale>
<asrwt>0</asrwt>
<pdfrwt beam="1">  1        4 0.12294202E-01 0.12501491E+03</pdfrwt>
<pdfrwt beam="2">  1       -4 0.75220558E-02 0.12501491E+03</pdfrwt>
<totfact> 0.10366636E+04</totfact>
</mgrwt>
</event>
<event>
 5    1  0.3267085E-002  0.1249997E+03  0.7818608E-02  0.1235070E+00
          4   -1    0    0  501    0  0.00000000000E+00  0.00000000000E+00  0.16000364079E+01  0.20427962470E+01  0.12700000000E+01 0.  1.
         -4   -1    0    0    0  501 -0.00000000000E+00 -0.00000000000E+00 -0.21441706604E+04  0.21441710365E+04  0.12700000000E+01 0.  1.
         25    2    1    2    0    0  0.00000000000E+00  0.00000000000E+00 -0.21425706240E+04  0.21462138327E+04  0.12499974854E+03 0.  0.
    9000005    1    3    3    0    0 -0.15014390459E+02 -0.56290945445E+02 -0.68310785449E+03  0.68558839205E+03  0.10000000000E+01 0.  0.
    9000005    1    3    3    0    0  0.15014390459E+02  0.56290945445E+02 -0.14594627695E+04  0.14606254407E+04  0.10000000000E+01 0.  0.
<mgrwt>
<rscale>  0 0.12499975E+03</rscale>
<asrwt>0</asrwt>
<pdfrwt beam="1">  1        4 0.28024854E-03 0.12499975E+03</pdfrwt>
<pdfrwt beam="2">  1       -4 0.32990448E+00 0.12499975E+03</pdfrwt>
<totfact> 0.80716797E+02</totfact>
</mgrwt>
</event>
<event>
 5    1  0.3267085E-002  0.1249995E+03  0.7818608E-02  0.1235070E+00
         -4   -1    0    0    0  501 -0.00000000000E+00  0.00000000000E+00  0.37815307475E+02  0.37836627485E+02  0.12700000000E+01 0.  1.
          4   -1    0    0  501    0  0.00000000000E+00 -0.00000000000E+00 -0.10324288613E+03  0.10325069703E+03  0.12700000000E+01 0.  1.
         25    2    1    2    0    0  0.00000000000E+00  0.00000000000E+00 -0.65427578659E+02  0.14108732451E+03  0.12499946036E+03 0.  0.
    9000005    1    3    3    0    0  0.62132112699E+02 -0.25920652245E+01 -0.39680554741E+02  0.73774417349E+02  0.10000000000E+01 0.  0.
    9000005    1    3    3    0    0 -0.62132112699E+02  0.25920652245E+01 -0.25747023918E+02  0.67312907166E+02  0.10000000000E+01 0.  0.
<mgrwt>
<rscale>  0 0.12499946E+03</rscale>
<asrwt>0</asrwt>
<pdfrwt beam="2">  1        4 0.15885762E-01 0.12499946E+03</pdfrwt>
<pdfrwt beam="1">  1       -4 0.58199805E-02 0.12499946E+03</pdfrwt>
<totfact> 0.10111223E+04</totfact>
</mgrwt>
</event>
<event>
 5    1  0.3267085E-002  0.1249867E+03  0.7818608E-02  0.1235090E+00
         -4   -1    0    0    0  501 -0.00000000000E+00  0.00000000000E+00  0.24705389030E+02  0.24738010169E+02  0.12700000000E+01 0.  1.
          4   -1    0    0  501    0  0.00000000000E+00 -0.00000000000E+00 -0.15794020067E+03  0.15794530663E+03  0.12700000000E+01 0.  1.
         25    2    1    2    0    0  0.00000000000E+00  0.00000000000E+00 -0.13323481163E+03  0.18268331680E+03  0.12498671612E+03 0.  0.
    9000005    1    3    3    0    0  0.55340904298E+02  0.15117802684E+02 -0.10281302316E+03  0.11773988864E+03  0.10000000000E+01 0.  0.
    9000005    1    3    3    0    0 -0.55340904298E+02 -0.15117802684E+02 -0.30421788474E+02  0.64943428155E+02  0.10000000000E+01 0.  0.
<mgrwt>
<rscale>  0 0.12498672E+03</rscale>
<asrwt>0</asrwt>
<pdfrwt beam="2">  1        4 0.24301394E-01 0.12498672E+03</pdfrwt>
<pdfrwt beam="1">  1       -4 0.38037313E-02 0.12498672E+03</pdfrwt>
<totfact> 0.93163954E+03</totfact>
</mgrwt>
</event>
<event>
 5    1  0.3267085E-002  0.1249967E+03  0.7818608E-02  0.1235074E+00
         -4   -1    0    0    0  501 -0.00000000000E+00  0.00000000000E+00  0.84671604327E+01  0.85618751330E+01  0.12700000000E+01 0. -1.
          4   -1    0    0  501    0  0.00000000000E+00 -0.00000000000E+00 -0.45865554434E+03  0.45865730263E+03  0.12700000000E+01 0. -1.
         25    2    1    2    0    0  0.00000000000E+00  0.00000000000E+00 -0.45018838391E+03  0.46721917776E+03  0.12499671621E+03 0.  0.
    9000005    1    3    3    0    0 -0.18978850335E+01  0.11190707841E+02 -0.45478846930E+03  0.45493118789E+03  0.10000000000E+01 0.  0.
    9000005    1    3    3    0    0  0.18978850335E+01 -0.11190707841E+02  0.46000853864E+01  0.12287989874E+02  0.10000000000E+01 0.  0.
<mgrwt>
<rscale>  0 0.12499672E+03</rscale>
<asrwt>0</asrwt>
<pdfrwt beam="2">  1        4 0.70569793E-01 0.12499672E+03</pdfrwt>
<pdfrwt beam="1">  1       -4 0.13100614E-02 0.12499672E+03</pdfrwt>
<totfact> 0.58504829E+03</totfact>
</mgrwt>
</event>
<event>
 5    1  0.3267085E-002  0.1250012E+03  0.7818608E-02  0.1235067E+00
         -4   -1    0    0    0  501 -0.00000000000E+00  0.00000000000E+00  0.27881883113E+02  0.27910791926E+02  0.12700000000E+01 0. -1.
          4   -1    0    0  501    0  0.00000000000E+00 -0.00000000000E+00 -0.13999830624E+03  0.14000406655E+03  0.12700000000E+01 0. -1.
         25    2    1    2    0    0  0.00000000000E+00  0.00000000000E+00 -0.11211642312E+03  0.16791485847E+03  0.12500122944E+03 0.  0.
    9000005    1    3    3    0    0  0.42946001471E+02 -0.38152815614E+02 -0.23008238732E+02  0.61890026912E+02  0.10000000000E+01 0.  0.
    9000005    1    3    3    0    0 -0.42946001471E+02  0.38152815614E+02 -0.89108184392E+02  0.10602483156E+03  0.10000000000E+01 0.  0.
<mgrwt>
<rscale>  0 0.12500123E+03</rscale>
<asrwt>0</asrwt>
<pdfrwt beam="2">  1        4 0.21540868E-01 0.12500123E+03</pdfrwt>
<pdfrwt beam="1">  1       -4 0.42921874E-02 0.12500123E+03</pdfrwt>
<totfact> 0.95835549E+03</totfact>
</mgrwt>
</event>
<event>
 5    1  0.3267085E-002  0.1249997E+03  0.7818608E-02  0.1235070E+00
         -4   -1    0    0    0  501 -0.00000000000E+00  0.00000000000E+00  0.16550328198E+03  0.16550815462E+03  0.12700000000E+01 0.  1.
          4   -1    0    0  501    0  0.00000000000E+00 -0.00000000000E+00 -0.23579845983E+02  0.23614022033E+02  0.12700000000E+01 0.  1.
         25    2    1    2    0    0  0.00000000000E+00  0.00000000000E+00  0.14192343600E+03  0.18912217665E+03  0.12499974407E+03 0.  0.
    9000005    1    3    3    0    0  0.16188816309E+02 -0.35142141770E+02  0.14520862334E+03  0.15027838233E+03  0.10000000000E+01 0.  0.
    9000005    1    3    3    0    0 -0.16188816309E+02  0.35142141770E+02 -0.32851873481E+01  0.38843794325E+02  0.10000000000E+01 0.  0.
<mgrwt>
<rscale>  0 0.12499974E+03</rscale>
<asrwt>0</asrwt>
<pdfrwt beam="2">  1        4 0.36306724E-02 0.12499974E+03</pdfrwt>
<pdfrwt beam="1">  1       -4 0.25465047E-01 0.12499974E+03</pdfrwt>
<totfact> 0.92000805E+03</totfact>
</mgrwt>
</event>
<event>
 5    1  0.3267085E-002  0.1249990E+03  0.7818608E-02  0.1235071E+00
          4   -1    0    0  501    0  0.00000000000E+00  0.00000000000E+00  0.11690439188E+03  0.11691129005E+03  0.12700000000E+01 0. -1.
         -4   -1    0    0    0  501 -0.00000000000E+00 -0.00000000000E+00 -0.33393562606E+02  0.33417703744E+02  0.12700000000E+01 0. -1.
         25    2    1    2    0    0  0.00000000000E+00  0.00000000000E+00  0.83510829276E+02  0.15032899380E+03  0.12499899107E+03 0.  0.
    9000005    1    3    3    0    0 -0.42342047874E+02 -0.39252063753E+02  0.70508698333E+02  0.91137533803E+02  0.10000000000E+01 0.  0.
    9000005    1    3    3    0    0  0.42342047874E+02  0.39252063753E+02  0.13002130943E+02  0.59191459993E+02  0.10000000000E+01 0.  0.
<mgrwt>
<rscale>  0 0.12499899E+03</rscale>
<asrwt>0</asrwt>
<pdfrwt beam="1">  1        4 0.17987678E-01 0.12499899E+03</pdfrwt>
<pdfrwt beam="2">  1       -4 0.51398589E-02 0.12499899E+03</pdfrwt>
<totfact> 0.99240412E+03</totfact>
</mgrwt>
</event>
<event>
 5    1  0.3267085E-002  0.1250044E+03  0.7818608E-02  0.1235062E+00
         -4   -1    0    0    0  501 -0.00000000000E+00  0.00000000000E+00  0.21256083355E+03  0.21256462749E+03  0.12700000000E+01 0. -1.
          4   -1    0    0  501    0  0.00000000000E+00 -0.00000000000E+00 -0.18352492064E+02  0.18396381844E+02  0.12700000000E+01 0. -1.
         25    2    1    2    0    0  0.00000000000E+00  0.00000000000E+00  0.19420834149E+03  0.23096100934E+03  0.12500443164E+03 0.  0.
    9000005    1    3    3    0    0 -0.37292695027E+02 -0.34011345332E+02  0.16519126276E+03  0.17273294418E+03  0.10000000000E+01 0.  0.
    9000005    1    3    3    0    0  0.37292695027E+02  0.34011345332E+02  0.29017078731E+02  0.58228065156E+02  0.10000000000E+01 0.  0.
<mgrwt>
<rscale>  0 0.12500443E+03</rscale>
<asrwt>0</asrwt>
<pdfrwt beam="2">  1        4 0.28271283E-02 0.12500443E+03</pdfrwt>
<pdfrwt beam="1">  1       -4 0.32705334E-01 0.12500443E+03</pdfrwt>
<totfact> 0.85153831E+03</totfact>
</mgrwt>
</event>
<event>
 5    1  0.3267085E-002  0.1249988E+03  0.7818608E-02  0.1235071E+00
         -4   -1    0    0    0  501 -0.00000000000E+00  0.00000000000E+00  0.26985794341E+02  0.27015662054E+02  0.12700000000E+01 0.  1.
          4   -1    0    0  501    0  0.00000000000E+00 -0.00000000000E+00 -0.14463654164E+03  0.14464211724E+03  0.12700000000E+01 0.  1.
         25    2    1    2    0    0  0.00000000000E+00  0.00000000000E+00 -0.11765074730E+03  0.17165777929E+03  0.12499877939E+03 0.  0.
    9000005    1    3    3    0    0  0.56375090338E+02 -0.23759811329E+02 -0.76330963137E+02  0.97826864298E+02  0.10000000000E+01 0.  0.
    9000005    1    3    3    0    0 -0.56375090338E+02  0.23759811329E+02 -0.41319784167E+02  0.73830914993E+02  0.10000000000E+01 0.  0.
<mgrwt>
<rscale>  0 0.12499878E+03</rscale>
<asrwt>0</asrwt>
<pdfrwt beam="2">  1        4 0.22254502E-01 0.12499878E+03</pdfrwt>
<pdfrwt beam="1">  1       -4 0.41543871E-02 0.12499878E+03</pdfrwt>
<totfact> 0.95143155E+03</totfact>
</mgrwt>
</event>
<event>
 5    1  0.3267085E-002  0.1249970E+03  0.7818608E-02  0.1235074E+00
          4   -1    0    0  501    0  0.00000000000E+00  0.00000000000E+00  0.21763766893E+02  0.21800790109E+02  0.12700000000E+01 0.  1.
         -4   -1    0    0    0  501 -0.00000000000E+00 -0.00000000000E+00 -0.17928356467E+03  0.17928806279E+03  0.12700000000E+01 0.  1.
         25    2    1    2    0    0  0.00000000000E+00  0.00000000000E+00 -0.15751979778E+03  0.20108885290E+03  0.12499696024E+03 0.  0.
    9000005    1    3    3    0    0 -0.61759457150E+02 -0.12807358245E+01 -0.93952937615E+02  0.11244565495E+03  0.10000000000E+01 0.  0.
    9000005    1    3    3    0    0  0.61759457150E+02  0.12807358245E+01 -0.63566860160E+02  0.88643197947E+02  0.10000000000E+01 0.  0.
<mgrwt>
<rscale>  0 0.12499696E+03</rscale>
<asrwt>0</asrwt>
<pdfrwt beam="1">  1        4 0.33514659E-02 0.12499696E+03</pdfrwt>
<pdfrwt beam="2">  1       -4 0.27585280E-01 0.12499696E+03</pdfrwt>
<totfact> 0.89958306E+03</totfact>
</mgrwt>
</event>
<event>
 5    1  0.3267085E-002  0.1249922E+03  0.7818608E-02  0.1235081E+00
         -4   -1    0    0    0  501 -0.00000000000E+00  0.00000000000E+00  0.13775058949E+03  0.13775644379E+03  0.12700000000E+01 0.  1.
          4   -1    0    0  501    0  0.00000000000E+00 -0.00000000000E+00 -0.28333194085E+02  0.28361642884E+02  0.12700000000E+01 0.  1.
         25    2    1    2    0    0  0.00000000000E+00  0.00000000000E+00  0.10941739541E+03  0.16611808667E+03  0.12499220897E+03 0.  0.
    9000005    1    3    3    0    0 -0.47650442673E+01 -0.46738512524E+02  0.10946671051E+03  0.11912663392E+03  0.10000000000E+01 0.  0.
    9000005    1    3    3    0    0  0.47650442673E+01  0.46738512524E+02 -0.49315100925E-01  0.46991452752E+02  0.10000000000E+01 0.  0.
<mgrwt>
<rscale>  0 0.12499221E+03</rscale>
<asrwt>0</asrwt>
<pdfrwt beam="2">  1        4 0.43615917E-02 0.12499221E+03</pdfrwt>
<pdfrwt beam="1">  1       -4 0.21195037E-01 0.12499221E+03</pdfrwt>
<totfact> 0.96192896E+03</totfact>
</mgrwt>
</event>
<event>
 5    1  0.3267085E-002  0.1249976E+03  0.7818608E-02  0.1235073E+00
         -4   -1    0    0    0  501 -0.00000000000E+00  0.00000000000E+00  0.17396761656E+02  0.17443056387E+02  0.12700000000E+01 0. -1.
          4   -1    0    0  501    0  0.00000000000E+00 -0.00000000000E+00 -0.22418369930E+03  0.22418729654E+03  0.12700000000E+01 0. -1.
         25    2    1    2    0    0  0.00000000000E+00  0.00000000000E+00 -0.20678693764E+03  0.24163035293E+03  0.12499755948E+03 0.  0.
    9000005    1    3    3    0    0  0.18848319580E+01 -0.67486671552E+01 -0.22343139615E+03  0.22354347650E+03  0.10000000000E+01 0.  0.
    9000005    1    3    3    0    0 -0.18848319580E+01  0.67486671552E+01  0.16644458509E+02  0.18086876428E+02  0.10000000000E+01 0.  0.
<mgrwt>
<rscale>  0 0.12499756E+03</rscale>
<asrwt>0</asrwt>
<pdfrwt beam="2">  1        4 0.34493636E-01 0.12499756E+03</pdfrwt>
<pdfrwt beam="1">  1       -4 0.26802629E-02 0.12499756E+03</pdfrwt>
<totfact> 0.83559700E+03</totfact>
</mgrwt>
</event>
<event>
 5    1  0.3267085E-002  0.1250004E+03  0.7818608E-02  0.1235069E+00
          4   -1    0    0  501    0  0.00000000000E+00  0.00000000000E+00  0.64511798692E+02  0.64524298295E+02  0.12700000000E+01 0.  1.
         -4   -1    0    0    0  501 -0.00000000000E+00 -0.00000000000E+00 -0.60526264538E+02  0.60539587039E+02  0.12700000000E+01 0.  1.
         25    2    1    2    0    0  0.00000000000E+00  0.00000000000E+00  0.39855341543E+01  0.12506388533E+03  0.12500036373E+03 0.  0.
    9000005    1    3    3    0    0  0.43098154275E+02 -0.33140391927E+02 -0.28837438137E+02  0.61549446117E+02  0.10000000000E+01 0.  0.
    9000005    1    3    3    0    0 -0.43098154275E+02  0.33140391927E+02  0.32822972292E+02  0.63514439217E+02  0.10000000000E+01 0.  0.
<mgrwt>
<rscale>  0 0.12500036E+03</rscale>
<asrwt>0</asrwt>
<pdfrwt beam="1">  1        4 0.99268784E-02 0.12500036E+03</pdfrwt>
<pdfrwt beam="2">  1       -4 0.93137194E-02 0.12500036E+03</pdfrwt>
<totfact> 0.10451389E+04</totfact>
</mgrwt>
</event>
<event>
 5    1  0.3267085E-002  0.1249986E+03  0.7818608E-02  0.1235071E+00
         -4   -1    0    0    0  501 -0.00000000000E+00  0.00000000000E+00  0.18769014154E+03  0.18769443820E+03  0.12700000000E+01 0. -1.
          4   -1    0    0  501    0  0.00000000000E+00 -0.00000000000E+00 -0.20787841700E+02  0.20826599879E+02  0.12700000000E+01 0. -1.
         25    2    1    2    0    0  0.00000000000E+00  0.00000000000E+00  0.16690229984E+03  0.20852103808E+03  0.12499858251E+03 0.  0.
    9000005    1    3    3    0    0  0.21704008991E+02 -0.46811908179E+02  0.24643287669E+02  0.57190124854E+02  0.10000000000E+01 0.  0.
    9000005    1    3    3    0    0 -0.21704008991E+02  0.46811908179E+02  0.14225901217E+03  0.15133091322E+03  0.10000000000E+01 0.  0.
<mgrwt>
<rscale>  0 0.12499858E+03</rscale>
<asrwt>0</asrwt>
<pdfrwt beam="2">  1        4 0.32014414E-02 0.12499858E+03</pdfrwt>
<pdfrwt beam="1">  1       -4 0.28878719E-01 0.12499858E+03</pdfrwt>
<totfact> 0.88720797E+03</totfact>
</mgrwt>
</event>
<event>
 5    1  0.3267085E-002  0.1250024E+03  0.7818608E-02  0.1235066E+00
          4   -1    0    0  501    0  0.00000000000E+00  0.00000000000E+00  0.17991929977E+02  0.18036697156E+02  0.12700000000E+01 0.  1.
         -4   -1    0    0    0  501 -0.00000000000E+00 -0.00000000000E+00 -0.21680317035E+03  0.21680689005E+03  0.12700000000E+01 0.  1.
         25    2    1    2    0    0  0.00000000000E+00  0.00000000000E+00 -0.19881124037E+03  0.23484358721E+03  0.12500240459E+03 0.  0.
    9000005    1    3    3    0    0 -0.49051270208E+02 -0.30954072558E+02 -0.14311218598E+03  0.15442240606E+03  0.10000000000E+01 0.  0.
    9000005    1    3    3    0    0  0.49051270208E+02  0.30954072558E+02 -0.55699054394E+02  0.80421181149E+02  0.10000000000E+01 0.  0.
<mgrwt>
<rscale>  0 0.12500240E+03</rscale>
<asrwt>0</asrwt>
<pdfrwt beam="1">  1        4 0.27717191E-02 0.12500240E+03</pdfrwt>
<pdfrwt beam="2">  1       -4 0.33358062E-01 0.12500240E+03</pdfrwt>
<totfact> 0.84566832E+03</totfact>
</mgrwt>
</event>
<event>
 5    1  0.3267085E-002  0.1250027E+03  0.7818608E-02  0.1235065E+00
          4   -1    0    0  501    0  0.00000000000E+00  0.00000000000E+00  0.17648757205E+03  0.17649214143E+03  0.12700000000E+01 0.  1.
         -4   -1    0    0    0  501 -0.00000000000E+00 -0.00000000000E+00 -0.22111150056E+02  0.22147592573E+02  0.12700000000E+01 0.  1.
         25    2    1    2    0    0  0.00000000000E+00  0.00000000000E+00  0.15437642199E+03  0.19863973400E+03  0.12500265701E+03 0.  0.
    9000005    1    3    3    0    0  0.21968462825E+01 -0.33882579137E+02  0.16055927383E+03  0.16411317959E+03  0.10000000000E+01 0.  0.
    9000005    1    3    3    0    0 -0.21968462825E+01  0.33882579137E+02 -0.61828518428E+01  0.34526554410E+02  0.10000000000E+01 0.  0.
<mgrwt>
<rscale>  0 0.12500266E+03</rscale>
<asrwt>0</asrwt>
<pdfrwt beam="1">  1        4 0.27155089E-01 0.12500266E+03</pdfrwt>
<pdfrwt beam="2">  1       -4 0.34048702E-02 0.12500266E+03</pdfrwt>
<totfact> 0.90360007E+03</totfact>
</mgrwt>
</event>
<event>
 5    1  0.3267085E-002  0.1250275E+03  0.7818608E-02  0.1235026E+00
          4   -1    0    0  501    0  0.00000000000E+00  0.00000000000E+00  0.12674608724E+02  0.12738077026E+02  0.12700000000E+01 0. -1.
         -4   -1    0    0    0  501 -0.00000000000E+00 -0.00000000000E+00 -0.30749560061E+03  0.30749822324E+03  0.12700000000E+01 0. -1.
         25    2    1    2    0    0  0.00000000000E+00  0.00000000000E+00 -0.29482099189E+03  0.32023630027E+03  0.12502747998E+03 0.  0.
    9000005    1    3    3    0    0 -0.61189930208E+02  0.10837181537E+02 -0.13016843925E+03  0.14424449605E+03  0.10000000000E+01 0.  0.
    9000005    1    3    3    0    0  0.61189930208E+02 -0.10837181537E+02 -0.16465255264E+03  0.17599180422E+03  0.10000000000E+01 0.  0.
<mgrwt>
<rscale>  0 0.12502748E+03</rscale>
<asrwt>0</asrwt>
<pdfrwt beam="1">  1        4 0.19550240E-02 0.12502748E+03</pdfrwt>
<pdfrwt beam="2">  1       -4 0.47312094E-01 0.12502748E+03</pdfrwt>
<totfact> 0.73083504E+03</totfact>
</mgrwt>
</event>
<event>
 5    1  0.3267085E-002  0.1250025E+03  0.7818608E-02  0.1235065E+00
          4   -1    0    0  501    0  0.00000000000E+00  0.00000000000E+00  0.10275377646E+04  0.10275385494E+04  0.12700000000E+01 0. -1.
         -4   -1    0    0    0  501 -0.00000000000E+00 -0.00000000000E+00 -0.36948459937E+01  0.39070176499E+01  0.12700000000E+01 0. -1.
         25    2    1    2    0    0  0.00000000000E+00  0.00000000000E+00  0.10238429186E+04  0.10314455671E+04  0.12500254350E+03 0.  0.
    9000005    1    3    3    0    0 -0.99582261058E+01  0.37445143630E+02  0.91650115388E+03  0.91732037485E+03  0.10000000000E+01 0.  0.
    9000005    1    3    3    0    0  0.99582261058E+01 -0.37445143630E+02  0.10734176470E+03  0.11412519222E+03  0.10000000000E+01 0.  0.
<mgrwt>
<rscale>  0 0.12500254E+03</rscale>
<asrwt>0</asrwt>
<pdfrwt beam="1">  1        4 0.15809920E+00 0.12500254E+03</pdfrwt>
<pdfrwt beam="2">  1       -4 0.58481881E-03 0.12500254E+03</pdfrwt>
<totfact> 0.29579595E+03</totfact>
</mgrwt>
</event>
<event>
 5    1  0.3267085E-002  0.1250002E+03  0.7818608E-02  0.1235069E+00
          4   -1    0    0  501    0  0.00000000000E+00  0.00000000000E+00  0.37047218437E+01  0.39163585049E+01  0.12700000000E+01 0.  1.
         -4   -1    0    0    0  501 -0.00000000000E+00 -0.00000000000E+00 -0.10249083347E+04  0.10249091216E+04  0.12700000000E+01 0.  1.
         25    2    1    2    0    0  0.00000000000E+00  0.00000000000E+00 -0.10212036129E+04  0.10288254801E+04  0.12500019800E+03 0.  0.
    9000005    1    3    3    0    0  0.14141178060E+02 -0.43597683599E+02 -0.16096814559E+03  0.16736927684E+03  0.10000000000E+01 0.  0.
    9000005    1    3    3    0    0 -0.14141178060E+02  0.43597683599E+02 -0.86023546727E+03  0.86145620323E+03  0.10000000000E+01 0.  0.
<mgrwt>
<rscale>  0 0.12500020E+03</rscale>
<asrwt>0</asrwt>
<pdfrwt beam="1">  1        4 0.58629830E-03 0.12500020E+03</pdfrwt>
<pdfrwt beam="2">  1       -4 0.15769433E+00 0.12500020E+03</pdfrwt>
<totfact> 0.29665152E+03</totfact>
</mgrwt>
</event>
<event>
 5    1  0.3267085E-002  0.1249976E+03  0.7818608E-02  0.1235073E+00
          4   -1    0    0  501    0  0.00000000000E+00  0.00000000000E+00  0.72984678876E+02  0.72995727619E+02  0.12700000000E+01 0.  1.
         -4   -1    0    0    0  501 -0.00000000000E+00 -0.00000000000E+00 -0.53496781561E+02  0.53511854176E+02  0.12700000000E+01 0.  1.
         25    2    1    2    0    0  0.00000000000E+00  0.00000000000E+00  0.19487897315E+02  0.12650758180E+03  0.12499756042E+03 0.  0.
    9000005    1    3    3    0    0  0.42008569804E+02 -0.19193400853E+02  0.52347496574E+02  0.69816666856E+02  0.10000000000E+01 0.  0.
    9000005    1    3    3    0    0 -0.42008569804E+02  0.19193400853E+02 -0.32859599259E+02  0.56690914940E+02  0.10000000000E+01 0.  0.
<mgrwt>
<rscale>  0 0.12499756E+03</rscale>
<asrwt>0</asrwt>
<pdfrwt beam="1">  1        4 0.11230421E-01 0.12499756E+03</pdfrwt>
<pdfrwt beam="2">  1       -4 0.82322834E-02 0.12499756E+03</pdfrwt>
<totfact> 0.10420437E+04</totfact>
</mgrwt>
</event>
<event>
 5    1  0.3267085E-002  0.1250140E+03  0.7818608E-02  0.1235047E+00
         -4   -1    0    0    0  501 -0.00000000000E+00  0.00000000000E+00  0.79681652555E+01  0.80687395260E+01  0.12700000000E+01 0. -1.
          4   -1    0    0  501    0  0.00000000000E+00 -0.00000000000E+00 -0.48716539474E+03  0.48716705012E+03  0.12700000000E+01 0. -1.
         25    2    1    2    0    0  0.00000000000E+00  0.00000000000E+00 -0.47919722948E+03  0.49523578965E+03  0.12501400966E+03 0.  0.
    9000005    1    3    3    0    0 -0.59735140788E+02  0.34119288599E+01 -0.16805126495E+03  0.17838765639E+03  0.10000000000E+01 0.  0.
    9000005    1    3    3    0    0  0.59735140788E+02 -0.34119288599E+01 -0.31114596453E+03  0.31684813326E+03  0.10000000000E+01 0.  0.
<mgrwt>
<rscale>  0 0.12501401E+03</rscale>
<asrwt>0</asrwt>
<pdfrwt beam="2">  1        4 0.74956363E-01 0.12501401E+03</pdfrwt>
<pdfrwt beam="1">  1       -4 0.12337358E-02 0.12501401E+03</pdfrwt>
<totfact> 0.56218602E+03</totfact>
</mgrwt>
</event>
<event>
 5    1  0.3267085E-002  0.1250024E+03  0.7818608E-02  0.1235065E+00
          4   -1    0    0  501    0  0.00000000000E+00  0.00000000000E+00  0.20036229932E+03  0.20036632424E+03  0.12700000000E+01 0.  1.
         -4   -1    0    0    0  501 -0.00000000000E+00 -0.00000000000E+00 -0.19471787916E+02  0.19513160294E+02  0.12700000000E+01 0.  1.
         25    2    1    2    0    0  0.00000000000E+00  0.00000000000E+00  0.18089051141E+03  0.21987948454E+03  0.12500244239E+03 0.  0.
    9000005    1    3    3    0    0 -0.38029751655E+02 -0.42502840440E+02  0.13538246669E+03  0.14690869867E+03  0.10000000000E+01 0.  0.
    9000005    1    3    3    0    0  0.38029751655E+02  0.42502840440E+02  0.45508044715E+02  0.72970785868E+02  0.10000000000E+01 0.  0.
<mgrwt>
<rscale>  0 0.12500244E+03</rscale>
<asrwt>0</asrwt>
<pdfrwt beam="1">  1        4 0.30828459E-01 0.12500244E+03</pdfrwt>
<pdfrwt beam="2">  1       -4 0.29991520E-02 0.12500244E+03</pdfrwt>
<totfact> 0.86882684E+03</totfact>
</mgrwt>
</event>
<event>
 4    1  0.3267085E-002  0.1249062E+03  0.7818608E-02  0.1235216E+00
          4   -1    0    0  501    0  0.00000000000E+00  0.00000000000E+00  0.55925591631E+03  0.55925735831E+03  0.12700000000E+01 0.  1.
         -4   -1    0    0    0  501 -0.00000000000E+00 -0.00000000000E+00 -0.69149646635E+01  0.70306213309E+01  0.12700000000E+01 0.  1.
    9000005    1    1    2    0    0 -0.10242253940E+02  0.43909937787E+01 -0.23926444578E+01  0.11441561940E+02  0.10000000000E+01 0.  0.
    9000005    1    1    2    0    0  0.10242253940E+02 -0.43909937787E+01  0.55473359610E+03  0.55484641770E+03  0.10000000000E+01 0.  0.
<mgrwt>
<rscale>  0 0.12490616E+03</rscale>
<asrwt>0</asrwt>
<pdfrwt beam="1">  1        4 0.86048424E-01 0.12490616E+03</pdfrwt>
<pdfrwt beam="2">  1       -4 0.10728478E-02 0.12490616E+03</pdfrwt>
<totfact> 0.51172477E+03</totfact>
</mgrwt>
</event>
<event>
 5    1  0.3267085E-002  0.1250006E+03  0.7818608E-02  0.1235068E+00
         -4   -1    0    0    0  501 -0.00000000000E+00  0.00000000000E+00  0.23020596269E+01  0.26291402636E+01  0.12700000000E+01 0. -1.
          4   -1    0    0  501    0  0.00000000000E+00 -0.00000000000E+00 -0.15839877300E+04  0.15839882391E+04  0.12700000000E+01 0. -1.
         25    2    1    2    0    0  0.00000000000E+00  0.00000000000E+00 -0.15816856703E+04  0.15866173793E+04  0.12500059487E+03 0.  0.
    9000005    1    3    3    0    0 -0.13248517343E+02 -0.14237225081E+02 -0.37024176533E+02  0.41833138034E+02  0.10000000000E+01 0.  0.
    9000005    1    3    3    0    0  0.13248517343E+02  0.14237225081E+02 -0.15446614938E+04  0.15447842413E+04  0.10000000000E+01 0.  0.
<mgrwt>
<rscale>  0 0.12500059E+03</rscale>
<asrwt>0</asrwt>
<pdfrwt beam="2">  1        4 0.24371481E+00 0.12500059E+03</pdfrwt>
<pdfrwt beam="1">  1       -4 0.37936350E-03 0.12500059E+03</pdfrwt>
<totfact> 0.16289039E+03</totfact>
</mgrwt>
</event>
<event>
 5    1  0.3267085E-002  0.1249985E+03  0.7818608E-02  0.1235072E+00
          4   -1    0    0  501    0  0.00000000000E+00  0.00000000000E+00  0.38045766418E+02  0.38066957356E+02  0.12700000000E+01 0. -1.
         -4   -1    0    0    0  501 -0.00000000000E+00 -0.00000000000E+00 -0.10261630235E+03  0.10262416094E+03  0.12700000000E+01 0. -1.
         25    2    1    2    0    0  0.00000000000E+00  0.00000000000E+00 -0.64570535933E+02  0.14069111829E+03  0.12499854662E+03 0.  0.
    9000005    1    3    3    0    0  0.60070588920E+02 -0.37367246610E+01 -0.13360076093E+02  0.61659795633E+02  0.10000000000E+01 0.  0.
    9000005    1    3    3    0    0 -0.60070588920E+02  0.37367246610E+01 -0.51210459840E+02  0.79031322660E+02  0.10000000000E+01 0.  0.
<mgrwt>
<rscale>  0 0.12499855E+03</rscale>
<asrwt>0</asrwt>
<pdfrwt beam="1">  1        4 0.58554294E-02 0.12499855E+03</pdfrwt>
<pdfrwt beam="2">  1       -4 0.15789358E-01 0.12499855E+03</pdfrwt>
<totfact> 0.10119613E+04</totfact>
</mgrwt>
</event>
<event>
 5    1  0.3267085E-002  0.1250008E+03  0.7818608E-02  0.1235068E+00
         -4   -1    0    0    0  501 -0.00000000000E+00  0.00000000000E+00  0.38339152278E+01  0.40387876862E+01  0.12700000000E+01 0.  1.
          4   -1    0    0  501    0  0.00000000000E+00 -0.00000000000E+00 -0.99216074372E+03  0.99216155654E+03  0.12700000000E+01 0.  1.
         25    2    1    2    0    0  0.00000000000E+00  0.00000000000E+00 -0.98832682849E+03  0.99620034423E+03  0.12500082369E+03 0.  0.
    9000005    1    3    3    0    0 -0.95222341422E+01 -0.53537450941E+02 -0.24873621583E+03  0.25461271897E+03  0.10000000000E+01 0.  0.
    9000005    1    3    3    0    0  0.95222341422E+01  0.53537450941E+02 -0.73959061266E+03  0.74158762525E+03  0.10000000000E+01 0.  0.
<mgrwt>
<rscale>  0 0.12500082E+03</rscale>
<asrwt>0</asrwt>
<pdfrwt beam="2">  1        4 0.15265574E+00 0.12500082E+03</pdfrwt>
<pdfrwt beam="1">  1       -4 0.60565585E-03 0.12500082E+03</pdfrwt>
<totfact> 0.30729761E+03</totfact>
</mgrwt>
</event>
<event>
 5    1  0.3267085E-002  0.1249971E+03  0.7818608E-02  0.1235074E+00
         -4   -1    0    0    0  501 -0.00000000000E+00  0.00000000000E+00  0.47537556191E+03  0.47537725836E+03  0.12700000000E+01 0.  1.
          4   -1    0    0  501    0  0.00000000000E+00 -0.00000000000E+00 -0.81660122639E+01  0.82641791059E+01  0.12700000000E+01 0.  1.
         25    2    1    2    0    0  0.00000000000E+00  0.00000000000E+00  0.46720954965E+03  0.48364143746E+03  0.12499710696E+03 0.  0.
    9000005    1    3    3    0    0  0.27061670641E+02 -0.47267168033E+02  0.11506823441E+03  0.12731149894E+03  0.10000000000E+01 0.  0.
    9000005    1    3    3    0    0 -0.27061670641E+02  0.47267168033E+02  0.35214131523E+03  0.35632993852E+03  0.10000000000E+01 0.  0.
<mgrwt>
<rscale>  0 0.12499711E+03</rscale>
<asrwt>0</asrwt>
<pdfrwt beam="2">  1        4 0.12639917E-02 0.12499711E+03</pdfrwt>
<pdfrwt beam="1">  1       -4 0.73142366E-01 0.12499711E+03</pdfrwt>
<totfact> 0.57159955E+03</totfact>
</mgrwt>
</event>
<event>
 5    1  0.3267085E-002  0.1250131E+03  0.7818608E-02  0.1235049E+00
         -4   -1    0    0    0  501 -0.00000000000E+00  0.00000000000E+00  0.66519385253E+02  0.66531507682E+02  0.12700000000E+01 0.  1.
          4   -1    0    0  501    0  0.00000000000E+00 -0.00000000000E+00 -0.58711494744E+02  0.58725228949E+02  0.12700000000E+01 0.  1.
         25    2    1    2    0    0  0.00000000000E+00  0.00000000000E+00  0.78078905091E+01  0.12525673663E+03  0.12501314698E+03 0.  0.
    9000005    1    3    3    0    0 -0.46349367994E+02 -0.27419265538E+02  0.35683119048E+02  0.64609326116E+02  0.10000000000E+01 0.  0.
    9000005    1    3    3    0    0  0.46349367994E+02  0.27419265538E+02 -0.27875228539E+02  0.60647410516E+02  0.10000000000E+01 0.  0.
<mgrwt>
<rscale>  0 0.12501315E+03</rscale>
<asrwt>0</asrwt>
<pdfrwt beam="2">  1        4 0.90345267E-02 0.12501315E+03</pdfrwt>
<pdfrwt beam="1">  1       -4 0.10235741E-01 0.12501315E+03</pdfrwt>
<totfact> 0.10444185E+04</totfact>
</mgrwt>
</event>
<event>
 5    1  0.3267085E-002  0.1249993E+03  0.7818608E-02  0.1235070E+00
          4   -1    0    0  501    0  0.00000000000E+00  0.00000000000E+00  0.55047756435E+02  0.55062404493E+02  0.12700000000E+01 0.  1.
         -4   -1    0    0    0  501 -0.00000000000E+00 -0.00000000000E+00 -0.70930567425E+02  0.70941936083E+02  0.12700000000E+01 0.  1.
         25    2    1    2    0    0  0.00000000000E+00  0.00000000000E+00 -0.15882810989E+02  0.12600434058E+03  0.12499932063E+03 0.  0.
    9000005    1    3    3    0    0  0.16954644436E+01 -0.35317502198E+02  0.43999639956E+02  0.56455016406E+02  0.10000000000E+01 0.  0.
    9000005    1    3    3    0    0 -0.16954644436E+01  0.35317502198E+02 -0.59882450945E+02  0.69549324169E+02  0.10000000000E+01 0.  0.
<mgrwt>
<rscale>  0 0.12499932E+03</rscale>
<asrwt>0</asrwt>
<pdfrwt beam="1">  1        4 0.84708869E-02 0.12499932E+03</pdfrwt>
<pdfrwt beam="2">  1       -4 0.10914396E-01 0.12499932E+03</pdfrwt>
<totfact> 0.10431022E+04</totfact>
</mgrwt>
</event>
<event>
 5    1  0.3267085E-002  0.1249995E+03  0.7818608E-02  0.1235070E+00
          4   -1    0    0  501    0  0.00000000000E+00  0.00000000000E+00  0.42206078482E+02  0.42225181596E+02  0.12700000000E+01 0. -1.
         -4   -1    0    0    0  501 -0.00000000000E+00 -0.00000000000E+00 -0.92506628694E+02  0.92515346037E+02  0.12700000000E+01 0. -1.
         25    2    1    2    0    0  0.00000000000E+00  0.00000000000E+00 -0.50300550212E+02  0.13474052763E+03  0.12499945774E+03 0.  0.
    9000005    1    3    3    0    0 -0.20499587919E+02 -0.33741664587E+02 -0.77365701362E+02  0.86863023095E+02  0.10000000000E+01 0.  0.
    9000005    1    3    3    0    0  0.20499587919E+02  0.33741664587E+02  0.27065151150E+02  0.47877504537E+02  0.10000000000E+01 0.  0.
<mgrwt>
<rscale>  0 0.12499946E+03</rscale>
<asrwt>0</asrwt>
<pdfrwt beam="1">  1        4 0.64953829E-02 0.12499946E+03</pdfrwt>
<pdfrwt beam="2">  1       -4 0.14233929E-01 0.12499946E+03</pdfrwt>
<totfact> 0.10243668E+04</totfact>
</mgrwt>
</event>
<event>
 5    1  0.3267085E-002  0.1250002E+03  0.7818608E-02  0.1235069E+00
          4   -1    0    0  501    0  0.00000000000E+00  0.00000000000E+00  0.31786313547E+02  0.31811674412E+02  0.12700000000E+01 0. -1.
         -4   -1    0    0    0  501 -0.00000000000E+00 -0.00000000000E+00 -0.12281368340E+03  0.12282024967E+03  0.12700000000E+01 0. -1.
         25    2    1    2    0    0  0.00000000000E+00  0.00000000000E+00 -0.91027369850E+02  0.15463192408E+03  0.12500019954E+03 0.  0.
    9000005    1    3    3    0    0 -0.31807309204E+02 -0.21575290175E+02 -0.10646997890E+03  0.11319918052E+03  0.10000000000E+01 0.  0.
    9000005    1    3    3    0    0  0.31807309204E+02  0.21575290175E+02  0.15442609046E+02  0.41432743562E+02  0.10000000000E+01 0.  0.
<mgrwt>
<rscale>  0 0.12500020E+03</rscale>
<asrwt>0</asrwt>
<pdfrwt beam="1">  1        4 0.48926581E-02 0.12500020E+03</pdfrwt>
<pdfrwt beam="2">  1       -4 0.18896869E-01 0.12500020E+03</pdfrwt>
<totfact> 0.98387364E+03</totfact>
</mgrwt>
</event>
<event>
 5    1  0.3267085E-002  0.1249997E+03  0.7818608E-02  0.1235070E+00
         -4   -1    0    0    0  501 -0.00000000000E+00  0.00000000000E+00  0.27827599931E+03  0.27827889731E+03  0.12700000000E+01 0.  1.
          4   -1    0    0  501    0  0.00000000000E+00 -0.00000000000E+00 -0.14005550464E+02  0.14063013326E+02  0.12700000000E+01 0.  1.
         25    2    1    2    0    0  0.00000000000E+00  0.00000000000E+00  0.26427044884E+03  0.29234191064E+03  0.12499969034E+03 0.  0.
    9000005    1    3    3    0    0  0.42472927939E+02  0.31145497016E+02  0.53474246938E+02  0.75063217874E+02  0.10000000000E+01 0.  0.
    9000005    1    3    3    0    0 -0.42472927939E+02 -0.31145497016E+02  0.21079620190E+03  0.21727869276E+03  0.10000000000E+01 0.  0.
<mgrwt>
<rscale>  0 0.12499969E+03</rscale>
<asrwt>0</asrwt>
<pdfrwt beam="2">  1        4 0.21593434E-02 0.12499969E+03</pdfrwt>
<pdfrwt beam="1">  1       -4 0.42816332E-01 0.12499969E+03</pdfrwt>
<totfact> 0.76570135E+03</totfact>
</mgrwt>
</event>
<event>
 5    1  0.3267085E-002  0.1250005E+03  0.7818608E-02  0.1235069E+00
         -4   -1    0    0    0  501 -0.00000000000E+00  0.00000000000E+00  0.91037678466E+02  0.91046536455E+02  0.12700000000E+01 0. -1.
          4   -1    0    0  501    0  0.00000000000E+00 -0.00000000000E+00 -0.42888046613E+02  0.42906846101E+02  0.12700000000E+01 0. -1.
         25    2    1    2    0    0  0.00000000000E+00  0.00000000000E+00  0.48149631852E+02  0.13395338256E+03  0.12500048660E+03 0.  0.
    9000005    1    3    3    0    0 -0.14784450898E+02 -0.47263467954E+02 -0.16771662056E+02  0.52294397783E+02  0.10000000000E+01 0.  0.
    9000005    1    3    3    0    0  0.14784450898E+02  0.47263467954E+02  0.64921293908E+02  0.81658984772E+02  0.10000000000E+01 0.  0.
<mgrwt>
<rscale>  0 0.12500049E+03</rscale>
<asrwt>0</asrwt>
<pdfrwt beam="2">  1        4 0.66002886E-02 0.12500049E+03</pdfrwt>
<pdfrwt beam="1">  1       -4 0.14007924E-01 0.12500049E+03</pdfrwt>
<totfact> 0.10260066E+04</totfact>
</mgrwt>
</event>
<event>
 5    1  0.3267085E-002  0.1249996E+03  0.7818608E-02  0.1235070E+00
          4   -1    0    0  501    0  0.00000000000E+00  0.00000000000E+00  0.30577652493E+03  0.30577916230E+03  0.12700000000E+01 0. -1.
         -4   -1    0    0    0  501 -0.00000000000E+00 -0.00000000000E+00 -0.12740512673E+02  0.12803654290E+02  0.12700000000E+01 0. -1.
         25    2    1    2    0    0  0.00000000000E+00  0.00000000000E+00  0.29303601226E+03  0.31858281659E+03  0.12499962619E+03 0.  0.
    9000005    1    3    3    0    0  0.19946538958E+02 -0.28696355224E+02  0.14481113518E+02  0.37842408330E+02  0.10000000000E+01 0.  0.
    9000005    1    3    3    0    0 -0.19946538958E+02  0.28696355224E+02  0.27855489874E+03  0.28074040826E+03  0.10000000000E+01 0.  0.
<mgrwt>
<rscale>  0 0.12499963E+03</rscale>
<asrwt>0</asrwt>
<pdfrwt beam="1">  1        4 0.47047601E-01 0.12499963E+03</pdfrwt>
<pdfrwt beam="2">  1       -4 0.19651389E-02 0.12499963E+03</pdfrwt>
<totfact> 0.73325605E+03</totfact>
</mgrwt>
</event>
<event>
 5    1  0.3267085E-002  0.1250055E+03  0.7818608E-02  0.1235061E+00
          4   -1    0    0  501    0  0.00000000000E+00  0.00000000000E+00  0.56345577860E+03  0.56345720985E+03  0.12700000000E+01 0.  1.
         -4   -1    0    0    0  501 -0.00000000000E+00 -0.00000000000E+00 -0.68736666255E+01  0.69900066436E+01  0.12700000000E+01 0.  1.
         25    2    1    2    0    0  0.00000000000E+00  0.00000000000E+00  0.55658211197E+03  0.57044721650E+03  0.12500551764E+03 0.  0.
    9000005    1    3    3    0    0  0.33781614921E+02  0.52010157175E+02  0.24313797762E+03  0.25092494918E+03  0.10000000000E+01 0.  0.
    9000005    1    3    3    0    0 -0.33781614921E+02 -0.52010157175E+02  0.31344413435E+03  0.31952226732E+03  0.10000000000E+01 0.  0.
<mgrwt>
<rscale>  0 0.12500552E+03</rscale>
<asrwt>0</asrwt>
<pdfrwt beam="1">  1        4 0.86694610E-01 0.12500552E+03</pdfrwt>
<pdfrwt beam="2">  1       -4 0.10665459E-02 0.12500552E+03</pdfrwt>
<totfact> 0.50781664E+03</totfact>
</mgrwt>
</event>
<event>
 5    1  0.3267085E-002  0.1249992E+03  0.7818608E-02  0.1235071E+00
          4   -1    0    0  501    0  0.00000000000E+00  0.00000000000E+00  0.62444603948E+01  0.63722982998E+01  0.12700000000E+01 0.  1.
         -4   -1    0    0    0  501 -0.00000000000E+00 -0.00000000000E+00 -0.61907953922E+03  0.61908084188E+03  0.12700000000E+01 0.  1.
         25    2    1    2    0    0  0.00000000000E+00  0.00000000000E+00 -0.61283507882E+03  0.62545314018E+03  0.12499918688E+03 0.  0.
    9000005    1    3    3    0    0  0.37172397444E+02  0.47505591985E+02 -0.22471365026E+03  0.23267099736E+03  0.10000000000E+01 0.  0.
    9000005    1    3    3    0    0 -0.37172397444E+02 -0.47505591985E+02 -0.38812142856E+03  0.39278214281E+03  0.10000000000E+01 0.  0.
<mgrwt>
<rscale>  0 0.12499919E+03</rscale>
<asrwt>0</asrwt>
<pdfrwt beam="1">  1        4 0.97062059E-03 0.12499919E+03</pdfrwt>
<pdfrwt beam="2">  1       -4 0.95252892E-01 0.12499919E+03</pdfrwt>
<totfact> 0.47300227E+03</totfact>
</mgrwt>
</event>
<event>
 5    1  0.3267085E-002  0.1250060E+03  0.7818608E-02  0.1235060E+00
          4   -1    0    0  501    0  0.00000000000E+00  0.00000000000E+00  0.25331176766E+02  0.25362993048E+02  0.12700000000E+01 0.  1.
         -4   -1    0    0    0  501 -0.00000000000E+00 -0.00000000000E+00 -0.15409082331E+03  0.15409605683E+03  0.12700000000E+01 0.  1.
         25    2    1    2    0    0  0.00000000000E+00  0.00000000000E+00 -0.12875964655E+03  0.17945904987E+03  0.12500601587E+03 0.  0.
    9000005    1    3    3    0    0 -0.19092803239E+02 -0.31696437817E+02 -0.13668104035E+03  0.14160475308E+03  0.10000000000E+01 0.  0.
    9000005    1    3    3    0    0  0.19092803239E+02  0.31696437817E+02  0.79213937996E+01  0.37854296790E+02  0.10000000000E+01 0.  0.
<mgrwt>
<rscale>  0 0.12500602E+03</rscale>
<asrwt>0</asrwt>
<pdfrwt beam="1">  1        4 0.38999542E-02 0.12500602E+03</pdfrwt>
<pdfrwt beam="2">  1       -4 0.23709130E-01 0.12500602E+03</pdfrwt>
<totfact> 0.93701826E+03</totfact>
</mgrwt>
</event>
<event>
 5    1  0.3267085E-002  0.1250012E+03  0.7818608E-02  0.1235067E+00
          4   -1    0    0  501    0  0.00000000000E+00  0.00000000000E+00  0.29456633466E+02  0.29483998290E+02  0.12700000000E+01 0.  1.
         -4   -1    0    0    0  501 -0.00000000000E+00 -0.00000000000E+00 -0.13252082058E+03  0.13252690590E+03  0.12700000000E+01 0.  1.
         25    2    1    2    0    0  0.00000000000E+00  0.00000000000E+00 -0.10306418712E+03  0.16201090419E+03  0.12500122564E+03 0.  0.
    9000005    1    3    3    0    0  0.98757898168E+01  0.61322543804E+02 -0.60449707900E+02  0.86678444773E+02  0.10000000000E+01 0.  0.
    9000005    1    3    3    0    0 -0.98757898168E+01 -0.61322543804E+02 -0.42614479217E+02  0.75332459419E+02  0.10000000000E+01 0.  0.
<mgrwt>
<rscale>  0 0.12500123E+03</rscale>
<asrwt>0</asrwt>
<pdfrwt beam="1">  1        4 0.45343629E-02 0.12500123E+03</pdfrwt>
<pdfrwt beam="2">  1       -4 0.20390391E-01 0.12500123E+03</pdfrwt>
<totfact> 0.96953823E+03</totfact>
</mgrwt>
</event>
<event>
 5    1  0.3267085E-002  0.1249990E+03  0.7818608E-02  0.1235071E+00
         -4   -1    0    0    0  501 -0.00000000000E+00  0.00000000000E+00  0.18702369531E+03  0.18702800728E+03  0.12700000000E+01 0.  1.
          4   -1    0    0  501    0  0.00000000000E+00 -0.00000000000E+00 -0.20862209181E+02  0.20900829455E+02  0.12700000000E+01 0.  1.
         25    2    1    2    0    0  0.00000000000E+00  0.00000000000E+00  0.16616148613E+03  0.20792883674E+03  0.12499904669E+03 0.  0.
    9000005    1    3    3    0    0  0.14594043665E+02  0.34420658384E+02 -0.21480491675E+00  0.37400721587E+02  0.10000000000E+01 0.  0.
    9000005    1    3    3    0    0 -0.14594043665E+02 -0.34420658384E+02  0.16637629105E+03  0.17052811515E+03  0.10000000000E+01 0.  0.
<mgrwt>
<rscale>  0 0.12499905E+03</rscale>
<asrwt>0</asrwt>
<pdfrwt beam="2">  1        4 0.32128733E-02 0.12499905E+03</pdfrwt>
<pdfrwt beam="1">  1       -4 0.28776177E-01 0.12499905E+03</pdfrwt>
<totfact> 0.88817144E+03</totfact>
</mgrwt>
</event>
<event>
 5    1  0.3267085E-002  0.1249878E+03  0.7818608E-02  0.1235088E+00
         -4   -1    0    0    0  501 -0.00000000000E+00  0.00000000000E+00  0.12865221439E+02  0.12927753968E+02  0.12700000000E+01 0.  1.
          4   -1    0    0  501    0  0.00000000000E+00 -0.00000000000E+00 -0.30276961712E+03  0.30277228069E+03  0.12700000000E+01 0.  1.
         25    2    1    2    0    0  0.00000000000E+00  0.00000000000E+00 -0.28990439569E+03  0.31570003466E+03  0.12498781238E+03 0.  0.
    9000005    1    3    3    0    0 -0.22644188582E+02 -0.55474835006E+02 -0.18972967397E+03  0.19896875578E+03  0.10000000000E+01 0.  0.
    9000005    1    3    3    0    0  0.22644188582E+02  0.55474835006E+02 -0.10017472172E+03  0.11673127887E+03  0.10000000000E+01 0.  0.
<mgrwt>
<rscale>  0 0.12498781E+03</rscale>
<asrwt>0</asrwt>
<pdfrwt beam="2">  1        4 0.46584950E-01 0.12498781E+03</pdfrwt>
<pdfrwt beam="1">  1       -4 0.19842802E-02 0.12498781E+03</pdfrwt>
<totfact> 0.73690399E+03</totfact>
</mgrwt>
</event>
<event>
 5    1  0.3267085E-002  0.1250003E+03  0.7818608E-02  0.1235069E+00
         -4   -1    0    0    0  501 -0.00000000000E+00  0.00000000000E+00  0.12887624937E+04  0.12887631195E+04  0.12700000000E+01 0.  1.
          4   -1    0    0  501    0  0.00000000000E+00 -0.00000000000E+00 -0.28973347208E+01  0.31634551498E+01  0.12700000000E+01 0.  1.
         25    2    1    2    0    0  0.00000000000E+00  0.00000000000E+00  0.12858651590E+04  0.12919265746E+04  0.12500026838E+03 0.  0.
    9000005    1    3    3    0    0 -0.59623634131E+02  0.18023163175E+02  0.69507727781E+03  0.69786333496E+03  0.10000000000E+01 0.  0.
    9000005    1    3    3    0    0  0.59623634131E+02 -0.18023163175E+02  0.59078788120E+03  0.59406323967E+03  0.10000000000E+01 0.  0.
<mgrwt>
<rscale>  0 0.12500027E+03</rscale>
<asrwt>0</asrwt>
<pdfrwt beam="2">  1        4 0.46626213E-03 0.12500027E+03</pdfrwt>
<pdfrwt beam="1">  1       -4 0.19829193E+00 0.12500027E+03</pdfrwt>
<totfact> 0.22419695E+03</totfact>
</mgrwt>
</event>
<event>
 5    1  0.3267085E-002  0.1249986E+03  0.7818608E-02  0.1235072E+00
         -4   -1    0    0    0  501 -0.00000000000E+00  0.00000000000E+00  0.18829828193E+03  0.18830256471E+03  0.12700000000E+01 0.  1.
          4   -1    0    0  501    0  0.00000000000E+00 -0.00000000000E+00 -0.20720572385E+02  0.20759456158E+02  0.12700000000E+01 0.  1.
         25    2    1    2    0    0  0.00000000000E+00  0.00000000000E+00  0.16757770954E+03  0.20906202087E+03  0.12499855933E+03 0.  0.
    9000005    1    3    3    0    0  0.57570292589E+02 -0.21883932677E+01  0.43300426789E+02  0.72076727270E+02  0.10000000000E+01 0.  0.
    9000005    1    3    3    0    0 -0.57570292589E+02  0.21883932677E+01  0.12427728275E+03  0.13698529360E+03  0.10000000000E+01 0.  0.
<mgrwt>
<rscale>  0 0.12499856E+03</rscale>
<asrwt>0</asrwt>
<pdfrwt beam="2">  1        4 0.31911008E-02 0.12499856E+03</pdfrwt>
<pdfrwt beam="1">  1       -4 0.28972288E-01 0.12499856E+03</pdfrwt>
<totfact> 0.88632148E+03</totfact>
</mgrwt>
</event>
<event>
 5    1  0.3267085E-002  0.1249985E+03  0.7818608E-02  0.1235072E+00
         -4   -1    0    0    0  501 -0.00000000000E+00  0.00000000000E+00  0.29013985305E+02  0.29041767221E+02  0.12700000000E+01 0.  1.
          4   -1    0    0  501    0  0.00000000000E+00 -0.00000000000E+00 -0.13453483235E+03  0.13454082658E+03  0.12700000000E+01 0.  1.
         25    2    1    2    0    0  0.00000000000E+00  0.00000000000E+00 -0.10552084705E+03  0.16358259380E+03  0.12499846332E+03 0.  0.
    9000005    1    3    3    0    0  0.44466945238E+02  0.18393636093E+02 -0.58508650737E+00  0.48134991365E+02  0.10000000000E+01 0.  0.
    9000005    1    3    3    0    0 -0.44466945238E+02 -0.18393636093E+02 -0.10493576054E+03  0.11544760243E+03  0.10000000000E+01 0.  0.
<mgrwt>
<rscale>  0 0.12499846E+03</rscale>
<asrwt>0</asrwt>
<pdfrwt beam="2">  1        4 0.20700264E-01 0.12499846E+03</pdfrwt>
<pdfrwt beam="1">  1       -4 0.44662883E-02 0.12499846E+03</pdfrwt>
<totfact> 0.96659839E+03</totfact>
</mgrwt>
</event>
<event>
 5    1  0.3267085E-002  0.1249979E+03  0.7818608E-02  0.1235073E+00
         -4   -1    0    0    0  501 -0.00000000000E+00  0.00000000000E+00  0.89086712890E+03  0.89086803414E+03  0.12700000000E+01 0. -1.
          4   -1    0    0  501    0  0.00000000000E+00 -0.00000000000E+00 -0.42917350490E+01  0.44756999152E+01  0.12700000000E+01 0. -1.
         25    2    1    2    0    0  0.00000000000E+00  0.00000000000E+00  0.88657539385E+03  0.89534373406E+03  0.12499789251E+03 0.  0.
    9000005    1    3    3    0    0  0.45057189071E+02  0.11650427878E+02  0.14456631702E+03  0.15187594535E+03  0.10000000000E+01 0.  0.
    9000005    1    3    3    0    0 -0.45057189071E+02 -0.11650427878E+02  0.74200907683E+03  0.74346778871E+03  0.10000000000E+01 0.  0.
<mgrwt>
<rscale>  0 0.12499789E+03</rscale>
<asrwt>0</asrwt>
<pdfrwt beam="2">  1        4 0.67448808E-03 0.12499789E+03</pdfrwt>
<pdfrwt beam="1">  1       -4 0.13707063E+00 0.12499789E+03</pdfrwt>
<totfact> 0.34340436E+03</totfact>
</mgrwt>
</event>
<event>
 5    1  0.3267085E-002  0.1250014E+03  0.7818608E-02  0.1235067E+00
         -4   -1    0    0    0  501 -0.00000000000E+00  0.00000000000E+00  0.61906997342E+02  0.61920022770E+02  0.12700000000E+01 0.  1.
          4   -1    0    0  501    0  0.00000000000E+00 -0.00000000000E+00 -0.63074012881E+02  0.63086797358E+02  0.12700000000E+01 0.  1.
         25    2    1    2    0    0  0.00000000000E+00  0.00000000000E+00 -0.11670155388E+01  0.12500682013E+03  0.12500137261E+03 0.  0.
    9000005    1    3    3    0    0 -0.51302202769E+02  0.35648708957E+02  0.10257016093E+01  0.62488387105E+02  0.10000000000E+01 0.  0.
    9000005    1    3    3    0    0  0.51302202769E+02 -0.35648708957E+02 -0.21927171481E+01  0.62518433023E+02  0.10000000000E+01 0.  0.
<mgrwt>
<rscale>  0 0.12500137E+03</rscale>
<asrwt>0</asrwt>
<pdfrwt beam="2">  1        4 0.97056797E-02 0.12500137E+03</pdfrwt>
<pdfrwt beam="1">  1       -4 0.95261388E-02 0.12500137E+03</pdfrwt>
<totfact> 0.10452390E+04</totfact>
</mgrwt>
</event>
<event>
 5    1  0.3267085E-002  0.1250019E+03  0.7818608E-02  0.1235066E+00
         -4   -1    0    0    0  501 -0.00000000000E+00  0.00000000000E+00  0.55603806389E+01  0.57035719377E+01  0.12700000000E+01 0.  1.
          4   -1    0    0  501    0  0.00000000000E+00 -0.00000000000E+00 -0.69346119030E+03  0.69346235323E+03  0.12700000000E+01 0.  1.
         25    2    1    2    0    0  0.00000000000E+00  0.00000000000E+00 -0.68790080966E+03  0.69916592517E+03  0.12500186794E+03 0.  0.
    9000005    1    3    3    0    0  0.27623257965E+02 -0.56046126901E+02 -0.33794182940E+03  0.34367119864E+03  0.10000000000E+01 0.  0.
    9000005    1    3    3    0    0 -0.27623257965E+02  0.56046126901E+02 -0.34995898026E+03  0.35549472652E+03  0.10000000000E+01 0.  0.
<mgrwt>
<rscale>  0 0.12500187E+03</rscale>
<asrwt>0</asrwt>
<pdfrwt beam="2">  1        4 0.10669737E+00 0.12500187E+03</pdfrwt>
<pdfrwt beam="1">  1       -4 0.86654790E-03 0.12500187E+03</pdfrwt>
<totfact> 0.43129015E+03</totfact>
</mgrwt>
</event>
<event>
 5    1  0.3267085E-002  0.1249968E+03  0.7818608E-02  0.1235074E+00
         -4   -1    0    0    0  501 -0.00000000000E+00  0.00000000000E+00  0.29870659971E+03  0.29870929950E+03  0.12700000000E+01 0.  1.
          4   -1    0    0  501    0  0.00000000000E+00 -0.00000000000E+00 -0.13042948295E+02  0.13104632777E+02  0.12700000000E+01 0.  1.
         25    2    1    2    0    0  0.00000000000E+00  0.00000000000E+00  0.28566365141E+03  0.31181393228E+03  0.12499682646E+03 0.  0.
    9000005    1    3    3    0    0 -0.15347595682E+01  0.86473582016E+01  0.29717162094E+03  0.29730305176E+03  0.10000000000E+01 0.  0.
    9000005    1    3    3    0    0  0.15347595682E+01 -0.86473582016E+01 -0.11507969530E+02  0.14510880521E+02  0.10000000000E+01 0.  0.
<mgrwt>
<rscale>  0 0.12499683E+03</rscale>
<asrwt>0</asrwt>
<pdfrwt beam="2">  1        4 0.20115603E-02 0.12499683E+03</pdfrwt>
<pdfrwt beam="1">  1       -4 0.45959808E-01 0.12499683E+03</pdfrwt>
<totfact> 0.74145643E+03</totfact>
</mgrwt>
</event>
<event>
 5    1  0.3267085E-002  0.1249989E+03  0.7818608E-02  0.1235071E+00
          4   -1    0    0  501    0  0.00000000000E+00  0.00000000000E+00  0.64621864944E+03  0.64621989739E+03  0.12700000000E+01 0. -1.
         -4   -1    0    0    0  501 -0.00000000000E+00 -0.00000000000E+00 -0.59766973160E+01  0.61101399989E+01  0.12700000000E+01 0. -1.
         25    2    1    2    0    0  0.00000000000E+00  0.00000000000E+00  0.64024195212E+03  0.65233003739E+03  0.12499888168E+03 0.  0.
    9000005    1    3    3    0    0 -0.58497544135E+02 -0.19902594574E+02  0.36882677924E+03  0.37396827275E+03  0.10000000000E+01 0.  0.
    9000005    1    3    3    0    0  0.58497544135E+02  0.19902594574E+02  0.27141517288E+03  0.27836176463E+03  0.10000000000E+01 0.  0.
<mgrwt>
<rscale>  0 0.12499888E+03</rscale>
<asrwt>0</asrwt>
<pdfrwt beam="1">  1        4 0.99428560E-01 0.12499888E+03</pdfrwt>
<pdfrwt beam="2">  1       -4 0.92985322E-03 0.12499888E+03</pdfrwt>
<totfact> 0.45723591E+03</totfact>
</mgrwt>
</event>
<event>
 5    1  0.3267085E-002  0.1250169E+03  0.7818608E-02  0.1235043E+00
          4   -1    0    0  501    0  0.00000000000E+00  0.00000000000E+00  0.32016732791E+03  0.32016984674E+03  0.12700000000E+01 0.  1.
         -4   -1    0    0    0  501 -0.00000000000E+00 -0.00000000000E+00 -0.12168327322E+02  0.12234422333E+02  0.12700000000E+01 0.  1.
         25    2    1    2    0    0  0.00000000000E+00  0.00000000000E+00  0.30799900059E+03  0.33240426907E+03  0.12501685380E+03 0.  0.
    9000005    1    3    3    0    0  0.57292410940E+02 -0.52865415473E+01  0.21890741823E+03  0.22634448442E+03  0.10000000000E+01 0.  0.
    9000005    1    3    3    0    0 -0.57292410940E+02  0.52865415473E+01  0.89091582361E+02  0.10605978465E+03  0.10000000000E+01 0.  0.
<mgrwt>
<rscale>  0 0.12501685E+03</rscale>
<asrwt>0</asrwt>
<pdfrwt beam="1">  1        4 0.49261785E-01 0.12501685E+03</pdfrwt>
<pdfrwt beam="2">  1       -4 0.18773285E-02 0.12501685E+03</pdfrwt>
<totfact> 0.71677930E+03</totfact>
</mgrwt>
</event>
<event>
 5    1  0.3267085E-002  0.1250105E+03  0.7818608E-02  0.1235053E+00
          4   -1    0    0  501    0  0.00000000000E+00  0.00000000000E+00  0.10269534857E+03  0.10270320111E+03  0.12700000000E+01 0. -1.
         -4   -1    0    0    0  501 -0.00000000000E+00 -0.00000000000E+00 -0.38023773819E+02  0.38044977007E+02  0.12700000000E+01 0. -1.
         25    2    1    2    0    0  0.00000000000E+00  0.00000000000E+00  0.64671574754E+02  0.14074817812E+03  0.12501054780E+03 0.  0.
    9000005    1    3    3    0    0 -0.19953112859E+02 -0.58506697870E+02  0.42700638038E+02  0.75136574963E+02  0.10000000000E+01 0.  0.
    9000005    1    3    3    0    0  0.19953112859E+02  0.58506697870E+02  0.21970936716E+02  0.65611603155E+02  0.10000000000E+01 0.  0.
<mgrwt>
<rscale>  0 0.12501055E+03</rscale>
<asrwt>0</asrwt>
<pdfrwt beam="1">  1        4 0.15801519E-01 0.12501055E+03</pdfrwt>
<pdfrwt beam="2">  1       -4 0.58520465E-02 0.12501055E+03</pdfrwt>
<totfact> 0.10115699E+04</totfact>
</mgrwt>
</event>
<event>
 5    1  0.3267085E-002  0.1250345E+03  0.7818608E-02  0.1235015E+00
         -4   -1    0    0    0  501 -0.00000000000E+00  0.00000000000E+00  0.82902186593E+02  0.82911913751E+02  0.12700000000E+01 0.  1.
          4   -1    0    0  501    0  0.00000000000E+00 -0.00000000000E+00 -0.47123740269E+02  0.47140850618E+02  0.12700000000E+01 0.  1.
         25    2    1    2    0    0  0.00000000000E+00  0.00000000000E+00  0.35778446323E+02  0.13005276437E+03  0.12503449244E+03 0.  0.
    9000005    1    3    3    0    0 -0.13579769282E+02  0.41238772683E+02 -0.28886330795E+02  0.52158092497E+02  0.10000000000E+01 0.  0.
    9000005    1    3    3    0    0  0.13579769282E+02 -0.41238772683E+02  0.64664777119E+02  0.77894671871E+02  0.10000000000E+01 0.  0.
<mgrwt>
<rscale>  0 0.12503449E+03</rscale>
<asrwt>0</asrwt>
<pdfrwt beam="2">  1        4 0.72518707E-02 0.12503449E+03</pdfrwt>
<pdfrwt beam="1">  1       -4 0.12756247E-01 0.12503449E+03</pdfrwt>
<totfact> 0.10335330E+04</totfact>
</mgrwt>
</event>
<event>
 5    1  0.3267085E-002  0.1250007E+03  0.7818608E-02  0.1235068E+00
          4   -1    0    0  501    0  0.00000000000E+00  0.00000000000E+00  0.21777151409E+02  0.21814151909E+02  0.12700000000E+01 0. -1.
         -4   -1    0    0    0  501 -0.00000000000E+00 -0.00000000000E+00 -0.17918424633E+03  0.17918874695E+03  0.12700000000E+01 0. -1.
         25    2    1    2    0    0  0.00000000000E+00  0.00000000000E+00 -0.15740709492E+03  0.20100289886E+03  0.12500068727E+03 0.  0.
    9000005    1    3    3    0    0 -0.24583368550E+01 -0.34002271487E+02  0.55155047614E+01  0.34548786941E+02  0.10000000000E+01 0.  0.
    9000005    1    3    3    0    0  0.24583368550E+01  0.34002271487E+02 -0.16292259969E+03  0.16645411192E+03  0.10000000000E+01 0.  0.
<mgrwt>
<rscale>  0 0.12500069E+03</rscale>
<asrwt>0</asrwt>
<pdfrwt beam="1">  1        4 0.33535235E-02 0.12500069E+03</pdfrwt>
<pdfrwt beam="2">  1       -4 0.27569999E-01 0.12500069E+03</pdfrwt>
<totfact> 0.89965251E+03</totfact>
</mgrwt>
</event>
<event>
 5    1  0.3267085E-002  0.1250135E+03  0.7818608E-02  0.1235048E+00
         -4   -1    0    0    0  501 -0.00000000000E+00  0.00000000000E+00  0.62894461667E+02  0.62907282634E+02  0.12700000000E+01 0.  1.
          4   -1    0    0  501    0  0.00000000000E+00 -0.00000000000E+00 -0.62095746673E+02  0.62108732517E+02  0.12700000000E+01 0.  1.
         25    2    1    2    0    0  0.00000000000E+00  0.00000000000E+00  0.79871499484E+00  0.12501601515E+03  0.12501346367E+03 0.  0.
    9000005    1    3    3    0    0  0.37532364054E+02 -0.41898577536E+02  0.27638165451E+02  0.62682033634E+02  0.10000000000E+01 0.  0.
    9000005    1    3    3    0    0 -0.37532364054E+02  0.41898577536E+02 -0.26839450456E+02  0.62333981517E+02  0.10000000000E+01 0.  0.
<mgrwt>
<rscale>  0 0.12501346E+03</rscale>
<asrwt>0</asrwt>
<pdfrwt beam="2">  1        4 0.95551770E-02 0.12501346E+03</pdfrwt>
<pdfrwt beam="1">  1       -4 0.96780561E-02 0.12501346E+03</pdfrwt>
<totfact> 0.10449335E+04</totfact>
</mgrwt>
</event>
<event>
 5    1  0.3267085E-002  0.1249992E+03  0.7818608E-02  0.1235071E+00
         -4   -1    0    0    0  501 -0.00000000000E+00  0.00000000000E+00  0.52201895593E+03  0.52202050080E+03  0.12700000000E+01 0. -1.
          4   -1    0    0  501    0  0.00000000000E+00 -0.00000000000E+00 -0.74274151710E+01  0.75352104233E+01  0.12700000000E+01 0. -1.
         25    2    1    2    0    0  0.00000000000E+00  0.00000000000E+00  0.51459154076E+03  0.52955571122E+03  0.12499918985E+03 0.  0.
    9000005    1    3    3    0    0  0.36072256536E+02  0.37093595187E+02  0.10883432051E+03  0.12051162524E+03  0.10000000000E+01 0.  0.
    9000005    1    3    3    0    0 -0.36072256536E+02 -0.37093595187E+02  0.40575722025E+03  0.40904408598E+03  0.10000000000E+01 0.  0.
<mgrwt>
<rscale>  0 0.12499919E+03</rscale>
<asrwt>0</asrwt>
<pdfrwt beam="2">  1        4 0.11510902E-02 0.12499919E+03</pdfrwt>
<pdfrwt beam="1">  1       -4 0.80319007E-01 0.12499919E+03</pdfrwt>
<totfact> 0.53642936E+03</totfact>
</mgrwt>
</event>
<event>
 5    1  0.3267085E-002  0.1250054E+03  0.7818608E-02  0.1235061E+00
          4   -1    0    0  501    0  0.00000000000E+00  0.00000000000E+00  0.94989385053E+03  0.94989469952E+03  0.12700000000E+01 0.  1.
         -4   -1    0    0    0  501 -0.00000000000E+00 -0.00000000000E+00 -0.40137394327E+01  0.42098698595E+01  0.12700000000E+01 0.  1.
         25    2    1    2    0    0  0.00000000000E+00  0.00000000000E+00  0.94588011110E+03  0.95410456938E+03  0.12500537884E+03 0.  0.
    9000005    1    3    3    0    0 -0.44247082202E+02 -0.17124215981E+02  0.78340053318E+03  0.78483656799E+03  0.10000000000E+01 0.  0.
    9000005    1    3    3    0    0  0.44247082202E+02  0.17124215981E+02  0.16247957791E+03  0.16926800139E+03  0.10000000000E+01 0.  0.
<mgrwt>
<rscale>  0 0.12500538E+03</rscale>
<asrwt>0</asrwt>
<pdfrwt beam="1">  1        4 0.14615268E+00 0.12500538E+03</pdfrwt>
<pdfrwt beam="2">  1       -4 0.63265060E-03 0.12500538E+03</pdfrwt>
<totfact> 0.32166910E+03</totfact>
</mgrwt>
</event>
<event>
 5    1  0.3267085E-002  0.1250014E+03  0.7818608E-02  0.1235067E+00
         -4   -1    0    0    0  501 -0.00000000000E+00  0.00000000000E+00  0.14641571887E+02  0.14696548143E+02  0.12700000000E+01 0.  1.
          4   -1    0    0  501    0  0.00000000000E+00 -0.00000000000E+00 -0.26624103480E+03  0.26624406381E+03  0.12700000000E+01 0.  1.
         25    2    1    2    0    0  0.00000000000E+00  0.00000000000E+00 -0.25159946292E+03  0.28094061195E+03  0.12500135081E+03 0.  0.
    9000005    1    3    3    0    0  0.31671173285E+02  0.22479873351E+01 -0.48261920168E+01  0.32131118774E+02  0.10000000000E+01 0.  0.
    9000005    1    3    3    0    0 -0.31671173285E+02 -0.22479873351E+01 -0.24677327090E+03  0.24880949318E+03  0.10000000000E+01 0.  0.
<mgrwt>
<rscale>  0 0.12500135E+03</rscale>
<asrwt>0</asrwt>
<pdfrwt beam="2">  1        4 0.40964617E-01 0.12500135E+03</pdfrwt>
<pdfrwt beam="1">  1       -4 0.22570117E-02 0.12500135E+03</pdfrwt>
<totfact> 0.78051210E+03</totfact>
</mgrwt>
</event>
<event>
 5    1  0.3267085E-002  0.1249992E+03  0.7818608E-02  0.1235070E+00
         -4   -1    0    0    0  501 -0.00000000000E+00  0.00000000000E+00  0.30160597971E+02  0.30187324657E+02  0.12700000000E+01 0.  1.
          4   -1    0    0  501    0  0.00000000000E+00 -0.00000000000E+00 -0.12942619925E+03  0.12943243006E+03  0.12700000000E+01 0.  1.
         25    2    1    2    0    0  0.00000000000E+00  0.00000000000E+00 -0.99265601279E+02  0.15961975472E+03  0.12499922600E+03 0.  0.
    9000005    1    3    3    0    0  0.31699239302E+02  0.26283979923E+02  0.10391557175E+02  0.42481452817E+02  0.10000000000E+01 0.  0.
    9000005    1    3    3    0    0 -0.31699239302E+02 -0.26283979923E+02 -0.10965715845E+03  0.11713830190E+03  0.10000000000E+01 0.  0.
<mgrwt>
<rscale>  0 0.12499923E+03</rscale>
<asrwt>0</asrwt>
<pdfrwt beam="2">  1        4 0.19914258E-01 0.12499923E+03</pdfrwt>
<pdfrwt beam="1">  1       -4 0.46426273E-02 0.12499923E+03</pdfrwt>
<totfact> 0.97417838E+03</totfact>
</mgrwt>
</event>
<event>
 5    1  0.3267085E-002  0.1250002E+03  0.7818608E-02  0.1235069E+00
         -4   -1    0    0    0  501 -0.00000000000E+00  0.00000000000E+00  0.73273176682E+01  0.74365640057E+01  0.12700000000E+01 0.  1.
          4   -1    0    0  501    0  0.00000000000E+00 -0.00000000000E+00 -0.52905508852E+03  0.52905661284E+03  0.12700000000E+01 0.  1.
         25    2    1    2    0    0  0.00000000000E+00  0.00000000000E+00 -0.52172777085E+03  0.53649317685E+03  0.12500024769E+03 0.  0.
    9000005    1    3    3    0    0 -0.26239270075E+02  0.11068000516E+02 -0.22120075290E+02  0.36073503577E+02  0.10000000000E+01 0.  0.
    9000005    1    3    3    0    0  0.26239270075E+02 -0.11068000516E+02 -0.49960769556E+03  0.50041967327E+03  0.10000000000E+01 0.  0.
<mgrwt>
<rscale>  0 0.12500025E+03</rscale>
<asrwt>0</asrwt>
<pdfrwt beam="2">  1        4 0.81401581E-01 0.12500025E+03</pdfrwt>
<pdfrwt beam="1">  1       -4 0.11358009E-02 0.12500025E+03</pdfrwt>
<totfact> 0.53139820E+03</totfact>
</mgrwt>
</event>
<event>
 5    1  0.3267085E-002  0.1250020E+03  0.7818608E-02  0.1235066E+00
          4   -1    0    0  501    0  0.00000000000E+00  0.00000000000E+00  0.12813665157E+02  0.12876448065E+02  0.12700000000E+01 0.  1.
         -4   -1    0    0    0  501 -0.00000000000E+00 -0.00000000000E+00 -0.30405103617E+03  0.30405368851E+03  0.12700000000E+01 0.  1.
         25    2    1    2    0    0  0.00000000000E+00  0.00000000000E+00 -0.29123737101E+03  0.31693013658E+03  0.12500202076E+03 0.  0.
    9000005    1    3    3    0    0  0.83232901705E+01 -0.31705001101E+02 -0.10719863275E+02  0.34502169826E+02  0.10000000000E+01 0.  0.
    9000005    1    3    3    0    0 -0.83232901705E+01  0.31705001101E+02 -0.28051750774E+03  0.28242796675E+03  0.10000000000E+01 0.  0.
<mgrwt>
<rscale>  0 0.12500202E+03</rscale>
<asrwt>0</asrwt>
<pdfrwt beam="1">  1        4 0.19763668E-02 0.12500202E+03</pdfrwt>
<pdfrwt beam="2">  1       -4 0.46782111E-01 0.12500202E+03</pdfrwt>
<totfact> 0.73519446E+03</totfact>
</mgrwt>
</event>
<event>
 5    1  0.3267085E-002  0.1249987E+03  0.7818608E-02  0.1235071E+00
         -4   -1    0    0    0  501 -0.00000000000E+00  0.00000000000E+00  0.83635198637E+02  0.83644840553E+02  0.12700000000E+01 0. -1.
          4   -1    0    0  501    0  0.00000000000E+00 -0.00000000000E+00 -0.46683908345E+02  0.46701179839E+02  0.12700000000E+01 0. -1.
         25    2    1    2    0    0  0.00000000000E+00  0.00000000000E+00  0.36951290293E+02  0.13034602039E+03  0.12499874870E+03 0.  0.
    9000005    1    3    3    0    0  0.35492254002E+02 -0.43664235365E+02 -0.98700283791E+01  0.57137404599E+02  0.10000000000E+01 0.  0.
    9000005    1    3    3    0    0 -0.35492254002E+02  0.43664235365E+02  0.46821318672E+02  0.73208615793E+02  0.10000000000E+01 0.  0.
<mgrwt>
<rscale>  0 0.12499875E+03</rscale>
<asrwt>0</asrwt>
<pdfrwt beam="2">  1        4 0.71842101E-02 0.12499875E+03</pdfrwt>
<pdfrwt beam="1">  1       -4 0.12869024E-01 0.12499875E+03</pdfrwt>
<totfact> 0.10337403E+04</totfact>
</mgrwt>
</event>
<event>
 5    1  0.3267085E-002  0.1250012E+03  0.7818608E-02  0.1235067E+00
          4   -1    0    0  501    0  0.00000000000E+00  0.00000000000E+00  0.23922763366E+02  0.23956450219E+02  0.12700000000E+01 0. -1.
         -4   -1    0    0    0  501 -0.00000000000E+00 -0.00000000000E+00 -0.16313809642E+03  0.16314303970E+03  0.12700000000E+01 0. -1.
         25    2    1    2    0    0  0.00000000000E+00  0.00000000000E+00 -0.13921533306E+03  0.18709948992E+03  0.12500124068E+03 0.  0.
    9000005    1    3    3    0    0  0.34504051164E+02  0.52026220111E+01 -0.14720577903E+03  0.15128826194E+03  0.10000000000E+01 0.  0.
    9000005    1    3    3    0    0 -0.34504051164E+02 -0.52026220111E+01  0.79904459741E+01  0.35811227979E+02  0.10000000000E+01 0.  0.
<mgrwt>
<rscale>  0 0.12500124E+03</rscale>
<asrwt>0</asrwt>
<pdfrwt beam="1">  1        4 0.36833968E-02 0.12500124E+03</pdfrwt>
<pdfrwt beam="2">  1       -4 0.25101139E-01 0.12500124E+03</pdfrwt>
<totfact> 0.92351890E+03</totfact>
</mgrwt>
</event>
<event>
 5    1  0.3267085E-002  0.1250029E+03  0.7818608E-02  0.1235065E+00
         -4   -1    0    0    0  501 -0.00000000000E+00  0.00000000000E+00  0.22148628719E+02  0.22185009672E+02  0.12700000000E+01 0.  1.
          4   -1    0    0  501    0  0.00000000000E+00 -0.00000000000E+00 -0.17619022586E+03  0.17619480295E+03  0.12700000000E+01 0.  1.
         25    2    1    2    0    0  0.00000000000E+00  0.00000000000E+00 -0.15404159714E+03  0.19837981263E+03  0.12500294560E+03 0.  0.
    9000005    1    3    3    0    0  0.44321758209E+02  0.39874414882E+02 -0.47286356552E+02  0.76101161154E+02  0.10000000000E+01 0.  0.
    9000005    1    3    3    0    0 -0.44321758209E+02 -0.39874414882E+02 -0.10675524059E+03  0.12227865147E+03  0.10000000000E+01 0.  0.
<mgrwt>
<rscale>  0 0.12500295E+03</rscale>
<asrwt>0</asrwt>
<pdfrwt beam="2">  1        4 0.27109338E-01 0.12500295E+03</pdfrwt>
<pdfrwt beam="1">  1       -4 0.34106321E-02 0.12500295E+03</pdfrwt>
<totfact> 0.90403392E+03</totfact>
</mgrwt>
</event>
<event>
 5    1  0.3267085E-002  0.1249892E+03  0.7818608E-02  0.1235086E+00
         -4   -1    0    0    0  501 -0.00000000000E+00  0.00000000000E+00  0.70414357727E+02  0.70425809715E+02  0.12700000000E+01 0.  1.
          4   -1    0    0  501    0  0.00000000000E+00 -0.00000000000E+00 -0.55442408267E+02  0.55456952084E+02  0.12700000000E+01 0.  1.
         25    2    1    2    0    0  0.00000000000E+00  0.00000000000E+00  0.14971949459E+02  0.12588276180E+03  0.12498924133E+03 0.  0.
    9000005    1    3    3    0    0  0.27491192795E+02 -0.53376079207E+02  0.24924664927E+02  0.65015463042E+02  0.10000000000E+01 0.  0.
    9000005    1    3    3    0    0 -0.27491192795E+02  0.53376079207E+02 -0.99527154682E+01  0.60867298758E+02  0.10000000000E+01 0.  0.
<mgrwt>
<rscale>  0 0.12498924E+03</rscale>
<asrwt>0</asrwt>
<pdfrwt beam="2">  1        4 0.85316010E-02 0.12498924E+03</pdfrwt>
<pdfrwt beam="1">  1       -4 0.10834978E-01 0.12498924E+03</pdfrwt>
<totfact> 0.10436061E+04</totfact>
</mgrwt>
</event>
<event>
 5    1  0.3267085E-002  0.1250263E+03  0.7818608E-02  0.1235028E+00
          4   -1    0    0  501    0  0.00000000000E+00  0.00000000000E+00  0.18052167181E+03  0.18052613909E+03  0.12700000000E+01 0. -1.
         -4   -1    0    0    0  501 -0.00000000000E+00 -0.00000000000E+00 -0.21624419790E+02  0.21661681174E+02  0.12700000000E+01 0. -1.
         25    2    1    2    0    0  0.00000000000E+00  0.00000000000E+00  0.15889725202E+03  0.20218782026E+03  0.12502630908E+03 0.  0.
    9000005    1    3    3    0    0 -0.32247084600E+02 -0.53083997322E+02  0.68115877625E+02  0.92187624015E+02  0.10000000000E+01 0.  0.
    9000005    1    3    3    0    0  0.32247084600E+02  0.53083997322E+02  0.90781374396E+02  0.11000019625E+03  0.10000000000E+01 0.  0.
<mgrwt>
<rscale>  0 0.12502631E+03</rscale>
<asrwt>0</asrwt>
<pdfrwt beam="1">  1        4 0.27775774E-01 0.12502631E+03</pdfrwt>
<pdfrwt beam="2">  1       -4 0.33300438E-02 0.12502631E+03</pdfrwt>
<totfact> 0.89715003E+03</totfact>
</mgrwt>
</event>
<event>
 5    1  0.3267085E-002  0.1250029E+03  0.7818608E-02  0.1235065E+00
         -4   -1    0    0    0  501 -0.00000000000E+00  0.00000000000E+00  0.27209316909E+02  0.27238939529E+02  0.12700000000E+01 0. -1.
          4   -1    0    0  501    0  0.00000000000E+00 -0.00000000000E+00 -0.14345903089E+03  0.14346465224E+03  0.12700000000E+01 0. -1.
         25    2    1    2    0    0  0.00000000000E+00  0.00000000000E+00 -0.11624971398E+03  0.17070359177E+03  0.12500288094E+03 0.  0.
    9000005    1    3    3    0    0 -0.32019854648E+02  0.81297395809E+00 -0.13140410951E+03  0.13525521068E+03  0.10000000000E+01 0.  0.
    9000005    1    3    3    0    0  0.32019854648E+02 -0.81297395809E+00  0.15154395534E+02  0.35448381096E+02  0.10000000000E+01 0.  0.
<mgrwt>
<rscale>  0 0.12500288E+03</rscale>
<asrwt>0</asrwt>
<pdfrwt beam="2">  1        4 0.22073331E-01 0.12500288E+03</pdfrwt>
<pdfrwt beam="1">  1       -4 0.41887599E-02 0.12500288E+03</pdfrwt>
<totfact> 0.95311496E+03</totfact>
</mgrwt>
</event>
<event>
 5    1  0.3267085E-002  0.1249967E+03  0.7818608E-02  0.1235074E+00
          4   -1    0    0  501    0  0.00000000000E+00  0.00000000000E+00  0.31197948225E+02  0.31223786981E+02  0.12700000000E+01 0. -1.
         -4   -1    0    0    0  501 -0.00000000000E+00 -0.00000000000E+00 -0.12512100065E+03  0.12512744584E+03  0.12700000000E+01 0. -1.
         25    2    1    2    0    0  0.00000000000E+00  0.00000000000E+00 -0.93923052421E+02  0.15635123282E+03  0.12499667287E+03 0.  0.
    9000005    1    3    3    0    0 -0.20271429047E+02 -0.58292238644E+02 -0.34697767475E+02  0.70808551669E+02  0.10000000000E+01 0.  0.
    9000005    1    3    3    0    0  0.20271429047E+02  0.58292238644E+02 -0.59225284946E+02  0.85542681152E+02  0.10000000000E+01 0.  0.
<mgrwt>
<rscale>  0 0.12499667E+03</rscale>
<asrwt>0</asrwt>
<pdfrwt beam="1">  1        4 0.48021678E-02 0.12499667E+03</pdfrwt>
<pdfrwt beam="2">  1       -4 0.19251868E-01 0.12499667E+03</pdfrwt>
<totfact> 0.98058222E+03</totfact>
</mgrwt>
</event>
<event>
 5    1  0.3267085E-002  0.1249992E+03  0.7818608E-02  0.1235071E+00
          4   -1    0    0  501    0  0.00000000000E+00  0.00000000000E+00  0.56171976480E+03  0.56172120048E+03  0.12700000000E+01 0. -1.
         -4   -1    0    0    0  501 -0.00000000000E+00 -0.00000000000E+00 -0.68945621816E+01  0.70105554470E+01  0.12700000000E+01 0. -1.
         25    2    1    2    0    0  0.00000000000E+00  0.00000000000E+00  0.55482520262E+03  0.56873175592E+03  0.12499921895E+03 0.  0.
    9000005    1    3    3    0    0  0.16416328507E+02  0.15536732360E+01  0.55166491301E+03  0.55191220859E+03  0.10000000000E+01 0.  0.
    9000005    1    3    3    0    0 -0.16416328507E+02 -0.15536732360E+01  0.31602896065E+01  0.16819547336E+02  0.10000000000E+01 0.  0.
<mgrwt>
<rscale>  0 0.12499922E+03</rscale>
<asrwt>0</asrwt>
<pdfrwt beam="1">  1        4 0.86427439E-01 0.12499922E+03</pdfrwt>
<pdfrwt beam="2">  1       -4 0.10697351E-02 0.12499922E+03</pdfrwt>
<totfact> 0.50903650E+03</totfact>
</mgrwt>
</event>
<event>
 5    1  0.3267085E-002  0.1249940E+03  0.7818608E-02  0.1235079E+00
          4   -1    0    0  501    0  0.00000000000E+00  0.00000000000E+00  0.48753039336E+02  0.48769578064E+02  0.12700000000E+01 0. -1.
         -4   -1    0    0    0  501 -0.00000000000E+00 -0.00000000000E+00 -0.80080374351E+02  0.80090444226E+02  0.12700000000E+01 0. -1.
         25    2    1    2    0    0  0.00000000000E+00  0.00000000000E+00 -0.31327335015E+02  0.12886002229E+03  0.12499401356E+03 0.  0.
    9000005    1    3    3    0    0 -0.22456807160E+02  0.55047346764E+01  0.44185904655E+02  0.49879900379E+02  0.10000000000E+01 0.  0.
    9000005    1    3    3    0    0  0.22456807160E+02 -0.55047346764E+01 -0.75513239669E+02  0.78980121911E+02  0.10000000000E+01 0.  0.
<mgrwt>
<rscale>  0 0.12499401E+03</rscale>
<asrwt>0</asrwt>
<pdfrwt beam="1">  1        4 0.75025144E-02 0.12499401E+03</pdfrwt>
<pdfrwt beam="2">  1       -4 0.12322104E-01 0.12499401E+03</pdfrwt>
<totfact> 0.10370357E+04</totfact>
</mgrwt>
</event>
<event>
 5    1  0.3267085E-002  0.1250389E+03  0.7818608E-02  0.1235009E+00
         -4   -1    0    0    0  501 -0.00000000000E+00  0.00000000000E+00  0.13475745939E+02  0.13535458197E+02  0.12700000000E+01 0.  1.
          4   -1    0    0  501    0  0.00000000000E+00 -0.00000000000E+00 -0.28935055466E+03  0.28935334175E+03  0.12700000000E+01 0.  1.
         25    2    1    2    0    0  0.00000000000E+00  0.00000000000E+00 -0.27587480872E+03  0.30288879995E+03  0.12503885415E+03 0.  0.
    9000005    1    3    3    0    0 -0.40394054389E+02 -0.16025539511E+02 -0.24678676389E+03  0.25058572261E+03  0.10000000000E+01 0.  0.
    9000005    1    3    3    0    0  0.40394054389E+02  0.16025539511E+02 -0.29088044836E+02  0.52303077337E+02  0.10000000000E+01 0.  0.
<mgrwt>
<rscale>  0 0.12503885E+03</rscale>
<asrwt>0</asrwt>
<pdfrwt beam="2">  1        4 0.44520273E-01 0.12503885E+03</pdfrwt>
<pdfrwt beam="1">  1       -4 0.20779995E-02 0.12503885E+03</pdfrwt>
<totfact> 0.75173052E+03</totfact>
</mgrwt>
</event>
<event>
 5    1  0.3267085E-002  0.1249998E+03  0.7818608E-02  0.1235070E+00
          4   -1    0    0  501    0  0.00000000000E+00  0.00000000000E+00  0.20967672397E+01  0.24513940641E+01  0.12700000000E+01 0.  1.
         -4   -1    0    0    0  501 -0.00000000000E+00 -0.00000000000E+00 -0.17173662222E+04  0.17173666918E+04  0.12700000000E+01 0.  1.
         25    2    1    2    0    0  0.00000000000E+00  0.00000000000E+00 -0.17152694550E+04  0.17198180859E+04  0.12499978118E+03 0.  0.
    9000005    1    3    3    0    0 -0.57981825032E+01 -0.11021515681E+02 -0.15081769308E+02  0.19584496258E+02  0.10000000000E+01 0.  0.
    9000005    1    3    3    0    0  0.57981825032E+01  0.11021515681E+02 -0.17001876857E+04  0.17002335896E+04  0.10000000000E+01 0.  0.
<mgrwt>
<rscale>  0 0.12499978E+03</rscale>
<asrwt>0</asrwt>
<pdfrwt beam="1">  1        4 0.34989606E-03 0.12499978E+03</pdfrwt>
<pdfrwt beam="2">  1       -4 0.26423647E+00 0.12499978E+03</pdfrwt>
<totfact> 0.13980099E+03</totfact>
</mgrwt>
</event>
<event>
 5    1  0.3267085E-002  0.1250021E+03  0.7818608E-02  0.1235066E+00
          4   -1    0    0  501    0  0.00000000000E+00  0.00000000000E+00  0.65546484093E+03  0.65546607128E+03  0.12700000000E+01 0.  1.
         -4   -1    0    0    0  501 -0.00000000000E+00 -0.00000000000E+00 -0.58908009005E+01  0.60261459698E+01  0.12700000000E+01 0.  1.
         25    2    1    2    0    0  0.00000000000E+00  0.00000000000E+00  0.64957404003E+03  0.66149221725E+03  0.12500207997E+03 0.  0.
    9000005    1    3    3    0    0 -0.50605963601E+02 -0.35071035156E+02  0.38139718411E+03  0.38633632123E+03  0.10000000000E+01 0.  0.
    9000005    1    3    3    0    0  0.50605963601E+02  0.35071035156E+02  0.26817685592E+03  0.27515589602E+03  0.10000000000E+01 0.  0.
<mgrwt>
<rscale>  0 0.12500208E+03</rscale>
<asrwt>0</asrwt>
<pdfrwt beam="1">  1        4 0.10085125E+00 0.12500208E+03</pdfrwt>
<pdfrwt beam="2">  1       -4 0.91678289E-03 0.12500208E+03</pdfrwt>
<totfact> 0.45196720E+03</totfact>
</mgrwt>
</event>
<event>
 5    1  0.3267085E-002  0.1249971E+03  0.7818608E-02  0.1235074E+00
          4   -1    0    0  501    0  0.00000000000E+00  0.00000000000E+00  0.18503653321E+03  0.18504089148E+03  0.12700000000E+01 0. -1.
         -4   -1    0    0    0  501 -0.00000000000E+00 -0.00000000000E+00 -0.21086013761E+02  0.21124224869E+02  0.12700000000E+01 0. -1.
         25    2    1    2    0    0  0.00000000000E+00  0.00000000000E+00  0.16395051945E+03  0.20616511635E+03  0.12499712946E+03 0.  0.
    9000005    1    3    3    0    0 -0.26342359862E+02  0.55903960366E+02  0.97261700610E+02  0.11523893055E+03  0.10000000000E+01 0.  0.
    9000005    1    3    3    0    0  0.26342359862E+02 -0.55903960366E+02  0.66688818835E+02  0.90926185807E+02  0.10000000000E+01 0.  0.
<mgrwt>
<rscale>  0 0.12499713E+03</rscale>
<asrwt>0</asrwt>
<pdfrwt beam="1">  1        4 0.28470435E-01 0.12499713E+03</pdfrwt>
<pdfrwt beam="2">  1       -4 0.32472765E-02 0.12499713E+03</pdfrwt>
<totfact> 0.89111741E+03</totfact>
</mgrwt>
</event>
<event>
 5    1  0.3267085E-002  0.1250019E+03  0.7818608E-02  0.1235066E+00
         -4   -1    0    0    0  501 -0.00000000000E+00  0.00000000000E+00  0.29534427058E+02  0.29561719869E+02  0.12700000000E+01 0. -1.
          4   -1    0    0  501    0  0.00000000000E+00 -0.00000000000E+00 -0.13217358061E+03  0.13217968191E+03  0.12700000000E+01 0. -1.
         25    2    1    2    0    0  0.00000000000E+00  0.00000000000E+00 -0.10263915355E+03  0.16174140178E+03  0.12500194082E+03 0.  0.
    9000005    1    3    3    0    0 -0.14330750126E+02 -0.52317437377E+02 -0.91470175816E+02  0.10634978945E+03  0.10000000000E+01 0.  0.
    9000005    1    3    3    0    0  0.14330750126E+02  0.52317437377E+02 -0.11168977734E+02  0.55391612330E+02  0.10000000000E+01 0.  0.
<mgrwt>
<rscale>  0 0.12500194E+03</rscale>
<asrwt>0</asrwt>
<pdfrwt beam="2">  1        4 0.20336965E-01 0.12500194E+03</pdfrwt>
<pdfrwt beam="1">  1       -4 0.45463269E-02 0.12500194E+03</pdfrwt>
<totfact> 0.97003872E+03</totfact>
</mgrwt>
</event>
<event>
 5    1  0.3267085E-002  0.1249983E+03  0.7818608E-02  0.1235072E+00
          4   -1    0    0  501    0  0.00000000000E+00  0.00000000000E+00  0.85554466142E+02  0.85563891782E+02  0.12700000000E+01 0.  1.
         -4   -1    0    0    0  501 -0.00000000000E+00 -0.00000000000E+00 -0.45636025735E+02  0.45653693661E+02  0.12700000000E+01 0.  1.
         25    2    1    2    0    0  0.00000000000E+00  0.00000000000E+00  0.39918440408E+02  0.13121758544E+03  0.12499829137E+03 0.  0.
    9000005    1    3    3    0    0  0.49066464067E+02  0.59233903585E-01  0.60583815069E+02  0.77967429437E+02  0.10000000000E+01 0.  0.
    9000005    1    3    3    0    0 -0.49066464067E+02 -0.59233903585E-01 -0.20665374661E+02  0.53250156006E+02  0.10000000000E+01 0.  0.
<mgrwt>
<rscale>  0 0.12499829E+03</rscale>
<asrwt>0</asrwt>
<pdfrwt beam="1">  1        4 0.13164309E-01 0.12499829E+03</pdfrwt>
<pdfrwt beam="2">  1       -4 0.70230113E-02 0.12499829E+03</pdfrwt>
<totfact> 0.10318825E+04</totfact>
</mgrwt>
</event>
<event>
 5    1  0.3267085E-002  0.1250029E+03  0.7818608E-02  0.1235065E+00
         -4   -1    0    0    0  501 -0.00000000000E+00  0.00000000000E+00  0.20002977953E+02  0.20043253902E+02  0.12700000000E+01 0. -1.
          4   -1    0    0  501    0  0.00000000000E+00 -0.00000000000E+00 -0.19505386411E+03  0.19505799857E+03  0.12700000000E+01 0. -1.
         25    2    1    2    0    0  0.00000000000E+00  0.00000000000E+00 -0.17505088616E+03  0.21510125247E+03  0.12500294424E+03 0.  0.
    9000005    1    3    3    0    0 -0.40765092028E+02  0.45894024495E+02 -0.10769443278E+03  0.12396428947E+03  0.10000000000E+01 0.  0.
    9000005    1    3    3    0    0  0.40765092028E+02 -0.45894024495E+02 -0.67356453381E+02  0.91136962998E+02  0.10000000000E+01 0.  0.
<mgrwt>
<rscale>  0 0.12500294E+03</rscale>
<asrwt>0</asrwt>
<pdfrwt beam="2">  1        4 0.30011702E-01 0.12500294E+03</pdfrwt>
<pdfrwt beam="1">  1       -4 0.30807975E-02 0.12500294E+03</pdfrwt>
<totfact> 0.87643732E+03</totfact>
</mgrwt>
</event>
<event>
 5    1  0.3267085E-002  0.1250116E+03  0.7818608E-02  0.1235051E+00
         -4   -1    0    0    0  501 -0.00000000000E+00  0.00000000000E+00  0.28904795896E+02  0.28932682658E+02  0.12700000000E+01 0. -1.
          4   -1    0    0  501    0  0.00000000000E+00 -0.00000000000E+00 -0.13507100144E+03  0.13507697187E+03  0.12700000000E+01 0. -1.
         25    2    1    2    0    0  0.00000000000E+00  0.00000000000E+00 -0.10616620554E+03  0.16400965452E+03  0.12501161377E+03 0.  0.
    9000005    1    3    3    0    0  0.11965307366E+02  0.34401274995E+02 -0.11971389827E+03  0.12513606092E+03  0.10000000000E+01 0.  0.
    9000005    1    3    3    0    0 -0.11965307366E+02 -0.34401274995E+02  0.13547692734E+02  0.38873593608E+02  0.10000000000E+01 0.  0.
<mgrwt>
<rscale>  0 0.12501161E+03</rscale>
<asrwt>0</asrwt>
<pdfrwt beam="2">  1        4 0.20782758E-01 0.12501161E+03</pdfrwt>
<pdfrwt beam="1">  1       -4 0.44494961E-02 0.12501161E+03</pdfrwt>
<totfact> 0.96550082E+03</totfact>
</mgrwt>
</event>
<event>
 5    1  0.3267085E-002  0.1250010E+03  0.7818608E-02  0.1235068E+00
          4   -1    0    0  501    0  0.00000000000E+00  0.00000000000E+00  0.59295270723E+02  0.59308869742E+02  0.12700000000E+01 0. -1.
         -4   -1    0    0    0  501 -0.00000000000E+00 -0.00000000000E+00 -0.65851683602E+02  0.65863928923E+02  0.12700000000E+01 0. -1.
         25    2    1    2    0    0  0.00000000000E+00  0.00000000000E+00 -0.65564128792E+01  0.12517279867E+03  0.12500097190E+03 0.  0.
    9000005    1    3    3    0    0 -0.58376372501E+02  0.20486202768E+02 -0.12112202073E+02  0.63049114262E+02  0.10000000000E+01 0.  0.
    9000005    1    3    3    0    0  0.58376372501E+02 -0.20486202768E+02  0.55557891939E+01  0.62123684403E+02  0.10000000000E+01 0.  0.
<mgrwt>
<rscale>  0 0.12500097E+03</rscale>
<asrwt>0</asrwt>
<pdfrwt beam="1">  1        4 0.91243374E-02 0.12500097E+03</pdfrwt>
<pdfrwt beam="2">  1       -4 0.10133016E-01 0.12500097E+03</pdfrwt>
<totfact> 0.10448881E+04</totfact>
</mgrwt>
</event>
<event>
 5    1  0.3267085E-002  0.1249997E+03  0.7818608E-02  0.1235070E+00
          4   -1    0    0  501    0  0.00000000000E+00  0.00000000000E+00  0.60528463123E+02  0.60541785140E+02  0.12700000000E+01 0.  1.
         -4   -1    0    0    0  501 -0.00000000000E+00 -0.00000000000E+00 -0.64508768215E+02  0.64521268405E+02  0.12700000000E+01 0.  1.
         25    2    1    2    0    0  0.00000000000E+00  0.00000000000E+00 -0.39803050924E+01  0.12506305355E+03  0.12499969813E+03 0.  0.
    9000005    1    3    3    0    0 -0.52170960784E+02 -0.26060568436E+02 -0.24457463429E+02  0.63246580095E+02  0.10000000000E+01 0.  0.
    9000005    1    3    3    0    0  0.52170960784E+02  0.26060568436E+02  0.20477158337E+02  0.61816473451E+02  0.10000000000E+01 0.  0.
<mgrwt>
<rscale>  0 0.12499970E+03</rscale>
<asrwt>0</asrwt>
<pdfrwt beam="1">  1        4 0.93140575E-02 0.12499970E+03</pdfrwt>
<pdfrwt beam="2">  1       -4 0.99264122E-02 0.12499970E+03</pdfrwt>
<totfact> 0.10451565E+04</totfact>
</mgrwt>
</event>
<event>
 5    1  0.3267085E-002  0.1250005E+03  0.7818608E-02  0.1235068E+00
         -4   -1    0    0    0  501 -0.00000000000E+00  0.00000000000E+00  0.57392738317E+02  0.57406788026E+02  0.12700000000E+01 0.  1.
          4   -1    0    0  501    0  0.00000000000E+00 -0.00000000000E+00 -0.68034017407E+02  0.68045870003E+02  0.12700000000E+01 0.  1.
         25    2    1    2    0    0  0.00000000000E+00  0.00000000000E+00 -0.10641279090E+02  0.12545265803E+03  0.12500053034E+03 0.  0.
    9000005    1    3    3    0    0  0.24298770819E+01 -0.20491657997E+02  0.53879756163E+02  0.57704769944E+02  0.10000000000E+01 0.  0.
    9000005    1    3    3    0    0 -0.24298770819E+01  0.20491657997E+02 -0.64521035253E+02  0.67747888086E+02  0.10000000000E+01 0.  0.
<mgrwt>
<rscale>  0 0.12500053E+03</rscale>
<asrwt>0</asrwt>
<pdfrwt beam="2">  1        4 0.10468764E-01 0.12500053E+03</pdfrwt>
<pdfrwt beam="1">  1       -4 0.88316446E-02 0.12500053E+03</pdfrwt>
<totfact> 0.10442876E+04</totfact>
</mgrwt>
</event>
<event>
 5    1  0.3267085E-002  0.1250036E+03  0.7818608E-02  0.1235064E+00
          4   -1    0    0  501    0  0.00000000000E+00  0.00000000000E+00  0.67223745268E+02  0.67235740702E+02  0.12700000000E+01 0.  1.
         -4   -1    0    0    0  501 -0.00000000000E+00 -0.00000000000E+00 -0.58087438230E+02  0.58101319952E+02  0.12700000000E+01 0.  1.
         25    2    1    2    0    0  0.00000000000E+00  0.00000000000E+00  0.91363070377E+01  0.12533706065E+03  0.12500362662E+03 0.  0.
    9000005    1    3    3    0    0  0.33062609272E+02 -0.38070450277E+02 -0.32448900216E+02  0.59970212952E+02  0.10000000000E+01 0.  0.
    9000005    1    3    3    0    0 -0.33062609272E+02  0.38070450277E+02  0.41585207254E+02  0.65366847703E+02  0.10000000000E+01 0.  0.
<mgrwt>
<rscale>  0 0.12500363E+03</rscale>
<asrwt>0</asrwt>
<pdfrwt beam="1">  1        4 0.10344105E-01 0.12500363E+03</pdfrwt>
<pdfrwt beam="2">  1       -4 0.89385196E-02 0.12500363E+03</pdfrwt>
<totfact> 0.10444690E+04</totfact>
</mgrwt>
</event>
<event>
 5    1  0.3267085E-002  0.1249962E+03  0.7818608E-02  0.1235075E+00
         -4   -1    0    0    0  501 -0.00000000000E+00  0.00000000000E+00  0.75764287129E+02  0.75774930579E+02  0.12700000000E+01 0.  1.
          4   -1    0    0  501    0  0.00000000000E+00 -0.00000000000E+00 -0.51532736519E+02  0.51548383419E+02  0.12700000000E+01 0.  1.
         25    2    1    2    0    0  0.00000000000E+00  0.00000000000E+00  0.24231550610E+02  0.12732331400E+03  0.12499623291E+03 0.  0.
    9000005    1    3    3    0    0  0.45996115554E+02 -0.28094465354E+02  0.44328454360E+02  0.69792216582E+02  0.10000000000E+01 0.  0.
    9000005    1    3    3    0    0 -0.45996115554E+02  0.28094465354E+02 -0.20096903749E+02  0.57531097415E+02  0.10000000000E+01 0.  0.
<mgrwt>
<rscale>  0 0.12499623E+03</rscale>
<asrwt>0</asrwt>
<pdfrwt beam="2">  1        4 0.79301356E-02 0.12499623E+03</pdfrwt>
<pdfrwt beam="1">  1       -4 0.11658067E-01 0.12499623E+03</pdfrwt>
<totfact> 0.10403014E+04</totfact>
</mgrwt>
</event>
<event>
 5    1  0.3267085E-002  0.1249995E+03  0.7818608E-02  0.1235070E+00
         -4   -1    0    0    0  501 -0.00000000000E+00  0.00000000000E+00  0.11562731209E+03  0.11563428645E+03  0.12700000000E+01 0.  1.
          4   -1    0    0  501    0  0.00000000000E+00 -0.00000000000E+00 -0.33762920122E+02  0.33786797350E+02  0.12700000000E+01 0.  1.
         25    2    1    2    0    0  0.00000000000E+00  0.00000000000E+00  0.81864391971E+02  0.14942108380E+03  0.12499952644E+03 0.  0.
    9000005    1    3    3    0    0  0.53534117154E+02  0.18689482512E+02  0.72332580510E+02  0.91914093910E+02  0.10000000000E+01 0.  0.
    9000005    1    3    3    0    0 -0.53534117154E+02 -0.18689482512E+02  0.95318114613E+01  0.57506989886E+02  0.10000000000E+01 0.  0.
<mgrwt>
<rscale>  0 0.12499953E+03</rscale>
<asrwt>0</asrwt>
<pdfrwt beam="2">  1        4 0.51966685E-02 0.12499953E+03</pdfrwt>
<pdfrwt beam="1">  1       -4 0.17791191E-01 0.12499953E+03</pdfrwt>
<totfact> 0.99420280E+03</totfact>
</mgrwt>
</event>
<event>
 5    1  0.3267085E-002  0.1249993E+03  0.7818608E-02  0.1235070E+00
         -4   -1    0    0    0  501 -0.00000000000E+00  0.00000000000E+00  0.53624846317E+02  0.53639882946E+02  0.12700000000E+01 0. -1.
          4   -1    0    0  501    0  0.00000000000E+00 -0.00000000000E+00 -0.72812372360E+02  0.72823447246E+02  0.12700000000E+01 0. -1.
         25    2    1    2    0    0  0.00000000000E+00  0.00000000000E+00 -0.19187526044E+02  0.12646333019E+03  0.12499925091E+03 0.  0.
    9000005    1    3    3    0    0 -0.35564529663E+02 -0.41195268643E+02 -0.40666971046E+02  0.67946217428E+02  0.10000000000E+01 0.  0.
    9000005    1    3    3    0    0  0.35564529663E+02  0.41195268643E+02  0.21479445002E+02  0.58517112764E+02  0.10000000000E+01 0.  0.
<mgrwt>
<rscale>  0 0.12499925E+03</rscale>
<asrwt>0</asrwt>
<pdfrwt beam="2">  1        4 0.11203912E-01 0.12499925E+03</pdfrwt>
<pdfrwt beam="1">  1       -4 0.82519849E-02 0.12499925E+03</pdfrwt>
<totfact> 0.10421004E+04</totfact>
</mgrwt>
</event>
<event>
 5    1  0.3267085E-002  0.1250018E+03  0.7818608E-02  0.1235066E+00
         -4   -1    0    0    0  501 -0.00000000000E+00  0.00000000000E+00  0.43130783506E+01  0.44961700211E+01  0.12700000000E+01 0.  1.
          4   -1    0    0  501    0  0.00000000000E+00 -0.00000000000E+00 -0.88669421030E+03  0.88669511980E+03  0.12700000000E+01 0.  1.
         25    2    1    2    0    0  0.00000000000E+00  0.00000000000E+00 -0.88238113195E+03  0.89119128982E+03  0.12500181213E+03 0.  0.
    9000005    1    3    3    0    0  0.47912531724E+02 -0.39294731002E+02 -0.38341287082E+03  0.38838912972E+03  0.10000000000E+01 0.  0.
    9000005    1    3    3    0    0 -0.47912531724E+02  0.39294731002E+02 -0.49896826113E+03  0.50280216010E+03  0.10000000000E+01 0.  0.
<mgrwt>
<rscale>  0 0.12500181E+03</rscale>
<asrwt>0</asrwt>
<pdfrwt beam="2">  1        4 0.13642851E+00 0.12500181E+03</pdfrwt>
<pdfrwt beam="1">  1       -4 0.67770515E-03 0.12500181E+03</pdfrwt>
<totfact> 0.34497023E+03</totfact>
</mgrwt>
</event>
<event>
 5    1  0.3267085E-002  0.1250000E+03  0.7818608E-02  0.1235069E+00
         -4   -1    0    0    0  501 -0.00000000000E+00  0.00000000000E+00  0.10591014111E+02  0.10666887077E+02  0.12700000000E+01 0.  1.
          4   -1    0    0  501    0  0.00000000000E+00 -0.00000000000E+00 -0.36743346789E+03  0.36743566270E+03  0.12700000000E+01 0.  1.
         25    2    1    2    0    0  0.00000000000E+00  0.00000000000E+00 -0.35684245378E+03  0.37810254978E+03  0.12500000532E+03 0.  0.
    9000005    1    3    3    0    0 -0.12175611832E+02  0.40798819819E+02 -0.40055581812E+02  0.58465706670E+02  0.10000000000E+01 0.  0.
    9000005    1    3    3    0    0  0.12175611832E+02 -0.40798819819E+02 -0.31678687197E+03  0.31963684311E+03  0.10000000000E+01 0.  0.
<mgrwt>
<rscale>  0 0.12500001E+03</rscale>
<asrwt>0</asrwt>
<pdfrwt beam="2">  1        4 0.56534222E-01 0.12500001E+03</pdfrwt>
<pdfrwt beam="1">  1       -4 0.16353923E-02 0.12500001E+03</pdfrwt>
<totfact> 0.66739689E+03</totfact>
</mgrwt>
</event>
<event>
 5    1  0.3267085E-002  0.1249991E+03  0.7818608E-02  0.1235071E+00
          4   -1    0    0  501    0  0.00000000000E+00  0.00000000000E+00  0.26927357394E+02  0.26957289853E+02  0.12700000000E+01 0.  1.
         -4   -1    0    0    0  501 -0.00000000000E+00 -0.00000000000E+00 -0.14495072533E+03  0.14495628884E+03  0.12700000000E+01 0.  1.
         25    2    1    2    0    0  0.00000000000E+00  0.00000000000E+00 -0.11802336794E+03  0.17191357869E+03  0.12499905264E+03 0.  0.
    9000005    1    3    3    0    0  0.34269394588E+01  0.27912097349E+02 -0.13576338056E+03  0.13864892568E+03  0.10000000000E+01 0.  0.
    9000005    1    3    3    0    0 -0.34269394588E+01 -0.27912097349E+02  0.17740012617E+02  0.33264653014E+02  0.10000000000E+01 0.  0.
<mgrwt>
<rscale>  0 0.12499905E+03</rscale>
<asrwt>0</asrwt>
<pdfrwt beam="1">  1        4 0.41454009E-02 0.12499905E+03</pdfrwt>
<pdfrwt beam="2">  1       -4 0.22302842E-01 0.12499905E+03</pdfrwt>
<totfact> 0.95095192E+03</totfact>
</mgrwt>
</event>
<event>
 5    1  0.3267085E-002  0.1250009E+03  0.7818608E-02  0.1235068E+00
         -4   -1    0    0    0  501 -0.00000000000E+00  0.00000000000E+00  0.53204380507E+03  0.53204532083E+03  0.12700000000E+01 0.  1.
          4   -1    0    0  501    0  0.00000000000E+00 -0.00000000000E+00 -0.72856158416E+01  0.73954782260E+01  0.12700000000E+01 0.  1.
         25    2    1    2    0    0  0.00000000000E+00  0.00000000000E+00  0.52475818923E+03  0.53944079906E+03  0.12500087408E+03 0.  0.
    9000005    1    3    3    0    0 -0.46688703159E+02  0.21503786429E+02  0.10900847215E+03  0.12052424998E+03  0.10000000000E+01 0.  0.
    9000005    1    3    3    0    0  0.46688703159E+02 -0.21503786429E+02  0.41574971708E+03  0.41891654908E+03  0.10000000000E+01 0.  0.
<mgrwt>
<rscale>  0 0.12500087E+03</rscale>
<asrwt>0</asrwt>
<pdfrwt beam="2">  1        4 0.11294315E-02 0.12500087E+03</pdfrwt>
<pdfrwt beam="1">  1       -4 0.81861460E-01 0.12500087E+03</pdfrwt>
<totfact> 0.52928026E+03</totfact>
</mgrwt>
</event>
<event>
 5    1  0.3267085E-002  0.1249964E+03  0.7818608E-02  0.1235075E+00
          4   -1    0    0  501    0  0.00000000000E+00  0.00000000000E+00  0.16403294492E+01  0.20745073396E+01  0.12700000000E+01 0. -1.
         -4   -1    0    0    0  501 -0.00000000000E+00 -0.00000000000E+00 -0.21024964466E+04  0.21024968301E+04  0.12700000000E+01 0. -1.
         25    2    1    2    0    0  0.00000000000E+00  0.00000000000E+00 -0.21008561171E+04  0.21045713375E+04  0.12499635870E+03 0.  0.
    9000005    1    3    3    0    0  0.50921895680E+02  0.29320441791E+02 -0.14085055461E+04  0.14097310386E+04  0.10000000000E+01 0.  0.
    9000005    1    3    3    0    0 -0.50921895680E+02 -0.29320441791E+02 -0.69235057098E+03  0.69484029885E+03  0.10000000000E+01 0.  0.
<mgrwt>
<rscale>  0 0.12499636E+03</rscale>
<asrwt>0</asrwt>
<pdfrwt beam="1">  1        4 0.28578786E-03 0.12499636E+03</pdfrwt>
<pdfrwt beam="2">  1       -4 0.32349252E+00 0.12499636E+03</pdfrwt>
<totfact> 0.85582437E+02</totfact>
</mgrwt>
</event>
<event>
 5    1  0.3267085E-002  0.1249963E+03  0.7818608E-02  0.1235075E+00
          4   -1    0    0  501    0  0.00000000000E+00  0.00000000000E+00  0.47241782944E+03  0.47241953651E+03  0.12700000000E+01 0. -1.
         -4   -1    0    0    0  501 -0.00000000000E+00 -0.00000000000E+00 -0.82176414488E+01  0.83151987938E+01  0.12700000000E+01 0. -1.
         25    2    1    2    0    0  0.00000000000E+00  0.00000000000E+00  0.46420018799E+03  0.48073473530E+03  0.12499628472E+03 0.  0.
    9000005    1    3    3    0    0  0.31547753865E+02 -0.55103403246E+01  0.25724239810E+02  0.41089671917E+02  0.10000000000E+01 0.  0.
    9000005    1    3    3    0    0 -0.31547753865E+02  0.55103403246E+01  0.43847594818E+03  0.43964506339E+03  0.10000000000E+01 0.  0.
<mgrwt>
<rscale>  0 0.12499628E+03</rscale>
<asrwt>0</asrwt>
<pdfrwt beam="1">  1        4 0.72687313E-01 0.12499628E+03</pdfrwt>
<pdfrwt beam="2">  1       -4 0.12718881E-02 0.12499628E+03</pdfrwt>
<totfact> 0.57395406E+03</totfact>
</mgrwt>
</event>
<event>
 5    1  0.3267085E-002  0.1249998E+03  0.7818608E-02  0.1235070E+00
          4   -1    0    0  501    0  0.00000000000E+00  0.00000000000E+00  0.11311828307E+02  0.11382897682E+02  0.12700000000E+01 0.  1.
         -4   -1    0    0    0  501 -0.00000000000E+00 -0.00000000000E+00 -0.34416977325E+03  0.34417211642E+03  0.12700000000E+01 0.  1.
         25    2    1    2    0    0  0.00000000000E+00  0.00000000000E+00 -0.33285794494E+03  0.35555501410E+03  0.12499982616E+03 0.  0.
    9000005    1    3    3    0    0 -0.19230401807E+02  0.11611353667E+02 -0.33230194844E+03  0.33306188137E+03  0.10000000000E+01 0.  0.
    9000005    1    3    3    0    0  0.19230401807E+02 -0.11611353667E+02 -0.55599650293E+00  0.22493132724E+02  0.10000000000E+01 0.  0.
<mgrwt>
<rscale>  0 0.12499983E+03</rscale>
<asrwt>0</asrwt>
<pdfrwt beam="1">  1        4 0.17459287E-02 0.12499983E+03</pdfrwt>
<pdfrwt beam="2">  1       -4 0.52954835E-01 0.12499983E+03</pdfrwt>
<totfact> 0.69117998E+03</totfact>
</mgrwt>
</event>
<event>
 5    1  0.3267085E-002  0.1249993E+03  0.7818608E-02  0.1235070E+00
          4   -1    0    0  501    0  0.00000000000E+00  0.00000000000E+00  0.16543463044E+03  0.16543950510E+03  0.12700000000E+01 0. -1.
         -4   -1    0    0    0  501 -0.00000000000E+00 -0.00000000000E+00 -0.23589491310E+02  0.23623653407E+02  0.12700000000E+01 0. -1.
         25    2    1    2    0    0  0.00000000000E+00  0.00000000000E+00  0.14184513913E+03  0.18906315851E+03  0.12499933764E+03 0.  0.
    9000005    1    3    3    0    0 -0.24210942946E+02  0.52069166975E+02  0.33632423573E+02  0.66554547728E+02  0.10000000000E+01 0.  0.
    9000005    1    3    3    0    0  0.24210942946E+02 -0.52069166975E+02  0.10821271556E+03  0.12250861078E+03  0.10000000000E+01 0.  0.
<mgrwt>
<rscale>  0 0.12499934E+03</rscale>
<asrwt>0</asrwt>
<pdfrwt beam="1">  1        4 0.25454484E-01 0.12499934E+03</pdfrwt>
<pdfrwt beam="2">  1       -4 0.36321554E-02 0.12499934E+03</pdfrwt>
<totfact> 0.92011943E+03</totfact>
</mgrwt>
</event>
<event>
 4    1  0.3267085E-002  0.1251119E+03  0.7818608E-02  0.1234894E+00
         -4   -1    0    0    0  501 -0.00000000000E+00  0.00000000000E+00  0.26401773623E+02  0.26432301270E+02  0.12700000000E+01 0. -1.
          4   -1    0    0  501    0  0.00000000000E+00 -0.00000000000E+00 -0.14810022674E+03  0.14810567194E+03  0.12700000000E+01 0. -1.
    9000005    1    1    2    0    0  0.91362868462E+01  0.17199777598E+02  0.22070835073E+02  0.29452094112E+02  0.10000000000E+01 0.  0.
    9000005    1    1    2    0    0 -0.91362868462E+01 -0.17199777598E+02 -0.14376928819E+03  0.14508587909E+03  0.10000000000E+01 0.  0.
<mgrwt>
<rscale>  0 0.12511191E+03</rscale>
<asrwt>0</asrwt>
<pdfrwt beam="2">  1        4 0.22787417E-01 0.12511191E+03</pdfrwt>
<pdfrwt beam="1">  1       -4 0.40645785E-02 0.12511191E+03</pdfrwt>
<totfact> 0.94372385E+03</totfact>
</mgrwt>
</event>
<event>
 5    1  0.3267085E-002  0.1250021E+03  0.7818608E-02  0.1235066E+00
         -4   -1    0    0    0  501 -0.00000000000E+00  0.00000000000E+00  0.62492613057E+03  0.62492742105E+03  0.12700000000E+01 0.  1.
          4   -1    0    0  501    0  0.00000000000E+00 -0.00000000000E+00 -0.61851319859E+01  0.63141711794E+01  0.12700000000E+01 0.  1.
         25    2    1    2    0    0  0.00000000000E+00  0.00000000000E+00  0.61874099859E+03  0.63124159223E+03  0.12500209766E+03 0.  0.
    9000005    1    3    3    0    0  0.21198636908E+01 -0.55598142700E+02  0.45306807547E+03  0.45647270269E+03  0.10000000000E+01 0.  0.
    9000005    1    3    3    0    0 -0.21198636908E+01  0.55598142700E+02  0.16567292312E+03  0.17476888954E+03  0.10000000000E+01 0.  0.
<mgrwt>
<rscale>  0 0.12500210E+03</rscale>
<asrwt>0</asrwt>
<pdfrwt beam="2">  1        4 0.96158453E-03 0.12500210E+03</pdfrwt>
<pdfrwt beam="1">  1       -4 0.96152466E-01 0.12500210E+03</pdfrwt>
<totfact> 0.46950981E+03</totfact>
</mgrwt>
</event>
<event>
 5    1  0.3267085E-002  0.1249960E+03  0.7818608E-02  0.1235075E+00
          4   -1    0    0  501    0  0.00000000000E+00  0.00000000000E+00  0.44577881042E+03  0.44578061950E+03  0.12700000000E+01 0. -1.
         -4   -1    0    0    0  501 -0.00000000000E+00 -0.00000000000E+00 -0.87143432313E+01  0.88063998292E+01  0.12700000000E+01 0. -1.
         25    2    1    2    0    0  0.00000000000E+00  0.00000000000E+00  0.43706446719E+03  0.45458701933E+03  0.12499603858E+03 0.  0.
    9000005    1    3    3    0    0 -0.30724275477E+02  0.28424323033E+02  0.38728495327E+03  0.38954147183E+03  0.10000000000E+01 0.  0.
    9000005    1    3    3    0    0  0.30724275477E+02 -0.28424323033E+02  0.49779513915E+02  0.65045547496E+02  0.10000000000E+01 0.  0.
<mgrwt>
<rscale>  0 0.12499604E+03</rscale>
<asrwt>0</asrwt>
<pdfrwt beam="1">  1        4 0.68588563E-01 0.12499604E+03</pdfrwt>
<pdfrwt beam="2">  1       -4 0.13478889E-02 0.12499604E+03</pdfrwt>
<totfact> 0.59573674E+03</totfact>
</mgrwt>
</event>
<event>
 5    1  0.3267085E-002  0.1249980E+03  0.7818608E-02  0.1235072E+00
          4   -1    0    0  501    0  0.00000000000E+00  0.00000000000E+00  0.23334649523E+01  0.26566818936E+01  0.12700000000E+01 0. -1.
         -4   -1    0    0    0  501 -0.00000000000E+00 -0.00000000000E+00 -0.15652105584E+04  0.15652110737E+04  0.12700000000E+01 0. -1.
         25    2    1    2    0    0  0.00000000000E+00  0.00000000000E+00 -0.15628770935E+04  0.15678677555E+04  0.12499795838E+03 0.  0.
    9000005    1    3    3    0    0  0.44957710058E+02  0.43394006488E+02 -0.79325115027E+03  0.79570888075E+03  0.10000000000E+01 0.  0.
    9000005    1    3    3    0    0 -0.44957710058E+02 -0.43394006488E+02 -0.76962594320E+03  0.77215887480E+03  0.10000000000E+01 0.  0.
<mgrwt>
<rscale>  0 0.12499796E+03</rscale>
<asrwt>0</asrwt>
<pdfrwt beam="1">  1        4 0.38389833E-03 0.12499796E+03</pdfrwt>
<pdfrwt beam="2">  1       -4 0.24082574E+00 0.12499796E+03</pdfrwt>
<totfact> 0.16635085E+03</totfact>
</mgrwt>
</event>
<event>
 5    1  0.3267085E-002  0.1249995E+03  0.7818608E-02  0.1235070E+00
         -4   -1    0    0    0  501 -0.00000000000E+00  0.00000000000E+00  0.48849830310E+02  0.48866336279E+02  0.12700000000E+01 0.  1.
          4   -1    0    0  501    0  0.00000000000E+00 -0.00000000000E+00 -0.79928763472E+02  0.79938852444E+02  0.12700000000E+01 0.  1.
         25    2    1    2    0    0  0.00000000000E+00  0.00000000000E+00 -0.31078933162E+02  0.12880518872E+03  0.12499950622E+03 0.  0.
    9000005    1    3    3    0    0 -0.58088623168E+02  0.30527450041E+00 -0.39280847883E+02  0.70131065473E+02  0.10000000000E+01 0.  0.
    9000005    1    3    3    0    0  0.58088623168E+02 -0.30527450041E+00  0.82019147204E+01  0.58674123250E+02  0.10000000000E+01 0.  0.
<mgrwt>
<rscale>  0 0.12499951E+03</rscale>
<asrwt>0</asrwt>
<pdfrwt beam="2">  1        4 0.12298779E-01 0.12499951E+03</pdfrwt>
<pdfrwt beam="1">  1       -4 0.75174042E-02 0.12499951E+03</pdfrwt>
<totfact> 0.10370250E+04</totfact>
</mgrwt>
</event>
<event>
 5    1  0.3267085E-002  0.1249989E+03  0.7818608E-02  0.1235071E+00
         -4   -1    0    0    0  501 -0.00000000000E+00  0.00000000000E+00  0.95580520110E+02  0.95588957127E+02  0.12700000000E+01 0.  1.
          4   -1    0    0  501    0  0.00000000000E+00 -0.00000000000E+00 -0.40847865881E+02  0.40867603882E+02  0.12700000000E+01 0.  1.
         25    2    1    2    0    0  0.00000000000E+00  0.00000000000E+00  0.54732654229E+02  0.13645656101E+03  0.12499891841E+03 0.  0.
    9000005    1    3    3    0    0 -0.14680703064E+02 -0.56464674498E+02  0.51810777949E+02  0.78032936766E+02  0.10000000000E+01 0.  0.
    9000005    1    3    3    0    0  0.14680703064E+02  0.56464674498E+02  0.29218762809E+01  0.58423624243E+02  0.10000000000E+01 0.  0.
<mgrwt>
<rscale>  0 0.12499892E+03</rscale>
<asrwt>0</asrwt>
<pdfrwt beam="2">  1        4 0.62864544E-02 0.12499892E+03</pdfrwt>
<pdfrwt beam="1">  1       -4 0.14706863E-01 0.12499892E+03</pdfrwt>
<totfact> 0.10207710E+04</totfact>
</mgrwt>
</event>
<event>
 5    1  0.3267085E-002  0.1249985E+03  0.7818608E-02  0.1235072E+00
          4   -1    0    0  501    0  0.00000000000E+00  0.00000000000E+00  0.41743116630E+02  0.41762431515E+02  0.12700000000E+01 0.  1.
         -4   -1    0    0    0  501 -0.00000000000E+00 -0.00000000000E+00 -0.93530810550E+02  0.93539432445E+02  0.12700000000E+01 0.  1.
         25    2    1    2    0    0  0.00000000000E+00  0.00000000000E+00 -0.51787693919E+02  0.13530186396E+03  0.12499851659E+03 0.  0.
    9000005    1    3    3    0    0  0.91233424697E+01  0.43192006590E+02 -0.73770600373E+02  0.85976079757E+02  0.10000000000E+01 0.  0.
    9000005    1    3    3    0    0 -0.91233424697E+01 -0.43192006590E+02  0.21982906453E+02  0.49325784203E+02  0.10000000000E+01 0.  0.
<mgrwt>
<rscale>  0 0.12499852E+03</rscale>
<asrwt>0</asrwt>
<pdfrwt beam="1">  1        4 0.64241670E-02 0.12499852E+03</pdfrwt>
<pdfrwt beam="2">  1       -4 0.14391504E-01 0.12499852E+03</pdfrwt>
<totfact> 0.10232055E+04</totfact>
</mgrwt>
</event>
<event>
 5    1  0.3267085E-002  0.1250011E+03  0.7818608E-02  0.1235067E+00
          4   -1    0    0  501    0  0.00000000000E+00  0.00000000000E+00  0.65642066987E+03  0.65642189842E+03  0.12700000000E+01 0.  1.
         -4   -1    0    0    0  501 -0.00000000000E+00 -0.00000000000E+00 -0.58819362688E+01  0.60174807246E+01  0.12700000000E+01 0.  1.
         25    2    1    2    0    0  0.00000000000E+00  0.00000000000E+00  0.65053873360E+03  0.66243937915E+03  0.12500114853E+03 0.  0.
    9000005    1    3    3    0    0  0.27354645008E+02  0.21207231080E+02  0.49529087098E+02  0.60433051572E+02  0.10000000000E+01 0.  0.
    9000005    1    3    3    0    0 -0.27354645008E+02 -0.21207231080E+02  0.60100964650E+03  0.60200632757E+03  0.10000000000E+01 0.  0.
<mgrwt>
<rscale>  0 0.12500115E+03</rscale>
<asrwt>0</asrwt>
<pdfrwt beam="1">  1        4 0.10099830E+00 0.12500115E+03</pdfrwt>
<pdfrwt beam="2">  1       -4 0.91543442E-03 0.12500115E+03</pdfrwt>
<totfact> 0.45143773E+03</totfact>
</mgrwt>
</event>
<event>
 5    1  0.3267085E-002  0.1250015E+03  0.7818608E-02  0.1235067E+00
          4   -1    0    0  501    0  0.00000000000E+00  0.00000000000E+00  0.14796452962E+02  0.14850855876E+02  0.12700000000E+01 0. -1.
         -4   -1    0    0    0  501 -0.00000000000E+00 -0.00000000000E+00 -0.26346492819E+03  0.26346798911E+03  0.12700000000E+01 0. -1.
         25    2    1    2    0    0  0.00000000000E+00  0.00000000000E+00 -0.24866847523E+03  0.27831884499E+03  0.12500147560E+03 0.  0.
    9000005    1    3    3    0    0 -0.54500317594E+02  0.26186582008E+02 -0.15949080743E+03  0.17057062863E+03  0.10000000000E+01 0.  0.
    9000005    1    3    3    0    0  0.54500317594E+02 -0.26186582008E+02 -0.89177667797E+02  0.10774821636E+03  0.10000000000E+01 0.  0.
<mgrwt>
<rscale>  0 0.12500148E+03</rscale>
<asrwt>0</asrwt>
<pdfrwt beam="1">  1        4 0.22807979E-02 0.12500148E+03</pdfrwt>
<pdfrwt beam="2">  1       -4 0.40537482E-01 0.12500148E+03</pdfrwt>
<totfact> 0.78398973E+03</totfact>
</mgrwt>
</event>
<event>
 5    1  0.3267085E-002  0.1250024E+03  0.7818608E-02  0.1235065E+00
         -4   -1    0    0    0  501 -0.00000000000E+00  0.00000000000E+00  0.61657393632E+02  0.61670471779E+02  0.12700000000E+01 0. -1.
          4   -1    0    0  501    0  0.00000000000E+00 -0.00000000000E+00 -0.63330422534E+02  0.63343155260E+02  0.12700000000E+01 0. -1.
         25    2    1    2    0    0  0.00000000000E+00  0.00000000000E+00 -0.16730289016E+01  0.12501362704E+03  0.12500243166E+03 0.  0.
    9000005    1    3    3    0    0  0.49828728656E+02 -0.37994579684E+01  0.36691023798E+02  0.62004591021E+02  0.10000000000E+01 0.  0.
    9000005    1    3    3    0    0 -0.49828728656E+02  0.37994579684E+01 -0.38364052700E+02  0.63009036018E+02  0.10000000000E+01 0.  0.
<mgrwt>
<rscale>  0 0.12500243E+03</rscale>
<asrwt>0</asrwt>
<pdfrwt beam="2">  1        4 0.97451274E-02 0.12500243E+03</pdfrwt>
<pdfrwt beam="1">  1       -4 0.94877383E-02 0.12500243E+03</pdfrwt>
<totfact> 0.10451992E+04</totfact>
</mgrwt>
</event>
<event>
 5    1  0.3267085E-002  0.1249992E+03  0.7818608E-02  0.1235070E+00
         -4   -1    0    0    0  501 -0.00000000000E+00  0.00000000000E+00  0.30060094100E+03  0.30060362378E+03  0.12700000000E+01 0. -1.
          4   -1    0    0  501    0  0.00000000000E+00 -0.00000000000E+00 -0.12960868697E+02  0.13022941963E+02  0.12700000000E+01 0. -1.
         25    2    1    2    0    0  0.00000000000E+00  0.00000000000E+00  0.28764007230E+03  0.31362656574E+03  0.12499924618E+03 0.  0.
    9000005    1    3    3    0    0 -0.12856376678E+02  0.20954760594E+02  0.28797048732E+03  0.28901970517E+03  0.10000000000E+01 0.  0.
    9000005    1    3    3    0    0  0.12856376678E+02 -0.20954760594E+02 -0.33041501921E+00  0.24606860566E+02  0.10000000000E+01 0.  0.
<mgrwt>
<rscale>  0 0.12499925E+03</rscale>
<asrwt>0</asrwt>
<pdfrwt beam="2">  1        4 0.19989609E-02 0.12499925E+03</pdfrwt>
<pdfrwt beam="1">  1       -4 0.46251283E-01 0.12499925E+03</pdfrwt>
<totfact> 0.73921860E+03</totfact>
</mgrwt>
</event>
<event>
 5    1  0.3267085E-002  0.1250044E+03  0.7818608E-02  0.1235062E+00
         -4   -1    0    0    0  501 -0.00000000000E+00  0.00000000000E+00  0.17564482733E+03  0.17564941863E+03  0.12700000000E+01 0. -1.
          4   -1    0    0  501    0  0.00000000000E+00 -0.00000000000E+00 -0.22218033065E+02  0.22254300557E+02  0.12700000000E+01 0. -1.
         25    2    1    2    0    0  0.00000000000E+00  0.00000000000E+00  0.15342679426E+03  0.19790371919E+03  0.12500440341E+03 0.  0.
    9000005    1    3    3    0    0  0.52562693688E+02  0.79965258265E+01  0.12871154154E+03  0.13926392971E+03  0.10000000000E+01 0.  0.
    9000005    1    3    3    0    0 -0.52562693688E+02 -0.79965258265E+01  0.24715252720E+02  0.58639789479E+02  0.10000000000E+01 0.  0.
<mgrwt>
<rscale>  0 0.12500440E+03</rscale>
<asrwt>0</asrwt>
<pdfrwt beam="2">  1        4 0.34213020E-02 0.12500440E+03</pdfrwt>
<pdfrwt beam="1">  1       -4 0.27025424E-01 0.12500440E+03</pdfrwt>
<totfact> 0.90481071E+03</totfact>
</mgrwt>
</event>
<event>
 5    1  0.3267085E-002  0.1249987E+03  0.7818608E-02  0.1235071E+00
         -4   -1    0    0    0  501 -0.00000000000E+00  0.00000000000E+00  0.84752920860E+02  0.84762435632E+02  0.12700000000E+01 0. -1.
          4   -1    0    0  501    0  0.00000000000E+00 -0.00000000000E+00 -0.46068011517E+02  0.46085513831E+02  0.12700000000E+01 0. -1.
         25    2    1    2    0    0  0.00000000000E+00  0.00000000000E+00  0.38684909343E+02  0.13084794946E+03  0.12499865466E+03 0.  0.
    9000005    1    3    3    0    0  0.14444487458E+02  0.58376643348E+02  0.37128426944E+02  0.70682358434E+02  0.10000000000E+01 0.  0.
    9000005    1    3    3    0    0 -0.14444487458E+02 -0.58376643348E+02  0.15564823990E+01  0.60165591029E+02  0.10000000000E+01 0.  0.
<mgrwt>
<rscale>  0 0.12499865E+03</rscale>
<asrwt>0</asrwt>
<pdfrwt beam="2">  1        4 0.70894647E-02 0.12499865E+03</pdfrwt>
<pdfrwt beam="1">  1       -4 0.13040989E-01 0.12499865E+03</pdfrwt>
<totfact> 0.10326663E+04</totfact>
</mgrwt>
</event>
<event>
 5    1  0.3267085E-002  0.1250180E+03  0.7818608E-02  0.1235041E+00
         -4   -1    0    0    0  501 -0.00000000000E+00  0.00000000000E+00  0.12988654694E+03  0.12989275567E+03  0.12700000000E+01 0. -1.
          4   -1    0    0  501    0  0.00000000000E+00 -0.00000000000E+00 -0.30062647266E+02  0.30089460957E+02  0.12700000000E+01 0. -1.
         25    2    1    2    0    0  0.00000000000E+00  0.00000000000E+00  0.99823899671E+02  0.15998221663E+03  0.12501799347E+03 0.  0.
    9000005    1    3    3    0    0  0.43186851091E+02 -0.12135770177E+02  0.10560338948E+03  0.11474082488E+03  0.10000000000E+01 0.  0.
    9000005    1    3    3    0    0 -0.43186851091E+02  0.12135770177E+02 -0.57794898041E+01  0.45241391748E+02  0.10000000000E+01 0.  0.
<mgrwt>
<rscale>  0 0.12501799E+03</rscale>
<asrwt>0</asrwt>
<pdfrwt beam="2">  1        4 0.46275629E-02 0.12501799E+03</pdfrwt>
<pdfrwt beam="1">  1       -4 0.19985085E-01 0.12501799E+03</pdfrwt>
<totfact> 0.97306853E+03</totfact>
</mgrwt>
</event>
<event>
 5    1  0.3267085E-002  0.1249634E+03  0.7818608E-02  0.1235127E+00
          4   -1    0    0  501    0  0.00000000000E+00  0.00000000000E+00  0.30715955480E+02  0.30742199353E+02  0.12700000000E+01 0.  1.
         -4   -1    0    0    0  501 -0.00000000000E+00 -0.00000000000E+00 -0.12701514684E+03  0.12702149593E+03  0.12700000000E+01 0.  1.
         25    2    1    2    0    0  0.00000000000E+00  0.00000000000E+00 -0.96299191364E+02  0.15776369528E+03  0.12496339180E+03 0.  0.
    9000005    1    3    3    0    0 -0.46684012853E+02  0.41193827343E+02 -0.54664998719E+02  0.82858859226E+02  0.10000000000E+01 0.  0.
    9000005    1    3    3    0    0  0.46684012853E+02 -0.41193827343E+02 -0.41634192644E+02  0.74904836055E+02  0.10000000000E+01 0.  0.
<mgrwt>
<rscale>  0 0.12496339E+03</rscale>
<asrwt>0</asrwt>
<pdfrwt beam="1">  1        4 0.47280388E-02 0.12496339E+03</pdfrwt>
<pdfrwt beam="2">  1       -4 0.19543299E-01 0.12496339E+03</pdfrwt>
<totfact> 0.97856186E+03</totfact>
</mgrwt>
</event>
<event>
 5    1  0.3267085E-002  0.1249999E+03  0.7818608E-02  0.1235069E+00
          4   -1    0    0  501    0  0.00000000000E+00  0.00000000000E+00  0.20574476650E+02  0.20613636007E+02  0.12700000000E+01 0.  1.
         -4   -1    0    0    0  501 -0.00000000000E+00 -0.00000000000E+00 -0.18963692189E+03  0.18964117444E+03  0.12700000000E+01 0.  1.
         25    2    1    2    0    0  0.00000000000E+00  0.00000000000E+00 -0.16906244524E+03  0.21025481045E+03  0.12499989971E+03 0.  0.
    9000005    1    3    3    0    0  0.43134408773E+02  0.87557050823E+01 -0.15915019781E+03  0.16512729954E+03  0.10000000000E+01 0.  0.
    9000005    1    3    3    0    0 -0.43134408773E+02 -0.87557050823E+01 -0.99122474325E+01  0.45127510909E+02  0.10000000000E+01 0.  0.
<mgrwt>
<rscale>  0 0.12499990E+03</rscale>
<asrwt>0</asrwt>
<pdfrwt beam="1">  1        4 0.31686436E-02 0.12499990E+03</pdfrwt>
<pdfrwt beam="2">  1       -4 0.29178249E-01 0.12499990E+03</pdfrwt>
<totfact> 0.88434483E+03</totfact>
</mgrwt>
</event>
<event>
 5    1  0.3267085E-002  0.1250001E+03  0.7818608E-02  0.1235069E+00
         -4   -1    0    0    0  501 -0.00000000000E+00  0.00000000000E+00  0.20865867443E+03  0.20866253932E+03  0.12700000000E+01 0. -1.
          4   -1    0    0  501    0  0.00000000000E+00 -0.00000000000E+00 -0.18695211792E+02  0.18738298854E+02  0.12700000000E+01 0. -1.
         25    2    1    2    0    0  0.00000000000E+00  0.00000000000E+00  0.18996346264E+03  0.22740083817E+03  0.12500009626E+03 0.  0.
    9000005    1    3    3    0    0  0.22341868283E+02  0.17095005351E+02  0.19649693649E+03  0.19850300838E+03  0.10000000000E+01 0.  0.
    9000005    1    3    3    0    0 -0.22341868283E+02 -0.17095005351E+02 -0.65334738483E+01  0.28897829795E+02  0.10000000000E+01 0.  0.
<mgrwt>
<rscale>  0 0.12500010E+03</rscale>
<asrwt>0</asrwt>
<pdfrwt beam="2">  1        4 0.28797982E-02 0.12500010E+03</pdfrwt>
<pdfrwt beam="1">  1       -4 0.32104945E-01 0.12500010E+03</pdfrwt>
<totfact> 0.85710121E+03</totfact>
</mgrwt>
</event>
<event>
 5    1  0.3267085E-002  0.1250008E+03  0.7818608E-02  0.1235068E+00
         -4   -1    0    0    0  501 -0.00000000000E+00  0.00000000000E+00  0.14258886362E+03  0.14259451927E+03  0.12700000000E+01 0. -1.
          4   -1    0    0  501    0  0.00000000000E+00 -0.00000000000E+00 -0.27374646172E+02  0.27404090079E+02  0.12700000000E+01 0. -1.
         25    2    1    2    0    0  0.00000000000E+00  0.00000000000E+00  0.11521421744E+03  0.16999860935E+03  0.12500084512E+03 0.  0.
    9000005    1    3    3    0    0 -0.14259705410E+02 -0.55212845792E+02  0.22840929043E+02  0.61437004959E+02  0.10000000000E+01 0.  0.
    9000005    1    3    3    0    0  0.14259705410E+02  0.55212845792E+02  0.92373288400E+02  0.10856160439E+03  0.10000000000E+01 0.  0.
<mgrwt>
<rscale>  0 0.12500085E+03</rscale>
<asrwt>0</asrwt>
<pdfrwt beam="2">  1        4 0.42141839E-02 0.12500085E+03</pdfrwt>
<pdfrwt beam="1">  1       -4 0.21939448E-01 0.12500085E+03</pdfrwt>
<totfact> 0.95447085E+03</totfact>
</mgrwt>
</event>
<event>
 5    1  0.3267085E-002  0.1250056E+03  0.7818608E-02  0.1235061E+00
         -4   -1    0    0    0  501 -0.00000000000E+00  0.00000000000E+00  0.85405846151E+03  0.85405940576E+03  0.12700000000E+01 0.  1.
          4   -1    0    0  501    0  0.00000000000E+00 -0.00000000000E+00 -0.44850420294E+01  0.46613841298E+01  0.12700000000E+01 0.  1.
         25    2    1    2    0    0  0.00000000000E+00  0.00000000000E+00  0.84957341948E+03  0.85872078989E+03  0.12500559952E+03 0.  0.
    9000005    1    3    3    0    0 -0.47708646847E+02 -0.26507845048E+02  0.21565494212E+03  0.22245636627E+03  0.10000000000E+01 0.  0.
    9000005    1    3    3    0    0  0.47708646847E+02  0.26507845048E+02  0.63391847736E+03  0.63626442362E+03  0.10000000000E+01 0.  0.
<mgrwt>
<rscale>  0 0.12500560E+03</rscale>
<asrwt>0</asrwt>
<pdfrwt beam="2">  1        4 0.70364431E-03 0.12500560E+03</pdfrwt>
<pdfrwt beam="1">  1       -4 0.13140717E+00 0.12500560E+03</pdfrwt>
<totfact> 0.35768741E+03</totfact>
</mgrwt>
</event>
<event>
 5    1  0.3267085E-002  0.1250440E+03  0.7818608E-02  0.1235001E+00
         -4   -1    0    0    0  501 -0.00000000000E+00  0.00000000000E+00  0.10514270190E+03  0.10515037167E+03  0.12700000000E+01 0. -1.
          4   -1    0    0  501    0  0.00000000000E+00 -0.00000000000E+00 -0.37158186543E+02  0.37179883367E+02  0.12700000000E+01 0. -1.
         25    2    1    2    0    0  0.00000000000E+00  0.00000000000E+00  0.67984515359E+02  0.14233025504E+03  0.12504402094E+03 0.  0.
    9000005    1    3    3    0    0 -0.59461591879E+02 -0.83820690120E+01  0.14209710853E+02  0.61715928837E+02  0.10000000000E+01 0.  0.
    9000005    1    3    3    0    0  0.59461591879E+02  0.83820690120E+01  0.53774804506E+02  0.80614326205E+02  0.10000000000E+01 0.  0.
<mgrwt>
<rscale>  0 0.12504402E+03</rscale>
<asrwt>0</asrwt>
<pdfrwt beam="2">  1        4 0.57189030E-02 0.12504402E+03</pdfrwt>
<pdfrwt beam="1">  1       -4 0.16178059E-01 0.12504402E+03</pdfrwt>
<totfact> 0.10075523E+04</totfact>
</mgrwt>
</event>
<event>
 5    1  0.3267085E-002  0.1249988E+03  0.7818608E-02  0.1235071E+00
          4   -1    0    0  501    0  0.00000000000E+00  0.00000000000E+00  0.21960485278E+02  0.21997177402E+02  0.12700000000E+01 0. -1.
         -4   -1    0    0    0  501 -0.00000000000E+00 -0.00000000000E+00 -0.17768547521E+03  0.17769001379E+03  0.12700000000E+01 0. -1.
         25    2    1    2    0    0  0.00000000000E+00  0.00000000000E+00 -0.15572498994E+03  0.19968719120E+03  0.12499880734E+03 0.  0.
    9000005    1    3    3    0    0 -0.13369521536E+02 -0.60958633104E+02 -0.83033208089E+02  0.10387594862E+03  0.10000000000E+01 0.  0.
    9000005    1    3    3    0    0  0.13369521536E+02  0.60958633104E+02 -0.72691781847E+02  0.95811242577E+02  0.10000000000E+01 0.  0.
<mgrwt>
<rscale>  0 0.12499881E+03</rscale>
<asrwt>0</asrwt>
<pdfrwt beam="1">  1        4 0.33817079E-02 0.12499881E+03</pdfrwt>
<pdfrwt beam="2">  1       -4 0.27339398E-01 0.12499881E+03</pdfrwt>
<totfact> 0.90190698E+03</totfact>
</mgrwt>
</event>
<event>
 5    1  0.3267085E-002  0.1249899E+03  0.7818608E-02  0.1235085E+00
         -4   -1    0    0    0  501 -0.00000000000E+00  0.00000000000E+00  0.21857620465E+01  0.25279350711E+01  0.12700000000E+01 0.  1.
          4   -1    0    0  501    0  0.00000000000E+00 -0.00000000000E+00 -0.16567946934E+04  0.16567951801E+04  0.12700000000E+01 0.  1.
         25    2    1    2    0    0  0.00000000000E+00  0.00000000000E+00 -0.16546089313E+04  0.16593231152E+04  0.12498993960E+03 0.  0.
    9000005    1    3    3    0    0 -0.25103862992E+02 -0.51131567295E+02 -0.11683570449E+04  0.11697451969E+04  0.10000000000E+01 0.  0.
    9000005    1    3    3    0    0  0.25103862992E+02  0.51131567295E+02 -0.48625188640E+03  0.48957791835E+03  0.10000000000E+01 0.  0.
<mgrwt>
<rscale>  0 0.12498994E+03</rscale>
<asrwt>0</asrwt>
<pdfrwt beam="2">  1        4 0.25491692E+00 0.12498994E+03</pdfrwt>
<pdfrwt beam="1">  1       -4 0.36263085E-03 0.12498994E+03</pdfrwt>
<totfact> 0.15001389E+03</totfact>
</mgrwt>
</event>
<event>
 5    1  0.3267085E-002  0.1250009E+03  0.7818608E-02  0.1235068E+00
          4   -1    0    0  501    0  0.00000000000E+00  0.00000000000E+00  0.84701845046E+03  0.84701940257E+03  0.12700000000E+01 0.  1.
         -4   -1    0    0    0  501 -0.00000000000E+00 -0.00000000000E+00 -0.45234294074E+01  0.46983309381E+01  0.12700000000E+01 0.  1.
         25    2    1    2    0    0  0.00000000000E+00  0.00000000000E+00  0.84249502105E+03  0.85171773350E+03  0.12500094825E+03 0.  0.
    9000005    1    3    3    0    0  0.38844208972E+02  0.37242940091E+02  0.63772565450E+03  0.63999290587E+03  0.10000000000E+01 0.  0.
    9000005    1    3    3    0    0 -0.38844208972E+02 -0.37242940091E+02  0.20476936656E+03  0.21172482764E+03  0.10000000000E+01 0.  0.
<mgrwt>
<rscale>  0 0.12500095E+03</rscale>
<asrwt>0</asrwt>
<pdfrwt beam="1">  1        4 0.13032406E+00 0.12500095E+03</pdfrwt>
<pdfrwt beam="2">  1       -4 0.70943941E-03 0.12500095E+03</pdfrwt>
<totfact> 0.36056386E+03</totfact>
</mgrwt>
</event>
<event>
 5    1  0.3267085E-002  0.1250131E+03  0.7818608E-02  0.1235049E+00
         -4   -1    0    0    0  501 -0.00000000000E+00  0.00000000000E+00  0.66604367583E+02  0.66616474547E+02  0.12700000000E+01 0. -1.
          4   -1    0    0  501    0  0.00000000000E+00 -0.00000000000E+00 -0.58636551120E+02  0.58650302875E+02  0.12700000000E+01 0. -1.
         25    2    1    2    0    0  0.00000000000E+00  0.00000000000E+00  0.79678164624E+01  0.12526677742E+03  0.12501311702E+03 0.  0.
    9000005    1    3    3    0    0  0.60741655930E+02 -0.36637574233E+00 -0.10756033406E+02  0.61695828473E+02  0.10000000000E+01 0.  0.
    9000005    1    3    3    0    0 -0.60741655930E+02  0.36637574233E+00  0.18723849868E+02  0.63570948949E+02  0.10000000000E+01 0.  0.
<mgrwt>
<rscale>  0 0.12501312E+03</rscale>
<asrwt>0</asrwt>
<pdfrwt beam="2">  1        4 0.90229971E-02 0.12501312E+03</pdfrwt>
<pdfrwt beam="1">  1       -4 0.10248815E-01 0.12501312E+03</pdfrwt>
<totfact> 0.10443975E+04</totfact>
</mgrwt>
</event>
<event>
 5    1  0.3267085E-002  0.1249982E+03  0.7818608E-02  0.1235072E+00
          4   -1    0    0  501    0  0.00000000000E+00  0.00000000000E+00  0.87043589784E+02  0.87052854189E+02  0.12700000000E+01 0.  1.
         -4   -1    0    0    0  501 -0.00000000000E+00 -0.00000000000E+00 -0.44855043292E+02  0.44873018716E+02  0.12700000000E+01 0.  1.
         25    2    1    2    0    0  0.00000000000E+00  0.00000000000E+00  0.42188546492E+02  0.13192587291E+03  0.12499824994E+03 0.  0.
    9000005    1    3    3    0    0  0.25628840290E+02  0.54934002898E+02  0.50685880996E+01  0.60838086050E+02  0.10000000000E+01 0.  0.
    9000005    1    3    3    0    0 -0.25628840290E+02 -0.54934002898E+02  0.37119958393E+02  0.71087786856E+02  0.10000000000E+01 0.  0.
<mgrwt>
<rscale>  0 0.12499825E+03</rscale>
<asrwt>0</asrwt>
<pdfrwt beam="1">  1        4 0.13393417E-01 0.12499825E+03</pdfrwt>
<pdfrwt beam="2">  1       -4 0.69028714E-02 0.12499825E+03</pdfrwt>
<totfact> 0.10303688E+04</totfact>
</mgrwt>
</event>
<event>
 5    1  0.3267085E-002  0.1250028E+03  0.7818608E-02  0.1235065E+00
         -4   -1    0    0    0  501 -0.00000000000E+00  0.00000000000E+00  0.28118178500E+03  0.28118465306E+03  0.12700000000E+01 0.  1.
          4   -1    0    0  501    0  0.00000000000E+00 -0.00000000000E+00 -0.13860902879E+02  0.13918962915E+02  0.12700000000E+01 0.  1.
         25    2    1    2    0    0  0.00000000000E+00  0.00000000000E+00  0.26732088212E+03  0.29510361598E+03  0.12500276054E+03 0.  0.
    9000005    1    3    3    0    0  0.42433960374E+02  0.45781285082E+02  0.12663520446E+03  0.14118796714E+03  0.10000000000E+01 0.  0.
    9000005    1    3    3    0    0 -0.42433960374E+02 -0.45781285082E+02  0.14068567767E+03  0.15391564884E+03  0.10000000000E+01 0.  0.
<mgrwt>
<rscale>  0 0.12500276E+03</rscale>
<asrwt>0</asrwt>
<pdfrwt beam="2">  1        4 0.21371334E-02 0.12500276E+03</pdfrwt>
<pdfrwt beam="1">  1       -4 0.43263422E-01 0.12500276E+03</pdfrwt>
<totfact> 0.76212492E+03</totfact>
</mgrwt>
</event>
<event>
 5    1  0.3267085E-002  0.1250022E+03  0.7818608E-02  0.1235066E+00
          4   -1    0    0  501    0  0.00000000000E+00  0.00000000000E+00  0.90001024297E+03  0.90001113902E+03  0.12700000000E+01 0. -1.
         -4   -1    0    0    0  501 -0.00000000000E+00 -0.00000000000E+00 -0.42465628937E+01  0.44324030063E+01  0.12700000000E+01 0. -1.
         25    2    1    2    0    0  0.00000000000E+00  0.00000000000E+00  0.89576368008E+03  0.90444354202E+03  0.12500220062E+03 0.  0.
    9000005    1    3    3    0    0  0.48885918560E+02  0.38514767609E+02  0.40684533981E+03  0.41157909432E+03  0.10000000000E+01 0.  0.
    9000005    1    3    3    0    0 -0.48885918560E+02 -0.38514767609E+02  0.48891834027E+03  0.49286444770E+03  0.10000000000E+01 0.  0.
<mgrwt>
<rscale>  0 0.12500220E+03</rscale>
<asrwt>0</asrwt>
<pdfrwt beam="1">  1        4 0.13847740E+00 0.12500220E+03</pdfrwt>
<pdfrwt beam="2">  1       -4 0.66768209E-03 0.12500220E+03</pdfrwt>
<totfact> 0.33988726E+03</totfact>
</mgrwt>
</event>
<event>
 5    1  0.3267085E-002  0.1250059E+03  0.7818608E-02  0.1235060E+00
         -4   -1    0    0    0  501 -0.00000000000E+00  0.00000000000E+00  0.11731780020E+02  0.11800320438E+02  0.12700000000E+01 0.  1.
          4   -1    0    0  501    0  0.00000000000E+00 -0.00000000000E+00 -0.33195485784E+03  0.33195728722E+03  0.12700000000E+01 0.  1.
         25    2    1    2    0    0  0.00000000000E+00  0.00000000000E+00 -0.32022307782E+03  0.34375760766E+03  0.12500589290E+03 0.  0.
    9000005    1    3    3    0    0  0.12681480904E+02 -0.53123488017E+02 -0.24364308763E+03  0.24969156791E+03  0.10000000000E+01 0.  0.
    9000005    1    3    3    0    0 -0.12681480904E+02  0.53123488017E+02 -0.76579990185E+02  0.94066039747E+02  0.10000000000E+01 0.  0.
<mgrwt>
<rscale>  0 0.12500589E+03</rscale>
<asrwt>0</asrwt>
<pdfrwt beam="2">  1        4 0.51075430E-01 0.12500589E+03</pdfrwt>
<pdfrwt beam="1">  1       -4 0.18103487E-02 0.12500589E+03</pdfrwt>
<totfact> 0.70407617E+03</totfact>
</mgrwt>
</event>
<event>
 5    1  0.3267085E-002  0.1250017E+03  0.7818608E-02  0.1235067E+00
          4   -1    0    0  501    0  0.00000000000E+00  0.00000000000E+00  0.21176969378E+04  0.21176973187E+04  0.12700000000E+01 0. -1.
         -4   -1    0    0    0  501 -0.00000000000E+00 -0.00000000000E+00 -0.16256025202E+01  0.20628823412E+01  0.12700000000E+01 0. -1.
         25    2    1    2    0    0  0.00000000000E+00  0.00000000000E+00  0.21160713353E+04  0.21197602010E+04  0.12500165424E+03 0.  0.
    9000005    1    3    3    0    0  0.56170700268E+02  0.24314225925E+02  0.12718824095E+04  0.12733547003E+04  0.10000000000E+01 0.  0.
    9000005    1    3    3    0    0 -0.56170700268E+02 -0.24314225925E+02  0.84418892580E+03  0.84640550069E+03  0.10000000000E+01 0.  0.
<mgrwt>
<rscale>  0 0.12500165E+03</rscale>
<asrwt>0</asrwt>
<pdfrwt beam="1">  1        4 0.32583407E+00 0.12500165E+03</pdfrwt>
<pdfrwt beam="2">  1       -4 0.28375814E-03 0.12500165E+03</pdfrwt>
<totfact> 0.83776141E+02</totfact>
</mgrwt>
</event>
<event>
 5    1  0.3267085E-002  0.1249965E+03  0.7818608E-02  0.1235075E+00
         -4   -1    0    0    0  501 -0.00000000000E+00  0.00000000000E+00  0.58731043551E+01  0.60088480398E+01  0.12700000000E+01 0.  1.
          4   -1    0    0  501    0  0.00000000000E+00 -0.00000000000E+00 -0.65733634181E+03  0.65733756866E+03  0.12700000000E+01 0.  1.
         25    2    1    2    0    0  0.00000000000E+00  0.00000000000E+00 -0.65146323746E+03  0.66334641670E+03  0.12499647509E+03 0.  0.
    9000005    1    3    3    0    0 -0.15194331514E+02  0.60377946812E+02 -0.35414497725E+03  0.35957757033E+03  0.10000000000E+01 0.  0.
    9000005    1    3    3    0    0  0.15194331514E+02 -0.60377946812E+02 -0.29731826021E+03  0.30376884637E+03  0.10000000000E+01 0.  0.
<mgrwt>
<rscale>  0 0.12499648E+03</rscale>
<asrwt>0</asrwt>
<pdfrwt beam="2">  1        4 0.10113915E+00 0.12499648E+03</pdfrwt>
<pdfrwt beam="1">  1       -4 0.91409123E-03 0.12499648E+03</pdfrwt>
<totfact> 0.45096902E+03</totfact>
</mgrwt>
</event>
<event>
 5    1  0.3267085E-002  0.1250006E+03  0.7818608E-02  0.1235068E+00
          4   -1    0    0  501    0  0.00000000000E+00  0.00000000000E+00  0.21039102310E+03  0.21039485617E+03  0.12700000000E+01 0. -1.
         -4   -1    0    0    0  501 -0.00000000000E+00 -0.00000000000E+00 -0.18541085955E+02  0.18584530352E+02  0.12700000000E+01 0. -1.
         25    2    1    2    0    0  0.00000000000E+00  0.00000000000E+00  0.19184993715E+03  0.22897938652E+03  0.12500064427E+03 0.  0.
    9000005    1    3    3    0    0  0.53376405788E+01  0.46370503479E+01  0.20966493386E+03  0.20978650370E+03  0.10000000000E+01 0.  0.
    9000005    1    3    3    0    0 -0.53376405788E+01 -0.46370503479E+01 -0.17814996717E+02  0.19192882819E+02  0.10000000000E+01 0.  0.
<mgrwt>
<rscale>  0 0.12500064E+03</rscale>
<asrwt>0</asrwt>
<pdfrwt beam="1">  1        4 0.32371485E-01 0.12500064E+03</pdfrwt>
<pdfrwt beam="2">  1       -4 0.28561116E-02 0.12500064E+03</pdfrwt>
<totfact> 0.85465332E+03</totfact>
</mgrwt>
</event>
<event>
 5    1  0.3267085E-002  0.1250006E+03  0.7818608E-02  0.1235068E+00
          4   -1    0    0  501    0  0.00000000000E+00  0.00000000000E+00  0.12941620518E+04  0.12941626749E+04  0.12700000000E+01 0. -1.
         -4   -1    0    0    0  501 -0.00000000000E+00 -0.00000000000E+00 -0.28841497636E+01  0.31513838006E+01  0.12700000000E+01 0. -1.
         25    2    1    2    0    0  0.00000000000E+00  0.00000000000E+00  0.12912779020E+04  0.12973140587E+04  0.12500058692E+03 0.  0.
    9000005    1    3    3    0    0 -0.21577353652E+02  0.45618317544E+02  0.26308680716E+03  0.26788482822E+03  0.10000000000E+01 0.  0.
    9000005    1    3    3    0    0  0.21577353652E+02 -0.45618317544E+02  0.10281910949E+04  0.10294292305E+04  0.10000000000E+01 0.  0.
<mgrwt>
<rscale>  0 0.12500059E+03</rscale>
<asrwt>0</asrwt>
<pdfrwt beam="1">  1        4 0.19912179E+00 0.12500059E+03</pdfrwt>
<pdfrwt beam="2">  1       -4 0.46432131E-03 0.12500059E+03</pdfrwt>
<totfact> 0.22291813E+03</totfact>
</mgrwt>
</event>
<event>
 5    1  0.3267085E-002  0.1249996E+03  0.7818608E-02  0.1235070E+00
         -4   -1    0    0    0  501 -0.00000000000E+00  0.00000000000E+00  0.19076701323E+02  0.19118928667E+02  0.12700000000E+01 0. -1.
          4   -1    0    0  501    0  0.00000000000E+00 -0.00000000000E+00 -0.20449349140E+03  0.20449743501E+03  0.12700000000E+01 0. -1.
         25    2    1    2    0    0  0.00000000000E+00  0.00000000000E+00 -0.18541679008E+03  0.22361636368E+03  0.12499956825E+03 0.  0.
    9000005    1    3    3    0    0  0.35553197722E+02 -0.25848722182E+02 -0.17217097304E+03  0.17769645541E+03  0.10000000000E+01 0.  0.
    9000005    1    3    3    0    0 -0.35553197722E+02  0.25848722182E+02 -0.13245817042E+02  0.45919908274E+02  0.10000000000E+01 0.  0.
<mgrwt>
<rscale>  0 0.12499957E+03</rscale>
<asrwt>0</asrwt>
<pdfrwt beam="2">  1        4 0.31464087E-01 0.12499957E+03</pdfrwt>
<pdfrwt beam="1">  1       -4 0.29384289E-02 0.12499957E+03</pdfrwt>
<totfact> 0.86300155E+03</totfact>
</mgrwt>
</event>
<event>
 5    1  0.3267085E-002  0.1249971E+03  0.7818608E-02  0.1235074E+00
          4   -1    0    0  501    0  0.00000000000E+00  0.00000000000E+00  0.84556563724E+02  0.84566100589E+02  0.12700000000E+01 0.  1.
         -4   -1    0    0    0  501 -0.00000000000E+00 -0.00000000000E+00 -0.46173842250E+02  0.46191304464E+02  0.12700000000E+01 0.  1.
         25    2    1    2    0    0  0.00000000000E+00  0.00000000000E+00  0.38382721474E+02  0.13075740505E+03  0.12499706264E+03 0.  0.
    9000005    1    3    3    0    0 -0.14747183596E+02  0.44566501699E+02 -0.23957712916E+02  0.52712659826E+02  0.10000000000E+01 0.  0.
    9000005    1    3    3    0    0  0.14747183596E+02 -0.44566501699E+02  0.62340434390E+02  0.78044745228E+02  0.10000000000E+01 0.  0.
<mgrwt>
<rscale>  0 0.12499706E+03</rscale>
<asrwt>0</asrwt>
<pdfrwt beam="1">  1        4 0.13010779E-01 0.12499706E+03</pdfrwt>
<pdfrwt beam="2">  1       -4 0.71057450E-02 0.12499706E+03</pdfrwt>
<totfact> 0.10328977E+04</totfact>
</mgrwt>
</event>
<event>
 5    1  0.3267085E-002  0.1249972E+03  0.7818608E-02  0.1235074E+00
          4   -1    0    0  501    0  0.00000000000E+00  0.00000000000E+00  0.30072931055E+02  0.30099735584E+02  0.12700000000E+01 0.  1.
         -4   -1    0    0    0  501 -0.00000000000E+00 -0.00000000000E+00 -0.12979888388E+03  0.12980509681E+03  0.12700000000E+01 0.  1.
         25    2    1    2    0    0  0.00000000000E+00  0.00000000000E+00 -0.99725952829E+02  0.15990483239E+03  0.12499715899E+03 0.  0.
    9000005    1    3    3    0    0  0.54449472533E+02  0.27327078976E+02 -0.67660810747E+02  0.91052180728E+02  0.10000000000E+01 0.  0.
    9000005    1    3    3    0    0 -0.54449472533E+02 -0.27327078976E+02 -0.32065142082E+02  0.68852651664E+02  0.10000000000E+01 0.  0.
<mgrwt>
<rscale>  0 0.12499716E+03</rscale>
<asrwt>0</asrwt>
<pdfrwt beam="1">  1        4 0.46291446E-02 0.12499716E+03</pdfrwt>
<pdfrwt beam="2">  1       -4 0.19971599E-01 0.12499716E+03</pdfrwt>
<totfact> 0.97367353E+03</totfact>
</mgrwt>
</event>
<event>
 5    1  0.3267085E-002  0.1250025E+03  0.7818608E-02  0.1235065E+00
         -4   -1    0    0    0  501 -0.00000000000E+00  0.00000000000E+00  0.29201408101E+02  0.29229011873E+02  0.12700000000E+01 0.  1.
          4   -1    0    0  501    0  0.00000000000E+00 -0.00000000000E+00 -0.13368082050E+03  0.13368685302E+03  0.12700000000E+01 0.  1.
         25    2    1    2    0    0  0.00000000000E+00  0.00000000000E+00 -0.10447941240E+03  0.16291586489E+03  0.12500252565E+03 0.  0.
    9000005    1    3    3    0    0 -0.17142903988E+02 -0.58609535335E+02 -0.34927327936E+02  0.70355348241E+02  0.10000000000E+01 0.  0.
    9000005    1    3    3    0    0  0.17142903988E+02  0.58609535335E+02 -0.69552084464E+02  0.92560516651E+02  0.10000000000E+01 0.  0.
<mgrwt>
<rscale>  0 0.12500253E+03</rscale>
<asrwt>0</asrwt>
<pdfrwt beam="2">  1        4 0.20568867E-01 0.12500253E+03</pdfrwt>
<pdfrwt beam="1">  1       -4 0.44951118E-02 0.12500253E+03</pdfrwt>
<totfact> 0.96778064E+03</totfact>
</mgrwt>
</event>
<event>
 5    1  0.3267085E-002  0.1250001E+03  0.7818608E-02  0.1235069E+00
          4   -1    0    0  501    0  0.00000000000E+00  0.00000000000E+00  0.69803632597E+01  0.70949539278E+01  0.12700000000E+01 0. -1.
         -4   -1    0    0    0  501 -0.00000000000E+00 -0.00000000000E+00 -0.55493497801E+03  0.55493643124E+03  0.12700000000E+01 0. -1.
         25    2    1    2    0    0  0.00000000000E+00  0.00000000000E+00 -0.54795461475E+03  0.56203138517E+03  0.12500007236E+03 0.  0.
    9000005    1    3    3    0    0  0.59468521906E+02 -0.18048824275E+02 -0.30345753474E+03  0.30975755123E+03  0.10000000000E+01 0.  0.
    9000005    1    3    3    0    0 -0.59468521906E+02  0.18048824275E+02 -0.24449708001E+03  0.25227383394E+03  0.10000000000E+01 0.  0.
<mgrwt>
<rscale>  0 0.12500007E+03</rscale>
<asrwt>0</asrwt>
<pdfrwt beam="1">  1        4 0.10828289E-02 0.12500007E+03</pdfrwt>
<pdfrwt beam="2">  1       -4 0.85383504E-01 0.12500007E+03</pdfrwt>
<totfact> 0.51355429E+03</totfact>
</mgrwt>
</event>
<event>
 5    1  0.3267085E-002  0.1250145E+03  0.7818608E-02  0.1235047E+00
          4   -1    0    0  501    0  0.00000000000E+00  0.00000000000E+00  0.48936336933E+03  0.48936501729E+03  0.12700000000E+01 0.  1.
         -4   -1    0    0    0  501 -0.00000000000E+00 -0.00000000000E+00 -0.79319898108E+01  0.80330170147E+01  0.12700000000E+01 0.  1.
         25    2    1    2    0    0  0.00000000000E+00  0.00000000000E+00  0.48143137952E+03  0.49739803430E+03  0.12501452451E+03 0.  0.
    9000005    1    3    3    0    0 -0.33528305110E+02 -0.32054556122E+02  0.74059188322E+02  0.87392249008E+02  0.10000000000E+01 0.  0.
    9000005    1    3    3    0    0  0.33528305110E+02  0.32054556122E+02  0.40737219120E+03  0.41000578530E+03  0.10000000000E+01 0.  0.
<mgrwt>
<rscale>  0 0.12501452E+03</rscale>
<asrwt>0</asrwt>
<pdfrwt beam="1">  1        4 0.75294578E-01 0.12501452E+03</pdfrwt>
<pdfrwt beam="2">  1       -4 0.12282041E-02 0.12501452E+03</pdfrwt>
<totfact> 0.56048904E+03</totfact>
</mgrwt>
</event>
<event>
 5    1  0.3267085E-002  0.1249973E+03  0.7818608E-02  0.1235073E+00
          4   -1    0    0  501    0  0.00000000000E+00  0.00000000000E+00  0.11296252182E+03  0.11296966069E+03  0.12700000000E+01 0.  1.
         -4   -1    0    0    0  501 -0.00000000000E+00 -0.00000000000E+00 -0.34558691014E+02  0.34582018805E+02  0.12700000000E+01 0.  1.
         25    2    1    2    0    0  0.00000000000E+00  0.00000000000E+00  0.78403830808E+02  0.14755167949E+03  0.12499734972E+03 0.  0.
    9000005    1    3    3    0    0  0.44107177213E+02 -0.31343622267E+02  0.76103007480E+02  0.93383796700E+02  0.10000000000E+01 0.  0.
    9000005    1    3    3    0    0 -0.44107177213E+02  0.31343622267E+02  0.23008233273E+01  0.54167882795E+02  0.10000000000E+01 0.  0.
<mgrwt>
<rscale>  0 0.12499735E+03</rscale>
<asrwt>0</asrwt>
<pdfrwt beam="1">  1        4 0.17381193E-01 0.12499735E+03</pdfrwt>
<pdfrwt beam="2">  1       -4 0.53190653E-02 0.12499735E+03</pdfrwt>
<totfact> 0.99799946E+03</totfact>
</mgrwt>
</event>
<event>
 5    1  0.3267085E-002  0.1250004E+03  0.7818608E-02  0.1235069E+00
         -4   -1    0    0    0  501 -0.00000000000E+00  0.00000000000E+00  0.32349571217E+03  0.32349820508E+03  0.12700000000E+01 0.  1.
          4   -1    0    0  501    0  0.00000000000E+00 -0.00000000000E+00 -0.12039249816E+02  0.12106049568E+02  0.12700000000E+01 0.  1.
         25    2    1    2    0    0  0.00000000000E+00  0.00000000000E+00  0.31145646235E+03  0.33560425465E+03  0.12500035119E+03 0.  0.
    9000005    1    3    3    0    0  0.32434575062E+02  0.50490500639E+02  0.20253821268E+03  0.21124398195E+03  0.10000000000E+01 0.  0.
    9000005    1    3    3    0    0 -0.32434575062E+02 -0.50490500639E+02  0.10891824967E+03  0.12436027270E+03  0.10000000000E+01 0.  0.
<mgrwt>
<rscale>  0 0.12500035E+03</rscale>
<asrwt>0</asrwt>
<pdfrwt beam="2">  1        4 0.18575223E-02 0.12500035E+03</pdfrwt>
<pdfrwt beam="1">  1       -4 0.49773905E-01 0.12500035E+03</pdfrwt>
<totfact> 0.71337291E+03</totfact>
</mgrwt>
</event>
<event>
 5    1  0.3267085E-002  0.1250056E+03  0.7818608E-02  0.1235061E+00
         -4   -1    0    0    0  501 -0.00000000000E+00  0.00000000000E+00  0.15801408945E+04  0.15801414049E+04  0.12700000000E+01 0.  1.
          4   -1    0    0  501    0  0.00000000000E+00 -0.00000000000E+00 -0.23086684051E+01  0.26349288045E+01  0.12700000000E+01 0.  1.
         25    2    1    2    0    0  0.00000000000E+00  0.00000000000E+00  0.15778322261E+04  0.15827763337E+04  0.12500555477E+03 0.  0.
    9000005    1    3    3    0    0  0.48042655798E+02 -0.32161269567E+02  0.48844446934E+03  0.49185510434E+03  0.10000000000E+01 0.  0.
    9000005    1    3    3    0    0 -0.48042655798E+02  0.32161269567E+02  0.10893877567E+04  0.10909212293E+04  0.10000000000E+01 0.  0.
<mgrwt>
<rscale>  0 0.12500555E+03</rscale>
<asrwt>0</asrwt>
<pdfrwt beam="2">  1        4 0.38031532E-03 0.12500555E+03</pdfrwt>
<pdfrwt beam="1">  1       -4 0.24312415E+00 0.12500555E+03</pdfrwt>
<totfact> 0.16357372E+03</totfact>
</mgrwt>
</event>
<event>
 5    1  0.3267085E-002  0.1250046E+03  0.7818608E-02  0.1235062E+00
          4   -1    0    0  501    0  0.00000000000E+00  0.00000000000E+00  0.49581317548E+02  0.49597580080E+02  0.12700000000E+01 0.  1.
         -4   -1    0    0    0  501 -0.00000000000E+00 -0.00000000000E+00 -0.78756194720E+02  0.78766433884E+02  0.12700000000E+01 0.  1.
         25    2    1    2    0    0  0.00000000000E+00  0.00000000000E+00 -0.29174877172E+02  0.12836401396E+03  0.12500458641E+03 0.  0.
    9000005    1    3    3    0    0  0.45607914061E+02  0.37923874372E+02 -0.34794558090E+02  0.68774728971E+02  0.10000000000E+01 0.  0.
    9000005    1    3    3    0    0 -0.45607914061E+02 -0.37923874372E+02  0.56196809179E+01  0.59589284993E+02  0.10000000000E+01 0.  0.
<mgrwt>
<rscale>  0 0.12500459E+03</rscale>
<asrwt>0</asrwt>
<pdfrwt beam="1">  1        4 0.76299336E-02 0.12500459E+03</pdfrwt>
<pdfrwt beam="2">  1       -4 0.12118376E-01 0.12500459E+03</pdfrwt>
<totfact> 0.10378559E+04</totfact>
</mgrwt>
</event>
<event>
 5    1  0.3267085E-002  0.1249733E+03  0.7818608E-02  0.1235111E+00
         -4   -1    0    0    0  501 -0.00000000000E+00  0.00000000000E+00  0.15553163334E+04  0.15553168519E+04  0.12700000000E+01 0. -1.
          4   -1    0    0  501    0  0.00000000000E+00 -0.00000000000E+00 -0.23493043890E+01  0.26706050086E+01  0.12700000000E+01 0. -1.
         25    2    1    2    0    0  0.00000000000E+00  0.00000000000E+00  0.15529670290E+04  0.15579874569E+04  0.12497328805E+03 0.  0.
    9000005    1    3    3    0    0 -0.74845100562E+01 -0.62015713302E+02  0.79232191067E+03  0.79478108729E+03  0.10000000000E+01 0.  0.
    9000005    1    3    3    0    0  0.74845100562E+01  0.62015713302E+02  0.76064511831E+03  0.76320636959E+03  0.10000000000E+01 0.  0.
<mgrwt>
<rscale>  0 0.12497329E+03</rscale>
<asrwt>0</asrwt>
<pdfrwt beam="2">  1        4 0.38618831E-03 0.12497329E+03</pdfrwt>
<pdfrwt beam="1">  1       -4 0.23930323E+00 0.12497329E+03</pdfrwt>
<totfact> 0.16828251E+03</totfact>
</mgrwt>
</event>
<event>
 5    1  0.3267085E-002  0.1250008E+03  0.7818608E-02  0.1235068E+00
         -4   -1    0    0    0  501 -0.00000000000E+00  0.00000000000E+00  0.11501482874E+03  0.11502184024E+03  0.12700000000E+01 0. -1.
          4   -1    0    0  501    0  0.00000000000E+00 -0.00000000000E+00 -0.33943500118E+02  0.33967250408E+02  0.12700000000E+01 0. -1.
         25    2    1    2    0    0  0.00000000000E+00  0.00000000000E+00  0.81071328627E+02  0.14898909064E+03  0.12500075522E+03 0.  0.
    9000005    1    3    3    0    0 -0.41655192257E+01 -0.32994543975E+02 -0.22526227949E+02  0.40179875910E+02  0.10000000000E+01 0.  0.
    9000005    1    3    3    0    0  0.41655192257E+01  0.32994543975E+02  0.10359755658E+03  0.10880921473E+03  0.10000000000E+01 0.  0.
<mgrwt>
<rscale>  0 0.12500076E+03</rscale>
<asrwt>0</asrwt>
<pdfrwt beam="2">  1        4 0.52244433E-02 0.12500076E+03</pdfrwt>
<pdfrwt beam="1">  1       -4 0.17696955E-01 0.12500076E+03</pdfrwt>
<totfact> 0.99503899E+03</totfact>
</mgrwt>
</event>
<event>
 5    1  0.3267085E-002  0.1250029E+03  0.7818608E-02  0.1235065E+00
          4   -1    0    0  501    0  0.00000000000E+00  0.00000000000E+00  0.27469257413E+02  0.27498600016E+02  0.12700000000E+01 0.  1.
         -4   -1    0    0    0  501 -0.00000000000E+00 -0.00000000000E+00 -0.14210284153E+03  0.14210851654E+03  0.12700000000E+01 0.  1.
         25    2    1    2    0    0  0.00000000000E+00  0.00000000000E+00 -0.11463358412E+03  0.16960711655E+03  0.12500286147E+03 0.  0.
    9000005    1    3    3    0    0 -0.41472975491E+02 -0.15174573963E+02  0.26781365471E+01  0.44254353530E+02  0.10000000000E+01 0.  0.
    9000005    1    3    3    0    0  0.41472975491E+02  0.15174573963E+02 -0.11731172067E+03  0.12535276302E+03  0.10000000000E+01 0.  0.
<mgrwt>
<rscale>  0 0.12500286E+03</rscale>
<asrwt>0</asrwt>
<pdfrwt beam="1">  1        4 0.42287333E-02 0.12500286E+03</pdfrwt>
<pdfrwt beam="2">  1       -4 0.21864669E-01 0.12500286E+03</pdfrwt>
<totfact> 0.95515780E+03</totfact>
</mgrwt>
</event>
<event>
 4    1  0.3267085E-002  0.1251489E+03  0.7818608E-02  0.1234837E+00
          4   -1    0    0  501    0  0.00000000000E+00  0.00000000000E+00  0.45570616068E+01  0.47307198700E+01  0.12700000000E+01 0. -1.
         -4   -1    0    0    0  501 -0.00000000000E+00 -0.00000000000E+00 -0.84298982653E+03  0.84299078318E+03  0.12700000000E+01 0. -1.
    9000005    1    1    2    0    0 -0.32293867065E+01 -0.57093666758E+02 -0.24725959176E+03  0.25378814282E+03  0.10000000000E+01 0.  0.
    9000005    1    1    2    0    0  0.32293867065E+01  0.57093666758E+02 -0.59117317317E+03  0.59393336023E+03  0.10000000000E+01 0.  0.
<mgrwt>
<rscale>  0 0.12514889E+03</rscale>
<asrwt>0</asrwt>
<pdfrwt beam="1">  1        4 0.71451899E-03 0.12514889E+03</pdfrwt>
<pdfrwt beam="2">  1       -4 0.12970405E+00 0.12514889E+03</pdfrwt>
<totfact> 0.36103261E+03</totfact>
</mgrwt>
</event>
<event>
 5    1  0.3267085E-002  0.1249966E+03  0.7818608E-02  0.1235075E+00
         -4   -1    0    0    0  501 -0.00000000000E+00  0.00000000000E+00  0.24796762311E+03  0.24797087533E+03  0.12700000000E+01 0.  1.
          4   -1    0    0  501    0  0.00000000000E+00 -0.00000000000E+00 -0.15723240397E+02  0.15774447331E+02  0.12700000000E+01 0.  1.
         25    2    1    2    0    0  0.00000000000E+00  0.00000000000E+00  0.23224438271E+03  0.26374532266E+03  0.12499656764E+03 0.  0.
    9000005    1    3    3    0    0 -0.55158042185E+02  0.33706549116E+01  0.17768507474E+03  0.18608266098E+03  0.10000000000E+01 0.  0.
    9000005    1    3    3    0    0  0.55158042185E+02 -0.33706549116E+01  0.54559307969E+02  0.77662661674E+02  0.10000000000E+01 0.  0.
<mgrwt>
<rscale>  0 0.12499657E+03</rscale>
<asrwt>0</asrwt>
<pdfrwt beam="2">  1        4 0.24231493E-02 0.12499657E+03</pdfrwt>
<pdfrwt beam="1">  1       -4 0.38153054E-01 0.12499657E+03</pdfrwt>
<totfact> 0.80389454E+03</totfact>
</mgrwt>
</event>
<event>
 5    1  0.3267085E-002  0.1249951E+03  0.7818608E-02  0.1235077E+00
         -4   -1    0    0    0  501 -0.00000000000E+00  0.00000000000E+00  0.20389825302E+02  0.20429338605E+02  0.12700000000E+01 0. -1.
          4   -1    0    0  501    0  0.00000000000E+00 -0.00000000000E+00 -0.19133638809E+03  0.19134060287E+03  0.12700000000E+01 0. -1.
         25    2    1    2    0    0  0.00000000000E+00  0.00000000000E+00 -0.17094656279E+03  0.21176994148E+03  0.12499512304E+03 0.  0.
    9000005    1    3    3    0    0  0.48891926776E+02 -0.90685593924E+01 -0.21354374486E+02  0.54126412989E+02  0.10000000000E+01 0.  0.
    9000005    1    3    3    0    0 -0.48891926776E+02  0.90685593924E+01 -0.14959218830E+03  0.15764352849E+03  0.10000000000E+01 0.  0.
<mgrwt>
<rscale>  0 0.12499512E+03</rscale>
<asrwt>0</asrwt>
<pdfrwt beam="2">  1        4 0.29439730E-01 0.12499512E+03</pdfrwt>
<pdfrwt beam="1">  1       -4 0.31402600E-02 0.12499512E+03</pdfrwt>
<totfact> 0.88197255E+03</totfact>
</mgrwt>
</event>
<event>
 5    1  0.3267085E-002  0.1250208E+03  0.7818608E-02  0.1235037E+00
          4   -1    0    0  501    0  0.00000000000E+00  0.00000000000E+00  0.43880976376E+02  0.43899350653E+02  0.12700000000E+01 0. -1.
         -4   -1    0    0    0  501 -0.00000000000E+00 -0.00000000000E+00 -0.89007341035E+02  0.89016401063E+02  0.12700000000E+01 0. -1.
         25    2    1    2    0    0  0.00000000000E+00  0.00000000000E+00 -0.45126364659E+02  0.13291575172E+03  0.12502083133E+03 0.  0.
    9000005    1    3    3    0    0 -0.25538345770E+02  0.26045562198E+02  0.31395927650E+02  0.48138162489E+02  0.10000000000E+01 0.  0.
    9000005    1    3    3    0    0  0.25538345770E+02 -0.26045562198E+02 -0.76522292309E+02  0.84777589226E+02  0.10000000000E+01 0.  0.
<mgrwt>
<rscale>  0 0.12502083E+03</rscale>
<asrwt>0</asrwt>
<pdfrwt beam="1">  1        4 0.67530298E-02 0.12502083E+03</pdfrwt>
<pdfrwt beam="2">  1       -4 0.13695547E-01 0.12502083E+03</pdfrwt>
<totfact> 0.10277361E+04</totfact>
</mgrwt>
</event>
<event>
 5    1  0.3267085E-002  0.1249892E+03  0.7818608E-02  0.1235086E+00
          4   -1    0    0  501    0  0.00000000000E+00  0.00000000000E+00  0.33415415107E+01  0.35747446996E+01  0.12700000000E+01 0. -1.
         -4   -1    0    0    0  501 -0.00000000000E+00 -0.00000000000E+00 -0.11291519505E+04  0.11291526647E+04  0.12700000000E+01 0. -1.
         25    2    1    2    0    0  0.00000000000E+00  0.00000000000E+00 -0.11258104089E+04  0.11327274094E+04  0.12498922767E+03 0.  0.
    9000005    1    3    3    0    0  0.62442933067E+02 -0.21689209380E+01 -0.57076750321E+03  0.57417799229E+03  0.10000000000E+01 0.  0.
    9000005    1    3    3    0    0 -0.62442933067E+02  0.21689209380E+01 -0.55504290573E+03  0.55854941707E+03  0.10000000000E+01 0.  0.
<mgrwt>
<rscale>  0 0.12498923E+03</rscale>
<asrwt>0</asrwt>
<pdfrwt beam="1">  1        4 0.53207786E-03 0.12498923E+03</pdfrwt>
<pdfrwt beam="2">  1       -4 0.17373338E+00 0.12498923E+03</pdfrwt>
<totfact> 0.26550675E+03</totfact>
</mgrwt>
</event>
<event>
 5    1  0.3267085E-002  0.1249975E+03  0.7818608E-02  0.1235073E+00
          4   -1    0    0  501    0  0.00000000000E+00  0.00000000000E+00  0.49179942489E+03  0.49180106468E+03  0.12700000000E+01 0. -1.
         -4   -1    0    0    0  501 -0.00000000000E+00 -0.00000000000E+00 -0.78900256306E+01  0.79915833507E+01  0.12700000000E+01 0. -1.
         25    2    1    2    0    0  0.00000000000E+00  0.00000000000E+00  0.48390939926E+03  0.49979264803E+03  0.12499753732E+03 0.  0.
    9000005    1    3    3    0    0 -0.33034501067E+02 -0.52659627233E+02  0.26748876190E+03  0.27461892204E+03  0.10000000000E+01 0.  0.
    9000005    1    3    3    0    0  0.33034501067E+02  0.52659627233E+02  0.21642063736E+03  0.22517372599E+03  0.10000000000E+01 0.  0.
<mgrwt>
<rscale>  0 0.12499754E+03</rscale>
<asrwt>0</asrwt>
<pdfrwt beam="1">  1        4 0.75669415E-01 0.12499754E+03</pdfrwt>
<pdfrwt beam="2">  1       -4 0.12217879E-02 0.12499754E+03</pdfrwt>
<totfact> 0.55883469E+03</totfact>
</mgrwt>
</event>
<event>
 5    1  0.3267085E-002  0.1250000E+03  0.7818608E-02  0.1235069E+00
         -4   -1    0    0    0  501 -0.00000000000E+00  0.00000000000E+00  0.46579229719E+02  0.46596540013E+02  0.12700000000E+01 0. -1.
          4   -1    0    0  501    0  0.00000000000E+00 -0.00000000000E+00 -0.83824778823E+02  0.83834398935E+02  0.12700000000E+01 0. -1.
         25    2    1    2    0    0  0.00000000000E+00  0.00000000000E+00 -0.37245549104E+02  0.13043093895E+03  0.12499999563E+03 0.  0.
    9000005    1    3    3    0    0  0.34979469722E+02  0.67511639131E+00 -0.72653115730E+02  0.80644245359E+02  0.10000000000E+01 0.  0.
    9000005    1    3    3    0    0 -0.34979469722E+02 -0.67511639131E+00  0.35407566626E+02  0.49786693589E+02  0.10000000000E+01 0.  0.
<mgrwt>
<rscale>  0 0.12500000E+03</rscale>
<asrwt>0</asrwt>
<pdfrwt beam="2">  1        4 0.12898191E-01 0.12500000E+03</pdfrwt>
<pdfrwt beam="1">  1       -4 0.71681069E-02 0.12500000E+03</pdfrwt>
<totfact> 0.10335298E+04</totfact>
</mgrwt>
</event>
<event>
 5    1  0.3267085E-002  0.1249996E+03  0.7818608E-02  0.1235070E+00
         -4   -1    0    0    0  501 -0.00000000000E+00  0.00000000000E+00  0.95296352938E+02  0.95304815111E+02  0.12700000000E+01 0. -1.
          4   -1    0    0  501    0  0.00000000000E+00 -0.00000000000E+00 -0.40970174459E+02  0.40989853564E+02  0.12700000000E+01 0. -1.
         25    2    1    2    0    0  0.00000000000E+00  0.00000000000E+00  0.54326178479E+02  0.13629466867E+03  0.12499961216E+03 0.  0.
    9000005    1    3    3    0    0 -0.21138806929E+02  0.54996235829E+02  0.44534469002E+01  0.59095416937E+02  0.10000000000E+01 0.  0.
    9000005    1    3    3    0    0  0.21138806929E+02 -0.54996235829E+02  0.49872731578E+02  0.77199251737E+02  0.10000000000E+01 0.  0.
<mgrwt>
<rscale>  0 0.12499961E+03</rscale>
<asrwt>0</asrwt>
<pdfrwt beam="2">  1        4 0.63052686E-02 0.12499961E+03</pdfrwt>
<pdfrwt beam="1">  1       -4 0.14663142E-01 0.12499961E+03</pdfrwt>
<totfact> 0.10210943E+04</totfact>
</mgrwt>
</event>
<event>
 5    1  0.3267085E-002  0.1250163E+03  0.7818608E-02  0.1235044E+00
          4   -1    0    0  501    0  0.00000000000E+00  0.00000000000E+00  0.17382336025E+02  0.17428669074E+02  0.12700000000E+01 0.  1.
         -4   -1    0    0    0  501 -0.00000000000E+00 -0.00000000000E+00 -0.22443665430E+03  0.22444024749E+03  0.12700000000E+01 0.  1.
         25    2    1    2    0    0  0.00000000000E+00  0.00000000000E+00 -0.20705431827E+03  0.24186891656E+03  0.12501632727E+03 0.  0.
    9000005    1    3    3    0    0 -0.24141479448E+02  0.48872541924E+02 -0.16268384449E+03  0.17157613367E+03  0.10000000000E+01 0.  0.
    9000005    1    3    3    0    0  0.24141479448E+02 -0.48872541924E+02 -0.44370473778E+02  0.70292782896E+02  0.10000000000E+01 0.  0.
<mgrwt>
<rscale>  0 0.12501633E+03</rscale>
<asrwt>0</asrwt>
<pdfrwt beam="1">  1        4 0.26780462E-02 0.12501633E+03</pdfrwt>
<pdfrwt beam="2">  1       -4 0.34532555E-01 0.12501633E+03</pdfrwt>
<totfact> 0.83489422E+03</totfact>
</mgrwt>
</event>
<event>
 5    1  0.3267085E-002  0.1250019E+03  0.7818608E-02  0.1235066E+00
          4   -1    0    0  501    0  0.00000000000E+00  0.00000000000E+00  0.21616129390E+03  0.21616502465E+03  0.12700000000E+01 0.  1.
         -4   -1    0    0    0  501 -0.00000000000E+00 -0.00000000000E+00 -0.18045344217E+02  0.18089979212E+02  0.12700000000E+01 0.  1.
         25    2    1    2    0    0  0.00000000000E+00  0.00000000000E+00  0.19811594969E+03  0.23425500386E+03  0.12500190924E+03 0.  0.
    9000005    1    3    3    0    0  0.23896075042E+02  0.25231968254E+02  0.17230652438E+01  0.34808671021E+02  0.10000000000E+01 0.  0.
    9000005    1    3    3    0    0 -0.23896075042E+02 -0.25231968254E+02  0.19639288444E+03  0.19944633284E+03  0.10000000000E+01 0.  0.
<mgrwt>
<rscale>  0 0.12500191E+03</rscale>
<asrwt>0</asrwt>
<pdfrwt beam="1">  1        4 0.33259302E-01 0.12500191E+03</pdfrwt>
<pdfrwt beam="2">  1       -4 0.27799274E-02 0.12500191E+03</pdfrwt>
<totfact> 0.84656887E+03</totfact>
</mgrwt>
</event>
<event>
 5    1  0.3267085E-002  0.1249998E+03  0.7818608E-02  0.1235070E+00
         -4   -1    0    0    0  501 -0.00000000000E+00  0.00000000000E+00  0.34319720323E+03  0.34319955304E+03  0.12700000000E+01 0. -1.
          4   -1    0    0  501    0  0.00000000000E+00 -0.00000000000E+00 -0.11344082702E+02  0.11414951264E+02  0.12700000000E+01 0. -1.
         25    2    1    2    0    0  0.00000000000E+00  0.00000000000E+00  0.33185312053E+03  0.35461450430E+03  0.12499981223E+03 0.  0.
    9000005    1    3    3    0    0 -0.43260858773E+02  0.37707123976E+02  0.23610288391E+03  0.24297921905E+03  0.10000000000E+01 0.  0.
    9000005    1    3    3    0    0  0.43260858773E+02 -0.37707123976E+02  0.95750236615E+02  0.11163528525E+03  0.10000000000E+01 0.  0.
<mgrwt>
<rscale>  0 0.12499981E+03</rscale>
<asrwt>0</asrwt>
<pdfrwt beam="2">  1        4 0.17508760E-02 0.12499981E+03</pdfrwt>
<pdfrwt beam="1">  1       -4 0.52805193E-01 0.12499981E+03</pdfrwt>
<totfact> 0.69220162E+03</totfact>
</mgrwt>
</event>
<event>
 5    1  0.3267085E-002  0.1250002E+03  0.7818608E-02  0.1235069E+00
          4   -1    0    0  501    0  0.00000000000E+00  0.00000000000E+00  0.64981825503E+02  0.64994234712E+02  0.12700000000E+01 0. -1.
         -4   -1    0    0    0  501 -0.00000000000E+00 -0.00000000000E+00 -0.60088313001E+02  0.60101732581E+02  0.12700000000E+01 0. -1.
         25    2    1    2    0    0  0.00000000000E+00  0.00000000000E+00  0.48935125028E+01  0.12509596729E+03  0.12500021827E+03 0.  0.
    9000005    1    3    3    0    0  0.84987930567E+01  0.33814620774E+02  0.54347889043E+02  0.64578255667E+02  0.10000000000E+01 0.  0.
    9000005    1    3    3    0    0 -0.84987930567E+01 -0.33814620774E+02 -0.49454376540E+02  0.60517711626E+02  0.10000000000E+01 0.  0.
<mgrwt>
<rscale>  0 0.12500022E+03</rscale>
<asrwt>0</asrwt>
<pdfrwt beam="1">  1        4 0.99991907E-02 0.12500022E+03</pdfrwt>
<pdfrwt beam="2">  1       -4 0.92463427E-02 0.12500022E+03</pdfrwt>
<totfact> 0.10450727E+04</totfact>
</mgrwt>
</event>
<event>
 5    1  0.3267085E-002  0.1249967E+03  0.7818608E-02  0.1235074E+00
          4   -1    0    0  501    0  0.00000000000E+00  0.00000000000E+00  0.10348567569E+02  0.10426205002E+02  0.12700000000E+01 0. -1.
         -4   -1    0    0    0  501 -0.00000000000E+00 -0.00000000000E+00 -0.37595847078E+03  0.37596061582E+03  0.12700000000E+01 0. -1.
         25    2    1    2    0    0  0.00000000000E+00  0.00000000000E+00 -0.36560990321E+03  0.38638682083E+03  0.12499669589E+03 0.  0.
    9000005    1    3    3    0    0  0.53899561744E+02  0.30264468750E+02 -0.15448352259E+03  0.16639489048E+03  0.10000000000E+01 0.  0.
    9000005    1    3    3    0    0 -0.53899561744E+02 -0.30264468750E+02 -0.21112638062E+03  0.21999193035E+03  0.10000000000E+01 0.  0.
<mgrwt>
<rscale>  0 0.12499670E+03</rscale>
<asrwt>0</asrwt>
<pdfrwt beam="1">  1        4 0.15982247E-02 0.12499670E+03</pdfrwt>
<pdfrwt beam="2">  1       -4 0.57845891E-01 0.12499670E+03</pdfrwt>
<totfact> 0.65903496E+03</totfact>
</mgrwt>
</event>
<event>
 5    1  0.3267085E-002  0.1249991E+03  0.7818608E-02  0.1235071E+00
         -4   -1    0    0    0  501 -0.00000000000E+00  0.00000000000E+00  0.98596172761E+02  0.98604351745E+02  0.12700000000E+01 0. -1.
          4   -1    0    0  501    0  0.00000000000E+00 -0.00000000000E+00 -0.39598086598E+02  0.39618447247E+02  0.12700000000E+01 0. -1.
         25    2    1    2    0    0  0.00000000000E+00  0.00000000000E+00  0.58998086162E+02  0.13822279899E+03  0.12499907196E+03 0.  0.
    9000005    1    3    3    0    0  0.37003963040E+02 -0.41976203269E+01  0.84990329206E+02  0.92796925357E+02  0.10000000000E+01 0.  0.
    9000005    1    3    3    0    0 -0.37003963040E+02  0.41976203269E+01 -0.25992243044E+02  0.45425873635E+02  0.10000000000E+01 0.  0.
<mgrwt>
<rscale>  0 0.12499907E+03</rscale>
<asrwt>0</asrwt>
<pdfrwt beam="2">  1        4 0.60942087E-02 0.12499907E+03</pdfrwt>
<pdfrwt beam="1">  1       -4 0.15170837E-01 0.12499907E+03</pdfrwt>
<totfact> 0.10170765E+04</totfact>
</mgrwt>
</event>
<event>
 5    1  0.3267085E-002  0.1249996E+03  0.7818608E-02  0.1235070E+00
          4   -1    0    0  501    0  0.00000000000E+00  0.00000000000E+00  0.68016838703E+02  0.68028694293E+02  0.12700000000E+01 0. -1.
         -4   -1    0    0    0  501 -0.00000000000E+00 -0.00000000000E+00 -0.57406381863E+02  0.57420428234E+02  0.12700000000E+01 0. -1.
         25    2    1    2    0    0  0.00000000000E+00  0.00000000000E+00  0.10610456840E+02  0.12544912253E+03  0.12499960219E+03 0.  0.
    9000005    1    3    3    0    0  0.55112221624E+02  0.10156495706E+02  0.33058133441E+02  0.65071895346E+02  0.10000000000E+01 0.  0.
    9000005    1    3    3    0    0 -0.55112221624E+02 -0.10156495706E+02 -0.22447676600E+02  0.60377227181E+02  0.10000000000E+01 0.  0.
<mgrwt>
<rscale>  0 0.12499960E+03</rscale>
<asrwt>0</asrwt>
<pdfrwt beam="1">  1        4 0.10466121E-01 0.12499960E+03</pdfrwt>
<pdfrwt beam="2">  1       -4 0.88337435E-02 0.12499960E+03</pdfrwt>
<totfact> 0.10443173E+04</totfact>
</mgrwt>
</event>
<event>
 5    1  0.3267085E-002  0.1249991E+03  0.7818608E-02  0.1235071E+00
          4   -1    0    0  501    0  0.00000000000E+00  0.00000000000E+00  0.32557842022E+01  0.34947146910E+01  0.12700000000E+01 0. -1.
         -4   -1    0    0    0  501 -0.00000000000E+00 -0.00000000000E+00 -0.11570654801E+04  0.11570661770E+04  0.12700000000E+01 0. -1.
         25    2    1    2    0    0  0.00000000000E+00  0.00000000000E+00 -0.11538096959E+04  0.11605608917E+04  0.12499907662E+03 0.  0.
    9000005    1    3    3    0    0 -0.55025722758E+02 -0.25545977873E+02 -0.43770921724E+03  0.44189454173E+03  0.10000000000E+01 0.  0.
    9000005    1    3    3    0    0  0.55025722758E+02  0.25545977873E+02 -0.71610047861E+03  0.71866635000E+03  0.10000000000E+01 0.  0.
<mgrwt>
<rscale>  0 0.12499908E+03</rscale>
<asrwt>0</asrwt>
<pdfrwt beam="1">  1        4 0.51932368E-03 0.12499908E+03</pdfrwt>
<pdfrwt beam="2">  1       -4 0.17802819E+00 0.12499908E+03</pdfrwt>
<totfact> 0.25769593E+03</totfact>
</mgrwt>
</event>
<event>
 5    1  0.3267085E-002  0.1250152E+03  0.7818608E-02  0.1235046E+00
         -4   -1    0    0    0  501 -0.00000000000E+00  0.00000000000E+00  0.57524318038E+02  0.57538335618E+02  0.12700000000E+01 0. -1.
          4   -1    0    0  501    0  0.00000000000E+00 -0.00000000000E+00 -0.67894330187E+02  0.67906207165E+02  0.12700000000E+01 0. -1.
         25    2    1    2    0    0  0.00000000000E+00  0.00000000000E+00 -0.10370012150E+02  0.12544454278E+03  0.12501518373E+03 0.  0.
    9000005    1    3    3    0    0  0.32964727820E+02  0.47923173472E+02 -0.28130443375E+02  0.64619081395E+02  0.10000000000E+01 0.  0.
    9000005    1    3    3    0    0 -0.32964727820E+02 -0.47923173472E+02  0.17760431225E+02  0.60825461389E+02  0.10000000000E+01 0.  0.
<mgrwt>
<rscale>  0 0.12501518E+03</rscale>
<asrwt>0</asrwt>
<pdfrwt beam="2">  1        4 0.10447273E-01 0.12501518E+03</pdfrwt>
<pdfrwt beam="1">  1       -4 0.88518870E-02 0.12501518E+03</pdfrwt>
<totfact> 0.10439605E+04</totfact>
</mgrwt>
</event>
<event>
 5    1  0.3267085E-002  0.1249943E+03  0.7818608E-02  0.1235078E+00
          4   -1    0    0  501    0  0.00000000000E+00  0.00000000000E+00  0.11450650907E+03  0.11451355168E+03  0.12700000000E+01 0.  1.
         -4   -1    0    0    0  501 -0.00000000000E+00 -0.00000000000E+00 -0.34090744230E+02  0.34114392009E+02  0.12700000000E+01 0.  1.
         25    2    1    2    0    0  0.00000000000E+00  0.00000000000E+00  0.80415764837E+02  0.14862794369E+03  0.12499428151E+03 0.  0.
    9000005    1    3    3    0    0 -0.11326201734E+02  0.50798915107E+01 -0.32615783366E+02  0.34912425697E+02  0.10000000000E+01 0.  0.
    9000005    1    3    3    0    0  0.11326201734E+02 -0.50798915107E+01  0.11303154820E+03  0.11371551799E+03  0.10000000000E+01 0.  0.
<mgrwt>
<rscale>  0 0.12499428E+03</rscale>
<asrwt>0</asrwt>
<pdfrwt beam="1">  1        4 0.17618747E-01 0.12499428E+03</pdfrwt>
<pdfrwt beam="2">  1       -4 0.52470907E-02 0.12499428E+03</pdfrwt>
<totfact> 0.99590721E+03</totfact>
</mgrwt>
</event>
<event>
 5    1  0.3267085E-002  0.1249994E+03  0.7818608E-02  0.1235070E+00
         -4   -1    0    0    0  501 -0.00000000000E+00  0.00000000000E+00  0.25067401420E+03  0.25067723131E+03  0.12700000000E+01 0.  1.
          4   -1    0    0  501    0  0.00000000000E+00 -0.00000000000E+00 -0.15553649685E+02  0.15605413116E+02  0.12700000000E+01 0.  1.
         25    2    1    2    0    0  0.00000000000E+00  0.00000000000E+00  0.23512036452E+03  0.26628264442E+03  0.12499944364E+03 0.  0.
    9000005    1    3    3    0    0 -0.26417889198E+02 -0.55919377812E+02  0.13665358098E+03  0.15000027627E+03  0.10000000000E+01 0.  0.
    9000005    1    3    3    0    0  0.26417889198E+02  0.55919377812E+02  0.98466783535E+02  0.11628236816E+03  0.10000000000E+01 0.  0.
<mgrwt>
<rscale>  0 0.12499944E+03</rscale>
<asrwt>0</asrwt>
<pdfrwt beam="2">  1        4 0.23970986E-02 0.12499944E+03</pdfrwt>
<pdfrwt beam="1">  1       -4 0.38569460E-01 0.12499944E+03</pdfrwt>
<totfact> 0.80033377E+03</totfact>
</mgrwt>
</event>
<event>
 5    1  0.3267085E-002  0.1250059E+03  0.7818608E-02  0.1235060E+00
         -4   -1    0    0    0  501 -0.00000000000E+00  0.00000000000E+00  0.18704185673E+02  0.18747252110E+02  0.12700000000E+01 0. -1.
          4   -1    0    0  501    0  0.00000000000E+00 -0.00000000000E+00 -0.20857821990E+03  0.20858208628E+03  0.12700000000E+01 0. -1.
         25    2    1    2    0    0  0.00000000000E+00  0.00000000000E+00 -0.18987403423E+03  0.22732933839E+03  0.12500591674E+03 0.  0.
    9000005    1    3    3    0    0  0.48458170096E+02  0.32828874264E+02 -0.55107457072E+02  0.80397518988E+02  0.10000000000E+01 0.  0.
    9000005    1    3    3    0    0 -0.48458170096E+02 -0.32828874264E+02 -0.13476657715E+03  0.14693181940E+03  0.10000000000E+01 0.  0.
<mgrwt>
<rscale>  0 0.12500592E+03</rscale>
<asrwt>0</asrwt>
<pdfrwt beam="2">  1        4 0.32092565E-01 0.12500592E+03</pdfrwt>
<pdfrwt beam="1">  1       -4 0.28811774E-02 0.12500592E+03</pdfrwt>
<totfact> 0.85710056E+03</totfact>
</mgrwt>
</event>
<event>
 5    1  0.3267085E-002  0.1249933E+03  0.7818608E-02  0.1235080E+00
          4   -1    0    0  501    0  0.00000000000E+00  0.00000000000E+00  0.36169509478E+03  0.36169732441E+03  0.12700000000E+01 0. -1.
         -4   -1    0    0    0  501 -0.00000000000E+00 -0.00000000000E+00 -0.10759078435E+02  0.10833774447E+02  0.12700000000E+01 0. -1.
         25    2    1    2    0    0  0.00000000000E+00  0.00000000000E+00  0.35093601635E+03  0.37253109886E+03  0.12499332802E+03 0.  0.
    9000005    1    3    3    0    0 -0.49282544429E+02  0.87343165682E+01  0.28697571953E+03  0.29130932198E+03  0.10000000000E+01 0.  0.
    9000005    1    3    3    0    0  0.49282544429E+02 -0.87343165682E+01  0.63960296815E+02  0.81221776883E+02  0.10000000000E+01 0.  0.
<mgrwt>
<rscale>  0 0.12499333E+03</rscale>
<asrwt>0</asrwt>
<pdfrwt beam="1">  1        4 0.55651300E-01 0.12499333E+03</pdfrwt>
<pdfrwt beam="2">  1       -4 0.16611607E-02 0.12499333E+03</pdfrwt>
<totfact> 0.67324903E+03</totfact>
</mgrwt>
</event>
<event>
 5    1  0.3267085E-002  0.1249997E+03  0.7818608E-02  0.1235070E+00
          4   -1    0    0  501    0  0.00000000000E+00  0.00000000000E+00  0.60576389723E+02  0.60589701203E+02  0.12700000000E+01 0. -1.
         -4   -1    0    0    0  501 -0.00000000000E+00 -0.00000000000E+00 -0.64457740619E+02  0.64470250703E+02  0.12700000000E+01 0. -1.
         25    2    1    2    0    0  0.00000000000E+00  0.00000000000E+00 -0.38813508965E+01  0.12505995191E+03  0.12499970674E+03 0.  0.
    9000005    1    3    3    0    0 -0.35292916062E+02  0.51127598051E+02 -0.86974824230E+01  0.62739679686E+02  0.10000000000E+01 0.  0.
    9000005    1    3    3    0    0  0.35292916062E+02 -0.51127598051E+02  0.48161315265E+01  0.62320272220E+02  0.10000000000E+01 0.  0.
<mgrwt>
<rscale>  0 0.12499971E+03</rscale>
<asrwt>0</asrwt>
<pdfrwt beam="1">  1        4 0.93214309E-02 0.12499971E+03</pdfrwt>
<pdfrwt beam="2">  1       -4 0.99185617E-02 0.12499971E+03</pdfrwt>
<totfact> 0.10451630E+04</totfact>
</mgrwt>
</event>
<event>
 5    1  0.3267085E-002  0.1249998E+03  0.7818608E-02  0.1235070E+00
         -4   -1    0    0    0  501 -0.00000000000E+00  0.00000000000E+00  0.19887041742E+03  0.19887447253E+03  0.12700000000E+01 0. -1.
          4   -1    0    0  501    0  0.00000000000E+00 -0.00000000000E+00 -0.19617334327E+02  0.19658400395E+02  0.12700000000E+01 0. -1.
         25    2    1    2    0    0  0.00000000000E+00  0.00000000000E+00  0.17925308309E+03  0.21853287292E+03  0.12499979500E+03 0.  0.
    9000005    1    3    3    0    0 -0.31146256993E+01  0.35360297209E+02 -0.28916381772E+00  0.35512464399E+02  0.10000000000E+01 0.  0.
    9000005    1    3    3    0    0  0.31146256993E+01 -0.35360297209E+02  0.17954224691E+03  0.18302040852E+03  0.10000000000E+01 0.  0.
<mgrwt>
<rscale>  0 0.12499980E+03</rscale>
<asrwt>0</asrwt>
<pdfrwt beam="2">  1        4 0.30215223E-02 0.12499980E+03</pdfrwt>
<pdfrwt beam="1">  1       -4 0.30598920E-01 0.12499980E+03</pdfrwt>
<totfact> 0.87101435E+03</totfact>
</mgrwt>
</event>
<event>
 5    1  0.3267085E-002  0.1250002E+03  0.7818608E-02  0.1235069E+00
         -4   -1    0    0    0  501 -0.00000000000E+00  0.00000000000E+00  0.11388382152E+03  0.11389090264E+03  0.12700000000E+01 0.  1.
          4   -1    0    0  501    0  0.00000000000E+00 -0.00000000000E+00 -0.34280493515E+02  0.34304010489E+02  0.12700000000E+01 0.  1.
         25    2    1    2    0    0  0.00000000000E+00  0.00000000000E+00  0.79603328009E+02  0.14819491313E+03  0.12500016979E+03 0.  0.
    9000005    1    3    3    0    0  0.16362631891E+02 -0.39700425676E+02  0.93629131125E+02  0.10301103687E+03  0.10000000000E+01 0.  0.
    9000005    1    3    3    0    0 -0.16362631891E+02  0.39700425676E+02 -0.14025803116E+02  0.45183876265E+02  0.10000000000E+01 0.  0.
<mgrwt>
<rscale>  0 0.12500017E+03</rscale>
<asrwt>0</asrwt>
<pdfrwt beam="2">  1        4 0.52762758E-02 0.12500017E+03</pdfrwt>
<pdfrwt beam="1">  1       -4 0.17522942E-01 0.12500017E+03</pdfrwt>
<totfact> 0.99664358E+03</totfact>
</mgrwt>
</event>
<event>
 5    1  0.3267085E-002  0.1249981E+03  0.7818608E-02  0.1235072E+00
         -4   -1    0    0    0  501 -0.00000000000E+00  0.00000000000E+00  0.69952388457E+02  0.69963916062E+02  0.12700000000E+01 0.  1.
          4   -1    0    0  501    0  0.00000000000E+00 -0.00000000000E+00 -0.55816530930E+02  0.55830977289E+02  0.12700000000E+01 0.  1.
         25    2    1    2    0    0  0.00000000000E+00  0.00000000000E+00  0.14135857527E+02  0.12579489335E+03  0.12499813089E+03 0.  0.
    9000005    1    3    3    0    0  0.41420891447E+02 -0.90703932126E+01 -0.39128603052E+02  0.57706237601E+02  0.10000000000E+01 0.  0.
    9000005    1    3    3    0    0 -0.41420891447E+02  0.90703932126E+01  0.53264460578E+02  0.68088655751E+02  0.10000000000E+01 0.  0.
<mgrwt>
<rscale>  0 0.12499813E+03</rscale>
<asrwt>0</asrwt>
<pdfrwt beam="2">  1        4 0.85891566E-02 0.12499813E+03</pdfrwt>
<pdfrwt beam="1">  1       -4 0.10763904E-01 0.12499813E+03</pdfrwt>
<totfact> 0.10435898E+04</totfact>
</mgrwt>
</event>
<event>
 5    1  0.3267085E-002  0.1249997E+03  0.7818608E-02  0.1235070E+00
          4   -1    0    0  501    0  0.00000000000E+00  0.00000000000E+00  0.20557233749E+02  0.20596425890E+02  0.12700000000E+01 0.  1.
         -4   -1    0    0    0  501 -0.00000000000E+00 -0.00000000000E+00 -0.18979513315E+03  0.18979938216E+03  0.12700000000E+01 0.  1.
         25    2    1    2    0    0  0.00000000000E+00  0.00000000000E+00 -0.16923789940E+03  0.21039580805E+03  0.12499971780E+03 0.  0.
    9000005    1    3    3    0    0 -0.42021244478E+02 -0.26847363143E+02 -0.21222023467E+02  0.54202769074E+02  0.10000000000E+01 0.  0.
    9000005    1    3    3    0    0  0.42021244478E+02  0.26847363143E+02 -0.14801587594E+03  0.15619303898E+03  0.10000000000E+01 0.  0.
<mgrwt>
<rscale>  0 0.12499972E+03</rscale>
<asrwt>0</asrwt>
<pdfrwt beam="1">  1        4 0.31659931E-02 0.12499972E+03</pdfrwt>
<pdfrwt beam="2">  1       -4 0.29202592E-01 0.12499972E+03</pdfrwt>
<totfact> 0.88411839E+03</totfact>
</mgrwt>
</event>
<event>
 5    1  0.3267085E-002  0.1249980E+03  0.7818608E-02  0.1235072E+00
         -4   -1    0    0    0  501 -0.00000000000E+00  0.00000000000E+00  0.30487702259E+02  0.30514142443E+02  0.12700000000E+01 0.  1.
          4   -1    0    0  501    0  0.00000000000E+00 -0.00000000000E+00 -0.12803627750E+03  0.12804257595E+03  0.12700000000E+01 0.  1.
         25    2    1    2    0    0  0.00000000000E+00  0.00000000000E+00 -0.97548575237E+02  0.15855671839E+03  0.12499803365E+03 0.  0.
    9000005    1    3    3    0    0  0.42709740328E+02  0.42420811391E+02 -0.70055932748E+02  0.92371428868E+02  0.10000000000E+01 0.  0.
    9000005    1    3    3    0    0 -0.42709740328E+02 -0.42420811391E+02 -0.27492642490E+02  0.66185289522E+02  0.10000000000E+01 0.  0.
<mgrwt>
<rscale>  0 0.12499803E+03</rscale>
<asrwt>0</asrwt>
<pdfrwt beam="2">  1        4 0.19700407E-01 0.12499803E+03</pdfrwt>
<pdfrwt beam="1">  1       -4 0.46929341E-02 0.12499803E+03</pdfrwt>
<totfact> 0.97626077E+03</totfact>
</mgrwt>
</event>
<event>
 5    1  0.3267085E-002  0.1249989E+03  0.7818608E-02  0.1235071E+00
          4   -1    0    0  501    0  0.00000000000E+00  0.00000000000E+00  0.85216080613E+01  0.86157242267E+01  0.12700000000E+01 0. -1.
         -4   -1    0    0    0  501 -0.00000000000E+00 -0.00000000000E+00 -0.45577318811E+03  0.45577495751E+03  0.12700000000E+01 0. -1.
         25    2    1    2    0    0  0.00000000000E+00  0.00000000000E+00 -0.44725158004E+03  0.46439068174E+03  0.12499891773E+03 0.  0.
    9000005    1    3    3    0    0 -0.50982788655E+02 -0.56955981607E+01 -0.35620527887E+03  0.35988176569E+03  0.10000000000E+01 0.  0.
    9000005    1    3    3    0    0  0.50982788655E+02  0.56955981607E+01 -0.91046301173E+02  0.10450891605E+03  0.10000000000E+01 0.  0.
<mgrwt>
<rscale>  0 0.12499892E+03</rscale>
<asrwt>0</asrwt>
<pdfrwt beam="1">  1        4 0.13183928E-02 0.12499892E+03</pdfrwt>
<pdfrwt beam="2">  1       -4 0.70126309E-01 0.12499892E+03</pdfrwt>
<totfact> 0.58738501E+03</totfact>
</mgrwt>
</event>
<event>
 5    1  0.3267085E-002  0.1249989E+03  0.7818608E-02  0.1235071E+00
         -4   -1    0    0    0  501 -0.00000000000E+00  0.00000000000E+00  0.56613428974E+02  0.56627672036E+02  0.12700000000E+01 0.  1.
          4   -1    0    0  501    0  0.00000000000E+00 -0.00000000000E+00 -0.68968702385E+02  0.68980394379E+02  0.12700000000E+01 0.  1.
         25    2    1    2    0    0  0.00000000000E+00  0.00000000000E+00 -0.12355273411E+02  0.12560806642E+03  0.12499893427E+03 0.  0.
    9000005    1    3    3    0    0 -0.87835982816E+01 -0.59681137118E+02 -0.22572586013E+02  0.64416700985E+02  0.10000000000E+01 0.  0.
    9000005    1    3    3    0    0  0.87835982816E+01  0.59681137118E+02  0.10217312602E+02  0.61191365431E+02  0.10000000000E+01 0.  0.
<mgrwt>
<rscale>  0 0.12499893E+03</rscale>
<asrwt>0</asrwt>
<pdfrwt beam="2">  1        4 0.10612565E-01 0.12499893E+03</pdfrwt>
<pdfrwt beam="1">  1       -4 0.87117534E-02 0.12499893E+03</pdfrwt>
<totfact> 0.10439820E+04</totfact>
</mgrwt>
</event>
<event>
 5    1  0.3267085E-002  0.1249799E+03  0.7818608E-02  0.1235101E+00
          4   -1    0    0  501    0  0.00000000000E+00  0.00000000000E+00  0.54635887146E+02  0.54650645598E+02  0.12700000000E+01 0. -1.
         -4   -1    0    0    0  501 -0.00000000000E+00 -0.00000000000E+00 -0.71442998086E+02  0.71454285214E+02  0.12700000000E+01 0. -1.
         25    2    1    2    0    0  0.00000000000E+00  0.00000000000E+00 -0.16807110940E+02  0.12610493081E+03  0.12497989677E+03 0.  0.
    9000005    1    3    3    0    0  0.47368262865E+02 -0.40729462469E+02 -0.95768684843E+01  0.63208843130E+02  0.10000000000E+01 0.  0.
    9000005    1    3    3    0    0 -0.47368262865E+02  0.40729462469E+02 -0.72302424553E+01  0.62896087683E+02  0.10000000000E+01 0.  0.
<mgrwt>
<rscale>  0 0.12497990E+03</rscale>
<asrwt>0</asrwt>
<pdfrwt beam="1">  1        4 0.84075245E-02 0.12497990E+03</pdfrwt>
<pdfrwt beam="2">  1       -4 0.10993234E-01 0.12497990E+03</pdfrwt>
<totfact> 0.10433392E+04</totfact>
</mgrwt>
</event>
<event>
 5    1  0.3267085E-002  0.1249976E+03  0.7818608E-02  0.1235073E+00
          4   -1    0    0  501    0  0.00000000000E+00  0.00000000000E+00  0.33288372557E+01  0.35628720823E+01  0.12700000000E+01 0.  1.
         -4   -1    0    0    0  501 -0.00000000000E+00 -0.00000000000E+00 -0.11333309830E+04  0.11333316945E+04  0.12700000000E+01 0.  1.
         25    2    1    2    0    0  0.00000000000E+00  0.00000000000E+00 -0.11300021457E+04  0.11368945666E+04  0.12499762521E+03 0.  0.
    9000005    1    3    3    0    0 -0.34550513272E+02  0.42974293121E+01 -0.93016073410E+02  0.99323691930E+02  0.10000000000E+01 0.  0.
    9000005    1    3    3    0    0  0.34550513272E+02 -0.42974293121E+01 -0.10369860723E+04  0.10375708747E+04  0.10000000000E+01 0.  0.
<mgrwt>
<rscale>  0 0.12499763E+03</rscale>
<asrwt>0</asrwt>
<pdfrwt beam="1">  1        4 0.53018713E-03 0.12499763E+03</pdfrwt>
<pdfrwt beam="2">  1       -4 0.17437637E+00 0.12499763E+03</pdfrwt>
<totfact> 0.26428099E+03</totfact>
</mgrwt>
</event>
<event>
 5    1  0.3267085E-002  0.1250001E+03  0.7818608E-02  0.1235069E+00
         -4   -1    0    0    0  501 -0.00000000000E+00  0.00000000000E+00  0.30272415186E+02  0.30299043239E+02  0.12700000000E+01 0.  1.
          4   -1    0    0  501    0  0.00000000000E+00 -0.00000000000E+00 -0.12895027155E+03  0.12895652536E+03  0.12700000000E+01 0.  1.
         25    2    1    2    0    0  0.00000000000E+00  0.00000000000E+00 -0.98677856368E+02  0.15925556860E+03  0.12500006717E+03 0.  0.
    9000005    1    3    3    0    0 -0.32963146181E+01 -0.78750456795E+01  0.29532230157E+02  0.30757676319E+02  0.10000000000E+01 0.  0.
    9000005    1    3    3    0    0  0.32963146181E+01  0.78750456795E+01 -0.12821008652E+03  0.12849789228E+03  0.10000000000E+01 0.  0.
<mgrwt>
<rscale>  0 0.12500007E+03</rscale>
<asrwt>0</asrwt>
<pdfrwt beam="2">  1        4 0.19841032E-01 0.12500007E+03</pdfrwt>
<pdfrwt beam="1">  1       -4 0.46598241E-02 0.12500007E+03</pdfrwt>
<totfact> 0.97486350E+03</totfact>
</mgrwt>
</event>
<event>
 5    1  0.3267085E-002  0.1250029E+03  0.7818608E-02  0.1235065E+00
         -4   -1    0    0    0  501 -0.00000000000E+00  0.00000000000E+00  0.87898246541E+01  0.88810988875E+01  0.12700000000E+01 0.  1.
          4   -1    0    0  501    0  0.00000000000E+00 -0.00000000000E+00 -0.44203885153E+03  0.44204067592E+03  0.12700000000E+01 0.  1.
         25    2    1    2    0    0  0.00000000000E+00  0.00000000000E+00 -0.43324902688E+03  0.45092177480E+03  0.12500291077E+03 0.  0.
    9000005    1    3    3    0    0  0.12142138509E+02 -0.32703025319E+02 -0.29583384812E+02  0.45750366660E+02  0.10000000000E+01 0.  0.
    9000005    1    3    3    0    0 -0.12142138509E+02  0.32703025319E+02 -0.40366564207E+03  0.40517140814E+03  0.10000000000E+01 0.  0.
<mgrwt>
<rscale>  0 0.12500291E+03</rscale>
<asrwt>0</asrwt>
<pdfrwt beam="2">  1        4 0.68013121E-01 0.12500291E+03</pdfrwt>
<pdfrwt beam="1">  1       -4 0.13594425E-02 0.12500291E+03</pdfrwt>
<totfact> 0.59880193E+03</totfact>
</mgrwt>
</event>
<event>
 5    1  0.3267085E-002  0.1249990E+03  0.7818608E-02  0.1235071E+00
          4   -1    0    0  501    0  0.00000000000E+00  0.00000000000E+00  0.49281612369E+02  0.49297973768E+02  0.12700000000E+01 0. -1.
         -4   -1    0    0    0  501 -0.00000000000E+00 -0.00000000000E+00 -0.79227906314E+02  0.79238084523E+02  0.12700000000E+01 0. -1.
         25    2    1    2    0    0  0.00000000000E+00  0.00000000000E+00 -0.29946293945E+02  0.12853605829E+03  0.12499895104E+03 0.  0.
    9000005    1    3    3    0    0  0.59095833583E+02 -0.19580908279E+02 -0.93923327768E+01  0.62967812657E+02  0.10000000000E+01 0.  0.
    9000005    1    3    3    0    0 -0.59095833583E+02  0.19580908279E+02 -0.20553961168E+02  0.65568245634E+02  0.10000000000E+01 0.  0.
<mgrwt>
<rscale>  0 0.12499895E+03</rscale>
<asrwt>0</asrwt>
<pdfrwt beam="1">  1        4 0.75838280E-02 0.12499895E+03</pdfrwt>
<pdfrwt beam="2">  1       -4 0.12190950E-01 0.12499895E+03</pdfrwt>
<totfact> 0.10376173E+04</totfact>
</mgrwt>
</event>
<event>
 5    1  0.3267085E-002  0.1249392E+03  0.7818608E-02  0.1235164E+00
          4   -1    0    0  501    0  0.00000000000E+00  0.00000000000E+00  0.36382841388E+02  0.36405000309E+02  0.12700000000E+01 0. -1.
         -4   -1    0    0    0  501 -0.00000000000E+00 -0.00000000000E+00 -0.10720222219E+03  0.10720974462E+03  0.12700000000E+01 0. -1.
         25    2    1    2    0    0  0.00000000000E+00  0.00000000000E+00 -0.70819380800E+02  0.14361474493E+03  0.12493922629E+03 0.  0.
    9000005    1    3    3    0    0  0.49928232787E+02 -0.28954870689E+02 -0.79605400567E+01  0.58271632583E+02  0.10000000000E+01 0.  0.
    9000005    1    3    3    0    0 -0.49928232787E+02  0.28954870689E+02 -0.62858840743E+02  0.85343112349E+02  0.10000000000E+01 0.  0.
<mgrwt>
<rscale>  0 0.12493923E+03</rscale>
<asrwt>0</asrwt>
<pdfrwt beam="1">  1        4 0.55996434E-02 0.12493923E+03</pdfrwt>
<pdfrwt beam="2">  1       -4 0.16494933E-01 0.12493923E+03</pdfrwt>
<totfact> 0.10072990E+04</totfact>
</mgrwt>
</event>
<event>
 5    1  0.3267085E-002  0.1250034E+03  0.7818608E-02  0.1235064E+00
         -4   -1    0    0    0  501 -0.00000000000E+00  0.00000000000E+00  0.12069924634E+03  0.12070592764E+03  0.12700000000E+01 0. -1.
          4   -1    0    0  501    0  0.00000000000E+00 -0.00000000000E+00 -0.32345216453E+02  0.32370139441E+02  0.12700000000E+01 0. -1.
         25    2    1    2    0    0  0.00000000000E+00  0.00000000000E+00  0.88354029887E+02  0.15307606708E+03  0.12500339081E+03 0.  0.
    9000005    1    3    3    0    0 -0.24078506525E+01 -0.11919789285E+02  0.11924241126E+03  0.11986505648E+03  0.10000000000E+01 0.  0.
    9000005    1    3    3    0    0  0.24078506525E+01  0.11919789285E+02 -0.30888381373E+02  0.33211010602E+02  0.10000000000E+01 0.  0.
<mgrwt>
<rscale>  0 0.12500339E+03</rscale>
<asrwt>0</asrwt>
<pdfrwt beam="2">  1        4 0.49786182E-02 0.12500339E+03</pdfrwt>
<pdfrwt beam="1">  1       -4 0.18571546E-01 0.12500339E+03</pdfrwt>
<totfact> 0.98686498E+03</totfact>
</mgrwt>
</event>
<event>
 5    1  0.3267085E-002  0.1249979E+03  0.7818608E-02  0.1235073E+00
          4   -1    0    0  501    0  0.00000000000E+00  0.00000000000E+00  0.86655725257E+02  0.86665031124E+02  0.12700000000E+01 0.  1.
         -4   -1    0    0    0  501 -0.00000000000E+00 -0.00000000000E+00 -0.45055619427E+02  0.45073514862E+02  0.12700000000E+01 0.  1.
         25    2    1    2    0    0  0.00000000000E+00  0.00000000000E+00  0.41600105829E+02  0.13173854599E+03  0.12499790276E+03 0.  0.
    9000005    1    3    3    0    0  0.38809762130E+02 -0.21100768068E+02  0.67384047810E+02  0.80579463568E+02  0.10000000000E+01 0.  0.
    9000005    1    3    3    0    0 -0.38809762130E+02  0.21100768068E+02 -0.25783941981E+02  0.51159082417E+02  0.10000000000E+01 0.  0.
<mgrwt>
<rscale>  0 0.12499790E+03</rscale>
<asrwt>0</asrwt>
<pdfrwt beam="1">  1        4 0.13333742E-01 0.12499790E+03</pdfrwt>
<pdfrwt beam="2">  1       -4 0.69337262E-02 0.12499790E+03</pdfrwt>
<totfact> 0.10307770E+04</totfact>
</mgrwt>
</event>
<event>
 5    1  0.3267085E-002  0.1249997E+03  0.7818608E-02  0.1235070E+00
          4   -1    0    0  501    0  0.00000000000E+00  0.00000000000E+00  0.70599110460E+01  0.71732310695E+01  0.12700000000E+01 0. -1.
         -4   -1    0    0    0  501 -0.00000000000E+00 -0.00000000000E+00 -0.54877845014E+03  0.54877991968E+03  0.12700000000E+01 0. -1.
         25    2    1    2    0    0  0.00000000000E+00  0.00000000000E+00 -0.54171853910E+03  0.55595315075E+03  0.12499972090E+03 0.  0.
    9000005    1    3    3    0    0 -0.39878601455E+02 -0.38987773107E+01 -0.57570737190E+02  0.70149077679E+02  0.10000000000E+01 0.  0.
    9000005    1    3    3    0    0  0.39878601455E+02  0.38987773107E+01 -0.48414780191E+03  0.48580407307E+03  0.10000000000E+01 0.  0.
<mgrwt>
<rscale>  0 0.12499972E+03</rscale>
<asrwt>0</asrwt>
<pdfrwt beam="1">  1        4 0.10949706E-02 0.12499972E+03</pdfrwt>
<pdfrwt beam="2">  1       -4 0.84436251E-01 0.12499972E+03</pdfrwt>
<totfact> 0.51771827E+03</totfact>
</mgrwt>
</event>
<event>
 5    1  0.3267085E-002  0.1250018E+03  0.7818608E-02  0.1235067E+00
         -4   -1    0    0    0  501 -0.00000000000E+00  0.00000000000E+00  0.96975638019E+03  0.96975721179E+03  0.12700000000E+01 0. -1.
          4   -1    0    0  501    0  0.00000000000E+00 -0.00000000000E+00 -0.39272331587E+01  0.41274762608E+01  0.12700000000E+01 0. -1.
         25    2    1    2    0    0  0.00000000000E+00  0.00000000000E+00  0.96582914703E+03  0.97388468805E+03  0.12500177745E+03 0.  0.
    9000005    1    3    3    0    0  0.30144876439E+02  0.52119948470E+02  0.35250987451E+03  0.35761629469E+03  0.10000000000E+01 0.  0.
    9000005    1    3    3    0    0 -0.30144876439E+02 -0.52119948470E+02  0.61331927252E+03  0.61626839336E+03  0.10000000000E+01 0.  0.
<mgrwt>
<rscale>  0 0.12500178E+03</rscale>
<asrwt>0</asrwt>
<pdfrwt beam="2">  1        4 0.61965613E-03 0.12500178E+03</pdfrwt>
<pdfrwt beam="1">  1       -4 0.14920897E+00 0.12500178E+03</pdfrwt>
<totfact> 0.31481593E+03</totfact>
</mgrwt>
</event>
<event>
 5    1  0.3267085E-002  0.1249983E+03  0.7818608E-02  0.1235072E+00
          4   -1    0    0  501    0  0.00000000000E+00  0.00000000000E+00  0.19404196952E+03  0.19404612554E+03  0.12700000000E+01 0. -1.
         -4   -1    0    0    0  501 -0.00000000000E+00 -0.00000000000E+00 -0.20106015287E+02  0.20146085246E+02  0.12700000000E+01 0. -1.
         25    2    1    2    0    0  0.00000000000E+00  0.00000000000E+00  0.17393595424E+03  0.21419221078E+03  0.12499834793E+03 0.  0.
    9000005    1    3    3    0    0  0.41944884950E+02 -0.45753714363E+02  0.74567316803E+02  0.97026081477E+02  0.10000000000E+01 0.  0.
    9000005    1    3    3    0    0 -0.41944884950E+02  0.45753714363E+02  0.99368637434E+02  0.11716612931E+03  0.10000000000E+01 0.  0.
<mgrwt>
<rscale>  0 0.12499835E+03</rscale>
<asrwt>0</asrwt>
<pdfrwt beam="1">  1        4 0.29856014E-01 0.12499835E+03</pdfrwt>
<pdfrwt beam="2">  1       -4 0.30966350E-02 0.12499835E+03</pdfrwt>
<totfact> 0.87799022E+03</totfact>
</mgrwt>
</event>
<event>
 5    1  0.3267085E-002  0.1249990E+03  0.7818608E-02  0.1235071E+00
          4   -1    0    0  501    0  0.00000000000E+00  0.00000000000E+00  0.60831061053E+03  0.60831193625E+03  0.12700000000E+01 0. -1.
         -4   -1    0    0    0  501 -0.00000000000E+00 -0.00000000000E+00 -0.63572280293E+01  0.64828426031E+01  0.12700000000E+01 0. -1.
         25    2    1    2    0    0  0.00000000000E+00  0.00000000000E+00  0.60195338250E+03  0.61479477886E+03  0.12499898160E+03 0.  0.
    9000005    1    3    3    0    0 -0.57780709077E+02 -0.13066605315E+02  0.20312159603E+03  0.21158622188E+03  0.10000000000E+01 0.  0.
    9000005    1    3    3    0    0  0.57780709077E+02  0.13066605315E+02  0.39883178648E+03  0.40320855698E+03  0.10000000000E+01 0.  0.
<mgrwt>
<rscale>  0 0.12499898E+03</rscale>
<asrwt>0</asrwt>
<pdfrwt beam="1">  1        4 0.93596051E-01 0.12499898E+03</pdfrwt>
<pdfrwt beam="2">  1       -4 0.98779931E-03 0.12499898E+03</pdfrwt>
<totfact> 0.47947897E+03</totfact>
</mgrwt>
</event>
<event>
 5    1  0.3267085E-002  0.1250004E+03  0.7818608E-02  0.1235069E+00
         -4   -1    0    0    0  501 -0.00000000000E+00  0.00000000000E+00  0.12600268797E+02  0.12664109670E+02  0.12700000000E+01 0.  1.
          4   -1    0    0  501    0  0.00000000000E+00 -0.00000000000E+00 -0.30916657189E+03  0.30916918034E+03  0.12700000000E+01 0.  1.
         25    2    1    2    0    0  0.00000000000E+00  0.00000000000E+00 -0.29656630309E+03  0.32183329001E+03  0.12500037772E+03 0.  0.
    9000005    1    3    3    0    0  0.20535074582E+02 -0.69598728324E+01  0.26178576185E+01  0.21862806234E+02  0.10000000000E+01 0.  0.
    9000005    1    3    3    0    0 -0.20535074582E+02  0.69598728324E+01 -0.29918416071E+03  0.29997048378E+03  0.10000000000E+01 0.  0.
<mgrwt>
<rscale>  0 0.12500038E+03</rscale>
<asrwt>0</asrwt>
<pdfrwt beam="2">  1        4 0.47569194E-01 0.12500038E+03</pdfrwt>
<pdfrwt beam="1">  1       -4 0.19436146E-02 0.12500038E+03</pdfrwt>
<totfact> 0.72938001E+03</totfact>
</mgrwt>
</event>
<event>
 5    1  0.3267085E-002  0.1250295E+03  0.7818608E-02  0.1235023E+00
         -4   -1    0    0    0  501 -0.00000000000E+00  0.00000000000E+00  0.18545805100E+04  0.18545809448E+04  0.12700000000E+01 0.  1.
          4   -1    0    0  501    0  0.00000000000E+00 -0.00000000000E+00 -0.19154429744E+01  0.22982214402E+01  0.12700000000E+01 0.  1.
         25    2    1    2    0    0  0.00000000000E+00  0.00000000000E+00  0.18526650670E+04  0.18568791663E+04  0.12502954689E+03 0.  0.
    9000005    1    3    3    0    0  0.52142935824E+02  0.22077228793E+02  0.13194933573E+04  0.13207081471E+04  0.10000000000E+01 0.  0.
    9000005    1    3    3    0    0 -0.52142935824E+02 -0.22077228793E+02  0.53317170968E+03  0.53617101917E+03  0.10000000000E+01 0.  0.
<mgrwt>
<rscale>  0 0.12502955E+03</rscale>
<asrwt>0</asrwt>
<pdfrwt beam="2">  1        4 0.32416160E-03 0.12502955E+03</pdfrwt>
<pdfrwt beam="1">  1       -4 0.28534945E+00 0.12502955E+03</pdfrwt>
<totfact> 0.11839456E+03</totfact>
</mgrwt>
</event>
<event>
 5    1  0.3267085E-002  0.1249988E+03  0.7818608E-02  0.1235071E+00
         -4   -1    0    0    0  501 -0.00000000000E+00  0.00000000000E+00  0.18556454892E+03  0.18556889480E+03  0.12700000000E+01 0. -1.
          4   -1    0    0  501    0  0.00000000000E+00 -0.00000000000E+00 -0.21026482455E+02  0.21064801552E+02  0.12700000000E+01 0. -1.
         25    2    1    2    0    0  0.00000000000E+00  0.00000000000E+00  0.16453806647E+03  0.20663369635E+03  0.12499883660E+03 0.  0.
    9000005    1    3    3    0    0  0.35865041434E+02  0.73190571708E+01 -0.14578430192E+01  0.36646897566E+02  0.10000000000E+01 0.  0.
    9000005    1    3    3    0    0 -0.35865041434E+02 -0.73190571708E+01  0.16599590949E+03  0.16998679878E+03  0.10000000000E+01 0.  0.
<mgrwt>
<rscale>  0 0.12499884E+03</rscale>
<asrwt>0</asrwt>
<pdfrwt beam="2">  1        4 0.32381253E-02 0.12499884E+03</pdfrwt>
<pdfrwt beam="1">  1       -4 0.28551675E-01 0.12499884E+03</pdfrwt>
<totfact> 0.89030925E+03</totfact>
</mgrwt>
</event>
<event>
 5    1  0.3267085E-002  0.1249996E+03  0.7818608E-02  0.1235070E+00
         -4   -1    0    0    0  501 -0.00000000000E+00  0.00000000000E+00  0.21572049457E+03  0.21572423294E+03  0.12700000000E+01 0.  1.
          4   -1    0    0  501    0  0.00000000000E+00 -0.00000000000E+00 -0.18081649580E+02  0.18126195175E+02  0.12700000000E+01 0.  1.
         25    2    1    2    0    0  0.00000000000E+00  0.00000000000E+00  0.19763884499E+03  0.23385042811E+03  0.12499963872E+03 0.  0.
    9000005    1    3    3    0    0 -0.55083383459E+02 -0.24498166852E+02  0.68028380841E+02  0.90902144707E+02  0.10000000000E+01 0.  0.
    9000005    1    3    3    0    0  0.55083383459E+02  0.24498166852E+02  0.12961046414E+03  0.14294828340E+03  0.10000000000E+01 0.  0.
<mgrwt>
<rscale>  0 0.12499964E+03</rscale>
<asrwt>0</asrwt>
<pdfrwt beam="2">  1        4 0.27855065E-02 0.12499964E+03</pdfrwt>
<pdfrwt beam="1">  1       -4 0.33191481E-01 0.12499964E+03</pdfrwt>
<totfact> 0.84722529E+03</totfact>
</mgrwt>
</event>
<event>
 5    1  0.3267085E-002  0.1249987E+03  0.7818608E-02  0.1235071E+00
          4   -1    0    0  501    0  0.00000000000E+00  0.00000000000E+00  0.10425315754E+02  0.10502385851E+02  0.12700000000E+01 0.  1.
         -4   -1    0    0    0  501 -0.00000000000E+00 -0.00000000000E+00 -0.37322328682E+03  0.37322544759E+03  0.12700000000E+01 0.  1.
         25    2    1    2    0    0  0.00000000000E+00  0.00000000000E+00 -0.36279797107E+03  0.38372783344E+03  0.12499872937E+03 0.  0.
    9000005    1    3    3    0    0  0.56512087007E+02  0.11071559758E+01 -0.26321671423E+03  0.26921901943E+03  0.10000000000E+01 0.  0.
    9000005    1    3    3    0    0 -0.56512087007E+02 -0.11071559758E+01 -0.99581256838E+02  0.11450881401E+03  0.10000000000E+01 0.  0.
<mgrwt>
<rscale>  0 0.12499873E+03</rscale>
<asrwt>0</asrwt>
<pdfrwt beam="1">  1        4 0.16099897E-02 0.12499873E+03</pdfrwt>
<pdfrwt beam="2">  1       -4 0.57425052E-01 0.12499873E+03</pdfrwt>
<totfact> 0.66168641E+03</totfact>
</mgrwt>
</event>
<event>
 5    1  0.3267085E-002  0.1250016E+03  0.7818608E-02  0.1235067E+00
          4   -1    0    0  501    0  0.00000000000E+00  0.00000000000E+00  0.53382528544E+02  0.53397633410E+02  0.12700000000E+01 0.  1.
         -4   -1    0    0    0  501 -0.00000000000E+00 -0.00000000000E+00 -0.73145602480E+02  0.73156626919E+02  0.12700000000E+01 0.  1.
         25    2    1    2    0    0  0.00000000000E+00  0.00000000000E+00 -0.19763073936E+02  0.12655426033E+03  0.12500160685E+03 0.  0.
    9000005    1    3    3    0    0  0.13684726177E+02 -0.53045712540E+02 -0.40325479202E+02  0.68031342940E+02  0.10000000000E+01 0.  0.
    9000005    1    3    3    0    0 -0.13684726177E+02  0.53045712540E+02  0.20562405266E+02  0.58522917389E+02  0.10000000000E+01 0.  0.
<mgrwt>
<rscale>  0 0.12500161E+03</rscale>
<asrwt>0</asrwt>
<pdfrwt beam="1">  1        4 0.82147066E-02 0.12500161E+03</pdfrwt>
<pdfrwt beam="2">  1       -4 0.11255180E-01 0.12500161E+03</pdfrwt>
<totfact> 0.10418467E+04</totfact>
</mgrwt>
</event>
<event>
 5    1  0.3267085E-002  0.1249972E+03  0.7818608E-02  0.1235074E+00
          4   -1    0    0  501    0  0.00000000000E+00  0.00000000000E+00  0.30799830329E+01  0.33315455097E+01  0.12700000000E+01 0. -1.
         -4   -1    0    0    0  501 -0.00000000000E+00 -0.00000000000E+00 -0.12182025697E+04  0.12182032317E+04  0.12700000000E+01 0. -1.
         25    2    1    2    0    0  0.00000000000E+00  0.00000000000E+00 -0.12151225867E+04  0.12215347773E+04  0.12499724519E+03 0.  0.
    9000005    1    3    3    0    0 -0.71121947216E+01 -0.50350047584E+02 -0.96252850507E+03  0.96387127443E+03  0.10000000000E+01 0.  0.
    9000005    1    3    3    0    0  0.71121947216E+01  0.50350047584E+02 -0.25259408164E+03  0.25766350282E+03  0.10000000000E+01 0.  0.
<mgrwt>
<rscale>  0 0.12499725E+03</rscale>
<asrwt>0</asrwt>
<pdfrwt beam="1">  1        4 0.49324640E-03 0.12499725E+03</pdfrwt>
<pdfrwt beam="2">  1       -4 0.18743481E+00 0.12499725E+03</pdfrwt>
<totfact> 0.24157454E+03</totfact>
</mgrwt>
</event>
<event>
 5    1  0.3267085E-002  0.1249873E+03  0.7818608E-02  0.1235089E+00
          4   -1    0    0  501    0  0.00000000000E+00  0.00000000000E+00  0.12797791815E+02  0.12860652213E+02  0.12700000000E+01 0.  1.
         -4   -1    0    0    0  501 -0.00000000000E+00 -0.00000000000E+00 -0.30435479708E+03  0.30435744678E+03  0.12700000000E+01 0.  1.
         25    2    1    2    0    0  0.00000000000E+00  0.00000000000E+00 -0.29155700527E+03  0.31721809899E+03  0.12498733938E+03 0.  0.
    9000005    1    3    3    0    0  0.16059844514E+02 -0.34889921220E+02 -0.27086964813E+03  0.27358105104E+03  0.10000000000E+01 0.  0.
    9000005    1    3    3    0    0 -0.16059844514E+02  0.34889921220E+02 -0.20687357137E+02  0.43637047951E+02  0.10000000000E+01 0.  0.
<mgrwt>
<rscale>  0 0.12498734E+03</rscale>
<asrwt>0</asrwt>
<pdfrwt beam="1">  1        4 0.19739305E-02 0.12498734E+03</pdfrwt>
<pdfrwt beam="2">  1       -4 0.46828849E-01 0.12498734E+03</pdfrwt>
<totfact> 0.73508855E+03</totfact>
</mgrwt>
</event>
<event>
 5    1  0.3267085E-002  0.1249938E+03  0.7818608E-02  0.1235079E+00
         -4   -1    0    0    0  501 -0.00000000000E+00  0.00000000000E+00  0.37318455240E+03  0.37318671339E+03  0.12700000000E+01 0. -1.
          4   -1    0    0  501    0  0.00000000000E+00 -0.00000000000E+00 -0.10425569314E+02  0.10502637550E+02  0.12700000000E+01 0. -1.
         25    2    1    2    0    0  0.00000000000E+00  0.00000000000E+00  0.36275898308E+03  0.38368935094E+03  0.12499375270E+03 0.  0.
    9000005    1    3    3    0    0  0.48783356264E+02  0.29365366153E+02  0.10235601324E+03  0.11713195133E+03  0.10000000000E+01 0.  0.
    9000005    1    3    3    0    0 -0.48783356264E+02 -0.29365366153E+02  0.26040296985E+03  0.26655739960E+03  0.10000000000E+01 0.  0.
<mgrwt>
<rscale>  0 0.12499375E+03</rscale>
<asrwt>0</asrwt>
<pdfrwt beam="2">  1        4 0.16100283E-02 0.12499375E+03</pdfrwt>
<pdfrwt beam="1">  1       -4 0.57419101E-01 0.12499375E+03</pdfrwt>
<totfact> 0.66179805E+03</totfact>
</mgrwt>
</event>
<event>
 5    1  0.3267085E-002  0.1250002E+03  0.7818608E-02  0.1235069E+00
          4   -1    0    0  501    0  0.00000000000E+00  0.00000000000E+00  0.25429911917E+02  0.25461604822E+02  0.12700000000E+01 0.  1.
         -4   -1    0    0    0  501 -0.00000000000E+00 -0.00000000000E+00 -0.15347905067E+03  0.15348430504E+03  0.12700000000E+01 0.  1.
         25    2    1    2    0    0  0.00000000000E+00  0.00000000000E+00 -0.12804913875E+03  0.17894590987E+03  0.12500022689E+03 0.  0.
    9000005    1    3    3    0    0 -0.14960728195E+02  0.43079338639E+02 -0.28578565685E+01  0.45703612000E+02  0.10000000000E+01 0.  0.
    9000005    1    3    3    0    0  0.14960728195E+02 -0.43079338639E+02 -0.12519128219E+03  0.13324229787E+03  0.10000000000E+01 0.  0.
<mgrwt>
<rscale>  0 0.12500023E+03</rscale>
<asrwt>0</asrwt>
<pdfrwt beam="1">  1        4 0.39151363E-02 0.12500023E+03</pdfrwt>
<pdfrwt beam="2">  1       -4 0.23615003E-01 0.12500023E+03</pdfrwt>
<totfact> 0.93806610E+03</totfact>
</mgrwt>
</event>
<event>
 5    1  0.3267085E-002  0.1250000E+03  0.7818608E-02  0.1235069E+00
         -4   -1    0    0    0  501 -0.00000000000E+00  0.00000000000E+00  0.22672931263E+03  0.22673286948E+03  0.12700000000E+01 0. -1.
          4   -1    0    0  501    0  0.00000000000E+00 -0.00000000000E+00 -0.17201606492E+02  0.17248425027E+02  0.12700000000E+01 0. -1.
         25    2    1    2    0    0  0.00000000000E+00  0.00000000000E+00  0.20952770613E+03  0.24398129451E+03  0.12500004973E+03 0.  0.
    9000005    1    3    3    0    0 -0.43175969352E+02  0.45134905103E+02  0.10863281087E+03  0.12531325383E+03  0.10000000000E+01 0.  0.
    9000005    1    3    3    0    0  0.43175969352E+02 -0.45134905103E+02  0.10089489526E+03  0.11866804068E+03  0.10000000000E+01 0.  0.
<mgrwt>
<rscale>  0 0.12500005E+03</rscale>
<asrwt>0</asrwt>
<pdfrwt beam="2">  1        4 0.26502763E-02 0.12500005E+03</pdfrwt>
<pdfrwt beam="1">  1       -4 0.34885304E-01 0.12500005E+03</pdfrwt>
<totfact> 0.83207885E+03</totfact>
</mgrwt>
</event>
<event>
 5    1  0.3267085E-002  0.1249996E+03  0.7818608E-02  0.1235070E+00
          4   -1    0    0  501    0  0.00000000000E+00  0.00000000000E+00  0.71381577410E+03  0.71381690388E+03  0.12700000000E+01 0.  1.
         -4   -1    0    0    0  501 -0.00000000000E+00 -0.00000000000E+00 -0.53974811868E+01  0.55448808068E+01  0.12700000000E+01 0.  1.
         25    2    1    2    0    0  0.00000000000E+00  0.00000000000E+00  0.70841829292E+03  0.71936178468E+03  0.12499959809E+03 0.  0.
    9000005    1    3    3    0    0  0.49376874024E+01  0.57624010934E+02  0.49043383844E+03  0.49383322821E+03  0.10000000000E+01 0.  0.
    9000005    1    3    3    0    0 -0.49376874024E+01 -0.57624010934E+02  0.21798445447E+03  0.22552855647E+03  0.10000000000E+01 0.  0.
<mgrwt>
<rscale>  0 0.12499960E+03</rscale>
<asrwt>0</asrwt>
<pdfrwt beam="1">  1        4 0.10982921E+00 0.12499960E+03</pdfrwt>
<pdfrwt beam="2">  1       -4 0.84180729E-03 0.12499960E+03</pdfrwt>
<totfact> 0.42084494E+03</totfact>
</mgrwt>
</event>
<event>
 5    1  0.3267085E-002  0.1250056E+03  0.7818608E-02  0.1235061E+00
         -4   -1    0    0    0  501 -0.00000000000E+00  0.00000000000E+00  0.14486320931E+03  0.14486877618E+03  0.12700000000E+01 0. -1.
          4   -1    0    0  501    0  0.00000000000E+00 -0.00000000000E+00 -0.26946451022E+02  0.26976362295E+02  0.12700000000E+01 0. -1.
         25    2    1    2    0    0  0.00000000000E+00  0.00000000000E+00  0.11791675829E+03  0.17184513847E+03  0.12500555881E+03 0.  0.
    9000005    1    3    3    0    0  0.26680421776E+02  0.55245514395E+02  0.75321678770E+02  0.97150743999E+02  0.10000000000E+01 0.  0.
    9000005    1    3    3    0    0 -0.26680421776E+02 -0.55245514395E+02  0.42595079518E+02  0.74694394475E+02  0.10000000000E+01 0.  0.
<mgrwt>
<rscale>  0 0.12500556E+03</rscale>
<asrwt>0</asrwt>
<pdfrwt beam="2">  1        4 0.41483369E-02 0.12500556E+03</pdfrwt>
<pdfrwt beam="1">  1       -4 0.22289377E-01 0.12500556E+03</pdfrwt>
<totfact> 0.95093979E+03</totfact>
</mgrwt>
</event>
<event>
 5    1  0.3267085E-002  0.1249983E+03  0.7818608E-02  0.1235072E+00
          4   -1    0    0  501    0  0.00000000000E+00  0.00000000000E+00  0.37200737619E+03  0.37200954402E+03  0.12700000000E+01 0.  1.
         -4   -1    0    0    0  501 -0.00000000000E+00 -0.00000000000E+00 -0.10459570378E+02  0.10536389918E+02  0.12700000000E+01 0.  1.
         25    2    1    2    0    0  0.00000000000E+00  0.00000000000E+00  0.36154780581E+03  0.38254593394E+03  0.12499830272E+03 0.  0.
    9000005    1    3    3    0    0  0.19570645433E+02  0.25567706506E+02  0.34468234036E+03  0.34618439239E+03  0.10000000000E+01 0.  0.
    9000005    1    3    3    0    0 -0.19570645433E+02 -0.25567706506E+02  0.16865465453E+02  0.36361541546E+02  0.10000000000E+01 0.  0.
<mgrwt>
<rscale>  0 0.12499830E+03</rscale>
<asrwt>0</asrwt>
<pdfrwt beam="1">  1        4 0.57237967E-01 0.12499830E+03</pdfrwt>
<pdfrwt beam="2">  1       -4 0.16152410E-02 0.12499830E+03</pdfrwt>
<totfact> 0.66288998E+03</totfact>
</mgrwt>
</event>
<event>
 4    1  0.3267085E-002  0.1248848E+03  0.7818608E-02  0.1235250E+00
          4   -1    0    0  501    0  0.00000000000E+00  0.00000000000E+00  0.16001623265E+03  0.16002127237E+03  0.12700000000E+01 0.  1.
         -4   -1    0    0    0  501 -0.00000000000E+00 -0.00000000000E+00 -0.24344616862E+02  0.24377720775E+02  0.12700000000E+01 0.  1.
    9000005    1    1    2    0    0  0.14095806021E+02 -0.16604811039E+02 -0.18560085728E+02  0.28633691331E+02  0.10000000000E+01 0.  0.
    9000005    1    1    2    0    0 -0.14095806021E+02  0.16604811039E+02  0.15423170151E+03  0.15576530181E+03  0.10000000000E+01 0.  0.
<mgrwt>
<rscale>  0 0.12488475E+03</rscale>
<asrwt>0</asrwt>
<pdfrwt beam="1">  1        4 0.24620816E-01 0.12488475E+03</pdfrwt>
<pdfrwt beam="2">  1       -4 0.37482598E-02 0.12488475E+03</pdfrwt>
<totfact> 0.93071295E+03</totfact>
</mgrwt>
</event>
<event>
 5    1  0.3267085E-002  0.1249990E+03  0.7818608E-02  0.1235071E+00
          4   -1    0    0  501    0  0.00000000000E+00  0.00000000000E+00  0.24927190371E+03  0.24927513892E+03  0.12700000000E+01 0. -1.
         -4   -1    0    0    0  501 -0.00000000000E+00 -0.00000000000E+00 -0.15641316509E+02  0.15692790769E+02  0.12700000000E+01 0. -1.
         25    2    1    2    0    0  0.00000000000E+00  0.00000000000E+00  0.23363058721E+03  0.26496792969E+03  0.12499900993E+03 0.  0.
    9000005    1    3    3    0    0  0.15608212777E+01 -0.62296528449E+02  0.12673398241E+03  0.14122958585E+03  0.10000000000E+01 0.  0.
    9000005    1    3    3    0    0 -0.15608212777E+01  0.62296528449E+02  0.10689660479E+03  0.12373834384E+03  0.10000000000E+01 0.  0.
<mgrwt>
<rscale>  0 0.12499901E+03</rscale>
<asrwt>0</asrwt>
<pdfrwt beam="1">  1        4 0.38353733E-01 0.12499901E+03</pdfrwt>
<pdfrwt beam="2">  1       -4 0.24105647E-02 0.12499901E+03</pdfrwt>
<totfact> 0.80215663E+03</totfact>
</mgrwt>
</event>
<event>
 5    1  0.3267085E-002  0.1250031E+03  0.7818608E-02  0.1235064E+00
         -4   -1    0    0    0  501 -0.00000000000E+00  0.00000000000E+00  0.32604773047E+02  0.32629497782E+02  0.12700000000E+01 0. -1.
          4   -1    0    0  501    0  0.00000000000E+00 -0.00000000000E+00 -0.11973856727E+03  0.11974530217E+03  0.12700000000E+01 0. -1.
         25    2    1    2    0    0  0.00000000000E+00  0.00000000000E+00 -0.87133794226E+02  0.15237479996E+03  0.12500312622E+03 0.  0.
    9000005    1    3    3    0    0  0.99843649175E+01 -0.39092606393E+02 -0.10174022960E+03  0.10945315773E+03  0.10000000000E+01 0.  0.
    9000005    1    3    3    0    0 -0.99843649175E+01  0.39092606393E+02  0.14606435372E+02  0.42921642230E+02  0.10000000000E+01 0.  0.
<mgrwt>
<rscale>  0 0.12500313E+03</rscale>
<asrwt>0</asrwt>
<pdfrwt beam="2">  1        4 0.18423738E-01 0.12500313E+03</pdfrwt>
<pdfrwt beam="1">  1       -4 0.50185390E-02 0.12500313E+03</pdfrwt>
<totfact> 0.98825455E+03</totfact>
</mgrwt>
</event>
<event>
 5    1  0.3267085E-002  0.1249886E+03  0.7818608E-02  0.1235087E+00
         -4   -1    0    0    0  501 -0.00000000000E+00  0.00000000000E+00  0.12934406934E+03  0.12935030411E+03  0.12700000000E+01 0. -1.
          4   -1    0    0  501    0  0.00000000000E+00 -0.00000000000E+00 -0.30174629257E+02  0.30201343527E+02  0.12700000000E+01 0. -1.
         25    2    1    2    0    0  0.00000000000E+00  0.00000000000E+00  0.99169440081E+02  0.15955164763E+03  0.12498860115E+03 0.  0.
    9000005    1    3    3    0    0 -0.26173652808E+02  0.32759039829E+02 -0.95548832030E+01  0.43017561354E+02  0.10000000000E+01 0.  0.
    9000005    1    3    3    0    0  0.26173652808E+02 -0.32759039829E+02  0.10872432328E+03  0.11653408628E+03  0.10000000000E+01 0.  0.
<mgrwt>
<rscale>  0 0.12498860E+03</rscale>
<asrwt>0</asrwt>
<pdfrwt beam="2">  1        4 0.46447852E-02 0.12498860E+03</pdfrwt>
<pdfrwt beam="1">  1       -4 0.19901622E-01 0.12498860E+03</pdfrwt>
<totfact> 0.97454262E+03</totfact>
</mgrwt>
</event>
<event>
 5    1  0.3267085E-002  0.1249963E+03  0.7818608E-02  0.1235075E+00
          4   -1    0    0  501    0  0.00000000000E+00  0.00000000000E+00  0.98936656871E+02  0.98944807710E+02  0.12700000000E+01 0. -1.
         -4   -1    0    0    0  501 -0.00000000000E+00 -0.00000000000E+00 -0.39460032698E+02  0.39480464543E+02  0.12700000000E+01 0. -1.
         25    2    1    2    0    0  0.00000000000E+00  0.00000000000E+00  0.59476624173E+02  0.13842527225E+03  0.12499634865E+03 0.  0.
    9000005    1    3    3    0    0  0.18817632844E+02 -0.38785795675E+02 -0.20361082753E+02  0.47686632748E+02  0.10000000000E+01 0.  0.
    9000005    1    3    3    0    0 -0.18817632844E+02  0.38785795675E+02  0.79837706926E+02  0.90738639505E+02  0.10000000000E+01 0.  0.
<mgrwt>
<rscale>  0 0.12499635E+03</rscale>
<asrwt>0</asrwt>
<pdfrwt beam="1">  1        4 0.15223223E-01 0.12499635E+03</pdfrwt>
<pdfrwt beam="2">  1       -4 0.60729730E-02 0.12499635E+03</pdfrwt>
<totfact> 0.10167164E+04</totfact>
</mgrwt>
</event>
<event>
 5    1  0.3267085E-002  0.1250047E+03  0.7818608E-02  0.1235062E+00
          4   -1    0    0  501    0  0.00000000000E+00  0.00000000000E+00  0.29518805206E+02  0.29546112448E+02  0.12700000000E+01 0.  1.
         -4   -1    0    0    0  501 -0.00000000000E+00 -0.00000000000E+00 -0.13224940709E+03  0.13225550490E+03  0.12700000000E+01 0.  1.
         25    2    1    2    0    0  0.00000000000E+00  0.00000000000E+00 -0.10273060189E+03  0.16180161735E+03  0.12500474716E+03 0.  0.
    9000005    1    3    3    0    0 -0.19864449123E+02  0.22771694466E+02  0.19440069110E+02  0.35945273609E+02  0.10000000000E+01 0.  0.
    9000005    1    3    3    0    0  0.19864449123E+02 -0.22771694466E+02 -0.12217067100E+03  0.12585634374E+03  0.10000000000E+01 0.  0.
<mgrwt>
<rscale>  0 0.12500475E+03</rscale>
<asrwt>0</asrwt>
<pdfrwt beam="1">  1        4 0.45439244E-02 0.12500475E+03</pdfrwt>
<pdfrwt beam="2">  1       -4 0.20348632E-01 0.12500475E+03</pdfrwt>
<totfact> 0.96986221E+03</totfact>
</mgrwt>
</event>
<event>
 5    1  0.3267085E-002  0.1249888E+03  0.7818608E-02  0.1235087E+00
          4   -1    0    0  501    0  0.00000000000E+00  0.00000000000E+00  0.58178339030E+01  0.59548376404E+01  0.12700000000E+01 0. -1.
         -4   -1    0    0    0  501 -0.00000000000E+00 -0.00000000000E+00 -0.66335669048E+03  0.66335790619E+03  0.12700000000E+01 0. -1.
         25    2    1    2    0    0  0.00000000000E+00  0.00000000000E+00 -0.65753885658E+03  0.66931274383E+03  0.12498880408E+03 0.  0.
    9000005    1    3    3    0    0  0.31242719056E+02  0.15520846940E+02 -0.51158893374E+02  0.61929286731E+02  0.10000000000E+01 0.  0.
    9000005    1    3    3    0    0 -0.31242719056E+02 -0.15520846940E+02 -0.60637996321E+03  0.60738345710E+03  0.10000000000E+01 0.  0.
<mgrwt>
<rscale>  0 0.12498880E+03</rscale>
<asrwt>0</asrwt>
<pdfrwt beam="1">  1        4 0.90568416E-03 0.12498880E+03</pdfrwt>
<pdfrwt beam="2">  1       -4 0.10206545E+00 0.12498880E+03</pdfrwt>
<totfact> 0.44767859E+03</totfact>
</mgrwt>
</event>
<event>
 5    1  0.3267085E-002  0.1249999E+03  0.7818608E-02  0.1235069E+00
         -4   -1    0    0    0  501 -0.00000000000E+00  0.00000000000E+00  0.35381905492E+02  0.35404690879E+02  0.12700000000E+01 0. -1.
          4   -1    0    0  501    0  0.00000000000E+00 -0.00000000000E+00 -0.11034027599E+03  0.11034758451E+03  0.12700000000E+01 0. -1.
         25    2    1    2    0    0  0.00000000000E+00  0.00000000000E+00 -0.74958370502E+02  0.14575227538E+03  0.12499987389E+03 0.  0.
    9000005    1    3    3    0    0 -0.60792353560E+02  0.76655824957E+01 -0.51796588623E+02  0.80239379355E+02  0.10000000000E+01 0.  0.
    9000005    1    3    3    0    0  0.60792353560E+02 -0.76655824957E+01 -0.23161781878E+02  0.65512896029E+02  0.10000000000E+01 0.  0.
<mgrwt>
<rscale>  0 0.12499987E+03</rscale>
<asrwt>0</asrwt>
<pdfrwt beam="2">  1        4 0.16977742E-01 0.12499987E+03</pdfrwt>
<pdfrwt beam="1">  1       -4 0.54456851E-02 0.12499987E+03</pdfrwt>
<totfact> 0.10015755E+04</totfact>
</mgrwt>
</event>
<event>
 5    1  0.3267085E-002  0.1250053E+03  0.7818608E-02  0.1235061E+00
         -4   -1    0    0    0  501 -0.00000000000E+00  0.00000000000E+00  0.16891148334E+03  0.16891625767E+03  0.12700000000E+01 0.  1.
          4   -1    0    0  501    0  0.00000000000E+00 -0.00000000000E+00 -0.23105454955E+02  0.23140331646E+02  0.12700000000E+01 0.  1.
         25    2    1    2    0    0  0.00000000000E+00  0.00000000000E+00  0.14580602839E+03  0.19205658932E+03  0.12500534223E+03 0.  0.
    9000005    1    3    3    0    0 -0.13720589638E+02  0.58481374407E+02  0.99392134394E+02  0.11613837485E+03  0.10000000000E+01 0.  0.
    9000005    1    3    3    0    0  0.13720589638E+02 -0.58481374407E+02  0.46413893995E+02  0.75918214470E+02  0.10000000000E+01 0.  0.
<mgrwt>
<rscale>  0 0.12500534E+03</rscale>
<asrwt>0</asrwt>
<pdfrwt beam="2">  1        4 0.35577355E-02 0.12500534E+03</pdfrwt>
<pdfrwt beam="1">  1       -4 0.25989432E-01 0.12500534E+03</pdfrwt>
<totfact> 0.91479756E+03</totfact>
</mgrwt>
</event>
<event>
 5    1  0.3267085E-002  0.1250012E+03  0.7818608E-02  0.1235067E+00
          4   -1    0    0  501    0  0.00000000000E+00  0.00000000000E+00  0.87330074847E+02  0.87339308864E+02  0.12700000000E+01 0.  1.
         -4   -1    0    0    0  501 -0.00000000000E+00 -0.00000000000E+00 -0.44709936500E+02  0.44727970241E+02  0.12700000000E+01 0.  1.
         25    2    1    2    0    0  0.00000000000E+00  0.00000000000E+00  0.42620138347E+02  0.13206727910E+03  0.12500116006E+03 0.  0.
    9000005    1    3    3    0    0  0.36289063559E+02  0.27341994422E+02  0.66640454440E+02  0.80662450750E+02  0.10000000000E+01 0.  0.
    9000005    1    3    3    0    0 -0.36289063559E+02 -0.27341994422E+02 -0.24020316093E+02  0.51404828355E+02  0.10000000000E+01 0.  0.
<mgrwt>
<rscale>  0 0.12500116E+03</rscale>
<asrwt>0</asrwt>
<pdfrwt beam="1">  1        4 0.13437493E-01 0.12500116E+03</pdfrwt>
<pdfrwt beam="2">  1       -4 0.68805494E-02 0.12500116E+03</pdfrwt>
<totfact> 0.10299993E+04</totfact>
</mgrwt>
</event>
<event>
 5    1  0.3267085E-002  0.1249936E+03  0.7818608E-02  0.1235079E+00
         -4   -1    0    0    0  501 -0.00000000000E+00  0.00000000000E+00  0.60160232543E+02  0.60173636085E+02  0.12700000000E+01 0.  1.
          4   -1    0    0  501    0  0.00000000000E+00 -0.00000000000E+00 -0.64897311478E+02  0.64909736843E+02  0.12700000000E+01 0.  1.
         25    2    1    2    0    0  0.00000000000E+00  0.00000000000E+00 -0.47370789349E+01  0.12508337293E+03  0.12499364090E+03 0.  0.
    9000005    1    3    3    0    0  0.32699121928E+02  0.53216340571E+02 -0.45900611972E+00  0.62469369817E+02  0.10000000000E+01 0.  0.
    9000005    1    3    3    0    0 -0.32699121928E+02 -0.53216340571E+02 -0.42780728151E+01  0.62614003112E+02  0.10000000000E+01 0.  0.
<mgrwt>
<rscale>  0 0.12499364E+03</rscale>
<asrwt>0</asrwt>
<pdfrwt beam="2">  1        4 0.99861886E-02 0.12499364E+03</pdfrwt>
<pdfrwt beam="1">  1       -4 0.92574073E-02 0.12499364E+03</pdfrwt>
<totfact> 0.10452554E+04</totfact>
</mgrwt>
</event>
<event>
 5    1  0.3267085E-002  0.1250010E+03  0.7818608E-02  0.1235068E+00
          4   -1    0    0  501    0  0.00000000000E+00  0.00000000000E+00  0.57590285335E+01  0.58973985493E+01  0.12700000000E+01 0.  1.
         -4   -1    0    0    0  501 -0.00000000000E+00 -0.00000000000E+00 -0.67010330345E+03  0.67010450692E+03  0.12700000000E+01 0.  1.
         25    2    1    2    0    0  0.00000000000E+00  0.00000000000E+00 -0.66434427492E+03  0.67600190547E+03  0.12500104233E+03 0.  0.
    9000005    1    3    3    0    0 -0.36005058496E+02  0.18048352854E+02 -0.59058076644E+03  0.59195333343E+03  0.10000000000E+01 0.  0.
    9000005    1    3    3    0    0  0.36005058496E+02 -0.18048352854E+02 -0.73763508481E+02  0.84048572037E+02  0.10000000000E+01 0.  0.
<mgrwt>
<rscale>  0 0.12500104E+03</rscale>
<asrwt>0</asrwt>
<pdfrwt beam="1">  1        4 0.89674134E-03 0.12500104E+03</pdfrwt>
<pdfrwt beam="2">  1       -4 0.10310349E+00 0.12500104E+03</pdfrwt>
<totfact> 0.44383169E+03</totfact>
</mgrwt>
</event>
<event>
 5    1  0.3267085E-002  0.1250012E+03  0.7818608E-02  0.1235067E+00
          4   -1    0    0  501    0  0.00000000000E+00  0.00000000000E+00  0.57546764382E+02  0.57560776496E+02  0.12700000000E+01 0. -1.
         -4   -1    0    0    0  501 -0.00000000000E+00 -0.00000000000E+00 -0.67852670280E+02  0.67864554548E+02  0.12700000000E+01 0. -1.
         25    2    1    2    0    0  0.00000000000E+00  0.00000000000E+00 -0.10305905897E+02  0.12542533104E+03  0.12500120788E+03 0.  0.
    9000005    1    3    3    0    0 -0.61675862759E+02  0.23060950486E+01  0.46831322365E+01  0.61904457424E+02  0.10000000000E+01 0.  0.
    9000005    1    3    3    0    0  0.61675862759E+02 -0.23060950486E+01 -0.14989038134E+02  0.63520873621E+02  0.10000000000E+01 0.  0.
<mgrwt>
<rscale>  0 0.12500121E+03</rscale>
<asrwt>0</asrwt>
<pdfrwt beam="1">  1        4 0.88553404E-02 0.12500121E+03</pdfrwt>
<pdfrwt beam="2">  1       -4 0.10440864E-01 0.12500121E+03</pdfrwt>
<totfact> 0.10443321E+04</totfact>
</mgrwt>
</event>
<event>
 5    1  0.3267085E-002  0.1249999E+03  0.7818608E-02  0.1235069E+00
         -4   -1    0    0    0  501 -0.00000000000E+00  0.00000000000E+00  0.57652934714E+02  0.57666921030E+02  0.12700000000E+01 0. -1.
          4   -1    0    0  501    0  0.00000000000E+00 -0.00000000000E+00 -0.67726270052E+02  0.67738176497E+02  0.12700000000E+01 0. -1.
         25    2    1    2    0    0  0.00000000000E+00  0.00000000000E+00 -0.10073335338E+02  0.12540509753E+03  0.12499986560E+03 0.  0.
    9000005    1    3    3    0    0  0.62196816980E+02  0.50731663338E+01 -0.83731884412E+01  0.62970559341E+02  0.10000000000E+01 0.  0.
    9000005    1    3    3    0    0 -0.62196816980E+02 -0.50731663338E+01 -0.17001468965E+01  0.62434538186E+02  0.10000000000E+01 0.  0.
<mgrwt>
<rscale>  0 0.12499987E+03</rscale>
<asrwt>0</asrwt>
<pdfrwt beam="2">  1        4 0.10421418E-01 0.12499987E+03</pdfrwt>
<pdfrwt beam="1">  1       -4 0.88716740E-02 0.12499987E+03</pdfrwt>
<totfact> 0.10444086E+04</totfact>
</mgrwt>
</event>
<event>
 5    1  0.3267085E-002  0.1250055E+03  0.7818608E-02  0.1235061E+00
         -4   -1    0    0    0  501 -0.00000000000E+00  0.00000000000E+00  0.32885839439E+01  0.35252920951E+01  0.12700000000E+01 0. -1.
          4   -1    0    0  501    0  0.00000000000E+00 -0.00000000000E+00 -0.11464217862E+04  0.11464224897E+04  0.12700000000E+01 0. -1.
         25    2    1    2    0    0  0.00000000000E+00  0.00000000000E+00 -0.11431332023E+04  0.11499477817E+04  0.12500553043E+03 0.  0.
    9000005    1    3    3    0    0 -0.26950254914E+02  0.55410364131E+02 -0.66759601860E+03  0.67043423894E+03  0.10000000000E+01 0.  0.
    9000005    1    3    3    0    0  0.26950254914E+02 -0.55410364131E+02 -0.47553718366E+03  0.47951354280E+03  0.10000000000E+01 0.  0.
<mgrwt>
<rscale>  0 0.12500553E+03</rscale>
<asrwt>0</asrwt>
<pdfrwt beam="2">  1        4 0.17639054E+00 0.12500553E+03</pdfrwt>
<pdfrwt beam="1">  1       -4 0.52419933E-03 0.12500553E+03</pdfrwt>
<totfact> 0.26058592E+03</totfact>
</mgrwt>
</event>
<event>
 5    1  0.3267085E-002  0.1250007E+03  0.7818608E-02  0.1235068E+00
          4   -1    0    0  501    0  0.00000000000E+00  0.00000000000E+00  0.96836280570E+02  0.96844608186E+02  0.12700000000E+01 0.  1.
         -4   -1    0    0    0  501 -0.00000000000E+00 -0.00000000000E+00 -0.40319070370E+02  0.40339067112E+02  0.12700000000E+01 0.  1.
         25    2    1    2    0    0  0.00000000000E+00  0.00000000000E+00  0.56517210200E+02  0.13718367530E+03  0.12500066288E+03 0.  0.
    9000005    1    3    3    0    0 -0.56257294901E+02  0.21157127083E+02  0.47037235606E+02  0.76328296126E+02  0.10000000000E+01 0.  0.
    9000005    1    3    3    0    0  0.56257294901E+02 -0.21157127083E+02  0.94799745941E+01  0.60855379173E+02  0.10000000000E+01 0.  0.
<mgrwt>
<rscale>  0 0.12500066E+03</rscale>
<asrwt>0</asrwt>
<pdfrwt beam="1">  1        4 0.14900068E-01 0.12500066E+03</pdfrwt>
<pdfrwt beam="2">  1       -4 0.62051128E-02 0.12500066E+03</pdfrwt>
<totfact> 0.10192094E+04</totfact>
</mgrwt>
</event>
<event>
 5    1  0.3267085E-002  0.1250011E+03  0.7818608E-02  0.1235068E+00
          4   -1    0    0  501    0  0.00000000000E+00  0.00000000000E+00  0.16399337907E+02  0.16448440163E+02  0.12700000000E+01 0. -1.
         -4   -1    0    0    0  501 -0.00000000000E+00 -0.00000000000E+00 -0.23779301776E+03  0.23779640913E+03  0.12700000000E+01 0. -1.
         25    2    1    2    0    0  0.00000000000E+00  0.00000000000E+00 -0.22139367985E+03  0.25424484929E+03  0.12500112765E+03 0.  0.
    9000005    1    3    3    0    0 -0.59291942029E+02 -0.78558529422E+01 -0.14753709198E+03  0.15920251984E+03  0.10000000000E+01 0.  0.
    9000005    1    3    3    0    0  0.59291942029E+02  0.78558529422E+01 -0.73856587875E+02  0.95042329451E+02  0.10000000000E+01 0.  0.
<mgrwt>
<rscale>  0 0.12500113E+03</rscale>
<asrwt>0</asrwt>
<pdfrwt beam="1">  1        4 0.25270132E-02 0.12500113E+03</pdfrwt>
<pdfrwt beam="2">  1       -4 0.36587577E-01 0.12500113E+03</pdfrwt>
<totfact> 0.81718509E+03</totfact>
</mgrwt>
</event>
<event>
 5    1  0.3267085E-002  0.1249975E+03  0.7818608E-02  0.1235073E+00
         -4   -1    0    0    0  501 -0.00000000000E+00  0.00000000000E+00  0.31504180267E+02  0.31529768066E+02  0.12700000000E+01 0. -1.
          4   -1    0    0  501    0  0.00000000000E+00 -0.00000000000E+00 -0.12390731066E+03  0.12391381898E+03  0.12700000000E+01 0. -1.
         25    2    1    2    0    0  0.00000000000E+00  0.00000000000E+00 -0.92403130394E+02  0.15544358705E+03  0.12499748097E+03 0.  0.
    9000005    1    3    3    0    0 -0.56259664423E+02 -0.99129122114E+00 -0.12396480184E+02  0.57626428141E+02  0.10000000000E+01 0.  0.
    9000005    1    3    3    0    0  0.56259664423E+02  0.99129122114E+00 -0.80006650210E+02  0.97817158909E+02  0.10000000000E+01 0.  0.
<mgrwt>
<rscale>  0 0.12499748E+03</rscale>
<asrwt>0</asrwt>
<pdfrwt beam="2">  1        4 0.19065132E-01 0.12499748E+03</pdfrwt>
<pdfrwt beam="1">  1       -4 0.48492659E-02 0.12499748E+03</pdfrwt>
<totfact> 0.98234052E+03</totfact>
</mgrwt>
</event>
<event>
 5    1  0.3267085E-002  0.1250000E+03  0.7818608E-02  0.1235069E+00
         -4   -1    0    0    0  501 -0.00000000000E+00  0.00000000000E+00  0.38712806102E+03  0.38713014418E+03  0.12700000000E+01 0. -1.
          4   -1    0    0  501    0  0.00000000000E+00 -0.00000000000E+00 -0.10048256148E+02  0.10128195872E+02  0.12700000000E+01 0. -1.
         25    2    1    2    0    0  0.00000000000E+00  0.00000000000E+00  0.37707980487E+03  0.39725834005E+03  0.12500003798E+03 0.  0.
    9000005    1    3    3    0    0  0.11376889623E+02  0.57616882117E+02  0.25641327260E+03  0.26305494689E+03  0.10000000000E+01 0.  0.
    9000005    1    3    3    0    0 -0.11376889623E+02 -0.57616882117E+02  0.12066653228E+03  0.13420339316E+03  0.10000000000E+01 0.  0.
<mgrwt>
<rscale>  0 0.12500004E+03</rscale>
<asrwt>0</asrwt>
<pdfrwt beam="2">  1        4 0.15521949E-02 0.12500004E+03</pdfrwt>
<pdfrwt beam="1">  1       -4 0.59564476E-01 0.12500004E+03</pdfrwt>
<totfact> 0.64820258E+03</totfact>
</mgrwt>
</event>
<event>
 5    1  0.3267085E-002  0.1250090E+03  0.7818608E-02  0.1235055E+00
          4   -1    0    0  501    0  0.00000000000E+00  0.00000000000E+00  0.76488325906E+02  0.76498868618E+02  0.12700000000E+01 0. -1.
         -4   -1    0    0    0  501 -0.00000000000E+00 -0.00000000000E+00 -0.51055248680E+02  0.51071041871E+02  0.12700000000E+01 0. -1.
         25    2    1    2    0    0  0.00000000000E+00  0.00000000000E+00  0.25433077226E+02  0.12756991049E+03  0.12500896226E+03 0.  0.
    9000005    1    3    3    0    0 -0.47773750542E+02  0.50545737358E+01  0.53509572284E+02  0.71917691026E+02  0.10000000000E+01 0.  0.
    9000005    1    3    3    0    0  0.47773750542E+02 -0.50545737358E+01 -0.28076495058E+02  0.55652219463E+02  0.10000000000E+01 0.  0.
<mgrwt>
<rscale>  0 0.12500896E+03</rscale>
<asrwt>0</asrwt>
<pdfrwt beam="1">  1        4 0.11769461E-01 0.12500896E+03</pdfrwt>
<pdfrwt beam="2">  1       -4 0.78566795E-02 0.12500896E+03</pdfrwt>
<totfact> 0.10394684E+04</totfact>
</mgrwt>
</event>
<event>
 5    1  0.3267085E-002  0.1250009E+03  0.7818608E-02  0.1235068E+00
         -4   -1    0    0    0  501 -0.00000000000E+00  0.00000000000E+00  0.85427249152E+02  0.85436688827E+02  0.12700000000E+01 0. -1.
          4   -1    0    0  501    0  0.00000000000E+00 -0.00000000000E+00 -0.45705941875E+02  0.45723582785E+02  0.12700000000E+01 0. -1.
         25    2    1    2    0    0  0.00000000000E+00  0.00000000000E+00  0.39721307276E+02  0.13116027161E+03  0.12500093839E+03 0.  0.
    9000005    1    3    3    0    0  0.27206584570E+02  0.19058403330E+02  0.75401743046E+02  0.82400508711E+02  0.10000000000E+01 0.  0.
    9000005    1    3    3    0    0 -0.27206584570E+02 -0.19058403330E+02 -0.35680435769E+02  0.48759762901E+02  0.10000000000E+01 0.  0.
<mgrwt>
<rscale>  0 0.12500094E+03</rscale>
<asrwt>0</asrwt>
<pdfrwt beam="2">  1        4 0.70337666E-02 0.12500094E+03</pdfrwt>
<pdfrwt beam="1">  1       -4 0.13144737E-01 0.12500094E+03</pdfrwt>
<totfact> 0.10319436E+04</totfact>
</mgrwt>
</event>
<event>
 5    1  0.3267085E-002  0.1249967E+03  0.7818608E-02  0.1235074E+00
          4   -1    0    0  501    0  0.00000000000E+00  0.00000000000E+00  0.42125205954E+02  0.42144345726E+02  0.12700000000E+01 0. -1.
         -4   -1    0    0    0  501 -0.00000000000E+00 -0.00000000000E+00 -0.92680013213E+02  0.92688714249E+02  0.12700000000E+01 0. -1.
         25    2    1    2    0    0  0.00000000000E+00  0.00000000000E+00 -0.50554807259E+02  0.13483305997E+03  0.12499666206E+03 0.  0.
    9000005    1    3    3    0    0 -0.29223083948E+02  0.37230216821E+02  0.18737561278E+02  0.50913395905E+02  0.10000000000E+01 0.  0.
    9000005    1    3    3    0    0  0.29223083948E+02 -0.37230216821E+02 -0.69292368538E+02  0.83919664069E+02  0.10000000000E+01 0.  0.
<mgrwt>
<rscale>  0 0.12499666E+03</rscale>
<asrwt>0</asrwt>
<pdfrwt beam="1">  1        4 0.64829425E-02 0.12499666E+03</pdfrwt>
<pdfrwt beam="2">  1       -4 0.14260605E-01 0.12499666E+03</pdfrwt>
<totfact> 0.10242362E+04</totfact>
</mgrwt>
</event>
<event>
 5    1  0.3267085E-002  0.1250029E+03  0.7818608E-02  0.1235065E+00
          4   -1    0    0  501    0  0.00000000000E+00  0.00000000000E+00  0.96282452536E+02  0.96290828049E+02  0.12700000000E+01 0.  1.
         -4   -1    0    0    0  501 -0.00000000000E+00 -0.00000000000E+00 -0.40552541095E+02  0.40572422768E+02  0.12700000000E+01 0.  1.
         25    2    1    2    0    0  0.00000000000E+00  0.00000000000E+00  0.55729911441E+02  0.13686325082E+03  0.12500290555E+03 0.  0.
    9000005    1    3    3    0    0  0.34482814205E+02 -0.17899128678E+02  0.81458081959E+02  0.90254431467E+02  0.10000000000E+01 0.  0.
    9000005    1    3    3    0    0 -0.34482814205E+02  0.17899128678E+02 -0.25728170518E+02  0.46608819349E+02  0.10000000000E+01 0.  0.
<mgrwt>
<rscale>  0 0.12500291E+03</rscale>
<asrwt>0</asrwt>
<pdfrwt beam="1">  1        4 0.14814858E-01 0.12500291E+03</pdfrwt>
<pdfrwt beam="2">  1       -4 0.62410262E-02 0.12500291E+03</pdfrwt>
<totfact> 0.10198278E+04</totfact>
</mgrwt>
</event>
<event>
 5    1  0.3267085E-002  0.1249977E+03  0.7818608E-02  0.1235073E+00
         -4   -1    0    0    0  501 -0.00000000000E+00  0.00000000000E+00  0.19949405101E+03  0.19949809345E+03  0.12700000000E+01 0. -1.
          4   -1    0    0  501    0  0.00000000000E+00 -0.00000000000E+00 -0.19555226747E+02  0.19596422968E+02  0.12700000000E+01 0. -1.
         25    2    1    2    0    0  0.00000000000E+00  0.00000000000E+00  0.17993882426E+03  0.21909451641E+03  0.12499770656E+03 0.  0.
    9000005    1    3    3    0    0  0.46829052914E+02 -0.38520847284E+01  0.17757344440E+02  0.50240641269E+02  0.10000000000E+01 0.  0.
    9000005    1    3    3    0    0 -0.46829052914E+02  0.38520847284E+01  0.16218147983E+03  0.16885387515E+03  0.10000000000E+01 0.  0.
<mgrwt>
<rscale>  0 0.12499771E+03</rscale>
<asrwt>0</asrwt>
<pdfrwt beam="2">  1        4 0.30119763E-02 0.12499771E+03</pdfrwt>
<pdfrwt beam="1">  1       -4 0.30694872E-01 0.12499771E+03</pdfrwt>
<totfact> 0.87016291E+03</totfact>
</mgrwt>
</event>
<event>
 5    1  0.3267085E-002  0.1250013E+03  0.7818608E-02  0.1235067E+00
          4   -1    0    0  501    0  0.00000000000E+00  0.00000000000E+00  0.17853860002E+03  0.17854311691E+03  0.12700000000E+01 0.  1.
         -4   -1    0    0    0  501 -0.00000000000E+00 -0.00000000000E+00 -0.21856238216E+02  0.21893105055E+02  0.12700000000E+01 0.  1.
         25    2    1    2    0    0  0.00000000000E+00  0.00000000000E+00  0.15668236180E+03  0.20043622197E+03  0.12500126630E+03 0.  0.
    9000005    1    3    3    0    0  0.39612704307E+02 -0.32957173656E+02  0.21650113825E+02  0.55902317185E+02  0.10000000000E+01 0.  0.
    9000005    1    3    3    0    0 -0.39612704307E+02  0.32957173656E+02  0.13503224798E+03  0.14453390478E+03  0.10000000000E+01 0.  0.
<mgrwt>
<rscale>  0 0.12500127E+03</rscale>
<asrwt>0</asrwt>
<pdfrwt beam="1">  1        4 0.27470660E-01 0.12500127E+03</pdfrwt>
<pdfrwt beam="2">  1       -4 0.33656816E-02 0.12500127E+03</pdfrwt>
<totfact> 0.90059434E+03</totfact>
</mgrwt>
</event>
<event>
 5    1  0.3267085E-002  0.1249992E+03  0.7818608E-02  0.1235071E+00
         -4   -1    0    0    0  501 -0.00000000000E+00  0.00000000000E+00  0.36293475742E+03  0.36293697943E+03  0.12700000000E+01 0. -1.
          4   -1    0    0  501    0  0.00000000000E+00 -0.00000000000E+00 -0.10723088989E+02  0.10798033963E+02  0.12700000000E+01 0. -1.
         25    2    1    2    0    0  0.00000000000E+00  0.00000000000E+00  0.35221166843E+03  0.37373501340E+03  0.12499920345E+03 0.  0.
    9000005    1    3    3    0    0  0.26670841522E+02  0.49844633867E+02  0.96472357809E+02  0.11182011060E+03  0.10000000000E+01 0.  0.
    9000005    1    3    3    0    0 -0.26670841522E+02 -0.49844633867E+02  0.25573931062E+03  0.26191490280E+03  0.10000000000E+01 0.  0.
<mgrwt>
<rscale>  0 0.12499920E+03</rscale>
<asrwt>0</asrwt>
<pdfrwt beam="2">  1        4 0.16556421E-02 0.12499920E+03</pdfrwt>
<pdfrwt beam="1">  1       -4 0.55842046E-01 0.12499920E+03</pdfrwt>
<totfact> 0.67191172E+03</totfact>
</mgrwt>
</event>
<event>
 5    1  0.3267085E-002  0.1249998E+03  0.7818608E-02  0.1235070E+00
         -4   -1    0    0    0  501 -0.00000000000E+00  0.00000000000E+00  0.96030320206E+02  0.96038717708E+02  0.12700000000E+01 0. -1.
          4   -1    0    0  501    0  0.00000000000E+00 -0.00000000000E+00 -0.40657008338E+02  0.40676838951E+02  0.12700000000E+01 0. -1.
         25    2    1    2    0    0  0.00000000000E+00  0.00000000000E+00  0.55373311868E+02  0.13671555666E+03  0.12499975906E+03 0.  0.
    9000005    1    3    3    0    0  0.31836036976E+02  0.43013666224E+02 -0.76108370596E+01  0.54061387081E+02  0.10000000000E+01 0.  0.
    9000005    1    3    3    0    0 -0.31836036976E+02 -0.43013666224E+02  0.62984148928E+02  0.82654169577E+02  0.10000000000E+01 0.  0.
<mgrwt>
<rscale>  0 0.12499976E+03</rscale>
<asrwt>0</asrwt>
<pdfrwt beam="2">  1        4 0.62570959E-02 0.12499976E+03</pdfrwt>
<pdfrwt beam="1">  1       -4 0.14776067E-01 0.12499976E+03</pdfrwt>
<totfact> 0.10202092E+04</totfact>
</mgrwt>
</event>
<event>
 5    1  0.3267085E-002  0.1249490E+03  0.7818608E-02  0.1235149E+00
          4   -1    0    0  501    0  0.00000000000E+00  0.00000000000E+00  0.14583182663E+03  0.14583735652E+03  0.12700000000E+01 0.  1.
         -4   -1    0    0    0  501 -0.00000000000E+00 -0.00000000000E+00 -0.26743038234E+02  0.26773176763E+02  0.12700000000E+01 0.  1.
         25    2    1    2    0    0  0.00000000000E+00  0.00000000000E+00  0.11908878839E+03  0.17261053329E+03  0.12494901632E+03 0.  0.
    9000005    1    3    3    0    0  0.58856674804E+02  0.20801083578E+02  0.56372798722E+02  0.84117095069E+02  0.10000000000E+01 0.  0.
    9000005    1    3    3    0    0 -0.58856674804E+02 -0.20801083578E+02  0.62715989672E+02  0.88493438218E+02  0.10000000000E+01 0.  0.
<mgrwt>
<rscale>  0 0.12494902E+03</rscale>
<asrwt>0</asrwt>
<pdfrwt beam="1">  1        4 0.22438410E-01 0.12494902E+03</pdfrwt>
<pdfrwt beam="2">  1       -4 0.41170572E-02 0.12494902E+03</pdfrwt>
<totfact> 0.95073018E+03</totfact>
</mgrwt>
</event>
<event>
 5    1  0.3267085E-002  0.1250013E+03  0.7818608E-02  0.1235067E+00
         -4   -1    0    0    0  501 -0.00000000000E+00  0.00000000000E+00  0.29800407305E+02  0.29827456740E+02  0.12700000000E+01 0.  1.
          4   -1    0    0  501    0  0.00000000000E+00 -0.00000000000E+00 -0.13099354533E+03  0.13099970160E+03  0.12700000000E+01 0.  1.
         25    2    1    2    0    0  0.00000000000E+00  0.00000000000E+00 -0.10119313803E+03  0.16082715834E+03  0.12500129469E+03 0.  0.
    9000005    1    3    3    0    0  0.13131722337E+02  0.48896437224E+02 -0.97729618419E+02  0.11006989607E+03  0.10000000000E+01 0.  0.
    9000005    1    3    3    0    0 -0.13131722337E+02 -0.48896437224E+02 -0.34635196084E+01  0.50757262267E+02  0.10000000000E+01 0.  0.
<mgrwt>
<rscale>  0 0.12500129E+03</rscale>
<asrwt>0</asrwt>
<pdfrwt beam="2">  1        4 0.20155407E-01 0.12500129E+03</pdfrwt>
<pdfrwt beam="1">  1       -4 0.45872324E-02 0.12500129E+03</pdfrwt>
<totfact> 0.97180724E+03</totfact>
</mgrwt>
</event>
<event>
 5    1  0.3267085E-002  0.1250009E+03  0.7818608E-02  0.1235068E+00
          4   -1    0    0  501    0  0.00000000000E+00  0.00000000000E+00  0.11141247467E+03  0.11141971285E+03  0.12700000000E+01 0. -1.
         -4   -1    0    0    0  501 -0.00000000000E+00 -0.00000000000E+00 -0.35041783379E+02  0.35064789781E+02  0.12700000000E+01 0. -1.
         25    2    1    2    0    0  0.00000000000E+00  0.00000000000E+00  0.76370691289E+02  0.14648450263E+03  0.12500090809E+03 0.  0.
    9000005    1    3    3    0    0 -0.91934322824E+01 -0.61685318012E+02  0.42830008239E+02  0.75663777735E+02  0.10000000000E+01 0.  0.
    9000005    1    3    3    0    0  0.91934322824E+01  0.61685318012E+02  0.33540683050E+02  0.70820724896E+02  0.10000000000E+01 0.  0.
<mgrwt>
<rscale>  0 0.12500091E+03</rscale>
<asrwt>0</asrwt>
<pdfrwt beam="1">  1        4 0.17142707E-01 0.12500091E+03</pdfrwt>
<pdfrwt beam="2">  1       -4 0.53933700E-02 0.12500091E+03</pdfrwt>
<totfact> 0.10000709E+04</totfact>
</mgrwt>
</event>
<event>
 5    1  0.3267085E-002  0.1249998E+03  0.7818608E-02  0.1235070E+00
          4   -1    0    0  501    0  0.00000000000E+00  0.00000000000E+00  0.57135670538E+03  0.57135811685E+03  0.12700000000E+01 0.  1.
         -4   -1    0    0    0  501 -0.00000000000E+00 -0.00000000000E+00 -0.67763601405E+01  0.68943423728E+01  0.12700000000E+01 0.  1.
         25    2    1    2    0    0  0.00000000000E+00  0.00000000000E+00  0.56458034524E+03  0.57825245922E+03  0.12499976143E+03 0.  0.
    9000005    1    3    3    0    0 -0.30631263522E+02  0.54134117797E+02  0.25435797076E+03  0.26185445252E+03  0.10000000000E+01 0.  0.
    9000005    1    3    3    0    0  0.30631263522E+02 -0.54134117797E+02  0.31022237448E+03  0.31639800670E+03  0.10000000000E+01 0.  0.
<mgrwt>
<rscale>  0 0.12499976E+03</rscale>
<asrwt>0</asrwt>
<pdfrwt beam="1">  1        4 0.87910210E-01 0.12499976E+03</pdfrwt>
<pdfrwt beam="2">  1       -4 0.10517011E-02 0.12499976E+03</pdfrwt>
<totfact> 0.50270062E+03</totfact>
</mgrwt>
</event>
<event>
 5    1  0.3267085E-002  0.1250059E+03  0.7818608E-02  0.1235060E+00
         -4   -1    0    0    0  501 -0.00000000000E+00  0.00000000000E+00  0.40956395339E+01  0.42880255587E+01  0.12700000000E+01 0. -1.
          4   -1    0    0  501    0  0.00000000000E+00 -0.00000000000E+00 -0.93176663823E+03  0.93176750373E+03  0.12700000000E+01 0. -1.
         25    2    1    2    0    0  0.00000000000E+00  0.00000000000E+00 -0.92767099869E+03  0.93605552929E+03  0.12500588827E+03 0.  0.
    9000005    1    3    3    0    0 -0.16380270383E+02  0.23348751288E+02 -0.47445051809E+02  0.55367051445E+02  0.10000000000E+01 0.  0.
    9000005    1    3    3    0    0  0.16380270383E+02 -0.23348751288E+02 -0.88022594688E+03  0.88068847785E+03  0.10000000000E+01 0.  0.
<mgrwt>
<rscale>  0 0.12500589E+03</rscale>
<asrwt>0</asrwt>
<pdfrwt beam="2">  1        4 0.14336341E+00 0.12500589E+03</pdfrwt>
<pdfrwt beam="1">  1       -4 0.64496463E-03 0.12500589E+03</pdfrwt>
<totfact> 0.32812110E+03</totfact>
</mgrwt>
</event>
<event>
 5    1  0.3267085E-002  0.1250016E+03  0.7818608E-02  0.1235067E+00
         -4   -1    0    0    0  501 -0.00000000000E+00  0.00000000000E+00  0.13955440868E+03  0.13956018731E+03  0.12700000000E+01 0.  1.
          4   -1    0    0  501    0  0.00000000000E+00 -0.00000000000E+00 -0.27970835215E+02  0.27999652188E+02  0.12700000000E+01 0.  1.
         25    2    1    2    0    0  0.00000000000E+00  0.00000000000E+00  0.11158357346E+03  0.16755983950E+03  0.12500162377E+03 0.  0.
    9000005    1    3    3    0    0 -0.14203124439E+02 -0.60857339903E+02  0.55680258847E+02  0.83705649685E+02  0.10000000000E+01 0.  0.
    9000005    1    3    3    0    0  0.14203124439E+02  0.60857339903E+02  0.55903314617E+02  0.83854189812E+02  0.10000000000E+01 0.  0.
<mgrwt>
<rscale>  0 0.12500162E+03</rscale>
<asrwt>0</asrwt>
<pdfrwt beam="2">  1        4 0.43058666E-02 0.12500162E+03</pdfrwt>
<pdfrwt beam="1">  1       -4 0.21472570E-01 0.12500162E+03</pdfrwt>
<totfact> 0.95901287E+03</totfact>
</mgrwt>
</event>
<event>
 5    1  0.3267085E-002  0.1249987E+03  0.7818608E-02  0.1235071E+00
         -4   -1    0    0    0  501 -0.00000000000E+00  0.00000000000E+00  0.35805351171E+02  0.35827867261E+02  0.12700000000E+01 0. -1.
          4   -1    0    0  501    0  0.00000000000E+00 -0.00000000000E+00 -0.10903404464E+03  0.10904144070E+03  0.12700000000E+01 0. -1.
         25    2    1    2    0    0  0.00000000000E+00  0.00000000000E+00 -0.73228693467E+02  0.14486930796E+03  0.12499869936E+03 0.  0.
    9000005    1    3    3    0    0 -0.37450211355E+02 -0.47467309689E+02 -0.18307631623E+02  0.63180955954E+02  0.10000000000E+01 0.  0.
    9000005    1    3    3    0    0  0.37450211355E+02  0.47467309689E+02 -0.54921061844E+02  0.81688352007E+02  0.10000000000E+01 0.  0.
<mgrwt>
<rscale>  0 0.12499870E+03</rscale>
<asrwt>0</asrwt>
<pdfrwt beam="2">  1        4 0.16776769E-01 0.12499870E+03</pdfrwt>
<pdfrwt beam="1">  1       -4 0.55108166E-02 0.12499870E+03</pdfrwt>
<totfact> 0.10033938E+04</totfact>
</mgrwt>
</event>
<event>
 5    1  0.3267085E-002  0.1250014E+03  0.7818608E-02  0.1235067E+00
          4   -1    0    0  501    0  0.00000000000E+00  0.00000000000E+00  0.39149114397E+02  0.39169708424E+02  0.12700000000E+01 0. -1.
         -4   -1    0    0    0  501 -0.00000000000E+00 -0.00000000000E+00 -0.99730160138E+02  0.99738246130E+02  0.12700000000E+01 0. -1.
         25    2    1    2    0    0  0.00000000000E+00  0.00000000000E+00 -0.60581045741E+02  0.13890795455E+03  0.12500142693E+03 0.  0.
    9000005    1    3    3    0    0 -0.38933784048E+02 -0.48419646569E+02 -0.37748123750E+02  0.72706413478E+02  0.10000000000E+01 0.  0.
    9000005    1    3    3    0    0  0.38933784048E+02  0.48419646569E+02 -0.22832921991E+02  0.66201541076E+02  0.10000000000E+01 0.  0.
<mgrwt>
<rscale>  0 0.12500143E+03</rscale>
<asrwt>0</asrwt>
<pdfrwt beam="1">  1        4 0.60251468E-02 0.12500143E+03</pdfrwt>
<pdfrwt beam="2">  1       -4 0.15345308E-01 0.12500143E+03</pdfrwt>
<totfact> 0.10155943E+04</totfact>
</mgrwt>
</event>
<event>
 5    1  0.3267085E-002  0.1249931E+03  0.7818608E-02  0.1235080E+00
         -4   -1    0    0    0  501 -0.00000000000E+00  0.00000000000E+00  0.29389769011E+02  0.29417196034E+02  0.12700000000E+01 0. -1.
          4   -1    0    0  501    0  0.00000000000E+00 -0.00000000000E+00 -0.13280481571E+03  0.13281088801E+03  0.12700000000E+01 0. -1.
         25    2    1    2    0    0  0.00000000000E+00  0.00000000000E+00 -0.10341504670E+03  0.16222808405E+03  0.12499311729E+03 0.  0.
    9000005    1    3    3    0    0  0.38428163578E+02 -0.27597910088E+01 -0.11556189809E+03  0.12181909741E+03  0.10000000000E+01 0.  0.
    9000005    1    3    3    0    0 -0.38428163578E+02  0.27597910088E+01  0.12146851398E+02  0.40408986640E+02  0.10000000000E+01 0.  0.
<mgrwt>
<rscale>  0 0.12499312E+03</rscale>
<asrwt>0</asrwt>
<pdfrwt beam="2">  1        4 0.20434087E-01 0.12499312E+03</pdfrwt>
<pdfrwt beam="1">  1       -4 0.45240799E-02 0.12499312E+03</pdfrwt>
<totfact> 0.96929931E+03</totfact>
</mgrwt>
</event>
<event>
 5    1  0.3267085E-002  0.1249982E+03  0.7818608E-02  0.1235072E+00
          4   -1    0    0  501    0  0.00000000000E+00  0.00000000000E+00  0.95163859986E+01  0.96007553075E+01  0.12700000000E+01 0. -1.
         -4   -1    0    0    0  501 -0.00000000000E+00 -0.00000000000E+00 -0.40856783751E+03  0.40856981135E+03  0.12700000000E+01 0. -1.
         25    2    1    2    0    0  0.00000000000E+00  0.00000000000E+00 -0.39905145151E+03  0.41817056666E+03  0.12499824745E+03 0.  0.
    9000005    1    3    3    0    0  0.18049230382E+02 -0.34892163323E+02 -0.36940702480E+02  0.53933786057E+02  0.10000000000E+01 0.  0.
    9000005    1    3    3    0    0 -0.18049230382E+02  0.34892163323E+02 -0.36211074903E+03  0.36423678060E+03  0.10000000000E+01 0.  0.
<mgrwt>
<rscale>  0 0.12499825E+03</rscale>
<asrwt>0</asrwt>
<pdfrwt beam="1">  1        4 0.14707015E-02 0.12499825E+03</pdfrwt>
<pdfrwt beam="2">  1       -4 0.62863219E-01 0.12499825E+03</pdfrwt>
<totfact> 0.62825528E+03</totfact>
</mgrwt>
</event>
<event>
 4    1  0.3267085E-002  0.1251893E+03  0.7818608E-02  0.1234774E+00
          4   -1    0    0  501    0  0.00000000000E+00  0.00000000000E+00  0.12806197339E+04  0.12806203637E+04  0.12700000000E+01 0.  1.
         -4   -1    0    0    0  501 -0.00000000000E+00 -0.00000000000E+00 -0.29270782240E+01  0.31907188734E+01  0.12700000000E+01 0.  1.
    9000005    1    1    2    0    0 -0.43499762358E+02  0.85201159136E+01  0.10919565462E+04  0.10928563128E+04  0.10000000000E+01 0.  0.
    9000005    1    1    2    0    0  0.43499762358E+02 -0.85201159136E+01  0.18573610954E+03  0.19095476974E+03  0.10000000000E+01 0.  0.
<mgrwt>
<rscale>  0 0.12518935E+03</rscale>
<asrwt>0</asrwt>
<pdfrwt beam="1">  1        4 0.19703868E+00 0.12518935E+03</pdfrwt>
<pdfrwt beam="2">  1       -4 0.47064839E-03 0.12518935E+03</pdfrwt>
<totfact> 0.22520680E+03</totfact>
</mgrwt>
</event>
<event>
 5    1  0.3267085E-002  0.1250034E+03  0.7818608E-02  0.1235064E+00
         -4   -1    0    0    0  501 -0.00000000000E+00  0.00000000000E+00  0.33099117013E+02  0.33123472750E+02  0.12700000000E+01 0. -1.
          4   -1    0    0  501    0  0.00000000000E+00 -0.00000000000E+00 -0.11795205980E+03  0.11795889670E+03  0.12700000000E+01 0. -1.
         25    2    1    2    0    0  0.00000000000E+00  0.00000000000E+00 -0.84852942785E+02  0.15108236945E+03  0.12500344179E+03 0.  0.
    9000005    1    3    3    0    0 -0.86329573116E+01  0.60520286629E+02 -0.26750075961E+02  0.66736793521E+02  0.10000000000E+01 0.  0.
    9000005    1    3    3    0    0  0.86329573116E+01 -0.60520286629E+02 -0.58102866825E+02  0.84345575929E+02  0.10000000000E+01 0.  0.
<mgrwt>
<rscale>  0 0.12500344E+03</rscale>
<asrwt>0</asrwt>
<pdfrwt beam="2">  1        4 0.18148870E-01 0.12500344E+03</pdfrwt>
<pdfrwt beam="1">  1       -4 0.50945714E-02 0.12500344E+03</pdfrwt>
<totfact> 0.99080706E+03</totfact>
</mgrwt>
</event>
<event>
 5    1  0.3267085E-002  0.1249980E+03  0.7818608E-02  0.1235072E+00
          4   -1    0    0  501    0  0.00000000000E+00  0.00000000000E+00  0.54186365472E+02  0.54201246324E+02  0.12700000000E+01 0. -1.
         -4   -1    0    0    0  501 -0.00000000000E+00 -0.00000000000E+00 -0.72056450676E+02  0.72067641727E+02  0.12700000000E+01 0. -1.
         25    2    1    2    0    0  0.00000000000E+00  0.00000000000E+00 -0.17870085204E+02  0.12626888805E+03  0.12499796856E+03 0.  0.
    9000005    1    3    3    0    0  0.27335878505E+02 -0.54916667149E+02  0.31038680957E+01  0.61430648552E+02  0.10000000000E+01 0.  0.
    9000005    1    3    3    0    0 -0.27335878505E+02  0.54916667149E+02 -0.20973953300E+02  0.64838239499E+02  0.10000000000E+01 0.  0.
<mgrwt>
<rscale>  0 0.12499797E+03</rscale>
<asrwt>0</asrwt>
<pdfrwt beam="1">  1        4 0.83383694E-02 0.12499797E+03</pdfrwt>
<pdfrwt beam="2">  1       -4 0.11087613E-01 0.12499797E+03</pdfrwt>
<totfact> 0.10425551E+04</totfact>
</mgrwt>
</event>
<event>
 5    1  0.3267085E-002  0.1249990E+03  0.7818608E-02  0.1235071E+00
         -4   -1    0    0    0  501 -0.00000000000E+00  0.00000000000E+00  0.75771523820E+03  0.75771630251E+03  0.12700000000E+01 0. -1.
          4   -1    0    0  501    0  0.00000000000E+00 -0.00000000000E+00 -0.50759151589E+01  0.52323813604E+01  0.12700000000E+01 0. -1.
         25    2    1    2    0    0  0.00000000000E+00  0.00000000000E+00  0.75263932304E+03  0.76294868387E+03  0.12499897457E+03 0.  0.
    9000005    1    3    3    0    0  0.20817679807E+02  0.58704245082E+02  0.34542431419E+03  0.35099646867E+03  0.10000000000E+01 0.  0.
    9000005    1    3    3    0    0 -0.20817679807E+02 -0.58704245082E+02  0.40721500885E+03  0.41195221521E+03  0.10000000000E+01 0.  0.
<mgrwt>
<rscale>  0 0.12499897E+03</rscale>
<asrwt>0</asrwt>
<pdfrwt beam="2">  1        4 0.79302792E-03 0.12499897E+03</pdfrwt>
<pdfrwt beam="1">  1       -4 0.11658367E+00 0.12499897E+03</pdfrwt>
<totfact> 0.39963231E+03</totfact>
</mgrwt>
</event>
<event>
 5    1  0.3267085E-002  0.1249999E+03  0.7818608E-02  0.1235069E+00
          4   -1    0    0  501    0  0.00000000000E+00  0.00000000000E+00  0.54155416787E+02  0.54170306141E+02  0.12700000000E+01 0. -1.
         -4   -1    0    0    0  501 -0.00000000000E+00 -0.00000000000E+00 -0.72099846196E+02  0.72111030512E+02  0.12700000000E+01 0. -1.
         25    2    1    2    0    0  0.00000000000E+00  0.00000000000E+00 -0.17944429409E+02  0.12628133665E+03  0.12499989376E+03 0.  0.
    9000005    1    3    3    0    0  0.45398486773E+02  0.24537463639E+02  0.26633006441E+02  0.58081208280E+02  0.10000000000E+01 0.  0.
    9000005    1    3    3    0    0 -0.45398486773E+02 -0.24537463639E+02 -0.44577435849E+02  0.68200128373E+02  0.10000000000E+01 0.  0.
<mgrwt>
<rscale>  0 0.12499989E+03</rscale>
<asrwt>0</asrwt>
<pdfrwt beam="1">  1        4 0.83336082E-02 0.12499989E+03</pdfrwt>
<pdfrwt beam="2">  1       -4 0.11094290E-01 0.12499989E+03</pdfrwt>
<totfact> 0.10424826E+04</totfact>
</mgrwt>
</event>
<event>
 5    1  0.3267085E-002  0.1250053E+03  0.7818608E-02  0.1235061E+00
         -4   -1    0    0    0  501 -0.00000000000E+00  0.00000000000E+00  0.17696784340E+03  0.17697240039E+03  0.12700000000E+01 0.  1.
          4   -1    0    0  501    0  0.00000000000E+00 -0.00000000000E+00 -0.22051988995E+02  0.22088529119E+02  0.12700000000E+01 0.  1.
         25    2    1    2    0    0  0.00000000000E+00  0.00000000000E+00  0.15491585441E+03  0.19906092951E+03  0.12500532672E+03 0.  0.
    9000005    1    3    3    0    0  0.32055470113E+02  0.79723246483E+01 -0.70224723276E+01  0.33785000253E+02  0.10000000000E+01 0.  0.
    9000005    1    3    3    0    0 -0.32055470113E+02 -0.79723246483E+01  0.16193832674E+03  0.16527592925E+03  0.10000000000E+01 0.  0.
<mgrwt>
<rscale>  0 0.12500533E+03</rscale>
<asrwt>0</asrwt>
<pdfrwt beam="2">  1        4 0.33957750E-02 0.12500533E+03</pdfrwt>
<pdfrwt beam="1">  1       -4 0.27228983E-01 0.12500533E+03</pdfrwt>
<totfact> 0.90283367E+03</totfact>
</mgrwt>
</event>
<event>
 5    1  0.3267085E-002  0.1249983E+03  0.7818608E-02  0.1235072E+00
         -4   -1    0    0    0  501 -0.00000000000E+00  0.00000000000E+00  0.69959753085E+01  0.71103143754E+01  0.12700000000E+01 0. -1.
          4   -1    0    0  501    0  0.00000000000E+00 -0.00000000000E+00 -0.55370056330E+03  0.55370201977E+03  0.12700000000E+01 0. -1.
         25    2    1    2    0    0  0.00000000000E+00  0.00000000000E+00 -0.54670458799E+03  0.56081233415E+03  0.12499827039E+03 0.  0.
    9000005    1    3    3    0    0 -0.30242619808E+02  0.50514282087E+02 -0.17936627210E+03  0.18878444935E+03  0.10000000000E+01 0.  0.
    9000005    1    3    3    0    0  0.30242619808E+02 -0.50514282087E+02 -0.36733831589E+03  0.37202788480E+03  0.10000000000E+01 0.  0.
<mgrwt>
<rscale>  0 0.12499827E+03</rscale>
<asrwt>0</asrwt>
<pdfrwt beam="2">  1        4 0.85193576E-01 0.12499827E+03</pdfrwt>
<pdfrwt beam="1">  1       -4 0.10852117E-02 0.12499827E+03</pdfrwt>
<totfact> 0.51440487E+03</totfact>
</mgrwt>
</event>
<event>
 4    1  0.3267085E-002  0.1245697E+03  0.7818608E-02  0.1235743E+00
         -4   -1    0    0    0  501 -0.00000000000E+00  0.00000000000E+00  0.33720809396E+03  0.33721048551E+03  0.12700000000E+01 0. -1.
          4   -1    0    0  501    0  0.00000000000E+00 -0.00000000000E+00 -0.11466988188E+02  0.11537101807E+02  0.12700000000E+01 0. -1.
    9000005    1    1    2    0    0 -0.59618696611E+02 -0.17958063080E+02  0.15941679466E+03  0.17114787593E+03  0.10000000000E+01 0.  0.
    9000005    1    1    2    0    0  0.59618696611E+02  0.17958063080E+02  0.16632431111E+03  0.17759971138E+03  0.10000000000E+01 0.  0.
<mgrwt>
<rscale>  0 0.12456971E+03</rscale>
<asrwt>0</asrwt>
<pdfrwt beam="2">  1        4 0.17697292E-02 0.12456971E+03</pdfrwt>
<pdfrwt beam="1">  1       -4 0.51883749E-01 0.12456971E+03</pdfrwt>
<totfact> 0.70532069E+03</totfact>
</mgrwt>
</event>
<event>
 5    1  0.3267085E-002  0.1249919E+03  0.7818608E-02  0.1235082E+00
          4   -1    0    0  501    0  0.00000000000E+00  0.00000000000E+00  0.31914167034E+03  0.31914419726E+03  0.12700000000E+01 0. -1.
         -4   -1    0    0    0  501 -0.00000000000E+00 -0.00000000000E+00 -0.12202744131E+02  0.12268653729E+02  0.12700000000E+01 0. -1.
         25    2    1    2    0    0  0.00000000000E+00  0.00000000000E+00  0.30693892621E+03  0.33141285099E+03  0.12499189326E+03 0.  0.
    9000005    1    3    3    0    0  0.42009151540E+02 -0.21454947417E+02  0.26213658326E+03  0.26634877861E+03  0.10000000000E+01 0.  0.
    9000005    1    3    3    0    0 -0.42009151540E+02  0.21454947417E+02  0.44802342945E+02  0.65064072383E+02  0.10000000000E+01 0.  0.
<mgrwt>
<rscale>  0 0.12499189E+03</rscale>
<asrwt>0</asrwt>
<pdfrwt beam="1">  1        4 0.49103975E-01 0.12499189E+03</pdfrwt>
<pdfrwt beam="2">  1       -4 0.18826099E-02 0.12499189E+03</pdfrwt>
<totfact> 0.71831871E+03</totfact>
</mgrwt>
</event>
<event>
 5    1  0.3267085E-002  0.1249926E+03  0.7818608E-02  0.1235081E+00
         -4   -1    0    0    0  501 -0.00000000000E+00  0.00000000000E+00  0.11067743316E+03  0.11068471941E+03  0.12700000000E+01 0. -1.
          4   -1    0    0  501    0  0.00000000000E+00 -0.00000000000E+00 -0.35269944419E+02  0.35292802090E+02  0.12700000000E+01 0. -1.
         25    2    1    2    0    0  0.00000000000E+00  0.00000000000E+00  0.75407488741E+02  0.14597752150E+03  0.12499258948E+03 0.  0.
    9000005    1    3    3    0    0 -0.32328317634E+02 -0.51707377151E+00  0.10015470581E+03  0.10524900276E+03  0.10000000000E+01 0.  0.
    9000005    1    3    3    0    0  0.32328317634E+02  0.51707377151E+00 -0.24747217067E+02  0.40728518741E+02  0.10000000000E+01 0.  0.
<mgrwt>
<rscale>  0 0.12499259E+03</rscale>
<asrwt>0</asrwt>
<pdfrwt beam="2">  1        4 0.54284641E-02 0.12499259E+03</pdfrwt>
<pdfrwt beam="1">  1       -4 0.17029616E-01 0.12499259E+03</pdfrwt>
<totfact> 0.10012836E+04</totfact>
</mgrwt>
</event>
<event>
 5    1  0.3267085E-002  0.1249876E+03  0.7818608E-02  0.1235089E+00
          4   -1    0    0  501    0  0.00000000000E+00  0.00000000000E+00  0.32260813963E+02  0.32285802105E+02  0.12700000000E+01 0.  1.
         -4   -1    0    0    0  501 -0.00000000000E+00 -0.00000000000E+00 -0.12098419359E+03  0.12099085915E+03  0.12700000000E+01 0.  1.
         25    2    1    2    0    0  0.00000000000E+00  0.00000000000E+00 -0.88723379624E+02  0.15327666125E+03  0.12498758656E+03 0.  0.
    9000005    1    3    3    0    0 -0.99611469227E+01  0.10603964936E+02  0.30160803568E+02  0.33501381945E+02  0.10000000000E+01 0.  0.
    9000005    1    3    3    0    0  0.99611469227E+01 -0.10603964936E+02 -0.11888418319E+03  0.11977527931E+03  0.10000000000E+01 0.  0.
<mgrwt>
<rscale>  0 0.12498759E+03</rscale>
<asrwt>0</asrwt>
<pdfrwt beam="1">  1        4 0.49656371E-02 0.12498759E+03</pdfrwt>
<pdfrwt beam="2">  1       -4 0.18615388E-01 0.12498759E+03</pdfrwt>
<totfact> 0.98682066E+03</totfact>
</mgrwt>
</event>
<event>
 5    1  0.3267085E-002  0.1249604E+03  0.7818608E-02  0.1235131E+00
         -4   -1    0    0    0  501 -0.00000000000E+00  0.00000000000E+00  0.24951313049E+02  0.24983613086E+02  0.12700000000E+01 0. -1.
          4   -1    0    0  501    0  0.00000000000E+00 -0.00000000000E+00 -0.15631972027E+03  0.15632487916E+03  0.12700000000E+01 0. -1.
         25    2    1    2    0    0  0.00000000000E+00  0.00000000000E+00 -0.13136840722E+03  0.18130849224E+03  0.12496043752E+03 0.  0.
    9000005    1    3    3    0    0  0.54001106559E+02  0.29303162065E+02 -0.82098475242E+02  0.10254732787E+03  0.10000000000E+01 0.  0.
    9000005    1    3    3    0    0 -0.54001106559E+02 -0.29303162065E+02 -0.49269931975E+02  0.78761164373E+02  0.10000000000E+01 0.  0.
<mgrwt>
<rscale>  0 0.12496044E+03</rscale>
<asrwt>0</asrwt>
<pdfrwt beam="2">  1        4 0.24052069E-01 0.12496044E+03</pdfrwt>
<pdfrwt beam="1">  1       -4 0.38415451E-02 0.12496044E+03</pdfrwt>
<totfact> 0.93464873E+03</totfact>
</mgrwt>
</event>
<event>
 5    1  0.3267085E-002  0.1250012E+03  0.7818608E-02  0.1235067E+00
         -4   -1    0    0    0  501 -0.00000000000E+00  0.00000000000E+00  0.35163182391E+03  0.35163411735E+03  0.12700000000E+01 0. -1.
          4   -1    0    0  501    0  0.00000000000E+00 -0.00000000000E+00 -0.11070505319E+02  0.11143113929E+02  0.12700000000E+01 0. -1.
         25    2    1    2    0    0  0.00000000000E+00  0.00000000000E+00  0.34056131859E+03  0.36277723128E+03  0.12500123126E+03 0.  0.
    9000005    1    3    3    0    0 -0.62417290996E+01 -0.42775131274E+02  0.39306818698E+02  0.58435409076E+02  0.10000000000E+01 0.  0.
    9000005    1    3    3    0    0  0.62417290996E+01  0.42775131274E+02  0.30125449989E+03  0.30434182221E+03  0.10000000000E+01 0.  0.
<mgrwt>
<rscale>  0 0.12500123E+03</rscale>
<asrwt>0</asrwt>
<pdfrwt beam="2">  1        4 0.17089164E-02 0.12500123E+03</pdfrwt>
<pdfrwt beam="1">  1       -4 0.54102965E-01 0.12500123E+03</pdfrwt>
<totfact> 0.68339542E+03</totfact>
</mgrwt>
</event>
<event>
 5    1  0.3267085E-002  0.1250029E+03  0.7818608E-02  0.1235065E+00
          4   -1    0    0  501    0  0.00000000000E+00  0.00000000000E+00  0.47963458530E+03  0.47963626668E+03  0.12700000000E+01 0. -1.
         -4   -1    0    0    0  501 -0.00000000000E+00 -0.00000000000E+00 -0.80933823775E+01  0.81924195637E+01  0.12700000000E+01 0. -1.
         25    2    1    2    0    0  0.00000000000E+00  0.00000000000E+00  0.47154120292E+03  0.48782868624E+03  0.12500288425E+03 0.  0.
    9000005    1    3    3    0    0  0.21766251752E+02  0.57954582899E+02  0.26909720825E+03  0.27612825079E+03  0.10000000000E+01 0.  0.
    9000005    1    3    3    0    0 -0.21766251752E+02 -0.57954582899E+02  0.20244399467E+03  0.21170043546E+03  0.10000000000E+01 0.  0.
<mgrwt>
<rscale>  0 0.12500288E+03</rscale>
<asrwt>0</asrwt>
<pdfrwt beam="1">  1        4 0.73797708E-01 0.12500288E+03</pdfrwt>
<pdfrwt beam="2">  1       -4 0.12528829E-02 0.12500288E+03</pdfrwt>
<totfact> 0.56817614E+03</totfact>
</mgrwt>
</event>
<event>
 5    1  0.3267085E-002  0.1250041E+03  0.7818608E-02  0.1235063E+00
         -4   -1    0    0    0  501 -0.00000000000E+00  0.00000000000E+00  0.53756411236E+01  0.55236235832E+01  0.12700000000E+01 0. -1.
          4   -1    0    0  501    0  0.00000000000E+00 -0.00000000000E+00 -0.71668949915E+03  0.71669062439E+03  0.12700000000E+01 0. -1.
         25    2    1    2    0    0  0.00000000000E+00  0.00000000000E+00 -0.71131385803E+03  0.72221424798E+03  0.12500406137E+03 0.  0.
    9000005    1    3    3    0    0  0.54026822963E+02  0.24814044049E+02 -0.46692036397E+03  0.47069125833E+03  0.10000000000E+01 0.  0.
    9000005    1    3    3    0    0 -0.54026822963E+02 -0.24814044049E+02 -0.24439349406E+03  0.25152298964E+03  0.10000000000E+01 0.  0.
<mgrwt>
<rscale>  0 0.12500406E+03</rscale>
<asrwt>0</asrwt>
<pdfrwt beam="2">  1        4 0.11027132E+00 0.12500406E+03</pdfrwt>
<pdfrwt beam="1">  1       -4 0.83849210E-03 0.12500406E+03</pdfrwt>
<totfact> 0.41935953E+03</totfact>
</mgrwt>
</event>
<event>
 5    1  0.3267085E-002  0.1249990E+03  0.7818608E-02  0.1235071E+00
         -4   -1    0    0    0  501 -0.00000000000E+00  0.00000000000E+00  0.26089365821E+02  0.26120258592E+02  0.12700000000E+01 0. -1.
          4   -1    0    0  501    0  0.00000000000E+00 -0.00000000000E+00 -0.14960109972E+03  0.14960649029E+03  0.12700000000E+01 0. -1.
         25    2    1    2    0    0  0.00000000000E+00  0.00000000000E+00 -0.12351173390E+03  0.17572674888E+03  0.12499896745E+03 0.  0.
    9000005    1    3    3    0    0  0.15389278197E+02 -0.22829739837E+02  0.17110304911E+02  0.32431303375E+02  0.10000000000E+01 0.  0.
    9000005    1    3    3    0    0 -0.15389278197E+02  0.22829739837E+02 -0.14062203881E+03  0.14329544551E+03  0.10000000000E+01 0.  0.
<mgrwt>
<rscale>  0 0.12499897E+03</rscale>
<asrwt>0</asrwt>
<pdfrwt beam="2">  1        4 0.23018344E-01 0.12499897E+03</pdfrwt>
<pdfrwt beam="1">  1       -4 0.40165397E-02 0.12499897E+03</pdfrwt>
<totfact> 0.94394093E+03</totfact>
</mgrwt>
</event>
<event>
 5    1  0.3267085E-002  0.1249971E+03  0.7818608E-02  0.1235074E+00
         -4   -1    0    0    0  501 -0.00000000000E+00  0.00000000000E+00  0.15059137565E+02  0.15112594886E+02  0.12700000000E+01 0. -1.
          4   -1    0    0  501    0  0.00000000000E+00 -0.00000000000E+00 -0.25886723971E+03  0.25887035499E+03  0.12700000000E+01 0. -1.
         25    2    1    2    0    0  0.00000000000E+00  0.00000000000E+00 -0.24380810214E+03  0.27398294988E+03  0.12499706458E+03 0.  0.
    9000005    1    3    3    0    0 -0.14049424084E+02  0.49534127387E+02 -0.44282694876E+02  0.67918871889E+02  0.10000000000E+01 0.  0.
    9000005    1    3    3    0    0  0.14049424084E+02 -0.49534127387E+02 -0.19952540727E+03  0.20606407799E+03  0.10000000000E+01 0.  0.
<mgrwt>
<rscale>  0 0.12499706E+03</rscale>
<asrwt>0</asrwt>
<pdfrwt beam="2">  1        4 0.39830077E-01 0.12499706E+03</pdfrwt>
<pdfrwt beam="1">  1       -4 0.23211423E-02 0.12499706E+03</pdfrwt>
<totfact> 0.78987904E+03</totfact>
</mgrwt>
</event>
<event>
 5    1  0.3267085E-002  0.1249985E+03  0.7818608E-02  0.1235072E+00
          4   -1    0    0  501    0  0.00000000000E+00  0.00000000000E+00  0.51221652191E+02  0.51237394091E+02  0.12700000000E+01 0.  1.
         -4   -1    0    0    0  501 -0.00000000000E+00 -0.00000000000E+00 -0.76227169472E+02  0.76237748299E+02  0.12700000000E+01 0.  1.
         25    2    1    2    0    0  0.00000000000E+00  0.00000000000E+00 -0.25005517280E+02  0.12747514239E+03  0.12499854412E+03 0.  0.
    9000005    1    3    3    0    0  0.22854887766E+02  0.91358467283E+01  0.46075263926E+02  0.52246909345E+02  0.10000000000E+01 0.  0.
    9000005    1    3    3    0    0 -0.22854887766E+02 -0.91358467283E+01 -0.71080781206E+02  0.75228233045E+02  0.10000000000E+01 0.  0.
<mgrwt>
<rscale>  0 0.12499854E+03</rscale>
<asrwt>0</asrwt>
<pdfrwt beam="1">  1        4 0.78822788E-02 0.12499854E+03</pdfrwt>
<pdfrwt beam="2">  1       -4 0.11729282E-01 0.12499854E+03</pdfrwt>
<totfact> 0.10399181E+04</totfact>
</mgrwt>
</event>
<event>
 5    1  0.3267085E-002  0.1249998E+03  0.7818608E-02  0.1235070E+00
          4   -1    0    0  501    0  0.00000000000E+00  0.00000000000E+00  0.17853611584E+03  0.17854063280E+03  0.12700000000E+01 0.  1.
         -4   -1    0    0    0  501 -0.00000000000E+00 -0.00000000000E+00 -0.21856034807E+02  0.21892901988E+02  0.12700000000E+01 0.  1.
         25    2    1    2    0    0  0.00000000000E+00  0.00000000000E+00  0.15668008104E+03  0.20043353479E+03  0.12499981629E+03 0.  0.
    9000005    1    3    3    0    0  0.56358224837E+02 -0.15864942177E+02  0.43308973069E+02  0.72832774527E+02  0.10000000000E+01 0.  0.
    9000005    1    3    3    0    0 -0.56358224837E+02  0.15864942177E+02  0.11337110797E+03  0.12760076026E+03  0.10000000000E+01 0.  0.
<mgrwt>
<rscale>  0 0.12499982E+03</rscale>
<asrwt>0</asrwt>
<pdfrwt beam="1">  1        4 0.27470278E-01 0.12499982E+03</pdfrwt>
<pdfrwt beam="2">  1       -4 0.33656503E-02 0.12499982E+03</pdfrwt>
<totfact> 0.90062808E+03</totfact>
</mgrwt>
</event>
<event>
 5    1  0.3267085E-002  0.1249884E+03  0.7818608E-02  0.1235087E+00
          4   -1    0    0  501    0  0.00000000000E+00  0.00000000000E+00  0.54148773337E+02  0.54163664517E+02  0.12700000000E+01 0. -1.
         -4   -1    0    0    0  501 -0.00000000000E+00 -0.00000000000E+00 -0.72095436508E+02  0.72106621508E+02  0.12700000000E+01 0. -1.
         25    2    1    2    0    0  0.00000000000E+00  0.00000000000E+00 -0.17946663170E+02  0.12627028603E+03  0.12498840912E+03 0.  0.
    9000005    1    3    3    0    0 -0.72259047528E+00 -0.15995681800E+02  0.52045975149E+02  0.54462533016E+02  0.10000000000E+01 0.  0.
    9000005    1    3    3    0    0  0.72259047528E+00  0.15995681800E+02 -0.69992638320E+02  0.71807753009E+02  0.10000000000E+01 0.  0.
<mgrwt>
<rscale>  0 0.12498841E+03</rscale>
<asrwt>0</asrwt>
<pdfrwt beam="1">  1        4 0.83325863E-02 0.12498841E+03</pdfrwt>
<pdfrwt beam="2">  1       -4 0.11093612E-01 0.12498841E+03</pdfrwt>
<totfact> 0.10427770E+04</totfact>
</mgrwt>
</event>
<event>
 5    1  0.3267085E-002  0.1249969E+03  0.7818608E-02  0.1235074E+00
         -4   -1    0    0    0  501 -0.00000000000E+00  0.00000000000E+00  0.63524981885E+02  0.63537675623E+02  0.12700000000E+01 0.  1.
          4   -1    0    0  501    0  0.00000000000E+00 -0.00000000000E+00 -0.61463155655E+02  0.61476275124E+02  0.12700000000E+01 0.  1.
         25    2    1    2    0    0  0.00000000000E+00  0.00000000000E+00  0.20618262302E+01  0.12501395075E+03  0.12499694698E+03 0.  0.
    9000005    1    3    3    0    0  0.29860125957E+02  0.50200886135E+02  0.23244362154E+02  0.62873336660E+02  0.10000000000E+01 0.  0.
    9000005    1    3    3    0    0 -0.29860125957E+02 -0.50200886135E+02 -0.21182535924E+02  0.62140614086E+02  0.10000000000E+01 0.  0.
<mgrwt>
<rscale>  0 0.12499695E+03</rscale>
<asrwt>0</asrwt>
<pdfrwt beam="2">  1        4 0.94578557E-02 0.12499695E+03</pdfrwt>
<pdfrwt beam="1">  1       -4 0.97750598E-02 0.12499695E+03</pdfrwt>
<totfact> 0.10453281E+04</totfact>
</mgrwt>
</event>
<event>
 5    1  0.3267085E-002  0.1249982E+03  0.7818608E-02  0.1235072E+00
          4   -1    0    0  501    0  0.00000000000E+00  0.00000000000E+00  0.65342939383E+02  0.65355280026E+02  0.12700000000E+01 0. -1.
         -4   -1    0    0    0  501 -0.00000000000E+00 -0.00000000000E+00 -0.59754287780E+02  0.59767782359E+02  0.12700000000E+01 0. -1.
         25    2    1    2    0    0  0.00000000000E+00  0.00000000000E+00  0.55886516028E+01  0.12512306239E+03  0.12499819084E+03 0.  0.
    9000005    1    3    3    0    0 -0.22413050689E+02 -0.21511464279E+02 -0.51482060097E+02  0.60137263394E+02  0.10000000000E+01 0.  0.
    9000005    1    3    3    0    0  0.22413050689E+02  0.21511464279E+02  0.57070711700E+02  0.64985798991E+02  0.10000000000E+01 0.  0.
<mgrwt>
<rscale>  0 0.12499819E+03</rscale>
<asrwt>0</asrwt>
<pdfrwt beam="1">  1        4 0.10054747E-01 0.12499819E+03</pdfrwt>
<pdfrwt beam="2">  1       -4 0.91949548E-02 0.12499819E+03</pdfrwt>
<totfact> 0.10450618E+04</totfact>
</mgrwt>
</event>
<event>
 4    1  0.3267085E-002  0.1250629E+03  0.7818608E-02  0.1234971E+00
          4   -1    0    0  501    0  0.00000000000E+00  0.00000000000E+00  0.44420546615E+02  0.44438697794E+02  0.12700000000E+01 0. -1.
         -4   -1    0    0    0  501 -0.00000000000E+00 -0.00000000000E+00 -0.87985653922E+02  0.87994819143E+02  0.12700000000E+01 0. -1.
    9000005    1    1    2    0    0  0.53015314019E+02  0.25592790853E+02 -0.44084779230E+02  0.73553261137E+02  0.10000000000E+01 0.  0.
    9000005    1    1    2    0    0 -0.53015314019E+02 -0.25592790853E+02  0.51967192380E+00  0.58880255800E+02  0.10000000000E+01 0.  0.
<mgrwt>
<rscale>  0 0.12506286E+03</rscale>
<asrwt>0</asrwt>
<pdfrwt beam="1">  1        4 0.68360315E-02 0.12506286E+03</pdfrwt>
<pdfrwt beam="2">  1       -4 0.13538356E-01 0.12506286E+03</pdfrwt>
<totfact> 0.10277874E+04</totfact>
</mgrwt>
</event>
<event>
 5    1  0.3267085E-002  0.1249998E+03  0.7818608E-02  0.1235070E+00
          4   -1    0    0  501    0  0.00000000000E+00  0.00000000000E+00  0.11312257544E+02  0.11383324239E+02  0.12700000000E+01 0. -1.
         -4   -1    0    0    0  501 -0.00000000000E+00 -0.00000000000E+00 -0.34415678170E+03  0.34415912495E+03  0.12700000000E+01 0. -1.
         25    2    1    2    0    0  0.00000000000E+00  0.00000000000E+00 -0.33284452415E+03  0.35554244919E+03  0.12499982367E+03 0.  0.
    9000005    1    3    3    0    0 -0.14099711809E+02 -0.60621255166E+02 -0.15045828922E+03  0.16282639604E+03  0.10000000000E+01 0.  0.
    9000005    1    3    3    0    0  0.14099711809E+02  0.60621255166E+02 -0.18238623493E+03  0.19271605316E+03  0.10000000000E+01 0.  0.
<mgrwt>
<rscale>  0 0.12499982E+03</rscale>
<asrwt>0</asrwt>
<pdfrwt beam="1">  1        4 0.17459945E-02 0.12499982E+03</pdfrwt>
<pdfrwt beam="2">  1       -4 0.52952836E-01 0.12499982E+03</pdfrwt>
<totfact> 0.69119365E+03</totfact>
</mgrwt>
</event>
<event>
 5    1  0.3267085E-002  0.1250018E+03  0.7818608E-02  0.1235066E+00
         -4   -1    0    0    0  501 -0.00000000000E+00  0.00000000000E+00  0.25561893564E+03  0.25562209051E+03  0.12700000000E+01 0.  1.
          4   -1    0    0  501    0  0.00000000000E+00 -0.00000000000E+00 -0.15252331787E+02  0.15305114340E+02  0.12700000000E+01 0.  1.
         25    2    1    2    0    0  0.00000000000E+00  0.00000000000E+00  0.24036660385E+03  0.27092720485E+03  0.12500178431E+03 0.  0.
    9000005    1    3    3    0    0 -0.19580819744E+02 -0.10747220997E+02  0.24668240028E+03  0.24769359674E+03  0.10000000000E+01 0.  0.
    9000005    1    3    3    0    0  0.19580819744E+02  0.10747220997E+02 -0.63157964294E+01  0.23233608104E+02  0.10000000000E+01 0.  0.
<mgrwt>
<rscale>  0 0.12500178E+03</rscale>
<asrwt>0</asrwt>
<pdfrwt beam="2">  1        4 0.23508156E-02 0.12500178E+03</pdfrwt>
<pdfrwt beam="1">  1       -4 0.39330291E-01 0.12500178E+03</pdfrwt>
<totfact> 0.79393474E+03</totfact>
</mgrwt>
</event>
<event>
 5    1  0.3267085E-002  0.1250023E+03  0.7818608E-02  0.1235066E+00
         -4   -1    0    0    0  501 -0.00000000000E+00  0.00000000000E+00  0.10145049627E+03  0.10145844516E+03  0.12700000000E+01 0.  1.
          4   -1    0    0  501    0  0.00000000000E+00 -0.00000000000E+00 -0.38485470623E+02  0.38506419583E+02  0.12700000000E+01 0.  1.
         25    2    1    2    0    0  0.00000000000E+00  0.00000000000E+00  0.62965025647E+02  0.13996486474E+03  0.12500227561E+03 0.  0.
    9000005    1    3    3    0    0  0.51364632575E+02 -0.24090265467E+02  0.21403035961E+01  0.56782455647E+02  0.10000000000E+01 0.  0.
    9000005    1    3    3    0    0 -0.51364632575E+02  0.24090265467E+02  0.60824722051E+02  0.83182409093E+02  0.10000000000E+01 0.  0.
<mgrwt>
<rscale>  0 0.12500228E+03</rscale>
<asrwt>0</asrwt>
<pdfrwt beam="2">  1        4 0.59230647E-02 0.12500228E+03</pdfrwt>
<pdfrwt beam="1">  1       -4 0.15609991E-01 0.12500228E+03</pdfrwt>
<totfact> 0.10133794E+04</totfact>
</mgrwt>
</event>
<event>
 5    1  0.3267085E-002  0.1249987E+03  0.7818608E-02  0.1235071E+00
          4   -1    0    0  501    0  0.00000000000E+00  0.00000000000E+00  0.63733455607E+03  0.63733582142E+03  0.12700000000E+01 0. -1.
         -4   -1    0    0    0  501 -0.00000000000E+00 -0.00000000000E+00 -0.60618374789E+01  0.61934460215E+01  0.12700000000E+01 0. -1.
         25    2    1    2    0    0  0.00000000000E+00  0.00000000000E+00  0.63127271859E+03  0.64352926744E+03  0.12499869124E+03 0.  0.
    9000005    1    3    3    0    0  0.25247348626E+02 -0.13515113157E+01  0.21421133759E+02  0.33152981269E+02  0.10000000000E+01 0.  0.
    9000005    1    3    3    0    0 -0.25247348626E+02  0.13515113157E+01  0.60985158483E+03  0.61037628617E+03  0.10000000000E+01 0.  0.
<mgrwt>
<rscale>  0 0.12499869E+03</rscale>
<asrwt>0</asrwt>
<pdfrwt beam="1">  1        4 0.98061614E-01 0.12499869E+03</pdfrwt>
<pdfrwt beam="2">  1       -4 0.94281219E-03 0.12499869E+03</pdfrwt>
<totfact> 0.46231612E+03</totfact>
</mgrwt>
</event>
<event>
 5    1  0.3267085E-002  0.1249974E+03  0.7818608E-02  0.1235073E+00
         -4   -1    0    0    0  501 -0.00000000000E+00  0.00000000000E+00  0.33147073852E+01  0.35496739357E+01  0.12700000000E+01 0. -1.
          4   -1    0    0  501    0  0.00000000000E+00 -0.00000000000E+00 -0.11378392356E+04  0.11378399443E+04  0.12700000000E+01 0. -1.
         25    2    1    2    0    0  0.00000000000E+00  0.00000000000E+00 -0.11345245282E+04  0.11413896183E+04  0.12499742246E+03 0.  0.
    9000005    1    3    3    0    0  0.55022548725E+02  0.11231454075E+02 -0.31694747455E+03  0.32188558224E+03  0.10000000000E+01 0.  0.
    9000005    1    3    3    0    0 -0.55022548725E+02 -0.11231454075E+02 -0.81757705363E+03  0.81950403602E+03  0.10000000000E+01 0.  0.
<mgrwt>
<rscale>  0 0.12499742E+03</rscale>
<asrwt>0</asrwt>
<pdfrwt beam="2">  1        4 0.17507002E+00 0.12499742E+03</pdfrwt>
<pdfrwt beam="1">  1       -4 0.52808476E-03 0.12499742E+03</pdfrwt>
<totfact> 0.26301884E+03</totfact>
</mgrwt>
</event>
<event>
 5    1  0.3267085E-002  0.1250019E+03  0.7818608E-02  0.1235066E+00
          4   -1    0    0  501    0  0.00000000000E+00  0.00000000000E+00  0.40475310498E+02  0.40495230089E+02  0.12700000000E+01 0.  1.
         -4   -1    0    0    0  501 -0.00000000000E+00 -0.00000000000E+00 -0.96464468534E+02  0.96472828245E+02  0.12700000000E+01 0.  1.
         25    2    1    2    0    0  0.00000000000E+00  0.00000000000E+00 -0.55989158036E+02  0.13696805833E+03  0.12500185273E+03 0.  0.
    9000005    1    3    3    0    0  0.28418195854E+02  0.29185567322E+02 -0.79923018246E+02  0.89711092074E+02  0.10000000000E+01 0.  0.
    9000005    1    3    3    0    0 -0.28418195854E+02 -0.29185567322E+02  0.23933860210E+02  0.47256966260E+02  0.10000000000E+01 0.  0.
<mgrwt>
<rscale>  0 0.12500185E+03</rscale>
<asrwt>0</asrwt>
<pdfrwt beam="1">  1        4 0.62291462E-02 0.12500185E+03</pdfrwt>
<pdfrwt beam="2">  1       -4 0.14842863E-01 0.12500185E+03</pdfrwt>
<totfact> 0.10196328E+04</totfact>
</mgrwt>
</event>
<event>
 5    1  0.3267085E-002  0.1249977E+03  0.7818608E-02  0.1235073E+00
          4   -1    0    0  501    0  0.00000000000E+00  0.00000000000E+00  0.92487077053E+01  0.93354964634E+01  0.12700000000E+01 0. -1.
         -4   -1    0    0    0  501 -0.00000000000E+00 -0.00000000000E+00 -0.42028096979E+03  0.42028288862E+03  0.12700000000E+01 0. -1.
         25    2    1    2    0    0  0.00000000000E+00  0.00000000000E+00 -0.41103226209E+03  0.42961838509E+03  0.12499774529E+03 0.  0.
    9000005    1    3    3    0    0  0.27275092301E+01 -0.61240565713E+02 -0.24722489632E+03  0.25471355590E+03  0.10000000000E+01 0.  0.
    9000005    1    3    3    0    0 -0.27275092301E+01  0.61240565713E+02 -0.16380736576E+03  0.17490482919E+03  0.10000000000E+01 0.  0.
<mgrwt>
<rscale>  0 0.12499775E+03</rscale>
<asrwt>0</asrwt>
<pdfrwt beam="1">  1        4 0.14297021E-02 0.12499775E+03</pdfrwt>
<pdfrwt beam="2">  1       -4 0.64665419E-01 0.12499775E+03</pdfrwt>
<totfact> 0.61773675E+03</totfact>
</mgrwt>
</event>
<event>
 5    1  0.3267085E-002  0.1249998E+03  0.7818608E-02  0.1235070E+00
         -4   -1    0    0    0  501 -0.00000000000E+00  0.00000000000E+00  0.74891901485E+03  0.74892009167E+03  0.12700000000E+01 0.  1.
          4   -1    0    0  501    0  0.00000000000E+00 -0.00000000000E+00 -0.51374301125E+01  0.52920778680E+01  0.12700000000E+01 0.  1.
         25    2    1    2    0    0  0.00000000000E+00  0.00000000000E+00  0.74378158474E+03  0.75421216953E+03  0.12499980353E+03 0.  0.
    9000005    1    3    3    0    0 -0.25298257691E+02  0.42458041923E+02  0.14114188745E+03  0.14954838535E+03  0.10000000000E+01 0.  0.
    9000005    1    3    3    0    0  0.25298257691E+02 -0.42458041923E+02  0.60263969728E+03  0.60466378419E+03  0.10000000000E+01 0.  0.
<mgrwt>
<rscale>  0 0.12499980E+03</rscale>
<asrwt>0</asrwt>
<pdfrwt beam="2">  1        4 0.80235308E-03 0.12499980E+03</pdfrwt>
<pdfrwt beam="1">  1       -4 0.11523023E+00 0.12499980E+03</pdfrwt>
<totfact> 0.40373664E+03</totfact>
</mgrwt>
</event>
<event>
 5    1  0.3267085E-002  0.1250024E+03  0.7818608E-02  0.1235066E+00
          4   -1    0    0  501    0  0.00000000000E+00  0.00000000000E+00  0.11866152501E+04  0.11866159298E+04  0.12700000000E+01 0. -1.
         -4   -1    0    0    0  501 -0.00000000000E+00 -0.00000000000E+00 -0.31688616472E+01  0.34138810962E+01  0.12700000000E+01 0. -1.
         25    2    1    2    0    0  0.00000000000E+00  0.00000000000E+00  0.11834463885E+04  0.11900298108E+04  0.12500238515E+03 0.  0.
    9000005    1    3    3    0    0  0.49423882680E+02  0.35776967547E+02  0.46304826365E+03  0.46705182374E+03  0.10000000000E+01 0.  0.
    9000005    1    3    3    0    0 -0.49423882680E+02 -0.35776967547E+02  0.72039812483E+03  0.72297798711E+03  0.10000000000E+01 0.  0.
<mgrwt>
<rscale>  0 0.12500239E+03</rscale>
<asrwt>0</asrwt>
<pdfrwt beam="1">  1        4 0.18257512E+00 0.12500239E+03</pdfrwt>
<pdfrwt beam="2">  1       -4 0.50641703E-03 0.12500239E+03</pdfrwt>
<totfact> 0.24973913E+03</totfact>
</mgrwt>
</event>
<event>
 5    1  0.3267085E-002  0.1249997E+03  0.7818608E-02  0.1235070E+00
         -4   -1    0    0    0  501 -0.00000000000E+00  0.00000000000E+00  0.16966309305E+02  0.17013775343E+02  0.12700000000E+01 0. -1.
          4   -1    0    0  501    0  0.00000000000E+00 -0.00000000000E+00 -0.22986388495E+03  0.22986739330E+03  0.12700000000E+01 0. -1.
         25    2    1    2    0    0  0.00000000000E+00  0.00000000000E+00 -0.21289757564E+03  0.24688116865E+03  0.12499973487E+03 0.  0.
    9000005    1    3    3    0    0 -0.65722054936E+01 -0.98987571606E+01 -0.22762205114E+03  0.22793415155E+03  0.10000000000E+01 0.  0.
    9000005    1    3    3    0    0  0.65722054936E+01  0.98987571606E+01  0.14724475492E+02  0.18947017098E+02  0.10000000000E+01 0.  0.
<mgrwt>
<rscale>  0 0.12499973E+03</rscale>
<asrwt>0</asrwt>
<pdfrwt beam="2">  1        4 0.35367593E-01 0.12499973E+03</pdfrwt>
<pdfrwt beam="1">  1       -4 0.26141227E-02 0.12499973E+03</pdfrwt>
<totfact> 0.82783586E+03</totfact>
</mgrwt>
</event>
<event>
 5    1  0.3267085E-002  0.1250022E+03  0.7818608E-02  0.1235066E+00
         -4   -1    0    0    0  501 -0.00000000000E+00  0.00000000000E+00  0.52328911075E+02  0.52344319981E+02  0.12700000000E+01 0. -1.
          4   -1    0    0  501    0  0.00000000000E+00 -0.00000000000E+00 -0.74618854970E+02  0.74629661777E+02  0.12700000000E+01 0. -1.
         25    2    1    2    0    0  0.00000000000E+00  0.00000000000E+00 -0.22289943895E+02  0.12697398176E+03  0.12500220176E+03 0.  0.
    9000005    1    3    3    0    0 -0.52073611365E+02  0.34474033272E+02 -0.88136344892E+01  0.63077730805E+02  0.10000000000E+01 0.  0.
    9000005    1    3    3    0    0  0.52073611365E+02 -0.34474033272E+02 -0.13476309406E+02  0.63896250953E+02  0.10000000000E+01 0.  0.
<mgrwt>
<rscale>  0 0.12500220E+03</rscale>
<asrwt>0</asrwt>
<pdfrwt beam="2">  1        4 0.11481840E-01 0.12500220E+03</pdfrwt>
<pdfrwt beam="1">  1       -4 0.80526183E-02 0.12500220E+03</pdfrwt>
<totfact> 0.10409194E+04</totfact>
</mgrwt>
</event>
<event>
 5    1  0.3267085E-002  0.1250035E+03  0.7818608E-02  0.1235064E+00
         -4   -1    0    0    0  501 -0.00000000000E+00  0.00000000000E+00  0.39857483204E+01  0.41831913265E+01  0.12700000000E+01 0. -1.
          4   -1    0    0  501    0  0.00000000000E+00 -0.00000000000E+00 -0.95622142369E+03  0.95622226706E+03  0.12700000000E+01 0. -1.
         25    2    1    2    0    0  0.00000000000E+00  0.00000000000E+00 -0.95223567537E+03  0.96040545839E+03  0.12500345217E+03 0.  0.
    9000005    1    3    3    0    0 -0.49859360172E+02  0.32407676989E+02 -0.32848114793E+03  0.33382192539E+03  0.10000000000E+01 0.  0.
    9000005    1    3    3    0    0  0.49859360172E+02 -0.32407676989E+02 -0.62375452744E+03  0.62658353300E+03  0.10000000000E+01 0.  0.
<mgrwt>
<rscale>  0 0.12500345E+03</rscale>
<asrwt>0</asrwt>
<pdfrwt beam="2">  1        4 0.14712606E+00 0.12500345E+03</pdfrwt>
<pdfrwt beam="1">  1       -4 0.62844561E-03 0.12500345E+03</pdfrwt>
<totfact> 0.31947025E+03</totfact>
</mgrwt>
</event>
<event>
 5    1  0.3267085E-002  0.1249967E+03  0.7818608E-02  0.1235074E+00
          4   -1    0    0  501    0  0.00000000000E+00  0.00000000000E+00  0.48171445534E+02  0.48188183871E+02  0.12700000000E+01 0. -1.
         -4   -1    0    0    0  501 -0.00000000000E+00 -0.00000000000E+00 -0.81050473589E+02  0.81060422951E+02  0.12700000000E+01 0. -1.
         25    2    1    2    0    0  0.00000000000E+00  0.00000000000E+00 -0.32879028055E+02  0.12924860682E+03  0.12499668747E+03 0.  0.
    9000005    1    3    3    0    0  0.55150204559E+02 -0.21379059919E+02  0.44064615247E+01  0.59321380371E+02  0.10000000000E+01 0.  0.
    9000005    1    3    3    0    0 -0.55150204559E+02  0.21379059919E+02 -0.37285489580E+02  0.69927226451E+02  0.10000000000E+01 0.  0.
<mgrwt>
<rscale>  0 0.12499669E+03</rscale>
<asrwt>0</asrwt>
<pdfrwt beam="1">  1        4 0.74130445E-02 0.12499669E+03</pdfrwt>
<pdfrwt beam="2">  1       -4 0.12471357E-01 0.12499669E+03</pdfrwt>
<totfact> 0.10361383E+04</totfact>
</mgrwt>
</event>
<event>
 5    1  0.3267085E-002  0.1249921E+03  0.7818608E-02  0.1235082E+00
          4   -1    0    0  501    0  0.00000000000E+00  0.00000000000E+00  0.13358259660E+03  0.13358863356E+03  0.12700000000E+01 0.  1.
         -4   -1    0    0    0  501 -0.00000000000E+00 -0.00000000000E+00 -0.29218012799E+02  0.29245600899E+02  0.12700000000E+01 0.  1.
         25    2    1    2    0    0  0.00000000000E+00  0.00000000000E+00  0.10436458380E+03  0.16283423446E+03  0.12499208598E+03 0.  0.
    9000005    1    3    3    0    0  0.46833410889E+02 -0.14950681856E+02  0.10243330675E+03  0.11362426499E+03  0.10000000000E+01 0.  0.
    9000005    1    3    3    0    0 -0.46833410889E+02  0.14950681856E+02  0.19312770547E+01  0.49209969463E+02  0.10000000000E+01 0.  0.
<mgrwt>
<rscale>  0 0.12499209E+03</rscale>
<asrwt>0</asrwt>
<pdfrwt beam="1">  1        4 0.20553755E-01 0.12499209E+03</pdfrwt>
<pdfrwt beam="2">  1       -4 0.44976654E-02 0.12499209E+03</pdfrwt>
<totfact> 0.96816349E+03</totfact>
</mgrwt>
</event>
<event>
 5    1  0.3267085E-002  0.1250017E+03  0.7818608E-02  0.1235067E+00
         -4   -1    0    0    0  501 -0.00000000000E+00  0.00000000000E+00  0.45784384376E+02  0.45801995073E+02  0.12700000000E+01 0. -1.
          4   -1    0    0  501    0  0.00000000000E+00 -0.00000000000E+00 -0.85281927070E+02  0.85291382829E+02  0.12700000000E+01 0. -1.
         25    2    1    2    0    0  0.00000000000E+00  0.00000000000E+00 -0.39497542694E+02  0.13109337790E+03  0.12500167139E+03 0.  0.
    9000005    1    3    3    0    0 -0.20459538945E+02 -0.31417252364E+02  0.32684920985E+02  0.49748774253E+02  0.10000000000E+01 0.  0.
    9000005    1    3    3    0    0  0.20459538945E+02  0.31417252364E+02 -0.72182463679E+02  0.81344603648E+02  0.10000000000E+01 0.  0.
<mgrwt>
<rscale>  0 0.12500167E+03</rscale>
<asrwt>0</asrwt>
<pdfrwt beam="2">  1        4 0.13122379E-01 0.12500167E+03</pdfrwt>
<pdfrwt beam="1">  1       -4 0.70458335E-02 0.12500167E+03</pdfrwt>
<totfact> 0.10320699E+04</totfact>
</mgrwt>
</event>
<event>
 5    1  0.3267085E-002  0.1249941E+03  0.7818608E-02  0.1235079E+00
          4   -1    0    0  501    0  0.00000000000E+00  0.00000000000E+00  0.34886356938E+02  0.34909465771E+02  0.12700000000E+01 0.  1.
         -4   -1    0    0    0  501 -0.00000000000E+00 -0.00000000000E+00 -0.11189627263E+03  0.11190347952E+03  0.12700000000E+01 0.  1.
         25    2    1    2    0    0  0.00000000000E+00  0.00000000000E+00 -0.77009915690E+02  0.14681294529E+03  0.12499405502E+03 0.  0.
    9000005    1    3    3    0    0  0.62278525334E+02  0.51166240888E+01 -0.38845149574E+02  0.73584918328E+02  0.10000000000E+01 0.  0.
    9000005    1    3    3    0    0 -0.62278525334E+02 -0.51166240888E+01 -0.38164766116E+02  0.73228026961E+02  0.10000000000E+01 0.  0.
<mgrwt>
<rscale>  0 0.12499406E+03</rscale>
<asrwt>0</asrwt>
<pdfrwt beam="1">  1        4 0.53694639E-02 0.12499406E+03</pdfrwt>
<pdfrwt beam="2">  1       -4 0.17217143E-01 0.12499406E+03</pdfrwt>
<totfact> 0.99956204E+03</totfact>
</mgrwt>
</event>
<event>
 5    1  0.3267085E-002  0.1250010E+03  0.7818608E-02  0.1235068E+00
         -4   -1    0    0    0  501 -0.00000000000E+00  0.00000000000E+00  0.58913370064E+02  0.58927057218E+02  0.12700000000E+01 0.  1.
          4   -1    0    0  501    0  0.00000000000E+00 -0.00000000000E+00 -0.66278595564E+02  0.66290762025E+02  0.12700000000E+01 0.  1.
         25    2    1    2    0    0  0.00000000000E+00  0.00000000000E+00 -0.73652254994E+01  0.12521781924E+03  0.12500102283E+03 0.  0.
    9000005    1    3    3    0    0  0.22084809019E+02  0.45789559190E+02  0.32724490610E+02  0.60467468989E+02  0.10000000000E+01 0.  0.
    9000005    1    3    3    0    0 -0.22084809019E+02 -0.45789559190E+02 -0.40089716110E+02  0.64750350254E+02  0.10000000000E+01 0.  0.
<mgrwt>
<rscale>  0 0.12500102E+03</rscale>
<asrwt>0</asrwt>
<pdfrwt beam="2">  1        4 0.10198696E-01 0.12500102E+03</pdfrwt>
<pdfrwt beam="1">  1       -4 0.90655841E-02 0.12500102E+03</pdfrwt>
<totfact> 0.10447892E+04</totfact>
</mgrwt>
</event>
<event>
 5    1  0.3267085E-002  0.1250009E+03  0.7818608E-02  0.1235068E+00
         -4   -1    0    0    0  501 -0.00000000000E+00  0.00000000000E+00  0.30862922019E+03  0.30863183318E+03  0.12700000000E+01 0. -1.
          4   -1    0    0  501    0  0.00000000000E+00 -0.00000000000E+00 -0.12622417586E+02  0.12686147001E+02  0.12700000000E+01 0. -1.
         25    2    1    2    0    0  0.00000000000E+00  0.00000000000E+00  0.29600680260E+03  0.32131798018E+03  0.12500086881E+03 0.  0.
    9000005    1    3    3    0    0 -0.39257524551E+02 -0.16604483786E+02  0.30531708990E+02  0.52440894057E+02  0.10000000000E+01 0.  0.
    9000005    1    3    3    0    0  0.39257524551E+02  0.16604483786E+02  0.26547509361E+03  0.26887708613E+03  0.10000000000E+01 0.  0.
<mgrwt>
<rscale>  0 0.12500087E+03</rscale>
<asrwt>0</asrwt>
<pdfrwt beam="2">  1        4 0.19470137E-02 0.12500087E+03</pdfrwt>
<pdfrwt beam="1">  1       -4 0.47486522E-01 0.12500087E+03</pdfrwt>
<totfact> 0.72998235E+03</totfact>
</mgrwt>
</event>
<event>
 5    1  0.3267085E-002  0.1250013E+03  0.7818608E-02  0.1235067E+00
          4   -1    0    0  501    0  0.00000000000E+00  0.00000000000E+00  0.13049804383E+02  0.13111456610E+02  0.12700000000E+01 0. -1.
         -4   -1    0    0    0  501 -0.00000000000E+00 -0.00000000000E+00 -0.29857170083E+03  0.29857440184E+03  0.12700000000E+01 0. -1.
         25    2    1    2    0    0  0.00000000000E+00  0.00000000000E+00 -0.28552189644E+03  0.31168585845E+03  0.12500128403E+03 0.  0.
    9000005    1    3    3    0    0  0.29850053808E+02  0.29468636336E+02 -0.25826780612E+03  0.26165375197E+03  0.10000000000E+01 0.  0.
    9000005    1    3    3    0    0 -0.29850053808E+02 -0.29468636336E+02 -0.27254090323E+02  0.50032106483E+02  0.10000000000E+01 0.  0.
<mgrwt>
<rscale>  0 0.12500128E+03</rscale>
<asrwt>0</asrwt>
<pdfrwt beam="1">  1        4 0.20126127E-02 0.12500128E+03</pdfrwt>
<pdfrwt beam="2">  1       -4 0.45939053E-01 0.12500128E+03</pdfrwt>
<totfact> 0.74153873E+03</totfact>
</mgrwt>
</event>
<event>
 5    1  0.3267085E-002  0.1249959E+03  0.7818608E-02  0.1235076E+00
          4   -1    0    0  501    0  0.00000000000E+00  0.00000000000E+00  0.84893504565E+01  0.85838203134E+01  0.12700000000E+01 0. -1.
         -4   -1    0    0    0  501 -0.00000000000E+00 -0.00000000000E+00 -0.45746402178E+03  0.45746578465E+03  0.12700000000E+01 0. -1.
         25    2    1    2    0    0  0.00000000000E+00  0.00000000000E+00 -0.44897467133E+03  0.46604960496E+03  0.12499591511E+03 0.  0.
    9000005    1    3    3    0    0  0.49372988492E+02  0.79033283098E+00 -0.81695385669E+02  0.95464405190E+02  0.10000000000E+01 0.  0.
    9000005    1    3    3    0    0 -0.49372988492E+02 -0.79033283098E+00 -0.36727928566E+03  0.37058519977E+03  0.10000000000E+01 0.  0.
<mgrwt>
<rscale>  0 0.12499592E+03</rscale>
<asrwt>0</asrwt>
<pdfrwt beam="1">  1        4 0.13134568E-02 0.12499592E+03</pdfrwt>
<pdfrwt beam="2">  1       -4 0.70386464E-01 0.12499592E+03</pdfrwt>
<totfact> 0.58603482E+03</totfact>
</mgrwt>
</event>
<event>
 5    1  0.3267085E-002  0.1249971E+03  0.7818608E-02  0.1235074E+00
         -4   -1    0    0    0  501 -0.00000000000E+00  0.00000000000E+00  0.25858540563E+03  0.25858852431E+03  0.12700000000E+01 0. -1.
          4   -1    0    0  501    0  0.00000000000E+00 -0.00000000000E+00 -0.15075628915E+02  0.15129027965E+02  0.12700000000E+01 0. -1.
         25    2    1    2    0    0  0.00000000000E+00  0.00000000000E+00  0.24350977671E+03  0.27371755227E+03  0.12499714824E+03 0.  0.
    9000005    1    3    3    0    0  0.58403675366E+02  0.12121337234E+02  0.16255531123E+03  0.17315641866E+03  0.10000000000E+01 0.  0.
    9000005    1    3    3    0    0 -0.58403675366E+02 -0.12121337234E+02  0.80954465483E+02  0.10056113362E+03  0.10000000000E+01 0.  0.
<mgrwt>
<rscale>  0 0.12499715E+03</rscale>
<asrwt>0</asrwt>
<pdfrwt beam="2">  1        4 0.23236752E-02 0.12499715E+03</pdfrwt>
<pdfrwt beam="1">  1       -4 0.39786716E-01 0.12499715E+03</pdfrwt>
<totfact> 0.79023566E+03</totfact>
</mgrwt>
</event>
<event>
 5    1  0.3267085E-002  0.1249975E+03  0.7818608E-02  0.1235073E+00
         -4   -1    0    0    0  501 -0.00000000000E+00  0.00000000000E+00  0.54973115257E+03  0.54973261956E+03  0.12700000000E+01 0.  1.
          4   -1    0    0  501    0  0.00000000000E+00 -0.00000000000E+00 -0.70472302155E+01  0.71607509181E+01  0.12700000000E+01 0.  1.
         25    2    1    2    0    0  0.00000000000E+00  0.00000000000E+00  0.54268392236E+03  0.55689337048E+03  0.12499754597E+03 0.  0.
    9000005    1    3    3    0    0  0.27621069697E+02  0.42790720944E+01  0.22332110322E+02  0.35790461029E+02  0.10000000000E+01 0.  0.
    9000005    1    3    3    0    0 -0.27621069697E+02 -0.42790720944E+01  0.52035181204E+03  0.52110290945E+03  0.10000000000E+01 0.  0.
<mgrwt>
<rscale>  0 0.12499755E+03</rscale>
<asrwt>0</asrwt>
<pdfrwt beam="2">  1        4 0.10930339E-02 0.12499755E+03</pdfrwt>
<pdfrwt beam="1">  1       -4 0.84582913E-01 0.12499755E+03</pdfrwt>
<totfact> 0.51709577E+03</totfact>
</mgrwt>
</event>
<event>
 5    1  0.3267085E-002  0.1249993E+03  0.7818608E-02  0.1235070E+00
          4   -1    0    0  501    0  0.00000000000E+00  0.00000000000E+00  0.12594991272E+03  0.12595631550E+03  0.12700000000E+01 0.  1.
         -4   -1    0    0    0  501 -0.00000000000E+00 -0.00000000000E+00 -0.30993787213E+02  0.31019796031E+02  0.12700000000E+01 0.  1.
         25    2    1    2    0    0  0.00000000000E+00  0.00000000000E+00  0.94956125510E+02  0.15697611153E+03  0.12499933528E+03 0.  0.
    9000005    1    3    3    0    0 -0.21438263029E+01  0.10258531630E+02 -0.29888483407E+02  0.31688403285E+02  0.10000000000E+01 0.  0.
    9000005    1    3    3    0    0  0.21438263029E+01 -0.10258531630E+02  0.12484460892E+03  0.12528770825E+03  0.10000000000E+01 0.  0.
<mgrwt>
<rscale>  0 0.12499934E+03</rscale>
<asrwt>0</asrwt>
<pdfrwt beam="1">  1        4 0.19379403E-01 0.12499934E+03</pdfrwt>
<pdfrwt beam="2">  1       -4 0.47707681E-02 0.12499934E+03</pdfrwt>
<totfact> 0.97930418E+03</totfact>
</mgrwt>
</event>
<event>
 5    1  0.3267085E-002  0.1250005E+03  0.7818608E-02  0.1235068E+00
          4   -1    0    0  501    0  0.00000000000E+00  0.00000000000E+00  0.23772508546E+03  0.23772847780E+03  0.12700000000E+01 0. -1.
         -4   -1    0    0    0  501 -0.00000000000E+00 -0.00000000000E+00 -0.16403874066E+02  0.16452962784E+02  0.12700000000E+01 0. -1.
         25    2    1    2    0    0  0.00000000000E+00  0.00000000000E+00  0.22132121139E+03  0.25418144058E+03  0.12500050450E+03 0.  0.
    9000005    1    3    3    0    0  0.61651643670E+02 -0.74308900817E+00  0.89943003136E+02  0.10905146107E+03  0.10000000000E+01 0.  0.
    9000005    1    3    3    0    0 -0.61651643670E+02  0.74308900817E+00  0.13137820826E+03  0.14512997951E+03  0.10000000000E+01 0.  0.
<mgrwt>
<rscale>  0 0.12500050E+03</rscale>
<asrwt>0</asrwt>
<pdfrwt beam="1">  1        4 0.36577126E-01 0.12500050E+03</pdfrwt>
<pdfrwt beam="2">  1       -4 0.25277100E-02 0.12500050E+03</pdfrwt>
<totfact> 0.81728693E+03</totfact>
</mgrwt>
</event>
<event>
 5    1  0.3267085E-002  0.1249989E+03  0.7818608E-02  0.1235071E+00
          4   -1    0    0  501    0  0.00000000000E+00  0.00000000000E+00  0.15147859354E+02  0.15201004671E+02  0.12700000000E+01 0. -1.
         -4   -1    0    0    0  501 -0.00000000000E+00 -0.00000000000E+00 -0.25736406722E+03  0.25736720070E+03  0.12700000000E+01 0. -1.
         25    2    1    2    0    0  0.00000000000E+00  0.00000000000E+00 -0.24221620787E+03  0.27256820537E+03  0.12499894090E+03 0.  0.
    9000005    1    3    3    0    0  0.59062571594E+02  0.11817603031E+02 -0.84807068091E+02  0.10402539066E+03  0.10000000000E+01 0.  0.
    9000005    1    3    3    0    0 -0.59062571594E+02 -0.11817603031E+02 -0.15740913978E+03  0.16854281471E+03  0.10000000000E+01 0.  0.
<mgrwt>
<rscale>  0 0.12499894E+03</rscale>
<asrwt>0</asrwt>
<pdfrwt beam="1">  1        4 0.23347692E-02 0.12499894E+03</pdfrwt>
<pdfrwt beam="2">  1       -4 0.39598798E-01 0.12499894E+03</pdfrwt>
<totfact> 0.79175806E+03</totfact>
</mgrwt>
</event>
<event>
 5    1  0.3267085E-002  0.1249923E+03  0.7818608E-02  0.1235081E+00
          4   -1    0    0  501    0  0.00000000000E+00  0.00000000000E+00  0.14930440493E+02  0.14984356954E+02  0.12700000000E+01 0. -1.
         -4   -1    0    0    0  501 -0.00000000000E+00 -0.00000000000E+00 -0.26107084969E+03  0.26107393868E+03  0.12700000000E+01 0. -1.
         25    2    1    2    0    0  0.00000000000E+00  0.00000000000E+00 -0.24614040919E+03  0.27605829563E+03  0.12499232596E+03 0.  0.
    9000005    1    3    3    0    0 -0.57848630795E+02  0.30279505956E+01 -0.17482589772E+03  0.18417580483E+03  0.10000000000E+01 0.  0.
    9000005    1    3    3    0    0  0.57848630795E+02 -0.30279505956E+01 -0.71314511471E+02  0.91882490802E+02  0.10000000000E+01 0.  0.
<mgrwt>
<rscale>  0 0.12499233E+03</rscale>
<asrwt>0</asrwt>
<pdfrwt beam="1">  1        4 0.23013761E-02 0.12499233E+03</pdfrwt>
<pdfrwt beam="2">  1       -4 0.40169128E-01 0.12499233E+03</pdfrwt>
<totfact> 0.78717098E+03</totfact>
</mgrwt>
</event>
<event>
 5    1  0.3267085E-002  0.1250047E+03  0.7818608E-02  0.1235062E+00
         -4   -1    0    0    0  501 -0.00000000000E+00  0.00000000000E+00  0.11077167828E+02  0.11149733051E+02  0.12700000000E+01 0. -1.
          4   -1    0    0  501    0  0.00000000000E+00 -0.00000000000E+00 -0.35144104106E+03  0.35144333575E+03  0.12700000000E+01 0. -1.
         25    2    1    2    0    0  0.00000000000E+00  0.00000000000E+00 -0.34036387324E+03  0.36259306880E+03  0.12500466927E+03 0.  0.
    9000005    1    3    3    0    0  0.35107669806E+01 -0.32019398411E+01 -0.35093053608E+03  0.35096412787E+03  0.10000000000E+01 0.  0.
    9000005    1    3    3    0    0 -0.35107669806E+01  0.32019398411E+01  0.10566662840E+02  0.11628940929E+02  0.10000000000E+01 0.  0.
<mgrwt>
<rscale>  0 0.12500467E+03</rscale>
<asrwt>0</asrwt>
<pdfrwt beam="2">  1        4 0.54073602E-01 0.12500467E+03</pdfrwt>
<pdfrwt beam="1">  1       -4 0.17099384E-02 0.12500467E+03</pdfrwt>
<totfact> 0.68353971E+03</totfact>
</mgrwt>
</event>
<event>
 4    1  0.3267085E-002  0.1249333E+03  0.7818608E-02  0.1235174E+00
         -4   -1    0    0    0  501 -0.00000000000E+00  0.00000000000E+00  0.83694907363E+02  0.83704542401E+02  0.12700000000E+01 0. -1.
          4   -1    0    0  501    0  0.00000000000E+00 -0.00000000000E+00 -0.46601744037E+02  0.46619045971E+02  0.12700000000E+01 0. -1.
    9000005    1    1    2    0    0 -0.61436424583E+02  0.95024519692E+01  0.24836052401E+02  0.66951925721E+02  0.10000000000E+01 0.  0.
    9000005    1    1    2    0    0  0.61436424583E+02 -0.95024519692E+01  0.12257110925E+02  0.63371662651E+02  0.10000000000E+01 0.  0.
<mgrwt>
<rscale>  0 0.12493332E+03</rscale>
<asrwt>0</asrwt>
<pdfrwt beam="2">  1        4 0.71715711E-02 0.12493332E+03</pdfrwt>
<pdfrwt beam="1">  1       -4 0.12878212E-01 0.12493332E+03</pdfrwt>
<totfact> 0.10353164E+04</totfact>
</mgrwt>
</event>
<event>
 5    1  0.3267085E-002  0.1250001E+03  0.7818608E-02  0.1235069E+00
         -4   -1    0    0    0  501 -0.00000000000E+00  0.00000000000E+00  0.14556659810E+04  0.14556665350E+04  0.12700000000E+01 0. -1.
          4   -1    0    0  501    0  0.00000000000E+00 -0.00000000000E+00 -0.25326356029E+01  0.28332213287E+01  0.12700000000E+01 0. -1.
         25    2    1    2    0    0  0.00000000000E+00  0.00000000000E+00  0.14531333454E+04  0.14584997563E+04  0.12500007891E+03 0.  0.
    9000005    1    3    3    0    0 -0.33211531646E+02  0.51635876422E+02  0.86263033533E+03  0.86481290752E+03  0.10000000000E+01 0.  0.
    9000005    1    3    3    0    0  0.33211531646E+02 -0.51635876422E+02  0.59050301005E+03  0.59368684881E+03  0.10000000000E+01 0.  0.
<mgrwt>
<rscale>  0 0.12500008E+03</rscale>
<asrwt>0</asrwt>
<pdfrwt beam="2">  1        4 0.41279995E-03 0.12500008E+03</pdfrwt>
<pdfrwt beam="1">  1       -4 0.22397226E+00 0.12500008E+03</pdfrwt>
<totfact> 0.18759217E+03</totfact>
</mgrwt>
</event>
<event>
 5    1  0.3267085E-002  0.1249968E+03  0.7818608E-02  0.1235074E+00
         -4   -1    0    0    0  501 -0.00000000000E+00  0.00000000000E+00  0.33138700386E+02  0.33163027052E+02  0.12700000000E+01 0.  1.
          4   -1    0    0  501    0  0.00000000000E+00 -0.00000000000E+00 -0.11779872658E+03  0.11780557238E+03  0.12700000000E+01 0.  1.
         25    2    1    2    0    0  0.00000000000E+00  0.00000000000E+00 -0.84660026197E+02  0.15096859944E+03  0.12499679188E+03 0.  0.
    9000005    1    3    3    0    0  0.16146298926E+02  0.47128082140E+02 -0.87895343035E+02  0.10103638168E+03  0.10000000000E+01 0.  0.
    9000005    1    3    3    0    0 -0.16146298926E+02 -0.47128082140E+02  0.32353168378E+01  0.49932217758E+02  0.10000000000E+01 0.  0.
<mgrwt>
<rscale>  0 0.12499679E+03</rscale>
<asrwt>0</asrwt>
<pdfrwt beam="2">  1        4 0.18125279E-01 0.12499679E+03</pdfrwt>
<pdfrwt beam="1">  1       -4 0.51006595E-02 0.12499679E+03</pdfrwt>
<totfact> 0.99118127E+03</totfact>
</mgrwt>
</event>
<event>
 5    1  0.3267085E-002  0.1249977E+03  0.7818608E-02  0.1235073E+00
          4   -1    0    0  501    0  0.00000000000E+00  0.00000000000E+00  0.11428893415E+04  0.11428900471E+04  0.12700000000E+01 0. -1.
         -4   -1    0    0    0  501 -0.00000000000E+00 -0.00000000000E+00 -0.32990366983E+01  0.35350449978E+01  0.12700000000E+01 0. -1.
         25    2    1    2    0    0  0.00000000000E+00  0.00000000000E+00  0.11395903048E+04  0.11464250921E+04  0.12499771617E+03 0.  0.
    9000005    1    3    3    0    0  0.33962895673E+02 -0.52032781855E+02  0.63078338655E+03  0.63383717894E+03  0.10000000000E+01 0.  0.
    9000005    1    3    3    0    0 -0.33962895673E+02  0.52032781855E+02  0.50880691824E+03  0.51258791316E+03  0.10000000000E+01 0.  0.
<mgrwt>
<rscale>  0 0.12499772E+03</rscale>
<asrwt>0</asrwt>
<pdfrwt beam="1">  1        4 0.17584749E+00 0.12499772E+03</pdfrwt>
<pdfrwt beam="2">  1       -4 0.52575243E-03 0.12499772E+03</pdfrwt>
<totfact> 0.26160906E+03</totfact>
</mgrwt>
</event>
<event>
 5    1  0.3267085E-002  0.1249980E+03  0.7818608E-02  0.1235072E+00
          4   -1    0    0  501    0  0.00000000000E+00  0.00000000000E+00  0.98429190661E+01  0.99245128718E+01  0.12700000000E+01 0.  1.
         -4   -1    0    0    0  501 -0.00000000000E+00 -0.00000000000E+00 -0.39512528887E+03  0.39512732986E+03  0.12700000000E+01 0.  1.
         25    2    1    2    0    0  0.00000000000E+00  0.00000000000E+00 -0.38528236980E+03  0.40505184273E+03  0.12499796327E+03 0.  0.
    9000005    1    3    3    0    0  0.25984209293E+02 -0.48579716996E+02 -0.97063614304E+02  0.11161323066E+03  0.10000000000E+01 0.  0.
    9000005    1    3    3    0    0 -0.25984209293E+02  0.48579716996E+02 -0.28821875550E+03  0.29343861208E+03  0.10000000000E+01 0.  0.
<mgrwt>
<rscale>  0 0.12499796E+03</rscale>
<asrwt>0</asrwt>
<pdfrwt beam="1">  1        4 0.15207290E-02 0.12499796E+03</pdfrwt>
<pdfrwt beam="2">  1       -4 0.60794927E-01 0.12499796E+03</pdfrwt>
<totfact> 0.64067287E+03</totfact>
</mgrwt>
</event>
<event>
 5    1  0.3267085E-002  0.1250014E+03  0.7818608E-02  0.1235067E+00
          4   -1    0    0  501    0  0.00000000000E+00  0.00000000000E+00  0.98535505505E+02  0.98543689525E+02  0.12700000000E+01 0. -1.
         -4   -1    0    0    0  501 -0.00000000000E+00 -0.00000000000E+00 -0.39623925953E+02  0.39644273330E+02  0.12700000000E+01 0. -1.
         25    2    1    2    0    0  0.00000000000E+00  0.00000000000E+00  0.58911579553E+02  0.13818796286E+03  0.12500135548E+03 0.  0.
    9000005    1    3    3    0    0 -0.32943074838E+02 -0.38038675414E+01 -0.29100000848E+02  0.44130778799E+02  0.10000000000E+01 0.  0.
    9000005    1    3    3    0    0  0.32943074838E+02  0.38038675414E+01  0.88011580400E+02  0.94057184056E+02  0.10000000000E+01 0.  0.
<mgrwt>
<rscale>  0 0.12500136E+03</rscale>
<asrwt>0</asrwt>
<pdfrwt beam="1">  1        4 0.15161503E-01 0.12500136E+03</pdfrwt>
<pdfrwt beam="2">  1       -4 0.60981833E-02 0.12500136E+03</pdfrwt>
<totfact> 0.10170969E+04</totfact>
</mgrwt>
</event>
<event>
 5    1  0.3267085E-002  0.1249991E+03  0.7818608E-02  0.1235071E+00
          4   -1    0    0  501    0  0.00000000000E+00  0.00000000000E+00  0.30410021154E+02  0.30436528819E+02  0.12700000000E+01 0.  1.
         -4   -1    0    0    0  501 -0.00000000000E+00 -0.00000000000E+00 -0.12836530015E+03  0.12837158245E+03  0.12700000000E+01 0.  1.
         25    2    1    2    0    0  0.00000000000E+00  0.00000000000E+00 -0.97955278992E+02  0.15880811127E+03  0.12499911809E+03 0.  0.
    9000005    1    3    3    0    0 -0.50936871420E+02  0.34009267731E+02 -0.64743791024E+02  0.89128859736E+02  0.10000000000E+01 0.  0.
    9000005    1    3    3    0    0  0.50936871420E+02 -0.34009267731E+02 -0.33211487967E+02  0.69679251536E+02  0.10000000000E+01 0.  0.
<mgrwt>
<rscale>  0 0.12499912E+03</rscale>
<asrwt>0</asrwt>
<pdfrwt beam="1">  1        4 0.46809872E-02 0.12499912E+03</pdfrwt>
<pdfrwt beam="2">  1       -4 0.19751030E-01 0.12499912E+03</pdfrwt>
<totfact> 0.97574999E+03</totfact>
</mgrwt>
</event>
<event>
 5    1  0.3267085E-002  0.1250003E+03  0.7818608E-02  0.1235069E+00
          4   -1    0    0  501    0  0.00000000000E+00  0.00000000000E+00  0.69295753197E+02  0.69307390019E+02  0.12700000000E+01 0. -1.
         -4   -1    0    0    0  501 -0.00000000000E+00 -0.00000000000E+00 -0.56347412552E+02  0.56361722839E+02  0.12700000000E+01 0. -1.
         25    2    1    2    0    0  0.00000000000E+00  0.00000000000E+00  0.12948340645E+02  0.12566911286E+03  0.12500026560E+03 0.  0.
    9000005    1    3    3    0    0 -0.24479982296E+02  0.56586972339E+02 -0.37740791546E+01  0.61778626119E+02  0.10000000000E+01 0.  0.
    9000005    1    3    3    0    0  0.24479982296E+02 -0.56586972339E+02  0.16722419800E+02  0.63890486738E+02  0.10000000000E+01 0.  0.
<mgrwt>
<rscale>  0 0.12500027E+03</rscale>
<asrwt>0</asrwt>
<pdfrwt beam="1">  1        4 0.10662881E-01 0.12500027E+03</pdfrwt>
<pdfrwt beam="2">  1       -4 0.86708286E-02 0.12500027E+03</pdfrwt>
<totfact> 0.10438162E+04</totfact>
</mgrwt>
</event>
<event>
 5    1  0.3267085E-002  0.1250051E+03  0.7818608E-02  0.1235061E+00
          4   -1    0    0  501    0  0.00000000000E+00  0.00000000000E+00  0.25861205241E+02  0.25892370237E+02  0.12700000000E+01 0. -1.
         -4   -1    0    0    0  501 -0.00000000000E+00 -0.00000000000E+00 -0.15093415609E+03  0.15093949906E+03  0.12700000000E+01 0. -1.
         25    2    1    2    0    0  0.00000000000E+00  0.00000000000E+00 -0.12507295085E+03  0.17683186930E+03  0.12500506775E+03 0.  0.
    9000005    1    3    3    0    0 -0.42633588115E+02 -0.44663021289E+02 -0.48882974971E+02  0.78758831557E+02  0.10000000000E+01 0.  0.
    9000005    1    3    3    0    0  0.42633588115E+02  0.44663021289E+02 -0.76189975883E+02  0.98073037739E+02  0.10000000000E+01 0.  0.
<mgrwt>
<rscale>  0 0.12500507E+03</rscale>
<asrwt>0</asrwt>
<pdfrwt beam="1">  1        4 0.39814554E-02 0.12500507E+03</pdfrwt>
<pdfrwt beam="2">  1       -4 0.23223447E-01 0.12500507E+03</pdfrwt>
<totfact> 0.94179700E+03</totfact>
</mgrwt>
</event>
<event>
 5    1  0.3267085E-002  0.1250011E+03  0.7818608E-02  0.1235067E+00
          4   -1    0    0  501    0  0.00000000000E+00  0.00000000000E+00  0.12622379374E+04  0.12622385763E+04  0.12700000000E+01 0. -1.
         -4   -1    0    0    0  501 -0.00000000000E+00 -0.00000000000E+00 -0.29637989434E+01  0.32244385832E+01  0.12700000000E+01 0. -1.
         25    2    1    2    0    0  0.00000000000E+00  0.00000000000E+00  0.12592741384E+04  0.12654630149E+04  0.12500114505E+03 0.  0.
    9000005    1    3    3    0    0 -0.33123031079E+02 -0.24944828614E+02  0.11029569791E+04  0.11037365978E+04  0.10000000000E+01 0.  0.
    9000005    1    3    3    0    0  0.33123031079E+02  0.24944828614E+02  0.15631715936E+03  0.16172641705E+03  0.10000000000E+01 0.  0.
<mgrwt>
<rscale>  0 0.12500115E+03</rscale>
<asrwt>0</asrwt>
<pdfrwt beam="1">  1        4 0.19421113E+00 0.12500115E+03</pdfrwt>
<pdfrwt beam="2">  1       -4 0.47606600E-03 0.12500115E+03</pdfrwt>
<totfact> 0.23057941E+03</totfact>
</mgrwt>
</event>
<event>
 5    1  0.3267085E-002  0.1249971E+03  0.7818608E-02  0.1235074E+00
         -4   -1    0    0    0  501 -0.00000000000E+00  0.00000000000E+00  0.10876539874E+02  0.10950434678E+02  0.12700000000E+01 0.  1.
          4   -1    0    0  501    0  0.00000000000E+00 -0.00000000000E+00 -0.35783719778E+03  0.35783945145E+03  0.12700000000E+01 0.  1.
         25    2    1    2    0    0  0.00000000000E+00  0.00000000000E+00 -0.34696065790E+03  0.36878988613E+03  0.12499712787E+03 0.  0.
    9000005    1    3    3    0    0  0.29914593992E+02 -0.21267903701E+02 -0.24263543881E+02  0.44010524005E+02  0.10000000000E+01 0.  0.
    9000005    1    3    3    0    0 -0.29914593992E+02  0.21267903701E+02 -0.32269711402E+03  0.32477936212E+03  0.10000000000E+01 0.  0.
<mgrwt>
<rscale>  0 0.12499713E+03</rscale>
<asrwt>0</asrwt>
<pdfrwt beam="2">  1        4 0.55057725E-01 0.12499713E+03</pdfrwt>
<pdfrwt beam="1">  1       -4 0.16791717E-02 0.12499713E+03</pdfrwt>
<totfact> 0.67710031E+03</totfact>
</mgrwt>
</event>
<event>
 5    1  0.3267085E-002  0.1250037E+03  0.7818608E-02  0.1235063E+00
         -4   -1    0    0    0  501 -0.00000000000E+00  0.00000000000E+00  0.22073641896E+02  0.22110146236E+02  0.12700000000E+01 0. -1.
          4   -1    0    0  501    0  0.00000000000E+00 -0.00000000000E+00 -0.17679004833E+03  0.17679460989E+03  0.12700000000E+01 0. -1.
         25    2    1    2    0    0  0.00000000000E+00  0.00000000000E+00 -0.15471640643E+03  0.19890475613E+03  0.12500374231E+03 0.  0.
    9000005    1    3    3    0    0  0.58103956118E+02  0.61741810602E+01 -0.11262717001E+03  0.12688604987E+03  0.10000000000E+01 0.  0.
    9000005    1    3    3    0    0 -0.58103956118E+02 -0.61741810602E+01 -0.42089236426E+02  0.72018706259E+02  0.10000000000E+01 0.  0.
<mgrwt>
<rscale>  0 0.12500374E+03</rscale>
<asrwt>0</asrwt>
<pdfrwt beam="2">  1        4 0.27201627E-01 0.12500374E+03</pdfrwt>
<pdfrwt beam="1">  1       -4 0.33991039E-02 0.12500374E+03</pdfrwt>
<totfact> 0.90312994E+03</totfact>
</mgrwt>
</event>
<event>
 5    1  0.3267085E-002  0.1249961E+03  0.7818608E-02  0.1235075E+00
          4   -1    0    0  501    0  0.00000000000E+00  0.00000000000E+00  0.19136593236E+04  0.19136597450E+04  0.12700000000E+01 0.  1.
         -4   -1    0    0    0  501 -0.00000000000E+00 -0.00000000000E+00 -0.18431061418E+01  0.22382895814E+01  0.12700000000E+01 0.  1.
         25    2    1    2    0    0  0.00000000000E+00  0.00000000000E+00  0.19118162175E+04  0.19158980346E+04  0.12499611852E+03 0.  0.
    9000005    1    3    3    0    0  0.13501870188E+01  0.49023769689E+02  0.15495170272E+04  0.15502932530E+04  0.10000000000E+01 0.  0.
    9000005    1    3    3    0    0 -0.13501870188E+01 -0.49023769689E+02  0.36229919030E+03  0.36560478155E+03  0.10000000000E+01 0.  0.
<mgrwt>
<rscale>  0 0.12499612E+03</rscale>
<asrwt>0</asrwt>
<pdfrwt beam="1">  1        4 0.29443988E+00 0.12499612E+03</pdfrwt>
<pdfrwt beam="2">  1       -4 0.31398559E-03 0.12499612E+03</pdfrwt>
<totfact> 0.11000067E+03</totfact>
</mgrwt>
</event>
<event>
 5    1  0.3267085E-002  0.1250001E+03  0.7818608E-02  0.1235069E+00
         -4   -1    0    0    0  501 -0.00000000000E+00  0.00000000000E+00  0.22558941268E+02  0.22594661563E+02  0.12700000000E+01 0. -1.
          4   -1    0    0  501    0  0.00000000000E+00 -0.00000000000E+00 -0.17298270611E+03  0.17298736807E+03  0.12700000000E+01 0. -1.
         25    2    1    2    0    0  0.00000000000E+00  0.00000000000E+00 -0.15042376484E+03  0.19558202964E+03  0.12500008515E+03 0.  0.
    9000005    1    3    3    0    0  0.43677675862E+02 -0.93006294241E+01 -0.14361101625E+03  0.15039735724E+03  0.10000000000E+01 0.  0.
    9000005    1    3    3    0    0 -0.43677675862E+02  0.93006294241E+01 -0.68127485953E+01  0.45184672399E+02  0.10000000000E+01 0.  0.
<mgrwt>
<rscale>  0 0.12500009E+03</rscale>
<asrwt>0</asrwt>
<pdfrwt beam="2">  1        4 0.26615829E-01 0.12500009E+03</pdfrwt>
<pdfrwt beam="1">  1       -4 0.34737128E-02 0.12500009E+03</pdfrwt>
<totfact> 0.90884856E+03</totfact>
</mgrwt>
</event>
<event>
 5    1  0.3267085E-002  0.1249833E+03  0.7818608E-02  0.1235095E+00
          4   -1    0    0  501    0  0.00000000000E+00  0.00000000000E+00  0.31962046374E+02  0.31987267911E+02  0.12700000000E+01 0. -1.
         -4   -1    0    0    0  501 -0.00000000000E+00 -0.00000000000E+00 -0.12210587217E+03  0.12211247650E+03  0.12700000000E+01 0. -1.
         25    2    1    2    0    0  0.00000000000E+00  0.00000000000E+00 -0.90143825794E+02  0.15409974442E+03  0.12498328648E+03 0.  0.
    9000005    1    3    3    0    0  0.17344909846E+02 -0.56353309961E+02 -0.19574193226E+02  0.62134454866E+02  0.10000000000E+01 0.  0.
    9000005    1    3    3    0    0 -0.17344909846E+02  0.56353309961E+02 -0.70569632568E+02  0.91965289549E+02  0.10000000000E+01 0.  0.
<mgrwt>
<rscale>  0 0.12498329E+03</rscale>
<asrwt>0</asrwt>
<pdfrwt beam="1">  1        4 0.49196861E-02 0.12498329E+03</pdfrwt>
<pdfrwt beam="2">  1       -4 0.18787967E-01 0.12498329E+03</pdfrwt>
<totfact> 0.98529555E+03</totfact>
</mgrwt>
</event>
<event>
 5    1  0.3267085E-002  0.1249981E+03  0.7818608E-02  0.1235072E+00
         -4   -1    0    0    0  501 -0.00000000000E+00  0.00000000000E+00  0.14251648673E+02  0.14308123214E+02  0.12700000000E+01 0.  1.
          4   -1    0    0  501    0  0.00000000000E+00 -0.00000000000E+00 -0.27348267100E+03  0.27348561980E+03  0.12700000000E+01 0.  1.
         25    2    1    2    0    0  0.00000000000E+00  0.00000000000E+00 -0.25923102233E+03  0.28779374301E+03  0.12499806231E+03 0.  0.
    9000005    1    3    3    0    0 -0.18118445092E+02  0.48060314341E+02 -0.47660380321E+02  0.70075557218E+02  0.10000000000E+01 0.  0.
    9000005    1    3    3    0    0  0.18118445092E+02 -0.48060314341E+02 -0.21157064201E+03  0.21771818580E+03  0.10000000000E+01 0.  0.
<mgrwt>
<rscale>  0 0.12499806E+03</rscale>
<asrwt>0</asrwt>
<pdfrwt beam="2">  1        4 0.42078824E-01 0.12499806E+03</pdfrwt>
<pdfrwt beam="1">  1       -4 0.21971326E-02 0.12499806E+03</pdfrwt>
<totfact> 0.77159255E+03</totfact>
</mgrwt>
</event>
<event>
 5    1  0.3267085E-002  0.1250111E+03  0.7818608E-02  0.1235052E+00
         -4   -1    0    0    0  501 -0.00000000000E+00  0.00000000000E+00  0.27336633929E+02  0.27366118734E+02  0.12700000000E+01 0. -1.
          4   -1    0    0  501    0  0.00000000000E+00 -0.00000000000E+00 -0.14281044684E+03  0.14281609372E+03  0.12700000000E+01 0. -1.
         25    2    1    2    0    0  0.00000000000E+00  0.00000000000E+00 -0.11547381291E+03  0.17018221245E+03  0.12501113538E+03 0.  0.
    9000005    1    3    3    0    0  0.30513842880E+01  0.27817806969E+02 -0.13381119077E+03  0.13670982447E+03  0.10000000000E+01 0.  0.
    9000005    1    3    3    0    0 -0.30513842880E+01 -0.27817806969E+02  0.18337377862E+02  0.33472387987E+02  0.10000000000E+01 0.  0.
<mgrwt>
<rscale>  0 0.12501114E+03</rscale>
<asrwt>0</asrwt>
<pdfrwt beam="2">  1        4 0.21973540E-01 0.12501114E+03</pdfrwt>
<pdfrwt beam="1">  1       -4 0.42083385E-02 0.12501114E+03</pdfrwt>
<totfact> 0.95390842E+03</totfact>
</mgrwt>
</event>
<event>
 5    1  0.3267085E-002  0.1249898E+03  0.7818608E-02  0.1235085E+00
          4   -1    0    0  501    0  0.00000000000E+00  0.00000000000E+00  0.19880763180E+03  0.19881168820E+03  0.12700000000E+01 0. -1.
         -4   -1    0    0    0  501 -0.00000000000E+00 -0.00000000000E+00 -0.19620392563E+02  0.19661452243E+02  0.12700000000E+01 0. -1.
         25    2    1    2    0    0  0.00000000000E+00  0.00000000000E+00  0.17918723924E+03  0.21847314044E+03  0.12498978513E+03 0.  0.
    9000005    1    3    3    0    0  0.22903382203E+02  0.51966138354E+02  0.44027744357E+02  0.71864363386E+02  0.10000000000E+01 0.  0.
    9000005    1    3    3    0    0 -0.22903382203E+02 -0.51966138354E+02  0.13515949488E+03  0.14660877705E+03  0.10000000000E+01 0.  0.
<mgrwt>
<rscale>  0 0.12498979E+03</rscale>
<asrwt>0</asrwt>
<pdfrwt beam="1">  1        4 0.30589258E-01 0.12498979E+03</pdfrwt>
<pdfrwt beam="2">  1       -4 0.30219926E-02 0.12498979E+03</pdfrwt>
<totfact> 0.87130416E+03</totfact>
</mgrwt>
</event>
<event>
 5    1  0.3267085E-002  0.1249997E+03  0.7818608E-02  0.1235070E+00
          4   -1    0    0  501    0  0.00000000000E+00  0.00000000000E+00  0.48849365844E+01  0.50473265630E+01  0.12700000000E+01 0.  1.
         -4   -1    0    0    0  501 -0.00000000000E+00 -0.00000000000E+00 -0.78641130994E+03  0.78641233542E+03  0.12700000000E+01 0.  1.
         25    2    1    2    0    0  0.00000000000E+00  0.00000000000E+00 -0.78152637336E+03  0.79145966198E+03  0.12499969719E+03 0.  0.
    9000005    1    3    3    0    0 -0.28735456633E+02  0.40585311536E+02 -0.15113249357E+03  0.15910664535E+03  0.10000000000E+01 0.  0.
    9000005    1    3    3    0    0  0.28735456633E+02 -0.40585311536E+02 -0.63039387978E+03  0.63235301663E+03  0.10000000000E+01 0.  0.
<mgrwt>
<rscale>  0 0.12499970E+03</rscale>
<asrwt>0</asrwt>
<pdfrwt beam="1">  1        4 0.76409975E-03 0.12499970E+03</pdfrwt>
<pdfrwt beam="2">  1       -4 0.12099883E+00 0.12499970E+03</pdfrwt>
<totfact> 0.38649129E+03</totfact>
</mgrwt>
</event>
<event>
 5    1  0.3267085E-002  0.1250165E+03  0.7818608E-02  0.1235043E+00
          4   -1    0    0  501    0  0.00000000000E+00  0.00000000000E+00  0.32302382316E+02  0.32327338327E+02  0.12700000000E+01 0. -1.
         -4   -1    0    0    0  501 -0.00000000000E+00 -0.00000000000E+00 -0.12088459774E+03  0.12089126879E+03  0.12700000000E+01 0. -1.
         25    2    1    2    0    0  0.00000000000E+00  0.00000000000E+00 -0.88582215421E+02  0.15321860712E+03  0.12501652962E+03 0.  0.
    9000005    1    3    3    0    0 -0.10109054354E+02  0.30928399376E+02 -0.10969111407E+03  0.11441983820E+03  0.10000000000E+01 0.  0.
    9000005    1    3    3    0    0  0.10109054354E+02 -0.30928399376E+02  0.21108898645E+02  0.38798768922E+02  0.10000000000E+01 0.  0.
<mgrwt>
<rscale>  0 0.12501653E+03</rscale>
<asrwt>0</asrwt>
<pdfrwt beam="1">  1        4 0.49720302E-02 0.12501653E+03</pdfrwt>
<pdfrwt beam="2">  1       -4 0.18600063E-01 0.12501653E+03</pdfrwt>
<totfact> 0.98629261E+03</totfact>
</mgrwt>
</event>
<event>
 5    1  0.3267085E-002  0.1249991E+03  0.7818608E-02  0.1235071E+00
         -4   -1    0    0    0  501 -0.00000000000E+00  0.00000000000E+00  0.18996167918E+04  0.18996172164E+04  0.12700000000E+01 0.  1.
          4   -1    0    0  501    0  0.00000000000E+00 -0.00000000000E+00 -0.18597501402E+01  0.22520147833E+01  0.12700000000E+01 0.  1.
         25    2    1    2    0    0  0.00000000000E+00  0.00000000000E+00  0.18977570417E+04  0.19018692311E+04  0.12499913239E+03 0.  0.
    9000005    1    3    3    0    0 -0.61972869054E+02  0.20675130032E+01  0.10670131118E+04  0.10688137779E+04  0.10000000000E+01 0.  0.
    9000005    1    3    3    0    0  0.61972869054E+02 -0.20675130032E+01  0.83074392992E+03  0.83305545326E+03  0.10000000000E+01 0.  0.
<mgrwt>
<rscale>  0 0.12499913E+03</rscale>
<asrwt>0</asrwt>
<pdfrwt beam="2">  1        4 0.31632132E-03 0.12499913E+03</pdfrwt>
<pdfrwt beam="1">  1       -4 0.29227982E+00 0.12499913E+03</pdfrwt>
<totfact> 0.11197077E+03</totfact>
</mgrwt>
</event>
<event>
 5    1  0.3267085E-002  0.1250046E+03  0.7818608E-02  0.1235062E+00
         -4   -1    0    0    0  501 -0.00000000000E+00  0.00000000000E+00  0.10750436716E+03  0.10751186845E+03  0.12700000000E+01 0. -1.
          4   -1    0    0  501    0  0.00000000000E+00 -0.00000000000E+00 -0.36318555078E+02  0.36340753197E+02  0.12700000000E+01 0. -1.
         25    2    1    2    0    0  0.00000000000E+00  0.00000000000E+00  0.71185812080E+02  0.14385262165E+03  0.12500462757E+03 0.  0.
    9000005    1    3    3    0    0 -0.52151686771E+02  0.32377516128E+02  0.49083898841E+02  0.78602360710E+02  0.10000000000E+01 0.  0.
    9000005    1    3    3    0    0  0.52151686771E+02 -0.32377516128E+02  0.22101913239E+02  0.65250260939E+02  0.10000000000E+01 0.  0.
<mgrwt>
<rscale>  0 0.12500463E+03</rscale>
<asrwt>0</asrwt>
<pdfrwt beam="2">  1        4 0.55897546E-02 0.12500463E+03</pdfrwt>
<pdfrwt beam="1">  1       -4 0.16541418E-01 0.12500463E+03</pdfrwt>
<totfact> 0.10053305E+04</totfact>
</mgrwt>
</event>
<event>
 5    1  0.3267085E-002  0.1249997E+03  0.7818608E-02  0.1235070E+00
         -4   -1    0    0    0  501 -0.00000000000E+00  0.00000000000E+00  0.56853382105E+03  0.56853523952E+03  0.12700000000E+01 0. -1.
          4   -1    0    0  501    0  0.00000000000E+00 -0.00000000000E+00 -0.68105803165E+01  0.69279798100E+01  0.12700000000E+01 0. -1.
         25    2    1    2    0    0  0.00000000000E+00  0.00000000000E+00  0.56172324073E+03  0.57546321933E+03  0.12499967049E+03 0.  0.
    9000005    1    3    3    0    0 -0.54389790023E+02 -0.30627158239E+02  0.29463999135E+03  0.30118100303E+03  0.10000000000E+01 0.  0.
    9000005    1    3    3    0    0  0.54389790023E+02  0.30627158239E+02  0.26708324938E+03  0.27428221631E+03  0.10000000000E+01 0.  0.
<mgrwt>
<rscale>  0 0.12499967E+03</rscale>
<asrwt>0</asrwt>
<pdfrwt beam="2">  1        4 0.10569217E-02 0.12499967E+03</pdfrwt>
<pdfrwt beam="1">  1       -4 0.87475856E-01 0.12499967E+03</pdfrwt>
<totfact> 0.50454375E+03</totfact>
</mgrwt>
</event>
<event>
 5    1  0.3267085E-002  0.1250019E+03  0.7818608E-02  0.1235066E+00
          4   -1    0    0  501    0  0.00000000000E+00  0.00000000000E+00  0.21810636199E+02  0.21847579989E+02  0.12700000000E+01 0. -1.
         -4   -1    0    0    0  501 -0.00000000000E+00 -0.00000000000E+00 -0.17891320301E+03  0.17891771044E+03  0.12700000000E+01 0. -1.
         25    2    1    2    0    0  0.00000000000E+00  0.00000000000E+00 -0.15710256681E+03  0.20076529043E+03  0.12500194136E+03 0.  0.
    9000005    1    3    3    0    0  0.19083191045E+02 -0.58544488875E+02 -0.61421972258E+02  0.86978641253E+02  0.10000000000E+01 0.  0.
    9000005    1    3    3    0    0 -0.19083191045E+02  0.58544488875E+02 -0.95680594548E+02  0.11378664918E+03  0.10000000000E+01 0.  0.
<mgrwt>
<rscale>  0 0.12500194E+03</rscale>
<asrwt>0</asrwt>
<pdfrwt beam="1">  1        4 0.33586712E-02 0.12500194E+03</pdfrwt>
<pdfrwt beam="2">  1       -4 0.27528296E-01 0.12500194E+03</pdfrwt>
<totfact> 0.90002685E+03</totfact>
</mgrwt>
</event>
<event>
 5    1  0.3267085E-002  0.1250030E+03  0.7818608E-02  0.1235065E+00
         -4   -1    0    0    0  501 -0.00000000000E+00  0.00000000000E+00  0.31651226113E+02  0.31676695131E+02  0.12700000000E+01 0. -1.
          4   -1    0    0  501    0  0.00000000000E+00 -0.00000000000E+00 -0.12334307453E+03  0.12334961262E+03  0.12700000000E+01 0. -1.
         25    2    1    2    0    0  0.00000000000E+00  0.00000000000E+00 -0.91691848413E+02  0.15502630775E+03  0.12500304408E+03 0.  0.
    9000005    1    3    3    0    0 -0.56061502240E+02  0.18972288139E+02 -0.70730026220E+02  0.92231102995E+02  0.10000000000E+01 0.  0.
    9000005    1    3    3    0    0  0.56061502240E+02 -0.18972288139E+02 -0.20961822194E+02  0.62795204756E+02  0.10000000000E+01 0.  0.
<mgrwt>
<rscale>  0 0.12500304E+03</rscale>
<asrwt>0</asrwt>
<pdfrwt beam="2">  1        4 0.18978319E-01 0.12500304E+03</pdfrwt>
<pdfrwt beam="1">  1       -4 0.48718816E-02 0.12500304E+03</pdfrwt>
<totfact> 0.98303605E+03</totfact>
</mgrwt>
</event>
<event>
 5    1  0.3267085E-002  0.1249979E+03  0.7818608E-02  0.1235073E+00
          4   -1    0    0  501    0  0.00000000000E+00  0.00000000000E+00  0.59976859241E+01  0.61306717775E+01  0.12700000000E+01 0.  1.
         -4   -1    0    0    0  501 -0.00000000000E+00 -0.00000000000E+00 -0.64399628503E+03  0.64399753728E+03  0.12700000000E+01 0.  1.
         25    2    1    2    0    0  0.00000000000E+00  0.00000000000E+00 -0.63799859910E+03  0.65012820906E+03  0.12499790303E+03 0.  0.
    9000005    1    3    3    0    0  0.28164301798E+02  0.44646327567E+02 -0.49295273382E+03  0.49577204464E+03  0.10000000000E+01 0.  0.
    9000005    1    3    3    0    0 -0.28164301798E+02 -0.44646327567E+02 -0.14504586528E+03  0.15435616443E+03  0.10000000000E+01 0.  0.
<mgrwt>
<rscale>  0 0.12499790E+03</rscale>
<asrwt>0</asrwt>
<pdfrwt beam="1">  1        4 0.93304743E-03 0.12499790E+03</pdfrwt>
<pdfrwt beam="2">  1       -4 0.99086623E-01 0.12499790E+03</pdfrwt>
<totfact> 0.45850856E+03</totfact>
</mgrwt>
</event>
<event>
 5    1  0.3267085E-002  0.1249934E+03  0.7818608E-02  0.1235080E+00
          4   -1    0    0  501    0  0.00000000000E+00  0.00000000000E+00  0.14388064945E+04  0.14388070550E+04  0.12700000000E+01 0.  1.
         -4   -1    0    0    0  501 -0.00000000000E+00 -0.00000000000E+00 -0.25655069512E+01  0.28626431697E+01  0.12700000000E+01 0.  1.
         25    2    1    2    0    0  0.00000000000E+00  0.00000000000E+00  0.14362409875E+04  0.14416696982E+04  0.12499337704E+03 0.  0.
    9000005    1    3    3    0    0  0.24418612499E+02 -0.34636433934E+01  0.13803521846E+04  0.13805728590E+04  0.10000000000E+01 0.  0.
    9000005    1    3    3    0    0 -0.24418612499E+02  0.34636433934E+01  0.55888802935E+02  0.61096839161E+02  0.10000000000E+01 0.  0.
<mgrwt>
<rscale>  0 0.12499338E+03</rscale>
<asrwt>0</asrwt>
<pdfrwt beam="1">  1        4 0.22137774E+00 0.12499338E+03</pdfrwt>
<pdfrwt beam="2">  1       -4 0.41759313E-03 0.12499338E+03</pdfrwt>
<totfact> 0.19106768E+03</totfact>
</mgrwt>
</event>
<event>
 5    1  0.3267085E-002  0.1250008E+03  0.7818608E-02  0.1235068E+00
          4   -1    0    0  501    0  0.00000000000E+00  0.00000000000E+00  0.22958739656E+02  0.22993838883E+02  0.12700000000E+01 0.  1.
         -4   -1    0    0    0  501 -0.00000000000E+00 -0.00000000000E+00 -0.16997689687E+03  0.16998164127E+03  0.12700000000E+01 0.  1.
         25    2    1    2    0    0  0.00000000000E+00  0.00000000000E+00 -0.14701815721E+03  0.19297548016E+03  0.12500078956E+03 0.  0.
    9000005    1    3    3    0    0 -0.18342292942E+02  0.50265047342E+02 -0.12334959640E+03  0.13445868371E+03  0.10000000000E+01 0.  0.
    9000005    1    3    3    0    0  0.18342292942E+02 -0.50265047342E+02 -0.23668560817E+02  0.58516796442E+02  0.10000000000E+01 0.  0.
<mgrwt>
<rscale>  0 0.12500079E+03</rscale>
<asrwt>0</asrwt>
<pdfrwt beam="1">  1        4 0.35351788E-02 0.12500079E+03</pdfrwt>
<pdfrwt beam="2">  1       -4 0.26153356E-01 0.12500079E+03</pdfrwt>
<totfact> 0.91330539E+03</totfact>
</mgrwt>
</event>
<event>
 5    1  0.3267085E-002  0.1250016E+03  0.7818608E-02  0.1235067E+00
         -4   -1    0    0    0  501 -0.00000000000E+00  0.00000000000E+00  0.46359204096E+01  0.48067304942E+01  0.12700000000E+01 0.  1.
          4   -1    0    0  501    0  0.00000000000E+00 -0.00000000000E+00 -0.82721281518E+03  0.82721379008E+03  0.12700000000E+01 0.  1.
         25    2    1    2    0    0  0.00000000000E+00  0.00000000000E+00 -0.82257689477E+03  0.83202052057E+03  0.12500159537E+03 0.  0.
    9000005    1    3    3    0    0  0.48647797553E+02 -0.32555966922E+02 -0.26563577255E+03  0.27201077708E+03  0.10000000000E+01 0.  0.
    9000005    1    3    3    0    0 -0.48647797553E+02  0.32555966922E+02 -0.55694112222E+03  0.56000974350E+03  0.10000000000E+01 0.  0.
<mgrwt>
<rscale>  0 0.12500160E+03</rscale>
<asrwt>0</asrwt>
<pdfrwt beam="2">  1        4 0.12727661E+00 0.12500160E+03</pdfrwt>
<pdfrwt beam="1">  1       -4 0.72643341E-03 0.12500160E+03</pdfrwt>
<totfact> 0.36873310E+03</totfact>
</mgrwt>
</event>
<event>
 5    1  0.3267085E-002  0.1250021E+03  0.7818608E-02  0.1235066E+00
         -4   -1    0    0    0  501 -0.00000000000E+00  0.00000000000E+00  0.32569169426E+01  0.34957700111E+01  0.12700000000E+01 0. -1.
          4   -1    0    0  501    0  0.00000000000E+00 -0.00000000000E+00 -0.11567460446E+04  0.11567467418E+04  0.12700000000E+01 0. -1.
         25    2    1    2    0    0  0.00000000000E+00  0.00000000000E+00 -0.11534891277E+04  0.11602425118E+04  0.12500207407E+03 0.  0.
    9000005    1    3    3    0    0 -0.31937224091E+02 -0.45274007135E+02 -0.30842907377E+03  0.31336754068E+03  0.10000000000E+01 0.  0.
    9000005    1    3    3    0    0  0.31937224091E+02  0.45274007135E+02 -0.84506005391E+03  0.84687497113E+03  0.10000000000E+01 0.  0.
<mgrwt>
<rscale>  0 0.12500207E+03</rscale>
<asrwt>0</asrwt>
<pdfrwt beam="2">  1        4 0.17797904E+00 0.12500207E+03</pdfrwt>
<pdfrwt beam="1">  1       -4 0.51949201E-03 0.12500207E+03</pdfrwt>
<totfact> 0.25776634E+03</totfact>
</mgrwt>
</event>
<event>
 5    1  0.3267085E-002  0.1250032E+03  0.7818608E-02  0.1235064E+00
          4   -1    0    0  501    0  0.00000000000E+00  0.00000000000E+00  0.22691442551E+02  0.22726954593E+02  0.12700000000E+01 0.  1.
         -4   -1    0    0    0  501 -0.00000000000E+00 -0.00000000000E+00 -0.17198262421E+03  0.17198731328E+03  0.12700000000E+01 0.  1.
         25    2    1    2    0    0  0.00000000000E+00  0.00000000000E+00 -0.14929118166E+03  0.19471426787E+03  0.12500315673E+03 0.  0.
    9000005    1    3    3    0    0 -0.33097328207E+01 -0.60044943410E+02 -0.10113053990E+03  0.11766365480E+03  0.10000000000E+01 0.  0.
    9000005    1    3    3    0    0  0.33097328207E+01  0.60044943410E+02 -0.48160641755E+02  0.77050613072E+02  0.10000000000E+01 0.  0.
<mgrwt>
<rscale>  0 0.12500316E+03</rscale>
<asrwt>0</asrwt>
<pdfrwt beam="1">  1        4 0.34940837E-02 0.12500316E+03</pdfrwt>
<pdfrwt beam="2">  1       -4 0.26461957E-01 0.12500316E+03</pdfrwt>
<totfact> 0.91027023E+03</totfact>
</mgrwt>
</event>
<event>
 5    1  0.3267085E-002  0.1249962E+03  0.7818608E-02  0.1235075E+00
          4   -1    0    0  501    0  0.00000000000E+00  0.00000000000E+00  0.79148830737E+02  0.79159019114E+02  0.12700000000E+01 0. -1.
         -4   -1    0    0    0  501 -0.00000000000E+00 -0.00000000000E+00 -0.49328696107E+02  0.49345041895E+02  0.12700000000E+01 0. -1.
         25    2    1    2    0    0  0.00000000000E+00  0.00000000000E+00  0.29820134630E+02  0.12850406101E+03  0.12499621301E+03 0.  0.
    9000005    1    3    3    0    0  0.29853710040E+02 -0.39658198409E+02  0.53935836984E+02  0.73308193372E+02  0.10000000000E+01 0.  0.
    9000005    1    3    3    0    0 -0.29853710040E+02  0.39658198409E+02 -0.24115702354E+02  0.55195867638E+02  0.10000000000E+01 0.  0.
<mgrwt>
<rscale>  0 0.12499621E+03</rscale>
<asrwt>0</asrwt>
<pdfrwt beam="1">  1        4 0.12178784E-01 0.12499621E+03</pdfrwt>
<pdfrwt beam="2">  1       -4 0.75910713E-02 0.12499621E+03</pdfrwt>
<totfact> 0.10377503E+04</totfact>
</mgrwt>
</event>
<event>
 5    1  0.3267085E-002  0.1249977E+03  0.7818608E-02  0.1235073E+00
         -4   -1    0    0    0  501 -0.00000000000E+00  0.00000000000E+00  0.86595135743E+01  0.87521468991E+01  0.12700000000E+01 0. -1.
          4   -1    0    0  501    0  0.00000000000E+00 -0.00000000000E+00 -0.44858386620E+03  0.44858566396E+03  0.12700000000E+01 0. -1.
         25    2    1    2    0    0  0.00000000000E+00  0.00000000000E+00 -0.43992435263E+03  0.45733781086E+03  0.12499774883E+03 0.  0.
    9000005    1    3    3    0    0 -0.38846388132E+02 -0.44685824579E+02 -0.29306840752E+03  0.29899156556E+03  0.10000000000E+01 0.  0.
    9000005    1    3    3    0    0  0.38846388132E+02  0.44685824579E+02 -0.14685594511E+03  0.15834624530E+03  0.10000000000E+01 0.  0.
<mgrwt>
<rscale>  0 0.12499775E+03</rscale>
<asrwt>0</asrwt>
<pdfrwt beam="2">  1        4 0.69020148E-01 0.12499775E+03</pdfrwt>
<pdfrwt beam="1">  1       -4 0.13394971E-02 0.12499775E+03</pdfrwt>
<totfact> 0.59336300E+03</totfact>
</mgrwt>
</event>
<event>
 5    1  0.3267085E-002  0.1249970E+03  0.7818608E-02  0.1235074E+00
          4   -1    0    0  501    0  0.00000000000E+00  0.00000000000E+00  0.15338707535E+02  0.15391193873E+02  0.12700000000E+01 0.  1.
         -4   -1    0    0    0  501 -0.00000000000E+00 -0.00000000000E+00 -0.25416478684E+03  0.25416795976E+03  0.12700000000E+01 0.  1.
         25    2    1    2    0    0  0.00000000000E+00  0.00000000000E+00 -0.23882607931E+03  0.26955915364E+03  0.12499696457E+03 0.  0.
    9000005    1    3    3    0    0 -0.21123109635E+01 -0.22317530558E+02  0.63796375709E+01  0.23328819159E+02  0.10000000000E+01 0.  0.
    9000005    1    3    3    0    0  0.21123109635E+01  0.22317530558E+02 -0.24520571688E+03  0.24623033448E+03  0.10000000000E+01 0.  0.
<mgrwt>
<rscale>  0 0.12499696E+03</rscale>
<asrwt>0</asrwt>
<pdfrwt beam="1">  1        4 0.23640828E-02 0.12499696E+03</pdfrwt>
<pdfrwt beam="2">  1       -4 0.39106553E-01 0.12499696E+03</pdfrwt>
<totfact> 0.79588383E+03</totfact>
</mgrwt>
</event>
<event>
 5    1  0.3267085E-002  0.1250017E+03  0.7818608E-02  0.1235067E+00
          4   -1    0    0  501    0  0.00000000000E+00  0.00000000000E+00  0.66933530493E+02  0.66945577929E+02  0.12700000000E+01 0. -1.
         -4   -1    0    0    0  501 -0.00000000000E+00 -0.00000000000E+00 -0.58337491173E+02  0.58351313407E+02  0.12700000000E+01 0. -1.
         25    2    1    2    0    0  0.00000000000E+00  0.00000000000E+00  0.85960393203E+01  0.12529689134E+03  0.12500167633E+03 0.  0.
    9000005    1    3    3    0    0 -0.21197045621E+02  0.45450245174E+02 -0.33076971703E+02  0.60084320637E+02  0.10000000000E+01 0.  0.
    9000005    1    3    3    0    0  0.21197045621E+02 -0.45450245174E+02  0.41673011023E+02  0.65212570699E+02  0.10000000000E+01 0.  0.
<mgrwt>
<rscale>  0 0.12500168E+03</rscale>
<asrwt>0</asrwt>
<pdfrwt beam="1">  1        4 0.10299456E-01 0.12500168E+03</pdfrwt>
<pdfrwt beam="2">  1       -4 0.89769886E-02 0.12500168E+03</pdfrwt>
<totfact> 0.10446022E+04</totfact>
</mgrwt>
</event>
<event>
 5    1  0.3267085E-002  0.1249826E+03  0.7818608E-02  0.1235096E+00
          4   -1    0    0  501    0  0.00000000000E+00  0.00000000000E+00  0.11923750673E+03  0.11924426993E+03  0.12700000000E+01 0. -1.
         -4   -1    0    0    0  501 -0.00000000000E+00 -0.00000000000E+00 -0.32731139781E+02  0.32755769131E+02  0.12700000000E+01 0. -1.
         25    2    1    2    0    0  0.00000000000E+00  0.00000000000E+00  0.86506366945E+02  0.15200003906E+03  0.12498264020E+03 0.  0.
    9000005    1    3    3    0    0 -0.47941396492E+02  0.41269981462E+01 -0.52223430753E+01  0.48411594463E+02  0.10000000000E+01 0.  0.
    9000005    1    3    3    0    0  0.47941396492E+02 -0.41269981462E+01  0.91728710020E+02  0.10358844459E+03  0.10000000000E+01 0.  0.
<mgrwt>
<rscale>  0 0.12498264E+03</rscale>
<asrwt>0</asrwt>
<pdfrwt beam="1">  1        4 0.18346647E-01 0.12498264E+03</pdfrwt>
<pdfrwt beam="2">  1       -4 0.50379747E-02 0.12498264E+03</pdfrwt>
<totfact> 0.98945148E+03</totfact>
</mgrwt>
</event>
<event>
 5    1  0.3267085E-002  0.1250052E+03  0.7818608E-02  0.1235061E+00
          4   -1    0    0  501    0  0.00000000000E+00  0.00000000000E+00  0.11175774043E+03  0.11176495625E+03  0.12700000000E+01 0. -1.
         -4   -1    0    0    0  501 -0.00000000000E+00 -0.00000000000E+00 -0.34935860360E+02  0.34958936470E+02  0.12700000000E+01 0. -1.
         25    2    1    2    0    0  0.00000000000E+00  0.00000000000E+00  0.76821880072E+02  0.14672389272E+03  0.12500519764E+03 0.  0.
    9000005    1    3    3    0    0  0.33845802921E+02  0.44747780848E+02  0.61026808172E+01  0.56445947413E+02  0.10000000000E+01 0.  0.
    9000005    1    3    3    0    0 -0.33845802921E+02 -0.44747780848E+02  0.70719199255E+02  0.90277945311E+02  0.10000000000E+01 0.  0.
<mgrwt>
<rscale>  0 0.12500520E+03</rscale>
<asrwt>0</asrwt>
<pdfrwt beam="1">  1        4 0.17195829E-01 0.12500520E+03</pdfrwt>
<pdfrwt beam="2">  1       -4 0.53770779E-02 0.12500520E+03</pdfrwt>
<totfact> 0.99949100E+03</totfact>
</mgrwt>
</event>
<event>
 5    1  0.3267085E-002  0.1250005E+03  0.7818608E-02  0.1235068E+00
          4   -1    0    0  501    0  0.00000000000E+00  0.00000000000E+00  0.50032447211E+02  0.50048563155E+02  0.12700000000E+01 0. -1.
         -4   -1    0    0    0  501 -0.00000000000E+00 -0.00000000000E+00 -0.78041108265E+02  0.78051441237E+02  0.12700000000E+01 0. -1.
         25    2    1    2    0    0  0.00000000000E+00  0.00000000000E+00 -0.28008661054E+02  0.12810000439E+03  0.12500050412E+03 0.  0.
    9000005    1    3    3    0    0  0.13864537933E+02  0.60918583423E+02 -0.15447179642E+02  0.64365476594E+02  0.10000000000E+01 0.  0.
    9000005    1    3    3    0    0 -0.13864537933E+02 -0.60918583423E+02 -0.12561481412E+02  0.63734527798E+02  0.10000000000E+01 0.  0.
<mgrwt>
<rscale>  0 0.12500050E+03</rscale>
<asrwt>0</asrwt>
<pdfrwt beam="1">  1        4 0.76993341E-02 0.12500050E+03</pdfrwt>
<pdfrwt beam="2">  1       -4 0.12008359E-01 0.12500050E+03</pdfrwt>
<totfact> 0.10385210E+04</totfact>
</mgrwt>
</event>
<event>
 5    1  0.3267085E-002  0.1249993E+03  0.7818608E-02  0.1235070E+00
         -4   -1    0    0    0  501 -0.00000000000E+00  0.00000000000E+00  0.17575726429E+03  0.17576185266E+03  0.12700000000E+01 0. -1.
          4   -1    0    0  501    0  0.00000000000E+00 -0.00000000000E+00 -0.22201996745E+02  0.22238290390E+02  0.12700000000E+01 0. -1.
         25    2    1    2    0    0  0.00000000000E+00  0.00000000000E+00  0.15355526754E+03  0.19800014305E+03  0.12499934583E+03 0.  0.
    9000005    1    3    3    0    0 -0.47405757224E+02  0.37545860957E+02  0.10173327995E+03  0.11835395110E+03  0.10000000000E+01 0.  0.
    9000005    1    3    3    0    0  0.47405757224E+02 -0.37545860957E+02  0.51821987593E+02  0.79646191943E+02  0.10000000000E+01 0.  0.
<mgrwt>
<rscale>  0 0.12499935E+03</rscale>
<asrwt>0</asrwt>
<pdfrwt beam="2">  1        4 0.34188365E-02 0.12499935E+03</pdfrwt>
<pdfrwt beam="1">  1       -4 0.27042725E-01 0.12499935E+03</pdfrwt>
<totfact> 0.90474971E+03</totfact>
</mgrwt>
</event>
<event>
 5    1  0.3267085E-002  0.1249995E+03  0.7818608E-02  0.1235070E+00
          4   -1    0    0  501    0  0.00000000000E+00  0.00000000000E+00  0.27780603690E+03  0.27780893981E+03  0.12700000000E+01 0.  1.
         -4   -1    0    0    0  501 -0.00000000000E+00 -0.00000000000E+00 -0.14029301680E+02  0.14086667655E+02  0.12700000000E+01 0.  1.
         25    2    1    2    0    0  0.00000000000E+00  0.00000000000E+00  0.26377673522E+03  0.29189560746E+03  0.12499951845E+03 0.  0.
    9000005    1    3    3    0    0 -0.32852114128E+02 -0.40569363215E+02  0.21210712203E+03  0.21843892933E+03  0.10000000000E+01 0.  0.
    9000005    1    3    3    0    0  0.32852114128E+02  0.40569363215E+02  0.51669613194E+02  0.73456678130E+02  0.10000000000E+01 0.  0.
<mgrwt>
<rscale>  0 0.12499952E+03</rscale>
<asrwt>0</asrwt>
<pdfrwt beam="1">  1        4 0.42744025E-01 0.12499952E+03</pdfrwt>
<pdfrwt beam="2">  1       -4 0.21629902E-02 0.12499952E+03</pdfrwt>
<totfact> 0.76627635E+03</totfact>
</mgrwt>
</event>
<event>
 5    1  0.3267085E-002  0.1250035E+03  0.7818608E-02  0.1235064E+00
          4   -1    0    0  501    0  0.00000000000E+00  0.00000000000E+00  0.14052279243E+02  0.14109551797E+02  0.12700000000E+01 0. -1.
         -4   -1    0    0    0  501 -0.00000000000E+00 -0.00000000000E+00 -0.27737135666E+03  0.27737426412E+03  0.12700000000E+01 0. -1.
         25    2    1    2    0    0  0.00000000000E+00  0.00000000000E+00 -0.26331907742E+03  0.29148381592E+03  0.12500351359E+03 0.  0.
    9000005    1    3    3    0    0  0.36407428625E+02  0.45661739180E+02 -0.18353757865E+03  0.19260721186E+03  0.10000000000E+01 0.  0.
    9000005    1    3    3    0    0 -0.36407428625E+02 -0.45661739180E+02 -0.79781498766E+02  0.98876604054E+02  0.10000000000E+01 0.  0.
<mgrwt>
<rscale>  0 0.12500351E+03</rscale>
<asrwt>0</asrwt>
<pdfrwt beam="1">  1        4 0.21665186E-02 0.12500351E+03</pdfrwt>
<pdfrwt beam="2">  1       -4 0.42677142E-01 0.12500351E+03</pdfrwt>
<totfact> 0.76673681E+03</totfact>
</mgrwt>
</event>
<event>
 5    1  0.3267085E-002  0.1250028E+03  0.7818608E-02  0.1235065E+00
          4   -1    0    0  501    0  0.00000000000E+00  0.00000000000E+00  0.10864302141E+03  0.10865044409E+03  0.12700000000E+01 0.  1.
         -4   -1    0    0    0  501 -0.00000000000E+00 -0.00000000000E+00 -0.35936649448E+02  0.35959083325E+02  0.12700000000E+01 0.  1.
         25    2    1    2    0    0  0.00000000000E+00  0.00000000000E+00  0.72706371964E+02  0.14460952742E+03  0.12500279555E+03 0.  0.
    9000005    1    3    3    0    0 -0.41414802931E+02  0.46219656889E+02  0.27853512807E+02  0.68031321907E+02  0.10000000000E+01 0.  0.
    9000005    1    3    3    0    0  0.41414802931E+02 -0.46219656889E+02  0.44852859157E+02  0.76578205511E+02  0.10000000000E+01 0.  0.
<mgrwt>
<rscale>  0 0.12500280E+03</rscale>
<asrwt>0</asrwt>
<pdfrwt beam="1">  1        4 0.16716608E-01 0.12500280E+03</pdfrwt>
<pdfrwt beam="2">  1       -4 0.55310120E-02 0.12500280E+03</pdfrwt>
<totfact> 0.10038296E+04</totfact>
</mgrwt>
</event>
<event>
 5    1  0.3267085E-002  0.1250003E+03  0.7818608E-02  0.1235069E+00
          4   -1    0    0  501    0  0.00000000000E+00  0.00000000000E+00  0.11008722150E+03  0.11009454682E+03  0.12700000000E+01 0. -1.
         -4   -1    0    0    0  501 -0.00000000000E+00 -0.00000000000E+00 -0.35463538999E+02  0.35486271970E+02  0.12700000000E+01 0. -1.
         25    2    1    2    0    0  0.00000000000E+00  0.00000000000E+00  0.74623682506E+02  0.14558081879E+03  0.12500032323E+03 0.  0.
    9000005    1    3    3    0    0  0.37981371096E+02 -0.44043506040E+02  0.10681069721E+02  0.59139667102E+02  0.10000000000E+01 0.  0.
    9000005    1    3    3    0    0 -0.37981371096E+02  0.44043506040E+02  0.63942612785E+02  0.86441151684E+02  0.10000000000E+01 0.  0.
<mgrwt>
<rscale>  0 0.12500032E+03</rscale>
<asrwt>0</asrwt>
<pdfrwt beam="1">  1        4 0.16938808E-01 0.12500032E+03</pdfrwt>
<pdfrwt beam="2">  1       -4 0.54582413E-02 0.12500032E+03</pdfrwt>
<totfact> 0.10019128E+04</totfact>
</mgrwt>
</event>
<event>
 5    1  0.3267085E-002  0.1249920E+03  0.7818608E-02  0.1235082E+00
          4   -1    0    0  501    0  0.00000000000E+00  0.00000000000E+00  0.42565483498E+03  0.42565672958E+03  0.12700000000E+01 0. -1.
         -4   -1    0    0    0  501 -0.00000000000E+00 -0.00000000000E+00 -0.91299864293E+01  0.92178930455E+01  0.12700000000E+01 0. -1.
         25    2    1    2    0    0  0.00000000000E+00  0.00000000000E+00  0.41652484855E+03  0.43487462263E+03  0.12499195154E+03 0.  0.
    9000005    1    3    3    0    0  0.18266439456E+02  0.20842059739E+02  0.13404530392E+02  0.30801553525E+02  0.10000000000E+01 0.  0.
    9000005    1    3    3    0    0 -0.18266439456E+02 -0.20842059739E+02  0.40312031816E+03  0.40407306910E+03  0.10000000000E+01 0.  0.
<mgrwt>
<rscale>  0 0.12499195E+03</rscale>
<asrwt>0</asrwt>
<pdfrwt beam="1">  1        4 0.65492251E-01 0.12499195E+03</pdfrwt>
<pdfrwt beam="2">  1       -4 0.14115214E-02 0.12499195E+03</pdfrwt>
<totfact> 0.61307493E+03</totfact>
</mgrwt>
</event>
<event>
 5    1  0.3267085E-002  0.1250013E+03  0.7818608E-02  0.1235067E+00
         -4   -1    0    0    0  501 -0.00000000000E+00  0.00000000000E+00  0.62294169327E+02  0.62307113816E+02  0.12700000000E+01 0. -1.
          4   -1    0    0  501    0  0.00000000000E+00 -0.00000000000E+00 -0.62681945404E+02  0.62694809830E+02  0.12700000000E+01 0. -1.
         25    2    1    2    0    0  0.00000000000E+00  0.00000000000E+00 -0.38777607727E+00  0.12500192365E+03  0.12500132217E+03 0.  0.
    9000005    1    3    3    0    0 -0.50895775326E+02 -0.32150486407E+02  0.16578160764E+02  0.62448932229E+02  0.10000000000E+01 0.  0.
    9000005    1    3    3    0    0  0.50895775326E+02  0.32150486407E+02 -0.16965936841E+02  0.62552991417E+02  0.10000000000E+01 0.  0.
<mgrwt>
<rscale>  0 0.12500132E+03</rscale>
<asrwt>0</asrwt>
<pdfrwt beam="2">  1        4 0.96453615E-02 0.12500132E+03</pdfrwt>
<pdfrwt beam="1">  1       -4 0.95857037E-02 0.12500132E+03</pdfrwt>
<totfact> 0.10452508E+04</totfact>
</mgrwt>
</event>
<event>
 5    1  0.3267085E-002  0.1250114E+03  0.7818608E-02  0.1235051E+00
         -4   -1    0    0    0  501 -0.00000000000E+00  0.00000000000E+00  0.10827365234E+03  0.10828110034E+03  0.12700000000E+01 0.  1.
          4   -1    0    0  501    0  0.00000000000E+00 -0.00000000000E+00 -0.36064292654E+02  0.36086647179E+02  0.12700000000E+01 0.  1.
         25    2    1    2    0    0  0.00000000000E+00  0.00000000000E+00  0.72209359686E+02  0.14436774752E+03  0.12501141907E+03 0.  0.
    9000005    1    3    3    0    0  0.98401016452E+00  0.21361115780E+02  0.10392316571E+03  0.10610508901E+03  0.10000000000E+01 0.  0.
    9000005    1    3    3    0    0 -0.98401016452E+00 -0.21361115780E+02 -0.31713806025E+02  0.38262658506E+02  0.10000000000E+01 0.  0.
<mgrwt>
<rscale>  0 0.12501142E+03</rscale>
<asrwt>0</asrwt>
<pdfrwt beam="2">  1        4 0.55506453E-02 0.12501142E+03</pdfrwt>
<pdfrwt beam="1">  1       -4 0.16659777E-01 0.12501142E+03</pdfrwt>
<totfact> 0.10041268E+04</totfact>
</mgrwt>
</event>
<event>
 5    1  0.3267085E-002  0.1249807E+03  0.7818608E-02  0.1235099E+00
         -4   -1    0    0    0  501 -0.00000000000E+00  0.00000000000E+00  0.88117331358E+01  0.89027827591E+01  0.12700000000E+01 0.  1.
          4   -1    0    0  501    0  0.00000000000E+00 -0.00000000000E+00 -0.44079441459E+03  0.44079624413E+03  0.12700000000E+01 0.  1.
         25    2    1    2    0    0  0.00000000000E+00  0.00000000000E+00 -0.43198268146E+03  0.44969902689E+03  0.12498070932E+03 0.  0.
    9000005    1    3    3    0    0 -0.40158647607E+02 -0.75016709733E+01 -0.38609858751E+03  0.38825521416E+03  0.10000000000E+01 0.  0.
    9000005    1    3    3    0    0  0.40158647607E+02  0.75016709733E+01 -0.45884093949E+02  0.61443812728E+02  0.10000000000E+01 0.  0.
<mgrwt>
<rscale>  0 0.12498071E+03</rscale>
<asrwt>0</asrwt>
<pdfrwt beam="2">  1        4 0.67821653E-01 0.12498071E+03</pdfrwt>
<pdfrwt beam="1">  1       -4 0.13627961E-02 0.12498071E+03</pdfrwt>
<totfact> 0.60015383E+03</totfact>
</mgrwt>
</event>
<event>
 5    1  0.3267085E-002  0.1250001E+03  0.7818608E-02  0.1235069E+00
          4   -1    0    0  501    0  0.00000000000E+00  0.00000000000E+00  0.20171790491E+03  0.20172190278E+03  0.12700000000E+01 0.  1.
         -4   -1    0    0    0  501 -0.00000000000E+00 -0.00000000000E+00 -0.19339935027E+02  0.19381588863E+02  0.12700000000E+01 0.  1.
         25    2    1    2    0    0  0.00000000000E+00  0.00000000000E+00  0.18237796988E+03  0.22110349164E+03  0.12500012047E+03 0.  0.
    9000005    1    3    3    0    0 -0.14040507900E+02 -0.60433967660E+02  0.10440878324E+03  0.12145614158E+03  0.10000000000E+01 0.  0.
    9000005    1    3    3    0    0  0.14040507900E+02  0.60433967660E+02  0.77969186640E+02  0.99647350063E+02  0.10000000000E+01 0.  0.
<mgrwt>
<rscale>  0 0.12500012E+03</rscale>
<asrwt>0</asrwt>
<pdfrwt beam="1">  1        4 0.31037034E-01 0.12500012E+03</pdfrwt>
<pdfrwt beam="2">  1       -4 0.29788864E-02 0.12500012E+03</pdfrwt>
<totfact> 0.86693804E+03</totfact>
</mgrwt>
</event>
<event>
 5    1  0.3267085E-002  0.1249971E+03  0.7818608E-02  0.1235074E+00
          4   -1    0    0  501    0  0.00000000000E+00  0.00000000000E+00  0.18933812896E+03  0.18934238822E+03  0.12700000000E+01 0.  1.
         -4   -1    0    0    0  501 -0.00000000000E+00 -0.00000000000E+00 -0.20606084216E+02  0.20645183620E+02  0.12700000000E+01 0.  1.
         25    2    1    2    0    0  0.00000000000E+00  0.00000000000E+00  0.16873204474E+03  0.20998757184E+03  0.12499710959E+03 0.  0.
    9000005    1    3    3    0    0  0.15214507818E+02 -0.44064222617E+02  0.15427920746E+03  0.16117137096E+03  0.10000000000E+01 0.  0.
    9000005    1    3    3    0    0 -0.15214507818E+02  0.44064222617E+02  0.14452837284E+02  0.48816200882E+02  0.10000000000E+01 0.  0.
<mgrwt>
<rscale>  0 0.12499711E+03</rscale>
<asrwt>0</asrwt>
<pdfrwt beam="1">  1        4 0.29132280E-01 0.12499711E+03</pdfrwt>
<pdfrwt beam="2">  1       -4 0.31735019E-02 0.12499711E+03</pdfrwt>
<totfact> 0.88483626E+03</totfact>
</mgrwt>
</event>
<event>
 5    1  0.3267085E-002  0.1249952E+03  0.7818608E-02  0.1235077E+00
         -4   -1    0    0    0  501 -0.00000000000E+00  0.00000000000E+00  0.57963511200E+01  0.59338508834E+01  0.12700000000E+01 0. -1.
          4   -1    0    0  501    0  0.00000000000E+00 -0.00000000000E+00 -0.66582637342E+03  0.66582758462E+03  0.12700000000E+01 0. -1.
         25    2    1    2    0    0  0.00000000000E+00  0.00000000000E+00 -0.66003002230E+03  0.67176143550E+03  0.12499518348E+03 0.  0.
    9000005    1    3    3    0    0 -0.81378777430E+01  0.45096851084E+02 -0.10168649972E+03  0.11153965778E+03  0.10000000000E+01 0.  0.
    9000005    1    3    3    0    0  0.81378777430E+01 -0.45096851084E+02 -0.55834352258E+03  0.56022177772E+03  0.10000000000E+01 0.  0.
<mgrwt>
<rscale>  0 0.12499518E+03</rscale>
<asrwt>0</asrwt>
<pdfrwt beam="2">  1        4 0.10244544E+00 0.12499518E+03</pdfrwt>
<pdfrwt beam="1">  1       -4 0.90241692E-03 0.12499518E+03</pdfrwt>
<totfact> 0.44624593E+03</totfact>
</mgrwt>
</event>
<event>
 5    1  0.3267085E-002  0.1250005E+03  0.7818608E-02  0.1235069E+00
         -4   -1    0    0    0  501 -0.00000000000E+00  0.00000000000E+00  0.68360663628E+01  0.69530355469E+01  0.12700000000E+01 0. -1.
          4   -1    0    0  501    0  0.00000000000E+00 -0.00000000000E+00 -0.56645738561E+03  0.56645880928E+03  0.12700000000E+01 0. -1.
         25    2    1    2    0    0  0.00000000000E+00  0.00000000000E+00 -0.55962131925E+03  0.57341184483E+03  0.12500049133E+03 0.  0.
    9000005    1    3    3    0    0 -0.25602013143E+02 -0.55728613329E+02 -0.33488459689E+03  0.34045533430E+03  0.10000000000E+01 0.  0.
    9000005    1    3    3    0    0  0.25602013143E+02  0.55728613329E+02 -0.22473672236E+03  0.23295651053E+03  0.10000000000E+01 0.  0.
<mgrwt>
<rscale>  0 0.12500049E+03</rscale>
<asrwt>0</asrwt>
<pdfrwt beam="2">  1        4 0.87156361E-01 0.12500049E+03</pdfrwt>
<pdfrwt beam="1">  1       -4 0.10608101E-02 0.12500049E+03</pdfrwt>
<totfact> 0.50589594E+03</totfact>
</mgrwt>
</event>
<event>
 5    1  0.3267085E-002  0.1250008E+03  0.7818608E-02  0.1235068E+00
          4   -1    0    0  501    0  0.00000000000E+00  0.00000000000E+00  0.71684474169E+03  0.71684586668E+03  0.12700000000E+01 0.  1.
         -4   -1    0    0    0  501 -0.00000000000E+00 -0.00000000000E+00 -0.53741565578E+01  0.55221788008E+01  0.12700000000E+01 0.  1.
         25    2    1    2    0    0  0.00000000000E+00  0.00000000000E+00  0.71147058513E+03  0.72236804549E+03  0.12500079854E+03 0.  0.
    9000005    1    3    3    0    0  0.22298926519E+02 -0.24258468813E+02  0.48876696070E+02  0.58954616883E+02  0.10000000000E+01 0.  0.
    9000005    1    3    3    0    0 -0.22298926519E+02  0.24258468813E+02  0.66259388906E+03  0.66341342860E+03  0.10000000000E+01 0.  0.
<mgrwt>
<rscale>  0 0.12500080E+03</rscale>
<asrwt>0</asrwt>
<pdfrwt beam="1">  1        4 0.11029527E+00 0.12500080E+03</pdfrwt>
<pdfrwt beam="2">  1       -4 0.83826625E-03 0.12500080E+03</pdfrwt>
<totfact> 0.41931159E+03</totfact>
</mgrwt>
</event>
<event>
 4    1  0.3267085E-002  0.1249299E+03  0.7818608E-02  0.1235179E+00
          4   -1    0    0  501    0  0.00000000000E+00  0.00000000000E+00  0.35825262048E+01  0.38009727713E+01  0.12700000000E+01 0.  1.
         -4   -1    0    0    0  501 -0.00000000000E+00 -0.00000000000E+00 -0.10566972099E+04  0.10566979731E+04  0.12700000000E+01 0.  1.
    9000005    1    1    2    0    0  0.28830113981E+02  0.53124847583E+02 -0.39302616217E+03  0.39764807186E+03  0.10000000000E+01 0.  0.
    9000005    1    1    2    0    0 -0.28830113981E+02 -0.53124847583E+02 -0.66008852152E+03  0.66285087399E+03  0.10000000000E+01 0.  0.
<mgrwt>
<rscale>  0 0.12492989E+03</rscale>
<asrwt>0</asrwt>
<pdfrwt beam="1">  1        4 0.56802101E-03 0.12492989E+03</pdfrwt>
<pdfrwt beam="2">  1       -4 0.16258542E+00 0.12492989E+03</pdfrwt>
<totfact> 0.28713136E+03</totfact>
</mgrwt>
</event>
<event>
 5    1  0.3267085E-002  0.1249977E+03  0.7818608E-02  0.1235073E+00
          4   -1    0    0  501    0  0.00000000000E+00  0.00000000000E+00  0.13830414209E+02  0.13888601701E+02  0.12700000000E+01 0.  1.
         -4   -1    0    0    0  501 -0.00000000000E+00 -0.00000000000E+00 -0.28177636471E+03  0.28177922672E+03  0.12700000000E+01 0.  1.
         25    2    1    2    0    0  0.00000000000E+00  0.00000000000E+00 -0.26794595050E+03  0.29566782842E+03  0.12499772947E+03 0.  0.
    9000005    1    3    3    0    0  0.32854061636E+01  0.45920559425E+02 -0.34019929386E+02  0.57252486994E+02  0.10000000000E+01 0.  0.
    9000005    1    3    3    0    0 -0.32854061636E+01 -0.45920559425E+02 -0.23392602112E+03  0.23841534143E+03  0.10000000000E+01 0.  0.
<mgrwt>
<rscale>  0 0.12499773E+03</rscale>
<asrwt>0</asrwt>
<pdfrwt beam="1">  1        4 0.21324524E-02 0.12499773E+03</pdfrwt>
<pdfrwt beam="2">  1       -4 0.43354902E-01 0.12499773E+03</pdfrwt>
<totfact> 0.76149333E+03</totfact>
</mgrwt>
</event>
<event>
 5    1  0.3267085E-002  0.1250010E+03  0.7818608E-02  0.1235068E+00
         -4   -1    0    0    0  501 -0.00000000000E+00  0.00000000000E+00  0.17661970180E+03  0.17662426776E+03  0.12700000000E+01 0.  1.
          4   -1    0    0  501    0  0.00000000000E+00 -0.00000000000E+00 -0.22094009162E+02  0.22130479905E+02  0.12700000000E+01 0.  1.
         25    2    1    2    0    0  0.00000000000E+00  0.00000000000E+00  0.15452569263E+03  0.19875474767E+03  0.12500104014E+03 0.  0.
    9000005    1    3    3    0    0  0.48910175071E+02  0.29412417719E+02  0.36786816131E+02  0.67908507440E+02  0.10000000000E+01 0.  0.
    9000005    1    3    3    0    0 -0.48910175071E+02 -0.29412417719E+02  0.11773887650E+03  0.13084624023E+03  0.10000000000E+01 0.  0.
<mgrwt>
<rscale>  0 0.12500104E+03</rscale>
<asrwt>0</asrwt>
<pdfrwt beam="2">  1        4 0.34022350E-02 0.12500104E+03</pdfrwt>
<pdfrwt beam="1">  1       -4 0.27175418E-01 0.12500104E+03</pdfrwt>
<totfact> 0.90343832E+03</totfact>
</mgrwt>
</event>
<event>
 5    1  0.3267085E-002  0.1250006E+03  0.7818608E-02  0.1235068E+00
         -4   -1    0    0    0  501 -0.00000000000E+00  0.00000000000E+00  0.64918396155E+03  0.64918520380E+03  0.12700000000E+01 0.  1.
          4   -1    0    0  501    0  0.00000000000E+00 -0.00000000000E+00 -0.59489546839E+01  0.60830059864E+01  0.12700000000E+01 0.  1.
         25    2    1    2    0    0  0.00000000000E+00  0.00000000000E+00  0.64323500686E+03  0.65526820978E+03  0.12500061080E+03 0.  0.
    9000005    1    3    3    0    0 -0.20725534264E+01  0.14199016611E+02  0.64045652845E+03  0.64061803939E+03  0.10000000000E+01 0.  0.
    9000005    1    3    3    0    0  0.20725534264E+01 -0.14199016611E+02  0.27784784118E+01  0.14650170398E+02  0.10000000000E+01 0.  0.
<mgrwt>
<rscale>  0 0.12500061E+03</rscale>
<asrwt>0</asrwt>
<pdfrwt beam="2">  1        4 0.92563098E-03 0.12500061E+03</pdfrwt>
<pdfrwt beam="1">  1       -4 0.99884865E-01 0.12500061E+03</pdfrwt>
<totfact> 0.45554119E+03</totfact>
</mgrwt>
</event>
<event>
 5    1  0.3267085E-002  0.1249771E+03  0.7818608E-02  0.1235105E+00
         -4   -1    0    0    0  501 -0.00000000000E+00  0.00000000000E+00  0.29550092851E+02  0.29577371207E+02  0.12700000000E+01 0. -1.
          4   -1    0    0  501    0  0.00000000000E+00 -0.00000000000E+00 -0.13205098359E+03  0.13205709056E+03  0.12700000000E+01 0. -1.
         25    2    1    2    0    0  0.00000000000E+00  0.00000000000E+00 -0.10250089074E+03  0.16163446177E+03  0.12497706441E+03 0.  0.
    9000005    1    3    3    0    0 -0.53616640999E+02  0.15169895064E+02 -0.14694117906E+02  0.57634946077E+02  0.10000000000E+01 0.  0.
    9000005    1    3    3    0    0  0.53616640999E+02 -0.15169895064E+02 -0.87806772833E+02  0.10399951569E+03  0.10000000000E+01 0.  0.
<mgrwt>
<rscale>  0 0.12497706E+03</rscale>
<asrwt>0</asrwt>
<pdfrwt beam="2">  1        4 0.20318104E-01 0.12497706E+03</pdfrwt>
<pdfrwt beam="1">  1       -4 0.45487363E-02 0.12497706E+03</pdfrwt>
<totfact> 0.97078625E+03</totfact>
</mgrwt>
</event>
<event>
 5    1  0.3267085E-002  0.1250016E+03  0.7818608E-02  0.1235067E+00
          4   -1    0    0  501    0  0.00000000000E+00  0.00000000000E+00  0.66096467316E+03  0.66096589327E+03  0.12700000000E+01 0. -1.
         -4   -1    0    0    0  501 -0.00000000000E+00 -0.00000000000E+00 -0.58406044476E+01  0.59770862729E+01  0.12700000000E+01 0. -1.
         25    2    1    2    0    0  0.00000000000E+00  0.00000000000E+00  0.65512406871E+03  0.66694297954E+03  0.12500157021E+03 0.  0.
    9000005    1    3    3    0    0  0.40963320689E+02  0.46489522931E+02  0.37093350625E+03  0.37607437488E+03  0.10000000000E+01 0.  0.
    9000005    1    3    3    0    0 -0.40963320689E+02 -0.46489522931E+02  0.28419056246E+03  0.29086860466E+03  0.10000000000E+01 0.  0.
<mgrwt>
<rscale>  0 0.12500157E+03</rscale>
<asrwt>0</asrwt>
<pdfrwt beam="1">  1        4 0.10169743E+00 0.12500157E+03</pdfrwt>
<pdfrwt beam="2">  1       -4 0.90914731E-03 0.12500157E+03</pdfrwt>
<totfact> 0.44888541E+03</totfact>
</mgrwt>
</event>
<event>
 5    1  0.3267085E-002  0.1250071E+03  0.7818608E-02  0.1235058E+00
         -4   -1    0    0    0  501 -0.00000000000E+00  0.00000000000E+00  0.32856908310E+02  0.32881443455E+02  0.12700000000E+01 0. -1.
          4   -1    0    0  501    0  0.00000000000E+00 -0.00000000000E+00 -0.11882800796E+03  0.11883479446E+03  0.12700000000E+01 0. -1.
         25    2    1    2    0    0  0.00000000000E+00  0.00000000000E+00 -0.85971099648E+02  0.15171623792E+03  0.12500714729E+03 0.  0.
    9000005    1    3    3    0    0  0.89161837121E+01 -0.54999377460E+01  0.31789620170E+02  0.33486229972E+02  0.10000000000E+01 0.  0.
    9000005    1    3    3    0    0 -0.89161837121E+01  0.54999377460E+01 -0.11776071982E+03  0.11823000795E+03  0.10000000000E+01 0.  0.
<mgrwt>
<rscale>  0 0.12500715E+03</rscale>
<asrwt>0</asrwt>
<pdfrwt beam="2">  1        4 0.18283641E-01 0.12500715E+03</pdfrwt>
<pdfrwt beam="1">  1       -4 0.50573184E-02 0.12500715E+03</pdfrwt>
<totfact> 0.98946772E+03</totfact>
</mgrwt>
</event>
<event>
 5    1  0.3267085E-002  0.1250002E+03  0.7818608E-02  0.1235069E+00
          4   -1    0    0  501    0  0.00000000000E+00  0.00000000000E+00  0.47620045907E+02  0.47636977991E+02  0.12700000000E+01 0. -1.
         -4   -1    0    0    0  501 -0.00000000000E+00 -0.00000000000E+00 -0.81993306460E+02  0.82003141429E+02  0.12700000000E+01 0. -1.
         25    2    1    2    0    0  0.00000000000E+00  0.00000000000E+00 -0.34373260553E+02  0.12964011942E+03  0.12500015809E+03 0.  0.
    9000005    1    3    3    0    0 -0.59860378090E+01 -0.61850646827E+02 -0.10313044506E+02  0.62997571767E+02  0.10000000000E+01 0.  0.
    9000005    1    3    3    0    0  0.59860378090E+01  0.61850646827E+02 -0.24060216047E+02  0.66642547653E+02  0.10000000000E+01 0.  0.
<mgrwt>
<rscale>  0 0.12500016E+03</rscale>
<asrwt>0</asrwt>
<pdfrwt beam="1">  1        4 0.73282199E-02 0.12500016E+03</pdfrwt>
<pdfrwt beam="2">  1       -4 0.12616414E-01 0.12500016E+03</pdfrwt>
<totfact> 0.10352175E+04</totfact>
</mgrwt>
</event>
<event>
 5    1  0.3267085E-002  0.1249981E+03  0.7818608E-02  0.1235072E+00
         -4   -1    0    0    0  501 -0.00000000000E+00  0.00000000000E+00  0.56877564749E+02  0.56891741684E+02  0.12700000000E+01 0. -1.
          4   -1    0    0  501    0  0.00000000000E+00 -0.00000000000E+00 -0.68647548987E+02  0.68659295670E+02  0.12700000000E+01 0. -1.
         25    2    1    2    0    0  0.00000000000E+00  0.00000000000E+00 -0.11769984238E+02  0.12555103735E+03  0.12499812179E+03 0.  0.
    9000005    1    3    3    0    0 -0.51540053408E+02 -0.24551855021E+02 -0.31413197031E+02  0.65168701368E+02  0.10000000000E+01 0.  0.
    9000005    1    3    3    0    0  0.51540053408E+02  0.24551855021E+02  0.19643212793E+02  0.60382335986E+02  0.10000000000E+01 0.  0.
<mgrwt>
<rscale>  0 0.12499812E+03</rscale>
<asrwt>0</asrwt>
<pdfrwt beam="2">  1        4 0.10563155E-01 0.12499812E+03</pdfrwt>
<pdfrwt beam="1">  1       -4 0.87523887E-02 0.12499812E+03</pdfrwt>
<totfact> 0.10441269E+04</totfact>
</mgrwt>
</event>
<event>
 5    1  0.3267085E-002  0.1249976E+03  0.7818608E-02  0.1235073E+00
          4   -1    0    0  501    0  0.00000000000E+00  0.00000000000E+00  0.55061030166E+02  0.55075674693E+02  0.12700000000E+01 0. -1.
         -4   -1    0    0    0  501 -0.00000000000E+00 -0.00000000000E+00 -0.70911483188E+02  0.70922854906E+02  0.12700000000E+01 0. -1.
         25    2    1    2    0    0  0.00000000000E+00  0.00000000000E+00 -0.15850453022E+02  0.12599852960E+03  0.12499757038E+03 0.  0.
    9000005    1    3    3    0    0  0.95601086561E+01  0.36891926170E+02  0.41995980944E+02  0.56719241087E+02  0.10000000000E+01 0.  0.
    9000005    1    3    3    0    0 -0.95601086561E+01 -0.36891926170E+02 -0.57846433967E+02  0.69279288512E+02  0.10000000000E+01 0.  0.
<mgrwt>
<rscale>  0 0.12499757E+03</rscale>
<asrwt>0</asrwt>
<pdfrwt beam="1">  1        4 0.84729289E-02 0.12499757E+03</pdfrwt>
<pdfrwt beam="2">  1       -4 0.10911460E-01 0.12499757E+03</pdfrwt>
<totfact> 0.10431561E+04</totfact>
</mgrwt>
</event>
<event>
 5    1  0.3267085E-002  0.1249966E+03  0.7818608E-02  0.1235075E+00
         -4   -1    0    0    0  501 -0.00000000000E+00  0.00000000000E+00  0.80320816485E+01  0.81318654446E+01  0.12700000000E+01 0.  1.
          4   -1    0    0  501    0  0.00000000000E+00 -0.00000000000E+00 -0.48320175203E+03  0.48320342100E+03  0.12700000000E+01 0.  1.
         25    2    1    2    0    0  0.00000000000E+00  0.00000000000E+00 -0.47516967039E+03  0.49133528645E+03  0.12499659217E+03 0.  0.
    9000005    1    3    3    0    0 -0.23100150036E+01 -0.25584512025E+02 -0.13663192147E+02  0.29113334479E+02  0.10000000000E+01 0.  0.
    9000005    1    3    3    0    0  0.23100150036E+01  0.25584512025E+02 -0.46150647824E+03  0.46222195197E+03  0.10000000000E+01 0.  0.
<mgrwt>
<rscale>  0 0.12499659E+03</rscale>
<asrwt>0</asrwt>
<pdfrwt beam="2">  1        4 0.74346512E-01 0.12499659E+03</pdfrwt>
<pdfrwt beam="1">  1       -4 0.12435093E-02 0.12499659E+03</pdfrwt>
<totfact> 0.56547213E+03</totfact>
</mgrwt>
</event>
<event>
 5    1  0.3267085E-002  0.1249987E+03  0.7818608E-02  0.1235071E+00
         -4   -1    0    0    0  501 -0.00000000000E+00  0.00000000000E+00  0.31351387946E+02  0.31377100346E+02  0.12700000000E+01 0. -1.
          4   -1    0    0  501    0  0.00000000000E+00 -0.00000000000E+00 -0.12451318427E+03  0.12451966092E+03  0.12700000000E+01 0. -1.
         25    2    1    2    0    0  0.00000000000E+00  0.00000000000E+00 -0.93161796322E+02  0.15589676127E+03  0.12499871952E+03 0.  0.
    9000005    1    3    3    0    0 -0.52065002288E+02  0.27678279660E+02 -0.72392494525E+02  0.93373041569E+02  0.10000000000E+01 0.  0.
    9000005    1    3    3    0    0  0.52065002288E+02 -0.27678279660E+02 -0.20769301796E+02  0.62523719701E+02  0.10000000000E+01 0.  0.
<mgrwt>
<rscale>  0 0.12499872E+03</rscale>
<asrwt>0</asrwt>
<pdfrwt beam="2">  1        4 0.19158350E-01 0.12499872E+03</pdfrwt>
<pdfrwt beam="1">  1       -4 0.48257666E-02 0.12499872E+03</pdfrwt>
<totfact> 0.98142567E+03</totfact>
</mgrwt>
</event>
<event>
 5    1  0.3267085E-002  0.1249993E+03  0.7818608E-02  0.1235070E+00
          4   -1    0    0  501    0  0.00000000000E+00  0.00000000000E+00  0.39331243114E+03  0.39331448154E+03  0.12700000000E+01 0. -1.
         -4   -1    0    0    0  501 -0.00000000000E+00 -0.00000000000E+00 -0.98888674950E+01  0.99700852722E+01  0.12700000000E+01 0. -1.
         25    2    1    2    0    0  0.00000000000E+00  0.00000000000E+00  0.38342356365E+03  0.40328456681E+03  0.12499925068E+03 0.  0.
    9000005    1    3    3    0    0  0.38964942436E+02  0.42728433343E+02  0.11528074316E+03  0.12897532903E+03  0.10000000000E+01 0.  0.
    9000005    1    3    3    0    0 -0.38964942436E+02 -0.42728433343E+02  0.26814282049E+03  0.27430923778E+03  0.10000000000E+01 0.  0.
<mgrwt>
<rscale>  0 0.12499925E+03</rscale>
<asrwt>0</asrwt>
<pdfrwt beam="1">  1        4 0.60516007E-01 0.12499925E+03</pdfrwt>
<pdfrwt beam="2">  1       -4 0.15277695E-02 0.12499925E+03</pdfrwt>
<totfact> 0.64235647E+03</totfact>
</mgrwt>
</event>
<event>
 5    1  0.3267085E-002  0.1249980E+03  0.7818608E-02  0.1235072E+00
         -4   -1    0    0    0  501 -0.00000000000E+00  0.00000000000E+00  0.29576451633E+03  0.29576724298E+03  0.12700000000E+01 0. -1.
          4   -1    0    0  501    0  0.00000000000E+00 -0.00000000000E+00 -0.13173547704E+02  0.13234623497E+02  0.12700000000E+01 0. -1.
         25    2    1    2    0    0  0.00000000000E+00  0.00000000000E+00  0.28259096863E+03  0.30900186648E+03  0.12499799173E+03 0.  0.
    9000005    1    3    3    0    0 -0.58495805111E+02 -0.16955788894E+02  0.17589246024E+03  0.18614084872E+03  0.10000000000E+01 0.  0.
    9000005    1    3    3    0    0  0.58495805111E+02  0.16955788894E+02  0.10669850839E+03  0.12286101776E+03  0.10000000000E+01 0.  0.
<mgrwt>
<rscale>  0 0.12499799E+03</rscale>
<asrwt>0</asrwt>
<pdfrwt beam="2">  1        4 0.20316076E-02 0.12499799E+03</pdfrwt>
<pdfrwt beam="1">  1       -4 0.45507140E-01 0.12499799E+03</pdfrwt>
<totfact> 0.74486677E+03</totfact>
</mgrwt>
</event>
<event>
 5    1  0.3267085E-002  0.1249833E+03  0.7818608E-02  0.1235095E+00
         -4   -1    0    0    0  501 -0.00000000000E+00  0.00000000000E+00  0.21697076221E+01  0.25140666589E+01  0.12700000000E+01 0.  1.
          4   -1    0    0  501    0  0.00000000000E+00 -0.00000000000E+00 -0.16672033863E+04  0.16672038701E+04  0.12700000000E+01 0.  1.
         25    2    1    2    0    0  0.00000000000E+00  0.00000000000E+00 -0.16650336787E+04  0.16697179367E+04  0.12498334656E+03 0.  0.
    9000005    1    3    3    0    0  0.45141377867E+02 -0.43415854022E+01 -0.14067612878E+04  0.14074924206E+04  0.10000000000E+01 0.  0.
    9000005    1    3    3    0    0 -0.45141377867E+02  0.43415854022E+01 -0.25827239094E+03  0.26222551608E+03  0.10000000000E+01 0.  0.
<mgrwt>
<rscale>  0 0.12498335E+03</rscale>
<asrwt>0</asrwt>
<pdfrwt beam="2">  1        4 0.25651841E+00 0.12498335E+03</pdfrwt>
<pdfrwt beam="1">  1       -4 0.36032887E-03 0.12498335E+03</pdfrwt>
<totfact> 0.14824957E+03</totfact>
</mgrwt>
</event>
<event>
 5    1  0.3267085E-002  0.1250008E+03  0.7818608E-02  0.1235068E+00
          4   -1    0    0  501    0  0.00000000000E+00  0.00000000000E+00  0.29993134170E+02  0.30020009949E+02  0.12700000000E+01 0.  1.
         -4   -1    0    0    0  501 -0.00000000000E+00 -0.00000000000E+00 -0.13015158704E+03  0.13015778313E+03  0.12700000000E+01 0.  1.
         25    2    1    2    0    0  0.00000000000E+00  0.00000000000E+00 -0.10015845287E+03  0.16017779308E+03  0.12500083886E+03 0.  0.
    9000005    1    3    3    0    0  0.45222261661E+02  0.19280110889E+02 -0.64045069013E+00  0.49175052646E+02  0.10000000000E+01 0.  0.
    9000005    1    3    3    0    0 -0.45222261661E+02 -0.19280110889E+02 -0.99518002184E+02  0.11100274044E+03  0.10000000000E+01 0.  0.
<mgrwt>
<rscale>  0 0.12500084E+03</rscale>
<asrwt>0</asrwt>
<pdfrwt beam="1">  1        4 0.46168724E-02 0.12500084E+03</pdfrwt>
<pdfrwt beam="2">  1       -4 0.20025865E-01 0.12500084E+03</pdfrwt>
<totfact> 0.97306684E+03</totfact>
</mgrwt>
</event>
<event>
 5    1  0.3267085E-002  0.1250211E+03  0.7818608E-02  0.1235036E+00
         -4   -1    0    0    0  501 -0.00000000000E+00  0.00000000000E+00  0.70440751227E+03  0.70440865713E+03  0.12700000000E+01 0. -1.
          4   -1    0    0  501    0  0.00000000000E+00 -0.00000000000E+00 -0.54734564109E+01  0.56188633266E+01  0.12700000000E+01 0. -1.
         25    2    1    2    0    0  0.00000000000E+00  0.00000000000E+00  0.69893405586E+03  0.71002752046E+03  0.12502105970E+03 0.  0.
    9000005    1    3    3    0    0  0.19990154554E+02 -0.36819183909E+02  0.86050344000E+02  0.95712696574E+02  0.10000000000E+01 0.  0.
    9000005    1    3    3    0    0 -0.19990154554E+02  0.36819183909E+02  0.61288371186E+03  0.61431482389E+03  0.10000000000E+01 0.  0.
<mgrwt>
<rscale>  0 0.12502106E+03</rscale>
<asrwt>0</asrwt>
<pdfrwt beam="2">  1        4 0.85334338E-03 0.12502106E+03</pdfrwt>
<pdfrwt beam="1">  1       -4 0.10838167E+00 0.12502106E+03</pdfrwt>
<totfact> 0.42543014E+03</totfact>
</mgrwt>
</event>
<event>
 5    1  0.3267085E-002  0.1249994E+03  0.7818608E-02  0.1235070E+00
         -4   -1    0    0    0  501 -0.00000000000E+00  0.00000000000E+00  0.44605745347E+01  0.46378470414E+01  0.12700000000E+01 0. -1.
          4   -1    0    0  501    0  0.00000000000E+00 -0.00000000000E+00 -0.85847987610E+03  0.85848081549E+03  0.12700000000E+01 0. -1.
         25    2    1    2    0    0  0.00000000000E+00  0.00000000000E+00 -0.85401930156E+03  0.86311866253E+03  0.12499943267E+03 0.  0.
    9000005    1    3    3    0    0  0.52261134474E+02 -0.24329161387E+02 -0.26041774163E+03  0.26672370428E+03  0.10000000000E+01 0.  0.
    9000005    1    3    3    0    0 -0.52261134474E+02  0.24329161387E+02 -0.59360155993E+03  0.59639495825E+03  0.10000000000E+01 0.  0.
<mgrwt>
<rscale>  0 0.12499943E+03</rscale>
<asrwt>0</asrwt>
<pdfrwt beam="2">  1        4 0.13208741E+00 0.12499943E+03</pdfrwt>
<pdfrwt beam="1">  1       -4 0.69995153E-03 0.12499943E+03</pdfrwt>
<totfact> 0.35596903E+03</totfact>
</mgrwt>
</event>
<event>
 5    1  0.3267085E-002  0.1249998E+03  0.7818608E-02  0.1235070E+00
          4   -1    0    0  501    0  0.00000000000E+00  0.00000000000E+00  0.13166818520E+03  0.13167430993E+03  0.12700000000E+01 0. -1.
         -4   -1    0    0    0  501 -0.00000000000E+00 -0.00000000000E+00 -0.29646863614E+02  0.29674053012E+02  0.12700000000E+01 0. -1.
         25    2    1    2    0    0  0.00000000000E+00  0.00000000000E+00  0.10202132159E+03  0.16134836294E+03  0.12499977666E+03 0.  0.
    9000005    1    3    3    0    0 -0.55035353349E+02  0.12313537156E+02  0.85759577201E+02  0.10264608320E+03  0.10000000000E+01 0.  0.
    9000005    1    3    3    0    0  0.55035353349E+02 -0.12313537156E+02  0.16261744389E+02  0.58702279735E+02  0.10000000000E+01 0.  0.
<mgrwt>
<rscale>  0 0.12499978E+03</rscale>
<asrwt>0</asrwt>
<pdfrwt beam="1">  1        4 0.20259206E-01 0.12499978E+03</pdfrwt>
<pdfrwt beam="2">  1       -4 0.45636187E-02 0.12499978E+03</pdfrwt>
<totfact> 0.97083947E+03</totfact>
</mgrwt>
</event>
<event>
 5    1  0.3267085E-002  0.1250032E+03  0.7818608E-02  0.1235064E+00
         -4   -1    0    0    0  501 -0.00000000000E+00  0.00000000000E+00  0.35745476915E+02  0.35768030696E+02  0.12700000000E+01 0. -1.
          4   -1    0    0  501    0  0.00000000000E+00 -0.00000000000E+00 -0.10922439395E+03  0.10923177713E+03  0.12700000000E+01 0. -1.
         25    2    1    2    0    0  0.00000000000E+00  0.00000000000E+00 -0.73478917037E+02  0.14499980782E+03  0.12500317204E+03 0.  0.
    9000005    1    3    3    0    0 -0.53670827009E+02  0.31870160371E+02 -0.40254654852E+02  0.74281236064E+02  0.10000000000E+01 0.  0.
    9000005    1    3    3    0    0  0.53670827009E+02 -0.31870160371E+02 -0.33224262185E+02  0.70718571759E+02  0.10000000000E+01 0.  0.
<mgrwt>
<rscale>  0 0.12500317E+03</rscale>
<asrwt>0</asrwt>
<pdfrwt beam="2">  1        4 0.16806056E-01 0.12500317E+03</pdfrwt>
<pdfrwt beam="1">  1       -4 0.55016070E-02 0.12500317E+03</pdfrwt>
<totfact> 0.10030276E+04</totfact>
</mgrwt>
</event>
<event>
 5    1  0.3267085E-002  0.1250099E+03  0.7818608E-02  0.1235054E+00
          4   -1    0    0  501    0  0.00000000000E+00  0.00000000000E+00  0.42065809902E+01  0.43941123822E+01  0.12700000000E+01 0.  1.
         -4   -1    0    0    0  501 -0.00000000000E+00 -0.00000000000E+00 -0.90831272205E+03  0.90831360991E+03  0.12700000000E+01 0.  1.
         25    2    1    2    0    0  0.00000000000E+00  0.00000000000E+00 -0.90410614106E+03  0.91270772229E+03  0.12500988769E+03 0.  0.
    9000005    1    3    3    0    0 -0.19151579766E+02  0.53421931040E+02 -0.26093998603E+03  0.26704187319E+03  0.10000000000E+01 0.  0.
    9000005    1    3    3    0    0  0.19151579766E+02 -0.53421931040E+02 -0.64316615503E+03  0.64566584910E+03  0.10000000000E+01 0.  0.
<mgrwt>
<rscale>  0 0.12500989E+03</rscale>
<asrwt>0</asrwt>
<pdfrwt beam="1">  1        4 0.66166082E-03 0.12500989E+03</pdfrwt>
<pdfrwt beam="2">  1       -4 0.13975476E+00 0.12500989E+03</pdfrwt>
<totfact> 0.33670749E+03</totfact>
</mgrwt>
</event>
<event>
 5    1  0.3267085E-002  0.1250123E+03  0.7818608E-02  0.1235050E+00
         -4   -1    0    0    0  501 -0.00000000000E+00  0.00000000000E+00  0.51508979272E+01  0.53051531040E+01  0.12700000000E+01 0.  1.
          4   -1    0    0  501    0  0.00000000000E+00 -0.00000000000E+00 -0.74716698663E+03  0.74716806598E+03  0.12700000000E+01 0.  1.
         25    2    1    2    0    0  0.00000000000E+00  0.00000000000E+00 -0.74201608871E+03  0.75247321908E+03  0.12501227753E+03 0.  0.
    9000005    1    3    3    0    0  0.40188934565E+02 -0.30986317026E+02 -0.59058204734E+03  0.59275918967E+03  0.10000000000E+01 0.  0.
    9000005    1    3    3    0    0 -0.40188934565E+02  0.30986317026E+02 -0.15143404137E+03  0.15971402941E+03  0.10000000000E+01 0.  0.
<mgrwt>
<rscale>  0 0.12501228E+03</rscale>
<asrwt>0</asrwt>
<pdfrwt beam="2">  1        4 0.11496063E+00 0.12501228E+03</pdfrwt>
<pdfrwt beam="1">  1       -4 0.80439524E-03 0.12501228E+03</pdfrwt>
<totfact> 0.40445288E+03</totfact>
</mgrwt>
</event>
<event>
 5    1  0.3267085E-002  0.1250039E+03  0.7818608E-02  0.1235063E+00
         -4   -1    0    0    0  501 -0.00000000000E+00  0.00000000000E+00  0.99251400153E+02  0.99259525147E+02  0.12700000000E+01 0.  1.
          4   -1    0    0  501    0  0.00000000000E+00 -0.00000000000E+00 -0.39339608102E+02  0.39360102460E+02  0.12700000000E+01 0.  1.
         25    2    1    2    0    0  0.00000000000E+00  0.00000000000E+00  0.59911792051E+02  0.13861962761E+03  0.12500391326E+03 0.  0.
    9000005    1    3    3    0    0 -0.59411031638E+02 -0.19284338279E+02  0.32156540997E+02  0.70260938735E+02  0.10000000000E+01 0.  0.
    9000005    1    3    3    0    0  0.59411031638E+02  0.19284338279E+02  0.27755251054E+02  0.68358688871E+02  0.10000000000E+01 0.  0.
<mgrwt>
<rscale>  0 0.12500391E+03</rscale>
<asrwt>0</asrwt>
<pdfrwt beam="2">  1        4 0.60544489E-02 0.12500391E+03</pdfrwt>
<pdfrwt beam="1">  1       -4 0.15271648E-01 0.12500391E+03</pdfrwt>
<totfact> 0.10161379E+04</totfact>
</mgrwt>
</event>
<event>
 5    1  0.3267085E-002  0.1249849E+03  0.7818608E-02  0.1235093E+00
         -4   -1    0    0    0  501 -0.00000000000E+00  0.00000000000E+00  0.34810523641E+03  0.34810755309E+03  0.12700000000E+01 0.  1.
          4   -1    0    0  501    0  0.00000000000E+00 -0.00000000000E+00 -0.11180447666E+02  0.11252346867E+02  0.12700000000E+01 0.  1.
         25    2    1    2    0    0  0.00000000000E+00  0.00000000000E+00  0.33692478874E+03  0.35935989995E+03  0.12498489679E+03 0.  0.
    9000005    1    3    3    0    0 -0.52019313916E+02 -0.14596161683E+02  0.25871195832E+03  0.26429516517E+03  0.10000000000E+01 0.  0.
    9000005    1    3    3    0    0  0.52019313916E+02  0.14596161683E+02  0.78212830426E+02  0.95064734783E+02  0.10000000000E+01 0.  0.
<mgrwt>
<rscale>  0 0.12498490E+03</rscale>
<asrwt>0</asrwt>
<pdfrwt beam="2">  1        4 0.17257780E-02 0.12498490E+03</pdfrwt>
<pdfrwt beam="1">  1       -4 0.53560354E-01 0.12498490E+03</pdfrwt>
<totfact> 0.68729941E+03</totfact>
</mgrwt>
</event>
<event>
 5    1  0.3267085E-002  0.1249994E+03  0.7818608E-02  0.1235070E+00
         -4   -1    0    0    0  501 -0.00000000000E+00  0.00000000000E+00  0.15822247935E+03  0.15822757620E+03  0.12700000000E+01 0.  1.
          4   -1    0    0  501    0  0.00000000000E+00 -0.00000000000E+00 -0.24666278577E+02  0.24698951371E+02  0.12700000000E+01 0.  1.
         25    2    1    2    0    0  0.00000000000E+00  0.00000000000E+00  0.13355620077E+03  0.18292652757E+03  0.12499942290E+03 0.  0.
    9000005    1    3    3    0    0 -0.41765947367E+02  0.25107319467E+02  0.12402831667E+03  0.13326212960E+03  0.10000000000E+01 0.  0.
    9000005    1    3    3    0    0  0.41765947367E+02 -0.25107319467E+02  0.95278841002E+01  0.49664397970E+02  0.10000000000E+01 0.  0.
<mgrwt>
<rscale>  0 0.12499942E+03</rscale>
<asrwt>0</asrwt>
<pdfrwt beam="2">  1        4 0.37977175E-02 0.12499942E+03</pdfrwt>
<pdfrwt beam="1">  1       -4 0.24344825E-01 0.12499942E+03</pdfrwt>
<totfact> 0.93094060E+03</totfact>
</mgrwt>
</event>
<event>
 5    1  0.3267085E-002  0.1250027E+03  0.7818608E-02  0.1235065E+00
          4   -1    0    0  501    0  0.00000000000E+00  0.00000000000E+00  0.58283866148E+02  0.58297701097E+02  0.12700000000E+01 0. -1.
         -4   -1    0    0    0  501 -0.00000000000E+00 -0.00000000000E+00 -0.66996166062E+02  0.67008202237E+02  0.12700000000E+01 0. -1.
         25    2    1    2    0    0  0.00000000000E+00  0.00000000000E+00 -0.87122999139E+01  0.12530590333E+03  0.12500266093E+03 0.  0.
    9000005    1    3    3    0    0 -0.28202092699E+02  0.53601816354E+02 -0.19785160231E+02  0.63725703718E+02  0.10000000000E+01 0.  0.
    9000005    1    3    3    0    0  0.28202092699E+02 -0.53601816354E+02  0.11072860318E+02  0.61580199615E+02  0.10000000000E+01 0.  0.
<mgrwt>
<rscale>  0 0.12500266E+03</rscale>
<asrwt>0</asrwt>
<pdfrwt beam="1">  1        4 0.89687388E-02 0.12500266E+03</pdfrwt>
<pdfrwt beam="2">  1       -4 0.10309092E-01 0.12500266E+03</pdfrwt>
<totfact> 0.10445594E+04</totfact>
</mgrwt>
</event>
<event>
 5    1  0.3267085E-002  0.1249999E+03  0.7818608E-02  0.1235069E+00
          4   -1    0    0  501    0  0.00000000000E+00  0.00000000000E+00  0.82533916040E+01  0.83505312986E+01  0.12700000000E+01 0. -1.
         -4   -1    0    0    0  501 -0.00000000000E+00 -0.00000000000E+00 -0.47042247736E+03  0.47042419167E+03  0.12700000000E+01 0. -1.
         25    2    1    2    0    0  0.00000000000E+00  0.00000000000E+00 -0.46216908576E+03  0.47877472297E+03  0.12499988609E+03 0.  0.
    9000005    1    3    3    0    0 -0.58342226213E+02  0.90996702730E+01 -0.30945157686E+03  0.31503634359E+03  0.10000000000E+01 0.  0.
    9000005    1    3    3    0    0  0.58342226213E+02 -0.90996702730E+01 -0.15271750890E+03  0.16373837938E+03  0.10000000000E+01 0.  0.
<mgrwt>
<rscale>  0 0.12499989E+03</rscale>
<asrwt>0</asrwt>
<pdfrwt beam="1">  1        4 0.12773571E-02 0.12499989E+03</pdfrwt>
<pdfrwt beam="2">  1       -4 0.72380272E-01 0.12499989E+03</pdfrwt>
<totfact> 0.57549786E+03</totfact>
</mgrwt>
</event>
<event>
 5    1  0.3267085E-002  0.1250013E+03  0.7818608E-02  0.1235067E+00
          4   -1    0    0  501    0  0.00000000000E+00  0.00000000000E+00  0.33253882401E+02  0.33278124868E+02  0.12700000000E+01 0. -1.
         -4   -1    0    0    0  501 -0.00000000000E+00 -0.00000000000E+00 -0.11739944400E+03  0.11740631308E+03  0.12700000000E+01 0. -1.
         25    2    1    2    0    0  0.00000000000E+00  0.00000000000E+00 -0.84145561599E+02  0.15068443795E+03  0.12500129721E+03 0.  0.
    9000005    1    3    3    0    0 -0.50452644367E+02  0.13656648240E+02 -0.78047846766E+00  0.52283673469E+02  0.10000000000E+01 0.  0.
    9000005    1    3    3    0    0  0.50452644367E+02 -0.13656648240E+02 -0.83365083131E+02  0.98400764480E+02  0.10000000000E+01 0.  0.
<mgrwt>
<rscale>  0 0.12500130E+03</rscale>
<asrwt>0</asrwt>
<pdfrwt beam="1">  1        4 0.51183751E-02 0.12500130E+03</pdfrwt>
<pdfrwt beam="2">  1       -4 0.18063846E-01 0.12500130E+03</pdfrwt>
<totfact> 0.99164546E+03</totfact>
</mgrwt>
</event>
<event>
 5    1  0.3267085E-002  0.1249964E+03  0.7818608E-02  0.1235075E+00
         -4   -1    0    0    0  501 -0.00000000000E+00  0.00000000000E+00  0.64480138360E+02  0.64492644099E+02  0.12700000000E+01 0. -1.
          4   -1    0    0  501    0  0.00000000000E+00 -0.00000000000E+00 -0.60552177336E+02  0.60565494137E+02  0.12700000000E+01 0. -1.
         25    2    1    2    0    0  0.00000000000E+00  0.00000000000E+00  0.39279610237E+01  0.12505813824E+03  0.12499643619E+03 0.  0.
    9000005    1    3    3    0    0 -0.23193163009E+01  0.33977825735E+02 -0.50456113430E+02  0.60882602213E+02  0.10000000000E+01 0.  0.
    9000005    1    3    3    0    0  0.23193163009E+01 -0.33977825735E+02  0.54384074454E+02  0.64175536024E+02  0.10000000000E+01 0.  0.
<mgrwt>
<rscale>  0 0.12499644E+03</rscale>
<asrwt>0</asrwt>
<pdfrwt beam="2">  1        4 0.93177059E-02 0.12499644E+03</pdfrwt>
<pdfrwt beam="1">  1       -4 0.99220077E-02 0.12499644E+03</pdfrwt>
<totfact> 0.10452442E+04</totfact>
</mgrwt>
</event>
<event>
 5    1  0.3267085E-002  0.1249985E+03  0.7818608E-02  0.1235072E+00
          4   -1    0    0  501    0  0.00000000000E+00  0.00000000000E+00  0.26106594162E+03  0.26106903067E+03  0.12700000000E+01 0. -1.
         -4   -1    0    0    0  501 -0.00000000000E+00 -0.00000000000E+00 -0.14932200697E+02  0.14986110825E+02  0.12700000000E+01 0. -1.
         25    2    1    2    0    0  0.00000000000E+00  0.00000000000E+00  0.24613374092E+03  0.27605514149E+03  0.12499849089E+03 0.  0.
    9000005    1    3    3    0    0 -0.47157529136E+01  0.97744681292E+01  0.25897966635E+03  0.25920888514E+03  0.10000000000E+01 0.  0.
    9000005    1    3    3    0    0  0.47157529136E+01 -0.97744681292E+01 -0.12845925432E+02  0.16846256349E+02  0.10000000000E+01 0.  0.
<mgrwt>
<rscale>  0 0.12499849E+03</rscale>
<asrwt>0</asrwt>
<pdfrwt beam="1">  1        4 0.40168373E-01 0.12499849E+03</pdfrwt>
<pdfrwt beam="2">  1       -4 0.23016463E-02 0.12499849E+03</pdfrwt>
<totfact> 0.78706730E+03</totfact>
</mgrwt>
</event>
<event>
 5    1  0.3267085E-002  0.1250037E+03  0.7818608E-02  0.1235063E+00
         -4   -1    0    0    0  501 -0.00000000000E+00  0.00000000000E+00  0.32784827230E+03  0.32785073211E+03  0.12700000000E+01 0. -1.
          4   -1    0    0  501    0  0.00000000000E+00 -0.00000000000E+00 -0.11879168361E+02  0.11946863227E+02  0.12700000000E+01 0. -1.
         25    2    1    2    0    0  0.00000000000E+00  0.00000000000E+00  0.31596910393E+03  0.33979759534E+03  0.12500372458E+03 0.  0.
    9000005    1    3    3    0    0 -0.56067480234E+02  0.10288894538E+02  0.88358971423E+02  0.10515574888E+03  0.10000000000E+01 0.  0.
    9000005    1    3    3    0    0  0.56067480234E+02 -0.10288894538E+02  0.22761013251E+03  0.23464184646E+03  0.10000000000E+01 0.  0.
<mgrwt>
<rscale>  0 0.12500372E+03</rscale>
<asrwt>0</asrwt>
<pdfrwt beam="2">  1        4 0.18329612E-02 0.12500372E+03</pdfrwt>
<pdfrwt beam="1">  1       -4 0.50443582E-01 0.12500372E+03</pdfrwt>
<totfact> 0.70855884E+03</totfact>
</mgrwt>
</event>
<event>
 5    1  0.3267085E-002  0.1250005E+03  0.7818608E-02  0.1235068E+00
         -4   -1    0    0    0  501 -0.00000000000E+00  0.00000000000E+00  0.14913906631E+02  0.14967882649E+02  0.12700000000E+01 0. -1.
          4   -1    0    0  501    0  0.00000000000E+00 -0.00000000000E+00 -0.26139360571E+03  0.26139669089E+03  0.12700000000E+01 0. -1.
         25    2    1    2    0    0  0.00000000000E+00  0.00000000000E+00 -0.24647969908E+03  0.27636457354E+03  0.12500054179E+03 0.  0.
    9000005    1    3    3    0    0 -0.56629600666E+02 -0.24033031438E+02 -0.98941429322E+02  0.11651139304E+03  0.10000000000E+01 0.  0.
    9000005    1    3    3    0    0  0.56629600666E+02  0.24033031438E+02 -0.14753826976E+03  0.15985318050E+03  0.10000000000E+01 0.  0.
<mgrwt>
<rscale>  0 0.12500054E+03</rscale>
<asrwt>0</asrwt>
<pdfrwt beam="2">  1        4 0.40218787E-01 0.12500054E+03</pdfrwt>
<pdfrwt beam="1">  1       -4 0.22988367E-02 0.12500054E+03</pdfrwt>
<totfact> 0.78661672E+03</totfact>
</mgrwt>
</event>
<event>
 5    1  0.3267085E-002  0.1250144E+03  0.7818608E-02  0.1235047E+00
         -4   -1    0    0    0  501 -0.00000000000E+00  0.00000000000E+00  0.18727851834E+03  0.18728282444E+03  0.12700000000E+01 0.  1.
          4   -1    0    0  501    0  0.00000000000E+00 -0.00000000000E+00 -0.20838889949E+02  0.20877553360E+02  0.12700000000E+01 0.  1.
         25    2    1    2    0    0  0.00000000000E+00  0.00000000000E+00  0.16643962839E+03  0.20816037780E+03  0.12501437113E+03 0.  0.
    9000005    1    3    3    0    0  0.14487536109E+01 -0.59555913875E+02  0.11468707093E+03  0.12924058961E+03  0.10000000000E+01 0.  0.
    9000005    1    3    3    0    0 -0.14487536109E+01  0.59555913875E+02  0.51752557459E+02  0.78919788191E+02  0.10000000000E+01 0.  0.
<mgrwt>
<rscale>  0 0.12501437E+03</rscale>
<asrwt>0</asrwt>
<pdfrwt beam="2">  1        4 0.32092885E-02 0.12501437E+03</pdfrwt>
<pdfrwt beam="1">  1       -4 0.28815384E-01 0.12501437E+03</pdfrwt>
<totfact> 0.88748677E+03</totfact>
</mgrwt>
</event>
<event>
 5    1  0.3267085E-002  0.1250025E+03  0.7818608E-02  0.1235065E+00
         -4   -1    0    0    0  501 -0.00000000000E+00  0.00000000000E+00  0.66691689721E+02  0.66703780836E+02  0.12700000000E+01 0.  1.
          4   -1    0    0  501    0  0.00000000000E+00 -0.00000000000E+00 -0.58549784975E+02  0.58563557104E+02  0.12700000000E+01 0.  1.
         25    2    1    2    0    0  0.00000000000E+00  0.00000000000E+00  0.81419047454E+01  0.12526733794E+03  0.12500246134E+03 0.  0.
    9000005    1    3    3    0    0 -0.31128843269E+02  0.15416867182E+02 -0.47988324335E+02  0.59250012232E+02  0.10000000000E+01 0.  0.
    9000005    1    3    3    0    0  0.31128843269E+02 -0.15416867182E+02  0.56130229081E+02  0.66017325708E+02  0.10000000000E+01 0.  0.
<mgrwt>
<rscale>  0 0.12500246E+03</rscale>
<asrwt>0</asrwt>
<pdfrwt beam="2">  1        4 0.90096487E-02 0.12500246E+03</pdfrwt>
<pdfrwt beam="1">  1       -4 0.10262249E-01 0.12500246E+03</pdfrwt>
<totfact> 0.10446478E+04</totfact>
</mgrwt>
</event>
<event>
 5    1  0.3267085E-002  0.1250045E+03  0.7818608E-02  0.1235062E+00
          4   -1    0    0  501    0  0.00000000000E+00  0.00000000000E+00  0.22555661655E+03  0.22556019190E+03  0.12700000000E+01 0. -1.
         -4   -1    0    0    0  501 -0.00000000000E+00 -0.00000000000E+00 -0.17292515529E+02  0.17339088595E+02  0.12700000000E+01 0. -1.
         25    2    1    2    0    0  0.00000000000E+00  0.00000000000E+00  0.20826410102E+03  0.24289928050E+03  0.12500449868E+03 0.  0.
    9000005    1    3    3    0    0 -0.38061215101E+02 -0.22782329663E+01  0.20034486007E+03  0.20394339753E+03  0.10000000000E+01 0.  0.
    9000005    1    3    3    0    0  0.38061215101E+02  0.22782329663E+01  0.79192409564E+01  0.38955882967E+02  0.10000000000E+01 0.  0.
<mgrwt>
<rscale>  0 0.12500450E+03</rscale>
<asrwt>0</asrwt>
<pdfrwt beam="1">  1        4 0.34704874E-01 0.12500450E+03</pdfrwt>
<pdfrwt beam="2">  1       -4 0.26642447E-02 0.12500450E+03</pdfrwt>
<totfact> 0.83359098E+03</totfact>
</mgrwt>
</event>
<event>
 5    1  0.3267085E-002  0.1249887E+03  0.7818608E-02  0.1235087E+00
          4   -1    0    0  501    0  0.00000000000E+00  0.00000000000E+00  0.76089130125E+01  0.77141724917E+01  0.12700000000E+01 0.  1.
         -4   -1    0    0    0  501 -0.00000000000E+00 -0.00000000000E+00 -0.50965311633E+03  0.50965469868E+03  0.12700000000E+01 0.  1.
         25    2    1    2    0    0  0.00000000000E+00  0.00000000000E+00 -0.50204420332E+03  0.51736887117E+03  0.12498866657E+03 0.  0.
    9000005    1    3    3    0    0  0.29669883213E+01  0.58575903369E+02 -0.16180044169E+03  0.17210555600E+03  0.10000000000E+01 0.  0.
    9000005    1    3    3    0    0 -0.29669883213E+01 -0.58575903369E+02 -0.34024376163E+03  0.34526331517E+03  0.10000000000E+01 0.  0.
<mgrwt>
<rscale>  0 0.12498867E+03</rscale>
<asrwt>0</asrwt>
<pdfrwt beam="1">  1        4 0.11788210E-02 0.12498867E+03</pdfrwt>
<pdfrwt beam="2">  1       -4 0.78416364E-01 0.12498867E+03</pdfrwt>
<totfact> 0.54555095E+03</totfact>
</mgrwt>
</event>
<event>
 5    1  0.3267085E-002  0.1250006E+03  0.7818608E-02  0.1235068E+00
          4   -1    0    0  501    0  0.00000000000E+00  0.00000000000E+00  0.70074688378E+03  0.70074803462E+03  0.12700000000E+01 0.  1.
         -4   -1    0    0    0  501 -0.00000000000E+00 -0.00000000000E+00 -0.55009617131E+01  0.56456602598E+01  0.12700000000E+01 0.  1.
         25    2    1    2    0    0  0.00000000000E+00  0.00000000000E+00  0.69524592207E+03  0.70639369488E+03  0.12500064007E+03 0.  0.
    9000005    1    3    3    0    0  0.11493360398E+02  0.67652411505E+01  0.69263876308E+03  0.69276787017E+03  0.10000000000E+01 0.  0.
    9000005    1    3    3    0    0 -0.11493360398E+02 -0.67652411505E+01  0.26071589874E+01  0.13625824711E+02  0.10000000000E+01 0.  0.
<mgrwt>
<rscale>  0 0.12500064E+03</rscale>
<asrwt>0</asrwt>
<pdfrwt beam="1">  1        4 0.10781850E+00 0.12500064E+03</pdfrwt>
<pdfrwt beam="2">  1       -4 0.85752043E-03 0.12500064E+03</pdfrwt>
<totfact> 0.42750701E+03</totfact>
</mgrwt>
</event>
<event>
 5    1  0.3267085E-002  0.1249871E+03  0.7818608E-02  0.1235089E+00
          4   -1    0    0  501    0  0.00000000000E+00  0.00000000000E+00  0.52353433492E+02  0.52368835183E+02  0.12700000000E+01 0. -1.
         -4   -1    0    0    0  501 -0.00000000000E+00 -0.00000000000E+00 -0.74565925519E+02  0.74576739997E+02  0.12700000000E+01 0. -1.
         25    2    1    2    0    0  0.00000000000E+00  0.00000000000E+00 -0.22212492027E+02  0.12694557518E+03  0.12498713636E+03 0.  0.
    9000005    1    3    3    0    0 -0.47690796343E+02 -0.30605230105E+02 -0.37850453361E+02  0.68152395301E+02  0.10000000000E+01 0.  0.
    9000005    1    3    3    0    0  0.47690796343E+02  0.30605230105E+02  0.15637961333E+02  0.58793179879E+02  0.10000000000E+01 0.  0.
<mgrwt>
<rscale>  0 0.12498714E+03</rscale>
<asrwt>0</asrwt>
<pdfrwt beam="1">  1        4 0.80563910E-02 0.12498714E+03</pdfrwt>
<pdfrwt beam="2">  1       -4 0.11473697E-01 0.12498714E+03</pdfrwt>
<totfact> 0.10413352E+04</totfact>
</mgrwt>
</event>
<event>
 5    1  0.3267085E-002  0.1250083E+03  0.7818608E-02  0.1235056E+00
          4   -1    0    0  501    0  0.00000000000E+00  0.00000000000E+00  0.33392062570E+02  0.33416204792E+02  0.12700000000E+01 0. -1.
         -4   -1    0    0    0  501 -0.00000000000E+00 -0.00000000000E+00 -0.11692706839E+03  0.11693396522E+03  0.12700000000E+01 0. -1.
         25    2    1    2    0    0  0.00000000000E+00  0.00000000000E+00 -0.83535005815E+02  0.15035017001E+03  0.12500830542E+03 0.  0.
    9000005    1    3    3    0    0  0.13270033308E+02  0.14539499403E+02 -0.11310701734E+03  0.11481153339E+03  0.10000000000E+01 0.  0.
    9000005    1    3    3    0    0 -0.13270033308E+02 -0.14539499403E+02  0.29572011528E+02  0.35538636619E+02  0.10000000000E+01 0.  0.
<mgrwt>
<rscale>  0 0.12500831E+03</rscale>
<asrwt>0</asrwt>
<pdfrwt beam="1">  1        4 0.51396281E-02 0.12500831E+03</pdfrwt>
<pdfrwt beam="2">  1       -4 0.17991167E-01 0.12500831E+03</pdfrwt>
<totfact> 0.99215397E+03</totfact>
</mgrwt>
</event>
<event>
 5    1  0.3267085E-002  0.1249993E+03  0.7818608E-02  0.1235070E+00
          4   -1    0    0  501    0  0.00000000000E+00  0.00000000000E+00  0.39086235487E+03  0.39086441812E+03  0.12700000000E+01 0. -1.
         -4   -1    0    0    0  501 -0.00000000000E+00 -0.00000000000E+00 -0.99513710516E+01  0.10032082825E+02  0.12700000000E+01 0. -1.
         25    2    1    2    0    0  0.00000000000E+00  0.00000000000E+00  0.38091098381E+03  0.40089650094E+03  0.12499930751E+03 0.  0.
    9000005    1    3    3    0    0  0.26669364944E+01 -0.15044209785E+02  0.38479547115E+03  0.38509998107E+03  0.10000000000E+01 0.  0.
    9000005    1    3    3    0    0 -0.26669364944E+01  0.15044209785E+02 -0.38844873383E+01  0.15796519877E+02  0.10000000000E+01 0.  0.
<mgrwt>
<rscale>  0 0.12499931E+03</rscale>
<asrwt>0</asrwt>
<pdfrwt beam="1">  1        4 0.60139035E-01 0.12499931E+03</pdfrwt>
<pdfrwt beam="2">  1       -4 0.15373475E-02 0.12499931E+03</pdfrwt>
<totfact> 0.64466675E+03</totfact>
</mgrwt>
</event>
<event>
 5    1  0.3267085E-002  0.1250013E+03  0.7818608E-02  0.1235067E+00
          4   -1    0    0  501    0  0.00000000000E+00  0.00000000000E+00  0.93469548659E+02  0.93478176204E+02  0.12700000000E+01 0.  1.
         -4   -1    0    0    0  501 -0.00000000000E+00 -0.00000000000E+00 -0.41772374458E+02  0.41791675820E+02  0.12700000000E+01 0.  1.
         25    2    1    2    0    0  0.00000000000E+00  0.00000000000E+00  0.51697174201E+02  0.13526985202E+03  0.12500134018E+03 0.  0.
    9000005    1    3    3    0    0 -0.57212114609E+02 -0.18417195276E+02  0.44369264683E+02  0.74713123267E+02  0.10000000000E+01 0.  0.
    9000005    1    3    3    0    0  0.57212114609E+02  0.18417195276E+02  0.73279095180E+01  0.60556728757E+02  0.10000000000E+01 0.  0.
<mgrwt>
<rscale>  0 0.12500134E+03</rscale>
<asrwt>0</asrwt>
<pdfrwt beam="1">  1        4 0.14382079E-01 0.12500134E+03</pdfrwt>
<pdfrwt beam="2">  1       -4 0.64286675E-02 0.12500134E+03</pdfrwt>
<totfact> 0.10232077E+04</totfact>
</mgrwt>
</event>
<event>
 5    1  0.3267085E-002  0.1249996E+03  0.7818608E-02  0.1235070E+00
          4   -1    0    0  501    0  0.00000000000E+00  0.00000000000E+00  0.28947450515E+02  0.28975296225E+02  0.12700000000E+01 0. -1.
         -4   -1    0    0    0  501 -0.00000000000E+00 -0.00000000000E+00 -0.13484617483E+03  0.13485215521E+03  0.12700000000E+01 0. -1.
         25    2    1    2    0    0  0.00000000000E+00  0.00000000000E+00 -0.10589872431E+03  0.16382745144E+03  0.12499957613E+03 0.  0.
    9000005    1    3    3    0    0  0.51167045532E+01 -0.60254244750E+02 -0.32290133873E+02  0.68559517366E+02  0.10000000000E+01 0.  0.
    9000005    1    3    3    0    0 -0.51167045532E+01  0.60254244750E+02 -0.73608590439E+02  0.95267934072E+02  0.10000000000E+01 0.  0.
<mgrwt>
<rscale>  0 0.12499958E+03</rscale>
<asrwt>0</asrwt>
<pdfrwt beam="1">  1        4 0.44560560E-02 0.12499958E+03</pdfrwt>
<pdfrwt beam="2">  1       -4 0.20748167E-01 0.12499958E+03</pdfrwt>
<totfact> 0.96610836E+03</totfact>
</mgrwt>
</event>
<event>
 5    1  0.3267085E-002  0.1250023E+03  0.7818608E-02  0.1235066E+00
         -4   -1    0    0    0  501 -0.00000000000E+00  0.00000000000E+00  0.61889508178E+02  0.61902537287E+02  0.12700000000E+01 0. -1.
          4   -1    0    0  501    0  0.00000000000E+00 -0.00000000000E+00 -0.63092749688E+02  0.63105530370E+02  0.12700000000E+01 0. -1.
         25    2    1    2    0    0  0.00000000000E+00  0.00000000000E+00 -0.12032415100E+01  0.12500806766E+03  0.12500227674E+03 0.  0.
    9000005    1    3    3    0    0 -0.59307988160E+02  0.15892210104E+02  0.11034746400E+02  0.62392030177E+02  0.10000000000E+01 0.  0.
    9000005    1    3    3    0    0  0.59307988160E+02 -0.15892210104E+02 -0.12237987910E+02  0.62616037479E+02  0.10000000000E+01 0.  0.
<mgrwt>
<rscale>  0 0.12500228E+03</rscale>
<asrwt>0</asrwt>
<pdfrwt beam="2">  1        4 0.97085623E-02 0.12500228E+03</pdfrwt>
<pdfrwt beam="1">  1       -4 0.95234481E-02 0.12500228E+03</pdfrwt>
<totfact> 0.10452149E+04</totfact>
</mgrwt>
</event>
<event>
 5    1  0.3267085E-002  0.1249983E+03  0.7818608E-02  0.1235072E+00
         -4   -1    0    0    0  501 -0.00000000000E+00  0.00000000000E+00  0.77596476876E+01  0.78628895601E+01  0.12700000000E+01 0. -1.
          4   -1    0    0  501    0  0.00000000000E+00 -0.00000000000E+00 -0.49996122856E+03  0.49996284159E+03  0.12700000000E+01 0. -1.
         25    2    1    2    0    0  0.00000000000E+00  0.00000000000E+00 -0.49220158088E+03  0.50782573115E+03  0.12499830798E+03 0.  0.
    9000005    1    3    3    0    0 -0.21532174723E+02 -0.39088099560E+01 -0.82969399859E+01  0.23425468121E+02  0.10000000000E+01 0.  0.
    9000005    1    3    3    0    0  0.21532174723E+02  0.39088099560E+01 -0.48390464089E+03  0.48440026303E+03  0.10000000000E+01 0.  0.
<mgrwt>
<rscale>  0 0.12499831E+03</rscale>
<asrwt>0</asrwt>
<pdfrwt beam="2">  1        4 0.76925153E-01 0.12499831E+03</pdfrwt>
<pdfrwt beam="1">  1       -4 0.12018581E-02 0.12499831E+03</pdfrwt>
<totfact> 0.55264324E+03</totfact>
</mgrwt>
</event>
<event>
 5    1  0.3267085E-002  0.1249991E+03  0.7818608E-02  0.1235071E+00
         -4   -1    0    0    0  501 -0.00000000000E+00  0.00000000000E+00  0.38254191706E+02  0.38275267250E+02  0.12700000000E+01 0.  1.
          4   -1    0    0  501    0  0.00000000000E+00 -0.00000000000E+00 -0.10205834988E+03  0.10206625143E+03  0.12700000000E+01 0.  1.
         25    2    1    2    0    0  0.00000000000E+00  0.00000000000E+00 -0.63804158178E+02  0.14034151868E+03  0.12499908506E+03 0.  0.
    9000005    1    3    3    0    0 -0.59341692057E+02 -0.14938349270E+02 -0.46130443382E+02  0.76639470913E+02  0.10000000000E+01 0.  0.
    9000005    1    3    3    0    0  0.59341692057E+02  0.14938349270E+02 -0.17673714796E+02  0.63702047768E+02  0.10000000000E+01 0.  0.
<mgrwt>
<rscale>  0 0.12499909E+03</rscale>
<asrwt>0</asrwt>
<pdfrwt beam="2">  1        4 0.15703514E-01 0.12499909E+03</pdfrwt>
<pdfrwt beam="1">  1       -4 0.58874893E-02 0.12499909E+03</pdfrwt>
<totfact> 0.10126721E+04</totfact>
</mgrwt>
</event>
<event>
 5    1  0.3267085E-002  0.1250059E+03  0.7818608E-02  0.1235060E+00
          4   -1    0    0  501    0  0.00000000000E+00  0.00000000000E+00  0.78290054061E+02  0.78300354181E+02  0.12700000000E+01 0.  1.
         -4   -1    0    0    0  501 -0.00000000000E+00 -0.00000000000E+00 -0.49877619201E+02  0.49893785156E+02  0.12700000000E+01 0.  1.
         25    2    1    2    0    0  0.00000000000E+00  0.00000000000E+00  0.28412434860E+02  0.12819413934E+03  0.12500588348E+03 0.  0.
    9000005    1    3    3    0    0  0.14638368493E+02  0.58119455876E+02 -0.39502797857E+01  0.60072936451E+02  0.10000000000E+01 0.  0.
    9000005    1    3    3    0    0 -0.14638368493E+02 -0.58119455876E+02  0.32362714646E+02  0.68121202886E+02  0.10000000000E+01 0.  0.
<mgrwt>
<rscale>  0 0.12500588E+03</rscale>
<asrwt>0</asrwt>
<pdfrwt beam="1">  1        4 0.12046660E-01 0.12500588E+03</pdfrwt>
<pdfrwt beam="2">  1       -4 0.76755157E-02 0.12500588E+03</pdfrwt>
<totfact> 0.10381918E+04</totfact>
</mgrwt>
</event>
<event>
 5    1  0.3267085E-002  0.1250001E+03  0.7818608E-02  0.1235069E+00
         -4   -1    0    0    0  501 -0.00000000000E+00  0.00000000000E+00  0.26378814243E+03  0.26379119960E+03  0.12700000000E+01 0.  1.
          4   -1    0    0  501    0  0.00000000000E+00 -0.00000000000E+00 -0.14777941622E+02  0.14832412433E+02  0.12700000000E+01 0.  1.
         25    2    1    2    0    0  0.00000000000E+00  0.00000000000E+00  0.24901020081E+03  0.27862361203E+03  0.12500014831E+03 0.  0.
    9000005    1    3    3    0    0  0.46994633744E+02 -0.15922832775E+02  0.39826295110E+02  0.63633057341E+02  0.10000000000E+01 0.  0.
    9000005    1    3    3    0    0 -0.46994633744E+02  0.15922832775E+02  0.20918390570E+03  0.21499055469E+03  0.10000000000E+01 0.  0.
<mgrwt>
<rscale>  0 0.12500015E+03</rscale>
<asrwt>0</asrwt>
<pdfrwt beam="2">  1        4 0.22779549E-02 0.12500015E+03</pdfrwt>
<pdfrwt beam="1">  1       -4 0.40587214E-01 0.12500015E+03</pdfrwt>
<totfact> 0.78360701E+03</totfact>
</mgrwt>
</event>
<event>
 5    1  0.3267085E-002  0.1250012E+03  0.7818608E-02  0.1235067E+00
          4   -1    0    0  501    0  0.00000000000E+00  0.00000000000E+00  0.12974615359E+03  0.12975236904E+03  0.12700000000E+01 0. -1.
         -4   -1    0    0    0  501 -0.00000000000E+00 -0.00000000000E+00 -0.30087124992E+02  0.30113916887E+02  0.12700000000E+01 0. -1.
         25    2    1    2    0    0  0.00000000000E+00  0.00000000000E+00  0.99659028601E+02  0.15986628593E+03  0.12500122957E+03 0.  0.
    9000005    1    3    3    0    0 -0.51735612791E+02 -0.33420452038E+02  0.36305202726E+02  0.71502223674E+02  0.10000000000E+01 0.  0.
    9000005    1    3    3    0    0  0.51735612791E+02  0.33420452038E+02  0.63353825875E+02  0.88364062256E+02  0.10000000000E+01 0.  0.
<mgrwt>
<rscale>  0 0.12500123E+03</rscale>
<asrwt>0</asrwt>
<pdfrwt beam="1">  1        4 0.19963486E-01 0.12500123E+03</pdfrwt>
<pdfrwt beam="2">  1       -4 0.46313275E-02 0.12500123E+03</pdfrwt>
<totfact> 0.97365879E+03</totfact>
</mgrwt>
</event>
<event>
 5    1  0.3267085E-002  0.1249989E+03  0.7818608E-02  0.1235071E+00
          4   -1    0    0  501    0  0.00000000000E+00  0.00000000000E+00  0.68609200963E+02  0.68620954210E+02  0.12700000000E+01 0. -1.
         -4   -1    0    0    0  501 -0.00000000000E+00 -0.00000000000E+00 -0.56910049847E+02  0.56924218691E+02  0.12700000000E+01 0. -1.
         25    2    1    2    0    0  0.00000000000E+00  0.00000000000E+00  0.11699151116E+02  0.12554517290E+03  0.12499888120E+03 0.  0.
    9000005    1    3    3    0    0  0.56952689819E+02  0.25539821558E+01  0.31555343308E+02  0.65168024320E+02  0.10000000000E+01 0.  0.
    9000005    1    3    3    0    0 -0.56952689819E+02 -0.25539821558E+01 -0.19856192192E+02  0.60377148581E+02  0.10000000000E+01 0.  0.
<mgrwt>
<rscale>  0 0.12499888E+03</rscale>
<asrwt>0</asrwt>
<pdfrwt beam="1">  1        4 0.10557256E-01 0.12499888E+03</pdfrwt>
<pdfrwt beam="2">  1       -4 0.87573863E-02 0.12499888E+03</pdfrwt>
<totfact> 0.10441220E+04</totfact>
</mgrwt>
</event>
<event>
 5    1  0.3267085E-002  0.1249769E+03  0.7818608E-02  0.1235105E+00
         -4   -1    0    0    0  501 -0.00000000000E+00  0.00000000000E+00  0.13358675047E+02  0.13418908265E+02  0.12700000000E+01 0. -1.
          4   -1    0    0  501    0  0.00000000000E+00 -0.00000000000E+00 -0.29158583175E+03  0.29158859748E+03  0.12700000000E+01 0. -1.
         25    2    1    2    0    0  0.00000000000E+00  0.00000000000E+00 -0.27822715671E+03  0.30500750574E+03  0.12497690919E+03 0.  0.
    9000005    1    3    3    0    0  0.26150966846E+02  0.36156104605E+02 -0.32380073983E+02  0.55141691653E+02  0.10000000000E+01 0.  0.
    9000005    1    3    3    0    0 -0.26150966846E+02 -0.36156104605E+02 -0.24584708272E+03  0.24986581409E+03  0.10000000000E+01 0.  0.
<mgrwt>
<rscale>  0 0.12497691E+03</rscale>
<asrwt>0</asrwt>
<pdfrwt beam="2">  1        4 0.44864200E-01 0.12497691E+03</pdfrwt>
<pdfrwt beam="1">  1       -4 0.20600271E-02 0.12497691E+03</pdfrwt>
<totfact> 0.75013404E+03</totfact>
</mgrwt>
</event>
<event>
 5    1  0.3267085E-002  0.1249679E+03  0.7818608E-02  0.1235119E+00
          4   -1    0    0  501    0  0.00000000000E+00  0.00000000000E+00  0.24423675177E+02  0.24456672078E+02  0.12700000000E+01 0. -1.
         -4   -1    0    0    0  501 -0.00000000000E+00 -0.00000000000E+00 -0.15971154335E+03  0.15971659268E+03  0.12700000000E+01 0. -1.
         25    2    1    2    0    0  0.00000000000E+00  0.00000000000E+00 -0.13528786817E+03  0.18417326476E+03  0.12496793260E+03 0.  0.
    9000005    1    3    3    0    0  0.38892964768E+02  0.36914732200E+02 -0.11489378606E+03  0.12679488254E+03  0.10000000000E+01 0.  0.
    9000005    1    3    3    0    0 -0.38892964768E+02 -0.36914732200E+02 -0.20394082110E+02  0.57378382226E+02  0.10000000000E+01 0.  0.
<mgrwt>
<rscale>  0 0.12496793E+03</rscale>
<asrwt>0</asrwt>
<pdfrwt beam="1">  1        4 0.37604152E-02 0.12496793E+03</pdfrwt>
<pdfrwt beam="2">  1       -4 0.24573933E-01 0.12496793E+03</pdfrwt>
<totfact> 0.92937930E+03</totfact>
</mgrwt>
</event>
<event>
 4    1  0.3267085E-002  0.1248337E+03  0.7818608E-02  0.1235329E+00
          4   -1    0    0  501    0  0.00000000000E+00  0.00000000000E+00  0.45731257841E+01  0.47461963125E+01  0.12700000000E+01 0. -1.
         -4   -1    0    0    0  501 -0.00000000000E+00 -0.00000000000E+00 -0.83590895245E+03  0.83590991721E+03  0.12700000000E+01 0. -1.
    9000005    1    1    2    0    0 -0.11627827856E+01  0.62090692951E+02 -0.45731937431E+03  0.46151773133E+03  0.10000000000E+01 0.  0.
    9000005    1    1    2    0    0  0.11627827856E+01 -0.62090692951E+02 -0.37401645236E+03  0.37913838219E+03  0.10000000000E+01 0.  0.
<mgrwt>
<rscale>  0 0.12483367E+03</rscale>
<asrwt>0</asrwt>
<pdfrwt beam="1">  1        4 0.71694581E-03 0.12483367E+03</pdfrwt>
<pdfrwt beam="2">  1       -4 0.12861465E+00 0.12483367E+03</pdfrwt>
<totfact> 0.36645745E+03</totfact>
</mgrwt>
</event>
<event>
 5    1  0.3267085E-002  0.1249972E+03  0.7818608E-02  0.1235074E+00
          4   -1    0    0  501    0  0.00000000000E+00  0.00000000000E+00  0.68241451977E+01  0.69413152701E+01  0.12700000000E+01 0.  1.
         -4   -1    0    0    0  501 -0.00000000000E+00 -0.00000000000E+00 -0.56740074662E+03  0.56740216792E+03  0.12700000000E+01 0.  1.
         25    2    1    2    0    0  0.00000000000E+00  0.00000000000E+00 -0.56057660142E+03  0.57434348319E+03  0.12499724247E+03 0.  0.
    9000005    1    3    3    0    0 -0.18585910456E+02 -0.72325539279E+01 -0.81687852804E+01  0.21574868638E+02  0.10000000000E+01 0.  0.
    9000005    1    3    3    0    0  0.18585910456E+02  0.72325539279E+01 -0.55240781614E+03  0.55276861456E+03  0.10000000000E+01 0.  0.
<mgrwt>
<rscale>  0 0.12499724E+03</rscale>
<asrwt>0</asrwt>
<pdfrwt beam="1">  1        4 0.10589914E-02 0.12499724E+03</pdfrwt>
<pdfrwt beam="2">  1       -4 0.87301508E-01 0.12499724E+03</pdfrwt>
<totfact> 0.50531307E+03</totfact>
</mgrwt>
</event>
<event>
 5    1  0.3267085E-002  0.1249971E+03  0.7818608E-02  0.1235074E+00
          4   -1    0    0  501    0  0.00000000000E+00  0.00000000000E+00  0.14786677088E+03  0.14787222468E+03  0.12700000000E+01 0.  1.
         -4   -1    0    0    0  501 -0.00000000000E+00 -0.00000000000E+00 -0.26394936138E+02  0.26425471684E+02  0.12700000000E+01 0.  1.
         25    2    1    2    0    0  0.00000000000E+00  0.00000000000E+00  0.12147183474E+03  0.17429769636E+03  0.12499712125E+03 0.  0.
    9000005    1    3    3    0    0 -0.29266308208E+02  0.25439316230E+02  0.12906780052E+03  0.13477081560E+03  0.10000000000E+01 0.  0.
    9000005    1    3    3    0    0  0.29266308208E+02 -0.25439316230E+02 -0.75959657792E+01  0.39526880759E+02  0.10000000000E+01 0.  0.
<mgrwt>
<rscale>  0 0.12499712E+03</rscale>
<asrwt>0</asrwt>
<pdfrwt beam="1">  1        4 0.22751502E-01 0.12499712E+03</pdfrwt>
<pdfrwt beam="2">  1       -4 0.40635278E-02 0.12499712E+03</pdfrwt>
<totfact> 0.94659736E+03</totfact>
</mgrwt>
</event>
<event>
 5    1  0.3267085E-002  0.1250056E+03  0.7818608E-02  0.1235060E+00
         -4   -1    0    0    0  501 -0.00000000000E+00  0.00000000000E+00  0.42671743280E+02  0.42690638020E+02  0.12700000000E+01 0. -1.
          4   -1    0    0  501    0  0.00000000000E+00 -0.00000000000E+00 -0.91506537358E+02  0.91515349965E+02  0.12700000000E+01 0. -1.
         25    2    1    2    0    0  0.00000000000E+00  0.00000000000E+00 -0.48834794077E+02  0.13420598799E+03  0.12500564027E+03 0.  0.
    9000005    1    3    3    0    0 -0.56535923889E+02  0.20720240626E+02 -0.64538141126E+01  0.60566416257E+02  0.10000000000E+01 0.  0.
    9000005    1    3    3    0    0  0.56535923889E+02 -0.20720240626E+02 -0.42380979965E+02  0.73639571729E+02  0.10000000000E+01 0.  0.
<mgrwt>
<rscale>  0 0.12500564E+03</rscale>
<asrwt>0</asrwt>
<pdfrwt beam="2">  1        4 0.14080060E-01 0.12500564E+03</pdfrwt>
<pdfrwt beam="1">  1       -4 0.65670149E-02 0.12500564E+03</pdfrwt>
<totfact> 0.10253529E+04</totfact>
</mgrwt>
</event>
<event>
 5    1  0.3267085E-002  0.1250008E+03  0.7818608E-02  0.1235068E+00
          4   -1    0    0  501    0  0.00000000000E+00  0.00000000000E+00  0.63000532386E+03  0.63000660393E+03  0.12700000000E+01 0.  1.
         -4   -1    0    0    0  501 -0.00000000000E+00 -0.00000000000E+00 -0.61340937943E+01  0.62641844383E+01  0.12700000000E+01 0.  1.
         25    2    1    2    0    0  0.00000000000E+00  0.00000000000E+00  0.62387123007E+03  0.63627078837E+03  0.12500081769E+03 0.  0.
    9000005    1    3    3    0    0 -0.45645313786E+02 -0.42675868555E+02  0.31580102866E+03  0.32192547916E+03  0.10000000000E+01 0.  0.
    9000005    1    3    3    0    0  0.45645313786E+02  0.42675868555E+02  0.30807020141E+03  0.31434530921E+03  0.10000000000E+01 0.  0.
<mgrwt>
<rscale>  0 0.12500082E+03</rscale>
<asrwt>0</asrwt>
<pdfrwt beam="1">  1        4 0.96933969E-01 0.12500082E+03</pdfrwt>
<pdfrwt beam="2">  1       -4 0.95381250E-03 0.12500082E+03</pdfrwt>
<totfact> 0.46654486E+03</totfact>
</mgrwt>
</event>
<event>
 5    1  0.3267085E-002  0.1250002E+03  0.7818608E-02  0.1235069E+00
         -4   -1    0    0    0  501 -0.00000000000E+00  0.00000000000E+00  0.58145624003E+02  0.58159491837E+02  0.12700000000E+01 0. -1.
          4   -1    0    0  501    0  0.00000000000E+00 -0.00000000000E+00 -0.67152837179E+02  0.67164845278E+02  0.12700000000E+01 0. -1.
         25    2    1    2    0    0  0.00000000000E+00  0.00000000000E+00 -0.90072131756E+01  0.12532433711E+03  0.12500023834E+03 0.  0.
    9000005    1    3    3    0    0 -0.20979197883E+02 -0.48054094182E+02  0.29583695670E+02  0.60212272511E+02  0.10000000000E+01 0.  0.
    9000005    1    3    3    0    0  0.20979197883E+02  0.48054094182E+02 -0.38590908846E+02  0.65112064604E+02  0.10000000000E+01 0.  0.
<mgrwt>
<rscale>  0 0.12500024E+03</rscale>
<asrwt>0</asrwt>
<pdfrwt beam="2">  1        4 0.10333196E-01 0.12500024E+03</pdfrwt>
<pdfrwt beam="1">  1       -4 0.89474710E-02 0.12500024E+03</pdfrwt>
<totfact> 0.10445766E+04</totfact>
</mgrwt>
</event>
<event>
 5    1  0.3267085E-002  0.1250026E+03  0.7818608E-02  0.1235065E+00
          4   -1    0    0  501    0  0.00000000000E+00  0.00000000000E+00  0.37847844701E+03  0.37848057778E+03  0.12700000000E+01 0. -1.
         -4   -1    0    0    0  501 -0.00000000000E+00 -0.00000000000E+00 -0.10280127151E+02  0.10358277571E+02  0.12700000000E+01 0. -1.
         25    2    1    2    0    0  0.00000000000E+00  0.00000000000E+00  0.36819831986E+03  0.38883885535E+03  0.12500261069E+03 0.  0.
    9000005    1    3    3    0    0  0.22081488534E+02 -0.26673694088E+02  0.22275747184E+02  0.41186004963E+02  0.10000000000E+01 0.  0.
    9000005    1    3    3    0    0 -0.22081488534E+02  0.26673694088E+02  0.34592257268E+03  0.34765285038E+03  0.10000000000E+01 0.  0.
<mgrwt>
<rscale>  0 0.12500261E+03</rscale>
<asrwt>0</asrwt>
<pdfrwt beam="1">  1        4 0.58233638E-01 0.12500261E+03</pdfrwt>
<pdfrwt beam="2">  1       -4 0.15877333E-02 0.12500261E+03</pdfrwt>
<totfact> 0.65649186E+03</totfact>
</mgrwt>
</event>
<event>
 5    1  0.3267085E-002  0.1249981E+03  0.7818608E-02  0.1235072E+00
          4   -1    0    0  501    0  0.00000000000E+00  0.00000000000E+00  0.11765894483E+02  0.11834237322E+02  0.12700000000E+01 0. -1.
         -4   -1    0    0    0  501 -0.00000000000E+00 -0.00000000000E+00 -0.33095666185E+03  0.33095909856E+03  0.12700000000E+01 0. -1.
         25    2    1    2    0    0  0.00000000000E+00  0.00000000000E+00 -0.31919076737E+03  0.34279333589E+03  0.12499810061E+03 0.  0.
    9000005    1    3    3    0    0 -0.37694780337E+02 -0.44480050829E+02 -0.22126924701E+03  0.22882406136E+03  0.10000000000E+01 0.  0.
    9000005    1    3    3    0    0  0.37694780337E+02  0.44480050829E+02 -0.97921520360E+02  0.11396927453E+03  0.10000000000E+01 0.  0.
<mgrwt>
<rscale>  0 0.12499810E+03</rscale>
<asrwt>0</asrwt>
<pdfrwt beam="1">  1        4 0.18155824E-02 0.12499810E+03</pdfrwt>
<pdfrwt beam="2">  1       -4 0.50921847E-01 0.12499810E+03</pdfrwt>
<totfact> 0.70527690E+03</totfact>
</mgrwt>
</event>
<event>
 5    1  0.3267085E-002  0.1250015E+03  0.7818608E-02  0.1235067E+00
         -4   -1    0    0    0  501 -0.00000000000E+00  0.00000000000E+00  0.83869897070E+03  0.83869993225E+03  0.12700000000E+01 0. -1.
          4   -1    0    0  501    0  0.00000000000E+00 -0.00000000000E+00 -0.45700652142E+01  0.47432474174E+01  0.12700000000E+01 0. -1.
         25    2    1    2    0    0  0.00000000000E+00  0.00000000000E+00  0.83412890549E+03  0.84344317967E+03  0.12500146542E+03 0.  0.
    9000005    1    3    3    0    0 -0.94255862202E+01 -0.60415781099E+02  0.33001604151E+03  0.33563446774E+03  0.10000000000E+01 0.  0.
    9000005    1    3    3    0    0  0.94255862202E+01  0.60415781099E+02  0.50411286398E+03  0.50780871193E+03  0.10000000000E+01 0.  0.
<mgrwt>
<rscale>  0 0.12500147E+03</rscale>
<asrwt>0</asrwt>
<pdfrwt beam="2">  1        4 0.71648259E-03 0.12500147E+03</pdfrwt>
<pdfrwt beam="1">  1       -4 0.12904401E+00 0.12500147E+03</pdfrwt>
<totfact> 0.36395980E+03</totfact>
</mgrwt>
</event>
<event>
 5    1  0.3267085E-002  0.1250049E+03  0.7818608E-02  0.1235062E+00
          4   -1    0    0  501    0  0.00000000000E+00  0.00000000000E+00  0.13636558391E+02  0.13695569530E+02  0.12700000000E+01 0.  1.
         -4   -1    0    0    0  501 -0.00000000000E+00 -0.00000000000E+00 -0.28579794070E+03  0.28580076244E+03  0.12700000000E+01 0.  1.
         25    2    1    2    0    0  0.00000000000E+00  0.00000000000E+00 -0.27216138231E+03  0.29949633197E+03  0.12500493926E+03 0.  0.
    9000005    1    3    3    0    0 -0.58597928355E+02 -0.11218415645E+02 -0.91515552467E+02  0.10925047552E+03  0.10000000000E+01 0.  0.
    9000005    1    3    3    0    0  0.58597928355E+02  0.11218415645E+02 -0.18064582984E+03  0.19024585645E+03  0.10000000000E+01 0.  0.
<mgrwt>
<rscale>  0 0.12500494E+03</rscale>
<asrwt>0</asrwt>
<pdfrwt beam="1">  1        4 0.21026886E-02 0.12500494E+03</pdfrwt>
<pdfrwt beam="2">  1       -4 0.43973666E-01 0.12500494E+03</pdfrwt>
<totfact> 0.75653767E+03</totfact>
</mgrwt>
</event>
<event>
 5    1  0.3267085E-002  0.1250077E+03  0.7818608E-02  0.1235057E+00
         -4   -1    0    0    0  501 -0.00000000000E+00  0.00000000000E+00  0.71798232871E+01  0.72912798900E+01  0.12700000000E+01 0.  1.
          4   -1    0    0  501    0  0.00000000000E+00 -0.00000000000E+00 -0.53982323295E+03  0.53982472686E+03  0.12700000000E+01 0.  1.
         25    2    1    2    0    0  0.00000000000E+00  0.00000000000E+00 -0.53264340966E+03  0.54711600675E+03  0.12500769171E+03 0.  0.
    9000005    1    3    3    0    0 -0.54175712589E+02 -0.28192804832E+02 -0.20827713257E+03  0.21704885632E+03  0.10000000000E+01 0.  0.
    9000005    1    3    3    0    0  0.54175712589E+02  0.28192804832E+02 -0.32436627709E+03  0.33006715043E+03  0.10000000000E+01 0.  0.
<mgrwt>
<rscale>  0 0.12500769E+03</rscale>
<asrwt>0</asrwt>
<pdfrwt beam="2">  1        4 0.83058385E-01 0.12500769E+03</pdfrwt>
<pdfrwt beam="1">  1       -4 0.11132771E-02 0.12500769E+03</pdfrwt>
<totfact> 0.52376705E+03</totfact>
</mgrwt>
</event>
<event>
 5    1  0.3267085E-002  0.1250073E+03  0.7818608E-02  0.1235058E+00
          4   -1    0    0  501    0  0.00000000000E+00  0.00000000000E+00  0.69939830575E+02  0.69951360250E+02  0.12700000000E+01 0.  1.
         -4   -1    0    0    0  501 -0.00000000000E+00 -0.00000000000E+00 -0.55834710658E+02  0.55849152314E+02  0.12700000000E+01 0.  1.
         25    2    1    2    0    0  0.00000000000E+00  0.00000000000E+00  0.14105119917E+02  0.12580051256E+03  0.12500725800E+03 0.  0.
    9000005    1    3    3    0    0  0.37117501339E+02 -0.23536563437E+02  0.51764498151E+02  0.67913489035E+02  0.10000000000E+01 0.  0.
    9000005    1    3    3    0    0 -0.37117501339E+02  0.23536563437E+02 -0.37659378234E+02  0.57887023529E+02  0.10000000000E+01 0.  0.
<mgrwt>
<rscale>  0 0.12500726E+03</rscale>
<asrwt>0</asrwt>
<pdfrwt beam="1">  1        4 0.10761972E-01 0.12500726E+03</pdfrwt>
<pdfrwt beam="2">  1       -4 0.85919533E-02 0.12500726E+03</pdfrwt>
<totfact> 0.10433625E+04</totfact>
</mgrwt>
</event>
<event>
 5    1  0.3267085E-002  0.1249983E+03  0.7818608E-02  0.1235072E+00
         -4   -1    0    0    0  501 -0.00000000000E+00  0.00000000000E+00  0.67682533776E+02  0.67694447913E+02  0.12700000000E+01 0.  1.
          4   -1    0    0  501    0  0.00000000000E+00 -0.00000000000E+00 -0.57688773947E+02  0.57702751576E+02  0.12700000000E+01 0.  1.
         25    2    1    2    0    0  0.00000000000E+00  0.00000000000E+00  0.99937598292E+01  0.12539719949E+03  0.12499832961E+03 0.  0.
    9000005    1    3    3    0    0  0.37011701379E+02  0.23821981162E+02 -0.39504482681E+02  0.59151982024E+02  0.10000000000E+01 0.  0.
    9000005    1    3    3    0    0 -0.37011701379E+02 -0.23821981162E+02  0.49498242510E+02  0.66245217466E+02  0.10000000000E+01 0.  0.
<mgrwt>
<rscale>  0 0.12499833E+03</rscale>
<asrwt>0</asrwt>
<pdfrwt beam="2">  1        4 0.88771877E-02 0.12499833E+03</pdfrwt>
<pdfrwt beam="1">  1       -4 0.10414689E-01 0.12499833E+03</pdfrwt>
<totfact> 0.10444622E+04</totfact>
</mgrwt>
</event>
<event>
 5    1  0.3267085E-002  0.1250149E+03  0.7818608E-02  0.1235046E+00
         -4   -1    0    0    0  501 -0.00000000000E+00  0.00000000000E+00  0.12621915146E+01  0.17905383044E+01  0.12700000000E+01 0.  1.
          4   -1    0    0  501    0  0.00000000000E+00 -0.00000000000E+00 -0.25592680849E+04  0.25592684000E+04  0.12700000000E+01 0.  1.
         25    2    1    2    0    0  0.00000000000E+00  0.00000000000E+00 -0.25580058934E+04  0.25610589383E+04  0.12501493880E+03 0.  0.
    9000005    1    3    3    0    0 -0.47212546743E+01 -0.60244793013E+02 -0.95221497967E+03  0.95413106691E+03  0.10000000000E+01 0.  0.
    9000005    1    3    3    0    0  0.47212546743E+01  0.60244793013E+02 -0.16057909137E+04  0.16069278714E+04  0.10000000000E+01 0.  0.
<mgrwt>
<rscale>  0 0.12501494E+03</rscale>
<asrwt>0</asrwt>
<pdfrwt beam="2">  1        4 0.39377078E+00 0.12501494E+03</pdfrwt>
<pdfrwt beam="1">  1       -4 0.23485166E-03 0.12501494E+03</pdfrwt>
<totfact> 0.42059756E+02</totfact>
</mgrwt>
</event>
<event>
 5    1  0.3267085E-002  0.1250003E+03  0.7818608E-02  0.1235069E+00
         -4   -1    0    0    0  501 -0.00000000000E+00  0.00000000000E+00  0.19707999278E+03  0.19708408473E+03  0.12700000000E+01 0.  1.
          4   -1    0    0  501    0  0.00000000000E+00 -0.00000000000E+00 -0.19796069381E+02  0.19836765436E+02  0.12700000000E+01 0.  1.
         25    2    1    2    0    0  0.00000000000E+00  0.00000000000E+00  0.17728392340E+03  0.21692085017E+03  0.12500026297E+03 0.  0.
    9000005    1    3    3    0    0  0.44997368739E+02  0.12672455675E+02  0.16673288148E+02  0.49642248780E+02  0.10000000000E+01 0.  0.
    9000005    1    3    3    0    0 -0.44997368739E+02 -0.12672455675E+02  0.16061063525E+03  0.16727860139E+03  0.10000000000E+01 0.  0.
<mgrwt>
<rscale>  0 0.12500026E+03</rscale>
<asrwt>0</asrwt>
<pdfrwt beam="2">  1        4 0.30489945E-02 0.12500026E+03</pdfrwt>
<pdfrwt beam="1">  1       -4 0.30323443E-01 0.12500026E+03</pdfrwt>
<totfact> 0.87357429E+03</totfact>
</mgrwt>
</event>
<event>
 5    1  0.3267085E-002  0.1249982E+03  0.7818608E-02  0.1235072E+00
          4   -1    0    0  501    0  0.00000000000E+00  0.00000000000E+00  0.72747511161E+02  0.72758595919E+02  0.12700000000E+01 0.  1.
         -4   -1    0    0    0  501 -0.00000000000E+00 -0.00000000000E+00 -0.53671774780E+02  0.53686798266E+02  0.12700000000E+01 0.  1.
         25    2    1    2    0    0  0.00000000000E+00  0.00000000000E+00  0.19075736380E+02  0.12644539418E+03  0.12499821596E+03 0.  0.
    9000005    1    3    3    0    0  0.35104857562E+02  0.49479802917E+02  0.24695897720E+02  0.65509459510E+02  0.10000000000E+01 0.  0.
    9000005    1    3    3    0    0 -0.35104857562E+02 -0.49479802917E+02 -0.56201613397E+01  0.60935934674E+02  0.10000000000E+01 0.  0.
<mgrwt>
<rscale>  0 0.12499822E+03</rscale>
<asrwt>0</asrwt>
<pdfrwt beam="1">  1        4 0.11193933E-01 0.12499822E+03</pdfrwt>
<pdfrwt beam="2">  1       -4 0.82592044E-02 0.12499822E+03</pdfrwt>
<totfact> 0.10421639E+04</totfact>
</mgrwt>
</event>
<event>
 5    1  0.3267085E-002  0.1249970E+03  0.7818608E-02  0.1235074E+00
          4   -1    0    0  501    0  0.00000000000E+00  0.00000000000E+00  0.10700228404E+03  0.10700982052E+03  0.12700000000E+01 0.  1.
         -4   -1    0    0    0  501 -0.00000000000E+00 -0.00000000000E+00 -0.36484624549E+02  0.36506721689E+02  0.12700000000E+01 0.  1.
         25    2    1    2    0    0  0.00000000000E+00  0.00000000000E+00  0.70517659486E+02  0.14351654221E+03  0.12499703032E+03 0.  0.
    9000005    1    3    3    0    0  0.30271118784E+02  0.42547310797E+02  0.74673497268E+02  0.91124889480E+02  0.10000000000E+01 0.  0.
    9000005    1    3    3    0    0 -0.30271118784E+02 -0.42547310797E+02 -0.41558377822E+01  0.52391652734E+02  0.10000000000E+01 0.  0.
<mgrwt>
<rscale>  0 0.12499703E+03</rscale>
<asrwt>0</asrwt>
<pdfrwt beam="1">  1        4 0.16464169E-01 0.12499703E+03</pdfrwt>
<pdfrwt beam="2">  1       -4 0.56152988E-02 0.12499703E+03</pdfrwt>
<totfact> 0.10061889E+04</totfact>
</mgrwt>
</event>
<event>
 5    1  0.3267085E-002  0.1249995E+03  0.7818608E-02  0.1235070E+00
          4   -1    0    0  501    0  0.00000000000E+00  0.00000000000E+00  0.42925125793E+03  0.42925313666E+03  0.12700000000E+01 0.  1.
         -4   -1    0    0    0  501 -0.00000000000E+00 -0.00000000000E+00 -0.90538578408E+01  0.91424964753E+01  0.12700000000E+01 0.  1.
         25    2    1    2    0    0  0.00000000000E+00  0.00000000000E+00  0.42019740009E+03  0.43839563314E+03  0.12499950445E+03 0.  0.
    9000005    1    3    3    0    0 -0.39094657473E+02 -0.28984792093E+02  0.72614215152E+02  0.87420447596E+02  0.10000000000E+01 0.  0.
    9000005    1    3    3    0    0  0.39094657473E+02  0.28984792093E+02  0.34758318494E+03  0.35097518554E+03  0.10000000000E+01 0.  0.
<mgrwt>
<rscale>  0 0.12499950E+03</rscale>
<asrwt>0</asrwt>
<pdfrwt beam="1">  1        4 0.66045621E-01 0.12499950E+03</pdfrwt>
<pdfrwt beam="2">  1       -4 0.13998640E-02 0.12499950E+03</pdfrwt>
<totfact> 0.60982945E+03</totfact>
</mgrwt>
</event>
<event>
 5    1  0.3267085E-002  0.1249990E+03  0.7818608E-02  0.1235071E+00
         -4   -1    0    0    0  501 -0.00000000000E+00  0.00000000000E+00  0.48235988040E+03  0.48236155229E+03  0.12700000000E+01 0. -1.
          4   -1    0    0  501    0  0.00000000000E+00 -0.00000000000E+00 -0.80465869731E+01  0.81461930934E+01  0.12700000000E+01 0. -1.
         25    2    1    2    0    0  0.00000000000E+00  0.00000000000E+00  0.47431329343E+03  0.49050774538E+03  0.12499899180E+03 0.  0.
    9000005    1    3    3    0    0  0.60431942900E+02 -0.15582690688E+02  0.22453410184E+03  0.23304806985E+03  0.10000000000E+01 0.  0.
    9000005    1    3    3    0    0 -0.60431942900E+02  0.15582690688E+02  0.24977919159E+03  0.25745967553E+03  0.10000000000E+01 0.  0.
<mgrwt>
<rscale>  0 0.12499899E+03</rscale>
<asrwt>0</asrwt>
<pdfrwt beam="2">  1        4 0.12457277E-02 0.12499899E+03</pdfrwt>
<pdfrwt beam="1">  1       -4 0.74216964E-01 0.12499899E+03</pdfrwt>
<totfact> 0.56609717E+03</totfact>
</mgrwt>
</event>
<event>
 5    1  0.3267085E-002  0.1250004E+03  0.7818608E-02  0.1235069E+00
         -4   -1    0    0    0  501 -0.00000000000E+00  0.00000000000E+00  0.65519893355E+02  0.65532200675E+02  0.12700000000E+01 0. -1.
          4   -1    0    0  501    0  0.00000000000E+00 -0.00000000000E+00 -0.59594985942E+02  0.59608516585E+02  0.12700000000E+01 0. -1.
         25    2    1    2    0    0  0.00000000000E+00  0.00000000000E+00  0.59249074133E+01  0.12514071726E+03  0.12500037835E+03 0.  0.
    9000005    1    3    3    0    0 -0.49872389188E+02  0.33193618413E+02 -0.14839583935E+02  0.61727504065E+02  0.10000000000E+01 0.  0.
    9000005    1    3    3    0    0  0.49872389188E+02 -0.33193618413E+02  0.20764491348E+02  0.63413213194E+02  0.10000000000E+01 0.  0.
<mgrwt>
<rscale>  0 0.12500038E+03</rscale>
<asrwt>0</asrwt>
<pdfrwt beam="2">  1        4 0.91704469E-02 0.12500038E+03</pdfrwt>
<pdfrwt beam="1">  1       -4 0.10081971E-01 0.12500038E+03</pdfrwt>
<totfact> 0.10449718E+04</totfact>
</mgrwt>
</event>
<event>
 5    1  0.3267085E-002  0.1250023E+03  0.7818608E-02  0.1235066E+00
          4   -1    0    0  501    0  0.00000000000E+00  0.00000000000E+00  0.71626872258E+03  0.71626984848E+03  0.12700000000E+01 0.  1.
         -4   -1    0    0    0  501 -0.00000000000E+00 -0.00000000000E+00 -0.53787296903E+01  0.55266294503E+01  0.12700000000E+01 0.  1.
         25    2    1    2    0    0  0.00000000000E+00  0.00000000000E+00  0.71088999289E+03  0.72179647793E+03  0.12500229425E+03 0.  0.
    9000005    1    3    3    0    0  0.36675843833E+02  0.40589573999E+02  0.18099312436E+03  0.18908236857E+03  0.10000000000E+01 0.  0.
    9000005    1    3    3    0    0 -0.36675843833E+02 -0.40589573999E+02  0.52989686853E+03  0.53271410936E+03  0.10000000000E+01 0.  0.
<mgrwt>
<rscale>  0 0.12500229E+03</rscale>
<asrwt>0</asrwt>
<pdfrwt beam="1">  1        4 0.11020662E+00 0.12500229E+03</pdfrwt>
<pdfrwt beam="2">  1       -4 0.83896066E-03 0.12500229E+03</pdfrwt>
<totfact> 0.41958667E+03</totfact>
</mgrwt>
</event>
<event>
 5    1  0.3267085E-002  0.1250003E+03  0.7818608E-02  0.1235069E+00
          4   -1    0    0  501    0  0.00000000000E+00  0.00000000000E+00  0.22445050576E+03  0.22445409872E+03  0.12700000000E+01 0.  1.
         -4   -1    0    0    0  501 -0.00000000000E+00 -0.00000000000E+00 -0.17376803622E+02  0.17423151383E+02  0.12700000000E+01 0.  1.
         25    2    1    2    0    0  0.00000000000E+00  0.00000000000E+00  0.20707370213E+03  0.24187725011E+03  0.12500034402E+03 0.  0.
    9000005    1    3    3    0    0 -0.57549008803E+02  0.19087492865E+02  0.74251554341E+02  0.95867169146E+02  0.10000000000E+01 0.  0.
    9000005    1    3    3    0    0  0.57549008803E+02 -0.19087492865E+02  0.13282214779E+03  0.14601008096E+03  0.10000000000E+01 0.  0.
<mgrwt>
<rscale>  0 0.12500034E+03</rscale>
<asrwt>0</asrwt>
<pdfrwt beam="1">  1        4 0.34534691E-01 0.12500034E+03</pdfrwt>
<pdfrwt beam="2">  1       -4 0.26771959E-02 0.12500034E+03</pdfrwt>
<totfact> 0.83517933E+03</totfact>
</mgrwt>
</event>
<event>
 5    1  0.3267085E-002  0.1249941E+03  0.7818608E-02  0.1235079E+00
          4   -1    0    0  501    0  0.00000000000E+00  0.00000000000E+00  0.15876814461E+02  0.15927527662E+02  0.12700000000E+01 0.  1.
         -4   -1    0    0    0  501 -0.00000000000E+00 -0.00000000000E+00 -0.24556701801E+03  0.24557030202E+03  0.12700000000E+01 0.  1.
         25    2    1    2    0    0  0.00000000000E+00  0.00000000000E+00 -0.22969020355E+03  0.26149782968E+03  0.12499410115E+03 0.  0.
    9000005    1    3    3    0    0 -0.56111050161E+02 -0.22201131552E+02 -0.80882357144E+02  0.10091727250E+03  0.10000000000E+01 0.  0.
    9000005    1    3    3    0    0  0.56111050161E+02  0.22201131552E+02 -0.14880784641E+03  0.16058055718E+03  0.10000000000E+01 0.  0.
<mgrwt>
<rscale>  0 0.12499410E+03</rscale>
<asrwt>0</asrwt>
<pdfrwt beam="1">  1        4 0.24467406E-02 0.12499410E+03</pdfrwt>
<pdfrwt beam="2">  1       -4 0.37783692E-01 0.12499410E+03</pdfrwt>
<totfact> 0.80706917E+03</totfact>
</mgrwt>
</event>
<event>
 5    1  0.3267085E-002  0.1249989E+03  0.7818608E-02  0.1235071E+00
         -4   -1    0    0    0  501 -0.00000000000E+00  0.00000000000E+00  0.37199846322E+02  0.37221518862E+02  0.12700000000E+01 0.  1.
          4   -1    0    0  501    0  0.00000000000E+00 -0.00000000000E+00 -0.10494923399E+03  0.10495691790E+03  0.12700000000E+01 0.  1.
         25    2    1    2    0    0  0.00000000000E+00  0.00000000000E+00 -0.67749387671E+02  0.14217843676E+03  0.12499891340E+03 0.  0.
    9000005    1    3    3    0    0  0.52230086151E+02  0.18566605568E+02 -0.66692893473E+02  0.86727405020E+02  0.10000000000E+01 0.  0.
    9000005    1    3    3    0    0 -0.52230086151E+02 -0.18566605568E+02 -0.10564941977E+01  0.55451031745E+02  0.10000000000E+01 0.  0.
<mgrwt>
<rscale>  0 0.12499891E+03</rscale>
<asrwt>0</asrwt>
<pdfrwt beam="2">  1        4 0.16148294E-01 0.12499891E+03</pdfrwt>
<pdfrwt beam="1">  1       -4 0.57253115E-02 0.12499891E+03</pdfrwt>
<totfact> 0.10088881E+04</totfact>
</mgrwt>
</event>
<event>
 5    1  0.3267085E-002  0.1250016E+03  0.7818608E-02  0.1235067E+00
          4   -1    0    0  501    0  0.00000000000E+00  0.00000000000E+00  0.27636534296E+02  0.27665699483E+02  0.12700000000E+01 0.  1.
         -4   -1    0    0    0  501 -0.00000000000E+00 -0.00000000000E+00 -0.14124086361E+03  0.14124657324E+03  0.12700000000E+01 0.  1.
         25    2    1    2    0    0  0.00000000000E+00  0.00000000000E+00 -0.11360432931E+03  0.16891227273E+03  0.12500164895E+03 0.  0.
    9000005    1    3    3    0    0 -0.50478286120E+01  0.60527639063E+02 -0.76674597086E+02  0.97821620834E+02  0.10000000000E+01 0.  0.
    9000005    1    3    3    0    0  0.50478286120E+01 -0.60527639063E+02 -0.36929732228E+02  0.71090651894E+02  0.10000000000E+01 0.  0.
<mgrwt>
<rscale>  0 0.12500165E+03</rscale>
<asrwt>0</asrwt>
<pdfrwt beam="1">  1        4 0.42544573E-02 0.12500165E+03</pdfrwt>
<pdfrwt beam="2">  1       -4 0.21732046E-01 0.12500165E+03</pdfrwt>
<totfact> 0.95648016E+03</totfact>
</mgrwt>
</event>
<event>
 5    1  0.3267085E-002  0.1250006E+03  0.7818608E-02  0.1235068E+00
          4   -1    0    0  501    0  0.00000000000E+00  0.00000000000E+00  0.14165103492E+02  0.14221921704E+02  0.12700000000E+01 0.  1.
         -4   -1    0    0    0  501 -0.00000000000E+00 -0.00000000000E+00 -0.27515813866E+03  0.27516106950E+03  0.12700000000E+01 0.  1.
         25    2    1    2    0    0  0.00000000000E+00  0.00000000000E+00 -0.26099303516E+03  0.28938299120E+03  0.12500060478E+03 0.  0.
    9000005    1    3    3    0    0  0.36049354938E+02 -0.21434459594E+02 -0.23244450808E+02  0.47961406807E+02  0.10000000000E+01 0.  0.
    9000005    1    3    3    0    0 -0.36049354938E+02  0.21434459594E+02 -0.23774858436E+03  0.24142158440E+03  0.10000000000E+01 0.  0.
<mgrwt>
<rscale>  0 0.12500060E+03</rscale>
<asrwt>0</asrwt>
<pdfrwt beam="1">  1        4 0.21838430E-02 0.12500060E+03</pdfrwt>
<pdfrwt beam="2">  1       -4 0.42336613E-01 0.12500060E+03</pdfrwt>
<totfact> 0.76949181E+03</totfact>
</mgrwt>
</event>
<event>
 5    1  0.3267085E-002  0.1250007E+03  0.7818608E-02  0.1235068E+00
          4   -1    0    0  501    0  0.00000000000E+00  0.00000000000E+00  0.22252454477E+02  0.22288665959E+02  0.12700000000E+01 0.  1.
         -4   -1    0    0    0  501 -0.00000000000E+00 -0.00000000000E+00 -0.17536330459E+03  0.17536790327E+03  0.12700000000E+01 0.  1.
         25    2    1    2    0    0  0.00000000000E+00  0.00000000000E+00 -0.15311085011E+03  0.19765656923E+03  0.12500074774E+03 0.  0.
    9000005    1    3    3    0    0  0.55670787300E+02 -0.26937619978E+02 -0.62374856252E+02  0.87843580421E+02  0.10000000000E+01 0.  0.
    9000005    1    3    3    0    0 -0.55670787300E+02  0.26937619978E+02 -0.90735993860E+02  0.10981298881E+03  0.10000000000E+01 0.  0.
<mgrwt>
<rscale>  0 0.12500075E+03</rscale>
<asrwt>0</asrwt>
<pdfrwt beam="1">  1        4 0.34265939E-02 0.12500075E+03</pdfrwt>
<pdfrwt beam="2">  1       -4 0.26982108E-01 0.12500075E+03</pdfrwt>
<totfact> 0.90530384E+03</totfact>
</mgrwt>
</event>
<event>
 5    1  0.3267085E-002  0.1249995E+03  0.7818608E-02  0.1235070E+00
         -4   -1    0    0    0  501 -0.00000000000E+00  0.00000000000E+00  0.44752572512E+01  0.46519702777E+01  0.12700000000E+01 0. -1.
          4   -1    0    0  501    0  0.00000000000E+00 -0.00000000000E+00 -0.85577116799E+03  0.85577211035E+03  0.12700000000E+01 0. -1.
         25    2    1    2    0    0  0.00000000000E+00  0.00000000000E+00 -0.85129591073E+03  0.86042408063E+03  0.12499948357E+03 0.  0.
    9000005    1    3    3    0    0 -0.48199439657E+02 -0.39773479656E+02 -0.42784694938E+03  0.43238770538E+03  0.10000000000E+01 0.  0.
    9000005    1    3    3    0    0  0.48199439657E+02  0.39773479656E+02 -0.42344896135E+03  0.42803637525E+03  0.10000000000E+01 0.  0.
<mgrwt>
<rscale>  0 0.12499948E+03</rscale>
<asrwt>0</asrwt>
<pdfrwt beam="2">  1        4 0.13167064E+00 0.12499948E+03</pdfrwt>
<pdfrwt beam="1">  1       -4 0.70216760E-03 0.12499948E+03</pdfrwt>
<totfact> 0.35704952E+03</totfact>
</mgrwt>
</event>
<event>
 5    1  0.3267085E-002  0.1249902E+03  0.7818608E-02  0.1235085E+00
         -4   -1    0    0    0  501 -0.00000000000E+00  0.00000000000E+00  0.61489120044E+02  0.61502233974E+02  0.12700000000E+01 0. -1.
          4   -1    0    0  501    0  0.00000000000E+00 -0.00000000000E+00 -0.63491315704E+02  0.63504016171E+02  0.12700000000E+01 0. -1.
         25    2    1    2    0    0  0.00000000000E+00  0.00000000000E+00 -0.20021956601E+01  0.12500625014E+03  0.12499021477E+03 0.  0.
    9000005    1    3    3    0    0  0.95563941915E+01  0.61342031343E+02 -0.81061606838E+01  0.62616925190E+02  0.10000000000E+01 0.  0.
    9000005    1    3    3    0    0 -0.95563941915E+01 -0.61342031343E+02  0.61039650236E+01  0.62389324954E+02  0.10000000000E+01 0.  0.
<mgrwt>
<rscale>  0 0.12499021E+03</rscale>
<asrwt>0</asrwt>
<pdfrwt beam="2">  1        4 0.97698804E-02 0.12499021E+03</pdfrwt>
<pdfrwt beam="1">  1       -4 0.94618504E-02 0.12499021E+03</pdfrwt>
<totfact> 0.10455039E+04</totfact>
</mgrwt>
</event>
<event>
 5    1  0.3267085E-002  0.1250018E+03  0.7818608E-02  0.1235066E+00
         -4   -1    0    0    0  501 -0.00000000000E+00  0.00000000000E+00  0.13046583190E+02  0.13108250568E+02  0.12700000000E+01 0. -1.
          4   -1    0    0  501    0  0.00000000000E+00 -0.00000000000E+00 -0.29864763097E+03  0.29865033130E+03  0.12700000000E+01 0. -1.
         25    2    1    2    0    0  0.00000000000E+00  0.00000000000E+00 -0.28560104778E+03  0.31175858187E+03  0.12500181948E+03 0.  0.
    9000005    1    3    3    0    0 -0.80845746846E+01  0.39754986462E+02 -0.26135351744E+03  0.26448531221E+03  0.10000000000E+01 0.  0.
    9000005    1    3    3    0    0  0.80845746846E+01 -0.39754986462E+02 -0.24247530342E+02  0.47273269657E+02  0.10000000000E+01 0.  0.
<mgrwt>
<rscale>  0 0.12500182E+03</rscale>
<asrwt>0</asrwt>
<pdfrwt beam="2">  1        4 0.45950736E-01 0.12500182E+03</pdfrwt>
<pdfrwt beam="1">  1       -4 0.20121182E-02 0.12500182E+03</pdfrwt>
<totfact> 0.74144155E+03</totfact>
</mgrwt>
</event>
<event>
 5    1  0.3267085E-002  0.1250065E+03  0.7818608E-02  0.1235059E+00
          4   -1    0    0  501    0  0.00000000000E+00  0.00000000000E+00  0.34284581882E+02  0.34308096053E+02  0.12700000000E+01 0.  1.
         -4   -1    0    0    0  501 -0.00000000000E+00 -0.00000000000E+00 -0.11388185129E+03  0.11388893254E+03  0.12700000000E+01 0.  1.
         25    2    1    2    0    0  0.00000000000E+00  0.00000000000E+00 -0.79597269411E+02  0.14819702859E+03  0.12500653577E+03 0.  0.
    9000005    1    3    3    0    0  0.58086141072E+02 -0.19154209527E+02 -0.24580816378E+02  0.65924957801E+02  0.10000000000E+01 0.  0.
    9000005    1    3    3    0    0 -0.58086141072E+02  0.19154209527E+02 -0.55016453033E+02  0.82272070787E+02  0.10000000000E+01 0.  0.
<mgrwt>
<rscale>  0 0.12500654E+03</rscale>
<asrwt>0</asrwt>
<pdfrwt beam="1">  1        4 0.52769046E-02 0.12500654E+03</pdfrwt>
<pdfrwt beam="2">  1       -4 0.17522638E-01 0.12500654E+03</pdfrwt>
<totfact> 0.99649653E+03</totfact>
</mgrwt>
</event>
<event>
 5    1  0.3267085E-002  0.1250010E+03  0.7818608E-02  0.1235068E+00
         -4   -1    0    0    0  501 -0.00000000000E+00  0.00000000000E+00  0.13736567568E+03  0.13737154638E+03  0.12700000000E+01 0.  1.
          4   -1    0    0  501    0  0.00000000000E+00 -0.00000000000E+00 -0.28416682702E+02  0.28445048001E+02  0.12700000000E+01 0.  1.
         25    2    1    2    0    0  0.00000000000E+00  0.00000000000E+00  0.10894899297E+03  0.16581659438E+03  0.12500103960E+03 0.  0.
    9000005    1    3    3    0    0 -0.21946556212E+02  0.22337935388E+02  0.12621320686E+03  0.13004387057E+03  0.10000000000E+01 0.  0.
    9000005    1    3    3    0    0  0.21946556212E+02 -0.22337935388E+02 -0.17264213891E+02  0.35772723802E+02  0.10000000000E+01 0.  0.
<mgrwt>
<rscale>  0 0.12500104E+03</rscale>
<asrwt>0</asrwt>
<pdfrwt beam="2">  1        4 0.43744308E-02 0.12500104E+03</pdfrwt>
<pdfrwt beam="1">  1       -4 0.21135815E-01 0.12500104E+03</pdfrwt>
<totfact> 0.96230718E+03</totfact>
</mgrwt>
</event>
<event>
 5    1  0.3267085E-002  0.1249766E+03  0.7818608E-02  0.1235106E+00
          4   -1    0    0  501    0  0.00000000000E+00  0.00000000000E+00  0.12112845574E+02  0.12179241680E+02  0.12700000000E+01 0. -1.
         -4   -1    0    0    0  501 -0.00000000000E+00 -0.00000000000E+00 -0.32141888343E+03  0.32142139245E+03  0.12700000000E+01 0. -1.
         25    2    1    2    0    0  0.00000000000E+00  0.00000000000E+00 -0.30930603785E+03  0.33360063413E+03  0.12497662997E+03 0.  0.
    9000005    1    3    3    0    0 -0.48253226588E+02 -0.18103036731E+02 -0.24894014450E+03  0.25422094595E+03  0.10000000000E+01 0.  0.
    9000005    1    3    3    0    0  0.48253226588E+02  0.18103036731E+02 -0.60365893349E+02  0.79379688175E+02  0.10000000000E+01 0.  0.
<mgrwt>
<rscale>  0 0.12497663E+03</rscale>
<asrwt>0</asrwt>
<pdfrwt beam="1">  1        4 0.18688153E-02 0.12497663E+03</pdfrwt>
<pdfrwt beam="2">  1       -4 0.49454353E-01 0.12497663E+03</pdfrwt>
<totfact> 0.71604246E+03</totfact>
</mgrwt>
</event>
<event>
 5    1  0.3267085E-002  0.1249940E+03  0.7818608E-02  0.1235079E+00
         -4   -1    0    0    0  501 -0.00000000000E+00  0.00000000000E+00  0.67703869514E+03  0.67703988629E+03  0.12700000000E+01 0. -1.
          4   -1    0    0  501    0  0.00000000000E+00 -0.00000000000E+00 -0.56979517051E+01  0.58377695770E+01  0.12700000000E+01 0. -1.
         25    2    1    2    0    0  0.00000000000E+00  0.00000000000E+00  0.67134074344E+03  0.68287765586E+03  0.12499399616E+03 0.  0.
    9000005    1    3    3    0    0 -0.12554959214E+02 -0.30138393522E+02  0.44578077133E+02  0.55264407405E+02  0.10000000000E+01 0.  0.
    9000005    1    3    3    0    0  0.12554959214E+02  0.30138393522E+02  0.62676266630E+03  0.62761324846E+03  0.10000000000E+01 0.  0.
<mgrwt>
<rscale>  0 0.12499400E+03</rscale>
<asrwt>0</asrwt>
<pdfrwt beam="2">  1        4 0.88745486E-03 0.12499400E+03</pdfrwt>
<pdfrwt beam="1">  1       -4 0.10417064E+00 0.12499400E+03</pdfrwt>
<totfact> 0.44011890E+03</totfact>
</mgrwt>
</event>
<event>
 5    1  0.3267085E-002  0.1250034E+03  0.7818608E-02  0.1235064E+00
         -4   -1    0    0    0  501 -0.00000000000E+00  0.00000000000E+00  0.40317456734E+01  0.42270407113E+01  0.12700000000E+01 0. -1.
          4   -1    0    0  501    0  0.00000000000E+00 -0.00000000000E+00 -0.94581830908E+03  0.94581916173E+03  0.12700000000E+01 0. -1.
         25    2    1    2    0    0  0.00000000000E+00  0.00000000000E+00 -0.94178656341E+03  0.95004620244E+03  0.12500342297E+03 0.  0.
    9000005    1    3    3    0    0 -0.20046473303E+00 -0.33945046521E+02 -0.86967785971E+03  0.87034067241E+03  0.10000000000E+01 0.  0.
    9000005    1    3    3    0    0  0.20046473303E+00  0.33945046521E+02 -0.72108703694E+02  0.79705530033E+02  0.10000000000E+01 0.  0.
<mgrwt>
<rscale>  0 0.12500342E+03</rscale>
<asrwt>0</asrwt>
<pdfrwt beam="2">  1        4 0.14552542E+00 0.12500342E+03</pdfrwt>
<pdfrwt beam="1">  1       -4 0.63535760E-03 0.12500342E+03</pdfrwt>
<totfact> 0.32311955E+03</totfact>
</mgrwt>
</event>
<event>
 5    1  0.3267085E-002  0.1250005E+03  0.7818608E-02  0.1235068E+00
         -4   -1    0    0    0  501 -0.00000000000E+00  0.00000000000E+00  0.21765463470E+03  0.21765833985E+03  0.12700000000E+01 0.  1.
          4   -1    0    0  501    0  0.00000000000E+00 -0.00000000000E+00 -0.17920828295E+02  0.17965772647E+02  0.12700000000E+01 0.  1.
         25    2    1    2    0    0  0.00000000000E+00  0.00000000000E+00  0.19973380640E+03  0.23562411250E+03  0.12500051588E+03 0.  0.
    9000005    1    3    3    0    0 -0.19402620892E+02  0.51879224928E+02  0.45320548207E+02  0.71574211601E+02  0.10000000000E+01 0.  0.
    9000005    1    3    3    0    0  0.19402620892E+02 -0.51879224928E+02  0.15441325820E+03  0.16404990089E+03  0.10000000000E+01 0.  0.
<mgrwt>
<rscale>  0 0.12500052E+03</rscale>
<asrwt>0</asrwt>
<pdfrwt beam="2">  1        4 0.27607928E-02 0.12500052E+03</pdfrwt>
<pdfrwt beam="1">  1       -4 0.33489070E-01 0.12500052E+03</pdfrwt>
<totfact> 0.84452453E+03</totfact>
</mgrwt>
</event>
<event>
 5    1  0.3267085E-002  0.1250057E+03  0.7818608E-02  0.1235060E+00
         -4   -1    0    0    0  501 -0.00000000000E+00  0.00000000000E+00  0.81946458775E+01  0.82924737599E+01  0.12700000000E+01 0. -1.
          4   -1    0    0  501    0  0.00000000000E+00 -0.00000000000E+00 -0.47379949526E+03  0.47380119735E+03  0.12700000000E+01 0. -1.
         25    2    1    2    0    0  0.00000000000E+00  0.00000000000E+00 -0.46560484938E+03  0.48209367111E+03  0.12500572768E+03 0.  0.
    9000005    1    3    3    0    0  0.12490185124E+02 -0.24459564912E+02 -0.16307029888E+02  0.31956130303E+02  0.10000000000E+01 0.  0.
    9000005    1    3    3    0    0 -0.12490185124E+02  0.24459564912E+02 -0.44929781949E+03  0.45013754081E+03  0.10000000000E+01 0.  0.
<mgrwt>
<rscale>  0 0.12500573E+03</rscale>
<asrwt>0</asrwt>
<pdfrwt beam="2">  1        4 0.72899865E-01 0.12500573E+03</pdfrwt>
<pdfrwt beam="1">  1       -4 0.12683713E-02 0.12500573E+03</pdfrwt>
<totfact> 0.57273736E+03</totfact>
</mgrwt>
</event>
<event>
 5    1  0.3267085E-002  0.1249996E+03  0.7818608E-02  0.1235070E+00
          4   -1    0    0  501    0  0.00000000000E+00  0.00000000000E+00  0.47779997703E+02  0.47796873125E+02  0.12700000000E+01 0.  1.
         -4   -1    0    0    0  501 -0.00000000000E+00 -0.00000000000E+00 -0.81718169403E+02  0.81728037481E+02  0.12700000000E+01 0.  1.
         25    2    1    2    0    0  0.00000000000E+00  0.00000000000E+00 -0.33938171699E+02  0.12952491061E+03  0.12499961188E+03 0.  0.
    9000005    1    3    3    0    0  0.43169438226E+02  0.39201488276E+02  0.63136410501E+01  0.58661905382E+02  0.10000000000E+01 0.  0.
    9000005    1    3    3    0    0 -0.43169438226E+02 -0.39201488276E+02 -0.40251812749E+02  0.70863005224E+02  0.10000000000E+01 0.  0.
<mgrwt>
<rscale>  0 0.12499961E+03</rscale>
<asrwt>0</asrwt>
<pdfrwt beam="1">  1        4 0.73528261E-02 0.12499961E+03</pdfrwt>
<pdfrwt beam="2">  1       -4 0.12574083E-01 0.12499961E+03</pdfrwt>
<totfact> 0.10354772E+04</totfact>
</mgrwt>
</event>
<event>
 5    1  0.3267085E-002  0.1249979E+03  0.7818608E-02  0.1235073E+00
         -4   -1    0    0    0  501 -0.00000000000E+00  0.00000000000E+00  0.53583832486E+02  0.53598880622E+02  0.12700000000E+01 0.  1.
          4   -1    0    0  501    0  0.00000000000E+00 -0.00000000000E+00 -0.72866521293E+02  0.72877587950E+02  0.12700000000E+01 0.  1.
         25    2    1    2    0    0  0.00000000000E+00  0.00000000000E+00 -0.19282688807E+02  0.12647646857E+03  0.12499790004E+03 0.  0.
    9000005    1    3    3    0    0  0.21596130475E+02  0.49346301386E+02 -0.41696814363E+02  0.68125433136E+02  0.10000000000E+01 0.  0.
    9000005    1    3    3    0    0 -0.21596130475E+02 -0.49346301386E+02  0.22414125556E+02  0.58351035435E+02  0.10000000000E+01 0.  0.
<mgrwt>
<rscale>  0 0.12499790E+03</rscale>
<asrwt>0</asrwt>
<pdfrwt beam="2">  1        4 0.11212243E-01 0.12499790E+03</pdfrwt>
<pdfrwt beam="1">  1       -4 0.82456754E-02 0.12499790E+03</pdfrwt>
<totfact> 0.10421035E+04</totfact>
</mgrwt>
</event>
<event>
 5    1  0.3267085E-002  0.1250030E+03  0.7818608E-02  0.1235065E+00
         -4   -1    0    0    0  501 -0.00000000000E+00  0.00000000000E+00  0.11291893209E+03  0.11292607372E+03  0.12700000000E+01 0.  1.
          4   -1    0    0  501    0  0.00000000000E+00 -0.00000000000E+00 -0.34575143581E+02  0.34598460278E+02  0.12700000000E+01 0.  1.
         25    2    1    2    0    0  0.00000000000E+00  0.00000000000E+00  0.78343788511E+02  0.14752453399E+03  0.12500295569E+03 0.  0.
    9000005    1    3    3    0    0 -0.39983094899E+02 -0.10895274058E+02 -0.16032742126E+02  0.44445513774E+02  0.10000000000E+01 0.  0.
    9000005    1    3    3    0    0  0.39983094899E+02  0.10895274058E+02  0.94376530637E+02  0.10307902022E+03  0.10000000000E+01 0.  0.
<mgrwt>
<rscale>  0 0.12500296E+03</rscale>
<asrwt>0</asrwt>
<pdfrwt beam="2">  1        4 0.53215958E-02 0.12500296E+03</pdfrwt>
<pdfrwt beam="1">  1       -4 0.17374487E-01 0.12500296E+03</pdfrwt>
<totfact> 0.99792813E+03</totfact>
</mgrwt>
</event>
<event>
 5    1  0.3267085E-002  0.1249962E+03  0.7818608E-02  0.1235075E+00
          4   -1    0    0  501    0  0.00000000000E+00  0.00000000000E+00  0.25924041734E+02  0.25955131282E+02  0.12700000000E+01 0. -1.
         -4   -1    0    0    0  501 -0.00000000000E+00 -0.00000000000E+00 -0.15054749067E+03  0.15055284735E+03  0.12700000000E+01 0. -1.
         25    2    1    2    0    0  0.00000000000E+00  0.00000000000E+00 -0.12462344893E+03  0.17650797864E+03  0.12499624994E+03 0.  0.
    9000005    1    3    3    0    0  0.39839113604E+02  0.45822952735E+02 -0.83166848016E+02  0.10297874819E+03  0.10000000000E+01 0.  0.
    9000005    1    3    3    0    0 -0.39839113604E+02 -0.45822952735E+02 -0.41456600918E+02  0.73529230444E+02  0.10000000000E+01 0.  0.
<mgrwt>
<rscale>  0 0.12499625E+03</rscale>
<asrwt>0</asrwt>
<pdfrwt beam="1">  1        4 0.39911178E-02 0.12499625E+03</pdfrwt>
<pdfrwt beam="2">  1       -4 0.23163955E-01 0.12499625E+03</pdfrwt>
<totfact> 0.94257310E+03</totfact>
</mgrwt>
</event>
<event>
 5    1  0.3267085E-002  0.1250029E+03  0.7818608E-02  0.1235065E+00
         -4   -1    0    0    0  501 -0.00000000000E+00  0.00000000000E+00  0.41038494505E+03  0.41038691015E+03  0.12700000000E+01 0. -1.
          4   -1    0    0  501    0  0.00000000000E+00 -0.00000000000E+00 -0.94745810581E+01  0.95593193391E+01  0.12700000000E+01 0. -1.
         25    2    1    2    0    0  0.00000000000E+00  0.00000000000E+00  0.40091036399E+03  0.41994622949E+03  0.12500286280E+03 0.  0.
    9000005    1    3    3    0    0 -0.58777715607E+02  0.16029358560E+02  0.15370282726E+03  0.16534001118E+03  0.10000000000E+01 0.  0.
    9000005    1    3    3    0    0  0.58777715607E+02 -0.16029358560E+02  0.24720753673E+03  0.25460621831E+03  0.10000000000E+01 0.  0.
<mgrwt>
<rscale>  0 0.12500286E+03</rscale>
<asrwt>0</asrwt>
<pdfrwt beam="2">  1        4 0.14642977E-02 0.12500286E+03</pdfrwt>
<pdfrwt beam="1">  1       -4 0.63142801E-01 0.12500286E+03</pdfrwt>
<totfact> 0.62654048E+03</totfact>
</mgrwt>
</event>
<event>
 5    1  0.3267085E-002  0.1249969E+03  0.7818608E-02  0.1235074E+00
          4   -1    0    0  501    0  0.00000000000E+00  0.00000000000E+00  0.25550445552E+02  0.25581989131E+02  0.12700000000E+01 0. -1.
         -4   -1    0    0    0  501 -0.00000000000E+00 -0.00000000000E+00 -0.15274779020E+03  0.15275306973E+03  0.12700000000E+01 0. -1.
         25    2    1    2    0    0  0.00000000000E+00  0.00000000000E+00 -0.12719734465E+03  0.17833505886E+03  0.12499691489E+03 0.  0.
    9000005    1    3    3    0    0 -0.28356898279E+01 -0.56793566306E+02 -0.10056979735E+03  0.11553715614E+03  0.10000000000E+01 0.  0.
    9000005    1    3    3    0    0  0.28356898279E+01  0.56793566306E+02 -0.26627547302E+02  0.62797902719E+02  0.10000000000E+01 0.  0.
<mgrwt>
<rscale>  0 0.12499691E+03</rscale>
<asrwt>0</asrwt>
<pdfrwt beam="1">  1        4 0.39336704E-02 0.12499691E+03</pdfrwt>
<pdfrwt beam="2">  1       -4 0.23502492E-01 0.12499691E+03</pdfrwt>
<totfact> 0.93924058E+03</totfact>
</mgrwt>
</event>
<event>
 5    1  0.3267085E-002  0.1249492E+03  0.7818608E-02  0.1235149E+00
         -4   -1    0    0    0  501 -0.00000000000E+00  0.00000000000E+00  0.21145179172E+03  0.21145560556E+03  0.12700000000E+01 0.  1.
          4   -1    0    0  501    0  0.00000000000E+00 -0.00000000000E+00 -0.18432639859E+02  0.18476339252E+02  0.12700000000E+01 0.  1.
         25    2    1    2    0    0  0.00000000000E+00  0.00000000000E+00  0.19301915186E+03  0.22993194481E+03  0.12494921472E+03 0.  0.
    9000005    1    3    3    0    0 -0.22950885778E+02  0.57950862506E+02  0.10410382979E+03  0.12134106065E+03  0.10000000000E+01 0.  0.
    9000005    1    3    3    0    0  0.22950885778E+02 -0.57950862506E+02  0.88915322068E+02  0.10859088415E+03  0.10000000000E+01 0.  0.
<mgrwt>
<rscale>  0 0.12494921E+03</rscale>
<asrwt>0</asrwt>
<pdfrwt beam="2">  1        4 0.28394456E-02 0.12494921E+03</pdfrwt>
<pdfrwt beam="1">  1       -4 0.32534700E-01 0.12494921E+03</pdfrwt>
<totfact> 0.85416796E+03</totfact>
</mgrwt>
</event>
<event>
 5    1  0.3267085E-002  0.1249999E+03  0.7818608E-02  0.1235069E+00
          4   -1    0    0  501    0  0.00000000000E+00  0.00000000000E+00  0.43486934100E+02  0.43505474798E+02  0.12700000000E+01 0.  1.
         -4   -1    0    0    0  501 -0.00000000000E+00 -0.00000000000E+00 -0.89783533103E+02  0.89792514813E+02  0.12700000000E+01 0.  1.
         25    2    1    2    0    0  0.00000000000E+00  0.00000000000E+00 -0.46296599003E+02  0.13329798961E+03  0.12499991582E+03 0.  0.
    9000005    1    3    3    0    0  0.33030644119E+02  0.48766215561E+02 -0.87955551540E+00  0.58914691283E+02  0.10000000000E+01 0.  0.
    9000005    1    3    3    0    0 -0.33030644119E+02 -0.48766215561E+02 -0.45417043488E+02  0.74383298329E+02  0.10000000000E+01 0.  0.
<mgrwt>
<rscale>  0 0.12499992E+03</rscale>
<asrwt>0</asrwt>
<pdfrwt beam="1">  1        4 0.66924147E-02 0.12499992E+03</pdfrwt>
<pdfrwt beam="2">  1       -4 0.13814968E-01 0.12499992E+03</pdfrwt>
<totfact> 0.10274090E+04</totfact>
</mgrwt>
</event>
<event>
 5    1  0.3267085E-002  0.1249983E+03  0.7818608E-02  0.1235072E+00
          4   -1    0    0  501    0  0.00000000000E+00  0.00000000000E+00  0.17583940394E+03  0.17584399017E+03  0.12700000000E+01 0. -1.
         -4   -1    0    0    0  501 -0.00000000000E+00 -0.00000000000E+00 -0.22191238439E+02  0.22227549651E+02  0.12700000000E+01 0. -1.
         25    2    1    2    0    0  0.00000000000E+00  0.00000000000E+00  0.15364816550E+03  0.19807153982E+03  0.12499830448E+03 0.  0.
    9000005    1    3    3    0    0  0.86300846875E+01  0.21999471497E+01 -0.21188211963E+02  0.23005617909E+02  0.10000000000E+01 0.  0.
    9000005    1    3    3    0    0 -0.86300846875E+01 -0.21999471497E+01  0.17483637746E+03  0.17506592191E+03  0.10000000000E+01 0.  0.
<mgrwt>
<rscale>  0 0.12499830E+03</rscale>
<asrwt>0</asrwt>
<pdfrwt beam="1">  1        4 0.27055362E-01 0.12499830E+03</pdfrwt>
<pdfrwt beam="2">  1       -4 0.34171826E-02 0.12499830E+03</pdfrwt>
<totfact> 0.90464983E+03</totfact>
</mgrwt>
</event>
<event>
 5    1  0.3267085E-002  0.1250006E+03  0.7818608E-02  0.1235068E+00
          4   -1    0    0  501    0  0.00000000000E+00  0.00000000000E+00  0.13293216946E+03  0.13293823595E+03  0.12700000000E+01 0. -1.
         -4   -1    0    0    0  501 -0.00000000000E+00 -0.00000000000E+00 -0.29365117489E+02  0.29392567515E+02  0.12700000000E+01 0. -1.
         25    2    1    2    0    0  0.00000000000E+00  0.00000000000E+00  0.10356705197E+03  0.16233080346E+03  0.12500062200E+03 0.  0.
    9000005    1    3    3    0    0  0.59416171947E+02  0.80397931356E+01  0.74662050435E+02  0.95761900241E+02  0.10000000000E+01 0.  0.
    9000005    1    3    3    0    0 -0.59416171947E+02 -0.80397931356E+01  0.28905001535E+02  0.66568903223E+02  0.10000000000E+01 0.  0.
<mgrwt>
<rscale>  0 0.12500062E+03</rscale>
<asrwt>0</asrwt>
<pdfrwt beam="1">  1        4 0.20453682E-01 0.12500062E+03</pdfrwt>
<pdfrwt beam="2">  1       -4 0.45202885E-02 0.12500062E+03</pdfrwt>
<totfact> 0.96893943E+03</totfact>
</mgrwt>
</event>
<event>
 5    1  0.3267085E-002  0.1249989E+03  0.7818608E-02  0.1235071E+00
          4   -1    0    0  501    0  0.00000000000E+00  0.00000000000E+00  0.42188289235E+02  0.42207400400E+02  0.12700000000E+01 0.  1.
         -4   -1    0    0    0  501 -0.00000000000E+00 -0.00000000000E+00 -0.92544778460E+02  0.92553492209E+02  0.12700000000E+01 0.  1.
         25    2    1    2    0    0  0.00000000000E+00  0.00000000000E+00 -0.50356489225E+02  0.13476089261E+03  0.12499888868E+03 0.  0.
    9000005    1    3    3    0    0 -0.54261564850E+02  0.20501530351E+02 -0.11277683832E+00  0.58014161076E+02  0.10000000000E+01 0.  0.
    9000005    1    3    3    0    0  0.54261564850E+02 -0.20501530351E+02 -0.50243712387E+02  0.76746731534E+02  0.10000000000E+01 0.  0.
<mgrwt>
<rscale>  0 0.12499889E+03</rscale>
<asrwt>0</asrwt>
<pdfrwt beam="1">  1        4 0.64926464E-02 0.12499889E+03</pdfrwt>
<pdfrwt beam="2">  1       -4 0.14239799E-01 0.12499889E+03</pdfrwt>
<totfact> 0.10243370E+04</totfact>
</mgrwt>
</event>
<event>
 5    1  0.3267085E-002  0.1250168E+03  0.7818608E-02  0.1235043E+00
          4   -1    0    0  501    0  0.00000000000E+00  0.00000000000E+00  0.10204886220E+03  0.10205676448E+03  0.12700000000E+01 0. -1.
         -4   -1    0    0    0  501 -0.00000000000E+00 -0.00000000000E+00 -0.38268581459E+02  0.38289649083E+02  0.12700000000E+01 0. -1.
         25    2    1    2    0    0  0.00000000000E+00  0.00000000000E+00  0.63780280739E+02  0.14034641356E+03  0.12501676523E+03 0.  0.
    9000005    1    3    3    0    0 -0.43704734523E+02  0.40368370255E+02  0.53384407117E+02  0.79941253805E+02  0.10000000000E+01 0.  0.
    9000005    1    3    3    0    0  0.43704734523E+02 -0.40368370255E+02  0.10395873622E+02  0.60405159756E+02  0.10000000000E+01 0.  0.
<mgrwt>
<rscale>  0 0.12501677E+03</rscale>
<asrwt>0</asrwt>
<pdfrwt beam="1">  1        4 0.15702053E-01 0.12501677E+03</pdfrwt>
<pdfrwt beam="2">  1       -4 0.58897027E-02 0.12501677E+03</pdfrwt>
<totfact> 0.10122587E+04</totfact>
</mgrwt>
</event>
<event>
 5    1  0.3267085E-002  0.1249994E+03  0.7818608E-02  0.1235070E+00
          4   -1    0    0  501    0  0.00000000000E+00  0.00000000000E+00  0.41859204204E+03  0.41859396861E+03  0.12700000000E+01 0.  1.
         -4   -1    0    0    0  501 -0.00000000000E+00 -0.00000000000E+00 -0.92866200031E+01  0.93730577232E+01  0.12700000000E+01 0.  1.
         25    2    1    2    0    0  0.00000000000E+00  0.00000000000E+00  0.40930542203E+03  0.42796702633E+03  0.12499938849E+03 0.  0.
    9000005    1    3    3    0    0  0.49791032881E+02 -0.82491198747E+01  0.78483031626E+02  0.93315492750E+02  0.10000000000E+01 0.  0.
    9000005    1    3    3    0    0 -0.49791032881E+02  0.82491198747E+01  0.33082239041E+03  0.33465153358E+03  0.10000000000E+01 0.  0.
<mgrwt>
<rscale>  0 0.12499939E+03</rscale>
<asrwt>0</asrwt>
<pdfrwt beam="1">  1        4 0.64405572E-01 0.12499939E+03</pdfrwt>
<pdfrwt beam="2">  1       -4 0.14355080E-02 0.12499939E+03</pdfrwt>
<totfact> 0.61921535E+03</totfact>
</mgrwt>
</event>
<event>
 5    1  0.3267085E-002  0.1250035E+03  0.7818608E-02  0.1235064E+00
          4   -1    0    0  501    0  0.00000000000E+00  0.00000000000E+00  0.67269215289E+01  0.68457558572E+01  0.12700000000E+01 0. -1.
         -4   -1    0    0    0  501 -0.00000000000E+00 -0.00000000000E+00 -0.57551767553E+03  0.57551907679E+03  0.12700000000E+01 0. -1.
         25    2    1    2    0    0  0.00000000000E+00  0.00000000000E+00 -0.56879075400E+03  0.58236483265E+03  0.12500350581E+03 0.  0.
    9000005    1    3    3    0    0 -0.71131489187E+00 -0.22721165565E+02 -0.13195015322E+02  0.26303341287E+02  0.10000000000E+01 0.  0.
    9000005    1    3    3    0    0  0.71131489187E+00  0.22721165565E+02 -0.55559573868E+03  0.55606149136E+03  0.10000000000E+01 0.  0.
<mgrwt>
<rscale>  0 0.12500351E+03</rscale>
<asrwt>0</asrwt>
<pdfrwt beam="1">  1        4 0.10441604E-02 0.12500351E+03</pdfrwt>
<pdfrwt beam="2">  1       -4 0.88550391E-01 0.12500351E+03</pdfrwt>
<totfact> 0.49996227E+03</totfact>
</mgrwt>
</event>
<event>
 5    1  0.3267085E-002  0.1249999E+03  0.7818608E-02  0.1235069E+00
         -4   -1    0    0    0  501 -0.00000000000E+00  0.00000000000E+00  0.36715825917E+02  0.36737783994E+02  0.12700000000E+01 0. -1.
          4   -1    0    0  501    0  0.00000000000E+00 -0.00000000000E+00 -0.10633373452E+03  0.10634131839E+03  0.12700000000E+01 0. -1.
         25    2    1    2    0    0  0.00000000000E+00  0.00000000000E+00 -0.69617908601E+02  0.14307910238E+03  0.12499990536E+03 0.  0.
    9000005    1    3    3    0    0 -0.85876731544E+01 -0.30785526721E+02 -0.96276393897E+02  0.10144772451E+03  0.10000000000E+01 0.  0.
    9000005    1    3    3    0    0  0.85876731544E+01  0.30785526721E+02  0.26658485295E+02  0.41631377877E+02  0.10000000000E+01 0.  0.
<mgrwt>
<rscale>  0 0.12499991E+03</rscale>
<asrwt>0</asrwt>
<pdfrwt beam="2">  1        4 0.16361308E-01 0.12499991E+03</pdfrwt>
<pdfrwt beam="1">  1       -4 0.56508611E-02 0.12499991E+03</pdfrwt>
<totfact> 0.10070185E+04</totfact>
</mgrwt>
</event>
<event>
 5    1  0.3267085E-002  0.1249978E+03  0.7818608E-02  0.1235073E+00
          4   -1    0    0  501    0  0.00000000000E+00  0.00000000000E+00  0.32796226699E+02  0.32820807206E+02  0.12700000000E+01 0. -1.
         -4   -1    0    0    0  501 -0.00000000000E+00 -0.00000000000E+00 -0.11902992943E+03  0.11903670442E+03  0.12700000000E+01 0. -1.
         25    2    1    2    0    0  0.00000000000E+00  0.00000000000E+00 -0.86233702728E+02  0.15185751163E+03  0.12499780939E+03 0.  0.
    9000005    1    3    3    0    0 -0.55273176982E+02 -0.12719079227E+01 -0.78502474427E+02  0.96022811533E+02  0.10000000000E+01 0.  0.
    9000005    1    3    3    0    0  0.55273176982E+02  0.12719079227E+01 -0.77312283006E+01  0.55834700094E+02  0.10000000000E+01 0.  0.
<mgrwt>
<rscale>  0 0.12499781E+03</rscale>
<asrwt>0</asrwt>
<pdfrwt beam="1">  1        4 0.50479853E-02 0.12499781E+03</pdfrwt>
<pdfrwt beam="2">  1       -4 0.18314709E-01 0.12499781E+03</pdfrwt>
<totfact> 0.98939589E+03</totfact>
</mgrwt>
</event>
<event>
 5    1  0.3267085E-002  0.1250002E+03  0.7818608E-02  0.1235069E+00
          4   -1    0    0  501    0  0.00000000000E+00  0.00000000000E+00  0.41207351352E+02  0.41226917244E+02  0.12700000000E+01 0. -1.
         -4   -1    0    0    0  501 -0.00000000000E+00 -0.00000000000E+00 -0.94748956554E+02  0.94757467611E+02  0.12700000000E+01 0. -1.
         25    2    1    2    0    0  0.00000000000E+00  0.00000000000E+00 -0.53541605202E+02  0.13598438485E+03  0.12500019775E+03 0.  0.
    9000005    1    3    3    0    0 -0.24926372333E+02  0.54332314248E+02 -0.69506590942E+01  0.60188338332E+02  0.10000000000E+01 0.  0.
    9000005    1    3    3    0    0  0.24926372333E+02 -0.54332314248E+02 -0.46590946108E+02  0.75796046523E+02  0.10000000000E+01 0.  0.
<mgrwt>
<rscale>  0 0.12500020E+03</rscale>
<asrwt>0</asrwt>
<pdfrwt beam="1">  1        4 0.63417523E-02 0.12500020E+03</pdfrwt>
<pdfrwt beam="2">  1       -4 0.14578922E-01 0.12500020E+03</pdfrwt>
<totfact> 0.10217318E+04</totfact>
</mgrwt>
</event>
<event>
 5    1  0.3267085E-002  0.1249969E+03  0.7818608E-02  0.1235074E+00
         -4   -1    0    0    0  501 -0.00000000000E+00  0.00000000000E+00  0.72784166250E+02  0.72795245427E+02  0.12700000000E+01 0.  1.
          4   -1    0    0  501    0  0.00000000000E+00 -0.00000000000E+00 -0.53643612315E+02  0.53658643686E+02  0.12700000000E+01 0.  1.
         25    2    1    2    0    0  0.00000000000E+00  0.00000000000E+00  0.19140553935E+02  0.12645388911E+03  0.12499690103E+03 0.  0.
    9000005    1    3    3    0    0  0.35536918807E+02  0.22924872382E+02  0.56113432376E+02  0.70271898117E+02  0.10000000000E+01 0.  0.
    9000005    1    3    3    0    0 -0.35536918807E+02 -0.22924872382E+02 -0.36972878441E+02  0.56181990996E+02  0.10000000000E+01 0.  0.
<mgrwt>
<rscale>  0 0.12499690E+03</rscale>
<asrwt>0</asrwt>
<pdfrwt beam="2">  1        4 0.82548719E-02 0.12499690E+03</pdfrwt>
<pdfrwt beam="1">  1       -4 0.11199573E-01 0.12499690E+03</pdfrwt>
<totfact> 0.10421763E+04</totfact>
</mgrwt>
</event>
<event>
 5    1  0.3267085E-002  0.1249986E+03  0.7818608E-02  0.1235071E+00
          4   -1    0    0  501    0  0.00000000000E+00  0.00000000000E+00  0.36490154554E+03  0.36490375558E+03  0.12700000000E+01 0. -1.
         -4   -1    0    0    0  501 -0.00000000000E+00 -0.00000000000E+00 -0.10664791790E+02  0.10740143571E+02  0.12700000000E+01 0. -1.
         25    2    1    2    0    0  0.00000000000E+00  0.00000000000E+00  0.35423675374E+03  0.37564389915E+03  0.12499864505E+03 0.  0.
    9000005    1    3    3    0    0 -0.42840130404E+02 -0.74695524957E+01  0.42249749438E+02  0.60639197843E+02  0.10000000000E+01 0.  0.
    9000005    1    3    3    0    0  0.42840130404E+02  0.74695524957E+01  0.31198700431E+03  0.31500470130E+03  0.10000000000E+01 0.  0.
<mgrwt>
<rscale>  0 0.12499865E+03</rscale>
<asrwt>0</asrwt>
<pdfrwt beam="1">  1        4 0.56144657E-01 0.12499865E+03</pdfrwt>
<pdfrwt beam="2">  1       -4 0.16467038E-02 0.12499865E+03</pdfrwt>
<totfact> 0.66994594E+03</totfact>
</mgrwt>
</event>
<event>
 5    1  0.3267085E-002  0.1249899E+03  0.7818608E-02  0.1235085E+00
          4   -1    0    0  501    0  0.00000000000E+00  0.00000000000E+00  0.10797844300E+03  0.10798591136E+03  0.12700000000E+01 0.  1.
         -4   -1    0    0    0  501 -0.00000000000E+00 -0.00000000000E+00 -0.36150512268E+02  0.36172813510E+02  0.12700000000E+01 0.  1.
         25    2    1    2    0    0  0.00000000000E+00  0.00000000000E+00  0.71827930732E+02  0.14415872487E+03  0.12498994489E+03 0.  0.
    9000005    1    3    3    0    0  0.32677842154E+01  0.48115472788E+02  0.81742453199E+02  0.94913675465E+02  0.10000000000E+01 0.  0.
    9000005    1    3    3    0    0 -0.32677842154E+01 -0.48115472788E+02 -0.99145224673E+01  0.49245049407E+02  0.10000000000E+01 0.  0.
<mgrwt>
<rscale>  0 0.12498994E+03</rscale>
<asrwt>0</asrwt>
<pdfrwt beam="1">  1        4 0.16614358E-01 0.12498994E+03</pdfrwt>
<pdfrwt beam="2">  1       -4 0.55639073E-02 0.12498994E+03</pdfrwt>
<totfact> 0.10050385E+04</totfact>
</mgrwt>
</event>
<event>
 5    1  0.3267085E-002  0.1250000E+03  0.7818608E-02  0.1235069E+00
         -4   -1    0    0    0  501 -0.00000000000E+00  0.00000000000E+00  0.22949717835E+03  0.22950069231E+03  0.12700000000E+01 0. -1.
          4   -1    0    0  501    0  0.00000000000E+00 -0.00000000000E+00 -0.16993561867E+02  0.17040951996E+02  0.12700000000E+01 0. -1.
         25    2    1    2    0    0  0.00000000000E+00  0.00000000000E+00  0.21250361648E+03  0.24654164431E+03  0.12499998144E+03 0.  0.
    9000005    1    3    3    0    0  0.33249299490E+02  0.30158036930E+02  0.20501206734E+02  0.49359118566E+02  0.10000000000E+01 0.  0.
    9000005    1    3    3    0    0 -0.33249299490E+02 -0.30158036930E+02  0.19200240975E+03  0.19718252574E+03  0.10000000000E+01 0.  0.
<mgrwt>
<rscale>  0 0.12499998E+03</rscale>
<asrwt>0</asrwt>
<pdfrwt beam="2">  1        4 0.26183097E-02 0.12499998E+03</pdfrwt>
<pdfrwt beam="1">  1       -4 0.35311175E-01 0.12499998E+03</pdfrwt>
<totfact> 0.82832683E+03</totfact>
</mgrwt>
</event>
<event>
 5    1  0.3267085E-002  0.1249994E+03  0.7818608E-02  0.1235070E+00
         -4   -1    0    0    0  501 -0.00000000000E+00  0.00000000000E+00  0.65608206700E+03  0.65608329619E+03  0.12700000000E+01 0.  1.
          4   -1    0    0  501    0  0.00000000000E+00 -0.00000000000E+00 -0.58848688717E+01  0.60203473020E+01  0.12700000000E+01 0.  1.
         25    2    1    2    0    0  0.00000000000E+00  0.00000000000E+00  0.65019719813E+03  0.66210364349E+03  0.12499935308E+03 0.  0.
    9000005    1    3    3    0    0  0.19850516444E+02 -0.19049515835E+02  0.27894318065E+02  0.39192091511E+02  0.10000000000E+01 0.  0.
    9000005    1    3    3    0    0 -0.19850516444E+02  0.19049515835E+02  0.62230288007E+03  0.62291155198E+03  0.10000000000E+01 0.  0.
<mgrwt>
<rscale>  0 0.12499935E+03</rscale>
<asrwt>0</asrwt>
<pdfrwt beam="2">  1        4 0.91588061E-03 0.12499935E+03</pdfrwt>
<pdfrwt beam="1">  1       -4 0.10094620E+00 0.12499935E+03</pdfrwt>
<totfact> 0.45164635E+03</totfact>
</mgrwt>
</event>
<event>
 5    1  0.3267085E-002  0.1250209E+03  0.7818608E-02  0.1235037E+00
         -4   -1    0    0    0  501 -0.00000000000E+00  0.00000000000E+00  0.19900390497E+02  0.19940873650E+02  0.12700000000E+01 0.  1.
          4   -1    0    0  501    0  0.00000000000E+00 -0.00000000000E+00 -0.19611368596E+03  0.19611779807E+03  0.12700000000E+01 0.  1.
         25    2    1    2    0    0  0.00000000000E+00  0.00000000000E+00 -0.17621329547E+03  0.21605867172E+03  0.12502089477E+03 0.  0.
    9000005    1    3    3    0    0 -0.97577454571E+01  0.39665052411E+02 -0.16986303044E+03  0.17470826852E+03  0.10000000000E+01 0.  0.
    9000005    1    3    3    0    0  0.97577454571E+01 -0.39665052411E+02 -0.63502650238E+01  0.41350403203E+02  0.10000000000E+01 0.  0.
<mgrwt>
<rscale>  0 0.12502089E+03</rscale>
<asrwt>0</asrwt>
<pdfrwt beam="2">  1        4 0.30174765E-01 0.12502089E+03</pdfrwt>
<pdfrwt beam="1">  1       -4 0.30650291E-02 0.12502089E+03</pdfrwt>
<totfact> 0.87455044E+03</totfact>
</mgrwt>
</event>
<event>
 5    1  0.3267085E-002  0.1250004E+03  0.7818608E-02  0.1235069E+00
         -4   -1    0    0    0  501 -0.00000000000E+00  0.00000000000E+00  0.24661502186E+01  0.27739496932E+01  0.12700000000E+01 0. -1.
          4   -1    0    0  501    0  0.00000000000E+00 -0.00000000000E+00 -0.14906080841E+04  0.14906086251E+04  0.12700000000E+01 0. -1.
         25    2    1    2    0    0  0.00000000000E+00  0.00000000000E+00 -0.14881419339E+04  0.14933825748E+04  0.12500039753E+03 0.  0.
    9000005    1    3    3    0    0 -0.41685343358E+02  0.43650471550E+02 -0.55060173425E+03  0.55390098509E+03  0.10000000000E+01 0.  0.
    9000005    1    3    3    0    0  0.41685343358E+02 -0.43650471550E+02 -0.93754019962E+03  0.93948158972E+03  0.10000000000E+01 0.  0.
<mgrwt>
<rscale>  0 0.12500040E+03</rscale>
<asrwt>0</asrwt>
<pdfrwt beam="2">  1        4 0.22934736E+00 0.12500040E+03</pdfrwt>
<pdfrwt beam="1">  1       -4 0.40312742E-03 0.12500040E+03</pdfrwt>
<totfact> 0.18060853E+03</totfact>
</mgrwt>
</event>
<event>
 5    1  0.3267085E-002  0.1250013E+03  0.7818608E-02  0.1235067E+00
          4   -1    0    0  501    0  0.00000000000E+00  0.00000000000E+00  0.35947789557E+01  0.38125235396E+01  0.12700000000E+01 0.  1.
         -4   -1    0    0    0  501 -0.00000000000E+00 -0.00000000000E+00 -0.10545061525E+04  0.10545069173E+04  0.12700000000E+01 0.  1.
         25    2    1    2    0    0  0.00000000000E+00  0.00000000000E+00 -0.10509113736E+04  0.10583194409E+04  0.12500129496E+03 0.  0.
    9000005    1    3    3    0    0 -0.21365268912E+02  0.11528818336E+02 -0.10129906450E+04  0.10132820117E+04  0.10000000000E+01 0.  0.
    9000005    1    3    3    0    0  0.21365268912E+02 -0.11528818336E+02 -0.37920728575E+02  0.45037429140E+02  0.10000000000E+01 0.  0.
<mgrwt>
<rscale>  0 0.12500129E+03</rscale>
<asrwt>0</asrwt>
<pdfrwt beam="1">  1        4 0.56985217E-03 0.12500129E+03</pdfrwt>
<pdfrwt beam="2">  1       -4 0.16224828E+00 0.12500129E+03</pdfrwt>
<totfact> 0.28735655E+03</totfact>
</mgrwt>
</event>
<event>
 5    1  0.3267085E-002  0.1249963E+03  0.7818608E-02  0.1235075E+00
         -4   -1    0    0    0  501 -0.00000000000E+00  0.00000000000E+00  0.10011741050E+03  0.10012546522E+03  0.12700000000E+01 0. -1.
          4   -1    0    0  501    0  0.00000000000E+00 -0.00000000000E+00 -0.38994402042E+02  0.39015077734E+02  0.12700000000E+01 0. -1.
         25    2    1    2    0    0  0.00000000000E+00  0.00000000000E+00  0.61123008461E+02  0.13914054295E+03  0.12499627407E+03 0.  0.
    9000005    1    3    3    0    0 -0.34926806897E+02  0.26361301935E+02  0.80221519378E+02  0.91385405022E+02  0.10000000000E+01 0.  0.
    9000005    1    3    3    0    0  0.34926806897E+02 -0.26361301935E+02 -0.19098510917E+02  0.47755137933E+02  0.10000000000E+01 0.  0.
<mgrwt>
<rscale>  0 0.12499627E+03</rscale>
<asrwt>0</asrwt>
<pdfrwt beam="2">  1        4 0.60013489E-02 0.12499627E+03</pdfrwt>
<pdfrwt beam="1">  1       -4 0.15404888E-01 0.12499627E+03</pdfrwt>
<totfact> 0.10152282E+04</totfact>
</mgrwt>
</event>
<event>
 5    1  0.3267085E-002  0.1250014E+03  0.7818608E-02  0.1235067E+00
          4   -1    0    0  501    0  0.00000000000E+00  0.00000000000E+00  0.30708741065E+02  0.30734991098E+02  0.12700000000E+01 0. -1.
         -4   -1    0    0    0  501 -0.00000000000E+00 -0.00000000000E+00 -0.12712232195E+03  0.12712866568E+03  0.12700000000E+01 0. -1.
         25    2    1    2    0    0  0.00000000000E+00  0.00000000000E+00 -0.96413580885E+02  0.15786365678E+03  0.12500142220E+03 0.  0.
    9000005    1    3    3    0    0 -0.16059835111E+02 -0.32483032037E+02 -0.11250628967E+03  0.11820207650E+03  0.10000000000E+01 0.  0.
    9000005    1    3    3    0    0  0.16059835111E+02  0.32483032037E+02  0.16092708785E+02  0.39661580278E+02  0.10000000000E+01 0.  0.
<mgrwt>
<rscale>  0 0.12500142E+03</rscale>
<asrwt>0</asrwt>
<pdfrwt beam="1">  1        4 0.47269290E-02 0.12500142E+03</pdfrwt>
<pdfrwt beam="2">  1       -4 0.19559787E-01 0.12500142E+03</pdfrwt>
<totfact> 0.97753117E+03</totfact>
</mgrwt>
</event>
<event>
 5    1  0.3267085E-002  0.1250040E+03  0.7818608E-02  0.1235063E+00
         -4   -1    0    0    0  501 -0.00000000000E+00  0.00000000000E+00  0.16049588415E+03  0.16050090881E+03  0.12700000000E+01 0. -1.
          4   -1    0    0  501    0  0.00000000000E+00 -0.00000000000E+00 -0.24318215755E+02  0.24351355558E+02  0.12700000000E+01 0. -1.
         25    2    1    2    0    0  0.00000000000E+00  0.00000000000E+00  0.13617766839E+03  0.18485226437E+03  0.12500400903E+03 0.  0.
    9000005    1    3    3    0    0 -0.17783520914E+02  0.58940490334E+02  0.83965181800E+02  0.10412198025E+03  0.10000000000E+01 0.  0.
    9000005    1    3    3    0    0  0.17783520914E+02 -0.58940490334E+02  0.52212486592E+02  0.80730284113E+02  0.10000000000E+01 0.  0.
<mgrwt>
<rscale>  0 0.12500401E+03</rscale>
<asrwt>0</asrwt>
<pdfrwt beam="2">  1        4 0.37441997E-02 0.12500401E+03</pdfrwt>
<pdfrwt beam="1">  1       -4 0.24694610E-01 0.12500401E+03</pdfrwt>
<totfact> 0.92742467E+03</totfact>
</mgrwt>
</event>
<event>
 5    1  0.3267085E-002  0.1250012E+03  0.7818608E-02  0.1235067E+00
         -4   -1    0    0    0  501 -0.00000000000E+00  0.00000000000E+00  0.50030568763E+02  0.50046685312E+02  0.12700000000E+01 0.  1.
          4   -1    0    0  501    0  0.00000000000E+00 -0.00000000000E+00 -0.78044941922E+02  0.78055274387E+02  0.12700000000E+01 0.  1.
         25    2    1    2    0    0  0.00000000000E+00  0.00000000000E+00 -0.28014373159E+02  0.12810195970E+03  0.12500122790E+03 0.  0.
    9000005    1    3    3    0    0  0.88595788475E+01 -0.60534439771E+02 -0.94679561410E+00  0.61194827867E+02  0.10000000000E+01 0.  0.
    9000005    1    3    3    0    0 -0.88595788475E+01  0.60534439771E+02 -0.27067577545E+02  0.66907131832E+02  0.10000000000E+01 0.  0.
<mgrwt>
<rscale>  0 0.12500123E+03</rscale>
<asrwt>0</asrwt>
<pdfrwt beam="2">  1        4 0.12008949E-01 0.12500123E+03</pdfrwt>
<pdfrwt beam="1">  1       -4 0.76990451E-02 0.12500123E+03</pdfrwt>
<totfact> 0.10384998E+04</totfact>
</mgrwt>
</event>
<event>
 5    1  0.3267085E-002  0.1250007E+03  0.7818608E-02  0.1235068E+00
          4   -1    0    0  501    0  0.00000000000E+00  0.00000000000E+00  0.11481905850E+02  0.11551928927E+02  0.12700000000E+01 0.  1.
         -4   -1    0    0    0  501 -0.00000000000E+00 -0.00000000000E+00 -0.33910761582E+03  0.33910999396E+03  0.12700000000E+01 0.  1.
         25    2    1    2    0    0  0.00000000000E+00  0.00000000000E+00 -0.32762570997E+03  0.35066192289E+03  0.12500071333E+03 0.  0.
    9000005    1    3    3    0    0  0.15308903694E+02 -0.60580044853E+02 -0.16660437807E+03  0.17793909958E+03  0.10000000000E+01 0.  0.
    9000005    1    3    3    0    0 -0.15308903694E+02  0.60580044853E+02 -0.16102133190E+03  0.17272282331E+03  0.10000000000E+01 0.  0.
<mgrwt>
<rscale>  0 0.12500071E+03</rscale>
<asrwt>0</asrwt>
<pdfrwt beam="1">  1        4 0.17720166E-02 0.12500071E+03</pdfrwt>
<pdfrwt beam="2">  1       -4 0.52175964E-01 0.12500071E+03</pdfrwt>
<totfact> 0.69650702E+03</totfact>
</mgrwt>
</event>
<event>
 5    1  0.3267085E-002  0.1250001E+03  0.7818608E-02  0.1235069E+00
          4   -1    0    0  501    0  0.00000000000E+00  0.00000000000E+00  0.45656162651E+02  0.45673822787E+02  0.12700000000E+01 0.  1.
         -4   -1    0    0    0  501 -0.00000000000E+00 -0.00000000000E+00 -0.85519234692E+02  0.85528664214E+02  0.12700000000E+01 0.  1.
         25    2    1    2    0    0  0.00000000000E+00  0.00000000000E+00 -0.39863072041E+02  0.13120248700E+03  0.12500011233E+03 0.  0.
    9000005    1    3    3    0    0 -0.76129720339E+01  0.36225714005E+02  0.32915473480E+02  0.49544808939E+02  0.10000000000E+01 0.  0.
    9000005    1    3    3    0    0  0.76129720339E+01 -0.36225714005E+02 -0.72778545521E+02  0.81657678062E+02  0.10000000000E+01 0.  0.
<mgrwt>
<rscale>  0 0.12500011E+03</rscale>
<asrwt>0</asrwt>
<pdfrwt beam="1">  1        4 0.70261089E-02 0.12500011E+03</pdfrwt>
<pdfrwt beam="2">  1       -4 0.13158889E-01 0.12500011E+03</pdfrwt>
<totfact> 0.10318724E+04</totfact>
</mgrwt>
</event>
<event>
 5    1  0.3267085E-002  0.1250005E+03  0.7818608E-02  0.1235068E+00
          4   -1    0    0  501    0  0.00000000000E+00  0.00000000000E+00  0.17209616260E+02  0.17256413063E+02  0.12700000000E+01 0.  1.
         -4   -1    0    0    0  501 -0.00000000000E+00 -0.00000000000E+00 -0.22662572963E+03  0.22662928811E+03  0.12700000000E+01 0.  1.
         25    2    1    2    0    0  0.00000000000E+00  0.00000000000E+00 -0.20941611337E+03  0.24388570118E+03  0.12500050680E+03 0.  0.
    9000005    1    3    3    0    0  0.80070063562E+01 -0.51479101582E+02 -0.37372647428E+02  0.64124292014E+02  0.10000000000E+01 0.  0.
    9000005    1    3    3    0    0 -0.80070063562E+01  0.51479101582E+02 -0.17204346594E+03  0.17976140916E+03  0.10000000000E+01 0.  0.
<mgrwt>
<rscale>  0 0.12500051E+03</rscale>
<asrwt>0</asrwt>
<pdfrwt beam="1">  1        4 0.26515069E-02 0.12500051E+03</pdfrwt>
<pdfrwt beam="2">  1       -4 0.34869368E-01 0.12500051E+03</pdfrwt>
<totfact> 0.83221104E+03</totfact>
</mgrwt>
</event>
<event>
 5    1  0.3267085E-002  0.1250019E+03  0.7818608E-02  0.1235066E+00
          4   -1    0    0  501    0  0.00000000000E+00  0.00000000000E+00  0.99225998845E+03  0.99226080119E+03  0.12700000000E+01 0.  1.
         -4   -1    0    0    0  501 -0.00000000000E+00 -0.00000000000E+00 -0.38335836805E+01  0.40384729584E+01  0.12700000000E+01 0.  1.
         25    2    1    2    0    0  0.00000000000E+00  0.00000000000E+00  0.98842640477E+03  0.99629927415E+03  0.12500194408E+03 0.  0.
    9000005    1    3    3    0    0 -0.31323300129E+02 -0.18164507860E+02  0.88255405595E+02  0.95399764641E+02  0.10000000000E+01 0.  0.
    9000005    1    3    3    0    0  0.31323300129E+02  0.18164507860E+02  0.90017099917E+03  0.90089950951E+03  0.10000000000E+01 0.  0.
<mgrwt>
<rscale>  0 0.12500194E+03</rscale>
<asrwt>0</asrwt>
<pdfrwt beam="1">  1        4 0.15267122E+00 0.12500194E+03</pdfrwt>
<pdfrwt beam="2">  1       -4 0.60560528E-03 0.12500194E+03</pdfrwt>
<totfact> 0.30725681E+03</totfact>
</mgrwt>
</event>
<event>
 5    1  0.3267085E-002  0.1249992E+03  0.7818608E-02  0.1235071E+00
         -4   -1    0    0    0  501 -0.00000000000E+00  0.00000000000E+00  0.29767040517E+02  0.29794120244E+02  0.12700000000E+01 0. -1.
          4   -1    0    0  501    0  0.00000000000E+00 -0.00000000000E+00 -0.13113585275E+03  0.13114200234E+03  0.12700000000E+01 0. -1.
         25    2    1    2    0    0  0.00000000000E+00  0.00000000000E+00 -0.10136881224E+03  0.16093612258E+03  0.12499919783E+03 0.  0.
    9000005    1    3    3    0    0  0.44414674900E+02 -0.75582869813E+00  0.59064106359E+01  0.44823211734E+02  0.10000000000E+01 0.  0.
    9000005    1    3    3    0    0 -0.44414674900E+02  0.75582869813E+00 -0.10727522287E+03  0.11611291085E+03  0.10000000000E+01 0.  0.
<mgrwt>
<rscale>  0 0.12499920E+03</rscale>
<asrwt>0</asrwt>
<pdfrwt beam="2">  1        4 0.20177302E-01 0.12499920E+03</pdfrwt>
<pdfrwt beam="1">  1       -4 0.45821009E-02 0.12499920E+03</pdfrwt>
<totfact> 0.97164363E+03</totfact>
</mgrwt>
</event>
<event>
 5    1  0.3267085E-002  0.1250036E+03  0.7818608E-02  0.1235064E+00
         -4   -1    0    0    0  501 -0.00000000000E+00  0.00000000000E+00  0.41185874120E+01  0.43099492190E+01  0.12700000000E+01 0.  1.
          4   -1    0    0  501    0  0.00000000000E+00 -0.00000000000E+00 -0.92677196024E+03  0.92677283041E+03  0.12700000000E+01 0.  1.
         25    2    1    2    0    0  0.00000000000E+00  0.00000000000E+00 -0.92265337283E+03  0.93108277963E+03  0.12500358447E+03 0.  0.
    9000005    1    3    3    0    0  0.17431943884E+02 -0.25266739982E+02 -0.86678462987E+03  0.86732858560E+03  0.10000000000E+01 0.  0.
    9000005    1    3    3    0    0 -0.17431943884E+02  0.25266739982E+02 -0.55868742960E+02  0.63754194033E+02  0.10000000000E+01 0.  0.
<mgrwt>
<rscale>  0 0.12500358E+03</rscale>
<asrwt>0</asrwt>
<pdfrwt beam="2">  1        4 0.14259493E+00 0.12500358E+03</pdfrwt>
<pdfrwt beam="1">  1       -4 0.64841665E-03 0.12500358E+03</pdfrwt>
<totfact> 0.32994729E+03</totfact>
</mgrwt>
</event>
<event>
 5    1  0.3267085E-002  0.1249989E+03  0.7818608E-02  0.1235071E+00
         -4   -1    0    0    0  501 -0.00000000000E+00  0.00000000000E+00  0.19831109700E+03  0.19831516355E+03  0.12700000000E+01 0. -1.
          4   -1    0    0  501    0  0.00000000000E+00 -0.00000000000E+00 -0.19672507838E+02  0.19713458972E+02  0.12700000000E+01 0. -1.
         25    2    1    2    0    0  0.00000000000E+00  0.00000000000E+00  0.17863858916E+03  0.21802862252E+03  0.12499893880E+03 0.  0.
    9000005    1    3    3    0    0 -0.37455440260E+02  0.40208409342E+02  0.14122505584E+03  0.15154254381E+03  0.10000000000E+01 0.  0.
    9000005    1    3    3    0    0  0.37455440260E+02 -0.40208409342E+02  0.37413533322E+02  0.66486078712E+02  0.10000000000E+01 0.  0.
<mgrwt>
<rscale>  0 0.12499894E+03</rscale>
<asrwt>0</asrwt>
<pdfrwt beam="2">  1        4 0.30300025E-02 0.12499894E+03</pdfrwt>
<pdfrwt beam="1">  1       -4 0.30512863E-01 0.12499894E+03</pdfrwt>
<totfact> 0.87183324E+03</totfact>
</mgrwt>
</event>
<event>
 5    1  0.3267085E-002  0.1250029E+03  0.7818608E-02  0.1235065E+00
         -4   -1    0    0    0  501 -0.00000000000E+00  0.00000000000E+00  0.35807547214E+03  0.35807772431E+03  0.12700000000E+01 0. -1.
          4   -1    0    0  501    0  0.00000000000E+00 -0.00000000000E+00 -0.10870267352E+02  0.10944204508E+02  0.12700000000E+01 0. -1.
         25    2    1    2    0    0  0.00000000000E+00  0.00000000000E+00  0.34720520479E+03  0.36902192882E+03  0.12500291884E+03 0.  0.
    9000005    1    3    3    0    0 -0.46612542315E+02  0.17404966916E+02  0.61976649360E+02  0.79484382367E+02  0.10000000000E+01 0.  0.
    9000005    1    3    3    0    0  0.46612542315E+02 -0.17404966916E+02  0.28522855543E+03  0.28953754645E+03  0.10000000000E+01 0.  0.
<mgrwt>
<rscale>  0 0.12500292E+03</rscale>
<asrwt>0</asrwt>
<pdfrwt beam="2">  1        4 0.16782097E-02 0.12500292E+03</pdfrwt>
<pdfrwt beam="1">  1       -4 0.55094389E-01 0.12500292E+03</pdfrwt>
<totfact> 0.67677020E+03</totfact>
</mgrwt>
</event>
<event>
 5    1  0.3267085E-002  0.1250007E+03  0.7818608E-02  0.1235068E+00
         -4   -1    0    0    0  501 -0.00000000000E+00  0.00000000000E+00  0.60784388474E+03  0.60784521148E+03  0.12700000000E+01 0. -1.
          4   -1    0    0  501    0  0.00000000000E+00 -0.00000000000E+00 -0.63623856287E+01  0.64879003451E+01  0.12700000000E+01 0. -1.
         25    2    1    2    0    0  0.00000000000E+00  0.00000000000E+00  0.60148149911E+03  0.61433311183E+03  0.12500071403E+03 0.  0.
    9000005    1    3    3    0    0 -0.16936026448E+02 -0.12064785459E+02  0.11114459598E+02  0.23599136683E+02  0.10000000000E+01 0.  0.
    9000005    1    3    3    0    0  0.16936026448E+02  0.12064785459E+02  0.59036703952E+03  0.59073397514E+03  0.10000000000E+01 0.  0.
<mgrwt>
<rscale>  0 0.12500071E+03</rscale>
<asrwt>0</asrwt>
<pdfrwt beam="2">  1        4 0.98858611E-03 0.12500071E+03</pdfrwt>
<pdfrwt beam="1">  1       -4 0.93524151E-01 0.12500071E+03</pdfrwt>
<totfact> 0.47974452E+03</totfact>
</mgrwt>
</event>
<event>
 5    1  0.3267085E-002  0.1249997E+03  0.7818608E-02  0.1235070E+00
          4   -1    0    0  501    0  0.00000000000E+00  0.00000000000E+00  0.84823543613E+03  0.84823638687E+03  0.12700000000E+01 0. -1.
         -4   -1    0    0    0  501 -0.00000000000E+00 -0.00000000000E+00 -0.45165935509E+01  0.46917499191E+01  0.12700000000E+01 0. -1.
         25    2    1    2    0    0  0.00000000000E+00  0.00000000000E+00  0.84371884258E+03  0.85292813678E+03  0.12499968480E+03 0.  0.
    9000005    1    3    3    0    0  0.10206563151E+02  0.59360441054E+02  0.53550495518E+03  0.53888254092E+03  0.10000000000E+01 0.  0.
    9000005    1    3    3    0    0 -0.10206563151E+02 -0.59360441054E+02  0.30821388740E+03  0.31404559586E+03  0.10000000000E+01 0.  0.
<mgrwt>
<rscale>  0 0.12499968E+03</rscale>
<asrwt>0</asrwt>
<pdfrwt beam="1">  1        4 0.13051126E+00 0.12499968E+03</pdfrwt>
<pdfrwt beam="2">  1       -4 0.70840752E-03 0.12499968E+03</pdfrwt>
<totfact> 0.36008059E+03</totfact>
</mgrwt>
</event>
<event>
 5    1  0.3267085E-002  0.1249962E+03  0.7818608E-02  0.1235075E+00
         -4   -1    0    0    0  501 -0.00000000000E+00  0.00000000000E+00  0.38117928921E+03  0.38118140487E+03  0.12700000000E+01 0. -1.
          4   -1    0    0  501    0  0.00000000000E+00 -0.00000000000E+00 -0.10205674658E+02  0.10284390853E+02  0.12700000000E+01 0. -1.
         25    2    1    2    0    0  0.00000000000E+00  0.00000000000E+00  0.37097361455E+03  0.39146579573E+03  0.12499618607E+03 0.  0.
    9000005    1    3    3    0    0  0.30637234767E+02  0.82173416301E+01  0.16866572372E+02  0.35939478589E+02  0.10000000000E+01 0.  0.
    9000005    1    3    3    0    0 -0.30637234767E+02 -0.82173416301E+01  0.35410704218E+03  0.35552631714E+03  0.10000000000E+01 0.  0.
<mgrwt>
<rscale>  0 0.12499619E+03</rscale>
<asrwt>0</asrwt>
<pdfrwt beam="2">  1        4 0.15763217E-02 0.12499619E+03</pdfrwt>
<pdfrwt beam="1">  1       -4 0.58649183E-01 0.12499619E+03</pdfrwt>
<totfact> 0.65396874E+03</totfact>
</mgrwt>
</event>
<event>
 5    1  0.3267085E-002  0.1249986E+03  0.7818608E-02  0.1235071E+00
         -4   -1    0    0    0  501 -0.00000000000E+00  0.00000000000E+00  0.20576450588E+02  0.20615606195E+02  0.12700000000E+01 0. -1.
          4   -1    0    0  501    0  0.00000000000E+00 -0.00000000000E+00 -0.18961487501E+03  0.18961912805E+03  0.12700000000E+01 0. -1.
         25    2    1    2    0    0  0.00000000000E+00  0.00000000000E+00 -0.16903842442E+03  0.21023473425E+03  0.12499861821E+03 0.  0.
    9000005    1    3    3    0    0  0.94414274471E+01 -0.60178957701E+02 -0.10797646108E+03  0.12397807730E+03  0.10000000000E+01 0.  0.
    9000005    1    3    3    0    0 -0.94414274471E+01  0.60178957701E+02 -0.61061963338E+02  0.86256656954E+02  0.10000000000E+01 0.  0.
<mgrwt>
<rscale>  0 0.12499862E+03</rscale>
<asrwt>0</asrwt>
<pdfrwt beam="2">  1        4 0.29174857E-01 0.12499862E+03</pdfrwt>
<pdfrwt beam="1">  1       -4 0.31689470E-02 0.12499862E+03</pdfrwt>
<totfact> 0.88440293E+03</totfact>
</mgrwt>
</event>
<event>
 5    1  0.3267085E-002  0.1250002E+03  0.7818608E-02  0.1235069E+00
         -4   -1    0    0    0  501 -0.00000000000E+00  0.00000000000E+00  0.56695950521E+02  0.56710172857E+02  0.12700000000E+01 0.  1.
          4   -1    0    0  501    0  0.00000000000E+00 -0.00000000000E+00 -0.68869734135E+02  0.68881442928E+02  0.12700000000E+01 0.  1.
         25    2    1    2    0    0  0.00000000000E+00  0.00000000000E+00 -0.12173783614E+02  0.12559161579E+03  0.12500021179E+03 0.  0.
    9000005    1    3    3    0    0 -0.61825260352E+02 -0.10277210817E+00  0.30605697961E+01  0.61909130725E+02  0.10000000000E+01 0.  0.
    9000005    1    3    3    0    0  0.61825260352E+02  0.10277210817E+00 -0.15234353410E+02  0.63682485060E+02  0.10000000000E+01 0.  0.
<mgrwt>
<rscale>  0 0.12500021E+03</rscale>
<asrwt>0</asrwt>
<pdfrwt beam="2">  1        4 0.10597338E-01 0.12500021E+03</pdfrwt>
<pdfrwt beam="1">  1       -4 0.87244487E-02 0.12500021E+03</pdfrwt>
<totfact> 0.10439882E+04</totfact>
</mgrwt>
</event>
<event>
 5    1  0.3267085E-002  0.1250006E+03  0.7818608E-02  0.1235068E+00
         -4   -1    0    0    0  501 -0.00000000000E+00  0.00000000000E+00  0.17318846701E+01  0.21476323033E+01  0.12700000000E+01 0.  1.
          4   -1    0    0  501    0  0.00000000000E+00 -0.00000000000E+00 -0.20133838496E+04  0.20133842501E+04  0.12700000000E+01 0.  1.
         25    2    1    2    0    0  0.00000000000E+00  0.00000000000E+00 -0.20116519649E+04  0.20155318824E+04  0.12500056463E+03 0.  0.
    9000005    1    3    3    0    0 -0.12717923710E+02  0.53262480135E+02 -0.52031726591E+03  0.52319183344E+03  0.10000000000E+01 0.  0.
    9000005    1    3    3    0    0  0.12717923710E+02 -0.53262480135E+02 -0.14913346990E+04  0.14923400490E+04  0.10000000000E+01 0.  0.
<mgrwt>
<rscale>  0 0.12500056E+03</rscale>
<asrwt>0</asrwt>
<pdfrwt beam="2">  1        4 0.30978170E+00 0.12500056E+03</pdfrwt>
<pdfrwt beam="1">  1       -4 0.29845681E-03 0.12500056E+03</pdfrwt>
<totfact> 0.96598384E+02</totfact>
</mgrwt>
</event>
<event>
 5    1  0.3267085E-002  0.1250144E+03  0.7818608E-02  0.1235047E+00
          4   -1    0    0  501    0  0.00000000000E+00  0.00000000000E+00  0.16805760387E+02  0.16853678595E+02  0.12700000000E+01 0. -1.
         -4   -1    0    0    0  501 -0.00000000000E+00 -0.00000000000E+00 -0.23210824633E+03  0.23211172076E+03  0.12700000000E+01 0. -1.
         25    2    1    2    0    0  0.00000000000E+00  0.00000000000E+00 -0.21530248595E+03  0.24896539936E+03  0.12501443766E+03 0.  0.
    9000005    1    3    3    0    0 -0.24416663649E+02 -0.52005246263E+02 -0.58649449492E+02  0.82106498088E+02  0.10000000000E+01 0.  0.
    9000005    1    3    3    0    0  0.24416663649E+02  0.52005246263E+02 -0.15665303646E+03  0.16685890127E+03  0.10000000000E+01 0.  0.
<mgrwt>
<rscale>  0 0.12501444E+03</rscale>
<asrwt>0</asrwt>
<pdfrwt beam="1">  1        4 0.25894551E-02 0.12501444E+03</pdfrwt>
<pdfrwt beam="2">  1       -4 0.35712912E-01 0.12501444E+03</pdfrwt>
<totfact> 0.82453468E+03</totfact>
</mgrwt>
</event>
<event>
 5    1  0.3267085E-002  0.1249983E+03  0.7818608E-02  0.1235072E+00
          4   -1    0    0  501    0  0.00000000000E+00  0.00000000000E+00  0.95482812032E+02  0.95491257681E+02  0.12700000000E+01 0. -1.
         -4   -1    0    0    0  501 -0.00000000000E+00 -0.00000000000E+00 -0.40889276341E+02  0.40908994362E+02  0.12700000000E+01 0. -1.
         25    2    1    2    0    0  0.00000000000E+00  0.00000000000E+00  0.54593535690E+02  0.13640025204E+03  0.12499829846E+03 0.  0.
    9000005    1    3    3    0    0  0.77548075005E+01 -0.28888622115E+02  0.87169224543E+02  0.92163784832E+02  0.10000000000E+01 0.  0.
    9000005    1    3    3    0    0 -0.77548075005E+01  0.28888622115E+02 -0.32575688853E+02  0.44236467211E+02  0.10000000000E+01 0.  0.
<mgrwt>
<rscale>  0 0.12499830E+03</rscale>
<asrwt>0</asrwt>
<pdfrwt beam="1">  1        4 0.14691830E-01 0.12499830E+03</pdfrwt>
<pdfrwt beam="2">  1       -4 0.62928245E-02 0.12499830E+03</pdfrwt>
<totfact> 0.10209032E+04</totfact>
</mgrwt>
</event>
<event>
 5    1  0.3267085E-002  0.1249963E+03  0.7818608E-02  0.1235075E+00
         -4   -1    0    0    0  501 -0.00000000000E+00  0.00000000000E+00  0.39853869019E+01  0.41828469680E+01  0.12700000000E+01 0.  1.
          4   -1    0    0  501    0  0.00000000000E+00 -0.00000000000E+00 -0.95619451230E+03  0.95619535569E+03  0.12700000000E+01 0.  1.
         25    2    1    2    0    0  0.00000000000E+00  0.00000000000E+00 -0.95220912540E+03  0.96037820266E+03  0.12499629458E+03 0.  0.
    9000005    1    3    3    0    0 -0.35202833446E+02  0.38678579581E+02 -0.73888378124E+03  0.74073309240E+03  0.10000000000E+01 0.  0.
    9000005    1    3    3    0    0  0.35202833446E+02 -0.38678579581E+02 -0.21332534415E+03  0.21964511026E+03  0.10000000000E+01 0.  0.
<mgrwt>
<rscale>  0 0.12499629E+03</rscale>
<asrwt>0</asrwt>
<pdfrwt beam="2">  1        4 0.14712192E+00 0.12499629E+03</pdfrwt>
<pdfrwt beam="1">  1       -4 0.62839132E-03 0.12499629E+03</pdfrwt>
<totfact> 0.31952967E+03</totfact>
</mgrwt>
</event>
<event>
 5    1  0.3267085E-002  0.1250000E+03  0.7818608E-02  0.1235069E+00
          4   -1    0    0  501    0  0.00000000000E+00  0.00000000000E+00  0.86637338811E+02  0.86646646653E+02  0.12700000000E+01 0.  1.
         -4   -1    0    0    0  501 -0.00000000000E+00 -0.00000000000E+00 -0.45066662980E+02  0.45084554031E+02  0.12700000000E+01 0.  1.
         25    2    1    2    0    0  0.00000000000E+00  0.00000000000E+00  0.41570675830E+02  0.13173120068E+03  0.12499995258E+03 0.  0.
    9000005    1    3    3    0    0  0.18485039694E+02  0.22326242704E+02 -0.37559221294E+02  0.47453692269E+02  0.10000000000E+01 0.  0.
    9000005    1    3    3    0    0 -0.18485039694E+02 -0.22326242704E+02  0.79129897124E+02  0.84277508415E+02  0.10000000000E+01 0.  0.
<mgrwt>
<rscale>  0 0.12499995E+03</rscale>
<asrwt>0</asrwt>
<pdfrwt beam="1">  1        4 0.13330913E-01 0.12499995E+03</pdfrwt>
<pdfrwt beam="2">  1       -4 0.69354251E-02 0.12499995E+03</pdfrwt>
<totfact> 0.10307450E+04</totfact>
</mgrwt>
</event>
<event>
 5    1  0.3267085E-002  0.1250002E+03  0.7818608E-02  0.1235069E+00
          4   -1    0    0  501    0  0.00000000000E+00  0.00000000000E+00  0.70896547832E+02  0.70907921944E+02  0.12700000000E+01 0.  1.
         -4   -1    0    0    0  501 -0.00000000000E+00 -0.00000000000E+00 -0.55074975642E+02  0.55089616462E+02  0.12700000000E+01 0.  1.
         25    2    1    2    0    0  0.00000000000E+00  0.00000000000E+00  0.15821572190E+02  0.12599753841E+03  0.12500023015E+03 0.  0.
    9000005    1    3    3    0    0  0.62070912124E+02  0.46336858449E+01  0.22990333779E+01  0.62294098684E+02  0.10000000000E+01 0.  0.
    9000005    1    3    3    0    0 -0.62070912124E+02 -0.46336858449E+01  0.13522538812E+02  0.63703439722E+02  0.10000000000E+01 0.  0.
<mgrwt>
<rscale>  0 0.12500023E+03</rscale>
<asrwt>0</asrwt>
<pdfrwt beam="1">  1        4 0.10909162E-01 0.12500023E+03</pdfrwt>
<pdfrwt beam="2">  1       -4 0.84750744E-02 0.12500023E+03</pdfrwt>
<totfact> 0.10430957E+04</totfact>
</mgrwt>
</event>
<event>
 5    1  0.3267085E-002  0.1249987E+03  0.7818608E-02  0.1235071E+00
          4   -1    0    0  501    0  0.00000000000E+00  0.00000000000E+00  0.24388220109E+04  0.24388223416E+04  0.12700000000E+01 0. -1.
         -4   -1    0    0    0  501 -0.00000000000E+00 -0.00000000000E+00 -0.13495266538E+01  0.18531384701E+01  0.12700000000E+01 0. -1.
         25    2    1    2    0    0  0.00000000000E+00  0.00000000000E+00  0.24374724843E+04  0.24406754801E+04  0.12499874968E+03 0.  0.
    9000005    1    3    3    0    0 -0.30054543444E+02  0.23822342642E+02  0.21821207293E+04  0.21824579393E+04  0.10000000000E+01 0.  0.
    9000005    1    3    3    0    0  0.30054543444E+02 -0.23822342642E+02  0.25535175494E+03  0.25821754074E+03  0.10000000000E+01 0.  0.
<mgrwt>
<rscale>  0 0.12499875E+03</rscale>
<asrwt>0</asrwt>
<pdfrwt beam="1">  1        4 0.37524246E+00 0.12499875E+03</pdfrwt>
<pdfrwt beam="2">  1       -4 0.24638409E-03 0.12499875E+03</pdfrwt>
<totfact> 0.51524846E+02</totfact>
</mgrwt>
</event>
<event>
 5    1  0.3267085E-002  0.1250001E+03  0.7818608E-02  0.1235069E+00
          4   -1    0    0  501    0  0.00000000000E+00  0.00000000000E+00  0.60779407541E+02  0.60792674567E+02  0.12700000000E+01 0. -1.
         -4   -1    0    0    0  501 -0.00000000000E+00 -0.00000000000E+00 -0.64242863019E+02  0.64255414938E+02  0.12700000000E+01 0. -1.
         25    2    1    2    0    0  0.00000000000E+00  0.00000000000E+00 -0.34634554779E+01  0.12504808951E+03  0.12500011666E+03 0.  0.
    9000005    1    3    3    0    0 -0.11709777689E+02  0.55362069215E+02 -0.28259440221E+02  0.63258782496E+02  0.10000000000E+01 0.  0.
    9000005    1    3    3    0    0  0.11709777689E+02 -0.55362069215E+02  0.24795984743E+02  0.61789307009E+02  0.10000000000E+01 0.  0.
<mgrwt>
<rscale>  0 0.12500012E+03</rscale>
<asrwt>0</asrwt>
<pdfrwt beam="1">  1        4 0.93526642E-02 0.12500012E+03</pdfrwt>
<pdfrwt beam="2">  1       -4 0.98855035E-02 0.12500012E+03</pdfrwt>
<totfact> 0.10451791E+04</totfact>
</mgrwt>
</event>
<event>
 5    1  0.3267085E-002  0.1250496E+03  0.7818608E-02  0.1234992E+00
          4   -1    0    0  501    0  0.00000000000E+00  0.00000000000E+00  0.52576331184E+02  0.52591667598E+02  0.12700000000E+01 0.  1.
         -4   -1    0    0    0  501 -0.00000000000E+00 -0.00000000000E+00 -0.74324146786E+02  0.74334996438E+02  0.12700000000E+01 0.  1.
         25    2    1    2    0    0  0.00000000000E+00  0.00000000000E+00 -0.21747815602E+02  0.12692666404E+03  0.12504963239E+03 0.  0.
    9000005    1    3    3    0    0  0.28877719566E+02  0.76781679707E+01  0.44863704737E+02  0.53913161226E+02  0.10000000000E+01 0.  0.
    9000005    1    3    3    0    0 -0.28877719566E+02 -0.76781679707E+01 -0.66611520338E+02  0.73013502810E+02  0.10000000000E+01 0.  0.
<mgrwt>
<rscale>  0 0.12504963E+03</rscale>
<asrwt>0</asrwt>
<pdfrwt beam="1">  1        4 0.80906806E-02 0.12504963E+03</pdfrwt>
<pdfrwt beam="2">  1       -4 0.11436498E-01 0.12504963E+03</pdfrwt>
<totfact> 0.10399084E+04</totfact>
</mgrwt>
</event>
<event>
 5    1  0.3267085E-002  0.1249979E+03  0.7818608E-02  0.1235073E+00
         -4   -1    0    0    0  501 -0.00000000000E+00  0.00000000000E+00  0.25278971521E+03  0.25279290539E+03  0.12700000000E+01 0. -1.
          4   -1    0    0  501    0  0.00000000000E+00 -0.00000000000E+00 -0.15422663901E+02  0.15474865486E+02  0.12700000000E+01 0. -1.
         25    2    1    2    0    0  0.00000000000E+00  0.00000000000E+00  0.23736705131E+03  0.26826777088E+03  0.12499791936E+03 0.  0.
    9000005    1    3    3    0    0  0.35380024137E+01  0.10490680504E+02 -0.13311616325E+02  0.17342749715E+02  0.10000000000E+01 0.  0.
    9000005    1    3    3    0    0 -0.35380024137E+01 -0.10490680504E+02  0.25067866763E+03  0.25092502116E+03  0.10000000000E+01 0.  0.
<mgrwt>
<rscale>  0 0.12499792E+03</rscale>
<asrwt>0</asrwt>
<pdfrwt beam="2">  1        4 0.23769786E-02 0.12499792E+03</pdfrwt>
<pdfrwt beam="1">  1       -4 0.38894984E-01 0.12499792E+03</pdfrwt>
<totfact> 0.79763310E+03</totfact>
</mgrwt>
</event>
<event>
 5    1  0.3267085E-002  0.1250039E+03  0.7818608E-02  0.1235063E+00
         -4   -1    0    0    0  501 -0.00000000000E+00  0.00000000000E+00  0.32210228290E+03  0.32210478660E+03  0.12700000000E+01 0. -1.
          4   -1    0    0  501    0  0.00000000000E+00 -0.00000000000E+00 -0.12092301455E+02  0.12158809748E+02  0.12700000000E+01 0. -1.
         25    2    1    2    0    0  0.00000000000E+00  0.00000000000E+00  0.31000998145E+03  0.33426359635E+03  0.12500385293E+03 0.  0.
    9000005    1    3    3    0    0  0.42611924039E+02  0.28152149692E+02  0.25131342727E+03  0.25645225351E+03  0.10000000000E+01 0.  0.
    9000005    1    3    3    0    0 -0.42611924039E+02 -0.28152149692E+02  0.58696554178E+02  0.77811342842E+02  0.10000000000E+01 0.  0.
<mgrwt>
<rscale>  0 0.12500385E+03</rscale>
<asrwt>0</asrwt>
<pdfrwt beam="2">  1        4 0.18656628E-02 0.12500385E+03</pdfrwt>
<pdfrwt beam="1">  1       -4 0.49559503E-01 0.12500385E+03</pdfrwt>
<totfact> 0.71485069E+03</totfact>
</mgrwt>
</event>
<event>
 5    1  0.3267085E-002  0.1250000E+03  0.7818608E-02  0.1235069E+00
          4   -1    0    0  501    0  0.00000000000E+00  0.00000000000E+00  0.32643137913E+02  0.32667833611E+02  0.12700000000E+01 0. -1.
         -4   -1    0    0    0  501 -0.00000000000E+00 -0.00000000000E+00 -0.11959199254E+03  0.11959873569E+03  0.12700000000E+01 0. -1.
         25    2    1    2    0    0  0.00000000000E+00  0.00000000000E+00 -0.86948854627E+02  0.15226656930E+03  0.12500001923E+03 0.  0.
    9000005    1    3    3    0    0  0.26309181580E+02  0.39075238087E+02 -0.93495100495E+02  0.10469661448E+03  0.10000000000E+01 0.  0.
    9000005    1    3    3    0    0 -0.26309181580E+02 -0.39075238087E+02  0.65462458685E+01  0.47569954824E+02  0.10000000000E+01 0.  0.
<mgrwt>
<rscale>  0 0.12500002E+03</rscale>
<asrwt>0</asrwt>
<pdfrwt beam="1">  1        4 0.50244397E-02 0.12500002E+03</pdfrwt>
<pdfrwt beam="2">  1       -4 0.18401186E-01 0.12500002E+03</pdfrwt>
<totfact> 0.98853753E+03</totfact>
</mgrwt>
</event>
<event>
 5    1  0.3267085E-002  0.1249977E+03  0.7818608E-02  0.1235073E+00
          4   -1    0    0  501    0  0.00000000000E+00  0.00000000000E+00  0.42115715937E+03  0.42115907421E+03  0.12700000000E+01 0. -1.
         -4   -1    0    0    0  501 -0.00000000000E+00 -0.00000000000E+00 -0.92292747819E+01  0.93162445760E+01  0.12700000000E+01 0. -1.
         25    2    1    2    0    0  0.00000000000E+00  0.00000000000E+00  0.41192788459E+03  0.43047531879E+03  0.12499767191E+03 0.  0.
    9000005    1    3    3    0    0 -0.38616258841E+02  0.43104414338E+02  0.28716170972E+03  0.29293694460E+03  0.10000000000E+01 0.  0.
    9000005    1    3    3    0    0  0.38616258841E+02 -0.43104414338E+02  0.12476617487E+03  0.13753837419E+03  0.10000000000E+01 0.  0.
<mgrwt>
<rscale>  0 0.12499767E+03</rscale>
<asrwt>0</asrwt>
<pdfrwt beam="1">  1        4 0.64800258E-01 0.12499767E+03</pdfrwt>
<pdfrwt beam="2">  1       -4 0.14267255E-02 0.12499767E+03</pdfrwt>
<totfact> 0.61696089E+03</totfact>
</mgrwt>
</event>
<event>
 5    1  0.3267085E-002  0.1250001E+03  0.7818608E-02  0.1235069E+00
         -4   -1    0    0    0  501 -0.00000000000E+00  0.00000000000E+00  0.43684667291E+03  0.43684851898E+03  0.12700000000E+01 0.  1.
          4   -1    0    0  501    0  0.00000000000E+00 -0.00000000000E+00 -0.88949638612E+01  0.89851701204E+01  0.12700000000E+01 0.  1.
         25    2    1    2    0    0  0.00000000000E+00  0.00000000000E+00  0.42795170905E+03  0.44583368910E+03  0.12500005223E+03 0.  0.
    9000005    1    3    3    0    0 -0.87397237418E+01 -0.60328890621E+02  0.26304774339E+03  0.27002050499E+03  0.10000000000E+01 0.  0.
    9000005    1    3    3    0    0  0.87397237418E+01  0.60328890621E+02  0.16490396566E+03  0.17581318411E+03  0.10000000000E+01 0.  0.
<mgrwt>
<rscale>  0 0.12500005E+03</rscale>
<asrwt>0</asrwt>
<pdfrwt beam="2">  1        4 0.13755369E-02 0.12500005E+03</pdfrwt>
<pdfrwt beam="1">  1       -4 0.67214261E-01 0.12500005E+03</pdfrwt>
<totfact> 0.60326358E+03</totfact>
</mgrwt>
</event>
<event>
 5    1  0.3267085E-002  0.1249956E+03  0.7818608E-02  0.1235076E+00
          4   -1    0    0  501    0  0.00000000000E+00  0.00000000000E+00  0.83758942240E+02  0.83768569912E+02  0.12700000000E+01 0. -1.
         -4   -1    0    0    0  501 -0.00000000000E+00 -0.00000000000E+00 -0.46612560267E+02  0.46629858188E+02  0.12700000000E+01 0. -1.
         25    2    1    2    0    0  0.00000000000E+00  0.00000000000E+00  0.37146381973E+02  0.13039842810E+03  0.12499558535E+03 0.  0.
    9000005    1    3    3    0    0 -0.59628074533E+02 -0.12347068929E+02  0.39302197939E+01  0.61027895353E+02  0.10000000000E+01 0.  0.
    9000005    1    3    3    0    0  0.59628074533E+02  0.12347068929E+02  0.33216162179E+02  0.69370532747E+02  0.10000000000E+01 0.  0.
<mgrwt>
<rscale>  0 0.12499559E+03</rscale>
<asrwt>0</asrwt>
<pdfrwt beam="1">  1        4 0.12888062E-01 0.12499559E+03</pdfrwt>
<pdfrwt beam="2">  1       -4 0.71732344E-02 0.12499559E+03</pdfrwt>
<totfact> 0.10337022E+04</totfact>
</mgrwt>
</event>
<event>
 5    1  0.3267085E-002  0.1249821E+03  0.7818608E-02  0.1235097E+00
         -4   -1    0    0    0  501 -0.00000000000E+00  0.00000000000E+00  0.12636561159E+02  0.12700219601E+02  0.12700000000E+01 0.  1.
          4   -1    0    0  501    0  0.00000000000E+00 -0.00000000000E+00 -0.30819311355E+03  0.30819573024E+03  0.12700000000E+01 0.  1.
         25    2    1    2    0    0  0.00000000000E+00  0.00000000000E+00 -0.29555655239E+03  0.32089594984E+03  0.12498213858E+03 0.  0.
    9000005    1    3    3    0    0  0.32701294564E+02 -0.35312795372E+02 -0.25008624739E+03  0.25467724538E+03  0.10000000000E+01 0.  0.
    9000005    1    3    3    0    0 -0.32701294564E+02  0.35312795372E+02 -0.45470304997E+02  0.66218704455E+02  0.10000000000E+01 0.  0.
<mgrwt>
<rscale>  0 0.12498214E+03</rscale>
<asrwt>0</asrwt>
<pdfrwt beam="2">  1        4 0.47419417E-01 0.12498214E+03</pdfrwt>
<pdfrwt beam="1">  1       -4 0.19491847E-02 0.12498214E+03</pdfrwt>
<totfact> 0.73078622E+03</totfact>
</mgrwt>
</event>
<event>
 5    1  0.3267085E-002  0.1250057E+03  0.7818608E-02  0.1235060E+00
          4   -1    0    0  501    0  0.00000000000E+00  0.00000000000E+00  0.15727167650E+02  0.15778361838E+02  0.12700000000E+01 0.  1.
         -4   -1    0    0    0  501 -0.00000000000E+00 -0.00000000000E+00 -0.24794215853E+03  0.24794541108E+03  0.12700000000E+01 0.  1.
         25    2    1    2    0    0  0.00000000000E+00  0.00000000000E+00 -0.23221499088E+03  0.26372377292E+03  0.12500570552E+03 0.  0.
    9000005    1    3    3    0    0 -0.78363308441E+01  0.56998684742E+02 -0.64631463465E+02  0.86536028410E+02  0.10000000000E+01 0.  0.
    9000005    1    3    3    0    0  0.78363308441E+01 -0.56998684742E+02 -0.16758352741E+03  0.17718774451E+03  0.10000000000E+01 0.  0.
<mgrwt>
<rscale>  0 0.12500571E+03</rscale>
<asrwt>0</asrwt>
<pdfrwt beam="1">  1        4 0.24237526E-02 0.12500571E+03</pdfrwt>
<pdfrwt beam="2">  1       -4 0.38149133E-01 0.12500571E+03</pdfrwt>
<totfact> 0.80376101E+03</totfact>
</mgrwt>
</event>
<event>
 5    1  0.3267085E-002  0.1250057E+03  0.7818608E-02  0.1235060E+00
         -4   -1    0    0    0  501 -0.00000000000E+00  0.00000000000E+00  0.38848816161E+02  0.38869569294E+02  0.12700000000E+01 0.  1.
          4   -1    0    0  501    0  0.00000000000E+00 -0.00000000000E+00 -0.10050759725E+03  0.10051562070E+03  0.12700000000E+01 0.  1.
         25    2    1    2    0    0  0.00000000000E+00  0.00000000000E+00 -0.61658781091E+02  0.13938519000E+03  0.12500570349E+03 0.  0.
    9000005    1    3    3    0    0 -0.36435250275E+02  0.49788357906E+02 -0.41934918345E+02  0.74605264038E+02  0.10000000000E+01 0.  0.
    9000005    1    3    3    0    0  0.36435250275E+02 -0.49788357906E+02 -0.19723862747E+02  0.64779925959E+02  0.10000000000E+01 0.  0.
<mgrwt>
<rscale>  0 0.12500570E+03</rscale>
<asrwt>0</asrwt>
<pdfrwt beam="2">  1        4 0.15464921E-01 0.12500570E+03</pdfrwt>
<pdfrwt beam="1">  1       -4 0.59789546E-02 0.12500570E+03</pdfrwt>
<totfact> 0.10145040E+04</totfact>
</mgrwt>
</event>
<event>
 4    1  0.3267085E-002  0.1262559E+03  0.7818608E-02  0.1233120E+00
          4   -1    0    0  501    0  0.00000000000E+00  0.00000000000E+00  0.13497196973E+02  0.13556814749E+02  0.12700000000E+01 0. -1.
         -4   -1    0    0    0  501 -0.00000000000E+00 -0.00000000000E+00 -0.29454485644E+03  0.29454759438E+03  0.12700000000E+01 0. -1.
    9000005    1    1    2    0    0 -0.48638489030E+02  0.11994483292E+02 -0.23423218687E+03  0.23953139171E+03  0.10000000000E+01 0.  0.
    9000005    1    1    2    0    0  0.48638489030E+02 -0.11994483292E+02 -0.46815472594E+02  0.68573017425E+02  0.10000000000E+01 0.  0.
<mgrwt>
<rscale>  0 0.12625585E+03</rscale>
<asrwt>0</asrwt>
<pdfrwt beam="1">  1        4 0.20812887E-02 0.12625585E+03</pdfrwt>
<pdfrwt beam="2">  1       -4 0.45319385E-01 0.12625585E+03</pdfrwt>
<totfact> 0.72552445E+03</totfact>
</mgrwt>
</event>
<event>
 5    1  0.3267085E-002  0.1250007E+03  0.7818608E-02  0.1235068E+00
          4   -1    0    0  501    0  0.00000000000E+00  0.00000000000E+00  0.79431667387E+02  0.79441819490E+02  0.12700000000E+01 0. -1.
         -4   -1    0    0    0  501 -0.00000000000E+00 -0.00000000000E+00 -0.49156532598E+02  0.49172935615E+02  0.12700000000E+01 0. -1.
         25    2    1    2    0    0  0.00000000000E+00  0.00000000000E+00  0.30275134789E+02  0.12861475510E+03  0.12500068577E+03 0.  0.
    9000005    1    3    3    0    0 -0.34740387582E+02  0.10068168946E+02 -0.37296905712E+02  0.51964619993E+02  0.10000000000E+01 0.  0.
    9000005    1    3    3    0    0  0.34740387582E+02 -0.10068168946E+02  0.67572040501E+02  0.76650135112E+02  0.10000000000E+01 0.  0.
<mgrwt>
<rscale>  0 0.12500069E+03</rscale>
<asrwt>0</asrwt>
<pdfrwt beam="1">  1        4 0.12222299E-01 0.12500069E+03</pdfrwt>
<pdfrwt beam="2">  1       -4 0.75645862E-02 0.12500069E+03</pdfrwt>
<totfact> 0.10374072E+04</totfact>
</mgrwt>
</event>
<event>
 5    1  0.3267085E-002  0.1250063E+03  0.7818608E-02  0.1235059E+00
          4   -1    0    0  501    0  0.00000000000E+00  0.00000000000E+00  0.22354386727E+01  0.25710087630E+01  0.12700000000E+01 0. -1.
         -4   -1    0    0    0  501 -0.00000000000E+00 -0.00000000000E+00 -0.16252490125E+04  0.16252495087E+04  0.12700000000E+01 0. -1.
         25    2    1    2    0    0  0.00000000000E+00  0.00000000000E+00 -0.16230135738E+04  0.16278205174E+04  0.12500630484E+03 0.  0.
    9000005    1    3    3    0    0 -0.21573120861E+02 -0.33070178182E+02 -0.18070217699E+03  0.18496841081E+03  0.10000000000E+01 0.  0.
    9000005    1    3    3    0    0  0.21573120861E+02  0.33070178182E+02 -0.14423113968E+04  0.14428521066E+04  0.10000000000E+01 0.  0.
<mgrwt>
<rscale>  0 0.12500630E+03</rscale>
<asrwt>0</asrwt>
<pdfrwt beam="1">  1        4 0.36976619E-03 0.12500630E+03</pdfrwt>
<pdfrwt beam="2">  1       -4 0.25006328E+00 0.12500630E+03</pdfrwt>
<totfact> 0.15546386E+03</totfact>
</mgrwt>
</event>
<event>
 5    1  0.3267085E-002  0.1249949E+03  0.7818608E-02  0.1235077E+00
         -4   -1    0    0    0  501 -0.00000000000E+00  0.00000000000E+00  0.36694860713E+01  0.38830436551E+01  0.12700000000E+01 0.  1.
          4   -1    0    0  501    0  0.00000000000E+00 -0.00000000000E+00 -0.10341232553E+04  0.10341240351E+04  0.12700000000E+01 0.  1.
         25    2    1    2    0    0  0.00000000000E+00  0.00000000000E+00 -0.10304537692E+04  0.10380070788E+04  0.12499490033E+03 0.  0.
    9000005    1    3    3    0    0  0.89578878695E+01 -0.57256324451E+02 -0.70934394094E+03  0.71170805601E+03  0.10000000000E+01 0.  0.
    9000005    1    3    3    0    0 -0.89578878695E+01  0.57256324451E+02 -0.32110982828E+03  0.32629902277E+03  0.10000000000E+01 0.  0.
<mgrwt>
<rscale>  0 0.12499490E+03</rscale>
<asrwt>0</asrwt>
<pdfrwt beam="2">  1        4 0.15911215E+00 0.12499490E+03</pdfrwt>
<pdfrwt beam="1">  1       -4 0.58102464E-03 0.12499490E+03</pdfrwt>
<totfact> 0.29375520E+03</totfact>
</mgrwt>
</event>
<event>
 5    1  0.3267085E-002  0.1249991E+03  0.7818608E-02  0.1235071E+00
          4   -1    0    0  501    0  0.00000000000E+00  0.00000000000E+00  0.89449562392E+01  0.90346633651E+01  0.12700000000E+01 0.  1.
         -4   -1    0    0    0  501 -0.00000000000E+00 -0.00000000000E+00 -0.43442253731E+03  0.43442439368E+03  0.12700000000E+01 0.  1.
         25    2    1    2    0    0  0.00000000000E+00  0.00000000000E+00 -0.42547758107E+03  0.44345905704E+03  0.12499905312E+03 0.  0.
    9000005    1    3    3    0    0  0.58374419644E+02  0.22178027467E+02 -0.20422945124E+03  0.21356522780E+03  0.10000000000E+01 0.  0.
    9000005    1    3    3    0    0 -0.58374419644E+02 -0.22178027467E+02 -0.22124812983E+03  0.22989382924E+03  0.10000000000E+01 0.  0.
<mgrwt>
<rscale>  0 0.12499905E+03</rscale>
<asrwt>0</asrwt>
<pdfrwt beam="1">  1        4 0.13831908E-02 0.12499905E+03</pdfrwt>
<pdfrwt beam="2">  1       -4 0.66841263E-01 0.12499905E+03</pdfrwt>
<totfact> 0.60535925E+03</totfact>
</mgrwt>
</event>
<event>
 5    1  0.3267085E-002  0.1250033E+03  0.7818608E-02  0.1235064E+00
          4   -1    0    0  501    0  0.00000000000E+00  0.00000000000E+00  0.29520380663E+03  0.29520653846E+03  0.12700000000E+01 0.  1.
         -4   -1    0    0    0  501 -0.00000000000E+00 -0.00000000000E+00 -0.13199809061E+02  0.13260763901E+02  0.12700000000E+01 0.  1.
         25    2    1    2    0    0  0.00000000000E+00  0.00000000000E+00  0.28200399757E+03  0.30846730236E+03  0.12500328788E+03 0.  0.
    9000005    1    3    3    0    0  0.52173346060E+02  0.32685652195E+02  0.16747009468E+03  0.17843105815E+03  0.10000000000E+01 0.  0.
    9000005    1    3    3    0    0 -0.52173346060E+02 -0.32685652195E+02  0.11453390289E+03  0.13003624421E+03  0.10000000000E+01 0.  0.
<mgrwt>
<rscale>  0 0.12500329E+03</rscale>
<asrwt>0</asrwt>
<pdfrwt beam="1">  1        4 0.45420869E-01 0.12500329E+03</pdfrwt>
<pdfrwt beam="2">  1       -4 0.20356388E-02 0.12500329E+03</pdfrwt>
<totfact> 0.74543405E+03</totfact>
</mgrwt>
</event>
<event>
 5    1  0.3267085E-002  0.1249983E+03  0.7818608E-02  0.1235072E+00
          4   -1    0    0  501    0  0.00000000000E+00  0.00000000000E+00  0.13362990481E+04  0.13362996516E+04  0.12700000000E+01 0. -1.
         -4   -1    0    0    0  501 -0.00000000000E+00 -0.00000000000E+00 -0.27845299936E+01  0.30604750097E+01  0.12700000000E+01 0. -1.
         25    2    1    2    0    0  0.00000000000E+00  0.00000000000E+00  0.13335145181E+04  0.13393601266E+04  0.12499831494E+03 0.  0.
    9000005    1    3    3    0    0  0.55505798202E+00 -0.60924097567E+02  0.51786430542E+03  0.52143694977E+03  0.10000000000E+01 0.  0.
    9000005    1    3    3    0    0 -0.55505798202E+00  0.60924097567E+02  0.81565021270E+03  0.81792317686E+03  0.10000000000E+01 0.  0.
<mgrwt>
<rscale>  0 0.12499831E+03</rscale>
<asrwt>0</asrwt>
<pdfrwt beam="1">  1        4 0.20560542E+00 0.12499831E+03</pdfrwt>
<pdfrwt beam="2">  1       -4 0.44966290E-03 0.12499831E+03</pdfrwt>
<totfact> 0.21318995E+03</totfact>
</mgrwt>
</event>
<event>
 5    1  0.3267085E-002  0.1250073E+03  0.7818608E-02  0.1235058E+00
         -4   -1    0    0    0  501 -0.00000000000E+00  0.00000000000E+00  0.26489604017E+03  0.26489908455E+03  0.12700000000E+01 0. -1.
          4   -1    0    0  501    0  0.00000000000E+00 -0.00000000000E+00 -0.14717593200E+02  0.14772286539E+02  0.12700000000E+01 0. -1.
         25    2    1    2    0    0  0.00000000000E+00  0.00000000000E+00  0.25017844697E+03  0.27967137109E+03  0.12500728171E+03 0.  0.
    9000005    1    3    3    0    0 -0.42587102763E+02  0.16623753680E+02  0.22042021333E+03  0.22511348461E+03  0.10000000000E+01 0.  0.
    9000005    1    3    3    0    0  0.42587102763E+02 -0.16623753680E+02  0.29758233637E+02  0.54557886482E+02  0.10000000000E+01 0.  0.
<mgrwt>
<rscale>  0 0.12500728E+03</rscale>
<asrwt>0</asrwt>
<pdfrwt beam="2">  1        4 0.22686866E-02 0.12500728E+03</pdfrwt>
<pdfrwt beam="1">  1       -4 0.40757677E-01 0.12500728E+03</pdfrwt>
<totfact> 0.78209039E+03</totfact>
</mgrwt>
</event>
<event>
 5    1  0.3267085E-002  0.1250003E+03  0.7818608E-02  0.1235069E+00
         -4   -1    0    0    0  501 -0.00000000000E+00  0.00000000000E+00  0.20359072035E+03  0.20359468144E+03  0.12700000000E+01 0.  1.
          4   -1    0    0  501    0  0.00000000000E+00 -0.00000000000E+00 -0.19161717263E+02  0.19203757665E+02  0.12700000000E+01 0.  1.
         25    2    1    2    0    0  0.00000000000E+00  0.00000000000E+00  0.18442900309E+03  0.22279843911E+03  0.12500034916E+03 0.  0.
    9000005    1    3    3    0    0 -0.46639186034E+02  0.89310969586E+01  0.16462166475E+03  0.17133671723E+03  0.10000000000E+01 0.  0.
    9000005    1    3    3    0    0  0.46639186034E+02 -0.89310969586E+01  0.19807338341E+02  0.51461721881E+02  0.10000000000E+01 0.  0.
<mgrwt>
<rscale>  0 0.12500035E+03</rscale>
<asrwt>0</asrwt>
<pdfrwt beam="2">  1        4 0.29514951E-02 0.12500035E+03</pdfrwt>
<pdfrwt beam="1">  1       -4 0.31325188E-01 0.12500035E+03</pdfrwt>
<totfact> 0.86426787E+03</totfact>
</mgrwt>
</event>
<event>
 5    1  0.3267085E-002  0.1249982E+03  0.7818608E-02  0.1235072E+00
          4   -1    0    0  501    0  0.00000000000E+00  0.00000000000E+00  0.18927769808E+03  0.18928195870E+03  0.12700000000E+01 0.  1.
         -4   -1    0    0    0  501 -0.00000000000E+00 -0.00000000000E+00 -0.20613038542E+02  0.20652124780E+02  0.12700000000E+01 0.  1.
         25    2    1    2    0    0  0.00000000000E+00  0.00000000000E+00  0.16866465953E+03  0.20993408348E+03  0.12499820811E+03 0.  0.
    9000005    1    3    3    0    0 -0.16220249781E+02 -0.12701596723E+02 -0.14753863900E+02  0.25359486633E+02  0.10000000000E+01 0.  0.
    9000005    1    3    3    0    0  0.16220249781E+02  0.12701596723E+02  0.18341852343E+03  0.18457459685E+03  0.10000000000E+01 0.  0.
<mgrwt>
<rscale>  0 0.12499821E+03</rscale>
<asrwt>0</asrwt>
<pdfrwt beam="1">  1        4 0.29122980E-01 0.12499821E+03</pdfrwt>
<pdfrwt beam="2">  1       -4 0.31745711E-02 0.12499821E+03</pdfrwt>
<totfact> 0.88490192E+03</totfact>
</mgrwt>
</event>
<event>
 5    1  0.3267085E-002  0.1250028E+03  0.7818608E-02  0.1235065E+00
         -4   -1    0    0    0  501 -0.00000000000E+00  0.00000000000E+00  0.53582202649E+02  0.53597251242E+02  0.12700000000E+01 0. -1.
          4   -1    0    0  501    0  0.00000000000E+00 -0.00000000000E+00 -0.72874431400E+02  0.72885496856E+02  0.12700000000E+01 0. -1.
         25    2    1    2    0    0  0.00000000000E+00  0.00000000000E+00 -0.19292228752E+02  0.12648274810E+03  0.12500278187E+03 0.  0.
    9000005    1    3    3    0    0 -0.91687359947E+01 -0.55055792448E+02 -0.38089745473E+02  0.67579839539E+02  0.10000000000E+01 0.  0.
    9000005    1    3    3    0    0  0.91687359947E+01  0.55055792448E+02  0.18797516722E+02  0.58902908559E+02  0.10000000000E+01 0.  0.
<mgrwt>
<rscale>  0 0.12500278E+03</rscale>
<asrwt>0</asrwt>
<pdfrwt beam="2">  1        4 0.11213460E-01 0.12500278E+03</pdfrwt>
<pdfrwt beam="1">  1       -4 0.82454245E-02 0.12500278E+03</pdfrwt>
<totfact> 0.10419750E+04</totfact>
</mgrwt>
</event>
<event>
 5    1  0.3267085E-002  0.1249995E+03  0.7818608E-02  0.1235070E+00
         -4   -1    0    0    0  501 -0.00000000000E+00  0.00000000000E+00  0.69608451650E+01  0.70757519326E+01  0.12700000000E+01 0. -1.
          4   -1    0    0  501    0  0.00000000000E+00 -0.00000000000E+00 -0.55646110563E+03  0.55646255488E+03  0.12700000000E+01 0. -1.
         25    2    1    2    0    0  0.00000000000E+00  0.00000000000E+00 -0.54950026047E+03  0.56353830681E+03  0.12499954796E+03 0.  0.
    9000005    1    3    3    0    0  0.74476304554E+01 -0.27408044120E+02 -0.52570435509E+03  0.52647197175E+03  0.10000000000E+01 0.  0.
    9000005    1    3    3    0    0 -0.74476304554E+01  0.27408044120E+02 -0.23795905380E+02  0.37066335059E+02  0.10000000000E+01 0.  0.
<mgrwt>
<rscale>  0 0.12499955E+03</rscale>
<asrwt>0</asrwt>
<pdfrwt beam="2">  1        4 0.85618316E-01 0.12499955E+03</pdfrwt>
<pdfrwt beam="1">  1       -4 0.10798502E-02 0.12499955E+03</pdfrwt>
<totfact> 0.51253670E+03</totfact>
</mgrwt>
</event>
<event>
 5    1  0.3267085E-002  0.1250039E+03  0.7818608E-02  0.1235063E+00
         -4   -1    0    0    0  501 -0.00000000000E+00  0.00000000000E+00  0.38015805770E+02  0.38037013399E+02  0.12700000000E+01 0. -1.
          4   -1    0    0  501    0  0.00000000000E+00 -0.00000000000E+00 -0.10270595793E+03  0.10271380965E+03  0.12700000000E+01 0. -1.
         25    2    1    2    0    0  0.00000000000E+00  0.00000000000E+00 -0.64690152155E+02  0.14075082305E+03  0.12500391355E+03 0.  0.
    9000005    1    3    3    0    0  0.13862532208E+02 -0.48712354709E+02 -0.73569027100E+02  0.89322253940E+02  0.10000000000E+01 0.  0.
    9000005    1    3    3    0    0 -0.13862532208E+02  0.48712354709E+02  0.88788749447E+01  0.51428569111E+02  0.10000000000E+01 0.  0.
<mgrwt>
<rscale>  0 0.12500391E+03</rscale>
<asrwt>0</asrwt>
<pdfrwt beam="2">  1        4 0.15803152E-01 0.12500391E+03</pdfrwt>
<pdfrwt beam="1">  1       -4 0.58508209E-02 0.12500391E+03</pdfrwt>
<totfact> 0.10117156E+04</totfact>
</mgrwt>
</event>
<event>
 5    1  0.3267085E-002  0.1249942E+03  0.7818608E-02  0.1235078E+00
         -4   -1    0    0    0  501 -0.00000000000E+00  0.00000000000E+00  0.28852395955E+03  0.28852675463E+03  0.12700000000E+01 0.  1.
          4   -1    0    0  501    0  0.00000000000E+00 -0.00000000000E+00 -0.13504821035E+02  0.13564405302E+02  0.12700000000E+01 0.  1.
         25    2    1    2    0    0  0.00000000000E+00  0.00000000000E+00  0.27501913852E+03  0.30209115993E+03  0.12499416929E+03 0.  0.
    9000005    1    3    3    0    0  0.53808491819E+02 -0.48278208203E+01  0.21340856563E+03  0.22014285710E+03  0.10000000000E+01 0.  0.
    9000005    1    3    3    0    0 -0.53808491819E+02  0.48278208203E+01  0.61610572883E+02  0.81948302830E+02  0.10000000000E+01 0.  0.
<mgrwt>
<rscale>  0 0.12499417E+03</rscale>
<asrwt>0</asrwt>
<pdfrwt beam="2">  1        4 0.20824633E-02 0.12499417E+03</pdfrwt>
<pdfrwt beam="1">  1       -4 0.44393098E-01 0.12499417E+03</pdfrwt>
<totfact> 0.75347025E+03</totfact>
</mgrwt>
</event>
<event>
 5    1  0.3267085E-002  0.1250036E+03  0.7818608E-02  0.1235064E+00
         -4   -1    0    0    0  501 -0.00000000000E+00  0.00000000000E+00  0.12459868922E+03  0.12460516143E+03  0.12700000000E+01 0.  1.
          4   -1    0    0  501    0  0.00000000000E+00 -0.00000000000E+00 -0.31332319249E+02  0.31358047285E+02  0.12700000000E+01 0.  1.
         25    2    1    2    0    0  0.00000000000E+00  0.00000000000E+00  0.93266369969E+02  0.15596320872E+03  0.12500362677E+03 0.  0.
    9000005    1    3    3    0    0  0.58934033107E+02 -0.29968990328E+01  0.72302298148E+02  0.93331795116E+02  0.10000000000E+01 0.  0.
    9000005    1    3    3    0    0 -0.58934033107E+02  0.29968990328E+01  0.20964071822E+02  0.62631413599E+02  0.10000000000E+01 0.  0.
<mgrwt>
<rscale>  0 0.12500363E+03</rscale>
<asrwt>0</asrwt>
<pdfrwt beam="2">  1        4 0.48228337E-02 0.12500363E+03</pdfrwt>
<pdfrwt beam="1">  1       -4 0.19171506E-01 0.12500363E+03</pdfrwt>
<totfact> 0.98118738E+03</totfact>
</mgrwt>
</event>
<event>
 5    1  0.3267085E-002  0.1250000E+03  0.7818608E-02  0.1235069E+00
         -4   -1    0    0    0  501 -0.00000000000E+00  0.00000000000E+00  0.39042182161E+02  0.39062832563E+02  0.12700000000E+01 0.  1.
          4   -1    0    0  501    0  0.00000000000E+00 -0.00000000000E+00 -0.10000090074E+03  0.10000896484E+03  0.12700000000E+01 0.  1.
         25    2    1    2    0    0  0.00000000000E+00  0.00000000000E+00 -0.60958718577E+02  0.13907179740E+03  0.12499999785E+03 0.  0.
    9000005    1    3    3    0    0 -0.21471532290E+01 -0.31140124126E+01 -0.99878879812E+02  0.99955479954E+02  0.10000000000E+01 0.  0.
    9000005    1    3    3    0    0  0.21471532290E+01  0.31140124126E+01  0.38920161235E+02  0.39116317450E+02  0.10000000000E+01 0.  0.
<mgrwt>
<rscale>  0 0.12500000E+03</rscale>
<asrwt>0</asrwt>
<pdfrwt beam="2">  1        4 0.15386963E-01 0.12500000E+03</pdfrwt>
<pdfrwt beam="1">  1       -4 0.60086984E-02 0.12500000E+03</pdfrwt>
<totfact> 0.10152860E+04</totfact>
</mgrwt>
</event>
<event>
 5    1  0.3267085E-002  0.1249832E+03  0.7818608E-02  0.1235096E+00
          4   -1    0    0  501    0  0.00000000000E+00  0.00000000000E+00  0.40679892464E+03  0.40680090706E+03  0.12700000000E+01 0. -1.
         -4   -1    0    0    0  501 -0.00000000000E+00 -0.00000000000E+00 -0.95558128119E+01  0.96398370575E+01  0.12700000000E+01 0. -1.
         25    2    1    2    0    0  0.00000000000E+00  0.00000000000E+00  0.39724311183E+03  0.41644074412E+03  0.12498321275E+03 0.  0.
    9000005    1    3    3    0    0  0.16727137356E+02  0.49300846103E+02  0.83495710789E+02  0.98401749328E+02  0.10000000000E+01 0.  0.
    9000005    1    3    3    0    0 -0.16727137356E+02 -0.49300846103E+02  0.31374740104E+03  0.31803899479E+03  0.10000000000E+01 0.  0.
<mgrwt>
<rscale>  0 0.12498321E+03</rscale>
<asrwt>0</asrwt>
<pdfrwt beam="1">  1        4 0.62591076E-01 0.12498321E+03</pdfrwt>
<pdfrwt beam="2">  1       -4 0.14767407E-02 0.12498321E+03</pdfrwt>
<totfact> 0.63007910E+03</totfact>
</mgrwt>
</event>
<event>
 5    1  0.3267085E-002  0.1250026E+03  0.7818608E-02  0.1235065E+00
          4   -1    0    0  501    0  0.00000000000E+00  0.00000000000E+00  0.56214584937E+01  0.57631324465E+01  0.12700000000E+01 0. -1.
         -4   -1    0    0    0  501 -0.00000000000E+00 -0.00000000000E+00 -0.68612079089E+03  0.68612196627E+03  0.12700000000E+01 0. -1.
         25    2    1    2    0    0  0.00000000000E+00  0.00000000000E+00 -0.68049933240E+03  0.69188509871E+03  0.12500259368E+03 0.  0.
    9000005    1    3    3    0    0 -0.20772443880E+02 -0.35292376551E+02 -0.78968443945E+02  0.88961010597E+02  0.10000000000E+01 0.  0.
    9000005    1    3    3    0    0  0.20772443880E+02  0.35292376551E+02 -0.60153088845E+03  0.60292408812E+03  0.10000000000E+01 0.  0.
<mgrwt>
<rscale>  0 0.12500259E+03</rscale>
<asrwt>0</asrwt>
<pdfrwt beam="1">  1        4 0.87582872E-03 0.12500259E+03</pdfrwt>
<pdfrwt beam="2">  1       -4 0.10556797E+00 0.12500259E+03</pdfrwt>
<totfact> 0.43516091E+03</totfact>
</mgrwt>
</event>
<event>
 5    1  0.3267085E-002  0.1250022E+03  0.7818608E-02  0.1235066E+00
          4   -1    0    0  501    0  0.00000000000E+00  0.00000000000E+00  0.51438709864E+02  0.51454385357E+02  0.12700000000E+01 0.  1.
         -4   -1    0    0    0  501 -0.00000000000E+00 -0.00000000000E+00 -0.75909992184E+02  0.75920615207E+02  0.12700000000E+01 0.  1.
         25    2    1    2    0    0  0.00000000000E+00  0.00000000000E+00 -0.24471282321E+02  0.12737500056E+03  0.12500218842E+03 0.  0.
    9000005    1    3    3    0    0  0.37431719991E+02 -0.49303098807E+02 -0.20969071168E+02  0.65365366664E+02  0.10000000000E+01 0.  0.
    9000005    1    3    3    0    0 -0.37431719991E+02  0.49303098807E+02 -0.35022111524E+01  0.62009633900E+02  0.10000000000E+01 0.  0.
<mgrwt>
<rscale>  0 0.12500219E+03</rscale>
<asrwt>0</asrwt>
<pdfrwt beam="1">  1        4 0.79156706E-02 0.12500219E+03</pdfrwt>
<pdfrwt beam="2">  1       -4 0.11680483E-01 0.12500219E+03</pdfrwt>
<totfact> 0.10400495E+04</totfact>
</mgrwt>
</event>
<event>
 5    1  0.3267085E-002  0.1249991E+03  0.7818608E-02  0.1235071E+00
         -4   -1    0    0    0  501 -0.00000000000E+00  0.00000000000E+00  0.11909430079E+04  0.11909436850E+04  0.12700000000E+01 0.  1.
          4   -1    0    0  501    0  0.00000000000E+00 -0.00000000000E+00 -0.31562735433E+01  0.34021996826E+01  0.12700000000E+01 0.  1.
         25    2    1    2    0    0  0.00000000000E+00  0.00000000000E+00  0.11877867343E+04  0.11943458847E+04  0.12499906427E+03 0.  0.
    9000005    1    3    3    0    0 -0.51904846224E+02 -0.16008637396E+02  0.29865009360E+03  0.30355109609E+03  0.10000000000E+01 0.  0.
    9000005    1    3    3    0    0  0.51904846224E+02  0.16008637396E+02  0.88913664073E+03  0.89079478861E+03  0.10000000000E+01 0.  0.
<mgrwt>
<rscale>  0 0.12499906E+03</rscale>
<asrwt>0</asrwt>
<pdfrwt beam="2">  1        4 0.50455017E-03 0.12499906E+03</pdfrwt>
<pdfrwt beam="1">  1       -4 0.18324092E+00 0.12499906E+03</pdfrwt>
<totfact> 0.24861740E+03</totfact>
</mgrwt>
</event>
<event>
 5    1  0.3267085E-002  0.1249960E+03  0.7818608E-02  0.1235076E+00
         -4   -1    0    0    0  501 -0.00000000000E+00  0.00000000000E+00  0.46507905051E+01  0.48210737728E+01  0.12700000000E+01 0. -1.
          4   -1    0    0  501    0  0.00000000000E+00 -0.00000000000E+00 -0.82458732430E+03  0.82458830231E+03  0.12700000000E+01 0. -1.
         25    2    1    2    0    0  0.00000000000E+00  0.00000000000E+00 -0.81993653380E+03  0.82940937608E+03  0.12499597462E+03 0.  0.
    9000005    1    3    3    0    0 -0.43892154331E+02  0.15138580533E+02 -0.13244133525E+03  0.14034744428E+03  0.10000000000E+01 0.  0.
    9000005    1    3    3    0    0  0.43892154331E+02 -0.15138580533E+02 -0.68749519855E+03  0.68906193180E+03  0.10000000000E+01 0.  0.
<mgrwt>
<rscale>  0 0.12499597E+03</rscale>
<asrwt>0</asrwt>
<pdfrwt beam="2">  1        4 0.12687265E+00 0.12499597E+03</pdfrwt>
<pdfrwt beam="1">  1       -4 0.72868083E-03 0.12499597E+03</pdfrwt>
<totfact> 0.36988316E+03</totfact>
</mgrwt>
</event>
<event>
 5    1  0.3267085E-002  0.1249986E+03  0.7818608E-02  0.1235071E+00
         -4   -1    0    0    0  501 -0.00000000000E+00  0.00000000000E+00  0.35384396460E+03  0.35384624370E+03  0.12700000000E+01 0.  1.
          4   -1    0    0  501    0  0.00000000000E+00 -0.00000000000E+00 -0.11000372668E+02  0.11073441147E+02  0.12700000000E+01 0.  1.
         25    2    1    2    0    0  0.00000000000E+00  0.00000000000E+00  0.34284359193E+03  0.36491968485E+03  0.12499859145E+03 0.  0.
    9000005    1    3    3    0    0 -0.31481865649E+02 -0.41162449296E+02  0.69464124872E+02  0.86670177922E+02  0.10000000000E+01 0.  0.
    9000005    1    3    3    0    0  0.31481865649E+02  0.41162449296E+02  0.27337946706E+03  0.27824950693E+03  0.10000000000E+01 0.  0.
<mgrwt>
<rscale>  0 0.12499859E+03</rscale>
<asrwt>0</asrwt>
<pdfrwt beam="2">  1        4 0.16981609E-02 0.12499859E+03</pdfrwt>
<pdfrwt beam="1">  1       -4 0.54443332E-01 0.12499859E+03</pdfrwt>
<totfact> 0.68115921E+03</totfact>
</mgrwt>
</event>
<event>
 5    1  0.3267085E-002  0.1249981E+03  0.7818608E-02  0.1235072E+00
          4   -1    0    0  501    0  0.00000000000E+00  0.00000000000E+00  0.12069420432E+03  0.12070088589E+03  0.12700000000E+01 0.  1.
         -4   -1    0    0    0  501 -0.00000000000E+00 -0.00000000000E+00 -0.32343830913E+02  0.32368754967E+02  0.12700000000E+01 0.  1.
         25    2    1    2    0    0  0.00000000000E+00  0.00000000000E+00  0.88350373404E+02  0.15306964086E+03  0.12499810588E+03 0.  0.
    9000005    1    3    3    0    0 -0.56283720171E+02 -0.41435651733E+01  0.11313969670E+02  0.57567631516E+02  0.10000000000E+01 0.  0.
    9000005    1    3    3    0    0  0.56283720171E+02  0.41435651733E+01  0.77036403735E+02  0.95502009346E+02  0.10000000000E+01 0.  0.
<mgrwt>
<rscale>  0 0.12499811E+03</rscale>
<asrwt>0</asrwt>
<pdfrwt beam="1">  1        4 0.18570770E-01 0.12499811E+03</pdfrwt>
<pdfrwt beam="2">  1       -4 0.49784052E-02 0.12499811E+03</pdfrwt>
<totfact> 0.98699499E+03</totfact>
</mgrwt>
</event>
<event>
 5    1  0.3267085E-002  0.1250012E+03  0.7818608E-02  0.1235067E+00
          4   -1    0    0  501    0  0.00000000000E+00  0.00000000000E+00  0.23378950142E+03  0.23379295086E+03  0.12700000000E+01 0.  1.
         -4   -1    0    0    0  501 -0.00000000000E+00 -0.00000000000E+00 -0.16681016266E+02  0.16729291787E+02  0.12700000000E+01 0.  1.
         25    2    1    2    0    0  0.00000000000E+00  0.00000000000E+00  0.21710848515E+03  0.25052224265E+03  0.12500119894E+03 0.  0.
    9000005    1    3    3    0    0  0.53815186160E+02 -0.17915748758E+01  0.17212244604E+03  0.18035082598E+03  0.10000000000E+01 0.  0.
    9000005    1    3    3    0    0 -0.53815186160E+02  0.17915748758E+01  0.44986039109E+02  0.70171416665E+02  0.10000000000E+01 0.  0.
<mgrwt>
<rscale>  0 0.12500120E+03</rscale>
<asrwt>0</asrwt>
<pdfrwt beam="1">  1        4 0.35971594E-01 0.12500120E+03</pdfrwt>
<pdfrwt beam="2">  1       -4 0.25702890E-02 0.12500120E+03</pdfrwt>
<totfact> 0.82252608E+03</totfact>
</mgrwt>
</event>
<event>
 5    1  0.3267085E-002  0.1249984E+03  0.7818608E-02  0.1235072E+00
          4   -1    0    0  501    0  0.00000000000E+00  0.00000000000E+00  0.12602282293E+03  0.12602922201E+03  0.12700000000E+01 0.  1.
         -4   -1    0    0    0  501 -0.00000000000E+00 -0.00000000000E+00 -0.30975381006E+02  0.31001405266E+02  0.12700000000E+01 0.  1.
         25    2    1    2    0    0  0.00000000000E+00  0.00000000000E+00  0.95047441929E+02  0.15703062728E+03  0.12499840673E+03 0.  0.
    9000005    1    3    3    0    0 -0.45919047619E+02 -0.35024645862E+02  0.17534434318E+02  0.60363408939E+02  0.10000000000E+01 0.  0.
    9000005    1    3    3    0    0  0.45919047619E+02  0.35024645862E+02  0.77513007611E+02  0.96667218336E+02  0.10000000000E+01 0.  0.
<mgrwt>
<rscale>  0 0.12499841E+03</rscale>
<asrwt>0</asrwt>
<pdfrwt beam="1">  1        4 0.19390621E-01 0.12499841E+03</pdfrwt>
<pdfrwt beam="2">  1       -4 0.47679374E-02 0.12499841E+03</pdfrwt>
<totfact> 0.97921838E+03</totfact>
</mgrwt>
</event>
<event>
 5    1  0.3267085E-002  0.1249975E+03  0.7818608E-02  0.1235073E+00
         -4   -1    0    0    0  501 -0.00000000000E+00  0.00000000000E+00  0.47347536930E+02  0.47364566432E+02  0.12700000000E+01 0.  1.
          4   -1    0    0  501    0  0.00000000000E+00 -0.00000000000E+00 -0.82461552203E+02  0.82471331332E+02  0.12700000000E+01 0.  1.
         25    2    1    2    0    0  0.00000000000E+00  0.00000000000E+00 -0.35114015273E+02  0.12983589776E+03  0.12499746509E+03 0.  0.
    9000005    1    3    3    0    0  0.23920572245E+02 -0.12175960216E+01 -0.77509599672E+02  0.81132079709E+02  0.10000000000E+01 0.  0.
    9000005    1    3    3    0    0 -0.23920572245E+02  0.12175960216E+01  0.42395584399E+02  0.48703818055E+02  0.10000000000E+01 0.  0.
<mgrwt>
<rscale>  0 0.12499747E+03</rscale>
<asrwt>0</asrwt>
<pdfrwt beam="2">  1        4 0.12688455E-01 0.12499747E+03</pdfrwt>
<pdfrwt beam="1">  1       -4 0.72862987E-02 0.12499747E+03</pdfrwt>
<totfact> 0.10348611E+04</totfact>
</mgrwt>
</event>
<event>
 5    1  0.3267085E-002  0.1250019E+03  0.7818608E-02  0.1235066E+00
         -4   -1    0    0    0  501 -0.00000000000E+00  0.00000000000E+00  0.14566155695E+03  0.14566709331E+03  0.12700000000E+01 0.  1.
          4   -1    0    0  501    0  0.00000000000E+00 -0.00000000000E+00 -0.26797019349E+02  0.26827097234E+02  0.12700000000E+01 0.  1.
         25    2    1    2    0    0  0.00000000000E+00  0.00000000000E+00  0.11886453761E+03  0.17249419055E+03  0.12500186987E+03 0.  0.
    9000005    1    3    3    0    0 -0.47303390846E+02  0.36315558312E+02  0.33655347619E+02  0.68484399570E+02  0.10000000000E+01 0.  0.
    9000005    1    3    3    0    0  0.47303390846E+02 -0.36315558312E+02  0.85209189986E+02  0.10400979098E+03  0.10000000000E+01 0.  0.
<mgrwt>
<rscale>  0 0.12500187E+03</rscale>
<asrwt>0</asrwt>
<pdfrwt beam="2">  1        4 0.41253579E-02 0.12500187E+03</pdfrwt>
<pdfrwt beam="1">  1       -4 0.22412210E-01 0.12500187E+03</pdfrwt>
<totfact> 0.94981802E+03</totfact>
</mgrwt>
</event>
<event>
 5    1  0.3267085E-002  0.1249971E+03  0.7818608E-02  0.1235074E+00
         -4   -1    0    0    0  501 -0.00000000000E+00  0.00000000000E+00  0.96879499122E+02  0.96887823023E+02  0.12700000000E+01 0. -1.
          4   -1    0    0  501    0  0.00000000000E+00 -0.00000000000E+00 -0.40298801870E+02  0.40318808665E+02  0.12700000000E+01 0. -1.
         25    2    1    2    0    0  0.00000000000E+00  0.00000000000E+00  0.56580697252E+02  0.13720663169E+03  0.12499713788E+03 0.  0.
    9000005    1    3    3    0    0 -0.49367206528E+02  0.29165319451E+02  0.10172052391E+01  0.57356530976E+02  0.10000000000E+01 0.  0.
    9000005    1    3    3    0    0  0.49367206528E+02 -0.29165319451E+02  0.55563492013E+02  0.79850100712E+02  0.10000000000E+01 0.  0.
<mgrwt>
<rscale>  0 0.12499714E+03</rscale>
<asrwt>0</asrwt>
<pdfrwt beam="2">  1        4 0.62019950E-02 0.12499714E+03</pdfrwt>
<pdfrwt beam="1">  1       -4 0.14906717E-01 0.12499714E+03</pdfrwt>
<totfact> 0.10192425E+04</totfact>
</mgrwt>
</event>
<event>
 5    1  0.3267085E-002  0.1249949E+03  0.7818608E-02  0.1235077E+00
          4   -1    0    0  501    0  0.00000000000E+00  0.00000000000E+00  0.40090243105E+02  0.40110353928E+02  0.12700000000E+01 0.  1.
         -4   -1    0    0    0  501 -0.00000000000E+00 -0.00000000000E+00 -0.97379767625E+02  0.97388048768E+02  0.12700000000E+01 0.  1.
         25    2    1    2    0    0  0.00000000000E+00  0.00000000000E+00 -0.57289524520E+02  0.13749840270E+03  0.12499488439E+03 0.  0.
    9000005    1    3    3    0    0  0.55895175938E+02 -0.27623564503E+02 -0.24030094610E+02  0.66826472718E+02  0.10000000000E+01 0.  0.
    9000005    1    3    3    0    0 -0.55895175938E+02  0.27623564503E+02 -0.33259429910E+02  0.70671929978E+02  0.10000000000E+01 0.  0.
<mgrwt>
<rscale>  0 0.12499488E+03</rscale>
<asrwt>0</asrwt>
<pdfrwt beam="1">  1        4 0.61699137E-02 0.12499488E+03</pdfrwt>
<pdfrwt beam="2">  1       -4 0.14983687E-01 0.12499488E+03</pdfrwt>
<totfact> 0.10186850E+04</totfact>
</mgrwt>
</event>
<event>
 5    1  0.3267085E-002  0.1249991E+03  0.7818608E-02  0.1235071E+00
          4   -1    0    0  501    0  0.00000000000E+00  0.00000000000E+00  0.82512572531E+03  0.82512670268E+03  0.12700000000E+01 0.  1.
         -4   -1    0    0    0  501 -0.00000000000E+00 -0.00000000000E+00 -0.46478881204E+01  0.48182739627E+01  0.12700000000E+01 0.  1.
         25    2    1    2    0    0  0.00000000000E+00  0.00000000000E+00  0.82047783719E+03  0.82994497664E+03  0.12499913171E+03 0.  0.
    9000005    1    3    3    0    0  0.52892423254E+02  0.32986549689E+02  0.38093813832E+03  0.38600594053E+03  0.10000000000E+01 0.  0.
    9000005    1    3    3    0    0 -0.52892423254E+02 -0.32986549689E+02  0.43953969887E+03  0.44393903610E+03  0.10000000000E+01 0.  0.
<mgrwt>
<rscale>  0 0.12499913E+03</rscale>
<asrwt>0</asrwt>
<pdfrwt beam="1">  1        4 0.12695554E+00 0.12499913E+03</pdfrwt>
<pdfrwt beam="2">  1       -4 0.72824186E-03 0.12499913E+03</pdfrwt>
<totfact> 0.36963051E+03</totfact>
</mgrwt>
</event>
<event>
 5    1  0.3267085E-002  0.1249904E+03  0.7818608E-02  0.1235084E+00
         -4   -1    0    0    0  501 -0.00000000000E+00  0.00000000000E+00  0.89458531504E+02  0.89467545841E+02  0.12700000000E+01 0. -1.
          4   -1    0    0  501    0  0.00000000000E+00 -0.00000000000E+00 -0.43638318388E+02  0.43656794794E+02  0.12700000000E+01 0. -1.
         25    2    1    2    0    0  0.00000000000E+00  0.00000000000E+00  0.45820213116E+02  0.13312434064E+03  0.12499039219E+03 0.  0.
    9000005    1    3    3    0    0 -0.25493442504E+02 -0.16445896291E+02  0.81093578759E+02  0.86588403562E+02  0.10000000000E+01 0.  0.
    9000005    1    3    3    0    0  0.25493442504E+02  0.16445896291E+02 -0.35273365643E+02  0.46535937073E+02  0.10000000000E+01 0.  0.
<mgrwt>
<rscale>  0 0.12499039E+03</rscale>
<asrwt>0</asrwt>
<pdfrwt beam="2">  1        4 0.67157022E-02 0.12499039E+03</pdfrwt>
<pdfrwt beam="1">  1       -4 0.13764966E-01 0.12499039E+03</pdfrwt>
<totfact> 0.10279986E+04</totfact>
</mgrwt>
</event>
<event>
 5    1  0.3267085E-002  0.1249935E+03  0.7818608E-02  0.1235079E+00
          4   -1    0    0  501    0  0.00000000000E+00  0.00000000000E+00  0.42696905650E+02  0.42715789260E+02  0.12700000000E+01 0. -1.
         -4   -1    0    0    0  501 -0.00000000000E+00 -0.00000000000E+00 -0.91434846265E+02  0.91443665781E+02  0.12700000000E+01 0. -1.
         25    2    1    2    0    0  0.00000000000E+00  0.00000000000E+00 -0.48737940615E+02  0.13415945504E+03  0.12499348992E+03 0.  0.
    9000005    1    3    3    0    0 -0.20966624509E+01 -0.62449742814E+02 -0.25110081705E+02  0.67348961197E+02  0.10000000000E+01 0.  0.
    9000005    1    3    3    0    0  0.20966624509E+01  0.62449742814E+02 -0.23627858910E+02  0.66810493844E+02  0.10000000000E+01 0.  0.
<mgrwt>
<rscale>  0 0.12499349E+03</rscale>
<asrwt>0</asrwt>
<pdfrwt beam="1">  1        4 0.65708857E-02 0.12499349E+03</pdfrwt>
<pdfrwt beam="2">  1       -4 0.14069030E-01 0.12499349E+03</pdfrwt>
<totfact> 0.10257324E+04</totfact>
</mgrwt>
</event>
<event>
 5    1  0.3267085E-002  0.1249972E+03  0.7818608E-02  0.1235074E+00
          4   -1    0    0  501    0  0.00000000000E+00  0.00000000000E+00  0.11461666131E+02  0.11531812108E+02  0.12700000000E+01 0. -1.
         -4   -1    0    0    0  501 -0.00000000000E+00 -0.00000000000E+00 -0.33968354468E+03  0.33968591879E+03  0.12700000000E+01 0. -1.
         25    2    1    2    0    0  0.00000000000E+00  0.00000000000E+00 -0.32822187855E+03  0.35121773090E+03  0.12499717173E+03 0.  0.
    9000005    1    3    3    0    0  0.74594710595E+00 -0.37635477834E+02 -0.30426609563E+03  0.30658741425E+03  0.10000000000E+01 0.  0.
    9000005    1    3    3    0    0 -0.74594710595E+00  0.37635477834E+02 -0.23955782920E+02  0.44630316649E+02  0.10000000000E+01 0.  0.
<mgrwt>
<rscale>  0 0.12499717E+03</rscale>
<asrwt>0</asrwt>
<pdfrwt beam="1">  1        4 0.17689120E-02 0.12499717E+03</pdfrwt>
<pdfrwt beam="2">  1       -4 0.52264578E-01 0.12499717E+03</pdfrwt>
<totfact> 0.69595157E+03</totfact>
</mgrwt>
</event>
<event>
 5    1  0.3267085E-002  0.1250050E+03  0.7818608E-02  0.1235062E+00
          4   -1    0    0  501    0  0.00000000000E+00  0.00000000000E+00  0.53644557119E+01  0.55127384380E+01  0.12700000000E+01 0. -1.
         -4   -1    0    0    0  501 -0.00000000000E+00 -0.00000000000E+00 -0.71815414950E+03  0.71815527245E+03  0.12700000000E+01 0. -1.
         25    2    1    2    0    0  0.00000000000E+00  0.00000000000E+00 -0.71278969379E+03  0.72366801089E+03  0.12500496954E+03 0.  0.
    9000005    1    3    3    0    0 -0.15234829426E+02 -0.59495673464E+02 -0.42333998961E+03  0.42777281587E+03  0.10000000000E+01 0.  0.
    9000005    1    3    3    0    0  0.15234829426E+02  0.59495673464E+02 -0.28944970418E+03  0.29589519502E+03  0.10000000000E+01 0.  0.
<mgrwt>
<rscale>  0 0.12500497E+03</rscale>
<asrwt>0</asrwt>
<pdfrwt beam="1">  1        4 0.83679419E-03 0.12500497E+03</pdfrwt>
<pdfrwt beam="2">  1       -4 0.11049667E+00 0.12500497E+03</pdfrwt>
<totfact> 0.41861818E+03</totfact>
</mgrwt>
</event>
<event>
 5    1  0.3267085E-002  0.1249990E+03  0.7818608E-02  0.1235071E+00
         -4   -1    0    0    0  501 -0.00000000000E+00  0.00000000000E+00  0.58503427235E+01  0.59866025408E+01  0.12700000000E+01 0. -1.
          4   -1    0    0  501    0  0.00000000000E+00 -0.00000000000E+00 -0.65986188627E+03  0.65986310841E+03  0.12700000000E+01 0. -1.
         25    2    1    2    0    0  0.00000000000E+00  0.00000000000E+00 -0.65401154354E+03  0.66584971095E+03  0.12499895397E+03 0.  0.
    9000005    1    3    3    0    0  0.10759199238E+02  0.44823982048E+02 -0.10225122264E+03  0.11216622605E+03  0.10000000000E+01 0.  0.
    9000005    1    3    3    0    0 -0.10759199238E+02 -0.44823982048E+02 -0.55176032090E+03  0.55368348490E+03  0.10000000000E+01 0.  0.
<mgrwt>
<rscale>  0 0.12499895E+03</rscale>
<asrwt>0</asrwt>
<pdfrwt beam="2">  1        4 0.10152773E+00 0.12499895E+03</pdfrwt>
<pdfrwt beam="1">  1       -4 0.91062879E-03 0.12499895E+03</pdfrwt>
<totfact> 0.44952780E+03</totfact>
</mgrwt>
</event>
<event>
 5    1  0.3267085E-002  0.1250041E+03  0.7818608E-02  0.1235063E+00
          4   -1    0    0  501    0  0.00000000000E+00  0.00000000000E+00  0.42743247764E+02  0.42762110909E+02  0.12700000000E+01 0. -1.
         -4   -1    0    0    0  501 -0.00000000000E+00 -0.00000000000E+00 -0.91351201514E+02  0.91360029105E+02  0.12700000000E+01 0. -1.
         25    2    1    2    0    0  0.00000000000E+00  0.00000000000E+00 -0.48607953750E+02  0.13412214001E+03  0.12500406103E+03 0.  0.
    9000005    1    3    3    0    0  0.99738294309E+01  0.15708615419E+02 -0.88315265740E+02  0.90259758667E+02  0.10000000000E+01 0.  0.
    9000005    1    3    3    0    0 -0.99738294309E+01 -0.15708615419E+02  0.39707311991E+02  0.43862381347E+02  0.10000000000E+01 0.  0.
<mgrwt>
<rscale>  0 0.12500406E+03</rscale>
<asrwt>0</asrwt>
<pdfrwt beam="1">  1        4 0.65780144E-02 0.12500406E+03</pdfrwt>
<pdfrwt beam="2">  1       -4 0.14056161E-01 0.12500406E+03</pdfrwt>
<totfact> 0.10255668E+04</totfact>
</mgrwt>
</event>
<event>
 5    1  0.3267085E-002  0.1249984E+03  0.7818608E-02  0.1235072E+00
         -4   -1    0    0    0  501 -0.00000000000E+00  0.00000000000E+00  0.75716749882E+03  0.75716856391E+03  0.12700000000E+01 0.  1.
          4   -1    0    0  501    0  0.00000000000E+00 -0.00000000000E+00 -0.50796538418E+01  0.52360083224E+01  0.12700000000E+01 0.  1.
         25    2    1    2    0    0  0.00000000000E+00  0.00000000000E+00  0.75208784498E+03  0.76240457223E+03  0.12499842076E+03 0.  0.
    9000005    1    3    3    0    0  0.35920240809E+02 -0.70014619092E+01  0.68500092832E+03  0.68597853900E+03  0.10000000000E+01 0.  0.
    9000005    1    3    3    0    0 -0.35920240809E+02  0.70014619092E+01  0.67086916659E+02  0.76426033231E+02  0.10000000000E+01 0.  0.
<mgrwt>
<rscale>  0 0.12499842E+03</rscale>
<asrwt>0</asrwt>
<pdfrwt beam="2">  1        4 0.79359477E-03 0.12499842E+03</pdfrwt>
<pdfrwt beam="1">  1       -4 0.11649936E+00 0.12499842E+03</pdfrwt>
<totfact> 0.39989136E+03</totfact>
</mgrwt>
</event>
<event>
 5    1  0.3267085E-002  0.1250008E+03  0.7818608E-02  0.1235068E+00
          4   -1    0    0  501    0  0.00000000000E+00  0.00000000000E+00  0.11376886787E+04  0.11376893875E+04  0.12700000000E+01 0.  1.
         -4   -1    0    0    0  501 -0.00000000000E+00 -0.00000000000E+00 -0.33153718610E+01  0.35502944352E+01  0.12700000000E+01 0.  1.
         25    2    1    2    0    0  0.00000000000E+00  0.00000000000E+00  0.11343733068E+04  0.11412396820E+04  0.12500084986E+03 0.  0.
    9000005    1    3    3    0    0 -0.36379510243E+02 -0.28463814591E+02  0.95147067283E+03  0.95259177970E+03  0.10000000000E+01 0.  0.
    9000005    1    3    3    0    0  0.36379510243E+02  0.28463814591E+02  0.18290263399E+03  0.18864790226E+03  0.10000000000E+01 0.  0.
<mgrwt>
<rscale>  0 0.12500085E+03</rscale>
<asrwt>0</asrwt>
<pdfrwt beam="1">  1        4 0.17504731E+00 0.12500085E+03</pdfrwt>
<pdfrwt beam="2">  1       -4 0.52818224E-03 0.12500085E+03</pdfrwt>
<totfact> 0.26304038E+03</totfact>
</mgrwt>
</event>
<event>
 5    1  0.3267085E-002  0.1249980E+03  0.7818608E-02  0.1235072E+00
          4   -1    0    0  501    0  0.00000000000E+00  0.00000000000E+00  0.45040386954E+03  0.45040566004E+03  0.12700000000E+01 0.  1.
         -4   -1    0    0    0  501 -0.00000000000E+00 -0.00000000000E+00 -0.86241786733E+01  0.87171874930E+01  0.12700000000E+01 0.  1.
         25    2    1    2    0    0  0.00000000000E+00  0.00000000000E+00  0.44177969086E+03  0.45912284753E+03  0.12499797544E+03 0.  0.
    9000005    1    3    3    0    0  0.21835589909E+02  0.38761569785E+02  0.59699307636E+02  0.74459785193E+02  0.10000000000E+01 0.  0.
    9000005    1    3    3    0    0 -0.21835589909E+02 -0.38761569785E+02  0.38208038323E+03  0.38466306234E+03  0.10000000000E+01 0.  0.
<mgrwt>
<rscale>  0 0.12499798E+03</rscale>
<asrwt>0</asrwt>
<pdfrwt beam="1">  1        4 0.69300227E-01 0.12499798E+03</pdfrwt>
<pdfrwt beam="2">  1       -4 0.13340884E-02 0.12499798E+03</pdfrwt>
<totfact> 0.59184171E+03</totfact>
</mgrwt>
</event>
<event>
 5    1  0.3267085E-002  0.1249969E+03  0.7818608E-02  0.1235074E+00
          4   -1    0    0  501    0  0.00000000000E+00  0.00000000000E+00  0.15452637723E+03  0.15453159599E+03  0.12700000000E+01 0.  1.
         -4   -1    0    0    0  501 -0.00000000000E+00 -0.00000000000E+00 -0.25255981404E+02  0.25287892294E+02  0.12700000000E+01 0.  1.
         25    2    1    2    0    0  0.00000000000E+00  0.00000000000E+00  0.12927039582E+03  0.17981948828E+03  0.12499685248E+03 0.  0.
    9000005    1    3    3    0    0 -0.85469315269E+01  0.60256686674E+02  0.85037607251E+02  0.10457682809E+03  0.10000000000E+01 0.  0.
    9000005    1    3    3    0    0  0.85469315269E+01 -0.60256686674E+02  0.44232788573E+02  0.75242660189E+02  0.10000000000E+01 0.  0.
<mgrwt>
<rscale>  0 0.12499685E+03</rscale>
<asrwt>0</asrwt>
<pdfrwt beam="1">  1        4 0.23776144E-01 0.12499685E+03</pdfrwt>
<pdfrwt beam="2">  1       -4 0.38883919E-02 0.12499685E+03</pdfrwt>
<totfact> 0.93656116E+03</totfact>
</mgrwt>
</event>
<event>
 5    1  0.3267085E-002  0.1250002E+03  0.7818608E-02  0.1235069E+00
          4   -1    0    0  501    0  0.00000000000E+00  0.00000000000E+00  0.82359300505E+03  0.82359398423E+03  0.12700000000E+01 0.  1.
         -4   -1    0    0    0  501 -0.00000000000E+00 -0.00000000000E+00 -0.46569366002E+01  0.48270030556E+01  0.12700000000E+01 0.  1.
         25    2    1    2    0    0  0.00000000000E+00  0.00000000000E+00  0.81893606845E+03  0.82842098729E+03  0.12500019190E+03 0.  0.
    9000005    1    3    3    0    0 -0.46090996885E+02 -0.40961587559E+02  0.47673827606E+03  0.48071053193E+03  0.10000000000E+01 0.  0.
    9000005    1    3    3    0    0  0.46090996885E+02  0.40961587559E+02  0.34219779239E+03  0.34771045536E+03  0.10000000000E+01 0.  0.
<mgrwt>
<rscale>  0 0.12500019E+03</rscale>
<asrwt>0</asrwt>
<pdfrwt beam="1">  1        4 0.12671970E+00 0.12500019E+03</pdfrwt>
<pdfrwt beam="2">  1       -4 0.72960956E-03 0.12500019E+03</pdfrwt>
<totfact> 0.37026845E+03</totfact>
</mgrwt>
</event>
<event>
 5    1  0.3267085E-002  0.1250011E+03  0.7818608E-02  0.1235068E+00
         -4   -1    0    0    0  501 -0.00000000000E+00  0.00000000000E+00  0.45614940835E+02  0.45632616924E+02  0.12700000000E+01 0.  1.
          4   -1    0    0  501    0  0.00000000000E+00 -0.00000000000E+00 -0.85597790015E+02  0.85607210884E+02  0.12700000000E+01 0.  1.
         25    2    1    2    0    0  0.00000000000E+00  0.00000000000E+00 -0.39982849180E+02  0.13123982781E+03  0.12500105669E+03 0.  0.
    9000005    1    3    3    0    0  0.39580519829E+02 -0.40163221055E+02  0.82902320057E+01  0.57003770245E+02  0.10000000000E+01 0.  0.
    9000005    1    3    3    0    0 -0.39580519829E+02  0.40163221055E+02 -0.48273081186E+02  0.74236057564E+02  0.10000000000E+01 0.  0.
<mgrwt>
<rscale>  0 0.12500106E+03</rscale>
<asrwt>0</asrwt>
<pdfrwt beam="2">  1        4 0.13170975E-01 0.12500106E+03</pdfrwt>
<pdfrwt beam="1">  1       -4 0.70197676E-02 0.12500106E+03</pdfrwt>
<totfact> 0.10317705E+04</totfact>
</mgrwt>
</event>
<event>
 5    1  0.3267085E-002  0.1249931E+03  0.7818608E-02  0.1235080E+00
         -4   -1    0    0    0  501 -0.00000000000E+00  0.00000000000E+00  0.66662743843E+02  0.66674840207E+02  0.12700000000E+01 0.  1.
          4   -1    0    0  501    0  0.00000000000E+00 -0.00000000000E+00 -0.58566474500E+02  0.58580242705E+02  0.12700000000E+01 0.  1.
         25    2    1    2    0    0  0.00000000000E+00  0.00000000000E+00  0.80962693426E+01  0.12525508291E+03  0.12499314468E+03 0.  0.
    9000005    1    3    3    0    0  0.13192870380E+02 -0.48377357929E+02  0.41414357090E+02  0.65042828676E+02  0.10000000000E+01 0.  0.
    9000005    1    3    3    0    0 -0.13192870380E+02  0.48377357929E+02 -0.33318087747E+02  0.60212254236E+02  0.10000000000E+01 0.  0.
<mgrwt>
<rscale>  0 0.12499314E+03</rscale>
<asrwt>0</asrwt>
<pdfrwt beam="2">  1        4 0.90122165E-02 0.12499314E+03</pdfrwt>
<pdfrwt beam="1">  1       -4 0.10257796E-01 0.12499314E+03</pdfrwt>
<totfact> 0.10448943E+04</totfact>
</mgrwt>
</event>
<event>
 5    1  0.3267085E-002  0.1250029E+03  0.7818608E-02  0.1235065E+00
         -4   -1    0    0    0  501 -0.00000000000E+00  0.00000000000E+00  0.66307768550E+02  0.66319929660E+02  0.12700000000E+01 0. -1.
          4   -1    0    0  501    0  0.00000000000E+00 -0.00000000000E+00 -0.58889201932E+02  0.58902894701E+02  0.12700000000E+01 0. -1.
         25    2    1    2    0    0  0.00000000000E+00  0.00000000000E+00  0.74185666182E+01  0.12522282436E+03  0.12500288241E+03 0.  0.
    9000005    1    3    3    0    0 -0.15137834390E+02 -0.14247112046E+02  0.62747653608E+02  0.66109018031E+02  0.10000000000E+01 0.  0.
    9000005    1    3    3    0    0  0.15137834390E+02  0.14247112046E+02 -0.55329086990E+02  0.59113806330E+02  0.10000000000E+01 0.  0.
<mgrwt>
<rscale>  0 0.12500288E+03</rscale>
<asrwt>0</asrwt>
<pdfrwt beam="2">  1        4 0.90618660E-02 0.12500288E+03</pdfrwt>
<pdfrwt beam="1">  1       -4 0.10203184E-01 0.12500288E+03</pdfrwt>
<totfact> 0.10447344E+04</totfact>
</mgrwt>
</event>
<event>
 5    1  0.3267085E-002  0.1250030E+03  0.7818608E-02  0.1235065E+00
          4   -1    0    0  501    0  0.00000000000E+00  0.00000000000E+00  0.24321938781E+02  0.24355073518E+02  0.12700000000E+01 0.  1.
         -4   -1    0    0    0  501 -0.00000000000E+00 -0.00000000000E+00 -0.16046887071E+03  0.16047389622E+03  0.12700000000E+01 0.  1.
         25    2    1    2    0    0  0.00000000000E+00  0.00000000000E+00 -0.13614693193E+03  0.18482896973E+03  0.12500304388E+03 0.  0.
    9000005    1    3    3    0    0  0.40923150224E+02 -0.44123697638E+02 -0.43162952553E+02  0.74065142885E+02  0.10000000000E+01 0.  0.
    9000005    1    3    3    0    0 -0.40923150224E+02  0.44123697638E+02 -0.92983979376E+02  0.11076382685E+03  0.10000000000E+01 0.  0.
<mgrwt>
<rscale>  0 0.12500304E+03</rscale>
<asrwt>0</asrwt>
<pdfrwt beam="1">  1        4 0.37447722E-02 0.12500304E+03</pdfrwt>
<pdfrwt beam="2">  1       -4 0.24690453E-01 0.12500304E+03</pdfrwt>
<totfact> 0.92748597E+03</totfact>
</mgrwt>
</event>
<event>
 5    1  0.3267085E-002  0.1250025E+03  0.7818608E-02  0.1235065E+00
          4   -1    0    0  501    0  0.00000000000E+00  0.00000000000E+00  0.25921160372E+03  0.25921471487E+03  0.12700000000E+01 0. -1.
         -4   -1    0    0    0  501 -0.00000000000E+00 -0.00000000000E+00 -0.15040380396E+02  0.15093904149E+02  0.12700000000E+01 0. -1.
         25    2    1    2    0    0  0.00000000000E+00  0.00000000000E+00  0.24417122333E+03  0.27430861902E+03  0.12500252864E+03 0.  0.
    9000005    1    3    3    0    0  0.60863562215E+02 -0.13336965100E+02  0.13264628939E+03  0.14655471992E+03  0.10000000000E+01 0.  0.
    9000005    1    3    3    0    0 -0.60863562215E+02  0.13336965100E+02  0.11152493394E+03  0.12775389910E+03  0.10000000000E+01 0.  0.
<mgrwt>
<rscale>  0 0.12500253E+03</rscale>
<asrwt>0</asrwt>
<pdfrwt beam="1">  1        4 0.39883064E-01 0.12500253E+03</pdfrwt>
<pdfrwt beam="2">  1       -4 0.23182613E-02 0.12500253E+03</pdfrwt>
<totfact> 0.78934405E+03</totfact>
</mgrwt>
</event>
<event>
 5    1  0.3267085E-002  0.1249977E+03  0.7818608E-02  0.1235073E+00
         -4   -1    0    0    0  501 -0.00000000000E+00  0.00000000000E+00  0.11115514184E+03  0.11116239678E+03  0.12700000000E+01 0.  1.
          4   -1    0    0  501    0  0.00000000000E+00 -0.00000000000E+00 -0.35121154951E+02  0.35144109394E+02  0.12700000000E+01 0.  1.
         25    2    1    2    0    0  0.00000000000E+00  0.00000000000E+00  0.76033986886E+02  0.14630650617E+03  0.12499770632E+03 0.  0.
    9000005    1    3    3    0    0 -0.40191863280E+02 -0.19189332108E+02  0.89324474605E+02  0.99817223485E+02  0.10000000000E+01 0.  0.
    9000005    1    3    3    0    0  0.40191863280E+02  0.19189332108E+02 -0.13290487719E+02  0.46489282685E+02  0.10000000000E+01 0.  0.
<mgrwt>
<rscale>  0 0.12499771E+03</rscale>
<asrwt>0</asrwt>
<pdfrwt beam="2">  1        4 0.54055785E-02 0.12499771E+03</pdfrwt>
<pdfrwt beam="1">  1       -4 0.17103114E-01 0.12499771E+03</pdfrwt>
<totfact> 0.10005027E+04</totfact>
</mgrwt>
</event>
<event>
 5    1  0.3267085E-002  0.1250017E+03  0.7818608E-02  0.1235067E+00
         -4   -1    0    0    0  501 -0.00000000000E+00  0.00000000000E+00  0.12308652198E+03  0.12309307370E+03  0.12700000000E+01 0.  1.
          4   -1    0    0  501    0  0.00000000000E+00 -0.00000000000E+00 -0.31716576585E+02  0.31741993168E+02  0.12700000000E+01 0.  1.
         25    2    1    2    0    0  0.00000000000E+00  0.00000000000E+00  0.91369945392E+02  0.15483506687E+03  0.12500172403E+03 0.  0.
    9000005    1    3    3    0    0  0.32664174675E+02 -0.51616941021E+02  0.62028799923E+02  0.87062212971E+02  0.10000000000E+01 0.  0.
    9000005    1    3    3    0    0 -0.32664174675E+02  0.51616941021E+02  0.29341145469E+02  0.67772853894E+02  0.10000000000E+01 0.  0.
<mgrwt>
<rscale>  0 0.12500172E+03</rscale>
<asrwt>0</asrwt>
<pdfrwt beam="2">  1        4 0.48819324E-02 0.12500172E+03</pdfrwt>
<pdfrwt beam="1">  1       -4 0.18938847E-01 0.12500172E+03</pdfrwt>
<totfact> 0.98344074E+03</totfact>
</mgrwt>
</event>
<event>
 5    1  0.3267085E-002  0.1250017E+03  0.7818608E-02  0.1235067E+00
         -4   -1    0    0    0  501 -0.00000000000E+00  0.00000000000E+00  0.15088059967E+03  0.15088594453E+03  0.12700000000E+01 0.  1.
          4   -1    0    0  501    0  0.00000000000E+00 -0.00000000000E+00 -0.25869016415E+02  0.25900172013E+02  0.12700000000E+01 0.  1.
         25    2    1    2    0    0  0.00000000000E+00  0.00000000000E+00  0.12501158325E+03  0.17678611654E+03  0.12500174021E+03 0.  0.
    9000005    1    3    3    0    0  0.53257126530E+02  0.22842467640E+02  0.29420991365E+02  0.64997650627E+02  0.10000000000E+01 0.  0.
    9000005    1    3    3    0    0 -0.53257126530E+02 -0.22842467640E+02  0.95590591887E+02  0.11178846591E+03  0.10000000000E+01 0.  0.
<mgrwt>
<rscale>  0 0.12500174E+03</rscale>
<asrwt>0</asrwt>
<pdfrwt beam="2">  1        4 0.39826565E-02 0.12500174E+03</pdfrwt>
<pdfrwt beam="1">  1       -4 0.23215207E-01 0.12500174E+03</pdfrwt>
<totfact> 0.94195056E+03</totfact>
</mgrwt>
</event>
<event>
 5    1  0.3267085E-002  0.1250023E+03  0.7818608E-02  0.1235066E+00
         -4   -1    0    0    0  501 -0.00000000000E+00  0.00000000000E+00  0.28129880404E+03  0.28130167090E+03  0.12700000000E+01 0. -1.
          4   -1    0    0  501    0  0.00000000000E+00 -0.00000000000E+00 -0.13855000287E+02  0.13913084954E+02  0.12700000000E+01 0. -1.
         25    2    1    2    0    0  0.00000000000E+00  0.00000000000E+00  0.26744380375E+03  0.29521475586E+03  0.12500225563E+03 0.  0.
    9000005    1    3    3    0    0 -0.43018026077E+02 -0.42360749399E+02  0.95611212385E+02  0.11308177391E+03  0.10000000000E+01 0.  0.
    9000005    1    3    3    0    0  0.43018026077E+02  0.42360749399E+02  0.17183259137E+03  0.18213298195E+03  0.10000000000E+01 0.  0.
<mgrwt>
<rscale>  0 0.12500226E+03</rscale>
<asrwt>0</asrwt>
<pdfrwt beam="2">  1        4 0.21362271E-02 0.12500226E+03</pdfrwt>
<pdfrwt beam="1">  1       -4 0.43281428E-01 0.12500226E+03</pdfrwt>
<totfact> 0.76199220E+03</totfact>
</mgrwt>
</event>
<event>
 5    1  0.3267085E-002  0.1249875E+03  0.7818608E-02  0.1235089E+00
         -4   -1    0    0    0  501 -0.00000000000E+00  0.00000000000E+00  0.54947949116E+02  0.54962623773E+02  0.12700000000E+01 0.  1.
          4   -1    0    0  501    0  0.00000000000E+00 -0.00000000000E+00 -0.71045923263E+02  0.71057273465E+02  0.12700000000E+01 0.  1.
         25    2    1    2    0    0  0.00000000000E+00  0.00000000000E+00 -0.16097974147E+02  0.12601989724E+03  0.12498747829E+03 0.  0.
    9000005    1    3    3    0    0  0.33492598734E+02 -0.17752027720E+02  0.42036064821E+02  0.56612007594E+02  0.10000000000E+01 0.  0.
    9000005    1    3    3    0    0 -0.33492598734E+02  0.17752027720E+02 -0.58134038968E+02  0.69407889644E+02  0.10000000000E+01 0.  0.
<mgrwt>
<rscale>  0 0.12498748E+03</rscale>
<asrwt>0</asrwt>
<pdfrwt beam="2">  1        4 0.10932144E-01 0.12498748E+03</pdfrwt>
<pdfrwt beam="1">  1       -4 0.84555325E-02 0.12498748E+03</pdfrwt>
<totfact> 0.10433469E+04</totfact>
</mgrwt>
</event>
<event>
 5    1  0.3267085E-002  0.1250040E+03  0.7818608E-02  0.1235063E+00
         -4   -1    0    0    0  501 -0.00000000000E+00  0.00000000000E+00  0.84167111584E+02  0.84176692572E+02  0.12700000000E+01 0.  1.
          4   -1    0    0  501    0  0.00000000000E+00 -0.00000000000E+00 -0.46392683200E+02  0.46410063073E+02  0.12700000000E+01 0.  1.
         25    2    1    2    0    0  0.00000000000E+00  0.00000000000E+00  0.37774428384E+02  0.13058675564E+03  0.12500397318E+03 0.  0.
    9000005    1    3    3    0    0 -0.63125235242E+01  0.35549769328E+02 -0.34399339630E+02  0.49879340608E+02  0.10000000000E+01 0.  0.
    9000005    1    3    3    0    0  0.63125235242E+01 -0.35549769328E+02  0.72173768014E+02  0.80707415037E+02  0.10000000000E+01 0.  0.
<mgrwt>
<rscale>  0 0.12500397E+03</rscale>
<asrwt>0</asrwt>
<pdfrwt beam="2">  1        4 0.71394098E-02 0.12500397E+03</pdfrwt>
<pdfrwt beam="1">  1       -4 0.12950860E-01 0.12500397E+03</pdfrwt>
<totfact> 0.10331031E+04</totfact>
</mgrwt>
</event>
<event>
 5    1  0.3267085E-002  0.1250012E+03  0.7818608E-02  0.1235067E+00
          4   -1    0    0  501    0  0.00000000000E+00  0.00000000000E+00  0.36879551393E+02  0.36901412046E+02  0.12700000000E+01 0. -1.
         -4   -1    0    0    0  501 -0.00000000000E+00 -0.00000000000E+00 -0.10586414662E+03  0.10587176413E+03  0.12700000000E+01 0. -1.
         25    2    1    2    0    0  0.00000000000E+00  0.00000000000E+00 -0.68984595224E+02  0.14277317617E+03  0.12500122182E+03 0.  0.
    9000005    1    3    3    0    0  0.55043875562E+02 -0.28807027241E+02 -0.42209652847E+02  0.75115430165E+02  0.10000000000E+01 0.  0.
    9000005    1    3    3    0    0 -0.55043875562E+02  0.28807027241E+02 -0.26774942376E+02  0.67657746006E+02  0.10000000000E+01 0.  0.
<mgrwt>
<rscale>  0 0.12500122E+03</rscale>
<asrwt>0</asrwt>
<pdfrwt beam="1">  1        4 0.56760447E-02 0.12500122E+03</pdfrwt>
<pdfrwt beam="2">  1       -4 0.16289059E-01 0.12500122E+03</pdfrwt>
<totfact> 0.10076153E+04</totfact>
</mgrwt>
</event>
<event>
 5    1  0.3267085E-002  0.1250108E+03  0.7818608E-02  0.1235052E+00
          4   -1    0    0  501    0  0.00000000000E+00  0.00000000000E+00  0.14087248977E+03  0.14087821433E+03  0.12700000000E+01 0.  1.
         -4   -1    0    0    0  501 -0.00000000000E+00 -0.00000000000E+00 -0.27712950493E+02  0.27742035344E+02  0.12700000000E+01 0.  1.
         25    2    1    2    0    0  0.00000000000E+00  0.00000000000E+00  0.11315953927E+03  0.16862024967E+03  0.12501082862E+03 0.  0.
    9000005    1    3    3    0    0 -0.12756205477E+02  0.98507742725E+01  0.13802777421E+03  0.13896915120E+03  0.10000000000E+01 0.  0.
    9000005    1    3    3    0    0  0.12756205477E+02 -0.98507742725E+01 -0.24868234936E+02  0.29651098475E+02  0.10000000000E+01 0.  0.
<mgrwt>
<rscale>  0 0.12501083E+03</rscale>
<asrwt>0</asrwt>
<pdfrwt beam="1">  1        4 0.21675368E-01 0.12501083E+03</pdfrwt>
<pdfrwt beam="2">  1       -4 0.42662085E-02 0.12501083E+03</pdfrwt>
<totfact> 0.95682865E+03</totfact>
</mgrwt>
</event>
<event>
 5    1  0.3267085E-002  0.1249999E+03  0.7818608E-02  0.1235069E+00
          4   -1    0    0  501    0  0.00000000000E+00  0.00000000000E+00  0.36652904490E+02  0.36674900239E+02  0.12700000000E+01 0. -1.
         -4   -1    0    0    0  501 -0.00000000000E+00 -0.00000000000E+00 -0.10651617823E+03  0.10652374911E+03  0.12700000000E+01 0. -1.
         25    2    1    2    0    0  0.00000000000E+00  0.00000000000E+00 -0.69863273743E+02  0.14319864935E+03  0.12499990463E+03 0.  0.
    9000005    1    3    3    0    0  0.13337806600E+02  0.56975030868E+02 -0.60061423775E+02  0.83859560297E+02  0.10000000000E+01 0.  0.
    9000005    1    3    3    0    0 -0.13337806600E+02 -0.56975030868E+02 -0.98018499680E+01  0.59339089056E+02  0.10000000000E+01 0.  0.
<mgrwt>
<rscale>  0 0.12499990E+03</rscale>
<asrwt>0</asrwt>
<pdfrwt beam="1">  1        4 0.56411828E-02 0.12499990E+03</pdfrwt>
<pdfrwt beam="2">  1       -4 0.16389379E-01 0.12499990E+03</pdfrwt>
<totfact> 0.10067739E+04</totfact>
</mgrwt>
</event>
<event>
 5    1  0.3267085E-002  0.1250000E+03  0.7818608E-02  0.1235069E+00
          4   -1    0    0  501    0  0.00000000000E+00  0.00000000000E+00  0.11176070823E+03  0.11176792386E+03  0.12700000000E+01 0.  1.
         -4   -1    0    0    0  501 -0.00000000000E+00 -0.00000000000E+00 -0.34932017296E+02  0.34955095942E+02  0.12700000000E+01 0.  1.
         25    2    1    2    0    0  0.00000000000E+00  0.00000000000E+00  0.76828690938E+02  0.14672301981E+03  0.12499998716E+03 0.  0.
    9000005    1    3    3    0    0 -0.37929525733E+02  0.19370920191E+02  0.92093230859E+02  0.10146942713E+03  0.10000000000E+01 0.  0.
    9000005    1    3    3    0    0  0.37929525733E+02 -0.19370920191E+02 -0.15264539921E+02  0.45253592680E+02  0.10000000000E+01 0.  0.
<mgrwt>
<rscale>  0 0.12499999E+03</rscale>
<asrwt>0</asrwt>
<pdfrwt beam="1">  1        4 0.17196285E-01 0.12499999E+03</pdfrwt>
<pdfrwt beam="2">  1       -4 0.53764869E-02 0.12499999E+03</pdfrwt>
<totfact> 0.99961002E+03</totfact>
</mgrwt>
</event>
<event>
 5    1  0.3267085E-002  0.1249994E+03  0.7818608E-02  0.1235070E+00
         -4   -1    0    0    0  501 -0.00000000000E+00  0.00000000000E+00  0.44625641232E+03  0.44625821946E+03  0.12700000000E+01 0. -1.
          4   -1    0    0  501    0  0.00000000000E+00 -0.00000000000E+00 -0.87053890115E+01  0.87975393061E+01  0.12700000000E+01 0. -1.
         25    2    1    2    0    0  0.00000000000E+00  0.00000000000E+00  0.43755102331E+03  0.45505575876E+03  0.12499938235E+03 0.  0.
    9000005    1    3    3    0    0 -0.57617737528E+02 -0.18221262109E+02  0.16082539238E+03  0.17180694079E+03  0.10000000000E+01 0.  0.
    9000005    1    3    3    0    0  0.57617737528E+02  0.18221262109E+02  0.27672563093E+03  0.28324881797E+03  0.10000000000E+01 0.  0.
<mgrwt>
<rscale>  0 0.12499938E+03</rscale>
<asrwt>0</asrwt>
<pdfrwt beam="2">  1        4 0.13465181E-02 0.12499938E+03</pdfrwt>
<pdfrwt beam="1">  1       -4 0.68662058E-01 0.12499938E+03</pdfrwt>
<totfact> 0.59529112E+03</totfact>
</mgrwt>
</event>
<event>
 5    1  0.3267085E-002  0.1250335E+03  0.7818608E-02  0.1235017E+00
         -4   -1    0    0    0  501 -0.00000000000E+00  0.00000000000E+00  0.13552138096E+02  0.13611515235E+02  0.12700000000E+01 0.  1.
          4   -1    0    0  501    0  0.00000000000E+00 -0.00000000000E+00 -0.28770197898E+03  0.28770478204E+03  0.12700000000E+01 0.  1.
         25    2    1    2    0    0  0.00000000000E+00  0.00000000000E+00 -0.27414984088E+03  0.30131629728E+03  0.12503349850E+03 0.  0.
    9000005    1    3    3    0    0  0.23531850612E+02 -0.10757036726E+02 -0.27420311389E+03  0.27542296473E+03  0.10000000000E+01 0.  0.
    9000005    1    3    3    0    0 -0.23531850612E+02  0.10757036726E+02  0.53273007408E-01  0.25893332547E+02  0.10000000000E+01 0.  0.
<mgrwt>
<rscale>  0 0.12503350E+03</rscale>
<asrwt>0</asrwt>
<pdfrwt beam="2">  1        4 0.44266621E-01 0.12503350E+03</pdfrwt>
<pdfrwt beam="1">  1       -4 0.20897276E-02 0.12503350E+03</pdfrwt>
<totfact> 0.75377959E+03</totfact>
</mgrwt>
</event>
<event>
 5    1  0.3267085E-002  0.1249988E+03  0.7818608E-02  0.1235071E+00
          4   -1    0    0  501    0  0.00000000000E+00  0.00000000000E+00  0.54155249322E+02  0.54170138721E+02  0.12700000000E+01 0. -1.
         -4   -1    0    0    0  501 -0.00000000000E+00 -0.00000000000E+00 -0.72098784548E+02  0.72109969029E+02  0.12700000000E+01 0. -1.
         25    2    1    2    0    0  0.00000000000E+00  0.00000000000E+00 -0.17943535227E+02  0.12628010775E+03  0.12499878062E+03 0.  0.
    9000005    1    3    3    0    0  0.42018605370E+02 -0.30206342543E+02  0.26418563191E+02  0.58111331151E+02  0.10000000000E+01 0.  0.
    9000005    1    3    3    0    0 -0.42018605370E+02  0.30206342543E+02 -0.44362098417E+02  0.68168776599E+02  0.10000000000E+01 0.  0.
<mgrwt>
<rscale>  0 0.12499878E+03</rscale>
<asrwt>0</asrwt>
<pdfrwt beam="1">  1        4 0.83335825E-02 0.12499878E+03</pdfrwt>
<pdfrwt beam="2">  1       -4 0.11094126E-01 0.12499878E+03</pdfrwt>
<totfact> 0.10425115E+04</totfact>
</mgrwt>
</event>
<event>
 5    1  0.3267085E-002  0.1250011E+03  0.7818608E-02  0.1235068E+00
          4   -1    0    0  501    0  0.00000000000E+00  0.00000000000E+00  0.29146704880E+02  0.29174360411E+02  0.12700000000E+01 0. -1.
         -4   -1    0    0    0  501 -0.00000000000E+00 -0.00000000000E+00 -0.13392847175E+03  0.13393449311E+03  0.12700000000E+01 0. -1.
         25    2    1    2    0    0  0.00000000000E+00  0.00000000000E+00 -0.10478176687E+03  0.16310885352E+03  0.12500111771E+03 0.  0.
    9000005    1    3    3    0    0 -0.22135823922E+02 -0.21387720677E+02 -0.12335759631E+03  0.12714372130E+03  0.10000000000E+01 0.  0.
    9000005    1    3    3    0    0  0.22135823922E+02  0.21387720677E+02  0.18575829446E+02  0.35965132227E+02  0.10000000000E+01 0.  0.
<mgrwt>
<rscale>  0 0.12500112E+03</rscale>
<asrwt>0</asrwt>
<pdfrwt beam="1">  1        4 0.44866990E-02 0.12500112E+03</pdfrwt>
<pdfrwt beam="2">  1       -4 0.20606970E-01 0.12500112E+03</pdfrwt>
<totfact> 0.96744319E+03</totfact>
</mgrwt>
</event>
<event>
 5    1  0.3267085E-002  0.1249970E+03  0.7818608E-02  0.1235074E+00
          4   -1    0    0  501    0  0.00000000000E+00  0.00000000000E+00  0.41200965635E+01  0.43113913870E+01  0.12700000000E+01 0. -1.
         -4   -1    0    0    0  501 -0.00000000000E+00 -0.00000000000E+00 -0.92635011904E+03  0.92635098961E+03  0.12700000000E+01 0. -1.
         25    2    1    2    0    0  0.00000000000E+00  0.00000000000E+00 -0.92223002248E+03  0.93066238100E+03  0.12499701212E+03 0.  0.
    9000005    1    3    3    0    0  0.23868438940E+02 -0.47554800472E+02 -0.21712344237E+03  0.22355033136E+03  0.10000000000E+01 0.  0.
    9000005    1    3    3    0    0 -0.23868438940E+02  0.47554800472E+02 -0.70510658011E+03  0.70711204964E+03  0.10000000000E+01 0.  0.
<mgrwt>
<rscale>  0 0.12499701E+03</rscale>
<asrwt>0</asrwt>
<pdfrwt beam="1">  1        4 0.64864370E-03 0.12499701E+03</pdfrwt>
<pdfrwt beam="2">  1       -4 0.14253002E+00 0.12499701E+03</pdfrwt>
<totfact> 0.33014825E+03</totfact>
</mgrwt>
</event>
<event>
 5    1  0.3267085E-002  0.1250004E+03  0.7818608E-02  0.1235069E+00
         -4   -1    0    0    0  501 -0.00000000000E+00  0.00000000000E+00  0.65861521636E+02  0.65873765128E+02  0.12700000000E+01 0. -1.
          4   -1    0    0  501    0  0.00000000000E+00 -0.00000000000E+00 -0.59285838523E+02  0.59299439705E+02  0.12700000000E+01 0. -1.
         25    2    1    2    0    0  0.00000000000E+00  0.00000000000E+00  0.65756831133E+01  0.12517320483E+03  0.12500036640E+03 0.  0.
    9000005    1    3    3    0    0  0.25722333704E+02  0.56313386181E+02 -0.52349186689E+01  0.62138879036E+02  0.10000000000E+01 0.  0.
    9000005    1    3    3    0    0 -0.25722333704E+02 -0.56313386181E+02  0.11810601782E+02  0.63034325798E+02  0.10000000000E+01 0.  0.
<mgrwt>
<rscale>  0 0.12500037E+03</rscale>
<asrwt>0</asrwt>
<pdfrwt beam="2">  1        4 0.91228863E-02 0.12500037E+03</pdfrwt>
<pdfrwt beam="1">  1       -4 0.10134530E-01 0.12500037E+03</pdfrwt>
<totfact> 0.10449015E+04</totfact>
</mgrwt>
</event>
<event>
 5    1  0.3267085E-002  0.1250011E+03  0.7818608E-02  0.1235068E+00
         -4   -1    0    0    0  501 -0.00000000000E+00  0.00000000000E+00  0.10221072946E+03  0.10221861923E+03  0.12700000000E+01 0. -1.
          4   -1    0    0  501    0  0.00000000000E+00 -0.00000000000E+00 -0.38198341094E+02  0.38219447436E+02  0.12700000000E+01 0. -1.
         25    2    1    2    0    0  0.00000000000E+00  0.00000000000E+00  0.64012388366E+02  0.14043806666E+03  0.12500105881E+03 0.  0.
    9000005    1    3    3    0    0 -0.36326772626E+02 -0.33225596242E+02 -0.11240944186E+02  0.50506766688E+02  0.10000000000E+01 0.  0.
    9000005    1    3    3    0    0  0.36326772626E+02  0.33225596242E+02  0.75253332551E+02  0.89931299975E+02  0.10000000000E+01 0.  0.
<mgrwt>
<rscale>  0 0.12500106E+03</rscale>
<asrwt>0</asrwt>
<pdfrwt beam="2">  1        4 0.58788983E-02 0.12500106E+03</pdfrwt>
<pdfrwt beam="1">  1       -4 0.15726958E-01 0.12500106E+03</pdfrwt>
<totfact> 0.10124273E+04</totfact>
</mgrwt>
</event>
<event>
 5    1  0.3267085E-002  0.1249993E+03  0.7818608E-02  0.1235070E+00
          4   -1    0    0  501    0  0.00000000000E+00  0.00000000000E+00  0.66646399334E+01  0.67845652360E+01  0.12700000000E+01 0. -1.
         -4   -1    0    0    0  501 -0.00000000000E+00 -0.00000000000E+00 -0.58076197501E+03  0.58076336361E+03  0.12700000000E+01 0. -1.
         25    2    1    2    0    0  0.00000000000E+00  0.00000000000E+00 -0.57409733507E+03  0.58754792885E+03  0.12499927422E+03 0.  0.
    9000005    1    3    3    0    0 -0.44304563279E+02  0.34928106568E+02 -0.41337850698E+03  0.41721176516E+03  0.10000000000E+01 0.  0.
    9000005    1    3    3    0    0  0.44304563279E+02 -0.34928106568E+02 -0.16071882809E+03  0.17033616368E+03  0.10000000000E+01 0.  0.
<mgrwt>
<rscale>  0 0.12499927E+03</rscale>
<asrwt>0</asrwt>
<pdfrwt beam="1">  1        4 0.10346615E-02 0.12499927E+03</pdfrwt>
<pdfrwt beam="2">  1       -4 0.89357288E-01 0.12499927E+03</pdfrwt>
<totfact> 0.49663981E+03</totfact>
</mgrwt>
</event>
<event>
 5    1  0.3267085E-002  0.1249973E+03  0.7818608E-02  0.1235073E+00
          4   -1    0    0  501    0  0.00000000000E+00  0.00000000000E+00  0.13426408336E+03  0.13427008967E+03  0.12700000000E+01 0. -1.
         -4   -1    0    0    0  501 -0.00000000000E+00 -0.00000000000E+00 -0.29072009556E+02  0.29099736075E+02  0.12700000000E+01 0. -1.
         25    2    1    2    0    0  0.00000000000E+00  0.00000000000E+00  0.10519207380E+03  0.16336982574E+03  0.12499731026E+03 0.  0.
    9000005    1    3    3    0    0 -0.47170070224E+02 -0.28049146371E+02  0.13532397460E+02  0.56532255555E+02  0.10000000000E+01 0.  0.
    9000005    1    3    3    0    0  0.47170070224E+02  0.28049146371E+02  0.91659676339E+02  0.10683757019E+03  0.10000000000E+01 0.  0.
<mgrwt>
<rscale>  0 0.12499731E+03</rscale>
<asrwt>0</asrwt>
<pdfrwt beam="1">  1        4 0.20658608E-01 0.12499731E+03</pdfrwt>
<pdfrwt beam="2">  1       -4 0.44752116E-02 0.12499731E+03</pdfrwt>
<totfact> 0.96702859E+03</totfact>
</mgrwt>
</event>
<event>
 4    1  0.3267085E-002  0.1248897E+03  0.7818608E-02  0.1235242E+00
          4   -1    0    0  501    0  0.00000000000E+00  0.00000000000E+00  0.15370067031E+01  0.19938128311E+01  0.12700000000E+01 0. -1.
         -4   -1    0    0    0  501 -0.00000000000E+00 -0.00000000000E+00 -0.22082994346E+04  0.22082997998E+04  0.12700000000E+01 0. -1.
    9000005    1    1    2    0    0 -0.49422117568E+02  0.21161739803E+02 -0.54148961074E+03  0.54415288612E+03  0.10000000000E+01 0.  0.
    9000005    1    1    2    0    0  0.49422117568E+02 -0.21161739803E+02 -0.16652728171E+04  0.16661407265E+04  0.10000000000E+01 0.  0.
<mgrwt>
<rscale>  0 0.12488971E+03</rscale>
<asrwt>0</asrwt>
<pdfrwt beam="1">  1        4 0.27163136E-03 0.12488971E+03</pdfrwt>
<pdfrwt beam="2">  1       -4 0.33977133E+00 0.12488971E+03</pdfrwt>
<totfact> 0.73782533E+02</totfact>
</mgrwt>
</event>
<event>
 5    1  0.3267085E-002  0.1250076E+03  0.7818608E-02  0.1235057E+00
          4   -1    0    0  501    0  0.00000000000E+00  0.00000000000E+00  0.57603957531E+02  0.57617955737E+02  0.12700000000E+01 0. -1.
         -4   -1    0    0    0  501 -0.00000000000E+00 -0.00000000000E+00 -0.67792221469E+02  0.67804116333E+02  0.12700000000E+01 0. -1.
         25    2    1    2    0    0  0.00000000000E+00  0.00000000000E+00 -0.10188263937E+02  0.12542207207E+03  0.12500758153E+03 0.  0.
    9000005    1    3    3    0    0  0.15968067348E+02 -0.60372421314E+02 -0.26539019069E+01  0.62512811691E+02  0.10000000000E+01 0.  0.
    9000005    1    3    3    0    0 -0.15968067348E+02  0.60372421314E+02 -0.75343620303E+01  0.62909260378E+02  0.10000000000E+01 0.  0.
<mgrwt>
<rscale>  0 0.12500758E+03</rscale>
<asrwt>0</asrwt>
<pdfrwt beam="1">  1        4 0.88641391E-02 0.12500758E+03</pdfrwt>
<pdfrwt beam="2">  1       -4 0.10431564E-01 0.12500758E+03</pdfrwt>
<totfact> 0.10441893E+04</totfact>
</mgrwt>
</event>
<event>
 5    1  0.3267085E-002  0.1250070E+03  0.7818608E-02  0.1235058E+00
          4   -1    0    0  501    0  0.00000000000E+00  0.00000000000E+00  0.10246365258E+02  0.10324771232E+02  0.12700000000E+01 0. -1.
         -4   -1    0    0    0  501 -0.00000000000E+00 -0.00000000000E+00 -0.37974266300E+03  0.37974478667E+03  0.12700000000E+01 0. -1.
         25    2    1    2    0    0  0.00000000000E+00  0.00000000000E+00 -0.36949629775E+03  0.39006955790E+03  0.12500698363E+03 0.  0.
    9000005    1    3    3    0    0 -0.49431172952E+02 -0.16957140637E+02 -0.77800447816E+02  0.93727771542E+02  0.10000000000E+01 0.  0.
    9000005    1    3    3    0    0  0.49431172952E+02  0.16957140637E+02 -0.29169584993E+03  0.29634178636E+03  0.10000000000E+01 0.  0.
<mgrwt>
<rscale>  0 0.12500698E+03</rscale>
<asrwt>0</asrwt>
<pdfrwt beam="1">  1        4 0.15825588E-02 0.12500698E+03</pdfrwt>
<pdfrwt beam="2">  1       -4 0.58428132E-01 0.12500698E+03</pdfrwt>
<totfact> 0.65520106E+03</totfact>
</mgrwt>
</event>
<event>
 5    1  0.3267085E-002  0.1250000E+03  0.7818608E-02  0.1235069E+00
         -4   -1    0    0    0  501 -0.00000000000E+00  0.00000000000E+00  0.63921847190E+03  0.63921973352E+03  0.12700000000E+01 0.  1.
          4   -1    0    0  501    0  0.00000000000E+00 -0.00000000000E+00 -0.60437160873E+01  0.61757108210E+01  0.12700000000E+01 0.  1.
         25    2    1    2    0    0  0.00000000000E+00  0.00000000000E+00  0.63317475582E+03  0.64539544434E+03  0.12500003270E+03 0.  0.
    9000005    1    3    3    0    0 -0.48958478836E+02  0.18891406781E+02  0.14138688623E+03  0.15081468595E+03  0.10000000000E+01 0.  0.
    9000005    1    3    3    0    0  0.48958478836E+02 -0.18891406781E+02  0.49178786959E+03  0.49458075840E+03  0.10000000000E+01 0.  0.
<mgrwt>
<rscale>  0 0.12500003E+03</rscale>
<asrwt>0</asrwt>
<pdfrwt beam="2">  1        4 0.94005351E-03 0.12500003E+03</pdfrwt>
<pdfrwt beam="1">  1       -4 0.98351496E-01 0.12500003E+03</pdfrwt>
<totfact> 0.46121881E+03</totfact>
</mgrwt>
</event>
<event>
 5    1  0.3267085E-002  0.1249993E+03  0.7818608E-02  0.1235070E+00
         -4   -1    0    0    0  501 -0.00000000000E+00  0.00000000000E+00  0.57303537236E+01  0.58693997817E+01  0.12700000000E+01 0. -1.
          4   -1    0    0  501    0  0.00000000000E+00 -0.00000000000E+00 -0.67335855496E+03  0.67335975261E+03  0.12700000000E+01 0. -1.
         25    2    1    2    0    0  0.00000000000E+00  0.00000000000E+00 -0.66762820124E+03  0.67922915239E+03  0.12499930550E+03 0.  0.
    9000005    1    3    3    0    0 -0.25788064267E+02 -0.46119095523E+02 -0.51511398738E+03  0.51781793637E+03  0.10000000000E+01 0.  0.
    9000005    1    3    3    0    0  0.25788064267E+02  0.46119095523E+02 -0.15251421386E+03  0.16141121602E+03  0.10000000000E+01 0.  0.
<mgrwt>
<rscale>  0 0.12499931E+03</rscale>
<asrwt>0</asrwt>
<pdfrwt beam="2">  1        4 0.10360435E+00 0.12499931E+03</pdfrwt>
<pdfrwt beam="1">  1       -4 0.89238139E-03 0.12499931E+03</pdfrwt>
<totfact> 0.44206772E+03</totfact>
</mgrwt>
</event>
<event>
 5    1  0.3267085E-002  0.1250014E+03  0.7818608E-02  0.1235067E+00
          4   -1    0    0  501    0  0.00000000000E+00  0.00000000000E+00  0.50462498747E+01  0.52036081518E+01  0.12700000000E+01 0.  1.
         -4   -1    0    0    0  501 -0.00000000000E+00 -0.00000000000E+00 -0.76206473825E+03  0.76206579650E+03  0.12700000000E+01 0.  1.
         25    2    1    2    0    0  0.00000000000E+00  0.00000000000E+00 -0.75701848838E+03  0.76726940465E+03  0.12500139024E+03 0.  0.
    9000005    1    3    3    0    0  0.54208737917E+02  0.25228645736E+02 -0.49005790266E+03  0.49369304207E+03  0.10000000000E+01 0.  0.
    9000005    1    3    3    0    0 -0.54208737917E+02 -0.25228645736E+02 -0.26696058572E+03  0.27357636258E+03  0.10000000000E+01 0.  0.
<mgrwt>
<rscale>  0 0.12500139E+03</rscale>
<asrwt>0</asrwt>
<pdfrwt beam="1">  1        4 0.78853263E-03 0.12500139E+03</pdfrwt>
<pdfrwt beam="2">  1       -4 0.11725282E+00 0.12500139E+03</pdfrwt>
<totfact> 0.39760263E+03</totfact>
</mgrwt>
</event>
<event>
 5    1  0.3267085E-002  0.1250004E+03  0.7818608E-02  0.1235069E+00
         -4   -1    0    0    0  501 -0.00000000000E+00  0.00000000000E+00  0.23767471979E+02  0.23801378621E+02  0.12700000000E+01 0. -1.
          4   -1    0    0  501    0  0.00000000000E+00 -0.00000000000E+00 -0.16420043487E+03  0.16420534617E+03  0.12700000000E+01 0. -1.
         25    2    1    2    0    0  0.00000000000E+00  0.00000000000E+00 -0.14043296289E+03  0.18800672480E+03  0.12500044601E+03 0.  0.
    9000005    1    3    3    0    0  0.31935965172E+02  0.45800736534E+01  0.10280254268E+02  0.33875752006E+02  0.10000000000E+01 0.  0.
    9000005    1    3    3    0    0 -0.31935965172E+02 -0.45800736534E+01 -0.15071321716E+03  0.15413097279E+03  0.10000000000E+01 0.  0.
<mgrwt>
<rscale>  0 0.12500045E+03</rscale>
<asrwt>0</asrwt>
<pdfrwt beam="2">  1        4 0.25264591E-01 0.12500045E+03</pdfrwt>
<pdfrwt beam="1">  1       -4 0.36595203E-02 0.12500045E+03</pdfrwt>
<totfact> 0.92194378E+03</totfact>
</mgrwt>
</event>
<event>
 5    1  0.3267085E-002  0.1249979E+03  0.7818608E-02  0.1235073E+00
         -4   -1    0    0    0  501 -0.00000000000E+00  0.00000000000E+00  0.10926089055E+02  0.10999650997E+02  0.12700000000E+01 0. -1.
          4   -1    0    0  501    0  0.00000000000E+00 -0.00000000000E+00 -0.35622992575E+03  0.35623218959E+03  0.12700000000E+01 0. -1.
         25    2    1    2    0    0  0.00000000000E+00  0.00000000000E+00 -0.34530383669E+03  0.36723184059E+03  0.12499794040E+03 0.  0.
    9000005    1    3    3    0    0 -0.16020944260E+02  0.53730949044E+02 -0.91583052010E+02  0.10738780636E+03  0.10000000000E+01 0.  0.
    9000005    1    3    3    0    0  0.16020944260E+02 -0.53730949044E+02 -0.25372078468E+03  0.25984403422E+03  0.10000000000E+01 0.  0.
<mgrwt>
<rscale>  0 0.12499794E+03</rscale>
<asrwt>0</asrwt>
<pdfrwt beam="2">  1        4 0.54810428E-01 0.12499794E+03</pdfrwt>
<pdfrwt beam="1">  1       -4 0.16867698E-02 0.12499794E+03</pdfrwt>
<totfact> 0.67872631E+03</totfact>
</mgrwt>
</event>
<event>
 5    1  0.3267085E-002  0.1249967E+03  0.7818608E-02  0.1235074E+00
          4   -1    0    0  501    0  0.00000000000E+00  0.00000000000E+00  0.72371172394E+02  0.72382314786E+02  0.12700000000E+01 0.  1.
         -4   -1    0    0    0  501 -0.00000000000E+00 -0.00000000000E+00 -0.53949569319E+02  0.53964515468E+02  0.12700000000E+01 0.  1.
         25    2    1    2    0    0  0.00000000000E+00  0.00000000000E+00  0.18421603076E+02  0.12634683025E+03  0.12499666418E+03 0.  0.
    9000005    1    3    3    0    0  0.53752921451E+02 -0.31848987915E+02  0.10366355195E+02  0.63341897001E+02  0.10000000000E+01 0.  0.
    9000005    1    3    3    0    0 -0.53752921451E+02  0.31848987915E+02  0.80552478804E+01  0.63004933252E+02  0.10000000000E+01 0.  0.
<mgrwt>
<rscale>  0 0.12499666E+03</rscale>
<asrwt>0</asrwt>
<pdfrwt beam="1">  1        4 0.11136033E-01 0.12499666E+03</pdfrwt>
<pdfrwt beam="2">  1       -4 0.83019405E-02 0.12499666E+03</pdfrwt>
<totfact> 0.10424155E+04</totfact>
</mgrwt>
</event>
<event>
 5    1  0.3267085E-002  0.1249770E+03  0.7818608E-02  0.1235105E+00
         -4   -1    0    0    0  501 -0.00000000000E+00  0.00000000000E+00  0.36169916388E+02  0.36192205673E+02  0.12700000000E+01 0. -1.
          4   -1    0    0  501    0  0.00000000000E+00 -0.00000000000E+00 -0.10789825116E+03  0.10790572507E+03  0.12700000000E+01 0. -1.
         25    2    1    2    0    0  0.00000000000E+00  0.00000000000E+00 -0.71728334770E+02  0.14409793074E+03  0.12497703643E+03 0.  0.
    9000005    1    3    3    0    0 -0.19142461337E+02  0.21750670499E+02  0.27961066191E+02  0.40278365356E+02  0.10000000000E+01 0.  0.
    9000005    1    3    3    0    0  0.19142461337E+02 -0.21750670499E+02 -0.99689400962E+02  0.10381956539E+03  0.10000000000E+01 0.  0.
<mgrwt>
<rscale>  0 0.12497704E+03</rscale>
<asrwt>0</asrwt>
<pdfrwt beam="2">  1        4 0.16602020E-01 0.12497704E+03</pdfrwt>
<pdfrwt beam="1">  1       -4 0.55668920E-02 0.12497704E+03</pdfrwt>
<totfact> 0.10054547E+04</totfact>
</mgrwt>
</event>
<event>
 5    1  0.3267085E-002  0.1250040E+03  0.7818608E-02  0.1235063E+00
          4   -1    0    0  501    0  0.00000000000E+00  0.00000000000E+00  0.43066133429E+03  0.43066320687E+03  0.12700000000E+01 0.  1.
         -4   -1    0    0    0  501 -0.00000000000E+00 -0.00000000000E+00 -0.90245753592E+01  0.91134988020E+01  0.12700000000E+01 0.  1.
         25    2    1    2    0    0  0.00000000000E+00  0.00000000000E+00  0.42163675893E+03  0.43977670568E+03  0.12500397742E+03 0.  0.
    9000005    1    3    3    0    0  0.14409315727E+02  0.46816055155E+01  0.42411960567E+03  0.42439131202E+03  0.10000000000E+01 0.  0.
    9000005    1    3    3    0    0 -0.14409315727E+02 -0.46816055155E+01 -0.24828467337E+01  0.15385393652E+02  0.10000000000E+01 0.  0.
<mgrwt>
<rscale>  0 0.12500398E+03</rscale>
<asrwt>0</asrwt>
<pdfrwt beam="1">  1        4 0.66262569E-01 0.12500398E+03</pdfrwt>
<pdfrwt beam="2">  1       -4 0.13953806E-02 0.12500398E+03</pdfrwt>
<totfact> 0.60854348E+03</totfact>
</mgrwt>
</event>
<event>
 5    1  0.3267085E-002  0.1249872E+03  0.7818608E-02  0.1235089E+00
         -4   -1    0    0    0  501 -0.00000000000E+00  0.00000000000E+00  0.45031341525E+02  0.45049246604E+02  0.12700000000E+01 0.  1.
          4   -1    0    0  501    0  0.00000000000E+00 -0.00000000000E+00 -0.86687631303E+02  0.86696933746E+02  0.12700000000E+01 0.  1.
         25    2    1    2    0    0  0.00000000000E+00  0.00000000000E+00 -0.41656289778E+02  0.13174618035E+03  0.12498723758E+03 0.  0.
    9000005    1    3    3    0    0 -0.27854977239E+02  0.51229323718E+02  0.28383858226E+01  0.58390065933E+02  0.10000000000E+01 0.  0.
    9000005    1    3    3    0    0  0.27854977239E+02 -0.51229323718E+02 -0.44494675601E+02  0.73356114417E+02  0.10000000000E+01 0.  0.
<mgrwt>
<rscale>  0 0.12498724E+03</rscale>
<asrwt>0</asrwt>
<pdfrwt beam="2">  1        4 0.13338652E-01 0.12498724E+03</pdfrwt>
<pdfrwt beam="1">  1       -4 0.69299916E-02 0.12498724E+03</pdfrwt>
<totfact> 0.10310087E+04</totfact>
</mgrwt>
</event>
<event>
 5    1  0.3267085E-002  0.1250066E+03  0.7818608E-02  0.1235059E+00
         -4   -1    0    0    0  501 -0.00000000000E+00  0.00000000000E+00  0.21252260362E+03  0.21252639824E+03  0.12700000000E+01 0.  1.
          4   -1    0    0  501    0  0.00000000000E+00 -0.00000000000E+00 -0.18356439483E+02  0.18400319848E+02  0.12700000000E+01 0.  1.
         25    2    1    2    0    0  0.00000000000E+00  0.00000000000E+00  0.19416616413E+03  0.23092671809E+03  0.12500659915E+03 0.  0.
    9000005    1    3    3    0    0 -0.28107779124E+02  0.52322467675E+02  0.61168357193E+02  0.85265794974E+02  0.10000000000E+01 0.  0.
    9000005    1    3    3    0    0  0.28107779124E+02 -0.52322467675E+02  0.13299780694E+03  0.14566092311E+03  0.10000000000E+01 0.  0.
<mgrwt>
<rscale>  0 0.12500660E+03</rscale>
<asrwt>0</asrwt>
<pdfrwt beam="2">  1        4 0.28277350E-02 0.12500660E+03</pdfrwt>
<pdfrwt beam="1">  1       -4 0.32699452E-01 0.12500660E+03</pdfrwt>
<totfact> 0.85154963E+03</totfact>
</mgrwt>
</event>
<event>
 5    1  0.3267085E-002  0.1250044E+03  0.7818608E-02  0.1235062E+00
          4   -1    0    0  501    0  0.00000000000E+00  0.00000000000E+00  0.16665761197E+03  0.16666245086E+03  0.12700000000E+01 0. -1.
         -4   -1    0    0    0  501 -0.00000000000E+00 -0.00000000000E+00 -0.23418044486E+02  0.23452456323E+02  0.12700000000E+01 0. -1.
         25    2    1    2    0    0  0.00000000000E+00  0.00000000000E+00  0.14323956748E+03  0.19011490719E+03  0.12500441689E+03 0.  0.
    9000005    1    3    3    0    0  0.31284302761E+02  0.94214545226E+01 -0.94018863008E+01  0.34012745708E+02  0.10000000000E+01 0.  0.
    9000005    1    3    3    0    0 -0.31284302761E+02 -0.94214545226E+01  0.15264145379E+03  0.15610216148E+03  0.10000000000E+01 0.  0.
<mgrwt>
<rscale>  0 0.12500442E+03</rscale>
<asrwt>0</asrwt>
<pdfrwt beam="1">  1        4 0.25642651E-01 0.12500442E+03</pdfrwt>
<pdfrwt beam="2">  1       -4 0.36057955E-02 0.12500442E+03</pdfrwt>
<totfact> 0.91818241E+03</totfact>
</mgrwt>
</event>
<event>
 5    1  0.3267085E-002  0.1250011E+03  0.7818608E-02  0.1235068E+00
          4   -1    0    0  501    0  0.00000000000E+00  0.00000000000E+00  0.43182337698E+02  0.43201009121E+02  0.12700000000E+01 0.  1.
         -4   -1    0    0    0  501 -0.00000000000E+00 -0.00000000000E+00 -0.90418331038E+02  0.90427249696E+02  0.12700000000E+01 0.  1.
         25    2    1    2    0    0  0.00000000000E+00  0.00000000000E+00 -0.47235993339E+02  0.13362825882E+03  0.12500108995E+03 0.  0.
    9000005    1    3    3    0    0  0.73444782311E+01 -0.95638852921E+01 -0.89168067994E+02  0.89985296644E+02  0.10000000000E+01 0.  0.
    9000005    1    3    3    0    0 -0.73444782311E+01  0.95638852921E+01  0.41932074655E+02  0.43642962173E+02  0.10000000000E+01 0.  0.
<mgrwt>
<rscale>  0 0.12500109E+03</rscale>
<asrwt>0</asrwt>
<pdfrwt beam="1">  1        4 0.66455589E-02 0.12500109E+03</pdfrwt>
<pdfrwt beam="2">  1       -4 0.13912635E-01 0.12500109E+03</pdfrwt>
<totfact> 0.10266813E+04</totfact>
</mgrwt>
</event>
<event>
 5    1  0.3267085E-002  0.1249982E+03  0.7818608E-02  0.1235072E+00
          4   -1    0    0  501    0  0.00000000000E+00  0.00000000000E+00  0.42556188384E+01  0.44410800148E+01  0.12700000000E+01 0. -1.
         -4   -1    0    0    0  501 -0.00000000000E+00 -0.00000000000E+00 -0.89811825670E+03  0.89811915464E+03  0.12700000000E+01 0. -1.
         25    2    1    2    0    0  0.00000000000E+00  0.00000000000E+00 -0.89386263787E+03  0.90256023465E+03  0.12499824720E+03 0.  0.
    9000005    1    3    3    0    0  0.16525714303E+02  0.65710064027E+01 -0.14366975108E+02  0.22884215786E+02  0.10000000000E+01 0.  0.
    9000005    1    3    3    0    0 -0.16525714303E+02 -0.65710064027E+01 -0.87949566276E+03  0.87967601887E+03  0.10000000000E+01 0.  0.
<mgrwt>
<rscale>  0 0.12499825E+03</rscale>
<asrwt>0</asrwt>
<pdfrwt beam="1">  1        4 0.66904662E-03 0.12499825E+03</pdfrwt>
<pdfrwt beam="2">  1       -4 0.13818623E+00 0.12499825E+03</pdfrwt>
<totfact> 0.34063410E+03</totfact>
</mgrwt>
</event>
<event>
 5    1  0.3267085E-002  0.1249973E+03  0.7818608E-02  0.1235073E+00
          4   -1    0    0  501    0  0.00000000000E+00  0.00000000000E+00  0.30296797014E+02  0.30323403656E+02  0.12700000000E+01 0.  1.
         -4   -1    0    0    0  501 -0.00000000000E+00 -0.00000000000E+00 -0.12884088453E+03  0.12884714365E+03  0.12700000000E+01 0.  1.
         25    2    1    2    0    0  0.00000000000E+00  0.00000000000E+00 -0.98544087513E+02  0.15917054730E+03  0.12499730375E+03 0.  0.
    9000005    1    3    3    0    0 -0.41818395868E+02 -0.20099496558E+01  0.98037778195E+01  0.43010838054E+02  0.10000000000E+01 0.  0.
    9000005    1    3    3    0    0  0.41818395868E+02  0.20099496558E+01 -0.10834786533E+03  0.11615970925E+03  0.10000000000E+01 0.  0.
<mgrwt>
<rscale>  0 0.12499730E+03</rscale>
<asrwt>0</asrwt>
<pdfrwt beam="1">  1        4 0.46635739E-02 0.12499730E+03</pdfrwt>
<pdfrwt beam="2">  1       -4 0.19824202E-01 0.12499730E+03</pdfrwt>
<totfact> 0.97508845E+03</totfact>
</mgrwt>
</event>
<event>
 5    1  0.3267085E-002  0.1249912E+03  0.7818608E-02  0.1235083E+00
         -4   -1    0    0    0  501 -0.00000000000E+00  0.00000000000E+00  0.11542426002E+02  0.11612084137E+02  0.12700000000E+01 0. -1.
          4   -1    0    0  501    0  0.00000000000E+00 -0.00000000000E+00 -0.33728870759E+03  0.33729109856E+03  0.12700000000E+01 0. -1.
         25    2    1    2    0    0  0.00000000000E+00  0.00000000000E+00 -0.32574628158E+03  0.34890318269E+03  0.12499116340E+03 0.  0.
    9000005    1    3    3    0    0  0.38118913917E+02  0.46680682534E+02 -0.11678844869E+03  0.13142556626E+03  0.10000000000E+01 0.  0.
    9000005    1    3    3    0    0 -0.38118913917E+02 -0.46680682534E+02 -0.20895783290E+03  0.21747761643E+03  0.10000000000E+01 0.  0.
<mgrwt>
<rscale>  0 0.12499116E+03</rscale>
<asrwt>0</asrwt>
<pdfrwt beam="2">  1        4 0.51896105E-01 0.12499116E+03</pdfrwt>
<pdfrwt beam="1">  1       -4 0.17813003E-02 0.12499116E+03</pdfrwt>
<totfact> 0.69859052E+03</totfact>
</mgrwt>
</event>
<event>
 5    1  0.3267085E-002  0.1250023E+03  0.7818608E-02  0.1235066E+00
         -4   -1    0    0    0  501 -0.00000000000E+00  0.00000000000E+00  0.22980062092E+03  0.22980413024E+03  0.12700000000E+01 0.  1.
          4   -1    0    0  501    0  0.00000000000E+00 -0.00000000000E+00 -0.16971695540E+02  0.17019146556E+02  0.12700000000E+01 0.  1.
         25    2    1    2    0    0  0.00000000000E+00  0.00000000000E+00  0.21282892538E+03  0.24682327679E+03  0.12500231394E+03 0.  0.
    9000005    1    3    3    0    0 -0.50129014573E+02  0.24483378262E+02  0.50809212130E+02  0.75464759660E+02  0.10000000000E+01 0.  0.
    9000005    1    3    3    0    0  0.50129014573E+02 -0.24483378262E+02  0.16201971325E+03  0.17135851713E+03  0.10000000000E+01 0.  0.
<mgrwt>
<rscale>  0 0.12500231E+03</rscale>
<asrwt>0</asrwt>
<pdfrwt beam="2">  1        4 0.26149502E-02 0.12500231E+03</pdfrwt>
<pdfrwt beam="1">  1       -4 0.35357860E-01 0.12500231E+03</pdfrwt>
<totfact> 0.82787274E+03</totfact>
</mgrwt>
</event>
<event>
 5    1  0.3267085E-002  0.1249921E+03  0.7818608E-02  0.1235082E+00
          4   -1    0    0  501    0  0.00000000000E+00  0.00000000000E+00  0.23776867445E+02  0.23810760709E+02  0.12700000000E+01 0.  1.
         -4   -1    0    0    0  501 -0.00000000000E+00 -0.00000000000E+00 -0.16411375368E+03  0.16411866758E+03  0.12700000000E+01 0.  1.
         25    2    1    2    0    0  0.00000000000E+00  0.00000000000E+00 -0.14033688624E+03  0.18792942829E+03  0.12499211326E+03 0.  0.
    9000005    1    3    3    0    0  0.33516272174E+02  0.51027305600E+02 -0.90207218045E+02  0.10892873177E+03  0.10000000000E+01 0.  0.
    9000005    1    3    3    0    0 -0.33516272174E+02 -0.51027305600E+02 -0.50129668191E+02  0.79000696517E+02  0.10000000000E+01 0.  0.
<mgrwt>
<rscale>  0 0.12499211E+03</rscale>
<asrwt>0</asrwt>
<pdfrwt beam="1">  1        4 0.36609649E-02 0.12499211E+03</pdfrwt>
<pdfrwt beam="2">  1       -4 0.25251254E-01 0.12499211E+03</pdfrwt>
<totfact> 0.92225135E+03</totfact>
</mgrwt>
</event>
<event>
 5    1  0.3267085E-002  0.1249999E+03  0.7818608E-02  0.1235069E+00
         -4   -1    0    0    0  501 -0.00000000000E+00  0.00000000000E+00  0.70703666817E+02  0.70715071954E+02  0.12700000000E+01 0. -1.
          4   -1    0    0  501    0  0.00000000000E+00 -0.00000000000E+00 -0.55224974583E+02  0.55239575647E+02  0.12700000000E+01 0. -1.
         25    2    1    2    0    0  0.00000000000E+00  0.00000000000E+00  0.15478692234E+02  0.12595464760E+03  0.12499993336E+03 0.  0.
    9000005    1    3    3    0    0 -0.33455327520E+02 -0.35491727535E+02  0.47105936989E+02  0.67815123406E+02  0.10000000000E+01 0.  0.
    9000005    1    3    3    0    0  0.33455327520E+02  0.35491727535E+02 -0.31627244754E+02  0.58139524196E+02  0.10000000000E+01 0.  0.
<mgrwt>
<rscale>  0 0.12499993E+03</rscale>
<asrwt>0</asrwt>
<pdfrwt beam="2">  1        4 0.84981505E-02 0.12499993E+03</pdfrwt>
<pdfrwt beam="1">  1       -4 0.10879488E-01 0.12499993E+03</pdfrwt>
<totfact> 0.10431967E+04</totfact>
</mgrwt>
</event>
<event>
 5    1  0.3267085E-002  0.1249998E+03  0.7818608E-02  0.1235070E+00
         -4   -1    0    0    0  501 -0.00000000000E+00  0.00000000000E+00  0.78897805514E+02  0.78908026302E+02  0.12700000000E+01 0.  1.
          4   -1    0    0  501    0  0.00000000000E+00 -0.00000000000E+00 -0.49488549911E+02  0.49504842918E+02  0.12700000000E+01 0.  1.
         25    2    1    2    0    0  0.00000000000E+00  0.00000000000E+00  0.29409255602E+02  0.12841286922E+03  0.12499984266E+03 0.  0.
    9000005    1    3    3    0    0 -0.14080327383E+02 -0.34153301805E+01 -0.47744318318E+02  0.49904308743E+02  0.10000000000E+01 0.  0.
    9000005    1    3    3    0    0  0.14080327383E+02  0.34153301805E+01  0.77153573920E+02  0.78508560477E+02  0.10000000000E+01 0.  0.
<mgrwt>
<rscale>  0 0.12499984E+03</rscale>
<asrwt>0</asrwt>
<pdfrwt beam="2">  1        4 0.76156626E-02 0.12499984E+03</pdfrwt>
<pdfrwt beam="1">  1       -4 0.12140163E-01 0.12499984E+03</pdfrwt>
<totfact> 0.10378618E+04</totfact>
</mgrwt>
</event>
<event>
 5    1  0.3267085E-002  0.1249982E+03  0.7818608E-02  0.1235072E+00
          4   -1    0    0  501    0  0.00000000000E+00  0.00000000000E+00  0.34093235457E+02  0.34116881509E+02  0.12700000000E+01 0.  1.
         -4   -1    0    0    0  501 -0.00000000000E+00 -0.00000000000E+00 -0.11450540668E+03  0.11451244936E+03  0.12700000000E+01 0.  1.
         25    2    1    2    0    0  0.00000000000E+00  0.00000000000E+00 -0.80412171222E+02  0.14862933087E+03  0.12499824284E+03 0.  0.
    9000005    1    3    3    0    0  0.35779483607E+02  0.24729559780E+02  0.13147983303E+02  0.45448784792E+02  0.10000000000E+01 0.  0.
    9000005    1    3    3    0    0 -0.35779483607E+02 -0.24729559780E+02 -0.93560154525E+02  0.10318054608E+03  0.10000000000E+01 0.  0.
<mgrwt>
<rscale>  0 0.12499824E+03</rscale>
<asrwt>0</asrwt>
<pdfrwt beam="1">  1        4 0.52474739E-02 0.12499824E+03</pdfrwt>
<pdfrwt beam="2">  1       -4 0.17618577E-01 0.12499824E+03</pdfrwt>
<totfact> 0.99581563E+03</totfact>
</mgrwt>
</event>
<event>
 5    1  0.3267085E-002  0.1250036E+03  0.7818608E-02  0.1235064E+00
          4   -1    0    0  501    0  0.00000000000E+00  0.00000000000E+00  0.72430334710E+02  0.72441468001E+02  0.12700000000E+01 0. -1.
         -4   -1    0    0    0  501 -0.00000000000E+00 -0.00000000000E+00 -0.53911507232E+02  0.53926463931E+02  0.12700000000E+01 0. -1.
         25    2    1    2    0    0  0.00000000000E+00  0.00000000000E+00  0.18518827477E+02  0.12636793193E+03  0.12500362895E+03 0.  0.
    9000005    1    3    3    0    0 -0.40596531248E+02 -0.99824142477E+01 -0.37699150135E+02  0.56302334450E+02  0.10000000000E+01 0.  0.
    9000005    1    3    3    0    0  0.40596531248E+02  0.99824142477E+01  0.56217977613E+02  0.70065597482E+02  0.10000000000E+01 0.  0.
<mgrwt>
<rscale>  0 0.12500363E+03</rscale>
<asrwt>0</asrwt>
<pdfrwt beam="1">  1        4 0.11145135E-01 0.12500363E+03</pdfrwt>
<pdfrwt beam="2">  1       -4 0.82960850E-02 0.12500363E+03</pdfrwt>
<totfact> 0.10422056E+04</totfact>
</mgrwt>
</event>
<event>
 5    1  0.3267085E-002  0.1249964E+03  0.7818608E-02  0.1235075E+00
          4   -1    0    0  501    0  0.00000000000E+00  0.00000000000E+00  0.22278538114E+03  0.22278900096E+03  0.12700000000E+01 0.  1.
         -4   -1    0    0    0  501 -0.00000000000E+00 -0.00000000000E+00 -0.17505909068E+02  0.17551915916E+02  0.12700000000E+01 0.  1.
         25    2    1    2    0    0  0.00000000000E+00  0.00000000000E+00  0.20527947207E+03  0.24034091688E+03  0.12499637863E+03 0.  0.
    9000005    1    3    3    0    0 -0.48688433662E+02  0.28990796285E+02  0.15329307591E+03  0.16343438121E+03  0.10000000000E+01 0.  0.
    9000005    1    3    3    0    0  0.48688433662E+02 -0.28990796285E+02  0.51986396164E+02  0.76906535664E+02  0.10000000000E+01 0.  0.
<mgrwt>
<rscale>  0 0.12499638E+03</rscale>
<asrwt>0</asrwt>
<pdfrwt beam="1">  1        4 0.34278489E-01 0.12499638E+03</pdfrwt>
<pdfrwt beam="2">  1       -4 0.26970344E-02 0.12499638E+03</pdfrwt>
<totfact> 0.83753382E+03</totfact>
</mgrwt>
</event>
<event>
 5    1  0.3267085E-002  0.1249946E+03  0.7818608E-02  0.1235078E+00
          4   -1    0    0  501    0  0.00000000000E+00  0.00000000000E+00  0.31753556979E+01  0.34199099123E+01  0.12700000000E+01 0.  1.
         -4   -1    0    0    0  501 -0.00000000000E+00 -0.00000000000E+00 -0.11842152356E+04  0.11842159166E+04  0.12700000000E+01 0.  1.
         25    2    1    2    0    0  0.00000000000E+00  0.00000000000E+00 -0.11810398799E+04  0.11876358265E+04  0.12499463386E+03 0.  0.
    9000005    1    3    3    0    0  0.44554665613E+02 -0.26795195992E+02 -0.91991002840E+03  0.92137861984E+03  0.10000000000E+01 0.  0.
    9000005    1    3    3    0    0 -0.44554665613E+02  0.26795195992E+02 -0.26112985147E+03  0.26625720663E+03  0.10000000000E+01 0.  0.
<mgrwt>
<rscale>  0 0.12499463E+03</rscale>
<asrwt>0</asrwt>
<pdfrwt beam="1">  1        4 0.50738145E-03 0.12499463E+03</pdfrwt>
<pdfrwt beam="2">  1       -4 0.18220548E+00 0.12499463E+03</pdfrwt>
<totfact> 0.25041681E+03</totfact>
</mgrwt>
</event>
<event>
 5    1  0.3267085E-002  0.1249955E+03  0.7818608E-02  0.1235076E+00
          4   -1    0    0  501    0  0.00000000000E+00  0.00000000000E+00  0.13808453311E+02  0.13866732954E+02  0.12700000000E+01 0.  1.
         -4   -1    0    0    0  501 -0.00000000000E+00 -0.00000000000E+00 -0.28221262713E+03  0.28221548471E+03  0.12700000000E+01 0.  1.
         25    2    1    2    0    0  0.00000000000E+00  0.00000000000E+00 -0.26840417382E+03  0.29608221767E+03  0.12499551630E+03 0.  0.
    9000005    1    3    3    0    0 -0.15001065815E+01 -0.53268533230E+02 -0.21151107116E+03  0.21812317661E+03  0.10000000000E+01 0.  0.
    9000005    1    3    3    0    0  0.15001065815E+01  0.53268533230E+02 -0.56893102665E+02  0.77959041061E+02  0.10000000000E+01 0.  0.
<mgrwt>
<rscale>  0 0.12499552E+03</rscale>
<asrwt>0</asrwt>
<pdfrwt beam="1">  1        4 0.21290805E-02 0.12499552E+03</pdfrwt>
<pdfrwt beam="2">  1       -4 0.43422026E-01 0.12499552E+03</pdfrwt>
<totfact> 0.76100499E+03</totfact>
</mgrwt>
</event>
<event>
 5    1  0.3267085E-002  0.1250065E+03  0.7818608E-02  0.1235059E+00
         -4   -1    0    0    0  501 -0.00000000000E+00  0.00000000000E+00  0.28271360813E+03  0.28271646065E+03  0.12700000000E+01 0.  1.
          4   -1    0    0  501    0  0.00000000000E+00 -0.00000000000E+00 -0.13786321323E+02  0.13844694132E+02  0.12700000000E+01 0.  1.
         25    2    1    2    0    0  0.00000000000E+00  0.00000000000E+00  0.26892728681E+03  0.29656115478E+03  0.12500653157E+03 0.  0.
    9000005    1    3    3    0    0  0.19423545156E+02 -0.32252246174E+02  0.25280108397E+03  0.25559121571E+03  0.10000000000E+01 0.  0.
    9000005    1    3    3    0    0 -0.19423545156E+02  0.32252246174E+02  0.16126202833E+02  0.40969939072E+02  0.10000000000E+01 0.  0.
<mgrwt>
<rscale>  0 0.12500653E+03</rscale>
<asrwt>0</asrwt>
<pdfrwt beam="2">  1        4 0.21256824E-02 0.12500653E+03</pdfrwt>
<pdfrwt beam="1">  1       -4 0.43499107E-01 0.12500653E+03</pdfrwt>
<totfact> 0.76021212E+03</totfact>
</mgrwt>
</event>
<event>
 5    1  0.3267085E-002  0.1249999E+03  0.7818608E-02  0.1235069E+00
         -4   -1    0    0    0  501 -0.00000000000E+00  0.00000000000E+00  0.32197923203E+02  0.32222960116E+02  0.12700000000E+01 0.  1.
          4   -1    0    0  501    0  0.00000000000E+00 -0.00000000000E+00 -0.12124420765E+03  0.12125085892E+03  0.12700000000E+01 0.  1.
         25    2    1    2    0    0  0.00000000000E+00  0.00000000000E+00 -0.89046284445E+02  0.15347381903E+03  0.12499988942E+03 0.  0.
    9000005    1    3    3    0    0  0.58512296831E+02  0.21329783415E+02 -0.50854851664E+02  0.80410599293E+02  0.10000000000E+01 0.  0.
    9000005    1    3    3    0    0 -0.58512296831E+02 -0.21329783415E+02 -0.38191432781E+02  0.73063219740E+02  0.10000000000E+01 0.  0.
<mgrwt>
<rscale>  0 0.12499989E+03</rscale>
<asrwt>0</asrwt>
<pdfrwt beam="2">  1        4 0.18655392E-01 0.12499989E+03</pdfrwt>
<pdfrwt beam="1">  1       -4 0.49559643E-02 0.12499989E+03</pdfrwt>
<totfact> 0.98615942E+03</totfact>
</mgrwt>
</event>
<event>
 5    1  0.3267085E-002  0.1249997E+03  0.7818608E-02  0.1235070E+00
         -4   -1    0    0    0  501 -0.00000000000E+00  0.00000000000E+00  0.75993642915E+03  0.75993749035E+03  0.12700000000E+01 0. -1.
          4   -1    0    0  501    0  0.00000000000E+00 -0.00000000000E+00 -0.50606791358E+01  0.52176022573E+01  0.12700000000E+01 0. -1.
         25    2    1    2    0    0  0.00000000000E+00  0.00000000000E+00  0.75487575001E+03  0.76515509261E+03  0.12499967117E+03 0.  0.
    9000005    1    3    3    0    0  0.26710692487E+02  0.27518379309E+02  0.67946512631E+03  0.68054726520E+03  0.10000000000E+01 0.  0.
    9000005    1    3    3    0    0 -0.26710692487E+02 -0.27518379309E+02  0.75410623698E+02  0.84607827412E+02  0.10000000000E+01 0.  0.
<mgrwt>
<rscale>  0 0.12499967E+03</rscale>
<asrwt>0</asrwt>
<pdfrwt beam="2">  1        4 0.79071904E-03 0.12499967E+03</pdfrwt>
<pdfrwt beam="1">  1       -4 0.11692539E+00 0.12499967E+03</pdfrwt>
<totfact> 0.39859850E+03</totfact>
</mgrwt>
</event>
<event>
 5    1  0.3267085E-002  0.1250010E+03  0.7818608E-02  0.1235068E+00
         -4   -1    0    0    0  501 -0.00000000000E+00  0.00000000000E+00  0.13308139075E+02  0.13368599988E+02  0.12700000000E+01 0. -1.
          4   -1    0    0  501    0  0.00000000000E+00 -0.00000000000E+00 -0.29280097635E+03  0.29280373059E+03  0.12700000000E+01 0. -1.
         25    2    1    2    0    0  0.00000000000E+00  0.00000000000E+00 -0.27949283727E+03  0.30617233058E+03  0.12500099971E+03 0.  0.
    9000005    1    3    3    0    0 -0.13219602060E+02  0.59883829038E+02 -0.11030499817E+03  0.12621023524E+03  0.10000000000E+01 0.  0.
    9000005    1    3    3    0    0  0.13219602060E+02 -0.59883829038E+02 -0.16918783910E+03  0.17996209534E+03  0.10000000000E+01 0.  0.
<mgrwt>
<rscale>  0 0.12500100E+03</rscale>
<asrwt>0</asrwt>
<pdfrwt beam="2">  1        4 0.45051162E-01 0.12500100E+03</pdfrwt>
<pdfrwt beam="1">  1       -4 0.20522689E-02 0.12500100E+03</pdfrwt>
<totfact> 0.74829401E+03</totfact>
</mgrwt>
</event>
<event>
 5    1  0.3267085E-002  0.1249997E+03  0.7818608E-02  0.1235070E+00
         -4   -1    0    0    0  501 -0.00000000000E+00  0.00000000000E+00  0.19522316379E+03  0.19522729466E+03  0.12700000000E+01 0. -1.
          4   -1    0    0  501    0  0.00000000000E+00 -0.00000000000E+00 -0.19984541904E+02  0.20024854933E+02  0.12700000000E+01 0. -1.
         25    2    1    2    0    0  0.00000000000E+00  0.00000000000E+00  0.17523862188E+03  0.21525214959E+03  0.12499965321E+03 0.  0.
    9000005    1    3    3    0    0  0.11422202862E+02  0.91139021994E+01  0.19224824368E+03  0.19280538668E+03  0.10000000000E+01 0.  0.
    9000005    1    3    3    0    0 -0.11422202862E+02 -0.91139021994E+01 -0.17009621801E+02  0.22446762914E+02  0.10000000000E+01 0.  0.
<mgrwt>
<rscale>  0 0.12499965E+03</rscale>
<asrwt>0</asrwt>
<pdfrwt beam="2">  1        4 0.30779636E-02 0.12499965E+03</pdfrwt>
<pdfrwt beam="1">  1       -4 0.30037752E-01 0.12499965E+03</pdfrwt>
<totfact> 0.87625933E+03</totfact>
</mgrwt>
</event>
<event>
 5    1  0.3267085E-002  0.1249794E+03  0.7818608E-02  0.1235101E+00
         -4   -1    0    0    0  501 -0.00000000000E+00  0.00000000000E+00  0.52422202346E+02  0.52437583838E+02  0.12700000000E+01 0.  1.
          4   -1    0    0  501    0  0.00000000000E+00 -0.00000000000E+00 -0.74458898076E+02  0.74469728096E+02  0.12700000000E+01 0.  1.
         25    2    1    2    0    0  0.00000000000E+00  0.00000000000E+00 -0.22036695730E+02  0.12690731193E+03  0.12497939776E+03 0.  0.
    9000005    1    3    3    0    0  0.58394113580E+02 -0.16726984940E+02  0.38463886594E+01  0.60872483370E+02  0.10000000000E+01 0.  0.
    9000005    1    3    3    0    0 -0.58394113580E+02  0.16726984940E+02 -0.25883084390E+02  0.66034828564E+02  0.10000000000E+01 0.  0.
<mgrwt>
<rscale>  0 0.12497940E+03</rscale>
<asrwt>0</asrwt>
<pdfrwt beam="2">  1        4 0.11457231E-01 0.12497940E+03</pdfrwt>
<pdfrwt beam="1">  1       -4 0.80669705E-02 0.12497940E+03</pdfrwt>
<totfact> 0.10416003E+04</totfact>
</mgrwt>
</event>
<event>
 5    1  0.3267085E-002  0.1250001E+03  0.7818608E-02  0.1235069E+00
         -4   -1    0    0    0  501 -0.00000000000E+00  0.00000000000E+00  0.21249761926E+03  0.21250141432E+03  0.12700000000E+01 0.  1.
          4   -1    0    0  501    0  0.00000000000E+00 -0.00000000000E+00 -0.18356678637E+02  0.18400558431E+02  0.12700000000E+01 0.  1.
         25    2    1    2    0    0  0.00000000000E+00  0.00000000000E+00  0.19414094062E+03  0.23090197276E+03  0.12500006479E+03 0.  0.
    9000005    1    3    3    0    0  0.32695794386E+02  0.48035096232E+02  0.13955113469E+03  0.15116846442E+03  0.10000000000E+01 0.  0.
    9000005    1    3    3    0    0 -0.32695794386E+02 -0.48035096232E+02  0.54589805928E+02  0.79733508337E+02  0.10000000000E+01 0.  0.
<mgrwt>
<rscale>  0 0.12500006E+03</rscale>
<asrwt>0</asrwt>
<pdfrwt beam="2">  1        4 0.28277716E-02 0.12500006E+03</pdfrwt>
<pdfrwt beam="1">  1       -4 0.32695609E-01 0.12500006E+03</pdfrwt>
<totfact> 0.85171166E+03</totfact>
</mgrwt>
</event>
<event>
 5    1  0.3267085E-002  0.1249981E+03  0.7818608E-02  0.1235072E+00
          4   -1    0    0  501    0  0.00000000000E+00  0.00000000000E+00  0.16970029522E+03  0.16970504736E+03  0.12700000000E+01 0.  1.
         -4   -1    0    0    0  501 -0.00000000000E+00 -0.00000000000E+00 -0.22995236558E+02  0.23030280162E+02  0.12700000000E+01 0.  1.
         25    2    1    2    0    0  0.00000000000E+00  0.00000000000E+00  0.14670505866E+03  0.19273532752E+03  0.12499812893E+03 0.  0.
    9000005    1    3    3    0    0 -0.40932519431E+02 -0.25835374449E+02  0.13429576139E+03  0.14275604802E+03  0.10000000000E+01 0.  0.
    9000005    1    3    3    0    0  0.40932519431E+02  0.25835374449E+02  0.12409297272E+02  0.49979279493E+02  0.10000000000E+01 0.  0.
<mgrwt>
<rscale>  0 0.12499813E+03</rscale>
<asrwt>0</asrwt>
<pdfrwt beam="1">  1        4 0.26110800E-01 0.12499813E+03</pdfrwt>
<pdfrwt beam="2">  1       -4 0.35407898E-02 0.12499813E+03</pdfrwt>
<totfact> 0.91377371E+03</totfact>
</mgrwt>
</event>
<event>
 5    1  0.3267085E-002  0.1249949E+03  0.7818608E-02  0.1235077E+00
          4   -1    0    0  501    0  0.00000000000E+00  0.00000000000E+00  0.15533271779E+02  0.15585102892E+02  0.12700000000E+01 0.  1.
         -4   -1    0    0    0  501 -0.00000000000E+00 -0.00000000000E+00 -0.25098333705E+03  0.25098655019E+03  0.12700000000E+01 0.  1.
         25    2    1    2    0    0  0.00000000000E+00  0.00000000000E+00 -0.23545006527E+03  0.26657165309E+03  0.12499485186E+03 0.  0.
    9000005    1    3    3    0    0 -0.77212990996E+01 -0.19248461545E+02  0.79899826832E+01  0.22247731455E+02  0.10000000000E+01 0.  0.
    9000005    1    3    3    0    0  0.77212990996E+01  0.19248461545E+02 -0.24344004796E+03  0.24432392163E+03  0.10000000000E+01 0.  0.
<mgrwt>
<rscale>  0 0.12499485E+03</rscale>
<asrwt>0</asrwt>
<pdfrwt beam="1">  1        4 0.23939685E-02 0.12499485E+03</pdfrwt>
<pdfrwt beam="2">  1       -4 0.38617052E-01 0.12499485E+03</pdfrwt>
<totfact> 0.80001742E+03</totfact>
</mgrwt>
</event>
<event>
 5    1  0.3267085E-002  0.1250020E+03  0.7818608E-02  0.1235066E+00
          4   -1    0    0  501    0  0.00000000000E+00  0.00000000000E+00  0.22050896423E+02  0.22087438355E+02  0.12700000000E+01 0. -1.
         -4   -1    0    0    0  501 -0.00000000000E+00 -0.00000000000E+00 -0.17696718272E+03  0.17697173972E+03  0.12700000000E+01 0. -1.
         25    2    1    2    0    0  0.00000000000E+00  0.00000000000E+00 -0.15491628630E+03  0.19905917808E+03  0.12500200245E+03 0.  0.
    9000005    1    3    3    0    0 -0.33488572164E+02 -0.27722248963E+02 -0.14894766175E+03  0.15516576135E+03  0.10000000000E+01 0.  0.
    9000005    1    3    3    0    0  0.33488572164E+02  0.27722248963E+02 -0.59686245446E+01  0.43893416728E+02  0.10000000000E+01 0.  0.
<mgrwt>
<rscale>  0 0.12500200E+03</rscale>
<asrwt>0</asrwt>
<pdfrwt beam="1">  1        4 0.33956072E-02 0.12500200E+03</pdfrwt>
<pdfrwt beam="2">  1       -4 0.27228881E-01 0.12500200E+03</pdfrwt>
<totfact> 0.90290381E+03</totfact>
</mgrwt>
</event>
<event>
 5    1  0.3267085E-002  0.1249968E+03  0.7818608E-02  0.1235074E+00
         -4   -1    0    0    0  501 -0.00000000000E+00  0.00000000000E+00  0.15543339579E+03  0.15543858410E+03  0.12700000000E+01 0.  1.
          4   -1    0    0  501    0  0.00000000000E+00 -0.00000000000E+00 -0.25108387777E+02  0.25140486009E+02  0.12700000000E+01 0.  1.
         25    2    1    2    0    0  0.00000000000E+00  0.00000000000E+00  0.13032500802E+03  0.18057907011E+03  0.12499677135E+03 0.  0.
    9000005    1    3    3    0    0  0.15750650002E+02 -0.55175073580E+02  0.10092141016E+03  0.11609695409E+03  0.10000000000E+01 0.  0.
    9000005    1    3    3    0    0 -0.15750650002E+02  0.55175073580E+02  0.29403597862E+02  0.64482116027E+02  0.10000000000E+01 0.  0.
<mgrwt>
<rscale>  0 0.12499677E+03</rscale>
<asrwt>0</asrwt>
<pdfrwt beam="2">  1        4 0.38656971E-02 0.12499677E+03</pdfrwt>
<pdfrwt beam="1">  1       -4 0.23915698E-01 0.12499677E+03</pdfrwt>
<totfact> 0.93519642E+03</totfact>
</mgrwt>
</event>
<event>
 5    1  0.3267085E-002  0.1250006E+03  0.7818608E-02  0.1235068E+00
          4   -1    0    0  501    0  0.00000000000E+00  0.00000000000E+00  0.11033480613E+03  0.11034211501E+03  0.12700000000E+01 0.  1.
         -4   -1    0    0    0  501 -0.00000000000E+00 -0.00000000000E+00 -0.35384054823E+02  0.35406838827E+02  0.12700000000E+01 0.  1.
         25    2    1    2    0    0  0.00000000000E+00  0.00000000000E+00  0.74950751310E+02  0.14574895384E+03  0.12500056969E+03 0.  0.
    9000005    1    3    3    0    0  0.17417717350E+01 -0.12841498485E+02  0.10875660956E+03  0.10953053444E+03  0.10000000000E+01 0.  0.
    9000005    1    3    3    0    0 -0.17417717350E+01  0.12841498485E+02 -0.33805858245E+02  0.36218419399E+02  0.10000000000E+01 0.  0.
<mgrwt>
<rscale>  0 0.12500057E+03</rscale>
<asrwt>0</asrwt>
<pdfrwt beam="1">  1        4 0.16976900E-01 0.12500057E+03</pdfrwt>
<pdfrwt beam="2">  1       -4 0.54460156E-02 0.12500057E+03</pdfrwt>
<totfact> 0.10015665E+04</totfact>
</mgrwt>
</event>
<event>
 5    1  0.3267085E-002  0.1250020E+03  0.7818608E-02  0.1235066E+00
         -4   -1    0    0    0  501 -0.00000000000E+00  0.00000000000E+00  0.59113931827E+03  0.59114068250E+03  0.12700000000E+01 0.  1.
          4   -1    0    0  501    0  0.00000000000E+00 -0.00000000000E+00 -0.65458077349E+01  0.66678706423E+01  0.12700000000E+01 0.  1.
         25    2    1    2    0    0  0.00000000000E+00  0.00000000000E+00  0.58459351053E+03  0.59780855314E+03  0.12500197458E+03 0.  0.
    9000005    1    3    3    0    0 -0.53967406702E+02 -0.24106828231E+02  0.38933965686E+03  0.39380196617E+03  0.10000000000E+01 0.  0.
    9000005    1    3    3    0    0  0.53967406702E+02  0.24106828231E+02  0.19525385367E+03  0.20400658697E+03  0.10000000000E+01 0.  0.
<mgrwt>
<rscale>  0 0.12500197E+03</rscale>
<asrwt>0</asrwt>
<pdfrwt beam="2">  1        4 0.10165421E-02 0.12500197E+03</pdfrwt>
<pdfrwt beam="1">  1       -4 0.90953976E-01 0.12500197E+03</pdfrwt>
<totfact> 0.49004123E+03</totfact>
</mgrwt>
</event>
<event>
 5    1  0.3267085E-002  0.1249945E+03  0.7818608E-02  0.1235078E+00
         -4   -1    0    0    0  501 -0.00000000000E+00  0.00000000000E+00  0.64328321043E+02  0.64340856291E+02  0.12700000000E+01 0. -1.
          4   -1    0    0  501    0  0.00000000000E+00 -0.00000000000E+00 -0.60693165164E+02  0.60706451038E+02  0.12700000000E+01 0. -1.
         25    2    1    2    0    0  0.00000000000E+00  0.00000000000E+00  0.36351558787E+01  0.12504730733E+03  0.12499445872E+03 0.  0.
    9000005    1    3    3    0    0 -0.20780979070E+02 -0.13489334214E+02  0.59209877382E+02  0.64192061879E+02  0.10000000000E+01 0.  0.
    9000005    1    3    3    0    0  0.20780979070E+02  0.13489334214E+02 -0.55574721503E+02  0.60855245450E+02  0.10000000000E+01 0.  0.
<mgrwt>
<rscale>  0 0.12499446E+03</rscale>
<asrwt>0</asrwt>
<pdfrwt beam="2">  1        4 0.93393963E-02 0.12499446E+03</pdfrwt>
<pdfrwt beam="1">  1       -4 0.98986510E-02 0.12499446E+03</pdfrwt>
<totfact> 0.10453144E+04</totfact>
</mgrwt>
</event>
<event>
 5    1  0.3267085E-002  0.1250126E+03  0.7818608E-02  0.1235050E+00
          4   -1    0    0  501    0  0.00000000000E+00  0.00000000000E+00  0.47566050498E+02  0.47583001797E+02  0.12700000000E+01 0.  1.
         -4   -1    0    0    0  501 -0.00000000000E+00 -0.00000000000E+00 -0.82102772183E+02  0.82112594041E+02  0.12700000000E+01 0.  1.
         25    2    1    2    0    0  0.00000000000E+00  0.00000000000E+00 -0.34536721685E+02  0.12969559584E+03  0.12501264910E+03 0.  0.
    9000005    1    3    3    0    0  0.40435596070E+02  0.41726663326E+02 -0.41149971775E+02  0.71207247095E+02  0.10000000000E+01 0.  0.
    9000005    1    3    3    0    0 -0.40435596070E+02 -0.41726663326E+02  0.66132500901E+01  0.58488348742E+02  0.10000000000E+01 0.  0.
<mgrwt>
<rscale>  0 0.12501265E+03</rscale>
<asrwt>0</asrwt>
<pdfrwt beam="1">  1        4 0.73199134E-02 0.12501265E+03</pdfrwt>
<pdfrwt beam="2">  1       -4 0.12633255E-01 0.12501265E+03</pdfrwt>
<totfact> 0.10348069E+04</totfact>
</mgrwt>
</event>
<event>
 5    1  0.3267085E-002  0.1250053E+03  0.7818608E-02  0.1235061E+00
         -4   -1    0    0    0  501 -0.00000000000E+00  0.00000000000E+00  0.30724530548E+03  0.30724793024E+03  0.12700000000E+01 0. -1.
          4   -1    0    0  501    0  0.00000000000E+00 -0.00000000000E+00 -0.12680465692E+02  0.12743904824E+02  0.12700000000E+01 0. -1.
         25    2    1    2    0    0  0.00000000000E+00  0.00000000000E+00  0.29456483978E+03  0.31999183507E+03  0.12500531857E+03 0.  0.
    9000005    1    3    3    0    0  0.18767427676E+02 -0.56194401901E+02  0.96371142492E+02  0.11313012089E+03  0.10000000000E+01 0.  0.
    9000005    1    3    3    0    0 -0.18767427676E+02  0.56194401901E+02  0.19819369729E+03  0.20686171418E+03  0.10000000000E+01 0.  0.
<mgrwt>
<rscale>  0 0.12500532E+03</rscale>
<asrwt>0</asrwt>
<pdfrwt beam="2">  1        4 0.19559227E-02 0.12500532E+03</pdfrwt>
<pdfrwt beam="1">  1       -4 0.47273590E-01 0.12500532E+03</pdfrwt>
<totfact> 0.73148470E+03</totfact>
</mgrwt>
</event>
<event>
 5    1  0.3267085E-002  0.1249933E+03  0.7818608E-02  0.1235080E+00
          4   -1    0    0  501    0  0.00000000000E+00  0.00000000000E+00  0.34530289277E+02  0.34553636242E+02  0.12700000000E+01 0. -1.
         -4   -1    0    0    0  501 -0.00000000000E+00 -0.00000000000E+00 -0.11304811561E+03  0.11305524907E+03  0.12700000000E+01 0. -1.
         25    2    1    2    0    0  0.00000000000E+00  0.00000000000E+00 -0.78517826331E+02  0.14760888531E+03  0.12499333571E+03 0.  0.
    9000005    1    3    3    0    0  0.46363223288E+02 -0.96598355926E+01 -0.87402403359E+02  0.99413485052E+02  0.10000000000E+01 0.  0.
    9000005    1    3    3    0    0 -0.46363223288E+02  0.96598355926E+01  0.88845770286E+01  0.48195400261E+02  0.10000000000E+01 0.  0.
<mgrwt>
<rscale>  0 0.12499334E+03</rscale>
<asrwt>0</asrwt>
<pdfrwt beam="1">  1        4 0.53146969E-02 0.12499334E+03</pdfrwt>
<pdfrwt beam="2">  1       -4 0.17394362E-01 0.12499334E+03</pdfrwt>
<totfact> 0.99797455E+03</totfact>
</mgrwt>
</event>
<event>
 5    1  0.3267085E-002  0.1250035E+03  0.7818608E-02  0.1235064E+00
         -4   -1    0    0    0  501 -0.00000000000E+00  0.00000000000E+00  0.29995002887E+03  0.29995271747E+03  0.12700000000E+01 0. -1.
          4   -1    0    0  501    0  0.00000000000E+00 -0.00000000000E+00 -0.12990021883E+02  0.13051956502E+02  0.12700000000E+01 0. -1.
         25    2    1    2    0    0  0.00000000000E+00  0.00000000000E+00  0.28696000699E+03  0.31300467397E+03  0.12500352123E+03 0.  0.
    9000005    1    3    3    0    0  0.48289256729E+02  0.20439397800E+02  0.22860930809E+03  0.23454815506E+03  0.10000000000E+01 0.  0.
    9000005    1    3    3    0    0 -0.48289256729E+02 -0.20439397800E+02  0.58350698894E+02  0.78456518909E+02  0.10000000000E+01 0.  0.
<mgrwt>
<rscale>  0 0.12500352E+03</rscale>
<asrwt>0</asrwt>
<pdfrwt beam="2">  1        4 0.20034362E-02 0.12500352E+03</pdfrwt>
<pdfrwt beam="1">  1       -4 0.46151124E-01 0.12500352E+03</pdfrwt>
<totfact> 0.73990149E+03</totfact>
</mgrwt>
</event>
<event>
 5    1  0.3267085E-002  0.1249990E+03  0.7818608E-02  0.1235071E+00
          4   -1    0    0  501    0  0.00000000000E+00  0.00000000000E+00  0.90875969214E+02  0.90884842964E+02  0.12700000000E+01 0.  1.
         -4   -1    0    0    0  501 -0.00000000000E+00 -0.00000000000E+00 -0.42963373079E+02  0.42982139620E+02  0.12700000000E+01 0.  1.
         25    2    1    2    0    0  0.00000000000E+00  0.00000000000E+00  0.47912596135E+02  0.13386698258E+03  0.12499900863E+03 0.  0.
    9000005    1    3    3    0    0 -0.25663627759E+02  0.50607989923E+02  0.51993727736E+02  0.76968423121E+02  0.10000000000E+01 0.  0.
    9000005    1    3    3    0    0  0.25663627759E+02 -0.50607989923E+02 -0.40811316011E+01  0.56898559463E+02  0.10000000000E+01 0.  0.
<mgrwt>
<rscale>  0 0.12499901E+03</rscale>
<asrwt>0</asrwt>
<pdfrwt beam="1">  1        4 0.13983044E-01 0.12499901E+03</pdfrwt>
<pdfrwt beam="2">  1       -4 0.66118759E-02 0.12499901E+03</pdfrwt>
<totfact> 0.10262237E+04</totfact>
</mgrwt>
</event>
<event>
 5    1  0.3267085E-002  0.1250077E+03  0.7818608E-02  0.1235057E+00
         -4   -1    0    0    0  501 -0.00000000000E+00  0.00000000000E+00  0.34647102550E+02  0.34670370854E+02  0.12700000000E+01 0.  1.
          4   -1    0    0  501    0  0.00000000000E+00 -0.00000000000E+00 -0.11269315510E+03  0.11270031103E+03  0.12700000000E+01 0.  1.
         25    2    1    2    0    0  0.00000000000E+00  0.00000000000E+00 -0.78046052553E+02  0.14737068189E+03  0.12500772601E+03 0.  0.
    9000005    1    3    3    0    0  0.62289016585E+02  0.30744113071E+01 -0.34254803114E+02  0.71160137214E+02  0.10000000000E+01 0.  0.
    9000005    1    3    3    0    0 -0.62289016585E+02 -0.30744113071E+01 -0.43791249439E+02  0.76210544673E+02  0.10000000000E+01 0.  0.
<mgrwt>
<rscale>  0 0.12500773E+03</rscale>
<asrwt>0</asrwt>
<pdfrwt beam="2">  1        4 0.17339749E-01 0.12500773E+03</pdfrwt>
<pdfrwt beam="1">  1       -4 0.53326638E-02 0.12500773E+03</pdfrwt>
<totfact> 0.99813057E+03</totfact>
</mgrwt>
</event>
<event>
 5    1  0.3267085E-002  0.1250035E+03  0.7818608E-02  0.1235064E+00
          4   -1    0    0  501    0  0.00000000000E+00  0.00000000000E+00  0.71674234384E+02  0.71685485103E+02  0.12700000000E+01 0. -1.
         -4   -1    0    0    0  501 -0.00000000000E+00 -0.00000000000E+00 -0.54480155874E+02  0.54494956501E+02  0.12700000000E+01 0. -1.
         25    2    1    2    0    0  0.00000000000E+00  0.00000000000E+00  0.17194078510E+02  0.12618044160E+03  0.12500346998E+03 0.  0.
    9000005    1    3    3    0    0  0.25741960299E+02 -0.84756549674E+01  0.65438710340E+02  0.70835796446E+02  0.10000000000E+01 0.  0.
    9000005    1    3    3    0    0 -0.25741960299E+02  0.84756549674E+01 -0.48244631831E+02  0.55344645158E+02  0.10000000000E+01 0.  0.
<mgrwt>
<rscale>  0 0.12500347E+03</rscale>
<asrwt>0</asrwt>
<pdfrwt beam="1">  1        4 0.11028809E-01 0.12500347E+03</pdfrwt>
<pdfrwt beam="2">  1       -4 0.83835665E-02 0.12500347E+03</pdfrwt>
<totfact> 0.10426190E+04</totfact>
</mgrwt>
</event>
<event>
 5    1  0.3267085E-002  0.1250029E+03  0.7818608E-02  0.1235065E+00
         -4   -1    0    0    0  501 -0.00000000000E+00  0.00000000000E+00  0.25392874263E+02  0.25424613337E+02  0.12700000000E+01 0.  1.
          4   -1    0    0  501    0  0.00000000000E+00 -0.00000000000E+00 -0.15370928319E+03  0.15371452969E+03  0.12700000000E+01 0.  1.
         25    2    1    2    0    0  0.00000000000E+00  0.00000000000E+00 -0.12831640893E+03  0.17913914303E+03  0.12500292703E+03 0.  0.
    9000005    1    3    3    0    0 -0.22695914078E+02 -0.93956278640E+01 -0.14650793304E+03  0.14855624114E+03  0.10000000000E+01 0.  0.
    9000005    1    3    3    0    0  0.22695914078E+02  0.93956278640E+01  0.18191524108E+02  0.30582901893E+02  0.10000000000E+01 0.  0.
<mgrwt>
<rscale>  0 0.12500293E+03</rscale>
<asrwt>0</asrwt>
<pdfrwt beam="2">  1        4 0.23650426E-01 0.12500293E+03</pdfrwt>
<pdfrwt beam="1">  1       -4 0.39094412E-02 0.12500293E+03</pdfrwt>
<totfact> 0.93766036E+03</totfact>
</mgrwt>
</event>
<event>
 5    1  0.3267085E-002  0.1249983E+03  0.7818608E-02  0.1235072E+00
         -4   -1    0    0    0  501 -0.00000000000E+00  0.00000000000E+00  0.18486449930E+03  0.18486886163E+03  0.12700000000E+01 0.  1.
          4   -1    0    0  501    0  0.00000000000E+00 -0.00000000000E+00 -0.21106062765E+02  0.21144237641E+02  0.12700000000E+01 0.  1.
         25    2    1    2    0    0  0.00000000000E+00  0.00000000000E+00  0.16375843653E+03  0.20601309927E+03  0.12499828613E+03 0.  0.
    9000005    1    3    3    0    0  0.36634603404E+02 -0.49008226692E+02  0.60951087037E+02  0.86370917912E+02  0.10000000000E+01 0.  0.
    9000005    1    3    3    0    0 -0.36634603404E+02  0.49008226692E+02  0.10280734950E+03  0.11964218136E+03  0.10000000000E+01 0.  0.
<mgrwt>
<rscale>  0 0.12499829E+03</rscale>
<asrwt>0</asrwt>
<pdfrwt beam="2">  1        4 0.32503586E-02 0.12499829E+03</pdfrwt>
<pdfrwt beam="1">  1       -4 0.28443965E-01 0.12499829E+03</pdfrwt>
<totfact> 0.89134577E+03</totfact>
</mgrwt>
</event>
<event>
 5    1  0.3267085E-002  0.1250020E+03  0.7818608E-02  0.1235066E+00
         -4   -1    0    0    0  501 -0.00000000000E+00  0.00000000000E+00  0.15813588447E+02  0.15864503761E+02  0.12700000000E+01 0.  1.
          4   -1    0    0  501    0  0.00000000000E+00 -0.00000000000E+00 -0.24657699686E+03  0.24658026742E+03  0.12700000000E+01 0.  1.
         25    2    1    2    0    0  0.00000000000E+00  0.00000000000E+00 -0.23076340841E+03  0.26244477118E+03  0.12500202901E+03 0.  0.
    9000005    1    3    3    0    0  0.53600527386E+02 -0.32072973818E+02 -0.11135158651E+03  0.12767876880E+03  0.10000000000E+01 0.  0.
    9000005    1    3    3    0    0 -0.53600527386E+02  0.32072973818E+02 -0.11941182190E+03  0.13476600237E+03  0.10000000000E+01 0.  0.
<mgrwt>
<rscale>  0 0.12500203E+03</rscale>
<asrwt>0</asrwt>
<pdfrwt beam="2">  1        4 0.37939088E-01 0.12500203E+03</pdfrwt>
<pdfrwt beam="1">  1       -4 0.24370281E-02 0.12500203E+03</pdfrwt>
<totfact> 0.80560555E+03</totfact>
</mgrwt>
</event>
<event>
 5    1  0.3267085E-002  0.1250032E+03  0.7818608E-02  0.1235064E+00
         -4   -1    0    0    0  501 -0.00000000000E+00  0.00000000000E+00  0.32823741171E+03  0.32823986861E+03  0.12700000000E+01 0. -1.
          4   -1    0    0  501    0  0.00000000000E+00 -0.00000000000E+00 -0.11864906808E+02  0.11932682580E+02  0.12700000000E+01 0. -1.
         25    2    1    2    0    0  0.00000000000E+00  0.00000000000E+00  0.31637250490E+03  0.34017255119E+03  0.12500321086E+03 0.  0.
    9000005    1    3    3    0    0 -0.46011716397E+02 -0.76049003954E+01  0.27139205410E+03  0.27537167535E+03  0.10000000000E+01 0.  0.
    9000005    1    3    3    0    0  0.46011716397E+02  0.76049003954E+01  0.44980450805E+02  0.64800875846E+02  0.10000000000E+01 0.  0.
<mgrwt>
<rscale>  0 0.12500321E+03</rscale>
<asrwt>0</asrwt>
<pdfrwt beam="2">  1        4 0.18307728E-02 0.12500321E+03</pdfrwt>
<pdfrwt beam="1">  1       -4 0.50503465E-01 0.12500321E+03</pdfrwt>
<totfact> 0.70814365E+03</totfact>
</mgrwt>
</event>
<event>
 5    1  0.3267085E-002  0.1250042E+03  0.7818608E-02  0.1235063E+00
         -4   -1    0    0    0  501 -0.00000000000E+00  0.00000000000E+00  0.10327513546E+04  0.10327521355E+04  0.12700000000E+01 0. -1.
          4   -1    0    0  501    0  0.00000000000E+00 -0.00000000000E+00 -0.36752242574E+01  0.38884667084E+01  0.12700000000E+01 0. -1.
         25    2    1    2    0    0  0.00000000000E+00  0.00000000000E+00  0.10290761303E+04  0.10366406022E+04  0.12500422415E+03 0.  0.
    9000005    1    3    3    0    0  0.42525590678E+02 -0.39940407330E+02  0.32876131503E+03  0.33389918278E+03  0.10000000000E+01 0.  0.
    9000005    1    3    3    0    0 -0.42525590678E+02  0.39940407330E+02  0.70031481532E+03  0.70274141941E+03  0.10000000000E+01 0.  0.
<mgrwt>
<rscale>  0 0.12500422E+03</rscale>
<asrwt>0</asrwt>
<pdfrwt beam="2">  1        4 0.58188201E-03 0.12500422E+03</pdfrwt>
<pdfrwt beam="1">  1       -4 0.15890141E+00 0.12500422E+03</pdfrwt>
<totfact> 0.29412858E+03</totfact>
</mgrwt>
</event>
<event>
 5    1  0.3267085E-002  0.1250016E+03  0.7818608E-02  0.1235067E+00
          4   -1    0    0  501    0  0.00000000000E+00  0.00000000000E+00  0.98431059028E+03  0.98431140958E+03  0.12700000000E+01 0. -1.
         -4   -1    0    0    0  501 -0.00000000000E+00 -0.00000000000E+00 -0.38661710118E+01  0.40694198963E+01  0.12700000000E+01 0. -1.
         25    2    1    2    0    0  0.00000000000E+00  0.00000000000E+00  0.98044441926E+03  0.98838082948E+03  0.12500161923E+03 0.  0.
    9000005    1    3    3    0    0 -0.20133488393E+02 -0.57170695950E+02  0.61052874257E+03  0.61353092126E+03  0.10000000000E+01 0.  0.
    9000005    1    3    3    0    0  0.20133488393E+02  0.57170695950E+02  0.36991567669E+03  0.37484990822E+03  0.10000000000E+01 0.  0.
<mgrwt>
<rscale>  0 0.12500162E+03</rscale>
<asrwt>0</asrwt>
<pdfrwt beam="1">  1        4 0.15144813E+00 0.12500162E+03</pdfrwt>
<pdfrwt beam="2">  1       -4 0.61049297E-03 0.12500162E+03</pdfrwt>
<totfact> 0.30990155E+03</totfact>
</mgrwt>
</event>
<event>
 4    1  0.3267085E-002  0.1248681E+03  0.7818608E-02  0.1235276E+00
         -4   -1    0    0    0  501 -0.00000000000E+00  0.00000000000E+00  0.22140392761E+03  0.22140757001E+03  0.12700000000E+01 0.  1.
          4   -1    0    0  501    0  0.00000000000E+00 -0.00000000000E+00 -0.17579182487E+02  0.17624998068E+02  0.12700000000E+01 0.  1.
    9000005    1    1    2    0    0  0.36943626386E+02 -0.40537090522E+02  0.44838451617E+02  0.70848951876E+02  0.10000000000E+01 0.  0.
    9000005    1    1    2    0    0 -0.36943626386E+02  0.40537090522E+02  0.15898629350E+03  0.16818361621E+03  0.10000000000E+01 0.  0.
<mgrwt>
<rscale>  0 0.12486810E+03</rscale>
<asrwt>0</asrwt>
<pdfrwt beam="2">  1        4 0.27082941E-02 0.12486810E+03</pdfrwt>
<pdfrwt beam="1">  1       -4 0.34065946E-01 0.12486810E+03</pdfrwt>
<totfact> 0.84188994E+03</totfact>
</mgrwt>
</event>
<event>
 5    1  0.3267085E-002  0.1250035E+03  0.7818608E-02  0.1235064E+00
          4   -1    0    0  501    0  0.00000000000E+00  0.00000000000E+00  0.36765115646E+03  0.36765334997E+03  0.12700000000E+01 0.  1.
         -4   -1    0    0    0  501 -0.00000000000E+00 -0.00000000000E+00 -0.10585302080E+02  0.10661215696E+02  0.12700000000E+01 0.  1.
         25    2    1    2    0    0  0.00000000000E+00  0.00000000000E+00  0.35706585438E+03  0.37831456567E+03  0.12500354488E+03 0.  0.
    9000005    1    3    3    0    0 -0.20971238687E+02 -0.54443642546E+02  0.11075381792E+03  0.12518510794E+03  0.10000000000E+01 0.  0.
    9000005    1    3    3    0    0  0.20971238687E+02  0.54443642546E+02  0.24631203646E+03  0.25312945773E+03  0.10000000000E+01 0.  0.
<mgrwt>
<rscale>  0 0.12500354E+03</rscale>
<asrwt>0</asrwt>
<pdfrwt beam="1">  1        4 0.56567730E-01 0.12500354E+03</pdfrwt>
<pdfrwt beam="2">  1       -4 0.16345161E-02 0.12500354E+03</pdfrwt>
<totfact> 0.66712725E+03</totfact>
</mgrwt>
</event>
<event>
 5    1  0.3267085E-002  0.1250013E+03  0.7818608E-02  0.1235067E+00
         -4   -1    0    0    0  501 -0.00000000000E+00  0.00000000000E+00  0.17823269678E+03  0.17823722142E+03  0.12700000000E+01 0. -1.
          4   -1    0    0  501    0  0.00000000000E+00 -0.00000000000E+00 -0.21893818739E+02  0.21930622403E+02  0.12700000000E+01 0. -1.
         25    2    1    2    0    0  0.00000000000E+00  0.00000000000E+00  0.15633887804E+03  0.20016784382E+03  0.12500128365E+03 0.  0.
    9000005    1    3    3    0    0  0.57053839995E+02  0.23799125070E+02  0.63511291565E+02  0.88635338148E+02  0.10000000000E+01 0.  0.
    9000005    1    3    3    0    0 -0.57053839995E+02 -0.23799125070E+02  0.92827586472E+02  0.11153250568E+03  0.10000000000E+01 0.  0.
<mgrwt>
<rscale>  0 0.12500128E+03</rscale>
<asrwt>0</asrwt>
<pdfrwt beam="2">  1        4 0.33714589E-02 0.12500128E+03</pdfrwt>
<pdfrwt beam="1">  1       -4 0.27423594E-01 0.12500128E+03</pdfrwt>
<totfact> 0.90104617E+03</totfact>
</mgrwt>
</event>
<event>
 5    1  0.3267085E-002  0.1250006E+03  0.7818608E-02  0.1235068E+00
         -4   -1    0    0    0  501 -0.00000000000E+00  0.00000000000E+00  0.55702270606E+02  0.55716746591E+02  0.12700000000E+01 0. -1.
          4   -1    0    0  501    0  0.00000000000E+00 -0.00000000000E+00 -0.70098661375E+02  0.70110164931E+02  0.12700000000E+01 0. -1.
         25    2    1    2    0    0  0.00000000000E+00  0.00000000000E+00 -0.14396390769E+02  0.12582691152E+03  0.12500062238E+03 0.  0.
    9000005    1    3    3    0    0  0.58655021789E+01 -0.59633448992E+02 -0.25056282927E+02  0.64956675320E+02  0.10000000000E+01 0.  0.
    9000005    1    3    3    0    0 -0.58655021789E+01  0.59633448992E+02  0.10659892158E+02  0.60870236202E+02  0.10000000000E+01 0.  0.
<mgrwt>
<rscale>  0 0.12500062E+03</rscale>
<asrwt>0</asrwt>
<pdfrwt beam="2">  1        4 0.10786408E-01 0.12500062E+03</pdfrwt>
<pdfrwt beam="1">  1       -4 0.85715785E-02 0.12500062E+03</pdfrwt>
<totfact> 0.10434608E+04</totfact>
</mgrwt>
</event>
<event>
 5    1  0.3267085E-002  0.1250002E+03  0.7818608E-02  0.1235069E+00
          4   -1    0    0  501    0  0.00000000000E+00  0.00000000000E+00  0.14201390653E+04  0.14201396331E+04  0.12700000000E+01 0. -1.
         -4   -1    0    0    0  501 -0.00000000000E+00 -0.00000000000E+00 -0.26034251001E+01  0.28966743435E+01  0.12700000000E+01 0. -1.
         25    2    1    2    0    0  0.00000000000E+00  0.00000000000E+00  0.14175356402E+04  0.14230363075E+04  0.12500016502E+03 0.  0.
    9000005    1    3    3    0    0 -0.15508200310E+02  0.25866033079E+02  0.13318636876E+04  0.13322054790E+04  0.10000000000E+01 0.  0.
    9000005    1    3    3    0    0  0.15508200310E+02 -0.25866033079E+02  0.85671952551E+02  0.90830828456E+02  0.10000000000E+01 0.  0.
<mgrwt>
<rscale>  0 0.12500017E+03</rscale>
<asrwt>0</asrwt>
<pdfrwt beam="1">  1        4 0.21850533E+00 0.12500017E+03</pdfrwt>
<pdfrwt beam="2">  1       -4 0.42312864E-03 0.12500017E+03</pdfrwt>
<totfact> 0.19491869E+03</totfact>
</mgrwt>
</event>
<event>
 5    1  0.3267085E-002  0.1249949E+03  0.7818608E-02  0.1235077E+00
         -4   -1    0    0    0  501 -0.00000000000E+00  0.00000000000E+00  0.26665921325E+02  0.26696146915E+02  0.12700000000E+01 0. -1.
          4   -1    0    0  501    0  0.00000000000E+00 -0.00000000000E+00 -0.14636066104E+03  0.14636617095E+03  0.12700000000E+01 0. -1.
         25    2    1    2    0    0  0.00000000000E+00  0.00000000000E+00 -0.11969473971E+03  0.17306231787E+03  0.12499494050E+03 0.  0.
    9000005    1    3    3    0    0  0.36604341918E+02  0.90673801018E+01 -0.12883708036E+03  0.13424637241E+03  0.10000000000E+01 0.  0.
    9000005    1    3    3    0    0 -0.36604341918E+02 -0.90673801018E+01  0.91423406497E+01  0.38815945457E+02  0.10000000000E+01 0.  0.
<mgrwt>
<rscale>  0 0.12499494E+03</rscale>
<asrwt>0</asrwt>
<pdfrwt beam="2">  1        4 0.22519773E-01 0.12499494E+03</pdfrwt>
<pdfrwt beam="1">  1       -4 0.41051984E-02 0.12499494E+03</pdfrwt>
<totfact> 0.94891697E+03</totfact>
</mgrwt>
</event>
<event>
 5    1  0.3267085E-002  0.1249997E+03  0.7818608E-02  0.1235070E+00
         -4   -1    0    0    0  501 -0.00000000000E+00  0.00000000000E+00  0.10162653322E+02  0.10241700178E+02  0.12700000000E+01 0. -1.
          4   -1    0    0  501    0  0.00000000000E+00 -0.00000000000E+00 -0.38280177769E+03  0.38280388439E+03  0.12700000000E+01 0. -1.
         25    2    1    2    0    0  0.00000000000E+00  0.00000000000E+00 -0.37263912437E+03  0.39304558456E+03  0.12499965815E+03 0.  0.
    9000005    1    3    3    0    0  0.15532851991E+02 -0.40825884511E+02 -0.45797161751E+02  0.63296148078E+02  0.10000000000E+01 0.  0.
    9000005    1    3    3    0    0 -0.15532851991E+02  0.40825884511E+02 -0.32684196262E+03  0.32974943649E+03  0.10000000000E+01 0.  0.
<mgrwt>
<rscale>  0 0.12499966E+03</rscale>
<asrwt>0</asrwt>
<pdfrwt beam="2">  1        4 0.58898813E-01 0.12499966E+03</pdfrwt>
<pdfrwt beam="1">  1       -4 0.15697280E-02 0.12499966E+03</pdfrwt>
<totfact> 0.65235332E+03</totfact>
</mgrwt>
</event>
<event>
 5    1  0.3267085E-002  0.1250128E+03  0.7818608E-02  0.1235049E+00
          4   -1    0    0  501    0  0.00000000000E+00  0.00000000000E+00  0.30834256105E+01  0.33347283990E+01  0.12700000000E+01 0.  1.
         -4   -1    0    0    0  501 -0.00000000000E+00 -0.00000000000E+00 -0.12172489065E+04  0.12172495690E+04  0.12700000000E+01 0.  1.
         25    2    1    2    0    0  0.00000000000E+00  0.00000000000E+00 -0.12141654809E+04  0.12205842974E+04  0.12501284781E+03 0.  0.
    9000005    1    3    3    0    0  0.40075916850E+02  0.76117021744E+00 -0.10752703086E+04  0.10760176091E+04  0.10000000000E+01 0.  0.
    9000005    1    3    3    0    0 -0.40075916850E+02 -0.76117021744E+00 -0.13889517226E+03  0.14456668831E+03  0.10000000000E+01 0.  0.
<mgrwt>
<rscale>  0 0.12501285E+03</rscale>
<asrwt>0</asrwt>
<pdfrwt beam="1">  1        4 0.49375609E-03 0.12501285E+03</pdfrwt>
<pdfrwt beam="2">  1       -4 0.18728808E+00 0.12501285E+03</pdfrwt>
<totfact> 0.24173517E+03</totfact>
</mgrwt>
</event>
<event>
 5    1  0.3267085E-002  0.1250013E+03  0.7818608E-02  0.1235067E+00
          4   -1    0    0  501    0  0.00000000000E+00  0.00000000000E+00  0.12245733037E+03  0.12246391575E+03  0.12700000000E+01 0.  1.
         -4   -1    0    0    0  501 -0.00000000000E+00 -0.00000000000E+00 -0.31879468183E+02  0.31904755001E+02  0.12700000000E+01 0.  1.
         25    2    1    2    0    0  0.00000000000E+00  0.00000000000E+00  0.90577862186E+02  0.15436867075E+03  0.12500134956E+03 0.  0.
    9000005    1    3    3    0    0 -0.81038585592E+01  0.54012823492E+02  0.82792714904E+02  0.99190177267E+02  0.10000000000E+01 0.  0.
    9000005    1    3    3    0    0  0.81038585592E+01 -0.54012823492E+02  0.77851472825E+01  0.55178493486E+02  0.10000000000E+01 0.  0.
<mgrwt>
<rscale>  0 0.12500135E+03</rscale>
<asrwt>0</asrwt>
<pdfrwt beam="1">  1        4 0.18842041E-01 0.12500135E+03</pdfrwt>
<pdfrwt beam="2">  1       -4 0.49069853E-02 0.12500135E+03</pdfrwt>
<totfact> 0.98436591E+03</totfact>
</mgrwt>
</event>
<event>
 5    1  0.3267085E-002  0.1249999E+03  0.7818608E-02  0.1235069E+00
         -4   -1    0    0    0  501 -0.00000000000E+00  0.00000000000E+00  0.24547039944E+02  0.24579871237E+02  0.12700000000E+01 0.  1.
          4   -1    0    0  501    0  0.00000000000E+00 -0.00000000000E+00 -0.15899129692E+03  0.15899636913E+03  0.12700000000E+01 0.  1.
         25    2    1    2    0    0  0.00000000000E+00  0.00000000000E+00 -0.13444425698E+03  0.18357624037E+03  0.12499991117E+03 0.  0.
    9000005    1    3    3    0    0  0.23889037632E+02 -0.48911667136E+02 -0.11230171918E+03  0.12480269801E+03  0.10000000000E+01 0.  0.
    9000005    1    3    3    0    0 -0.23889037632E+02  0.48911667136E+02 -0.22142537804E+02  0.58773542359E+02  0.10000000000E+01 0.  0.
<mgrwt>
<rscale>  0 0.12499991E+03</rscale>
<asrwt>0</asrwt>
<pdfrwt beam="2">  1        4 0.24463115E-01 0.12499991E+03</pdfrwt>
<pdfrwt beam="1">  1       -4 0.37793834E-02 0.12499991E+03</pdfrwt>
<totfact> 0.92977386E+03</totfact>
</mgrwt>
</event>
<event>
 5    1  0.3267085E-002  0.1249986E+03  0.7818608E-02  0.1235072E+00
         -4   -1    0    0    0  501 -0.00000000000E+00  0.00000000000E+00  0.15396082590E+02  0.15448373996E+02  0.12700000000E+01 0. -1.
          4   -1    0    0  501    0  0.00000000000E+00 -0.00000000000E+00 -0.25322733118E+03  0.25323051585E+03  0.12700000000E+01 0. -1.
         25    2    1    2    0    0  0.00000000000E+00  0.00000000000E+00 -0.23783124859E+03  0.26867888984E+03  0.12499857216E+03 0.  0.
    9000005    1    3    3    0    0 -0.33616101355E+02 -0.10443619456E+02 -0.22990018855E+03  0.23258161611E+03  0.10000000000E+01 0.  0.
    9000005    1    3    3    0    0  0.33616101355E+02  0.10443619456E+02 -0.79310600422E+01  0.36097273734E+02  0.10000000000E+01 0.  0.
<mgrwt>
<rscale>  0 0.12499857E+03</rscale>
<asrwt>0</asrwt>
<pdfrwt beam="2">  1        4 0.38962315E-01 0.12499857E+03</pdfrwt>
<pdfrwt beam="1">  1       -4 0.23728957E-02 0.12499857E+03</pdfrwt>
<totfact> 0.79705855E+03</totfact>
</mgrwt>
</event>
<event>
 5    1  0.3267085E-002  0.1249999E+03  0.7818608E-02  0.1235070E+00
         -4   -1    0    0    0  501 -0.00000000000E+00  0.00000000000E+00  0.36528199463E+02  0.36550270259E+02  0.12700000000E+01 0.  1.
          4   -1    0    0  501    0  0.00000000000E+00 -0.00000000000E+00 -0.10687954107E+03  0.10688708621E+03  0.12700000000E+01 0.  1.
         25    2    1    2    0    0  0.00000000000E+00  0.00000000000E+00 -0.70351341604E+02  0.14343735647E+03  0.12499985586E+03 0.  0.
    9000005    1    3    3    0    0  0.55456951010E+02  0.27961274686E+02 -0.43120375149E+02  0.75615296405E+02  0.10000000000E+01 0.  0.
    9000005    1    3    3    0    0 -0.55456951010E+02 -0.27961274686E+02 -0.27230966454E+02  0.67822060065E+02  0.10000000000E+01 0.  0.
<mgrwt>
<rscale>  0 0.12499986E+03</rscale>
<asrwt>0</asrwt>
<pdfrwt beam="2">  1        4 0.16445284E-01 0.12499986E+03</pdfrwt>
<pdfrwt beam="1">  1       -4 0.56220012E-02 0.12499986E+03</pdfrwt>
<totfact> 0.10062868E+04</totfact>
</mgrwt>
</event>
<event>
 5    1  0.3267085E-002  0.1249968E+03  0.7818608E-02  0.1235074E+00
          4   -1    0    0  501    0  0.00000000000E+00  0.00000000000E+00  0.16137166944E+03  0.16137666684E+03  0.12700000000E+01 0.  1.
         -4   -1    0    0    0  501 -0.00000000000E+00 -0.00000000000E+00 -0.24183262134E+02  0.24216586619E+02  0.12700000000E+01 0.  1.
         25    2    1    2    0    0  0.00000000000E+00  0.00000000000E+00  0.13718840731E+03  0.18559325345E+03  0.12499678647E+03 0.  0.
    9000005    1    3    3    0    0  0.49629428136E+02  0.78343191763E+01  0.13425079900E+02  0.52016242313E+02  0.10000000000E+01 0.  0.
    9000005    1    3    3    0    0 -0.49629428136E+02 -0.78343191763E+01  0.12376332741E+03  0.13357701114E+03  0.10000000000E+01 0.  0.
<mgrwt>
<rscale>  0 0.12499679E+03</rscale>
<asrwt>0</asrwt>
<pdfrwt beam="1">  1        4 0.24829358E-01 0.12499679E+03</pdfrwt>
<pdfrwt beam="2">  1       -4 0.37234498E-02 0.12499679E+03</pdfrwt>
<totfact> 0.92626449E+03</totfact>
</mgrwt>
</event>
<event>
 5    1  0.3267085E-002  0.1250010E+03  0.7818608E-02  0.1235068E+00
         -4   -1    0    0    0  501 -0.00000000000E+00  0.00000000000E+00  0.80272804706E+02  0.80282850444E+02  0.12700000000E+01 0. -1.
          4   -1    0    0  501    0  0.00000000000E+00 -0.00000000000E+00 -0.48641619489E+02  0.48658196088E+02  0.12700000000E+01 0. -1.
         25    2    1    2    0    0  0.00000000000E+00  0.00000000000E+00  0.31631185217E+02  0.12894104653E+03  0.12500104641E+03 0.  0.
    9000005    1    3    3    0    0  0.26189696490E+02 -0.32382190291E+02  0.63876099168E+02  0.76260491050E+02  0.10000000000E+01 0.  0.
    9000005    1    3    3    0    0 -0.26189696490E+02  0.32382190291E+02 -0.32244913951E+02  0.52680555482E+02  0.10000000000E+01 0.  0.
<mgrwt>
<rscale>  0 0.12500105E+03</rscale>
<asrwt>0</asrwt>
<pdfrwt beam="2">  1        4 0.74853739E-02 0.12500105E+03</pdfrwt>
<pdfrwt beam="1">  1       -4 0.12351710E-01 0.12500105E+03</pdfrwt>
<totfact> 0.10366969E+04</totfact>
</mgrwt>
</event>
<event>
 5    1  0.3267085E-002  0.1250038E+03  0.7818608E-02  0.1235063E+00
          4   -1    0    0  501    0  0.00000000000E+00  0.00000000000E+00  0.10278578616E+04  0.10278586462E+04  0.12700000000E+01 0. -1.
         -4   -1    0    0    0  501 -0.00000000000E+00 -0.00000000000E+00 -0.36937056435E+01  0.39059392444E+01  0.12700000000E+01 0. -1.
         25    2    1    2    0    0  0.00000000000E+00  0.00000000000E+00  0.10241641560E+04  0.10317645855E+04  0.12500376561E+03 0.  0.
    9000005    1    3    3    0    0  0.26342348544E+02  0.54193059022E+02  0.37528722385E+03  0.38009512935E+03  0.10000000000E+01 0.  0.
    9000005    1    3    3    0    0 -0.26342348544E+02 -0.54193059022E+02  0.64887693215E+03  0.65166945613E+03  0.10000000000E+01 0.  0.
<mgrwt>
<rscale>  0 0.12500377E+03</rscale>
<asrwt>0</asrwt>
<pdfrwt beam="1">  1        4 0.15814824E+00 0.12500377E+03</pdfrwt>
<pdfrwt beam="2">  1       -4 0.58464890E-03 0.12500377E+03</pdfrwt>
<totfact> 0.29568645E+03</totfact>
</mgrwt>
</event>
<event>
 5    1  0.3267085E-002  0.1249996E+03  0.7818608E-02  0.1235070E+00
          4   -1    0    0  501    0  0.00000000000E+00  0.00000000000E+00  0.50980716503E+02  0.50996532776E+02  0.12700000000E+01 0.  1.
         -4   -1    0    0    0  501 -0.00000000000E+00 -0.00000000000E+00 -0.76588659365E+02  0.76599188268E+02  0.12700000000E+01 0.  1.
         25    2    1    2    0    0  0.00000000000E+00  0.00000000000E+00 -0.25607942862E+02  0.12759572104E+03  0.12499960516E+03 0.  0.
    9000005    1    3    3    0    0 -0.51253970663E+02 -0.34798226239E+02 -0.21180453324E+02  0.65478986409E+02  0.10000000000E+01 0.  0.
    9000005    1    3    3    0    0  0.51253970663E+02  0.34798226239E+02 -0.44274895385E+01  0.62116734635E+02  0.10000000000E+01 0.  0.
<mgrwt>
<rscale>  0 0.12499961E+03</rscale>
<asrwt>0</asrwt>
<pdfrwt beam="1">  1        4 0.78452137E-02 0.12499961E+03</pdfrwt>
<pdfrwt beam="2">  1       -4 0.11784897E-01 0.12499961E+03</pdfrwt>
<totfact> 0.10396321E+04</totfact>
</mgrwt>
</event>
<event>
 5    1  0.3267085E-002  0.1249994E+03  0.7818608E-02  0.1235070E+00
          4   -1    0    0  501    0  0.00000000000E+00  0.00000000000E+00  0.20981699150E+02  0.21020099886E+02  0.12700000000E+01 0. -1.
         -4   -1    0    0    0  501 -0.00000000000E+00 -0.00000000000E+00 -0.18596169285E+03  0.18596602945E+03  0.12700000000E+01 0. -1.
         25    2    1    2    0    0  0.00000000000E+00  0.00000000000E+00 -0.16497999370E+03  0.20698612933E+03  0.12499943766E+03 0.  0.
    9000005    1    3    3    0    0 -0.14267386581E+02  0.38478267328E+02 -0.44503611017E+01  0.41290932302E+02  0.10000000000E+01 0.  0.
    9000005    1    3    3    0    0  0.14267386581E+02 -0.38478267328E+02 -0.16052963260E+03  0.16569519703E+03  0.10000000000E+01 0.  0.
<mgrwt>
<rscale>  0 0.12499944E+03</rscale>
<asrwt>0</asrwt>
<pdfrwt beam="1">  1        4 0.32312413E-02 0.12499944E+03</pdfrwt>
<pdfrwt beam="2">  1       -4 0.28612778E-01 0.12499944E+03</pdfrwt>
<totfact> 0.88971582E+03</totfact>
</mgrwt>
</event>
<event>
 5    1  0.3267085E-002  0.1250293E+03  0.7818608E-02  0.1235023E+00
          4   -1    0    0  501    0  0.00000000000E+00  0.00000000000E+00  0.62732319594E+02  0.62745173692E+02  0.12700000000E+01 0.  1.
         -4   -1    0    0    0  501 -0.00000000000E+00 -0.00000000000E+00 -0.62272067244E+02  0.62285016326E+02  0.12700000000E+01 0.  1.
         25    2    1    2    0    0  0.00000000000E+00  0.00000000000E+00  0.46025235069E+00  0.12503019002E+03  0.12502934289E+03 0.  0.
    9000005    1    3    3    0    0 -0.49564515168E+02 -0.37670876765E+02 -0.53688425401E+01  0.62494484479E+02  0.10000000000E+01 0.  0.
    9000005    1    3    3    0    0  0.49564515168E+02  0.37670876765E+02  0.58290948908E+01  0.62535705540E+02  0.10000000000E+01 0.  0.
<mgrwt>
<rscale>  0 0.12502934E+03</rscale>
<asrwt>0</asrwt>
<pdfrwt beam="1">  1        4 0.96531110E-02 0.12502934E+03</pdfrwt>
<pdfrwt beam="2">  1       -4 0.95823029E-02 0.12502934E+03</pdfrwt>
<totfact> 0.10445278E+04</totfact>
</mgrwt>
</event>
<event>
 5    1  0.3267085E-002  0.1250003E+03  0.7818608E-02  0.1235069E+00
          4   -1    0    0  501    0  0.00000000000E+00  0.00000000000E+00  0.30810483301E+02  0.30836646725E+02  0.12700000000E+01 0. -1.
         -4   -1    0    0    0  501 -0.00000000000E+00 -0.00000000000E+00 -0.12670056095E+03  0.12670692580E+03  0.12700000000E+01 0. -1.
         25    2    1    2    0    0  0.00000000000E+00  0.00000000000E+00 -0.95890077651E+02  0.15754357252E+03  0.12500028101E+03 0.  0.
    9000005    1    3    3    0    0  0.84281710226E+01 -0.14252340641E+02  0.28001687958E+02  0.32546241089E+02  0.10000000000E+01 0.  0.
    9000005    1    3    3    0    0 -0.84281710226E+01  0.14252340641E+02 -0.12389176561E+03  0.12499733144E+03  0.10000000000E+01 0.  0.
<mgrwt>
<rscale>  0 0.12500028E+03</rscale>
<asrwt>0</asrwt>
<pdfrwt beam="1">  1        4 0.47425766E-02 0.12500028E+03</pdfrwt>
<pdfrwt beam="2">  1       -4 0.19494896E-01 0.12500028E+03</pdfrwt>
<totfact> 0.97817848E+03</totfact>
</mgrwt>
</event>
<event>
 5    1  0.3267085E-002  0.1249988E+03  0.7818608E-02  0.1235071E+00
         -4   -1    0    0    0  501 -0.00000000000E+00  0.00000000000E+00  0.41201466947E+02  0.41221035632E+02  0.12700000000E+01 0. -1.
          4   -1    0    0  501    0  0.00000000000E+00 -0.00000000000E+00 -0.94760307416E+02  0.94768817454E+02  0.12700000000E+01 0. -1.
         25    2    1    2    0    0  0.00000000000E+00  0.00000000000E+00 -0.53558840469E+02  0.13598985309E+03  0.12499876299E+03 0.  0.
    9000005    1    3    3    0    0  0.91746266647E+01  0.61457947835E+01 -0.93695740940E+02  0.94349543922E+02  0.10000000000E+01 0.  0.
    9000005    1    3    3    0    0 -0.91746266647E+01 -0.61457947835E+01  0.40136900471E+02  0.41640309165E+02  0.10000000000E+01 0.  0.
<mgrwt>
<rscale>  0 0.12499876E+03</rscale>
<asrwt>0</asrwt>
<pdfrwt beam="2">  1        4 0.14580669E-01 0.12499876E+03</pdfrwt>
<pdfrwt beam="1">  1       -4 0.63408472E-02 0.12499876E+03</pdfrwt>
<totfact> 0.10217534E+04</totfact>
</mgrwt>
</event>
<event>
 5    1  0.3267085E-002  0.1249983E+03  0.7818608E-02  0.1235072E+00
         -4   -1    0    0    0  501 -0.00000000000E+00  0.00000000000E+00  0.51859909776E+03  0.51860065281E+03  0.12700000000E+01 0.  1.
          4   -1    0    0  501    0  0.00000000000E+00 -0.00000000000E+00 -0.74769959851E+01  0.75840865608E+01  0.12700000000E+01 0.  1.
         25    2    1    2    0    0  0.00000000000E+00  0.00000000000E+00  0.51112210177E+03  0.52618473937E+03  0.12499830809E+03 0.  0.
    9000005    1    3    3    0    0 -0.13652788910E+02  0.60516515941E+02  0.28720177843E+03  0.29382734536E+03  0.10000000000E+01 0.  0.
    9000005    1    3    3    0    0  0.13652788910E+02 -0.60516515941E+02  0.22392032334E+03  0.23235739401E+03  0.10000000000E+01 0.  0.
<mgrwt>
<rscale>  0 0.12499831E+03</rscale>
<asrwt>0</asrwt>
<pdfrwt beam="2">  1        4 0.11586644E-02 0.12499831E+03</pdfrwt>
<pdfrwt beam="1">  1       -4 0.79792837E-01 0.12499831E+03</pdfrwt>
<totfact> 0.53890488E+03</totfact>
</mgrwt>
</event>
<event>
 5    1  0.3267085E-002  0.1250067E+03  0.7818608E-02  0.1235059E+00
          4   -1    0    0  501    0  0.00000000000E+00  0.00000000000E+00  0.14380405030E+02  0.14436375890E+02  0.12700000000E+01 0.  1.
         -4   -1    0    0    0  501 -0.00000000000E+00 -0.00000000000E+00 -0.27108120193E+03  0.27108417685E+03  0.12700000000E+01 0.  1.
         25    2    1    2    0    0  0.00000000000E+00  0.00000000000E+00 -0.25670079690E+03  0.28552055274E+03  0.12500674745E+03 0.  0.
    9000005    1    3    3    0    0 -0.12224540571E+02  0.52731222961E+02 -0.19969334580E+03  0.20690203871E+03  0.10000000000E+01 0.  0.
    9000005    1    3    3    0    0  0.12224540571E+02 -0.52731222961E+02 -0.57007451101E+02  0.78618514029E+02  0.10000000000E+01 0.  0.
<mgrwt>
<rscale>  0 0.12500675E+03</rscale>
<asrwt>0</asrwt>
<pdfrwt beam="1">  1        4 0.22169045E-02 0.12500675E+03</pdfrwt>
<pdfrwt beam="2">  1       -4 0.41709331E-01 0.12500675E+03</pdfrwt>
<totfact> 0.77440159E+03</totfact>
</mgrwt>
</event>
<event>
 5    1  0.3267085E-002  0.1250003E+03  0.7818608E-02  0.1235069E+00
          4   -1    0    0  501    0  0.00000000000E+00  0.00000000000E+00  0.13914044870E+03  0.13914624452E+03  0.12700000000E+01 0. -1.
         -4   -1    0    0    0  501 -0.00000000000E+00 -0.00000000000E+00 -0.28053527042E+02  0.28082259160E+02  0.12700000000E+01 0. -1.
         25    2    1    2    0    0  0.00000000000E+00  0.00000000000E+00  0.11108692166E+03  0.16722850368E+03  0.12500027312E+03 0.  0.
    9000005    1    3    3    0    0  0.11043601607E+02 -0.61423606812E+02  0.51219478491E+02  0.80741907255E+02  0.10000000000E+01 0.  0.
    9000005    1    3    3    0    0 -0.11043601607E+02  0.61423606812E+02  0.59867443169E+02  0.86486596429E+02  0.10000000000E+01 0.  0.
<mgrwt>
<rscale>  0 0.12500027E+03</rscale>
<asrwt>0</asrwt>
<pdfrwt beam="1">  1        4 0.21408879E-01 0.12500027E+03</pdfrwt>
<pdfrwt beam="2">  1       -4 0.43185832E-02 0.12500027E+03</pdfrwt>
<totfact> 0.95966417E+03</totfact>
</mgrwt>
</event>
<event>
 5    1  0.3267085E-002  0.1249950E+03  0.7818608E-02  0.1235077E+00
         -4   -1    0    0    0  501 -0.00000000000E+00  0.00000000000E+00  0.70072907284E+02  0.70084415067E+02  0.12700000000E+01 0. -1.
          4   -1    0    0  501    0  0.00000000000E+00 -0.00000000000E+00 -0.55717754056E+02  0.55732226019E+02  0.12700000000E+01 0. -1.
         25    2    1    2    0    0  0.00000000000E+00  0.00000000000E+00  0.14355153228E+02  0.12581664109E+03  0.12499502690E+03 0.  0.
    9000005    1    3    3    0    0  0.61545022945E+01 -0.59538991217E+02  0.25244648619E+02  0.64969697995E+02  0.10000000000E+01 0.  0.
    9000005    1    3    3    0    0 -0.61545022945E+01  0.59538991217E+02 -0.10889495391E+02  0.60846943091E+02  0.10000000000E+01 0.  0.
<mgrwt>
<rscale>  0 0.12499503E+03</rscale>
<asrwt>0</asrwt>
<pdfrwt beam="2">  1        4 0.85739607E-02 0.12499503E+03</pdfrwt>
<pdfrwt beam="1">  1       -4 0.10782446E-01 0.12499503E+03</pdfrwt>
<totfact> 0.10436151E+04</totfact>
</mgrwt>
</event>
<event>
 5    1  0.3267085E-002  0.1249986E+03  0.7818608E-02  0.1235072E+00
          4   -1    0    0  501    0  0.00000000000E+00  0.00000000000E+00  0.21330065064E+02  0.21367839751E+02  0.12700000000E+01 0.  1.
         -4   -1    0    0    0  501 -0.00000000000E+00 -0.00000000000E+00 -0.18292731876E+03  0.18293172729E+03  0.12700000000E+01 0.  1.
         25    2    1    2    0    0  0.00000000000E+00  0.00000000000E+00 -0.16159725369E+03  0.20429956704E+03  0.12499856275E+03 0.  0.
    9000005    1    3    3    0    0  0.12641262494E+02  0.59131184398E+02 -0.10658210170E+03  0.12254404468E+03  0.10000000000E+01 0.  0.
    9000005    1    3    3    0    0 -0.12641262494E+02 -0.59131184398E+02 -0.55015151997E+02  0.81755522352E+02  0.10000000000E+01 0.  0.
<mgrwt>
<rscale>  0 0.12499856E+03</rscale>
<asrwt>0</asrwt>
<pdfrwt beam="1">  1        4 0.32847935E-02 0.12499856E+03</pdfrwt>
<pdfrwt beam="2">  1       -4 0.28145908E-01 0.12499856E+03</pdfrwt>
<totfact> 0.89418257E+03</totfact>
</mgrwt>
</event>
<event>
 5    1  0.3267085E-002  0.1249944E+03  0.7818608E-02  0.1235078E+00
         -4   -1    0    0    0  501 -0.00000000000E+00  0.00000000000E+00  0.24032207533E+04  0.24032210888E+04  0.12700000000E+01 0.  1.
          4   -1    0    0  501    0  0.00000000000E+00 -0.00000000000E+00 -0.13767938211E+01  0.18730886860E+01  0.12700000000E+01 0.  1.
         25    2    1    2    0    0  0.00000000000E+00  0.00000000000E+00  0.24018439594E+04  0.24050941775E+04  0.12499438880E+03 0.  0.
    9000005    1    3    3    0    0 -0.40170483344E+02 -0.42569656091E+02  0.77977402916E+03  0.78196827295E+03  0.10000000000E+01 0.  0.
    9000005    1    3    3    0    0  0.40170483344E+02  0.42569656091E+02  0.16220699303E+04  0.16231259046E+04  0.10000000000E+01 0.  0.
<mgrwt>
<rscale>  0 0.12499439E+03</rscale>
<asrwt>0</asrwt>
<pdfrwt beam="2">  1        4 0.25001784E-03 0.12499439E+03</pdfrwt>
<pdfrwt beam="1">  1       -4 0.36976289E+00 0.12499439E+03</pdfrwt>
<totfact> 0.54592104E+02</totfact>
</mgrwt>
</event>
<event>
 5    1  0.3267085E-002  0.1250140E+03  0.7818608E-02  0.1235047E+00
          4   -1    0    0  501    0  0.00000000000E+00  0.00000000000E+00  0.10770060088E+04  0.10770067576E+04  0.12700000000E+01 0. -1.
         -4   -1    0    0    0  501 -0.00000000000E+00 -0.00000000000E+00 -0.35158419026E+01  0.37381872992E+01  0.12700000000E+01 0. -1.
         25    2    1    2    0    0  0.00000000000E+00  0.00000000000E+00  0.10734901669E+04  0.10807449449E+04  0.12501398912E+03 0.  0.
    9000005    1    3    3    0    0  0.37835191466E+02 -0.49736760818E+02  0.52864791029E+03  0.53232965364E+03  0.10000000000E+01 0.  0.
    9000005    1    3    3    0    0 -0.37835191466E+02  0.49736760818E+02  0.54484225662E+03  0.54841529126E+03  0.10000000000E+01 0.  0.
<mgrwt>
<rscale>  0 0.12501399E+03</rscale>
<asrwt>0</asrwt>
<pdfrwt beam="1">  1        4 0.16571084E+00 0.12501399E+03</pdfrwt>
<pdfrwt beam="2">  1       -4 0.55805833E-03 0.12501399E+03</pdfrwt>
<totfact> 0.28045228E+03</totfact>
</mgrwt>
</event>
<event>
 5    1  0.3267085E-002  0.1250010E+03  0.7818608E-02  0.1235068E+00
         -4   -1    0    0    0  501 -0.00000000000E+00  0.00000000000E+00  0.90649594245E+01  0.91534905565E+01  0.12700000000E+01 0. -1.
          4   -1    0    0  501    0  0.00000000000E+00 -0.00000000000E+00 -0.42874075057E+03  0.42874263154E+03  0.12700000000E+01 0. -1.
         25    2    1    2    0    0  0.00000000000E+00  0.00000000000E+00 -0.41967579115E+03  0.43789612210E+03  0.12500097629E+03 0.  0.
    9000005    1    3    3    0    0 -0.41475945652E+02  0.31970956939E+02 -0.32930041092E+03  0.33343988482E+03  0.10000000000E+01 0.  0.
    9000005    1    3    3    0    0  0.41475945652E+02 -0.31970956939E+02 -0.90375380225E+02  0.10445623728E+03  0.10000000000E+01 0.  0.
<mgrwt>
<rscale>  0 0.12500098E+03</rscale>
<asrwt>0</asrwt>
<pdfrwt beam="2">  1        4 0.65967055E-01 0.12500098E+03</pdfrwt>
<pdfrwt beam="1">  1       -4 0.14015643E-02 0.12500098E+03</pdfrwt>
<totfact> 0.61025414E+03</totfact>
</mgrwt>
</event>
<event>
 5    1  0.3267085E-002  0.1250006E+03  0.7818608E-02  0.1235068E+00
         -4   -1    0    0    0  501 -0.00000000000E+00  0.00000000000E+00  0.20177599597E+02  0.20217527680E+02  0.12700000000E+01 0.  1.
          4   -1    0    0  501    0  0.00000000000E+00 -0.00000000000E+00 -0.19336175241E+03  0.19336592304E+03  0.12700000000E+01 0.  1.
         25    2    1    2    0    0  0.00000000000E+00  0.00000000000E+00 -0.17318415281E+03  0.21358345072E+03  0.12500055855E+03 0.  0.
    9000005    1    3    3    0    0 -0.19169260403E+02  0.56800326727E+02 -0.56433030006E+02  0.82337260924E+02  0.10000000000E+01 0.  0.
    9000005    1    3    3    0    0  0.19169260403E+02 -0.56800326727E+02 -0.11675112280E+03  0.13124618980E+03  0.10000000000E+01 0.  0.
<mgrwt>
<rscale>  0 0.12500056E+03</rscale>
<asrwt>0</asrwt>
<pdfrwt beam="2">  1        4 0.29751353E-01 0.12500056E+03</pdfrwt>
<pdfrwt beam="1">  1       -4 0.31076384E-02 0.12500056E+03</pdfrwt>
<totfact> 0.87892883E+03</totfact>
</mgrwt>
</event>
<event>
 5    1  0.3267085E-002  0.1250000E+03  0.7818608E-02  0.1235069E+00
         -4   -1    0    0    0  501 -0.00000000000E+00  0.00000000000E+00  0.20733753087E+02  0.20772612187E+02  0.12700000000E+01 0. -1.
          4   -1    0    0  501    0  0.00000000000E+00 -0.00000000000E+00 -0.18818326655E+03  0.18818755195E+03  0.12700000000E+01 0. -1.
         25    2    1    2    0    0  0.00000000000E+00  0.00000000000E+00 -0.16744951347E+03  0.20896016414E+03  0.12500004255E+03 0.  0.
    9000005    1    3    3    0    0  0.33701477408E+02 -0.63765771848E+01  0.36004011620E+01  0.34502365203E+02  0.10000000000E+01 0.  0.
    9000005    1    3    3    0    0 -0.33701477408E+02  0.63765771848E+01 -0.17104991463E+03  0.17445779894E+03  0.10000000000E+01 0.  0.
<mgrwt>
<rscale>  0 0.12500004E+03</rscale>
<asrwt>0</asrwt>
<pdfrwt beam="2">  1        4 0.28954589E-01 0.12500004E+03</pdfrwt>
<pdfrwt beam="1">  1       -4 0.31931271E-02 0.12500004E+03</pdfrwt>
<totfact> 0.88645898E+03</totfact>
</mgrwt>
</event>
<event>
 5    1  0.3267085E-002  0.1249993E+03  0.7818608E-02  0.1235070E+00
          4   -1    0    0  501    0  0.00000000000E+00  0.00000000000E+00  0.30459642014E+02  0.30486106535E+02  0.12700000000E+01 0. -1.
         -4   -1    0    0    0  501 -0.00000000000E+00 -0.00000000000E+00 -0.12815670669E+03  0.12816299923E+03  0.12700000000E+01 0. -1.
         25    2    1    2    0    0  0.00000000000E+00  0.00000000000E+00 -0.97697064680E+02  0.15864910576E+03  0.12499928925E+03 0.  0.
    9000005    1    3    3    0    0  0.29071211893E+02  0.32594988072E+02 -0.10557534317E+03  0.11425726101E+03  0.10000000000E+01 0.  0.
    9000005    1    3    3    0    0 -0.29071211893E+02 -0.32594988072E+02  0.78782784894E+01  0.44391844750E+02  0.10000000000E+01 0.  0.
<mgrwt>
<rscale>  0 0.12499929E+03</rscale>
<asrwt>0</asrwt>
<pdfrwt beam="1">  1        4 0.46886186E-02 0.12499929E+03</pdfrwt>
<pdfrwt beam="2">  1       -4 0.19718936E-01 0.12499929E+03</pdfrwt>
<totfact> 0.97605420E+03</totfact>
</mgrwt>
</event>
<event>
 5    1  0.3267085E-002  0.1250048E+03  0.7818608E-02  0.1235062E+00
         -4   -1    0    0    0  501 -0.00000000000E+00  0.00000000000E+00  0.34187445704E+01  0.36470144553E+01  0.12700000000E+01 0.  1.
          4   -1    0    0  501    0  0.00000000000E+00 -0.00000000000E+00 -0.11055407785E+04  0.11055415080E+04  0.12700000000E+01 0.  1.
         25    2    1    2    0    0  0.00000000000E+00  0.00000000000E+00 -0.11021220340E+04  0.11091885224E+04  0.12500480226E+03 0.  0.
    9000005    1    3    3    0    0 -0.62393893667E+02 -0.30213538707E+01 -0.53464301689E+03  0.53828085797E+03  0.10000000000E+01 0.  0.
    9000005    1    3    3    0    0  0.62393893667E+02  0.30213538707E+01 -0.56747901706E+03  0.57090766447E+03  0.10000000000E+01 0.  0.
<mgrwt>
<rscale>  0 0.12500480E+03</rscale>
<asrwt>0</asrwt>
<pdfrwt beam="2">  1        4 0.17010054E+00 0.12500480E+03</pdfrwt>
<pdfrwt beam="1">  1       -4 0.54357692E-03 0.12500480E+03</pdfrwt>
<totfact> 0.27213219E+03</totfact>
</mgrwt>
</event>
<event>
 5    1  0.3267085E-002  0.1249979E+03  0.7818608E-02  0.1235073E+00
         -4   -1    0    0    0  501 -0.00000000000E+00  0.00000000000E+00  0.68327374710E+02  0.68339176427E+02  0.12700000000E+01 0.  1.
          4   -1    0    0  501    0  0.00000000000E+00 -0.00000000000E+00 -0.57143926435E+02  0.57158037304E+02  0.12700000000E+01 0.  1.
         25    2    1    2    0    0  0.00000000000E+00  0.00000000000E+00  0.11183448275E+02  0.12549721373E+03  0.12499792454E+03 0.  0.
    9000005    1    3    3    0    0  0.80808289592E+01 -0.53505637584E+02 -0.25789601184E+02  0.59952119055E+02  0.10000000000E+01 0.  0.
    9000005    1    3    3    0    0 -0.80808289592E+01  0.53505637584E+02  0.36973049459E+02  0.65545094677E+02  0.10000000000E+01 0.  0.
<mgrwt>
<rscale>  0 0.12499792E+03</rscale>
<asrwt>0</asrwt>
<pdfrwt beam="2">  1        4 0.87933666E-02 0.12499792E+03</pdfrwt>
<pdfrwt beam="1">  1       -4 0.10513897E-01 0.12499792E+03</pdfrwt>
<totfact> 0.10442505E+04</totfact>
</mgrwt>
</event>
<event>
 5    1  0.3267085E-002  0.1249992E+03  0.7818608E-02  0.1235071E+00
          4   -1    0    0  501    0  0.00000000000E+00  0.00000000000E+00  0.22021888336E+02  0.22058478322E+02  0.12700000000E+01 0.  1.
         -4   -1    0    0    0  501 -0.00000000000E+00 -0.00000000000E+00 -0.17719201798E+03  0.17719656920E+03  0.12700000000E+01 0.  1.
         25    2    1    2    0    0  0.00000000000E+00  0.00000000000E+00 -0.15517012965E+03  0.19925504753E+03  0.12499921932E+03 0.  0.
    9000005    1    3    3    0    0  0.30666347393E+01  0.58316119929E+02 -0.42118712408E+02  0.72008055293E+02  0.10000000000E+01 0.  0.
    9000005    1    3    3    0    0 -0.30666347393E+01 -0.58316119929E+02 -0.11305141724E+03  0.12724699223E+03  0.10000000000E+01 0.  0.
<mgrwt>
<rscale>  0 0.12499922E+03</rscale>
<asrwt>0</asrwt>
<pdfrwt beam="1">  1        4 0.33911476E-02 0.12499922E+03</pdfrwt>
<pdfrwt beam="2">  1       -4 0.27263474E-01 0.12499922E+03</pdfrwt>
<totfact> 0.90262878E+03</totfact>
</mgrwt>
</event>
<event>
 5    1  0.3267085E-002  0.1250090E+03  0.7818608E-02  0.1235055E+00
         -4   -1    0    0    0  501 -0.00000000000E+00  0.00000000000E+00  0.40355243601E+02  0.40375222428E+02  0.12700000000E+01 0.  1.
          4   -1    0    0  501    0  0.00000000000E+00 -0.00000000000E+00 -0.96762402878E+02  0.96770736851E+02  0.12700000000E+01 0.  1.
         25    2    1    2    0    0  0.00000000000E+00  0.00000000000E+00 -0.56407159276E+02  0.13714595928E+03  0.12500898579E+03 0.  0.
    9000005    1    3    3    0    0 -0.42750385647E+02 -0.13990258500E+02 -0.75803693148E+02  0.88150568352E+02  0.10000000000E+01 0.  0.
    9000005    1    3    3    0    0  0.42750385647E+02  0.13990258500E+02  0.19396533872E+02  0.48995390927E+02  0.10000000000E+01 0.  0.
<mgrwt>
<rscale>  0 0.12500899E+03</rscale>
<asrwt>0</asrwt>
<pdfrwt beam="2">  1        4 0.14888701E-01 0.12500899E+03</pdfrwt>
<pdfrwt beam="1">  1       -4 0.62106769E-02 0.12500899E+03</pdfrwt>
<totfact> 0.10190970E+04</totfact>
</mgrwt>
</event>
<event>
 5    1  0.3267085E-002  0.1249626E+03  0.7818608E-02  0.1235128E+00
          4   -1    0    0  501    0  0.00000000000E+00  0.00000000000E+00  0.74464511734E+03  0.74464620033E+03  0.12700000000E+01 0.  1.
         -4   -1    0    0    0  501 -0.00000000000E+00 -0.00000000000E+00 -0.51646320166E+01  0.53184888706E+01  0.12700000000E+01 0.  1.
         25    2    1    2    0    0  0.00000000000E+00  0.00000000000E+00  0.73948048532E+03  0.74996468920E+03  0.12496258194E+03 0.  0.
    9000005    1    3    3    0    0  0.13186582834E+02  0.30307221767E+02  0.68790529257E+03  0.68869957544E+03  0.10000000000E+01 0.  0.
    9000005    1    3    3    0    0 -0.13186582834E+02 -0.30307221767E+02  0.51575192745E+02  0.61265113766E+02  0.10000000000E+01 0.  0.
<mgrwt>
<rscale>  0 0.12496258E+03</rscale>
<asrwt>0</asrwt>
<pdfrwt beam="1">  1        4 0.11457268E+00 0.12496258E+03</pdfrwt>
<pdfrwt beam="2">  1       -4 0.80647743E-03 0.12496258E+03</pdfrwt>
<totfact> 0.40609043E+03</totfact>
</mgrwt>
</event>
<event>
 5    1  0.3267085E-002  0.1249939E+03  0.7818608E-02  0.1235079E+00
          4   -1    0    0  501    0  0.00000000000E+00  0.00000000000E+00  0.47473157792E+03  0.47473327667E+03  0.12700000000E+01 0.  1.
         -4   -1    0    0    0  501 -0.00000000000E+00 -0.00000000000E+00 -0.81767941529E+01  0.82748330870E+01  0.12700000000E+01 0.  1.
         25    2    1    2    0    0  0.00000000000E+00  0.00000000000E+00  0.46655478377E+03  0.48300810975E+03  0.12499387118E+03 0.  0.
    9000005    1    3    3    0    0 -0.37202998992E+02 -0.28648248168E+02  0.39260850869E+03  0.39540767109E+03  0.10000000000E+01 0.  0.
    9000005    1    3    3    0    0  0.37202998992E+02  0.28648248168E+02  0.73946275077E+02  0.87600438668E+02  0.10000000000E+01 0.  0.
<mgrwt>
<rscale>  0 0.12499387E+03</rscale>
<asrwt>0</asrwt>
<pdfrwt beam="1">  1        4 0.73043320E-01 0.12499387E+03</pdfrwt>
<pdfrwt beam="2">  1       -4 0.12656401E-02 0.12499387E+03</pdfrwt>
<totfact> 0.57214960E+03</totfact>
</mgrwt>
</event>
<event>
 5    1  0.3267085E-002  0.1250112E+03  0.7818608E-02  0.1235052E+00
          4   -1    0    0  501    0  0.00000000000E+00  0.00000000000E+00  0.37564893630E+01  0.39653640860E+01  0.12700000000E+01 0. -1.
         -4   -1    0    0    0  501 -0.00000000000E+00 -0.00000000000E+00 -0.10117116961E+04  0.10117124932E+04  0.12700000000E+01 0. -1.
         25    2    1    2    0    0  0.00000000000E+00  0.00000000000E+00 -0.10079552067E+04  0.10156778573E+04  0.12501124358E+03 0.  0.
    9000005    1    3    3    0    0  0.39264296681E+02  0.27451820114E+02 -0.17790856336E+03  0.18424913660E+03  0.10000000000E+01 0.  0.
    9000005    1    3    3    0    0 -0.39264296681E+02 -0.27451820114E+02 -0.83004664338E+03  0.83142872071E+03  0.10000000000E+01 0.  0.
<mgrwt>
<rscale>  0 0.12501124E+03</rscale>
<asrwt>0</asrwt>
<pdfrwt beam="1">  1        4 0.59405085E-03 0.12501124E+03</pdfrwt>
<pdfrwt beam="2">  1       -4 0.15566387E+00 0.12501124E+03</pdfrwt>
<totfact> 0.30083737E+03</totfact>
</mgrwt>
</event>
<event>
 5    1  0.3267085E-002  0.1249978E+03  0.7818608E-02  0.1235073E+00
          4   -1    0    0  501    0  0.00000000000E+00  0.00000000000E+00  0.16991442518E+02  0.17038838541E+02  0.12700000000E+01 0. -1.
         -4   -1    0    0    0  501 -0.00000000000E+00 -0.00000000000E+00 -0.22951774958E+03  0.22952126322E+03  0.12700000000E+01 0. -1.
         25    2    1    2    0    0  0.00000000000E+00  0.00000000000E+00 -0.21252630706E+03  0.24656010177E+03  0.12499781034E+03 0.  0.
    9000005    1    3    3    0    0  0.39937759260E+02  0.35787037299E+02 -0.42977172202E+02  0.68729716890E+02  0.10000000000E+01 0.  0.
    9000005    1    3    3    0    0 -0.39937759260E+02 -0.35787037299E+02 -0.16954913486E+03  0.17783038488E+03  0.10000000000E+01 0.  0.
<mgrwt>
<rscale>  0 0.12499781E+03</rscale>
<asrwt>0</asrwt>
<pdfrwt beam="1">  1        4 0.26179844E-02 0.12499781E+03</pdfrwt>
<pdfrwt beam="2">  1       -4 0.35314337E-01 0.12499781E+03</pdfrwt>
<totfact> 0.82833998E+03</totfact>
</mgrwt>
</event>
<event>
 5    1  0.3267085E-002  0.1250028E+03  0.7818608E-02  0.1235065E+00
          4   -1    0    0  501    0  0.00000000000E+00  0.00000000000E+00  0.85315971401E+02  0.85325423387E+02  0.12700000000E+01 0. -1.
         -4   -1    0    0    0  501 -0.00000000000E+00 -0.00000000000E+00 -0.45766952026E+02  0.45784569428E+02  0.12700000000E+01 0. -1.
         25    2    1    2    0    0  0.00000000000E+00  0.00000000000E+00  0.39549019375E+02  0.13110999281E+03  0.12500282110E+03 0.  0.
    9000005    1    3    3    0    0 -0.29148803736E+02 -0.15325729220E+02 -0.35932453604E+02  0.48751122627E+02  0.10000000000E+01 0.  0.
    9000005    1    3    3    0    0  0.29148803736E+02  0.15325729220E+02  0.75481472980E+02  0.82358870188E+02  0.10000000000E+01 0.  0.
<mgrwt>
<rscale>  0 0.12500282E+03</rscale>
<asrwt>0</asrwt>
<pdfrwt beam="1">  1        4 0.13127616E-01 0.12500282E+03</pdfrwt>
<pdfrwt beam="2">  1       -4 0.70431518E-02 0.12500282E+03</pdfrwt>
<totfact> 0.10320075E+04</totfact>
</mgrwt>
</event>
<event>
 5    1  0.3267085E-002  0.1249987E+03  0.7818608E-02  0.1235071E+00
          4   -1    0    0  501    0  0.00000000000E+00  0.00000000000E+00  0.70387339671E+01  0.71523895210E+01  0.12700000000E+01 0. -1.
         -4   -1    0    0    0  501 -0.00000000000E+00 -0.00000000000E+00 -0.55039477635E+03  0.55039624157E+03  0.12700000000E+01 0. -1.
         25    2    1    2    0    0  0.00000000000E+00  0.00000000000E+00 -0.54335604239E+03  0.55754863109E+03  0.12499874894E+03 0.  0.
    9000005    1    3    3    0    0 -0.21311026420E+02 -0.56350072366E+02 -0.19761852615E+03  0.20660002997E+03  0.10000000000E+01 0.  0.
    9000005    1    3    3    0    0  0.21311026420E+02  0.56350072366E+02 -0.34573751623E+03  0.35094860113E+03  0.10000000000E+01 0.  0.
<mgrwt>
<rscale>  0 0.12499875E+03</rscale>
<asrwt>0</asrwt>
<pdfrwt beam="1">  1        4 0.10917380E-02 0.12499875E+03</pdfrwt>
<pdfrwt beam="2">  1       -4 0.84684941E-01 0.12499875E+03</pdfrwt>
<totfact> 0.51663238E+03</totfact>
</mgrwt>
</event>
<event>
 5    1  0.3267085E-002  0.1249970E+03  0.7818608E-02  0.1235074E+00
         -4   -1    0    0    0  501 -0.00000000000E+00  0.00000000000E+00  0.71648697061E+03  0.71648809617E+03  0.12700000000E+01 0.  1.
          4   -1    0    0  501    0  0.00000000000E+00 -0.00000000000E+00 -0.53765753961E+01  0.55245328300E+01  0.12700000000E+01 0.  1.
         25    2    1    2    0    0  0.00000000000E+00  0.00000000000E+00  0.71111039521E+03  0.72201262900E+03  0.12499696898E+03 0.  0.
    9000005    1    3    3    0    0 -0.28729982865E+01  0.25436724647E+02  0.26269962061E+02  0.36693214449E+02  0.10000000000E+01 0.  0.
    9000005    1    3    3    0    0  0.28729982865E+01 -0.25436724647E+02  0.68484043315E+03  0.68531941455E+03  0.10000000000E+01 0.  0.
<mgrwt>
<rscale>  0 0.12499697E+03</rscale>
<asrwt>0</asrwt>
<pdfrwt beam="2">  1        4 0.83863353E-03 0.12499697E+03</pdfrwt>
<pdfrwt beam="1">  1       -4 0.11024021E+00 0.12499697E+03</pdfrwt>
<totfact> 0.41952626E+03</totfact>
</mgrwt>
</event>
<event>
 5    1  0.3267085E-002  0.1250010E+03  0.7818608E-02  0.1235068E+00
          4   -1    0    0  501    0  0.00000000000E+00  0.00000000000E+00  0.32585017978E+02  0.32609757690E+02  0.12700000000E+01 0.  1.
         -4   -1    0    0    0  501 -0.00000000000E+00 -0.00000000000E+00 -0.11980695443E+03  0.11981368548E+03  0.12700000000E+01 0.  1.
         25    2    1    2    0    0  0.00000000000E+00  0.00000000000E+00 -0.87221936449E+02  0.15242344317E+03  0.12500095932E+03 0.  0.
    9000005    1    3    3    0    0 -0.34260153337E+02  0.48144344474E+02 -0.68411871955E+02  0.90403651673E+02  0.10000000000E+01 0.  0.
    9000005    1    3    3    0    0  0.34260153337E+02 -0.48144344474E+02 -0.18810064494E+02  0.62019791500E+02  0.10000000000E+01 0.  0.
<mgrwt>
<rscale>  0 0.12500096E+03</rscale>
<asrwt>0</asrwt>
<pdfrwt beam="1">  1        4 0.50155006E-02 0.12500096E+03</pdfrwt>
<pdfrwt beam="2">  1       -4 0.18434260E-01 0.12500096E+03</pdfrwt>
<totfact> 0.98820664E+03</totfact>
</mgrwt>
</event>
<event>
 5    1  0.3267085E-002  0.1250011E+03  0.7818608E-02  0.1235068E+00
          4   -1    0    0  501    0  0.00000000000E+00  0.00000000000E+00  0.16676917809E+03  0.16677401375E+03  0.12700000000E+01 0.  1.
         -4   -1    0    0    0  501 -0.00000000000E+00 -0.00000000000E+00 -0.23401110727E+02  0.23435547429E+02  0.12700000000E+01 0.  1.
         25    2    1    2    0    0  0.00000000000E+00  0.00000000000E+00  0.14336806737E+03  0.19020956118E+03  0.12500109769E+03 0.  0.
    9000005    1    3    3    0    0  0.44497654696E+01  0.41579435072E+02  0.14234999020E+03  0.14836835763E+03  0.10000000000E+01 0.  0.
    9000005    1    3    3    0    0 -0.44497654696E+01 -0.41579435072E+02  0.10180771631E+01  0.41841203552E+02  0.10000000000E+01 0.  0.
<mgrwt>
<rscale>  0 0.12500110E+03</rscale>
<asrwt>0</asrwt>
<pdfrwt beam="1">  1        4 0.25659818E-01 0.12500110E+03</pdfrwt>
<pdfrwt beam="2">  1       -4 0.36031918E-02 0.12500110E+03</pdfrwt>
<totfact> 0.91808607E+03</totfact>
</mgrwt>
</event>
<event>
 5    1  0.3267085E-002  0.1249979E+03  0.7818608E-02  0.1235073E+00
         -4   -1    0    0    0  501 -0.00000000000E+00  0.00000000000E+00  0.25975906575E+02  0.26006934122E+02  0.12700000000E+01 0.  1.
          4   -1    0    0  501    0  0.00000000000E+00 -0.00000000000E+00 -0.15025120748E+03  0.15025657473E+03  0.12700000000E+01 0.  1.
         25    2    1    2    0    0  0.00000000000E+00  0.00000000000E+00 -0.12427530090E+03  0.17626350885E+03  0.12499789653E+03 0.  0.
    9000005    1    3    3    0    0  0.56388284259E+02 -0.39477330010E+01 -0.24566294571E+02  0.61641917770E+02  0.10000000000E+01 0.  0.
    9000005    1    3    3    0    0 -0.56388284259E+02  0.39477330010E+01 -0.99709006332E+02  0.11462159108E+03  0.10000000000E+01 0.  0.
<mgrwt>
<rscale>  0 0.12499790E+03</rscale>
<asrwt>0</asrwt>
<pdfrwt beam="2">  1        4 0.23118369E-01 0.12499790E+03</pdfrwt>
<pdfrwt beam="1">  1       -4 0.39990930E-02 0.12499790E+03</pdfrwt>
<totfact> 0.94298390E+03</totfact>
</mgrwt>
</event>
<event>
 5    1  0.3267085E-002  0.1250019E+03  0.7818608E-02  0.1235066E+00
          4   -1    0    0  501    0  0.00000000000E+00  0.00000000000E+00  0.14677897537E+01  0.19409551157E+01  0.12700000000E+01 0. -1.
         -4   -1    0    0    0  501 -0.00000000000E+00 -0.00000000000E+00 -0.22914955317E+04  0.22914958837E+04  0.12700000000E+01 0. -1.
         25    2    1    2    0    0  0.00000000000E+00  0.00000000000E+00 -0.22900277420E+04  0.22934368388E+04  0.12500189775E+03 0.  0.
    9000005    1    3    3    0    0  0.44838729095E+02 -0.56369750315E+01 -0.19369426104E+04  0.19374699903E+04  0.10000000000E+01 0.  0.
    9000005    1    3    3    0    0 -0.44838729095E+02  0.56369750315E+01 -0.35308513158E+03  0.35596684854E+03  0.10000000000E+01 0.  0.
<mgrwt>
<rscale>  0 0.12500190E+03</rscale>
<asrwt>0</asrwt>
<pdfrwt beam="1">  1        4 0.26224005E-03 0.12500190E+03</pdfrwt>
<pdfrwt beam="2">  1       -4 0.35257173E+00 0.12500190E+03</pdfrwt>
<totfact> 0.65009113E+02</totfact>
</mgrwt>
</event>
<event>
 5    1  0.3267085E-002  0.1249998E+03  0.7818608E-02  0.1235070E+00
         -4   -1    0    0    0  501 -0.00000000000E+00  0.00000000000E+00  0.44500711499E+02  0.44518829992E+02  0.12700000000E+01 0. -1.
          4   -1    0    0  501    0  0.00000000000E+00 -0.00000000000E+00 -0.87738684323E+02  0.87747875340E+02  0.12700000000E+01 0. -1.
         25    2    1    2    0    0  0.00000000000E+00  0.00000000000E+00 -0.43237972824E+02  0.13226670533E+03  0.12499983618E+03 0.  0.
    9000005    1    3    3    0    0  0.21824842329E+02 -0.46795023511E+02  0.15628896578E+02  0.53957023420E+02  0.10000000000E+01 0.  0.
    9000005    1    3    3    0    0 -0.21824842329E+02  0.46795023511E+02 -0.58866869402E+02  0.78309681913E+02  0.10000000000E+01 0.  0.
<mgrwt>
<rscale>  0 0.12499984E+03</rscale>
<asrwt>0</asrwt>
<pdfrwt beam="2">  1        4 0.13500360E-01 0.12499984E+03</pdfrwt>
<pdfrwt beam="1">  1       -4 0.68483641E-02 0.12499984E+03</pdfrwt>
<totfact> 0.10296047E+04</totfact>
</mgrwt>
</event>
<event>
 5    1  0.3267085E-002  0.1250094E+03  0.7818608E-02  0.1235055E+00
          4   -1    0    0  501    0  0.00000000000E+00  0.00000000000E+00  0.12150176225E+02  0.12216369440E+02  0.12700000000E+01 0.  1.
         -4   -1    0    0    0  501 -0.00000000000E+00 -0.00000000000E+00 -0.32060483128E+03  0.32060734668E+03  0.12700000000E+01 0.  1.
         25    2    1    2    0    0  0.00000000000E+00  0.00000000000E+00 -0.30845465506E+03  0.33282371612E+03  0.12500940677E+03 0.  0.
    9000005    1    3    3    0    0  0.12438542344E+02  0.59738940445E+02 -0.19018236169E+03  0.19973429610E+03  0.10000000000E+01 0.  0.
    9000005    1    3    3    0    0 -0.12438542344E+02 -0.59738940445E+02 -0.11827229337E+03  0.13308942002E+03  0.10000000000E+01 0.  0.
<mgrwt>
<rscale>  0 0.12500941E+03</rscale>
<asrwt>0</asrwt>
<pdfrwt beam="1">  1        4 0.18745434E-02 0.12500941E+03</pdfrwt>
<pdfrwt beam="2">  1       -4 0.49329099E-01 0.12500941E+03</pdfrwt>
<totfact> 0.71641506E+03</totfact>
</mgrwt>
</event>
<event>
 5    1  0.3267085E-002  0.1250047E+03  0.7818608E-02  0.1235062E+00
         -4   -1    0    0    0  501 -0.00000000000E+00  0.00000000000E+00  0.54901757660E+03  0.54901904549E+03  0.12700000000E+01 0. -1.
          4   -1    0    0  501    0  0.00000000000E+00 -0.00000000000E+00 -0.70573600468E+01  0.71707203843E+01  0.12700000000E+01 0. -1.
         25    2    1    2    0    0  0.00000000000E+00  0.00000000000E+00  0.54196021655E+03  0.55618976588E+03  0.12500471728E+03 0.  0.
    9000005    1    3    3    0    0  0.29241410815E+01  0.60581961348E+02  0.33798977372E+03  0.34339017426E+03  0.10000000000E+01 0.  0.
    9000005    1    3    3    0    0 -0.29241410815E+01 -0.60581961348E+02  0.20397044283E+03  0.21279959161E+03  0.10000000000E+01 0.  0.
<mgrwt>
<rscale>  0 0.12500472E+03</rscale>
<asrwt>0</asrwt>
<pdfrwt beam="2">  1        4 0.10945811E-02 0.12500472E+03</pdfrwt>
<pdfrwt beam="1">  1       -4 0.84473050E-01 0.12500472E+03</pdfrwt>
<totfact> 0.51749858E+03</totfact>
</mgrwt>
</event>
<event>
 5    1  0.3267085E-002  0.1250010E+03  0.7818608E-02  0.1235068E+00
         -4   -1    0    0    0  501 -0.00000000000E+00  0.00000000000E+00  0.14561089612E+03  0.14561643440E+03  0.12700000000E+01 0.  1.
          4   -1    0    0  501    0  0.00000000000E+00 -0.00000000000E+00 -0.26805980609E+02  0.26836048450E+02  0.12700000000E+01 0.  1.
         25    2    1    2    0    0  0.00000000000E+00  0.00000000000E+00  0.11880491551E+03  0.17245248285E+03  0.12500100357E+03 0.  0.
    9000005    1    3    3    0    0 -0.27984804653E+02  0.47130799567E+02  0.10081028795E+03  0.11475267193E+03  0.10000000000E+01 0.  0.
    9000005    1    3    3    0    0  0.27984804653E+02 -0.47130799567E+02  0.17994627562E+02  0.57699810922E+02  0.10000000000E+01 0.  0.
<mgrwt>
<rscale>  0 0.12500100E+03</rscale>
<asrwt>0</asrwt>
<pdfrwt beam="2">  1        4 0.41267359E-02 0.12500100E+03</pdfrwt>
<pdfrwt beam="1">  1       -4 0.22404415E-01 0.12500100E+03</pdfrwt>
<totfact> 0.94991354E+03</totfact>
</mgrwt>
</event>
<event>
 5    1  0.3267085E-002  0.1249964E+03  0.7818608E-02  0.1235075E+00
         -4   -1    0    0    0  501 -0.00000000000E+00  0.00000000000E+00  0.43472084579E+02  0.43490631608E+02  0.12700000000E+01 0. -1.
          4   -1    0    0  501    0  0.00000000000E+00 -0.00000000000E+00 -0.89809105683E+02  0.89818084836E+02  0.12700000000E+01 0. -1.
         25    2    1    2    0    0  0.00000000000E+00  0.00000000000E+00 -0.46337021103E+02  0.13330871644E+03  0.12499637737E+03 0.  0.
    9000005    1    3    3    0    0  0.42296156440E+02  0.43793786858E+02 -0.81553415408E+01  0.61435903286E+02  0.10000000000E+01 0.  0.
    9000005    1    3    3    0    0 -0.42296156440E+02 -0.43793786858E+02 -0.38181679562E+02  0.71872813157E+02  0.10000000000E+01 0.  0.
<mgrwt>
<rscale>  0 0.12499638E+03</rscale>
<asrwt>0</asrwt>
<pdfrwt beam="2">  1        4 0.13818903E-01 0.12499638E+03</pdfrwt>
<pdfrwt beam="1">  1       -4 0.66901304E-02 0.12499638E+03</pdfrwt>
<totfact> 0.10274683E+04</totfact>
</mgrwt>
</event>
<event>
 5    1  0.3267085E-002  0.1250359E+03  0.7818608E-02  0.1235013E+00
          4   -1    0    0  501    0  0.00000000000E+00  0.00000000000E+00  0.10646118523E+03  0.10646876002E+03  0.12700000000E+01 0. -1.
         -4   -1    0    0    0  501 -0.00000000000E+00 -0.00000000000E+00 -0.36692980416E+02  0.36714952156E+02  0.12700000000E+01 0. -1.
         25    2    1    2    0    0  0.00000000000E+00  0.00000000000E+00  0.69768204814E+02  0.14318371218E+03  0.12503588697E+03 0.  0.
    9000005    1    3    3    0    0 -0.18010869623E+02 -0.56986697322E+02  0.55862951812E+02  0.81814084859E+02  0.10000000000E+01 0.  0.
    9000005    1    3    3    0    0  0.18010869623E+02  0.56986697322E+02  0.13905253002E+02  0.61369627319E+02  0.10000000000E+01 0.  0.
<mgrwt>
<rscale>  0 0.12503589E+03</rscale>
<asrwt>0</asrwt>
<pdfrwt beam="1">  1        4 0.16380916E-01 0.12503589E+03</pdfrwt>
<pdfrwt beam="2">  1       -4 0.56473468E-02 0.12503589E+03</pdfrwt>
<totfact> 0.10059889E+04</totfact>
</mgrwt>
</event>
<event>
 5    1  0.3267085E-002  0.1249973E+03  0.7818608E-02  0.1235074E+00
          4   -1    0    0  501    0  0.00000000000E+00  0.00000000000E+00  0.13727991196E+02  0.13786610979E+02  0.12700000000E+01 0.  1.
         -4   -1    0    0    0  501 -0.00000000000E+00 -0.00000000000E+00 -0.28386768375E+03  0.28387052467E+03  0.12700000000E+01 0.  1.
         25    2    1    2    0    0  0.00000000000E+00  0.00000000000E+00 -0.27013969255E+03  0.29765713565E+03  0.12499726761E+03 0.  0.
    9000005    1    3    3    0    0 -0.36890483566E+01 -0.19042547345E+02  0.63897689823E+01  0.20446438194E+02  0.10000000000E+01 0.  0.
    9000005    1    3    3    0    0  0.36890483566E+01  0.19042547345E+02 -0.27652946153E+03  0.27721069745E+03  0.10000000000E+01 0.  0.
<mgrwt>
<rscale>  0 0.12499727E+03</rscale>
<asrwt>0</asrwt>
<pdfrwt beam="1">  1        4 0.21167266E-02 0.12499727E+03</pdfrwt>
<pdfrwt beam="2">  1       -4 0.43676675E-01 0.12499727E+03</pdfrwt>
<totfact> 0.75898272E+03</totfact>
</mgrwt>
</event>
<event>
 5    1  0.3267085E-002  0.1249994E+03  0.7818608E-02  0.1235070E+00
          4   -1    0    0  501    0  0.00000000000E+00  0.00000000000E+00  0.68936680008E+03  0.68936796992E+03  0.12700000000E+01 0. -1.
         -4   -1    0    0    0  501 -0.00000000000E+00 -0.00000000000E+00 -0.55940247586E+01  0.57363762952E+01  0.12700000000E+01 0. -1.
         25    2    1    2    0    0  0.00000000000E+00  0.00000000000E+00  0.68377277532E+03  0.69510434621E+03  0.12499937543E+03 0.  0.
    9000005    1    3    3    0    0 -0.26418330165E+01  0.51690860551E+02  0.14715401496E+03  0.15599432190E+03  0.10000000000E+01 0.  0.
    9000005    1    3    3    0    0  0.26418330165E+01 -0.51690860551E+02  0.53661876036E+03  0.53911002431E+03  0.10000000000E+01 0.  0.
<mgrwt>
<rscale>  0 0.12499938E+03</rscale>
<asrwt>0</asrwt>
<pdfrwt beam="1">  1        4 0.10606736E+00 0.12499938E+03</pdfrwt>
<pdfrwt beam="2">  1       -4 0.87166022E-03 0.12499938E+03</pdfrwt>
<totfact> 0.43347016E+03</totfact>
</mgrwt>
</event>
<event>
 5    1  0.3267085E-002  0.1250023E+03  0.7818608E-02  0.1235066E+00
          4   -1    0    0  501    0  0.00000000000E+00  0.00000000000E+00  0.47196050805E+03  0.47196221677E+03  0.12700000000E+01 0. -1.
         -4   -1    0    0    0  501 -0.00000000000E+00 -0.00000000000E+00 -0.82264977748E+01  0.83239513236E+01  0.12700000000E+01 0. -1.
         25    2    1    2    0    0  0.00000000000E+00  0.00000000000E+00  0.46373401027E+03  0.48028616809E+03  0.12500228388E+03 0.  0.
    9000005    1    3    3    0    0  0.47224972651E+02  0.39461032367E+02  0.27360801285E+03  0.28044556658E+03  0.10000000000E+01 0.  0.
    9000005    1    3    3    0    0 -0.47224972651E+02 -0.39461032367E+02  0.19012599742E+03  0.19984060151E+03  0.10000000000E+01 0.  0.
<mgrwt>
<rscale>  0 0.12500228E+03</rscale>
<asrwt>0</asrwt>
<pdfrwt beam="1">  1        4 0.72616952E-01 0.12500228E+03</pdfrwt>
<pdfrwt beam="2">  1       -4 0.12732426E-02 0.12500228E+03</pdfrwt>
<totfact> 0.57424135E+03</totfact>
</mgrwt>
</event>
<event>
 5    1  0.3267085E-002  0.1250032E+03  0.7818608E-02  0.1235064E+00
          4   -1    0    0  501    0  0.00000000000E+00  0.00000000000E+00  0.62827677878E+03  0.62827806237E+03  0.12700000000E+01 0. -1.
         -4   -1    0    0    0  501 -0.00000000000E+00 -0.00000000000E+00 -0.61515659102E+01  0.62812947032E+01  0.12700000000E+01 0. -1.
         25    2    1    2    0    0  0.00000000000E+00  0.00000000000E+00  0.62212521287E+03  0.63455935707E+03  0.12500318860E+03 0.  0.
    9000005    1    3    3    0    0 -0.55586176864E+02  0.28158763636E+02  0.28687113783E+03  0.29356223999E+03  0.10000000000E+01 0.  0.
    9000005    1    3    3    0    0  0.55586176864E+02 -0.28158763636E+02  0.33525407503E+03  0.34099711708E+03  0.10000000000E+01 0.  0.
<mgrwt>
<rscale>  0 0.12500319E+03</rscale>
<asrwt>0</asrwt>
<pdfrwt beam="1">  1        4 0.96668117E-01 0.12500319E+03</pdfrwt>
<pdfrwt beam="2">  1       -4 0.95647191E-03 0.12500319E+03</pdfrwt>
<totfact> 0.46753053E+03</totfact>
</mgrwt>
</event>
<event>
 5    1  0.3267085E-002  0.1250019E+03  0.7818608E-02  0.1235066E+00
          4   -1    0    0  501    0  0.00000000000E+00  0.00000000000E+00  0.53889030777E+02  0.53903993711E+02  0.12700000000E+01 0.  1.
         -4   -1    0    0    0  501 -0.00000000000E+00 -0.00000000000E+00 -0.72458537547E+02  0.72469666505E+02  0.12700000000E+01 0.  1.
         25    2    1    2    0    0  0.00000000000E+00  0.00000000000E+00 -0.18569506770E+02  0.12637366022E+03  0.12500190164E+03 0.  0.
    9000005    1    3    3    0    0 -0.17935677013E+02  0.54631714923E+02 -0.34028968372E+02  0.66822776610E+02  0.10000000000E+01 0.  0.
    9000005    1    3    3    0    0  0.17935677013E+02 -0.54631714923E+02  0.15459461601E+02  0.59550883607E+02  0.10000000000E+01 0.  0.
<mgrwt>
<rscale>  0 0.12500190E+03</rscale>
<asrwt>0</asrwt>
<pdfrwt beam="1">  1        4 0.82926272E-02 0.12500190E+03</pdfrwt>
<pdfrwt beam="2">  1       -4 0.11149474E-01 0.12500190E+03</pdfrwt>
<totfact> 0.10422337E+04</totfact>
</mgrwt>
</event>
<event>
 5    1  0.3267085E-002  0.1249988E+03  0.7818608E-02  0.1235071E+00
         -4   -1    0    0    0  501 -0.00000000000E+00  0.00000000000E+00  0.10264671587E+02  0.10342938789E+02  0.12700000000E+01 0. -1.
          4   -1    0    0  501    0  0.00000000000E+00 -0.00000000000E+00 -0.37902060306E+03  0.37902273077E+03  0.12700000000E+01 0. -1.
         25    2    1    2    0    0  0.00000000000E+00  0.00000000000E+00 -0.36875593147E+03  0.38936566956E+03  0.12499875055E+03 0.  0.
    9000005    1    3    3    0    0  0.78334128045E+01  0.70327552136E+01 -0.37625397367E+03  0.37640254344E+03  0.10000000000E+01 0.  0.
    9000005    1    3    3    0    0 -0.78334128045E+01 -0.70327552136E+01  0.74980422013E+01  0.12963126124E+02  0.10000000000E+01 0.  0.
<mgrwt>
<rscale>  0 0.12499875E+03</rscale>
<asrwt>0</asrwt>
<pdfrwt beam="2">  1        4 0.58317036E-01 0.12499875E+03</pdfrwt>
<pdfrwt beam="1">  1       -4 0.15853648E-02 0.12499875E+03</pdfrwt>
<totfact> 0.65602196E+03</totfact>
</mgrwt>
</event>
<event>
 5    1  0.3267085E-002  0.1250022E+03  0.7818608E-02  0.1235066E+00
          4   -1    0    0  501    0  0.00000000000E+00  0.00000000000E+00  0.81650142118E+02  0.81660018418E+02  0.12700000000E+01 0. -1.
         -4   -1    0    0    0  501 -0.00000000000E+00 -0.00000000000E+00 -0.47821808017E+02  0.47838668690E+02  0.12700000000E+01 0. -1.
         25    2    1    2    0    0  0.00000000000E+00  0.00000000000E+00  0.33828334101E+02  0.12949868711E+03  0.12500221508E+03 0.  0.
    9000005    1    3    3    0    0  0.53336028960E+02 -0.17401426072E+02 -0.11605101020E+02  0.57299389039E+02  0.10000000000E+01 0.  0.
    9000005    1    3    3    0    0 -0.53336028960E+02  0.17401426072E+02  0.45433435121E+02  0.72199298068E+02  0.10000000000E+01 0.  0.
<mgrwt>
<rscale>  0 0.12500222E+03</rscale>
<asrwt>0</asrwt>
<pdfrwt beam="1">  1        4 0.12563617E-01 0.12500222E+03</pdfrwt>
<pdfrwt beam="2">  1       -4 0.73592579E-02 0.12500222E+03</pdfrwt>
<totfact> 0.10354725E+04</totfact>
</mgrwt>
</event>
<event>
 5    1  0.3267085E-002  0.1249994E+03  0.7818608E-02  0.1235070E+00
         -4   -1    0    0    0  501 -0.00000000000E+00  0.00000000000E+00  0.54865433015E+02  0.54880129737E+02  0.12700000000E+01 0.  1.
          4   -1    0    0  501    0  0.00000000000E+00 -0.00000000000E+00 -0.71166343177E+02  0.71177674176E+02  0.12700000000E+01 0.  1.
         25    2    1    2    0    0  0.00000000000E+00  0.00000000000E+00 -0.16300910161E+02  0.12605780391E+03  0.12499940102E+03 0.  0.
    9000005    1    3    3    0    0  0.62106504495E+02 -0.69274288277E+01 -0.80763957443E+01  0.63019325123E+02  0.10000000000E+01 0.  0.
    9000005    1    3    3    0    0 -0.62106504495E+02  0.69274288277E+01 -0.82245144170E+01  0.63038478790E+02  0.10000000000E+01 0.  0.
<mgrwt>
<rscale>  0 0.12499940E+03</rscale>
<asrwt>0</asrwt>
<pdfrwt beam="2">  1        4 0.10950670E-01 0.12499940E+03</pdfrwt>
<pdfrwt beam="1">  1       -4 0.84428379E-02 0.12499940E+03</pdfrwt>
<totfact> 0.10429832E+04</totfact>
</mgrwt>
</event>
<event>
 5    1  0.3267085E-002  0.1250242E+03  0.7818608E-02  0.1235031E+00
          4   -1    0    0  501    0  0.00000000000E+00  0.00000000000E+00  0.15733195837E+02  0.15784370474E+02  0.12700000000E+01 0. -1.
         -4   -1    0    0    0  501 -0.00000000000E+00 -0.00000000000E+00 -0.24792097368E+03  0.24792422651E+03  0.12700000000E+01 0. -1.
         25    2    1    2    0    0  0.00000000000E+00  0.00000000000E+00 -0.23218777784E+03  0.26370859698E+03  0.12502423742E+03 0.  0.
    9000005    1    3    3    0    0  0.12457069101E+02  0.59756616996E+02 -0.87737627513E+02  0.10688743204E+03  0.10000000000E+01 0.  0.
    9000005    1    3    3    0    0 -0.12457069101E+02 -0.59756616996E+02 -0.14445015033E+03  0.15682116494E+03  0.10000000000E+01 0.  0.
<mgrwt>
<rscale>  0 0.12502424E+03</rscale>
<asrwt>0</asrwt>
<pdfrwt beam="1">  1        4 0.24246786E-02 0.12502424E+03</pdfrwt>
<pdfrwt beam="2">  1       -4 0.38145872E-01 0.12502424E+03</pdfrwt>
<totfact> 0.80345070E+03</totfact>
</mgrwt>
</event>
<event>
 5    1  0.3267085E-002  0.1249994E+03  0.7818608E-02  0.1235070E+00
         -4   -1    0    0    0  501 -0.00000000000E+00  0.00000000000E+00  0.26829545888E+03  0.26829846469E+03  0.12700000000E+01 0. -1.
          4   -1    0    0  501    0  0.00000000000E+00 -0.00000000000E+00 -0.14528569444E+02  0.14583971684E+02  0.12700000000E+01 0. -1.
         25    2    1    2    0    0  0.00000000000E+00  0.00000000000E+00  0.25376688944E+03  0.28288243638E+03  0.12499935454E+03 0.  0.
    9000005    1    3    3    0    0 -0.14312721475E+02  0.60776485081E+02  0.12108074127E+03  0.13623575537E+03  0.10000000000E+01 0.  0.
    9000005    1    3    3    0    0  0.14312721475E+02 -0.60776485081E+02  0.13268614817E+03  0.14664668101E+03  0.10000000000E+01 0.  0.
<mgrwt>
<rscale>  0 0.12499935E+03</rscale>
<asrwt>0</asrwt>
<pdfrwt beam="2">  1        4 0.22396575E-02 0.12499935E+03</pdfrwt>
<pdfrwt beam="1">  1       -4 0.41280717E-01 0.12499935E+03</pdfrwt>
<totfact> 0.77798576E+03</totfact>
</mgrwt>
</event>
<event>
 5    1  0.3267085E-002  0.1249977E+03  0.7818608E-02  0.1235073E+00
         -4   -1    0    0    0  501 -0.00000000000E+00  0.00000000000E+00  0.27806682825E+02  0.27835669738E+02  0.12700000000E+01 0. -1.
          4   -1    0    0  501    0  0.00000000000E+00 -0.00000000000E+00 -0.14036851550E+03  0.14037426062E+03  0.12700000000E+01 0. -1.
         25    2    1    2    0    0  0.00000000000E+00  0.00000000000E+00 -0.11256183267E+03  0.16820993035E+03  0.12499765796E+03 0.  0.
    9000005    1    3    3    0    0  0.24854164226E+02  0.48441829540E+02 -0.97556187723E+02  0.11172533326E+03  0.10000000000E+01 0.  0.
    9000005    1    3    3    0    0 -0.24854164226E+02 -0.48441829540E+02 -0.15005644951E+02  0.56484597095E+02  0.10000000000E+01 0.  0.
<mgrwt>
<rscale>  0 0.12499766E+03</rscale>
<asrwt>0</asrwt>
<pdfrwt beam="2">  1        4 0.21597828E-01 0.12499766E+03</pdfrwt>
<pdfrwt beam="1">  1       -4 0.42806230E-02 0.12499766E+03</pdfrwt>
<totfact> 0.95787951E+03</totfact>
</mgrwt>
</event>
<event>
 5    1  0.3267085E-002  0.1250083E+03  0.7818608E-02  0.1235056E+00
         -4   -1    0    0    0  501 -0.00000000000E+00  0.00000000000E+00  0.68027119751E+03  0.68027238299E+03  0.12700000000E+01 0. -1.
          4   -1    0    0  501    0  0.00000000000E+00 -0.00000000000E+00 -0.56715406621E+01  0.58119939334E+01  0.12700000000E+01 0. -1.
         25    2    1    2    0    0  0.00000000000E+00  0.00000000000E+00  0.67459965685E+03  0.68608437693E+03  0.12500830069E+03 0.  0.
    9000005    1    3    3    0    0  0.50862478163E+02 -0.28592182237E+02  0.46017723602E+03  0.46386268778E+03  0.10000000000E+01 0.  0.
    9000005    1    3    3    0    0 -0.50862478163E+02  0.28592182237E+02  0.21442242083E+03  0.22222168914E+03  0.10000000000E+01 0.  0.
<mgrwt>
<rscale>  0 0.12500830E+03</rscale>
<asrwt>0</asrwt>
<pdfrwt beam="2">  1        4 0.88344011E-03 0.12500830E+03</pdfrwt>
<pdfrwt beam="1">  1       -4 0.10466799E+00 0.12500830E+03</pdfrwt>
<totfact> 0.43823574E+03</totfact>
</mgrwt>
</event>
<event>
 4    1  0.3267085E-002  0.1243078E+03  0.7818608E-02  0.1236155E+00
          4   -1    0    0  501    0  0.00000000000E+00  0.00000000000E+00  0.90937431894E+02  0.90946299647E+02  0.12700000000E+01 0.  1.
         -4   -1    0    0    0  501 -0.00000000000E+00 -0.00000000000E+00 -0.42460472968E+02  0.42479461680E+02  0.12700000000E+01 0.  1.
    9000005    1    1    2    0    0 -0.32118929011E+02  0.25239498905E+02 -0.26031070897E+02  0.48448679629E+02  0.10000000000E+01 0.  0.
    9000005    1    1    2    0    0  0.32118929011E+02 -0.25239498905E+02  0.74508029824E+02  0.84977081698E+02  0.10000000000E+01 0.  0.
<mgrwt>
<rscale>  0 0.12430776E+03</rscale>
<asrwt>0</asrwt>
<pdfrwt beam="1">  1        4 0.13992517E-01 0.12430776E+03</pdfrwt>
<pdfrwt beam="2">  1       -4 0.65345233E-02 0.12430776E+03</pdfrwt>
<totfact> 0.10433399E+04</totfact>
</mgrwt>
</event>
<event>
 5    1  0.3267085E-002  0.1249982E+03  0.7818608E-02  0.1235072E+00
         -4   -1    0    0    0  501 -0.00000000000E+00  0.00000000000E+00  0.56954463732E+01  0.58353242746E+01  0.12700000000E+01 0.  1.
          4   -1    0    0  501    0  0.00000000000E+00 -0.00000000000E+00 -0.67737499246E+03  0.67737618301E+03  0.12700000000E+01 0.  1.
         25    2    1    2    0    0  0.00000000000E+00  0.00000000000E+00 -0.67167954608E+03  0.68321150728E+03  0.12499820421E+03 0.  0.
    9000005    1    3    3    0    0  0.38087055909E+02  0.31611484840E+02 -0.12733456159E+03  0.13661991208E+03  0.10000000000E+01 0.  0.
    9000005    1    3    3    0    0 -0.38087055909E+02 -0.31611484840E+02 -0.54434498449E+03  0.54659159520E+03  0.10000000000E+01 0.  0.
<mgrwt>
<rscale>  0 0.12499820E+03</rscale>
<asrwt>0</asrwt>
<pdfrwt beam="2">  1        4 0.10422233E+00 0.12499820E+03</pdfrwt>
<pdfrwt beam="1">  1       -4 0.88707447E-03 0.12499820E+03</pdfrwt>
<totfact> 0.43989630E+03</totfact>
</mgrwt>
</event>
<event>
 5    1  0.3267085E-002  0.1249992E+03  0.7818608E-02  0.1235071E+00
         -4   -1    0    0    0  501 -0.00000000000E+00  0.00000000000E+00  0.10979222755E+02  0.11052431059E+02  0.12700000000E+01 0. -1.
          4   -1    0    0  501    0  0.00000000000E+00 -0.00000000000E+00 -0.35452458385E+03  0.35452685858E+03  0.12700000000E+01 0. -1.
         25    2    1    2    0    0  0.00000000000E+00  0.00000000000E+00 -0.34354536110E+03  0.36557928964E+03  0.12499920753E+03 0.  0.
    9000005    1    3    3    0    0 -0.53170261955E+02  0.15861637619E+02 -0.25585490734E+03  0.26180412891E+03  0.10000000000E+01 0.  0.
    9000005    1    3    3    0    0  0.53170261955E+02 -0.15861637619E+02 -0.87690453752E+02  0.10377516072E+03  0.10000000000E+01 0.  0.
<mgrwt>
<rscale>  0 0.12499921E+03</rscale>
<asrwt>0</asrwt>
<pdfrwt beam="2">  1        4 0.54548041E-01 0.12499921E+03</pdfrwt>
<pdfrwt beam="1">  1       -4 0.16949179E-02 0.12499921E+03</pdfrwt>
<totfact> 0.68045172E+03</totfact>
</mgrwt>
</event>
<event>
 5    1  0.3267085E-002  0.1249978E+03  0.7818608E-02  0.1235073E+00
          4   -1    0    0  501    0  0.00000000000E+00  0.00000000000E+00  0.26819587105E+03  0.26819887798E+03  0.12700000000E+01 0.  1.
         -4   -1    0    0    0  501 -0.00000000000E+00 -0.00000000000E+00 -0.14533614863E+02  0.14588997943E+02  0.12700000000E+01 0.  1.
         25    2    1    2    0    0  0.00000000000E+00  0.00000000000E+00  0.25366225619E+03  0.28278787592E+03  0.12499777019E+03 0.  0.
    9000005    1    3    3    0    0  0.19411062230E+02 -0.57350966414E+02  0.16181985744E+03  0.17277901767E+03  0.10000000000E+01 0.  0.
    9000005    1    3    3    0    0 -0.19411062230E+02  0.57350966414E+02  0.91842398750E+02  0.11000885825E+03  0.10000000000E+01 0.  0.
<mgrwt>
<rscale>  0 0.12499777E+03</rscale>
<asrwt>0</asrwt>
<pdfrwt beam="1">  1        4 0.41265393E-01 0.12499777E+03</pdfrwt>
<pdfrwt beam="2">  1       -4 0.22404324E-02 0.12499777E+03</pdfrwt>
<totfact> 0.77813756E+03</totfact>
</mgrwt>
</event>
<event>
 5    1  0.3267085E-002  0.1249995E+03  0.7818608E-02  0.1235070E+00
          4   -1    0    0  501    0  0.00000000000E+00  0.00000000000E+00  0.34467352312E+03  0.34467586286E+03  0.12700000000E+01 0. -1.
         -4   -1    0    0    0  501 -0.00000000000E+00 -0.00000000000E+00 -0.11295127434E+02  0.11366301234E+02  0.12700000000E+01 0. -1.
         25    2    1    2    0    0  0.00000000000E+00  0.00000000000E+00  0.33337839568E+03  0.35604216409E+03  0.12499947162E+03 0.  0.
    9000005    1    3    3    0    0  0.54959263742E+02  0.16759218573E+02  0.23668125580E+03  0.24355781434E+03  0.10000000000E+01 0.  0.
    9000005    1    3    3    0    0 -0.54959263742E+02 -0.16759218573E+02  0.96697139879E+02  0.11248434975E+03  0.10000000000E+01 0.  0.
<mgrwt>
<rscale>  0 0.12499947E+03</rscale>
<asrwt>0</asrwt>
<pdfrwt beam="1">  1        4 0.53032346E-01 0.12499947E+03</pdfrwt>
<pdfrwt beam="2">  1       -4 0.17433670E-02 0.12499947E+03</pdfrwt>
<totfact> 0.69065728E+03</totfact>
</mgrwt>
</event>
<event>
 5    1  0.3267085E-002  0.1249971E+03  0.7818608E-02  0.1235074E+00
          4   -1    0    0  501    0  0.00000000000E+00  0.00000000000E+00  0.13332279129E+03  0.13332884000E+03  0.12700000000E+01 0. -1.
         -4   -1    0    0    0  501 -0.00000000000E+00 -0.00000000000E+00 -0.29277332165E+02  0.29304864420E+02  0.12700000000E+01 0. -1.
         25    2    1    2    0    0  0.00000000000E+00  0.00000000000E+00  0.10404545912E+03  0.16263370442E+03  0.12499705697E+03 0.  0.
    9000005    1    3    3    0    0  0.45824338500E+02  0.36639027044E+02  0.80012349851E+02  0.99223305883E+02  0.10000000000E+01 0.  0.
    9000005    1    3    3    0    0 -0.45824338500E+02 -0.36639027044E+02  0.24033109270E+02  0.63410398539E+02  0.10000000000E+01 0.  0.
<mgrwt>
<rscale>  0 0.12499706E+03</rscale>
<asrwt>0</asrwt>
<pdfrwt beam="1">  1        4 0.20513782E-01 0.12499706E+03</pdfrwt>
<pdfrwt beam="2">  1       -4 0.45067881E-02 0.12499706E+03</pdfrwt>
<totfact> 0.96843821E+03</totfact>
</mgrwt>
</event>
<event>
 5    1  0.3267085E-002  0.1250019E+03  0.7818608E-02  0.1235066E+00
         -4   -1    0    0    0  501 -0.00000000000E+00  0.00000000000E+00  0.11151938464E+03  0.11152661588E+03  0.12700000000E+01 0.  1.
          4   -1    0    0  501    0  0.00000000000E+00 -0.00000000000E+00 -0.35008728474E+02  0.35031756584E+02  0.12700000000E+01 0.  1.
         25    2    1    2    0    0  0.00000000000E+00  0.00000000000E+00  0.76510656163E+02  0.14655837246E+03  0.12500190412E+03 0.  0.
    9000005    1    3    3    0    0 -0.30095537935E+02  0.10125244832E+02  0.10136214489E+03  0.10622403872E+03  0.10000000000E+01 0.  0.
    9000005    1    3    3    0    0  0.30095537935E+02 -0.10125244832E+02 -0.24851488724E+02  0.40334333741E+02  0.10000000000E+01 0.  0.
<mgrwt>
<rscale>  0 0.12500190E+03</rscale>
<asrwt>0</asrwt>
<pdfrwt beam="2">  1        4 0.53882858E-02 0.12500190E+03</pdfrwt>
<pdfrwt beam="1">  1       -4 0.17159156E-01 0.12500190E+03</pdfrwt>
<totfact> 0.99989927E+03</totfact>
</mgrwt>
</event>
<event>
 5    1  0.3267085E-002  0.1249998E+03  0.7818608E-02  0.1235070E+00
         -4   -1    0    0    0  501 -0.00000000000E+00  0.00000000000E+00  0.25584873599E+03  0.25585188803E+03  0.12700000000E+01 0. -1.
          4   -1    0    0  501    0  0.00000000000E+00 -0.00000000000E+00 -0.15238105691E+02  0.15290937350E+02  0.12700000000E+01 0. -1.
         25    2    1    2    0    0  0.00000000000E+00  0.00000000000E+00  0.24061063030E+03  0.27114282538E+03  0.12499982537E+03 0.  0.
    9000005    1    3    3    0    0 -0.61970608562E+02 -0.41988723348E+01  0.13521607824E+03  0.14880314066E+03  0.10000000000E+01 0.  0.
    9000005    1    3    3    0    0  0.61970608562E+02  0.41988723348E+01  0.10539455206E+03  0.12233968472E+03  0.10000000000E+01 0.  0.
<mgrwt>
<rscale>  0 0.12499983E+03</rscale>
<asrwt>0</asrwt>
<pdfrwt beam="2">  1        4 0.23486305E-02 0.12499983E+03</pdfrwt>
<pdfrwt beam="1">  1       -4 0.39365648E-01 0.12499983E+03</pdfrwt>
<totfact> 0.79367624E+03</totfact>
</mgrwt>
</event>
<event>
 5    1  0.3267085E-002  0.1250024E+03  0.7818608E-02  0.1235065E+00
          4   -1    0    0  501    0  0.00000000000E+00  0.00000000000E+00  0.25955667410E+03  0.25955978111E+03  0.12700000000E+01 0.  1.
         -4   -1    0    0    0  501 -0.00000000000E+00 -0.00000000000E+00 -0.15020291785E+02  0.15073886868E+02  0.12700000000E+01 0.  1.
         25    2    1    2    0    0  0.00000000000E+00  0.00000000000E+00  0.24453638232E+03  0.27463366798E+03  0.12500243722E+03 0.  0.
    9000005    1    3    3    0    0 -0.40399222465E+02  0.42404097523E+02  0.74375146625E+02  0.94672419944E+02  0.10000000000E+01 0.  0.
    9000005    1    3    3    0    0  0.40399222465E+02 -0.42404097523E+02  0.17016123569E+03  0.17996124804E+03  0.10000000000E+01 0.  0.
<mgrwt>
<rscale>  0 0.12500244E+03</rscale>
<asrwt>0</asrwt>
<pdfrwt beam="1">  1        4 0.39936156E-01 0.12500244E+03</pdfrwt>
<pdfrwt beam="2">  1       -4 0.23151759E-02 0.12500244E+03</pdfrwt>
<totfact> 0.78890789E+03</totfact>
</mgrwt>
</event>
<event>
 5    1  0.3267085E-002  0.1250029E+03  0.7818608E-02  0.1235065E+00
          4   -1    0    0  501    0  0.00000000000E+00  0.00000000000E+00  0.21668802728E+01  0.25116269859E+01  0.12700000000E+01 0.  1.
         -4   -1    0    0    0  501 -0.00000000000E+00 -0.00000000000E+00 -0.16696014423E+04  0.16696019254E+04  0.12700000000E+01 0.  1.
         25    2    1    2    0    0  0.00000000000E+00  0.00000000000E+00 -0.16674345621E+04  0.16721135524E+04  0.12500285261E+03 0.  0.
    9000005    1    3    3    0    0  0.21294219819E+02 -0.20403844513E+02 -0.96708008011E+02  0.10110983870E+03  0.10000000000E+01 0.  0.
    9000005    1    3    3    0    0 -0.21294219819E+02  0.20403844513E+02 -0.15707265541E+04  0.15710037136E+04  0.10000000000E+01 0.  0.
<mgrwt>
<rscale>  0 0.12500285E+03</rscale>
<asrwt>0</asrwt>
<pdfrwt beam="1">  1        4 0.35992366E-03 0.12500285E+03</pdfrwt>
<pdfrwt beam="2">  1       -4 0.25688736E+00 0.12500285E+03</pdfrwt>
<totfact> 0.14777697E+03</totfact>
</mgrwt>
</event>
<event>
 5    1  0.3267085E-002  0.1249905E+03  0.7818608E-02  0.1235084E+00
         -4   -1    0    0    0  501 -0.00000000000E+00  0.00000000000E+00  0.10353697856E+02  0.10431297105E+02  0.12700000000E+01 0. -1.
          4   -1    0    0  501    0  0.00000000000E+00 -0.00000000000E+00 -0.37573602528E+03  0.37573817159E+03  0.12700000000E+01 0. -1.
         25    2    1    2    0    0  0.00000000000E+00  0.00000000000E+00 -0.36538232742E+03  0.38616946870E+03  0.12499045309E+03 0.  0.
    9000005    1    3    3    0    0 -0.20456918152E+02 -0.34118741366E+02 -0.33157228068E+03  0.33395172006E+03  0.10000000000E+01 0.  0.
    9000005    1    3    3    0    0  0.20456918152E+02  0.34118741366E+02 -0.33810046744E+02  0.52217748645E+02  0.10000000000E+01 0.  0.
<mgrwt>
<rscale>  0 0.12499045E+03</rscale>
<asrwt>0</asrwt>
<pdfrwt beam="2">  1        4 0.57811666E-01 0.12499045E+03</pdfrwt>
<pdfrwt beam="1">  1       -4 0.15990112E-02 0.12499045E+03</pdfrwt>
<totfact> 0.65934440E+03</totfact>
</mgrwt>
</event>
<event>
 5    1  0.3267085E-002  0.1250023E+03  0.7818608E-02  0.1235066E+00
          4   -1    0    0  501    0  0.00000000000E+00  0.00000000000E+00  0.19331888995E+03  0.19332306151E+03  0.12700000000E+01 0. -1.
         -4   -1    0    0    0  501 -0.00000000000E+00 -0.00000000000E+00 -0.20182638834E+02  0.20222556967E+02  0.12700000000E+01 0. -1.
         25    2    1    2    0    0  0.00000000000E+00  0.00000000000E+00  0.17313625112E+03  0.21354561848E+03  0.12500227886E+03 0.  0.
    9000005    1    3    3    0    0 -0.55293375421E+02  0.57406171332E+01  0.37795857283E+02  0.67229746975E+02  0.10000000000E+01 0.  0.
    9000005    1    3    3    0    0  0.55293375421E+02 -0.57406171332E+01  0.13534039383E+03  0.14631587150E+03  0.10000000000E+01 0.  0.
<mgrwt>
<rscale>  0 0.12500228E+03</rscale>
<asrwt>0</asrwt>
<pdfrwt beam="1">  1        4 0.29744759E-01 0.12500228E+03</pdfrwt>
<pdfrwt beam="2">  1       -4 0.31084129E-02 0.12500228E+03</pdfrwt>
<totfact> 0.87895612E+03</totfact>
</mgrwt>
</event>
<event>
 5    1  0.3267085E-002  0.1249963E+03  0.7818608E-02  0.1235075E+00
          4   -1    0    0  501    0  0.00000000000E+00  0.00000000000E+00  0.43315912824E+02  0.43334526694E+02  0.12700000000E+01 0. -1.
         -4   -1    0    0    0  501 -0.00000000000E+00 -0.00000000000E+00 -0.90132632657E+02  0.90141579583E+02  0.12700000000E+01 0. -1.
         25    2    1    2    0    0  0.00000000000E+00  0.00000000000E+00 -0.46816719833E+02  0.13347610628E+03  0.12499626271E+03 0.  0.
    9000005    1    3    3    0    0  0.29547694426E+02 -0.44369061223E+02  0.11412691364E+02  0.54524575779E+02  0.10000000000E+01 0.  0.
    9000005    1    3    3    0    0 -0.29547694426E+02  0.44369061223E+02 -0.58229411196E+02  0.78951530498E+02  0.10000000000E+01 0.  0.
<mgrwt>
<rscale>  0 0.12499626E+03</rscale>
<asrwt>0</asrwt>
<pdfrwt beam="1">  1        4 0.66661067E-02 0.12499626E+03</pdfrwt>
<pdfrwt beam="2">  1       -4 0.13868679E-01 0.12499626E+03</pdfrwt>
<totfact> 0.10271157E+04</totfact>
</mgrwt>
</event>
<event>
 5    1  0.3267085E-002  0.1249977E+03  0.7818608E-02  0.1235073E+00
         -4   -1    0    0    0  501 -0.00000000000E+00  0.00000000000E+00  0.86118544449E+03  0.86118638093E+03  0.12700000000E+01 0.  1.
          4   -1    0    0  501    0  0.00000000000E+00 -0.00000000000E+00 -0.44458748489E+01  0.46237109741E+01  0.12700000000E+01 0.  1.
         25    2    1    2    0    0  0.00000000000E+00  0.00000000000E+00  0.85673956964E+03  0.86581009191E+03  0.12499770020E+03 0.  0.
    9000005    1    3    3    0    0  0.32829436046E+02 -0.37948217076E+02  0.68635848369E+03  0.68819096709E+03  0.10000000000E+01 0.  0.
    9000005    1    3    3    0    0 -0.32829436046E+02  0.37948217076E+02  0.17038108595E+03  0.17761912481E+03  0.10000000000E+01 0.  0.
<mgrwt>
<rscale>  0 0.12499770E+03</rscale>
<asrwt>0</asrwt>
<pdfrwt beam="2">  1        4 0.69773229E-03 0.12499770E+03</pdfrwt>
<pdfrwt beam="1">  1       -4 0.13250386E+00 0.12499770E+03</pdfrwt>
<totfact> 0.35490725E+03</totfact>
</mgrwt>
</event>
<event>
 5    1  0.3267085E-002  0.1249975E+03  0.7818608E-02  0.1235073E+00
         -4   -1    0    0    0  501 -0.00000000000E+00  0.00000000000E+00  0.18341281845E+03  0.18341721531E+03  0.12700000000E+01 0.  1.
          4   -1    0    0  501    0  0.00000000000E+00 -0.00000000000E+00 -0.21273132857E+02  0.21311008459E+02  0.12700000000E+01 0.  1.
         25    2    1    2    0    0  0.00000000000E+00  0.00000000000E+00  0.16213968560E+03  0.20472822377E+03  0.12499747183E+03 0.  0.
    9000005    1    3    3    0    0 -0.14141838696E+02  0.48281537482E+02  0.14178104499E+03  0.15044588124E+03  0.10000000000E+01 0.  0.
    9000005    1    3    3    0    0  0.14141838696E+02 -0.48281537482E+02  0.20358640603E+02  0.54282342530E+02  0.10000000000E+01 0.  0.
<mgrwt>
<rscale>  0 0.12499747E+03</rscale>
<asrwt>0</asrwt>
<pdfrwt beam="2">  1        4 0.32760414E-02 0.12499747E+03</pdfrwt>
<pdfrwt beam="1">  1       -4 0.28220608E-01 0.12499747E+03</pdfrwt>
<totfact> 0.89349186E+03</totfact>
</mgrwt>
</event>
<event>
 5    1  0.3267085E-002  0.1249998E+03  0.7818608E-02  0.1235070E+00
          4   -1    0    0  501    0  0.00000000000E+00  0.00000000000E+00  0.76264480878E+02  0.76275054530E+02  0.12700000000E+01 0. -1.
         -4   -1    0    0    0  501 -0.00000000000E+00 -0.00000000000E+00 -0.51197599581E+02  0.51213348874E+02  0.12700000000E+01 0. -1.
         25    2    1    2    0    0  0.00000000000E+00  0.00000000000E+00  0.25066881297E+02  0.12748840340E+03  0.12499977786E+03 0.  0.
    9000005    1    3    3    0    0  0.43154101304E+02 -0.38272140387E+01  0.58466865769E+02  0.72775671893E+02  0.10000000000E+01 0.  0.
    9000005    1    3    3    0    0 -0.43154101304E+02  0.38272140387E+01 -0.33399984472E+02  0.54712731511E+02  0.10000000000E+01 0.  0.
<mgrwt>
<rscale>  0 0.12499978E+03</rscale>
<asrwt>0</asrwt>
<pdfrwt beam="1">  1        4 0.11735022E-01 0.12499978E+03</pdfrwt>
<pdfrwt beam="2">  1       -4 0.78785786E-02 0.12499978E+03</pdfrwt>
<totfact> 0.10398604E+04</totfact>
</mgrwt>
</event>
<event>
 5    1  0.3267085E-002  0.1249999E+03  0.7818608E-02  0.1235069E+00
          4   -1    0    0  501    0  0.00000000000E+00  0.00000000000E+00  0.42248033972E+02  0.42267118124E+02  0.12700000000E+01 0.  1.
         -4   -1    0    0    0  501 -0.00000000000E+00 -0.00000000000E+00 -0.92415403436E+02  0.92424129384E+02  0.12700000000E+01 0.  1.
         25    2    1    2    0    0  0.00000000000E+00  0.00000000000E+00 -0.50167369465E+02  0.13469124751E+03  0.12499986878E+03 0.  0.
    9000005    1    3    3    0    0 -0.11802428124E+02 -0.53481013431E+02  0.73449124293E+01  0.55267204070E+02  0.10000000000E+01 0.  0.
    9000005    1    3    3    0    0  0.11802428124E+02  0.53481013431E+02 -0.57512281894E+02  0.79424043437E+02  0.10000000000E+01 0.  0.
<mgrwt>
<rscale>  0 0.12499987E+03</rscale>
<asrwt>0</asrwt>
<pdfrwt beam="1">  1        4 0.65018368E-02 0.12499987E+03</pdfrwt>
<pdfrwt beam="2">  1       -4 0.14219894E-01 0.12499987E+03</pdfrwt>
<totfact> 0.10244613E+04</totfact>
</mgrwt>
</event>
<event>
 5    1  0.3267085E-002  0.1249995E+03  0.7818608E-02  0.1235070E+00
         -4   -1    0    0    0  501 -0.00000000000E+00  0.00000000000E+00  0.63588700094E+03  0.63588826917E+03  0.12700000000E+01 0.  1.
          4   -1    0    0  501    0  0.00000000000E+00 -0.00000000000E+00 -0.60760119992E+01  0.62073200187E+01  0.12700000000E+01 0.  1.
         25    2    1    2    0    0  0.00000000000E+00  0.00000000000E+00  0.62981098894E+03  0.64209558919E+03  0.12499945544E+03 0.  0.
    9000005    1    3    3    0    0 -0.43783442870E+02  0.12417550473E+02  0.94919593920E+02  0.10527067369E+03  0.10000000000E+01 0.  0.
    9000005    1    3    3    0    0  0.43783442870E+02 -0.12417550473E+02  0.53489139502E+03  0.53682491549E+03  0.10000000000E+01 0.  0.
<mgrwt>
<rscale>  0 0.12499946E+03</rscale>
<asrwt>0</asrwt>
<pdfrwt beam="2">  1        4 0.94496920E-03 0.12499946E+03</pdfrwt>
<pdfrwt beam="1">  1       -4 0.97838973E-01 0.12499946E+03</pdfrwt>
<totfact> 0.46314312E+03</totfact>
</mgrwt>
</event>
<event>
 4    1  0.3267085E-002  0.1249043E+03  0.7818608E-02  0.1235219E+00
         -4   -1    0    0    0  501 -0.00000000000E+00  0.00000000000E+00  0.95470770823E+01  0.96311775405E+01  0.12700000000E+01 0.  1.
          4   -1    0    0  501    0  0.00000000000E+00 -0.00000000000E+00 -0.40665349584E+03  0.40665547898E+03  0.12700000000E+01 0.  1.
    9000005    1    1    2    0    0 -0.53815090949E+02  0.28013300855E+02 -0.14929253689E+03  0.16115232114E+03  0.10000000000E+01 0.  0.
    9000005    1    1    2    0    0  0.53815090949E+02 -0.28013300855E+02 -0.24781388187E+03  0.25513433538E+03  0.10000000000E+01 0.  0.
<mgrwt>
<rscale>  0 0.12490425E+03</rscale>
<asrwt>0</asrwt>
<pdfrwt beam="2">  1        4 0.62568685E-01 0.12490425E+03</pdfrwt>
<pdfrwt beam="1">  1       -4 0.14754032E-02 0.12490425E+03</pdfrwt>
<totfact> 0.63132267E+03</totfact>
</mgrwt>
</event>
<event>
 5    1  0.3267085E-002  0.1249986E+03  0.7818608E-02  0.1235071E+00
          4   -1    0    0  501    0  0.00000000000E+00  0.00000000000E+00  0.11255578145E+03  0.11256294611E+03  0.12700000000E+01 0. -1.
         -4   -1    0    0    0  501 -0.00000000000E+00 -0.00000000000E+00 -0.34684348465E+02  0.34707591799E+02  0.12700000000E+01 0. -1.
         25    2    1    2    0    0  0.00000000000E+00  0.00000000000E+00  0.77871432983E+02  0.14727053791E+03  0.12499860504E+03 0.  0.
    9000005    1    3    3    0    0  0.21672785241E+02  0.50606966836E+02  0.73774487538E+02  0.92056774460E+02  0.10000000000E+01 0.  0.
    9000005    1    3    3    0    0 -0.21672785241E+02 -0.50606966836E+02  0.40969454452E+01  0.55213763451E+02  0.10000000000E+01 0.  0.
<mgrwt>
<rscale>  0 0.12499861E+03</rscale>
<asrwt>0</asrwt>
<pdfrwt beam="1">  1        4 0.17318613E-01 0.12499861E+03</pdfrwt>
<pdfrwt beam="2">  1       -4 0.53383927E-02 0.12499861E+03</pdfrwt>
<totfact> 0.99853720E+03</totfact>
</mgrwt>
</event>
<event>
 5    1  0.3267085E-002  0.1249974E+03  0.7818608E-02  0.1235073E+00
          4   -1    0    0  501    0  0.00000000000E+00  0.00000000000E+00  0.28193376117E+02  0.28221965857E+02  0.12700000000E+01 0.  1.
         -4   -1    0    0    0  501 -0.00000000000E+00 -0.00000000000E+00 -0.13844464489E+03  0.13845046984E+03  0.12700000000E+01 0.  1.
         25    2    1    2    0    0  0.00000000000E+00  0.00000000000E+00 -0.11025126877E+03  0.16667243570E+03  0.12499743419E+03 0.  0.
    9000005    1    3    3    0    0 -0.29297203266E+02  0.28272614046E+02  0.80871726854E+01  0.41521912122E+02  0.10000000000E+01 0.  0.
    9000005    1    3    3    0    0  0.29297203266E+02 -0.28272614046E+02 -0.11833844146E+03  0.12515052357E+03  0.10000000000E+01 0.  0.
<mgrwt>
<rscale>  0 0.12499743E+03</rscale>
<asrwt>0</asrwt>
<pdfrwt beam="1">  1        4 0.43400898E-02 0.12499743E+03</pdfrwt>
<pdfrwt beam="2">  1       -4 0.21301823E-01 0.12499743E+03</pdfrwt>
<totfact> 0.96077131E+03</totfact>
</mgrwt>
</event>
<event>
 5    1  0.3267085E-002  0.1250001E+03  0.7818608E-02  0.1235069E+00
         -4   -1    0    0    0  501 -0.00000000000E+00  0.00000000000E+00  0.22255707013E+01  0.25624334033E+01  0.12700000000E+01 0.  1.
          4   -1    0    0  501    0  0.00000000000E+00 -0.00000000000E+00 -0.16313465791E+04  0.16313470735E+04  0.12700000000E+01 0.  1.
         25    2    1    2    0    0  0.00000000000E+00  0.00000000000E+00 -0.16291210084E+04  0.16339095069E+04  0.12500006627E+03 0.  0.
    9000005    1    3    3    0    0  0.49757370889E+02 -0.37260138938E+02 -0.89840047458E+03  0.90054901401E+03  0.10000000000E+01 0.  0.
    9000005    1    3    3    0    0 -0.49757370889E+02  0.37260138938E+02 -0.73072053386E+03  0.73336049287E+03  0.10000000000E+01 0.  0.
<mgrwt>
<rscale>  0 0.12500007E+03</rscale>
<asrwt>0</asrwt>
<pdfrwt beam="2">  1        4 0.25100146E+00 0.12500007E+03</pdfrwt>
<pdfrwt beam="1">  1       -4 0.36834734E-03 0.12500007E+03</pdfrwt>
<totfact> 0.15441006E+03</totfact>
</mgrwt>
</event>
<event>
 5    1  0.3267085E-002  0.1249974E+03  0.7818608E-02  0.1235073E+00
          4   -1    0    0  501    0  0.00000000000E+00  0.00000000000E+00  0.32656287968E+01  0.35038880460E+01  0.12700000000E+01 0.  1.
         -4   -1    0    0    0  501 -0.00000000000E+00 -0.00000000000E+00 -0.11537839459E+04  0.11537846449E+04  0.12700000000E+01 0.  1.
         25    2    1    2    0    0  0.00000000000E+00  0.00000000000E+00 -0.11505183171E+04  0.11572885330E+04  0.12499740161E+03 0.  0.
    9000005    1    3    3    0    0 -0.38206960944E+02 -0.28861210154E+02 -0.94702529283E+03  0.94823554382E+03  0.10000000000E+01 0.  0.
    9000005    1    3    3    0    0  0.38206960944E+02  0.28861210154E+02 -0.20349302432E+03  0.20905298913E+03  0.10000000000E+01 0.  0.
<mgrwt>
<rscale>  0 0.12499740E+03</rscale>
<asrwt>0</asrwt>
<pdfrwt beam="1">  1        4 0.52078675E-03 0.12499740E+03</pdfrwt>
<pdfrwt beam="2">  1       -4 0.17752329E+00 0.12499740E+03</pdfrwt>
<totfact> 0.25860388E+03</totfact>
</mgrwt>
</event>
<event>
 4    1  0.3267085E-002  0.1250637E+03  0.7818608E-02  0.1234970E+00
          4   -1    0    0  501    0  0.00000000000E+00  0.00000000000E+00  0.24837942502E+02  0.24870389778E+02  0.12700000000E+01 0. -1.
         -4   -1    0    0    0  501 -0.00000000000E+00 -0.00000000000E+00 -0.15729191957E+03  0.15729704657E+03  0.12700000000E+01 0. -1.
    9000005    1    1    2    0    0  0.25855360936E+02  0.34503144344E+02 -0.27249227090E+00  0.43128191601E+02  0.10000000000E+01 0.  0.
    9000005    1    1    2    0    0 -0.25855360936E+02 -0.34503144344E+02 -0.13218148479E+03  0.13903924475E+03  0.10000000000E+01 0.  0.
<mgrwt>
<rscale>  0 0.12506366E+03</rscale>
<asrwt>0</asrwt>
<pdfrwt beam="1">  1        4 0.38241123E-02 0.12506366E+03</pdfrwt>
<pdfrwt beam="2">  1       -4 0.24201647E-01 0.12506366E+03</pdfrwt>
<totfact> 0.93095390E+03</totfact>
</mgrwt>
</event>
<event>
 5    1  0.3267085E-002  0.1249996E+03  0.7818608E-02  0.1235070E+00
         -4   -1    0    0    0  501 -0.00000000000E+00  0.00000000000E+00  0.32335563548E+03  0.32335812947E+03  0.12700000000E+01 0. -1.
          4   -1    0    0  501    0  0.00000000000E+00 -0.00000000000E+00 -0.12044351666E+02  0.12111123278E+02  0.12700000000E+01 0. -1.
         25    2    1    2    0    0  0.00000000000E+00  0.00000000000E+00  0.31131128381E+03  0.33546925275E+03  0.12499961645E+03 0.  0.
    9000005    1    3    3    0    0  0.50598379944E+02  0.17006262453E+02  0.24286003595E+03  0.24865921676E+03  0.10000000000E+01 0.  0.
    9000005    1    3    3    0    0 -0.50598379944E+02 -0.17006262453E+02  0.68451247864E+02  0.86810035996E+02  0.10000000000E+01 0.  0.
<mgrwt>
<rscale>  0 0.12499962E+03</rscale>
<asrwt>0</asrwt>
<pdfrwt beam="2">  1        4 0.18583052E-02 0.12499962E+03</pdfrwt>
<pdfrwt beam="1">  1       -4 0.49752352E-01 0.12499962E+03</pdfrwt>
<totfact> 0.71353867E+03</totfact>
</mgrwt>
</event>
<event>
 5    1  0.3267085E-002  0.1249970E+03  0.7818608E-02  0.1235074E+00
          4   -1    0    0  501    0  0.00000000000E+00  0.00000000000E+00  0.54236515603E+02  0.54251382699E+02  0.12700000000E+01 0. -1.
         -4   -1    0    0    0  501 -0.00000000000E+00 -0.00000000000E+00 -0.71988690412E+02  0.71999891994E+02  0.12700000000E+01 0. -1.
         25    2    1    2    0    0  0.00000000000E+00  0.00000000000E+00 -0.17752174809E+02  0.12625127469E+03  0.12499697857E+03 0.  0.
    9000005    1    3    3    0    0 -0.74964030825E+01 -0.37124883419E+02 -0.59080072253E+02  0.70184812926E+02  0.10000000000E+01 0.  0.
    9000005    1    3    3    0    0  0.74964030825E+01  0.37124883419E+02  0.41327897443E+02  0.56066461767E+02  0.10000000000E+01 0.  0.
<mgrwt>
<rscale>  0 0.12499698E+03</rscale>
<asrwt>0</asrwt>
<pdfrwt beam="1">  1        4 0.83460846E-02 0.12499698E+03</pdfrwt>
<pdfrwt beam="2">  1       -4 0.11077188E-01 0.12499698E+03</pdfrwt>
<totfact> 0.10426169E+04</totfact>
</mgrwt>
</event>
<event>
 5    1  0.3267085E-002  0.1250019E+03  0.7818608E-02  0.1235066E+00
         -4   -1    0    0    0  501 -0.00000000000E+00  0.00000000000E+00  0.11133305652E+03  0.11134029987E+03  0.12700000000E+01 0. -1.
          4   -1    0    0  501    0  0.00000000000E+00 -0.00000000000E+00 -0.35067349173E+02  0.35090338813E+02  0.12700000000E+01 0. -1.
         25    2    1    2    0    0  0.00000000000E+00  0.00000000000E+00  0.76265707348E+02  0.14643063868E+03  0.12500189529E+03 0.  0.
    9000005    1    3    3    0    0  0.35269703472E+02 -0.15069622856E+02  0.95929741625E+02  0.10331776635E+03  0.10000000000E+01 0.  0.
    9000005    1    3    3    0    0 -0.35269703472E+02  0.15069622856E+02 -0.19664034277E+02  0.43112872325E+02  0.10000000000E+01 0.  0.
<mgrwt>
<rscale>  0 0.12500190E+03</rscale>
<asrwt>0</asrwt>
<pdfrwt beam="2">  1        4 0.53973025E-02 0.12500190E+03</pdfrwt>
<pdfrwt beam="1">  1       -4 0.17130488E-01 0.12500190E+03</pdfrwt>
<totfact> 0.10001575E+04</totfact>
</mgrwt>
</event>
<event>
 5    1  0.3267085E-002  0.1249937E+03  0.7818608E-02  0.1235079E+00
         -4   -1    0    0    0  501 -0.00000000000E+00  0.00000000000E+00  0.22838834168E+03  0.22839187269E+03  0.12700000000E+01 0. -1.
          4   -1    0    0  501    0  0.00000000000E+00 -0.00000000000E+00 -0.17074580827E+02  0.17121746711E+02  0.12700000000E+01 0. -1.
         25    2    1    2    0    0  0.00000000000E+00  0.00000000000E+00  0.21131376085E+03  0.24551361941E+03  0.12499372700E+03 0.  0.
    9000005    1    3    3    0    0 -0.14903521158E+02 -0.59495860826E+02  0.12914419934E+03  0.14297236314E+03  0.10000000000E+01 0.  0.
    9000005    1    3    3    0    0  0.14903521158E+02  0.59495860826E+02  0.82169561508E+02  0.10254125627E+03  0.10000000000E+01 0.  0.
<mgrwt>
<rscale>  0 0.12499373E+03</rscale>
<asrwt>0</asrwt>
<pdfrwt beam="2">  1        4 0.26307585E-02 0.12499373E+03</pdfrwt>
<pdfrwt beam="1">  1       -4 0.35140566E-01 0.12499373E+03</pdfrwt>
<totfact> 0.82994605E+03</totfact>
</mgrwt>
</event>
<event>
 5    1  0.3267085E-002  0.1249976E+03  0.7818608E-02  0.1235073E+00
         -4   -1    0    0    0  501 -0.00000000000E+00  0.00000000000E+00  0.16387000654E+02  0.16436139767E+02  0.12700000000E+01 0. -1.
          4   -1    0    0  501    0  0.00000000000E+00 -0.00000000000E+00 -0.23795790259E+03  0.23796129161E+03  0.12700000000E+01 0. -1.
         25    2    1    2    0    0  0.00000000000E+00  0.00000000000E+00 -0.22157090194E+03  0.25439743138E+03  0.12499755400E+03 0.  0.
    9000005    1    3    3    0    0 -0.49741300888E+02 -0.45462893581E+01 -0.34356765112E+02  0.60632112530E+02  0.10000000000E+01 0.  0.
    9000005    1    3    3    0    0  0.49741300888E+02  0.45462893581E+01 -0.18721413683E+03  0.19376531885E+03  0.10000000000E+01 0.  0.
<mgrwt>
<rscale>  0 0.12499755E+03</rscale>
<asrwt>0</asrwt>
<pdfrwt beam="2">  1        4 0.36612946E-01 0.12499755E+03</pdfrwt>
<pdfrwt beam="1">  1       -4 0.25251178E-02 0.12499755E+03</pdfrwt>
<totfact> 0.81703239E+03</totfact>
</mgrwt>
</event>
<event>
 5    1  0.3267085E-002  0.1250015E+03  0.7818608E-02  0.1235067E+00
          4   -1    0    0  501    0  0.00000000000E+00  0.00000000000E+00  0.58762402794E+02  0.58776125103E+02  0.12700000000E+01 0. -1.
         -4   -1    0    0    0  501 -0.00000000000E+00 -0.00000000000E+00 -0.66449394251E+02  0.66461529446E+02  0.12700000000E+01 0. -1.
         25    2    1    2    0    0  0.00000000000E+00  0.00000000000E+00 -0.76869914570E+01  0.12523765455E+03  0.12500152111E+03 0.  0.
    9000005    1    3    3    0    0 -0.15647667827E+02 -0.54661846440E+01  0.56524924284E+02  0.58913459822E+02  0.10000000000E+01 0.  0.
    9000005    1    3    3    0    0  0.15647667827E+02  0.54661846440E+01 -0.64211915741E+02  0.66324194726E+02  0.10000000000E+01 0.  0.
<mgrwt>
<rscale>  0 0.12500152E+03</rscale>
<asrwt>0</asrwt>
<pdfrwt beam="1">  1        4 0.90423587E-02 0.12500152E+03</pdfrwt>
<pdfrwt beam="2">  1       -4 0.10224973E-01 0.12500152E+03</pdfrwt>
<totfact> 0.10447344E+04</totfact>
</mgrwt>
</event>
<event>
 5    1  0.3267085E-002  0.1249905E+03  0.7818608E-02  0.1235084E+00
         -4   -1    0    0    0  501 -0.00000000000E+00  0.00000000000E+00  0.87746024349E+02  0.87755214597E+02  0.12700000000E+01 0.  1.
          4   -1    0    0  501    0  0.00000000000E+00 -0.00000000000E+00 -0.44490361779E+02  0.44508484486E+02  0.12700000000E+01 0.  1.
         25    2    1    2    0    0  0.00000000000E+00  0.00000000000E+00  0.43255662569E+02  0.13226369908E+03  0.12499053465E+03 0.  0.
    9000005    1    3    3    0    0  0.15736422720E+02 -0.59254834256E+02  0.88465790395E+01  0.61951855045E+02  0.10000000000E+01 0.  0.
    9000005    1    3    3    0    0 -0.15736422720E+02  0.59254834256E+02  0.34409083530E+02  0.70311844039E+02  0.10000000000E+01 0.  0.
<mgrwt>
<rscale>  0 0.12499053E+03</rscale>
<asrwt>0</asrwt>
<pdfrwt beam="2">  1        4 0.68467722E-02 0.12499053E+03</pdfrwt>
<pdfrwt beam="1">  1       -4 0.13501489E-01 0.12499053E+03</pdfrwt>
<totfact> 0.10298272E+04</totfact>
</mgrwt>
</event>
<event>
 5    1  0.3267085E-002  0.1250065E+03  0.7818608E-02  0.1235059E+00
          4   -1    0    0  501    0  0.00000000000E+00  0.00000000000E+00  0.57919093760E+01  0.59295121401E+01  0.12700000000E+01 0.  1.
         -4   -1    0    0    0  501 -0.00000000000E+00 -0.00000000000E+00 -0.66644618889E+03  0.66644739896E+03  0.12700000000E+01 0.  1.
         25    2    1    2    0    0  0.00000000000E+00  0.00000000000E+00 -0.66065427951E+03  0.67237691110E+03  0.12500653401E+03 0.  0.
    9000005    1    3    3    0    0 -0.34762320036E+02 -0.15960111728E+02 -0.64500416702E+02  0.74996318679E+02  0.10000000000E+01 0.  0.
    9000005    1    3    3    0    0  0.34762320036E+02  0.15960111728E+02 -0.59615386281E+03  0.59738059242E+03  0.10000000000E+01 0.  0.
<mgrwt>
<rscale>  0 0.12500653E+03</rscale>
<asrwt>0</asrwt>
<pdfrwt beam="1">  1        4 0.90174142E-03 0.12500653E+03</pdfrwt>
<pdfrwt beam="2">  1       -4 0.10254080E+00 0.12500653E+03</pdfrwt>
<totfact> 0.44579180E+03</totfact>
</mgrwt>
</event>
<event>
 5    1  0.3267085E-002  0.1250022E+03  0.7818608E-02  0.1235066E+00
          4   -1    0    0  501    0  0.00000000000E+00  0.00000000000E+00  0.11373281515E+04  0.11373288605E+04  0.12700000000E+01 0. -1.
         -4   -1    0    0    0  501 -0.00000000000E+00 -0.00000000000E+00 -0.33165766074E+01  0.35514194898E+01  0.12700000000E+01 0. -1.
         25    2    1    2    0    0  0.00000000000E+00  0.00000000000E+00  0.11340115749E+04  0.11408802800E+04  0.12500224577E+03 0.  0.
    9000005    1    3    3    0    0 -0.21642280786E+02  0.64759462296E+01  0.35208336577E+02  0.41844392237E+02  0.10000000000E+01 0.  0.
    9000005    1    3    3    0    0  0.21642280786E+02 -0.64759462296E+01  0.10988032383E+04  0.10990358878E+04  0.10000000000E+01 0.  0.
<mgrwt>
<rscale>  0 0.12500225E+03</rscale>
<asrwt>0</asrwt>
<pdfrwt beam="1">  1        4 0.17499182E+00 0.12500225E+03</pdfrwt>
<pdfrwt beam="2">  1       -4 0.52836153E-03 0.12500225E+03</pdfrwt>
<totfact> 0.26313318E+03</totfact>
</mgrwt>
</event>
<event>
 5    1  0.3267085E-002  0.1249989E+03  0.7818608E-02  0.1235071E+00
          4   -1    0    0  501    0  0.00000000000E+00  0.00000000000E+00  0.15992336879E+03  0.15992841144E+03  0.12700000000E+01 0.  1.
         -4   -1    0    0    0  501 -0.00000000000E+00 -0.00000000000E+00 -0.24403399279E+02  0.24436423559E+02  0.12700000000E+01 0.  1.
         25    2    1    2    0    0  0.00000000000E+00  0.00000000000E+00  0.13551996951E+03  0.18436483500E+03  0.12499892099E+03 0.  0.
    9000005    1    3    3    0    0  0.22075768694E+02 -0.50126970887E+02  0.23386120152E+02  0.59564783131E+02  0.10000000000E+01 0.  0.
    9000005    1    3    3    0    0 -0.22075768694E+02  0.50126970887E+02  0.11213384936E+03  0.12480005187E+03  0.10000000000E+01 0.  0.
<mgrwt>
<rscale>  0 0.12499892E+03</rscale>
<asrwt>0</asrwt>
<pdfrwt beam="1">  1        4 0.24606522E-01 0.12499892E+03</pdfrwt>
<pdfrwt beam="2">  1       -4 0.37572976E-02 0.12499892E+03</pdfrwt>
<totfact> 0.92839413E+03</totfact>
</mgrwt>
</event>
<event>
 5    1  0.3267085E-002  0.1250009E+03  0.7818608E-02  0.1235068E+00
          4   -1    0    0  501    0  0.00000000000E+00  0.00000000000E+00  0.23379765148E+03  0.23380110081E+03  0.12700000000E+01 0.  1.
         -4   -1    0    0    0  501 -0.00000000000E+00 -0.00000000000E+00 -0.16680343968E+02  0.16728621428E+02  0.12700000000E+01 0.  1.
         25    2    1    2    0    0  0.00000000000E+00  0.00000000000E+00  0.21711730751E+03  0.25052972223E+03  0.12500086600E+03 0.  0.
    9000005    1    3    3    0    0  0.56968169519E+02  0.32036512998E+01  0.57473805413E+02  0.80993049261E+02  0.10000000000E+01 0.  0.
    9000005    1    3    3    0    0 -0.56968169519E+02 -0.32036512998E+01  0.15964350210E+03  0.16953667297E+03  0.10000000000E+01 0.  0.
<mgrwt>
<rscale>  0 0.12500087E+03</rscale>
<asrwt>0</asrwt>
<pdfrwt beam="1">  1        4 0.35972849E-01 0.12500087E+03</pdfrwt>
<pdfrwt beam="2">  1       -4 0.25701857E-02 0.12500087E+03</pdfrwt>
<totfact> 0.82252138E+03</totfact>
</mgrwt>
</event>
<event>
 5    1  0.3267085E-002  0.1250012E+03  0.7818608E-02  0.1235067E+00
          4   -1    0    0  501    0  0.00000000000E+00  0.00000000000E+00  0.16537592523E+04  0.16537597400E+04  0.12700000000E+01 0.  1.
         -4   -1    0    0    0  501 -0.00000000000E+00 -0.00000000000E+00 -0.21908586902E+01  0.25323431443E+01  0.12700000000E+01 0.  1.
         25    2    1    2    0    0  0.00000000000E+00  0.00000000000E+00  0.16515683936E+04  0.16562920831E+04  0.12500122295E+03 0.  0.
    9000005    1    3    3    0    0 -0.13730378176E+02  0.14661270283E+02  0.16098841944E+04  0.16100098123E+04  0.10000000000E+01 0.  0.
    9000005    1    3    3    0    0  0.13730378176E+02 -0.14661270283E+02  0.41684199196E+02  0.46282270837E+02  0.10000000000E+01 0.  0.
<mgrwt>
<rscale>  0 0.12500122E+03</rscale>
<asrwt>0</asrwt>
<pdfrwt beam="1">  1        4 0.25445164E+00 0.12500122E+03</pdfrwt>
<pdfrwt beam="2">  1       -4 0.36335954E-03 0.12500122E+03</pdfrwt>
<totfact> 0.15049830E+03</totfact>
</mgrwt>
</event>
<event>
 5    1  0.3267085E-002  0.1250010E+03  0.7818608E-02  0.1235068E+00
          4   -1    0    0  501    0  0.00000000000E+00  0.00000000000E+00  0.27069737363E+02  0.27099512559E+02  0.12700000000E+01 0. -1.
         -4   -1    0    0    0  501 -0.00000000000E+00 -0.00000000000E+00 -0.14419372902E+03  0.14419932174E+03  0.12700000000E+01 0. -1.
         25    2    1    2    0    0  0.00000000000E+00  0.00000000000E+00 -0.11712399166E+03  0.17129883430E+03  0.12500104483E+03 0.  0.
    9000005    1    3    3    0    0 -0.59385712558E+02  0.11777569772E+02 -0.37334768790E+02  0.71135497232E+02  0.10000000000E+01 0.  0.
    9000005    1    3    3    0    0  0.59385712558E+02 -0.11777569772E+02 -0.79789222869E+02  0.10016333706E+03  0.10000000000E+01 0.  0.
<mgrwt>
<rscale>  0 0.12500104E+03</rscale>
<asrwt>0</asrwt>
<pdfrwt beam="1">  1        4 0.41672957E-02 0.12500104E+03</pdfrwt>
<pdfrwt beam="2">  1       -4 0.22186371E-01 0.12500104E+03</pdfrwt>
<totfact> 0.95204872E+03</totfact>
</mgrwt>
</event>
<event>
 5    1  0.3267085E-002  0.1249871E+03  0.7818608E-02  0.1235089E+00
          4   -1    0    0  501    0  0.00000000000E+00  0.00000000000E+00  0.58363956263E+01  0.59729736234E+01  0.12700000000E+01 0. -1.
         -4   -1    0    0    0  501 -0.00000000000E+00 -0.00000000000E+00 -0.66127760434E+03  0.66127882387E+03  0.12700000000E+01 0. -1.
         25    2    1    2    0    0  0.00000000000E+00  0.00000000000E+00 -0.65544120871E+03  0.66725179749E+03  0.12498713206E+03 0.  0.
    9000005    1    3    3    0    0  0.56397607775E+01 -0.39698057340E+02 -0.58356557334E+03  0.58494232284E+03  0.10000000000E+01 0.  0.
    9000005    1    3    3    0    0 -0.56397607775E+01  0.39698057340E+02 -0.71875635372E+02  0.82309474657E+02  0.10000000000E+01 0.  0.
<mgrwt>
<rscale>  0 0.12498713E+03</rscale>
<asrwt>0</asrwt>
<pdfrwt beam="1">  1        4 0.90850735E-03 0.12498713E+03</pdfrwt>
<pdfrwt beam="2">  1       -4 0.10174556E+00 0.12498713E+03</pdfrwt>
<totfact> 0.44885342E+03</totfact>
</mgrwt>
</event>
<event>
 5    1  0.3267085E-002  0.1250055E+03  0.7818608E-02  0.1235061E+00
          4   -1    0    0  501    0  0.00000000000E+00  0.00000000000E+00  0.57803342846E+03  0.57803482362E+03  0.12700000000E+01 0. -1.
         -4   -1    0    0    0  501 -0.00000000000E+00 -0.00000000000E+00 -0.66973383595E+01  0.68166884263E+01  0.12700000000E+01 0. -1.
         25    2    1    2    0    0  0.00000000000E+00  0.00000000000E+00  0.57133609010E+03  0.58485151205E+03  0.12500545305E+03 0.  0.
    9000005    1    3    3    0    0  0.55715807370E+02 -0.26002351532E+02  0.33802192917E+03  0.34356978633E+03  0.10000000000E+01 0.  0.
    9000005    1    3    3    0    0 -0.55715807370E+02  0.26002351532E+02  0.23331416093E+03  0.24128172572E+03  0.10000000000E+01 0.  0.
<mgrwt>
<rscale>  0 0.12500545E+03</rscale>
<asrwt>0</asrwt>
<pdfrwt beam="1">  1        4 0.88937534E-01 0.12500545E+03</pdfrwt>
<pdfrwt beam="2">  1       -4 0.10396475E-02 0.12500545E+03</pdfrwt>
<totfact> 0.49832032E+03</totfact>
</mgrwt>
</event>
<event>
 5    1  0.3267085E-002  0.1249970E+03  0.7818608E-02  0.1235074E+00
          4   -1    0    0  501    0  0.00000000000E+00  0.00000000000E+00  0.29985370058E+02  0.30012252790E+02  0.12700000000E+01 0.  1.
         -4   -1    0    0    0  501 -0.00000000000E+00 -0.00000000000E+00 -0.13017720104E+03  0.13018339590E+03  0.12700000000E+01 0.  1.
         25    2    1    2    0    0  0.00000000000E+00  0.00000000000E+00 -0.10019183098E+03  0.16019564869E+03  0.12499697143E+03 0.  0.
    9000005    1    3    3    0    0 -0.42438209636E+02 -0.43395738854E+02 -0.69142562679E+02  0.92010248134E+02  0.10000000000E+01 0.  0.
    9000005    1    3    3    0    0  0.42438209636E+02  0.43395738854E+02 -0.31049268298E+02  0.68185400561E+02  0.10000000000E+01 0.  0.
<mgrwt>
<rscale>  0 0.12499697E+03</rscale>
<asrwt>0</asrwt>
<pdfrwt beam="1">  1        4 0.46156783E-02 0.12499697E+03</pdfrwt>
<pdfrwt beam="2">  1       -4 0.20029806E-01 0.12499697E+03</pdfrwt>
<totfact> 0.97311703E+03</totfact>
</mgrwt>
</event>
<event>
 5    1  0.3267085E-002  0.1250029E+03  0.7818608E-02  0.1235065E+00
          4   -1    0    0  501    0  0.00000000000E+00  0.00000000000E+00  0.38620235147E+02  0.38641111045E+02  0.12700000000E+01 0. -1.
         -4   -1    0    0    0  501 -0.00000000000E+00 -0.00000000000E+00 -0.10109769569E+03  0.10110567231E+03  0.12700000000E+01 0. -1.
         25    2    1    2    0    0  0.00000000000E+00  0.00000000000E+00 -0.62477460543E+02  0.13974678336E+03  0.12500292150E+03 0.  0.
    9000005    1    3    3    0    0  0.21437164238E+02 -0.18734778547E+02  0.30954651424E+02  0.42068211069E+02  0.10000000000E+01 0.  0.
    9000005    1    3    3    0    0 -0.21437164238E+02  0.18734778547E+02 -0.93432111967E+02  0.97678572289E+02  0.10000000000E+01 0.  0.
<mgrwt>
<rscale>  0 0.12500292E+03</rscale>
<asrwt>0</asrwt>
<pdfrwt beam="1">  1        4 0.59437941E-02 0.12500292E+03</pdfrwt>
<pdfrwt beam="2">  1       -4 0.15555711E-01 0.12500292E+03</pdfrwt>
<totfact> 0.10138169E+04</totfact>
</mgrwt>
</event>
<event>
 5    1  0.3267085E-002  0.1249981E+03  0.7818608E-02  0.1235072E+00
         -4   -1    0    0    0  501 -0.00000000000E+00  0.00000000000E+00  0.10001806926E+04  0.10001814989E+04  0.12700000000E+01 0.  1.
          4   -1    0    0  501    0  0.00000000000E+00 -0.00000000000E+00 -0.38013488308E+01  0.40078863424E+01  0.12700000000E+01 0.  1.
         25    2    1    2    0    0  0.00000000000E+00  0.00000000000E+00  0.99637934373E+03  0.10041893852E+04  0.12499809899E+03 0.  0.
    9000005    1    3    3    0    0  0.49043927261E+02  0.34129419168E+02  0.35114840163E+03  0.35619702978E+03  0.10000000000E+01 0.  0.
    9000005    1    3    3    0    0 -0.49043927261E+02 -0.34129419168E+02  0.64523094210E+03  0.64799235543E+03  0.10000000000E+01 0.  0.
<mgrwt>
<rscale>  0 0.12499810E+03</rscale>
<asrwt>0</asrwt>
<pdfrwt beam="2">  1        4 0.60077178E-03 0.12499810E+03</pdfrwt>
<pdfrwt beam="1">  1       -4 0.15389007E+00 0.12499810E+03</pdfrwt>
<totfact> 0.30467784E+03</totfact>
</mgrwt>
</event>
<event>
 5    1  0.3267085E-002  0.1249980E+03  0.7818608E-02  0.1235072E+00
          4   -1    0    0  501    0  0.00000000000E+00  0.00000000000E+00  0.13277860810E+04  0.13277866884E+04  0.12700000000E+01 0.  1.
         -4   -1    0    0    0  501 -0.00000000000E+00 -0.00000000000E+00 -0.28041315982E+01  0.30783199997E+01  0.12700000000E+01 0.  1.
         25    2    1    2    0    0  0.00000000000E+00  0.00000000000E+00  0.13249819494E+04  0.13308650084E+04  0.12499801697E+03 0.  0.
    9000005    1    3    3    0    0  0.23695428791E+02 -0.50134616827E+02  0.96926258256E+03  0.97084803502E+03  0.10000000000E+01 0.  0.
    9000005    1    3    3    0    0 -0.23695428791E+02  0.50134616827E+02  0.35571936685E+03  0.36001697335E+03  0.10000000000E+01 0.  0.
<mgrwt>
<rscale>  0 0.12499802E+03</rscale>
<asrwt>0</asrwt>
<pdfrwt beam="1">  1        4 0.20429552E+00 0.12499802E+03</pdfrwt>
<pdfrwt beam="2">  1       -4 0.45254388E-03 0.12499802E+03</pdfrwt>
<totfact> 0.21512555E+03</totfact>
</mgrwt>
</event>
<event>
 5    1  0.3267085E-002  0.1249990E+03  0.7818608E-02  0.1235071E+00
         -4   -1    0    0    0  501 -0.00000000000E+00  0.00000000000E+00  0.25077991629E+02  0.25110128717E+02  0.12700000000E+01 0.  1.
          4   -1    0    0  501    0  0.00000000000E+00 -0.00000000000E+00 -0.15562711261E+03  0.15563229447E+03  0.12700000000E+01 0.  1.
         25    2    1    2    0    0  0.00000000000E+00  0.00000000000E+00 -0.13054912099E+03  0.18074242318E+03  0.12499900219E+03 0.  0.
    9000005    1    3    3    0    0 -0.23070811047E+02  0.54155975318E+02 -0.95607001099E+02  0.11228014359E+03  0.10000000000E+01 0.  0.
    9000005    1    3    3    0    0  0.23070811047E+02 -0.54155975318E+02 -0.34942119886E+02  0.68462279594E+02  0.10000000000E+01 0.  0.
<mgrwt>
<rscale>  0 0.12499900E+03</rscale>
<asrwt>0</asrwt>
<pdfrwt beam="2">  1        4 0.23945503E-01 0.12499900E+03</pdfrwt>
<pdfrwt beam="1">  1       -4 0.38610234E-02 0.12499900E+03</pdfrwt>
<totfact> 0.93485627E+03</totfact>
</mgrwt>
</event>
<event>
 5    1  0.3267085E-002  0.1249957E+03  0.7818608E-02  0.1235076E+00
          4   -1    0    0  501    0  0.00000000000E+00  0.00000000000E+00  0.11807514593E+02  0.11875617915E+02  0.12700000000E+01 0. -1.
         -4   -1    0    0    0  501 -0.00000000000E+00 -0.00000000000E+00 -0.32978422033E+03  0.32978666571E+03  0.12700000000E+01 0. -1.
         25    2    1    2    0    0  0.00000000000E+00  0.00000000000E+00 -0.31797670574E+03  0.34166228363E+03  0.12499572256E+03 0.  0.
    9000005    1    3    3    0    0  0.58019424455E+02 -0.52376920988E+01 -0.22079539059E+03  0.22835343557E+03  0.10000000000E+01 0.  0.
    9000005    1    3    3    0    0 -0.58019424455E+02  0.52376920988E+01 -0.97181315153E+02  0.11330884805E+03  0.10000000000E+01 0.  0.
<mgrwt>
<rscale>  0 0.12499572E+03</rscale>
<asrwt>0</asrwt>
<pdfrwt beam="1">  1        4 0.18219678E-02 0.12499572E+03</pdfrwt>
<pdfrwt beam="2">  1       -4 0.50741454E-01 0.12499572E+03</pdfrwt>
<totfact> 0.70658346E+03</totfact>
</mgrwt>
</event>
<event>
 5    1  0.3267085E-002  0.1249756E+03  0.7818608E-02  0.1235107E+00
          4   -1    0    0  501    0  0.00000000000E+00  0.00000000000E+00  0.37072908895E+02  0.37094655598E+02  0.12700000000E+01 0. -1.
         -4   -1    0    0    0  501 -0.00000000000E+00 -0.00000000000E+00 -0.10526914081E+03  0.10527680137E+03  0.12700000000E+01 0. -1.
         25    2    1    2    0    0  0.00000000000E+00  0.00000000000E+00 -0.68196231911E+02  0.14237145696E+03  0.12497562047E+03 0.  0.
    9000005    1    3    3    0    0 -0.55510914251E+02 -0.27822724098E+02 -0.26192336364E+02  0.67398843176E+02  0.10000000000E+01 0.  0.
    9000005    1    3    3    0    0  0.55510914251E+02  0.27822724098E+02 -0.42003895547E+02  0.74972613789E+02  0.10000000000E+01 0.  0.
<mgrwt>
<rscale>  0 0.12497562E+03</rscale>
<asrwt>0</asrwt>
<pdfrwt beam="1">  1        4 0.57057866E-02 0.12497562E+03</pdfrwt>
<pdfrwt beam="2">  1       -4 0.16197514E-01 0.12497562E+03</pdfrwt>
<totfact> 0.10090210E+04</totfact>
</mgrwt>
</event>
<event>
 5    1  0.3267085E-002  0.1250021E+03  0.7818608E-02  0.1235066E+00
          4   -1    0    0  501    0  0.00000000000E+00  0.00000000000E+00  0.81220100500E+02  0.81230029086E+02  0.12700000000E+01 0. -1.
         -4   -1    0    0    0  501 -0.00000000000E+00 -0.00000000000E+00 -0.48075015473E+02  0.48091787373E+02  0.12700000000E+01 0. -1.
         25    2    1    2    0    0  0.00000000000E+00  0.00000000000E+00  0.33145085027E+02  0.12932181646E+03  0.12500214218E+03 0.  0.
    9000005    1    3    3    0    0  0.30204041649E+02  0.39861688814E+02  0.55339382340E+02  0.74596820339E+02  0.10000000000E+01 0.  0.
    9000005    1    3    3    0    0 -0.30204041649E+02 -0.39861688814E+02 -0.22194297312E+02  0.54724996119E+02  0.10000000000E+01 0.  0.
<mgrwt>
<rscale>  0 0.12500214E+03</rscale>
<asrwt>0</asrwt>
<pdfrwt beam="1">  1        4 0.12497454E-01 0.12500214E+03</pdfrwt>
<pdfrwt beam="2">  1       -4 0.73982101E-02 0.12500214E+03</pdfrwt>
<totfact> 0.10358536E+04</totfact>
</mgrwt>
</event>
<event>
 5    1  0.3267085E-002  0.1250003E+03  0.7818608E-02  0.1235069E+00
         -4   -1    0    0    0  501 -0.00000000000E+00  0.00000000000E+00  0.86282575391E+02  0.86291921500E+02  0.12700000000E+01 0. -1.
          4   -1    0    0  501    0  0.00000000000E+00 -0.00000000000E+00 -0.45252250383E+02  0.45270068089E+02  0.12700000000E+01 0. -1.
         25    2    1    2    0    0  0.00000000000E+00  0.00000000000E+00  0.41030325008E+02  0.13156198959E+03  0.12500027814E+03 0.  0.
    9000005    1    3    3    0    0 -0.45466633086E+02 -0.27582789470E+02  0.55059444439E+02  0.76554342928E+02  0.10000000000E+01 0.  0.
    9000005    1    3    3    0    0  0.45466633086E+02  0.27582789470E+02 -0.14029119431E+02  0.55007646661E+02  0.10000000000E+01 0.  0.
<mgrwt>
<rscale>  0 0.12500028E+03</rscale>
<asrwt>0</asrwt>
<pdfrwt beam="2">  1        4 0.69639742E-02 0.12500028E+03</pdfrwt>
<pdfrwt beam="1">  1       -4 0.13276332E-01 0.12500028E+03</pdfrwt>
<totfact> 0.10310992E+04</totfact>
</mgrwt>
</event>
<event>
 5    1  0.3267085E-002  0.1250000E+03  0.7818608E-02  0.1235069E+00
         -4   -1    0    0    0  501 -0.00000000000E+00  0.00000000000E+00  0.59885281967E+02  0.59898747034E+02  0.12700000000E+01 0. -1.
          4   -1    0    0  501    0  0.00000000000E+00 -0.00000000000E+00 -0.65201875055E+02  0.65214242391E+02  0.12700000000E+01 0. -1.
         25    2    1    2    0    0  0.00000000000E+00  0.00000000000E+00 -0.53165930880E+01  0.12511298943E+03  0.12499997584E+03 0.  0.
    9000005    1    3    3    0    0 -0.22590580920E+02  0.57301344415E+02  0.79091878064E+01  0.62107436509E+02  0.10000000000E+01 0.  0.
    9000005    1    3    3    0    0  0.22590580920E+02 -0.57301344415E+02 -0.13225780894E+02  0.63005552916E+02  0.10000000000E+01 0.  0.
<mgrwt>
<rscale>  0 0.12499998E+03</rscale>
<asrwt>0</asrwt>
<pdfrwt beam="2">  1        4 0.10033045E-01 0.12499998E+03</pdfrwt>
<pdfrwt beam="1">  1       -4 0.92151074E-02 0.12499998E+03</pdfrwt>
<totfact> 0.10450415E+04</totfact>
</mgrwt>
</event>
<event>
 5    1  0.3267085E-002  0.1250009E+03  0.7818608E-02  0.1235068E+00
          4   -1    0    0  501    0  0.00000000000E+00  0.00000000000E+00  0.17364918116E+02  0.17411297516E+02  0.12700000000E+01 0. -1.
         -4   -1    0    0    0  501 -0.00000000000E+00 -0.00000000000E+00 -0.22460581771E+03  0.22460940820E+03  0.12700000000E+01 0. -1.
         25    2    1    2    0    0  0.00000000000E+00  0.00000000000E+00 -0.20724089960E+03  0.24202070571E+03  0.12500092611E+03 0.  0.
    9000005    1    3    3    0    0  0.62813044536E+01  0.30832679695E+01 -0.22385445654E+03  0.22396602207E+03  0.10000000000E+01 0.  0.
    9000005    1    3    3    0    0 -0.62813044536E+01 -0.30832679695E+01  0.16613556947E+02  0.18054683643E+02  0.10000000000E+01 0.  0.
<mgrwt>
<rscale>  0 0.12500093E+03</rscale>
<asrwt>0</asrwt>
<pdfrwt beam="1">  1        4 0.26753699E-02 0.12500093E+03</pdfrwt>
<pdfrwt beam="2">  1       -4 0.34558583E-01 0.12500093E+03</pdfrwt>
<totfact> 0.83495614E+03</totfact>
</mgrwt>
</event>
<event>
 5    1  0.3267085E-002  0.1249994E+03  0.7818608E-02  0.1235070E+00
         -4   -1    0    0    0  501 -0.00000000000E+00  0.00000000000E+00  0.12595448620E+02  0.12659313802E+02  0.12700000000E+01 0.  1.
          4   -1    0    0  501    0  0.00000000000E+00 -0.00000000000E+00 -0.30927920946E+03  0.30928181696E+03  0.12700000000E+01 0.  1.
         25    2    1    2    0    0  0.00000000000E+00  0.00000000000E+00 -0.29668376084E+03  0.32194113076E+03  0.12499935093E+03 0.  0.
    9000005    1    3    3    0    0  0.40648257224E+02  0.47015858969E+02 -0.16512003658E+03  0.17643241848E+03  0.10000000000E+01 0.  0.
    9000005    1    3    3    0    0 -0.40648257224E+02 -0.47015858969E+02 -0.13156372426E+03  0.14550871228E+03  0.10000000000E+01 0.  0.
<mgrwt>
<rscale>  0 0.12499935E+03</rscale>
<asrwt>0</asrwt>
<pdfrwt beam="2">  1        4 0.47586524E-01 0.12499935E+03</pdfrwt>
<pdfrwt beam="1">  1       -4 0.19428749E-02 0.12499935E+03</pdfrwt>
<totfact> 0.72926898E+03</totfact>
</mgrwt>
</event>
<event>
 5    1  0.3267085E-002  0.1249966E+03  0.7818608E-02  0.1235075E+00
         -4   -1    0    0    0  501 -0.00000000000E+00  0.00000000000E+00  0.13597938821E+03  0.13598531876E+03  0.12700000000E+01 0. -1.
          4   -1    0    0  501    0  0.00000000000E+00 -0.00000000000E+00 -0.28704635616E+02  0.28732716646E+02  0.12700000000E+01 0. -1.
         25    2    1    2    0    0  0.00000000000E+00  0.00000000000E+00  0.10727475259E+03  0.16471803540E+03  0.12499663453E+03 0.  0.
    9000005    1    3    3    0    0  0.34230196698E+02 -0.50292452050E+02  0.72459154190E+02  0.94616944176E+02  0.10000000000E+01 0.  0.
    9000005    1    3    3    0    0 -0.34230196698E+02  0.50292452050E+02  0.34815598402E+02  0.70101091227E+02  0.10000000000E+01 0.  0.
<mgrwt>
<rscale>  0 0.12499663E+03</rscale>
<asrwt>0</asrwt>
<pdfrwt beam="2">  1        4 0.44187141E-02 0.12499663E+03</pdfrwt>
<pdfrwt beam="1">  1       -4 0.20922522E-01 0.12499663E+03</pdfrwt>
<totfact> 0.96448110E+03</totfact>
</mgrwt>
</event>
<event>
 5    1  0.3267085E-002  0.1249940E+03  0.7818608E-02  0.1235079E+00
         -4   -1    0    0    0  501 -0.00000000000E+00  0.00000000000E+00  0.14196685345E+02  0.14253377662E+02  0.12700000000E+01 0. -1.
          4   -1    0    0  501    0  0.00000000000E+00 -0.00000000000E+00 -0.27451935930E+03  0.27452229696E+03  0.12700000000E+01 0. -1.
         25    2    1    2    0    0  0.00000000000E+00  0.00000000000E+00 -0.26032267395E+03  0.28877567463E+03  0.12499398258E+03 0.  0.
    9000005    1    3    3    0    0 -0.42594122513E+02  0.39649016302E+02 -0.18277217989E+03  0.19181494600E+03  0.10000000000E+01 0.  0.
    9000005    1    3    3    0    0  0.42594122513E+02 -0.39649016302E+02 -0.77550494061E+02  0.96960728625E+02  0.10000000000E+01 0.  0.
<mgrwt>
<rscale>  0 0.12499398E+03</rscale>
<asrwt>0</asrwt>
<pdfrwt beam="2">  1        4 0.42238331E-01 0.12499398E+03</pdfrwt>
<pdfrwt beam="1">  1       -4 0.21886926E-02 0.12499398E+03</pdfrwt>
<totfact> 0.77039019E+03</totfact>
</mgrwt>
</event>
<event>
 5    1  0.3267085E-002  0.1249992E+03  0.7818608E-02  0.1235070E+00
          4   -1    0    0  501    0  0.00000000000E+00  0.00000000000E+00  0.20828391666E+02  0.20867074528E+02  0.12700000000E+01 0.  1.
         -4   -1    0    0    0  501 -0.00000000000E+00 -0.00000000000E+00 -0.18732736741E+03  0.18733167239E+03  0.12700000000E+01 0.  1.
         25    2    1    2    0    0  0.00000000000E+00  0.00000000000E+00 -0.16649897575E+03  0.20819874692E+03  0.12499923718E+03 0.  0.
    9000005    1    3    3    0    0  0.98241596920E+01 -0.61335368642E+02 -0.94626983303E+02  0.11319808978E+03  0.10000000000E+01 0.  0.
    9000005    1    3    3    0    0 -0.98241596920E+01  0.61335368642E+02 -0.71871992444E+02  0.95000657145E+02  0.10000000000E+01 0.  0.
<mgrwt>
<rscale>  0 0.12499924E+03</rscale>
<asrwt>0</asrwt>
<pdfrwt beam="1">  1        4 0.32076748E-02 0.12499924E+03</pdfrwt>
<pdfrwt beam="2">  1       -4 0.28822900E-01 0.12499924E+03</pdfrwt>
<totfact> 0.88772411E+03</totfact>
</mgrwt>
</event>
<event>
 5    1  0.3267085E-002  0.1250016E+03  0.7818608E-02  0.1235067E+00
         -4   -1    0    0    0  501 -0.00000000000E+00  0.00000000000E+00  0.96281473959E+02  0.96289849557E+02  0.12700000000E+01 0.  1.
          4   -1    0    0  501    0  0.00000000000E+00 -0.00000000000E+00 -0.40552118123E+02  0.40572000004E+02  0.12700000000E+01 0.  1.
         25    2    1    2    0    0  0.00000000000E+00  0.00000000000E+00  0.55729355835E+02  0.13686184956E+03  0.12500161904E+03 0.  0.
    9000005    1    3    3    0    0  0.50665768900E+02  0.35695825752E+02  0.36633234684E+02  0.72001430526E+02  0.10000000000E+01 0.  0.
    9000005    1    3    3    0    0 -0.50665768900E+02 -0.35695825752E+02  0.19096121151E+02  0.64860419035E+02  0.10000000000E+01 0.  0.
<mgrwt>
<rscale>  0 0.12500162E+03</rscale>
<asrwt>0</asrwt>
<pdfrwt beam="2">  1        4 0.62409612E-02 0.12500162E+03</pdfrwt>
<pdfrwt beam="1">  1       -4 0.14814708E-01 0.12500162E+03</pdfrwt>
<totfact> 0.10198603E+04</totfact>
</mgrwt>
</event>
<event>
 5    1  0.3267085E-002  0.1250007E+03  0.7818608E-02  0.1235068E+00
         -4   -1    0    0    0  501 -0.00000000000E+00  0.00000000000E+00  0.95874738814E+01  0.96712230574E+01  0.12700000000E+01 0.  1.
          4   -1    0    0  501    0  0.00000000000E+00 -0.00000000000E+00 -0.40558070587E+03  0.40558269425E+03  0.12700000000E+01 0.  1.
         25    2    1    2    0    0  0.00000000000E+00  0.00000000000E+00 -0.39599323199E+03  0.41525391731E+03  0.12500070423E+03 0.  0.
    9000005    1    3    3    0    0  0.38772537119E+02 -0.47193730853E+02 -0.24190957041E+03  0.24950310243E+03  0.10000000000E+01 0.  0.
    9000005    1    3    3    0    0 -0.38772537119E+02  0.47193730853E+02 -0.15408366158E+03  0.16575081488E+03  0.10000000000E+01 0.  0.
<mgrwt>
<rscale>  0 0.12500070E+03</rscale>
<asrwt>0</asrwt>
<pdfrwt beam="2">  1        4 0.62403614E-01 0.12500070E+03</pdfrwt>
<pdfrwt beam="1">  1       -4 0.14815915E-02 0.12500070E+03</pdfrwt>
<totfact> 0.63094791E+03</totfact>
</mgrwt>
</event>
<event>
 5    1  0.3267085E-002  0.1249944E+03  0.7818608E-02  0.1235078E+00
         -4   -1    0    0    0  501 -0.00000000000E+00  0.00000000000E+00  0.10627217871E+04  0.10627225460E+04  0.12700000000E+01 0.  1.
          4   -1    0    0  501    0  0.00000000000E+00 -0.00000000000E+00 -0.35648803339E+01  0.37843456231E+01  0.12700000000E+01 0.  1.
         25    2    1    2    0    0  0.00000000000E+00  0.00000000000E+00  0.10591569068E+04  0.10665068916E+04  0.12499438639E+03 0.  0.
    9000005    1    3    3    0    0  0.39673040460E+02 -0.43282836736E+02  0.71208989417E+03  0.71450708287E+03  0.10000000000E+01 0.  0.
    9000005    1    3    3    0    0 -0.39673040460E+02  0.43282836736E+02  0.34706701260E+03  0.35199980870E+03  0.10000000000E+01 0.  0.
<mgrwt>
<rscale>  0 0.12499439E+03</rscale>
<asrwt>0</asrwt>
<pdfrwt beam="2">  1        4 0.56538316E-03 0.12499439E+03</pdfrwt>
<pdfrwt beam="1">  1       -4 0.16351268E+00 0.12499439E+03</pdfrwt>
<totfact> 0.28488379E+03</totfact>
</mgrwt>
</event>
<event>
 5    1  0.3267085E-002  0.1249992E+03  0.7818608E-02  0.1235071E+00
          4   -1    0    0  501    0  0.00000000000E+00  0.00000000000E+00  0.36985381719E+02  0.37007179856E+02  0.12700000000E+01 0.  1.
         -4   -1    0    0    0  501 -0.00000000000E+00 -0.00000000000E+00 -0.10555790652E+03  0.10556554613E+03  0.12700000000E+01 0.  1.
         25    2    1    2    0    0  0.00000000000E+00  0.00000000000E+00 -0.68572524804E+02  0.14257272598E+03  0.12499916414E+03 0.  0.
    9000005    1    3    3    0    0 -0.12977546253E+02  0.59092048771E+02 -0.16436463216E+02  0.62701230114E+02  0.10000000000E+01 0.  0.
    9000005    1    3    3    0    0  0.12977546253E+02 -0.59092048771E+02 -0.52136061588E+02  0.79871495871E+02  0.10000000000E+01 0.  0.
<mgrwt>
<rscale>  0 0.12499916E+03</rscale>
<asrwt>0</asrwt>
<pdfrwt beam="1">  1        4 0.56923232E-02 0.12499916E+03</pdfrwt>
<pdfrwt beam="2">  1       -4 0.16241942E-01 0.12499916E+03</pdfrwt>
<totfact> 0.10080730E+04</totfact>
</mgrwt>
</event>
<event>
 5    1  0.3267085E-002  0.1249994E+03  0.7818608E-02  0.1235070E+00
          4   -1    0    0  501    0  0.00000000000E+00  0.00000000000E+00  0.35191306340E+02  0.35214215055E+02  0.12700000000E+01 0.  1.
         -4   -1    0    0    0  501 -0.00000000000E+00 -0.00000000000E+00 -0.11093672528E+03  0.11094399450E+03  0.12700000000E+01 0.  1.
         25    2    1    2    0    0  0.00000000000E+00  0.00000000000E+00 -0.75745418936E+02  0.14615820955E+03  0.12499941492E+03 0.  0.
    9000005    1    3    3    0    0 -0.57488482400E+02 -0.11028523902E+02 -0.63454360382E+02  0.86336607529E+02  0.10000000000E+01 0.  0.
    9000005    1    3    3    0    0  0.57488482400E+02  0.11028523902E+02 -0.12291058554E+02  0.59821602022E+02  0.10000000000E+01 0.  0.
<mgrwt>
<rscale>  0 0.12499941E+03</rscale>
<asrwt>0</asrwt>
<pdfrwt beam="1">  1        4 0.54163686E-02 0.12499941E+03</pdfrwt>
<pdfrwt beam="2">  1       -4 0.17069510E-01 0.12499941E+03</pdfrwt>
<totfact> 0.10007641E+04</totfact>
</mgrwt>
</event>
<event>
 5    1  0.3267085E-002  0.1249796E+03  0.7818608E-02  0.1235101E+00
         -4   -1    0    0    0  501 -0.00000000000E+00  0.00000000000E+00  0.70066820881E+03  0.70066935978E+03  0.12700000000E+01 0. -1.
          4   -1    0    0  501    0  0.00000000000E+00 -0.00000000000E+00 -0.54996961248E+01  0.56444271157E+01  0.12700000000E+01 0. -1.
         25    2    1    2    0    0  0.00000000000E+00  0.00000000000E+00  0.69516851269E+03  0.70631378690E+03  0.12497961647E+03 0.  0.
    9000005    1    3    3    0    0  0.54397473605E+00  0.61805728033E+02  0.29587065716E+03  0.30225930870E+03  0.10000000000E+01 0.  0.
    9000005    1    3    3    0    0 -0.54397473605E+00 -0.61805728033E+02  0.39929785553E+03  0.40405447820E+03  0.10000000000E+01 0.  0.
<mgrwt>
<rscale>  0 0.12497962E+03</rscale>
<asrwt>0</asrwt>
<pdfrwt beam="2">  1        4 0.85732845E-03 0.12497962E+03</pdfrwt>
<pdfrwt beam="1">  1       -4 0.10780637E+00 0.12497962E+03</pdfrwt>
<totfact> 0.42774545E+03</totfact>
</mgrwt>
</event>
<event>
 5    1  0.3267085E-002  0.1250035E+03  0.7818608E-02  0.1235064E+00
         -4   -1    0    0    0  501 -0.00000000000E+00  0.00000000000E+00  0.42398448679E+03  0.42398638886E+03  0.12700000000E+01 0.  1.
          4   -1    0    0  501    0  0.00000000000E+00 -0.00000000000E+00 -0.91680059623E+01  0.92555514868E+01  0.12700000000E+01 0.  1.
         25    2    1    2    0    0  0.00000000000E+00  0.00000000000E+00  0.41481648082E+03  0.43324194034E+03  0.12500346439E+03 0.  0.
    9000005    1    3    3    0    0  0.31472228241E+00  0.89632415160E+01  0.42175935179E+03  0.42185588721E+03  0.10000000000E+01 0.  0.
    9000005    1    3    3    0    0 -0.31472228241E+00 -0.89632415160E+01 -0.69428709711E+01  0.11386053131E+02  0.10000000000E+01 0.  0.
<mgrwt>
<rscale>  0 0.12500346E+03</rscale>
<asrwt>0</asrwt>
<pdfrwt beam="2">  1        4 0.14173433E-02 0.12500346E+03</pdfrwt>
<pdfrwt beam="1">  1       -4 0.65235250E-01 0.12500346E+03</pdfrwt>
<totfact> 0.61438538E+03</totfact>
</mgrwt>
</event>
<event>
 5    1  0.3267085E-002  0.1250018E+03  0.7818608E-02  0.1235066E+00
          4   -1    0    0  501    0  0.00000000000E+00  0.00000000000E+00  0.77294879092E+02  0.77305311809E+02  0.12700000000E+01 0. -1.
         -4   -1    0    0    0  501 -0.00000000000E+00 -0.00000000000E+00 -0.50516651871E+02  0.50532613393E+02  0.12700000000E+01 0. -1.
         25    2    1    2    0    0  0.00000000000E+00  0.00000000000E+00  0.26778227221E+02  0.12783792520E+03  0.12500184665E+03 0.  0.
    9000005    1    3    3    0    0  0.59028796674E+02 -0.19844478685E+02  0.18719198366E+02  0.65035456164E+02  0.10000000000E+01 0.  0.
    9000005    1    3    3    0    0 -0.59028796674E+02  0.19844478685E+02  0.80590288548E+01  0.62802469037E+02  0.10000000000E+01 0.  0.
<mgrwt>
<rscale>  0 0.12500185E+03</rscale>
<asrwt>0</asrwt>
<pdfrwt beam="1">  1        4 0.11893550E-01 0.12500185E+03</pdfrwt>
<pdfrwt beam="2">  1       -4 0.77738230E-02 0.12500185E+03</pdfrwt>
<totfact> 0.10390556E+04</totfact>
</mgrwt>
</event>
<event>
 5    1  0.3267085E-002  0.1250005E+03  0.7818608E-02  0.1235069E+00
          4   -1    0    0  501    0  0.00000000000E+00  0.00000000000E+00  0.84312621137E+02  0.84322185592E+02  0.12700000000E+01 0.  1.
         -4   -1    0    0    0  501 -0.00000000000E+00 -0.00000000000E+00 -0.46310014659E+02  0.46327425546E+02  0.12700000000E+01 0.  1.
         25    2    1    2    0    0  0.00000000000E+00  0.00000000000E+00  0.38002606478E+02  0.13064961114E+03  0.12500049116E+03 0.  0.
    9000005    1    3    3    0    0  0.28111580763E+01  0.27048212320E+02 -0.39806673672E+02  0.48219079920E+02  0.10000000000E+01 0.  0.
    9000005    1    3    3    0    0 -0.28111580763E+01 -0.27048212320E+02  0.77809280150E+02  0.82430531218E+02  0.10000000000E+01 0.  0.
<mgrwt>
<rscale>  0 0.12500049E+03</rscale>
<asrwt>0</asrwt>
<pdfrwt beam="1">  1        4 0.12973248E-01 0.12500049E+03</pdfrwt>
<pdfrwt beam="2">  1       -4 0.71266926E-02 0.12500049E+03</pdfrwt>
<totfact> 0.10330492E+04</totfact>
</mgrwt>
</event>
<event>
 5    1  0.3267085E-002  0.1250039E+03  0.7818608E-02  0.1235063E+00
         -4   -1    0    0    0  501 -0.00000000000E+00  0.00000000000E+00  0.53106606142E+02  0.53121789465E+02  0.12700000000E+01 0. -1.
          4   -1    0    0  501    0  0.00000000000E+00 -0.00000000000E+00 -0.73528301984E+02  0.73539269051E+02  0.12700000000E+01 0. -1.
         25    2    1    2    0    0  0.00000000000E+00  0.00000000000E+00 -0.20421695842E+02  0.12666105852E+03  0.12500391227E+03 0.  0.
    9000005    1    3    3    0    0 -0.17838489157E+02  0.33857791836E+02  0.39849909425E+02  0.55259180636E+02  0.10000000000E+01 0.  0.
    9000005    1    3    3    0    0  0.17838489157E+02 -0.33857791836E+02 -0.60271605266E+02  0.71401877880E+02  0.10000000000E+01 0.  0.
<mgrwt>
<rscale>  0 0.12500391E+03</rscale>
<asrwt>0</asrwt>
<pdfrwt beam="2">  1        4 0.11314058E-01 0.12500391E+03</pdfrwt>
<pdfrwt beam="1">  1       -4 0.81722587E-02 0.12500391E+03</pdfrwt>
<totfact> 0.10415598E+04</totfact>
</mgrwt>
</event>
<event>
 5    1  0.3267085E-002  0.1249975E+03  0.7818608E-02  0.1235073E+00
         -4   -1    0    0    0  501 -0.00000000000E+00  0.00000000000E+00  0.19786504487E+02  0.19827220174E+02  0.12700000000E+01 0.  1.
          4   -1    0    0  501    0  0.00000000000E+00 -0.00000000000E+00 -0.19716639761E+03  0.19717048776E+03  0.12700000000E+01 0.  1.
         25    2    1    2    0    0  0.00000000000E+00  0.00000000000E+00 -0.17737989312E+03  0.21699770794E+03  0.12499751504E+03 0.  0.
    9000005    1    3    3    0    0  0.22264004225E+02 -0.52885585625E+02 -0.13165498403E+03  0.14361965698E+03  0.10000000000E+01 0.  0.
    9000005    1    3    3    0    0 -0.22264004225E+02  0.52885585625E+02 -0.45724909087E+02  0.73378050956E+02  0.10000000000E+01 0.  0.
<mgrwt>
<rscale>  0 0.12499752E+03</rscale>
<asrwt>0</asrwt>
<pdfrwt beam="2">  1        4 0.30336737E-01 0.12499752E+03</pdfrwt>
<pdfrwt beam="1">  1       -4 0.30475243E-02 0.12499752E+03</pdfrwt>
<totfact> 0.87350514E+03</totfact>
</mgrwt>
</event>
<event>
 5    1  0.3267085E-002  0.1250008E+03  0.7818608E-02  0.1235068E+00
          4   -1    0    0  501    0  0.00000000000E+00  0.00000000000E+00  0.28150213232E+01  0.30882430361E+01  0.12700000000E+01 0.  1.
         -4   -1    0    0    0  501 -0.00000000000E+00 -0.00000000000E+00 -0.13231632616E+04  0.13231638710E+04  0.12700000000E+01 0.  1.
         25    2    1    2    0    0  0.00000000000E+00  0.00000000000E+00 -0.13203482402E+04  0.13262521141E+04  0.12500077844E+03 0.  0.
    9000005    1    3    3    0    0 -0.46992240251E+02  0.41097287770E+02 -0.63008794561E+03  0.63317381255E+03  0.10000000000E+01 0.  0.
    9000005    1    3    3    0    0  0.46992240251E+02 -0.41097287770E+02 -0.69026029463E+03  0.69307830152E+03  0.10000000000E+01 0.  0.
<mgrwt>
<rscale>  0 0.12500078E+03</rscale>
<asrwt>0</asrwt>
<pdfrwt beam="1">  1        4 0.45414520E-03 0.12500078E+03</pdfrwt>
<pdfrwt beam="2">  1       -4 0.20358417E+00 0.12500078E+03</pdfrwt>
<totfact> 0.21616983E+03</totfact>
</mgrwt>
</event>
<event>
 5    1  0.3267085E-002  0.1249954E+03  0.7818608E-02  0.1235077E+00
         -4   -1    0    0    0  501 -0.00000000000E+00  0.00000000000E+00  0.13395027190E+02  0.13455097674E+02  0.12700000000E+01 0. -1.
          4   -1    0    0  501    0  0.00000000000E+00 -0.00000000000E+00 -0.29088390937E+03  0.29088668177E+03  0.12700000000E+01 0. -1.
         25    2    1    2    0    0  0.00000000000E+00  0.00000000000E+00 -0.27748888218E+03  0.30434177944E+03  0.12499535584E+03 0.  0.
    9000005    1    3    3    0    0 -0.60292590464E+02  0.79841554383E+01 -0.17369215285E+03  0.18403507047E+03  0.10000000000E+01 0.  0.
    9000005    1    3    3    0    0  0.60292590464E+02 -0.79841554383E+01 -0.10379672933E+03  0.12030670897E+03  0.10000000000E+01 0.  0.
<mgrwt>
<rscale>  0 0.12499536E+03</rscale>
<asrwt>0</asrwt>
<pdfrwt beam="2">  1        4 0.44756200E-01 0.12499536E+03</pdfrwt>
<pdfrwt beam="1">  1       -4 0.20656077E-02 0.12499536E+03</pdfrwt>
<totfact> 0.75065160E+03</totfact>
</mgrwt>
</event>
<event>
 5    1  0.3267085E-002  0.1249991E+03  0.7818608E-02  0.1235071E+00
          4   -1    0    0  501    0  0.00000000000E+00  0.00000000000E+00  0.84307942082E+01  0.85259129118E+01  0.12700000000E+01 0.  1.
         -4   -1    0    0    0  501 -0.00000000000E+00 -0.00000000000E+00 -0.46062929925E+03  0.46063105000E+03  0.12700000000E+01 0.  1.
         25    2    1    2    0    0  0.00000000000E+00  0.00000000000E+00 -0.45219850504E+03  0.46915696291E+03  0.12499907156E+03 0.  0.
    9000005    1    3    3    0    0 -0.43261057271E+02  0.33663967084E+02 -0.11347508703E+03  0.12602530354E+03  0.10000000000E+01 0.  0.
    9000005    1    3    3    0    0  0.43261057271E+02 -0.33663967084E+02 -0.33872341801E+03  0.34313165937E+03  0.10000000000E+01 0.  0.
<mgrwt>
<rscale>  0 0.12499907E+03</rscale>
<asrwt>0</asrwt>
<pdfrwt beam="1">  1        4 0.13044971E-02 0.12499907E+03</pdfrwt>
<pdfrwt beam="2">  1       -4 0.70873478E-01 0.12499907E+03</pdfrwt>
<totfact> 0.58340623E+03</totfact>
</mgrwt>
</event>
<event>
 5    1  0.3267085E-002  0.1249952E+03  0.7818608E-02  0.1235077E+00
         -4   -1    0    0    0  501 -0.00000000000E+00  0.00000000000E+00  0.15431822821E+03  0.15432345402E+03  0.12700000000E+01 0.  1.
          4   -1    0    0  501    0  0.00000000000E+00 -0.00000000000E+00 -0.25289404069E+02  0.25321272839E+02  0.12700000000E+01 0.  1.
         25    2    1    2    0    0  0.00000000000E+00  0.00000000000E+00  0.12902882415E+03  0.17964472685E+03  0.12499516161E+03 0.  0.
    9000005    1    3    3    0    0 -0.25770177953E+02  0.43308866348E+02  0.11761721483E+03  0.12796315564E+03  0.10000000000E+01 0.  0.
    9000005    1    3    3    0    0  0.25770177953E+02 -0.43308866348E+02  0.11411609310E+02  0.51681571213E+02  0.10000000000E+01 0.  0.
<mgrwt>
<rscale>  0 0.12499516E+03</rscale>
<asrwt>0</asrwt>
<pdfrwt beam="2">  1        4 0.38935309E-02 0.12499516E+03</pdfrwt>
<pdfrwt beam="1">  1       -4 0.23744120E-01 0.12499516E+03</pdfrwt>
<totfact> 0.93691156E+03</totfact>
</mgrwt>
</event>
<event>
 5    1  0.3267085E-002  0.1249989E+03  0.7818608E-02  0.1235071E+00
         -4   -1    0    0    0  501 -0.00000000000E+00  0.00000000000E+00  0.75814759014E+02  0.75825395378E+02  0.12700000000E+01 0. -1.
          4   -1    0    0  501    0  0.00000000000E+00 -0.00000000000E+00 -0.51500651858E+02  0.51516308504E+02  0.12700000000E+01 0. -1.
         25    2    1    2    0    0  0.00000000000E+00  0.00000000000E+00  0.24314107155E+02  0.12734170388E+03  0.12499893496E+03 0.  0.
    9000005    1    3    3    0    0 -0.30125104698E+01  0.22912617520E+02  0.71306605798E+02  0.74964626934E+02  0.10000000000E+01 0.  0.
    9000005    1    3    3    0    0  0.30125104698E+01 -0.22912617520E+02 -0.46992498642E+02  0.52377076948E+02  0.10000000000E+01 0.  0.
<mgrwt>
<rscale>  0 0.12499893E+03</rscale>
<asrwt>0</asrwt>
<pdfrwt beam="2">  1        4 0.79251998E-02 0.12499893E+03</pdfrwt>
<pdfrwt beam="1">  1       -4 0.11665832E-01 0.12499893E+03</pdfrwt>
<totfact> 0.10401980E+04</totfact>
</mgrwt>
</event>
<event>
 5    1  0.3267085E-002  0.1250008E+03  0.7818608E-02  0.1235068E+00
          4   -1    0    0  501    0  0.00000000000E+00  0.00000000000E+00  0.11307973626E+03  0.11308686773E+03  0.12700000000E+01 0.  1.
         -4   -1    0    0    0  501 -0.00000000000E+00 -0.00000000000E+00 -0.34524770021E+02  0.34548120715E+02  0.12700000000E+01 0.  1.
         25    2    1    2    0    0  0.00000000000E+00  0.00000000000E+00  0.78554966243E+02  0.14763498845E+03  0.12500082837E+03 0.  0.
    9000005    1    3    3    0    0 -0.20829369476E+02 -0.58440125403E+02  0.48130867759E+02  0.78528283574E+02  0.10000000000E+01 0.  0.
    9000005    1    3    3    0    0  0.20829369476E+02  0.58440125403E+02  0.30424098484E+02  0.69106704873E+02  0.10000000000E+01 0.  0.
<mgrwt>
<rscale>  0 0.12500083E+03</rscale>
<asrwt>0</asrwt>
<pdfrwt beam="1">  1        4 0.17399227E-01 0.12500083E+03</pdfrwt>
<pdfrwt beam="2">  1       -4 0.53138479E-02 0.12500083E+03</pdfrwt>
<totfact> 0.99775373E+03</totfact>
</mgrwt>
</event>
<event>
 4    1  0.3267085E-002  0.1248941E+03  0.7818608E-02  0.1235235E+00
         -4   -1    0    0    0  501 -0.00000000000E+00  0.00000000000E+00  0.65213709072E+01  0.66438827886E+01  0.12700000000E+01 0.  1.
          4   -1    0    0  501    0  0.00000000000E+00 -0.00000000000E+00 -0.59229016873E+03  0.59229153031E+03  0.12700000000E+01 0.  1.
    9000005    1    1    2    0    0 -0.37702507329E+01 -0.48549790313E+02 -0.48029998433E+03  0.48276326691E+03  0.10000000000E+01 0.  0.
    9000005    1    1    2    0    0  0.37702507329E+01  0.48549790313E+02 -0.10546881350E+03  0.11617214619E+03  0.10000000000E+01 0.  0.
<mgrwt>
<rscale>  0 0.12489413E+03</rscale>
<asrwt>0</asrwt>
<pdfrwt beam="2">  1        4 0.91131051E-01 0.12489413E+03</pdfrwt>
<pdfrwt beam="1">  1       -4 0.10128170E-02 0.12489413E+03</pdfrwt>
<totfact> 0.49048669E+03</totfact>
</mgrwt>
</event>
<event>
 5    1  0.3267085E-002  0.1250054E+03  0.7818608E-02  0.1235061E+00
         -4   -1    0    0    0  501 -0.00000000000E+00  0.00000000000E+00  0.24516696998E+02  0.24549568870E+02  0.12700000000E+01 0. -1.
          4   -1    0    0  501    0  0.00000000000E+00 -0.00000000000E+00 -0.15920183293E+03  0.15920689843E+03  0.12700000000E+01 0. -1.
         25    2    1    2    0    0  0.00000000000E+00  0.00000000000E+00 -0.13468513593E+03  0.18375646730E+03  0.12500541362E+03 0.  0.
    9000005    1    3    3    0    0  0.48184267602E+02  0.57668678580E+01 -0.94577309758E+01  0.49451279907E+02  0.10000000000E+01 0.  0.
    9000005    1    3    3    0    0 -0.48184267602E+02 -0.57668678580E+01 -0.12522740495E+03  0.13430518739E+03  0.10000000000E+01 0.  0.
<mgrwt>
<rscale>  0 0.12500541E+03</rscale>
<asrwt>0</asrwt>
<pdfrwt beam="2">  1        4 0.24495507E-01 0.12500541E+03</pdfrwt>
<pdfrwt beam="1">  1       -4 0.37747179E-02 0.12500541E+03</pdfrwt>
<totfact> 0.92933887E+03</totfact>
</mgrwt>
</event>
<event>
 5    1  0.3267085E-002  0.1250002E+03  0.7818608E-02  0.1235069E+00
          4   -1    0    0  501    0  0.00000000000E+00  0.00000000000E+00  0.56952261034E+02  0.56966419379E+02  0.12700000000E+01 0. -1.
         -4   -1    0    0    0  501 -0.00000000000E+00 -0.00000000000E+00 -0.68559852797E+02  0.68571614503E+02  0.12700000000E+01 0. -1.
         25    2    1    2    0    0  0.00000000000E+00  0.00000000000E+00 -0.11607591763E+02  0.12553803388E+03  0.12500024706E+03 0.  0.
    9000005    1    3    3    0    0  0.45016574158E+02  0.31366317718E+02 -0.35847840866E+02  0.65546971943E+02  0.10000000000E+01 0.  0.
    9000005    1    3    3    0    0 -0.45016574158E+02 -0.31366317718E+02  0.24240249103E+02  0.59991061940E+02  0.10000000000E+01 0.  0.
<mgrwt>
<rscale>  0 0.12500025E+03</rscale>
<asrwt>0</asrwt>
<pdfrwt beam="1">  1        4 0.87638801E-02 0.12500025E+03</pdfrwt>
<pdfrwt beam="2">  1       -4 0.10549664E-01 0.12500025E+03</pdfrwt>
<totfact> 0.10441056E+04</totfact>
</mgrwt>
</event>
<event>
 5    1  0.3267085E-002  0.1250063E+03  0.7818608E-02  0.1235060E+00
          4   -1    0    0  501    0  0.00000000000E+00  0.00000000000E+00  0.10076787184E+04  0.10076795187E+04  0.12700000000E+01 0. -1.
         -4   -1    0    0    0  501 -0.00000000000E+00 -0.00000000000E+00 -0.37720404198E+01  0.39800991104E+01  0.12700000000E+01 0. -1.
         25    2    1    2    0    0  0.00000000000E+00  0.00000000000E+00  0.10039066780E+04  0.10116596179E+04  0.12500625674E+03 0.  0.
    9000005    1    3    3    0    0  0.30287234355E+02  0.43386405244E+02  0.77108779228E+03  0.77290172734E+03  0.10000000000E+01 0.  0.
    9000005    1    3    3    0    0 -0.30287234355E+02 -0.43386405244E+02  0.23281888574E+03  0.23875789051E+03  0.10000000000E+01 0.  0.
<mgrwt>
<rscale>  0 0.12500626E+03</rscale>
<asrwt>0</asrwt>
<pdfrwt beam="1">  1        4 0.15504356E+00 0.12500626E+03</pdfrwt>
<pdfrwt beam="2">  1       -4 0.59637998E-03 0.12500626E+03</pdfrwt>
<totfact> 0.30218440E+03</totfact>
</mgrwt>
</event>
