<event>
 5    1  0.3309811E-002  0.1249998E+03  0.7818608E-02  0.1235070E+00
          4   -1    0    0  501    0  0.00000000000E+00  0.00000000000E+00  0.12157386464E+03  0.12158049788E+03  0.12700000000E+01 0.  1.
         -4   -1    0    0    0  501 -0.00000000000E+00 -0.00000000000E+00 -0.32110512737E+02  0.32135617751E+02  0.12700000000E+01 0.  1.
         25    2    1    2    0    0  0.00000000000E+00  0.00000000000E+00  0.89463351906E+02  0.15371611563E+03  0.12499981148E+03 0.  0.
    9000005    1    3    3    0    0  0.49655824254E+02 -0.35374982575E+02  0.27863823998E+02  0.67040905142E+02  0.10000000000E+01 0.  0.
    9000005    1    3    3    0    0 -0.49655824254E+02  0.35374982575E+02  0.61599527908E+02  0.86675210487E+02  0.10000000000E+01 0.  0.
<mgrwt>
<rscale>  0 0.12499981E+03</rscale>
<asrwt>0</asrwt>
<pdfrwt beam="1">  1        4 0.18706112E-01 0.12499981E+03</pdfrwt>
<pdfrwt beam="2">  1       -4 0.49425204E-02 0.12499981E+03</pdfrwt>
<totfact> 0.98568455E+03</totfact>
</mgrwt>
</event>
<event>
 5    1  0.3309811E-002  0.1249992E+03  0.7818608E-02  0.1235071E+00
         -4   -1    0    0    0  501 -0.00000000000E+00  0.00000000000E+00  0.40742198687E+03  0.40742396626E+03  0.12700000000E+01 0.  1.
          4   -1    0    0  501    0  0.00000000000E+00 -0.00000000000E+00 -0.95435271157E+01  0.96276585839E+01  0.12700000000E+01 0.  1.
         25    2    1    2    0    0  0.00000000000E+00  0.00000000000E+00  0.39787845975E+03  0.41705162485E+03  0.12499915620E+03 0.  0.
    9000005    1    3    3    0    0 -0.17979988314E+02 -0.47998600531E+02  0.79662167235E+02  0.94732288694E+02  0.10000000000E+01 0.  0.
    9000005    1    3    3    0    0  0.17979988314E+02  0.47998600531E+02  0.31821629252E+03  0.32231933615E+03  0.10000000000E+01 0.  0.
<mgrwt>
<rscale>  0 0.12499916E+03</rscale>
<asrwt>0</asrwt>
<pdfrwt beam="2">  1        4 0.14748589E-02 0.12499916E+03</pdfrwt>
<pdfrwt beam="1">  1       -4 0.62686927E-01 0.12499916E+03</pdfrwt>
<totfact> 0.62928652E+03</totfact>
</mgrwt>
</event>
<event>
 5    1  0.3309811E-002  0.1249979E+03  0.7818608E-02  0.1235073E+00
         -4   -1    0    0    0  501 -0.00000000000E+00  0.00000000000E+00  0.62159462865E+02  0.62172435400E+02  0.12700000000E+01 0. -1.
          4   -1    0    0  501    0  0.00000000000E+00 -0.00000000000E+00 -0.62814347012E+02  0.62827184328E+02  0.12700000000E+01 0. -1.
         25    2    1    2    0    0  0.00000000000E+00  0.00000000000E+00 -0.65488414745E+00  0.12499961973E+03  0.12499790422E+03 0.  0.
    9000005    1    3    3    0    0 -0.41115386724E+02  0.26212766449E+02  0.38756784839E+02  0.62295044116E+02  0.10000000000E+01 0.  0.
    9000005    1    3    3    0    0  0.41115386724E+02 -0.26212766449E+02 -0.39411668986E+02  0.62704575612E+02  0.10000000000E+01 0.  0.
<mgrwt>
<rscale>  0 0.12499790E+03</rscale>
<asrwt>0</asrwt>
<pdfrwt beam="2">  1        4 0.96657311E-02 0.12499790E+03</pdfrwt>
<pdfrwt beam="1">  1       -4 0.95649797E-02 0.12499790E+03</pdfrwt>
<totfact> 0.10453366E+04</totfact>
</mgrwt>
</event>
<event>
 5    1  0.3309811E-002  0.1250049E+03  0.7818608E-02  0.1235062E+00
          4   -1    0    0  501    0  0.00000000000E+00  0.00000000000E+00  0.28809767444E+03  0.28810047365E+03  0.12700000000E+01 0. -1.
         -4   -1    0    0    0  501 -0.00000000000E+00 -0.00000000000E+00 -0.13527235147E+02  0.13586721117E+02  0.12700000000E+01 0. -1.
         25    2    1    2    0    0  0.00000000000E+00  0.00000000000E+00  0.27457043929E+03  0.30168719476E+03  0.12500494932E+03 0.  0.
    9000005    1    3    3    0    0  0.61812168997E+01  0.11839090357E+02 -0.10054659206E+02  0.16747169152E+02  0.10000000000E+01 0.  0.
    9000005    1    3    3    0    0 -0.61812168997E+01 -0.11839090357E+02  0.28462509850E+03  0.28494002561E+03  0.10000000000E+01 0.  0.
<mgrwt>
<rscale>  0 0.12500495E+03</rscale>
<asrwt>0</asrwt>
<pdfrwt beam="1">  1        4 0.44327512E-01 0.12500495E+03</pdfrwt>
<pdfrwt beam="2">  1       -4 0.20859042E-02 0.12500495E+03</pdfrwt>
<totfact> 0.75379402E+03</totfact>
</mgrwt>
</event>
<event>
 5    1  0.3309811E-002  0.1249994E+03  0.7818608E-02  0.1235070E+00
          4   -1    0    0  501    0  0.00000000000E+00  0.00000000000E+00  0.21636483810E+03  0.21636856533E+03  0.12700000000E+01 0.  1.
         -4   -1    0    0    0  501 -0.00000000000E+00 -0.00000000000E+00 -0.18027600561E+02  0.18072279380E+02  0.12700000000E+01 0.  1.
         25    2    1    2    0    0  0.00000000000E+00  0.00000000000E+00  0.19833723754E+03  0.23444084471E+03  0.12499939950E+03 0.  0.
    9000005    1    3    3    0    0 -0.16941114241E+02  0.14599925383E+02 -0.10274209517E+02  0.24631657559E+02  0.10000000000E+01 0.  0.
    9000005    1    3    3    0    0  0.16941114241E+02 -0.14599925383E+02  0.20861144705E+03  0.20980918715E+03  0.10000000000E+01 0.  0.
<mgrwt>
<rscale>  0 0.12499940E+03</rscale>
<asrwt>0</asrwt>
<pdfrwt beam="1">  1        4 0.33290622E-01 0.12499940E+03</pdfrwt>
<pdfrwt beam="2">  1       -4 0.27772005E-02 0.12499940E+03</pdfrwt>
<totfact> 0.84633465E+03</totfact>
</mgrwt>
</event>
<event>
 5    1  0.3309811E-002  0.1249507E+03  0.7818608E-02  0.1235146E+00
         -4   -1    0    0    0  501 -0.00000000000E+00  0.00000000000E+00  0.10856908367E+03  0.10857651140E+03  0.12700000000E+01 0.  1.
          4   -1    0    0  501    0  0.00000000000E+00 -0.00000000000E+00 -0.35931145221E+02  0.35953582532E+02  0.12700000000E+01 0.  1.
         25    2    1    2    0    0  0.00000000000E+00  0.00000000000E+00  0.72637938447E+02  0.14453009393E+03  0.12495070208E+03 0.  0.
    9000005    1    3    3    0    0  0.29587249192E+02  0.10889556186E+02  0.98696812629E+02  0.10361490516E+03  0.10000000000E+01 0.  0.
    9000005    1    3    3    0    0 -0.29587249192E+02 -0.10889556186E+02 -0.26058874182E+02  0.40915188773E+02  0.10000000000E+01 0.  0.
<mgrwt>
<rscale>  0 0.12495070E+03</rscale>
<asrwt>0</asrwt>
<pdfrwt beam="2">  1        4 0.55301659E-02 0.12495070E+03</pdfrwt>
<pdfrwt beam="1">  1       -4 0.16705233E-01 0.12495070E+03</pdfrwt>
<totfact> 0.10051699E+04</totfact>
</mgrwt>
</event>
<event>
 5    1  0.3309811E-002  0.1249964E+03  0.7818608E-02  0.1235075E+00
          4   -1    0    0  501    0  0.00000000000E+00  0.00000000000E+00  0.11752232712E+03  0.11752918902E+03  0.12700000000E+01 0. -1.
         -4   -1    0    0    0  501 -0.00000000000E+00 -0.00000000000E+00 -0.33216458026E+02  0.33240727786E+02  0.12700000000E+01 0. -1.
         25    2    1    2    0    0  0.00000000000E+00  0.00000000000E+00  0.84305869091E+02  0.15076991680E+03  0.12499635294E+03 0.  0.
    9000005    1    3    3    0    0 -0.12831015858E+02 -0.48821823200E+02 -0.22772318281E+01  0.50540985085E+02  0.10000000000E+01 0.  0.
    9000005    1    3    3    0    0  0.12831015858E+02  0.48821823200E+02  0.86583100919E+02  0.10022893172E+03  0.10000000000E+01 0.  0.
<mgrwt>
<rscale>  0 0.12499635E+03</rscale>
<asrwt>0</asrwt>
<pdfrwt beam="1">  1        4 0.18082753E-01 0.12499635E+03</pdfrwt>
<pdfrwt beam="2">  1       -4 0.51126190E-02 0.12499635E+03</pdfrwt>
<totfact> 0.99158586E+03</totfact>
</mgrwt>
</event>
<event>
 5    1  0.3309811E-002  0.1249993E+03  0.7818608E-02  0.1235070E+00
         -4   -1    0    0    0  501 -0.00000000000E+00  0.00000000000E+00  0.45362179093E+03  0.45362356872E+03  0.12700000000E+01 0.  1.
          4   -1    0    0  501    0  0.00000000000E+00 -0.00000000000E+00 -0.85625201616E+01  0.86561915134E+01  0.12700000000E+01 0.  1.
         25    2    1    2    0    0  0.00000000000E+00  0.00000000000E+00  0.44505927076E+03  0.46227976024E+03  0.12499928893E+03 0.  0.
    9000005    1    3    3    0    0 -0.21345917801E+02 -0.40444441481E+02  0.38003399343E+03  0.38277700717E+03  0.10000000000E+01 0.  0.
    9000005    1    3    3    0    0  0.21345917801E+02  0.40444441481E+02  0.65025277333E+02  0.79502753070E+02  0.10000000000E+01 0.  0.
<mgrwt>
<rscale>  0 0.12499929E+03</rscale>
<asrwt>0</asrwt>
<pdfrwt beam="2">  1        4 0.13246528E-02 0.12499929E+03</pdfrwt>
<pdfrwt beam="1">  1       -4 0.69795324E-01 0.12499929E+03</pdfrwt>
<totfact> 0.58915481E+03</totfact>
</mgrwt>
</event>
<event>
 5    1  0.3309811E-002  0.1249975E+03  0.7818608E-02  0.1235073E+00
         -4   -1    0    0    0  501 -0.00000000000E+00  0.00000000000E+00  0.48969921410E+02  0.48986386915E+02  0.12700000000E+01 0. -1.
          4   -1    0    0  501    0  0.00000000000E+00 -0.00000000000E+00 -0.79730216411E+02  0.79740330504E+02  0.12700000000E+01 0. -1.
         25    2    1    2    0    0  0.00000000000E+00  0.00000000000E+00 -0.30760295000E+02  0.12872671742E+03  0.12499748809E+03 0.  0.
    9000005    1    3    3    0    0 -0.13598949071E+02 -0.53773479108E+02 -0.45023901475E+02  0.71446974570E+02  0.10000000000E+01 0.  0.
    9000005    1    3    3    0    0  0.13598949071E+02  0.53773479108E+02  0.14263606474E+02  0.57279742849E+02  0.10000000000E+01 0.  0.
<mgrwt>
<rscale>  0 0.12499749E+03</rscale>
<asrwt>0</asrwt>
<pdfrwt beam="2">  1        4 0.12268232E-01 0.12499749E+03</pdfrwt>
<pdfrwt beam="1">  1       -4 0.75358786E-02 0.12499749E+03</pdfrwt>
<totfact> 0.10372411E+04</totfact>
</mgrwt>
</event>
<event>
 5    1  0.3309811E-002  0.1250004E+03  0.7818608E-02  0.1235069E+00
          4   -1    0    0  501    0  0.00000000000E+00  0.00000000000E+00  0.37517134662E+02  0.37538624019E+02  0.12700000000E+01 0. -1.
         -4   -1    0    0    0  501 -0.00000000000E+00 -0.00000000000E+00 -0.10406462390E+03  0.10407237312E+03  0.12700000000E+01 0. -1.
         25    2    1    2    0    0  0.00000000000E+00  0.00000000000E+00 -0.66547489239E+02  0.14161099714E+03  0.12500042475E+03 0.  0.
    9000005    1    3    3    0    0  0.32358177014E+02  0.23598884619E+02  0.21073029285E+02  0.45266229556E+02  0.10000000000E+01 0.  0.
    9000005    1    3    3    0    0 -0.32358177014E+02 -0.23598884619E+02 -0.87620518525E+02  0.96344767587E+02  0.10000000000E+01 0.  0.
<mgrwt>
<rscale>  0 0.12500042E+03</rscale>
<asrwt>0</asrwt>
<pdfrwt beam="1">  1        4 0.57741160E-02 0.12500042E+03</pdfrwt>
<pdfrwt beam="2">  1       -4 0.16012191E-01 0.12500042E+03</pdfrwt>
<totfact> 0.10100209E+04</totfact>
</mgrwt>
</event>
<event>
 5    1  0.3309811E-002  0.1249964E+03  0.7818608E-02  0.1235075E+00
         -4   -1    0    0    0  501 -0.00000000000E+00  0.00000000000E+00  0.76766575487E+03  0.76766680540E+03  0.12700000000E+01 0.  1.
          4   -1    0    0  501    0  0.00000000000E+00 -0.00000000000E+00 -0.50078674268E+01  0.51663948905E+01  0.12700000000E+01 0.  1.
         25    2    1    2    0    0  0.00000000000E+00  0.00000000000E+00  0.76265788745E+03  0.77283320029E+03  0.12499640866E+03 0.  0.
    9000005    1    3    3    0    0  0.88685217126E+01  0.45606088979E+02  0.63971406204E+03  0.64139975616E+03  0.10000000000E+01 0.  0.
    9000005    1    3    3    0    0 -0.88685217126E+01 -0.45606088979E+02  0.12294382541E+03  0.13143344413E+03  0.10000000000E+01 0.  0.
<mgrwt>
<rscale>  0 0.12499641E+03</rscale>
<asrwt>0</asrwt>
<pdfrwt beam="2">  1        4 0.78271701E-03 0.12499641E+03</pdfrwt>
<pdfrwt beam="1">  1       -4 0.11811460E+00 0.12499641E+03</pdfrwt>
<totfact> 0.39508214E+03</totfact>
</mgrwt>
</event>
<event>
 5    1  0.3309811E-002  0.1250009E+03  0.7818608E-02  0.1235068E+00
          4   -1    0    0  501    0  0.00000000000E+00  0.00000000000E+00  0.57820951600E+01  0.59199260501E+01  0.12700000000E+01 0.  1.
         -4   -1    0    0    0  501 -0.00000000000E+00 -0.00000000000E+00 -0.66749086813E+03  0.66749207631E+03  0.12700000000E+01 0.  1.
         25    2    1    2    0    0  0.00000000000E+00  0.00000000000E+00 -0.66170877297E+03  0.67341200236E+03  0.12500089879E+03 0.  0.
    9000005    1    3    3    0    0  0.17053853695E+02 -0.59272927659E+02 -0.38504716776E+03  0.38995696593E+03  0.10000000000E+01 0.  0.
    9000005    1    3    3    0    0 -0.17053853695E+02  0.59272927659E+02 -0.27666160521E+03  0.28345503642E+03  0.10000000000E+01 0.  0.
<mgrwt>
<rscale>  0 0.12500090E+03</rscale>
<asrwt>0</asrwt>
<pdfrwt beam="1">  1        4 0.90024894E-03 0.12500090E+03</pdfrwt>
<pdfrwt beam="2">  1       -4 0.10270154E+00 0.12500090E+03</pdfrwt>
<totfact> 0.44527034E+03</totfact>
</mgrwt>
</event>
<event>
 5    1  0.3309811E-002  0.1250054E+03  0.7818608E-02  0.1235061E+00
         -4   -1    0    0    0  501 -0.00000000000E+00  0.00000000000E+00  0.21976857232E+03  0.21977224183E+03  0.12700000000E+01 0. -1.
          4   -1    0    0  501    0  0.00000000000E+00 -0.00000000000E+00 -0.17749405264E+02  0.17794782585E+02  0.12700000000E+01 0. -1.
         25    2    1    2    0    0  0.00000000000E+00  0.00000000000E+00  0.20201916705E+03  0.23756702441E+03  0.12500538881E+03 0.  0.
    9000005    1    3    3    0    0 -0.40791922117E+02  0.66678115203E+01  0.11928211029E+02  0.43031649269E+02  0.10000000000E+01 0.  0.
    9000005    1    3    3    0    0  0.40791922117E+02 -0.66678115203E+01  0.19009095603E+03  0.19453537515E+03  0.10000000000E+01 0.  0.
<mgrwt>
<rscale>  0 0.12500539E+03</rscale>
<asrwt>0</asrwt>
<pdfrwt beam="2">  1        4 0.27344507E-02 0.12500539E+03</pdfrwt>
<pdfrwt beam="1">  1       -4 0.33814321E-01 0.12500539E+03</pdfrwt>
<totfact> 0.84150944E+03</totfact>
</mgrwt>
</event>
<event>
 5    1  0.3309811E-002  0.1249944E+03  0.7818608E-02  0.1235078E+00
         -4   -1    0    0    0  501 -0.00000000000E+00  0.00000000000E+00  0.43885431188E+03  0.43885614950E+03  0.12700000000E+01 0.  1.
          4   -1    0    0  501    0  0.00000000000E+00 -0.00000000000E+00 -0.88530561235E+01  0.89436850752E+01  0.12700000000E+01 0.  1.
         25    2    1    2    0    0  0.00000000000E+00  0.00000000000E+00  0.43000125575E+03  0.44779983457E+03  0.12499444746E+03 0.  0.
    9000005    1    3    3    0    0 -0.19946738431E+02  0.39019674117E+01  0.33019164538E+01  0.20615537247E+02  0.10000000000E+01 0.  0.
    9000005    1    3    3    0    0  0.19946738431E+02 -0.39019674117E+01  0.42669933930E+03  0.42718429733E+03  0.10000000000E+01 0.  0.
<mgrwt>
<rscale>  0 0.12499445E+03</rscale>
<asrwt>0</asrwt>
<pdfrwt beam="2">  1        4 0.13691210E-02 0.12499445E+03</pdfrwt>
<pdfrwt beam="1">  1       -4 0.67523181E-01 0.12499445E+03</pdfrwt>
<totfact> 0.60162215E+03</totfact>
</mgrwt>
</event>
<event>
 5    1  0.3309811E-002  0.1249998E+03  0.7818608E-02  0.1235070E+00
         -4   -1    0    0    0  501 -0.00000000000E+00  0.00000000000E+00  0.21806096182E+02  0.21843047651E+02  0.12700000000E+01 0. -1.
          4   -1    0    0  501    0  0.00000000000E+00 -0.00000000000E+00 -0.17894428763E+03  0.17894879429E+03  0.12700000000E+01 0. -1.
         25    2    1    2    0    0  0.00000000000E+00  0.00000000000E+00 -0.15713819145E+03  0.20079184194E+03  0.12499981030E+03 0.  0.
    9000005    1    3    3    0    0 -0.13752779232E+02 -0.60731020553E+02 -0.87045070465E+02  0.10702915531E+03  0.10000000000E+01 0.  0.
    9000005    1    3    3    0    0  0.13752779232E+02  0.60731020553E+02 -0.70093120985E+02  0.93762686626E+02  0.10000000000E+01 0.  0.
<mgrwt>
<rscale>  0 0.12499981E+03</rscale>
<asrwt>0</asrwt>
<pdfrwt beam="2">  1        4 0.27533079E-01 0.12499981E+03</pdfrwt>
<pdfrwt beam="1">  1       -4 0.33579732E-02 0.12499981E+03</pdfrwt>
<totfact> 0.90002510E+03</totfact>
</mgrwt>
</event>
<event>
 5    1  0.3309811E-002  0.1250001E+03  0.7818608E-02  0.1235069E+00
          4   -1    0    0  501    0  0.00000000000E+00  0.00000000000E+00  0.13561786191E+03  0.13562380826E+03  0.12700000000E+01 0.  1.
         -4   -1    0    0    0  501 -0.00000000000E+00 -0.00000000000E+00 -0.28782821861E+02  0.28810826685E+02  0.12700000000E+01 0.  1.
         25    2    1    2    0    0  0.00000000000E+00  0.00000000000E+00  0.10683504005E+03  0.16443463495E+03  0.12500009356E+03 0.  0.
    9000005    1    3    3    0    0 -0.57862093104E+02  0.63315552484E+01  0.23502499232E+02  0.62781190499E+02  0.10000000000E+01 0.  0.
    9000005    1    3    3    0    0  0.57862093104E+02 -0.63315552484E+01  0.83332540814E+02  0.10165344445E+03  0.10000000000E+01 0.  0.
<mgrwt>
<rscale>  0 0.12500009E+03</rscale>
<asrwt>0</asrwt>
<pdfrwt beam="1">  1        4 0.20866898E-01 0.12500009E+03</pdfrwt>
<pdfrwt beam="2">  1       -4 0.44307381E-02 0.12500009E+03</pdfrwt>
<totfact> 0.96494368E+03</totfact>
</mgrwt>
</event>
<event>
 5    1  0.3309811E-002  0.1249999E+03  0.7818608E-02  0.1235069E+00
         -4   -1    0    0    0  501 -0.00000000000E+00  0.00000000000E+00  0.85084641244E+03  0.85084736026E+03  0.12700000000E+01 0. -1.
          4   -1    0    0  501    0  0.00000000000E+00 -0.00000000000E+00 -0.45022121212E+01  0.46779070089E+01  0.12700000000E+01 0. -1.
         25    2    1    2    0    0  0.00000000000E+00  0.00000000000E+00  0.84634420032E+03  0.85552526727E+03  0.12499991009E+03 0.  0.
    9000005    1    3    3    0    0 -0.32800973018E+02 -0.38110310717E+02  0.16920269610E+03  0.17651870151E+03  0.10000000000E+01 0.  0.
    9000005    1    3    3    0    0  0.32800973018E+02  0.38110310717E+02  0.67714150422E+03  0.67900656576E+03  0.10000000000E+01 0.  0.
<mgrwt>
<rscale>  0 0.12499991E+03</rscale>
<asrwt>0</asrwt>
<pdfrwt beam="2">  1        4 0.70623532E-03 0.12499991E+03</pdfrwt>
<pdfrwt beam="1">  1       -4 0.13091315E+00 0.12499991E+03</pdfrwt>
<totfact> 0.35902325E+03</totfact>
</mgrwt>
</event>
<event>
 5    1  0.3309811E-002  0.1250003E+03  0.7818608E-02  0.1235069E+00
          4   -1    0    0  501    0  0.00000000000E+00  0.00000000000E+00  0.42814059405E+02  0.42832891366E+02  0.12700000000E+01 0. -1.
         -4   -1    0    0    0  501 -0.00000000000E+00 -0.00000000000E+00 -0.91194729996E+02  0.91203572731E+02  0.12700000000E+01 0. -1.
         25    2    1    2    0    0  0.00000000000E+00  0.00000000000E+00 -0.48380670590E+02  0.13403646410E+03  0.12500033768E+03 0.  0.
    9000005    1    3    3    0    0 -0.19091243166E+01  0.54181780141E+02  0.91363088224E+01  0.54988927920E+02  0.10000000000E+01 0.  0.
    9000005    1    3    3    0    0  0.19091243166E+01 -0.54181780141E+02 -0.57516979413E+02  0.79047536177E+02  0.10000000000E+01 0.  0.
<mgrwt>
<rscale>  0 0.12500034E+03</rscale>
<asrwt>0</asrwt>
<pdfrwt beam="1">  1        4 0.65889072E-02 0.12500034E+03</pdfrwt>
<pdfrwt beam="2">  1       -4 0.14032087E-01 0.12500034E+03</pdfrwt>
<totfact> 0.10258342E+04</totfact>
</mgrwt>
</event>
<event>
 5    1  0.3309811E-002  0.1250007E+03  0.7818608E-02  0.1235068E+00
          4   -1    0    0  501    0  0.00000000000E+00  0.00000000000E+00  0.40973096327E+01  0.42896207555E+01  0.12700000000E+01 0.  1.
         -4   -1    0    0    0  501 -0.00000000000E+00 -0.00000000000E+00 -0.93132714745E+03  0.93132801337E+03  0.12700000000E+01 0.  1.
         25    2    1    2    0    0  0.00000000000E+00  0.00000000000E+00 -0.92722983782E+03  0.93561763412E+03  0.12500074055E+03 0.  0.
    9000005    1    3    3    0    0  0.26755277949E+02  0.34942439675E+02 -0.13152857435E+03  0.13869962098E+03  0.10000000000E+01 0.  0.
    9000005    1    3    3    0    0 -0.26755277949E+02 -0.34942439675E+02 -0.79570126347E+03  0.79691801315E+03  0.10000000000E+01 0.  0.
<mgrwt>
<rscale>  0 0.12500074E+03</rscale>
<asrwt>0</asrwt>
<pdfrwt beam="1">  1        4 0.64521584E-03 0.12500074E+03</pdfrwt>
<pdfrwt beam="2">  1       -4 0.14329579E+00 0.12500074E+03</pdfrwt>
<totfact> 0.32831678E+03</totfact>
</mgrwt>
</event>
<event>
 5    1  0.3309811E-002  0.1249994E+03  0.7818608E-02  0.1235070E+00
         -4   -1    0    0    0  501 -0.00000000000E+00  0.00000000000E+00  0.48424204920E+01  0.50061897908E+01  0.12700000000E+01 0. -1.
          4   -1    0    0  501    0  0.00000000000E+00 -0.00000000000E+00 -0.79308713687E+03  0.79308815372E+03  0.12700000000E+01 0. -1.
         25    2    1    2    0    0  0.00000000000E+00  0.00000000000E+00 -0.78824471638E+03  0.79809434351E+03  0.12499939297E+03 0.  0.
    9000005    1    3    3    0    0 -0.42181819167E+02  0.36307191091E+02 -0.21266700903E+03  0.21983124146E+03  0.10000000000E+01 0.  0.
    9000005    1    3    3    0    0  0.42181819167E+02 -0.36307191091E+02 -0.57557770735E+03  0.57826310205E+03  0.10000000000E+01 0.  0.
<mgrwt>
<rscale>  0 0.12499939E+03</rscale>
<asrwt>0</asrwt>
<pdfrwt beam="2">  1        4 0.12202598E+00 0.12499939E+03</pdfrwt>
<pdfrwt beam="1">  1       -4 0.75766425E-03 0.12499939E+03</pdfrwt>
<totfact> 0.38350477E+03</totfact>
</mgrwt>
</event>
<event>
 5    1  0.3309811E-002  0.1249964E+03  0.7818608E-02  0.1235075E+00
          4   -1    0    0  501    0  0.00000000000E+00  0.00000000000E+00  0.81928637111E+03  0.81928735544E+03  0.12700000000E+01 0.  1.
         -4   -1    0    0    0  501 -0.00000000000E+00 -0.00000000000E+00 -0.46820106612E+01  0.48511981852E+01  0.12700000000E+01 0.  1.
         25    2    1    2    0    0  0.00000000000E+00  0.00000000000E+00  0.81460436045E+03  0.82413855363E+03  0.12499636599E+03 0.  0.
    9000005    1    3    3    0    0 -0.33669676293E+02 -0.52042968498E+02  0.45959549107E+03  0.46375762321E+03  0.10000000000E+01 0.  0.
    9000005    1    3    3    0    0  0.33669676293E+02  0.52042968498E+02  0.35500886938E+03  0.36038093042E+03  0.10000000000E+01 0.  0.
<mgrwt>
<rscale>  0 0.12499637E+03</rscale>
<asrwt>0</asrwt>
<pdfrwt beam="1">  1        4 0.12605716E+00 0.12499637E+03</pdfrwt>
<pdfrwt beam="2">  1       -4 0.73339942E-03 0.12499637E+03</pdfrwt>
<totfact> 0.37212517E+03</totfact>
</mgrwt>
</event>
<event>
 5    1  0.3309811E-002  0.1249951E+03  0.7818608E-02  0.1235077E+00
          4   -1    0    0  501    0  0.00000000000E+00  0.00000000000E+00  0.19965409105E+02  0.20005760689E+02  0.12700000000E+01 0.  1.
         -4   -1    0    0    0  501 -0.00000000000E+00 -0.00000000000E+00 -0.19539578326E+03  0.19539991048E+03  0.12700000000E+01 0.  1.
         25    2    1    2    0    0  0.00000000000E+00  0.00000000000E+00 -0.17543037415E+03  0.21540567116E+03  0.12499514789E+03 0.  0.
    9000005    1    3    3    0    0  0.60739415771E+02  0.97185707902E+01 -0.68741565829E+02  0.92250366498E+02  0.10000000000E+01 0.  0.
    9000005    1    3    3    0    0 -0.60739415771E+02 -0.97185707902E+01 -0.10668880832E+03  0.12315530467E+03  0.10000000000E+01 0.  0.
<mgrwt>
<rscale>  0 0.12499515E+03</rscale>
<asrwt>0</asrwt>
<pdfrwt beam="1">  1        4 0.30750230E-02 0.12499515E+03</pdfrwt>
<pdfrwt beam="2">  1       -4 0.30064310E-01 0.12499515E+03</pdfrwt>
<totfact> 0.87610103E+03</totfact>
</mgrwt>
</event>
<event>
 5    1  0.3309811E-002  0.1249999E+03  0.7818608E-02  0.1235069E+00
          4   -1    0    0  501    0  0.00000000000E+00  0.00000000000E+00  0.78716546863E+01  0.79734464004E+01  0.12700000000E+01 0. -1.
         -4   -1    0    0    0  501 -0.00000000000E+00 -0.00000000000E+00 -0.49295129064E+03  0.49295292660E+03  0.12700000000E+01 0. -1.
         25    2    1    2    0    0  0.00000000000E+00  0.00000000000E+00 -0.48507963596E+03  0.50092637300E+03  0.12499991180E+03 0.  0.
    9000005    1    3    3    0    0  0.41851238064E+02 -0.11253694875E+02 -0.42296570716E+03  0.42518132745E+03  0.10000000000E+01 0.  0.
    9000005    1    3    3    0    0 -0.41851238064E+02  0.11253694875E+02 -0.62113928794E+02  0.75745045555E+02  0.10000000000E+01 0.  0.
<mgrwt>
<rscale>  0 0.12499991E+03</rscale>
<asrwt>0</asrwt>
<pdfrwt beam="1">  1        4 0.12189802E-02 0.12499991E+03</pdfrwt>
<pdfrwt beam="2">  1       -4 0.75846592E-01 0.12499991E+03</pdfrwt>
<totfact> 0.55792682E+03</totfact>
</mgrwt>
</event>
<event>
 5    1  0.3309811E-002  0.1249970E+03  0.7818608E-02  0.1235074E+00
          4   -1    0    0  501    0  0.00000000000E+00  0.00000000000E+00  0.55007214831E+03  0.55007361439E+03  0.12700000000E+01 0.  1.
         -4   -1    0    0    0  501 -0.00000000000E+00 -0.00000000000E+00 -0.70427297499E+01  0.71563218436E+01  0.12700000000E+01 0.  1.
         25    2    1    2    0    0  0.00000000000E+00  0.00000000000E+00  0.54302941856E+03  0.55722993623E+03  0.12499700961E+03 0.  0.
    9000005    1    3    3    0    0  0.33705369365E+02  0.51945098031E+02  0.30900335121E+03  0.31514824478E+03  0.10000000000E+01 0.  0.
    9000005    1    3    3    0    0 -0.33705369365E+02 -0.51945098031E+02  0.23402606735E+03  0.24208169145E+03  0.10000000000E+01 0.  0.
<mgrwt>
<rscale>  0 0.12499701E+03</rscale>
<asrwt>0</asrwt>
<pdfrwt beam="1">  1        4 0.84635351E-01 0.12499701E+03</pdfrwt>
<pdfrwt beam="2">  1       -4 0.10923473E-02 0.12499701E+03</pdfrwt>
<totfact> 0.51687072E+03</totfact>
</mgrwt>
</event>
<event>
 5    1  0.3309811E-002  0.1249877E+03  0.7818608E-02  0.1235089E+00
         -4   -1    0    0    0  501 -0.00000000000E+00  0.00000000000E+00  0.92276058020E+02  0.92284797143E+02  0.12700000000E+01 0. -1.
          4   -1    0    0  501    0  0.00000000000E+00 -0.00000000000E+00 -0.42303599547E+02  0.42322658643E+02  0.12700000000E+01 0. -1.
         25    2    1    2    0    0  0.00000000000E+00  0.00000000000E+00  0.49972458474E+02  0.13460745579E+03  0.12498768158E+03 0.  0.
    9000005    1    3    3    0    0  0.58404187978E+02  0.18960386955E+01  0.48821893180E+02  0.76152619061E+02  0.10000000000E+01 0.  0.
    9000005    1    3    3    0    0 -0.58404187978E+02 -0.18960386955E+01  0.11505652938E+01  0.58454836726E+02  0.10000000000E+01 0.  0.
<mgrwt>
<rscale>  0 0.12498768E+03</rscale>
<asrwt>0</asrwt>
<pdfrwt beam="2">  1        4 0.65103844E-02 0.12498768E+03</pdfrwt>
<pdfrwt beam="1">  1       -4 0.14198455E-01 0.12498768E+03</pdfrwt>
<totfact> 0.10249199E+04</totfact>
</mgrwt>
</event>
<event>
 5    1  0.3309811E-002  0.1249981E+03  0.7818608E-02  0.1235072E+00
         -4   -1    0    0    0  501 -0.00000000000E+00  0.00000000000E+00  0.97242585531E+02  0.97250878355E+02  0.12700000000E+01 0. -1.
          4   -1    0    0  501    0  0.00000000000E+00 -0.00000000000E+00 -0.40148909900E+02  0.40168991351E+02  0.12700000000E+01 0. -1.
         25    2    1    2    0    0  0.00000000000E+00  0.00000000000E+00  0.57093675631E+02  0.13741986971E+03  0.12499813116E+03 0.  0.
    9000005    1    3    3    0    0 -0.54048526210E+02 -0.14465464600E+02 -0.20513755771E+01  0.55997330234E+02  0.10000000000E+01 0.  0.
    9000005    1    3    3    0    0  0.54048526210E+02  0.14465464600E+02  0.59145051208E+02  0.81422539471E+02  0.10000000000E+01 0.  0.
<mgrwt>
<rscale>  0 0.12499813E+03</rscale>
<asrwt>0</asrwt>
<pdfrwt beam="2">  1        4 0.61789381E-02 0.12499813E+03</pdfrwt>
<pdfrwt beam="1">  1       -4 0.14962580E-01 0.12499813E+03</pdfrwt>
<totfact> 0.10187743E+04</totfact>
</mgrwt>
</event>
<event>
 4    1  0.3309811E-002  0.1246022E+03  0.7818608E-02  0.1235692E+00
         -4   -1    0    0    0  501 -0.00000000000E+00  0.00000000000E+00  0.79069569337E+02  0.79079767925E+02  0.12700000000E+01 0.  1.
          4   -1    0    0  501    0  0.00000000000E+00 -0.00000000000E+00 -0.49067217144E+02  0.49083650010E+02  0.12700000000E+01 0.  1.
    9000005    1    1    2    0    0 -0.32971968510E+02  0.50807108423E+02  0.27747111843E-01  0.60576511485E+02  0.10000000000E+01 0.  0.
    9000005    1    1    2    0    0  0.32971968510E+02 -0.50807108423E+02  0.29974605080E+02  0.67586906450E+02  0.10000000000E+01 0.  0.
<mgrwt>
<rscale>  0 0.12460225E+03</rscale>
<asrwt>0</asrwt>
<pdfrwt beam="2">  1        4 0.75508513E-02 0.12460225E+03</pdfrwt>
<pdfrwt beam="1">  1       -4 0.12166598E-01 0.12460225E+03</pdfrwt>
<totfact> 0.10477753E+04</totfact>
</mgrwt>
</event>
<event>
 4    1  0.3309811E-002  0.1250764E+03  0.7818608E-02  0.1234950E+00
          4   -1    0    0  501    0  0.00000000000E+00  0.00000000000E+00  0.11206155828E+03  0.11206875454E+03  0.12700000000E+01 0.  1.
         -4   -1    0    0    0  501 -0.00000000000E+00 -0.00000000000E+00 -0.34880796503E+02  0.34903909017E+02  0.12700000000E+01 0.  1.
    9000005    1    1    2    0    0 -0.61415336396E+02 -0.43550035445E+01  0.25760437644E+02  0.66748855781E+02  0.10000000000E+01 0.  0.
    9000005    1    1    2    0    0  0.61415336396E+02  0.43550035445E+01  0.51420324137E+02  0.80223807781E+02  0.10000000000E+01 0.  0.
<mgrwt>
<rscale>  0 0.12507635E+03</rscale>
<asrwt>0</asrwt>
<pdfrwt beam="1">  1        4 0.17242571E-01 0.12507635E+03</pdfrwt>
<pdfrwt beam="2">  1       -4 0.53686078E-02 0.12507635E+03</pdfrwt>
<totfact> 0.99739067E+03</totfact>
</mgrwt>
</event>
<event>
 4    1  0.3309811E-002  0.1249300E+03  0.7818608E-02  0.1235179E+00
         -4   -1    0    0    0  501 -0.00000000000E+00  0.00000000000E+00  0.12443819921E+04  0.12443826401E+04  0.12700000000E+01 0. -1.
          4   -1    0    0  501    0  0.00000000000E+00 -0.00000000000E+00 -0.30063204999E+01  0.32635659865E+01  0.12700000000E+01 0. -1.
    9000005    1    1    2    0    0 -0.47007471049E+02 -0.10140753953E+01  0.10312572862E+04  0.10323290760E+04  0.10000000000E+01 0.  0.
    9000005    1    1    2    0    0  0.47007471049E+02  0.10140753953E+01  0.21011838532E+03  0.21531713014E+03  0.10000000000E+01 0.  0.
<mgrwt>
<rscale>  0 0.12492997E+03</rscale>
<asrwt>0</asrwt>
<pdfrwt beam="2">  1        4 0.48234925E-03 0.12492997E+03</pdfrwt>
<pdfrwt beam="1">  1       -4 0.19146305E+00 0.12492997E+03</pdfrwt>
<totfact> 0.23534503E+03</totfact>
</mgrwt>
</event>
<event>
 5    1  0.3309811E-002  0.1249959E+03  0.7818608E-02  0.1235076E+00
         -4   -1    0    0    0  501 -0.00000000000E+00  0.00000000000E+00  0.42322416221E+02  0.42341466847E+02  0.12700000000E+01 0.  1.
          4   -1    0    0  501    0  0.00000000000E+00 -0.00000000000E+00 -0.92247248565E+02  0.92255990417E+02  0.12700000000E+01 0.  1.
         25    2    1    2    0    0  0.00000000000E+00  0.00000000000E+00 -0.49924832344E+02  0.13459745726E+03  0.12499594640E+03 0.  0.
    9000005    1    3    3    0    0  0.35779099475E+02 -0.49791446695E+02 -0.37958659499E+02  0.72119289751E+02  0.10000000000E+01 0.  0.
    9000005    1    3    3    0    0 -0.35779099475E+02  0.49791446695E+02 -0.11966172845E+02  0.62478167513E+02  0.10000000000E+01 0.  0.
<mgrwt>
<rscale>  0 0.12499595E+03</rscale>
<asrwt>0</asrwt>
<pdfrwt beam="2">  1        4 0.14194022E-01 0.12499595E+03</pdfrwt>
<pdfrwt beam="1">  1       -4 0.65132789E-02 0.12499595E+03</pdfrwt>
<totfact> 0.10247499E+04</totfact>
</mgrwt>
</event>
<event>
 5    1  0.3309811E-002  0.1250018E+03  0.7818608E-02  0.1235067E+00
         -4   -1    0    0    0  501 -0.00000000000E+00  0.00000000000E+00  0.14199424768E+02  0.14256106191E+02  0.12700000000E+01 0. -1.
          4   -1    0    0  501    0  0.00000000000E+00 -0.00000000000E+00 -0.27450078840E+03  0.27450372626E+03  0.12700000000E+01 0. -1.
         25    2    1    2    0    0  0.00000000000E+00  0.00000000000E+00 -0.26030136363E+03  0.28875983245E+03  0.12500176371E+03 0.  0.
    9000005    1    3    3    0    0 -0.59046846528E+02 -0.89173165252E+01 -0.87598679330E+02  0.10602158855E+03  0.10000000000E+01 0.  0.
    9000005    1    3    3    0    0  0.59046846528E+02  0.89173165252E+01 -0.17270268430E+03  0.18273824390E+03  0.10000000000E+01 0.  0.
<mgrwt>
<rscale>  0 0.12500176E+03</rscale>
<asrwt>0</asrwt>
<pdfrwt beam="2">  1        4 0.42235473E-01 0.12500176E+03</pdfrwt>
<pdfrwt beam="1">  1       -4 0.21891132E-02 0.12500176E+03</pdfrwt>
<totfact> 0.77027753E+03</totfact>
</mgrwt>
</event>
<event>
 5    1  0.3309811E-002  0.1249998E+03  0.7818608E-02  0.1235070E+00
         -4   -1    0    0    0  501 -0.00000000000E+00  0.00000000000E+00  0.46719356985E+02  0.46736615379E+02  0.12700000000E+01 0. -1.
          4   -1    0    0  501    0  0.00000000000E+00 -0.00000000000E+00 -0.83573152089E+02  0.83582801163E+02  0.12700000000E+01 0. -1.
         25    2    1    2    0    0  0.00000000000E+00  0.00000000000E+00 -0.36853795105E+02  0.13031941654E+03  0.12499979246E+03 0.  0.
    9000005    1    3    3    0    0  0.16062714197E+02 -0.60363902226E+02 -0.20356487104E+02  0.65705388261E+02  0.10000000000E+01 0.  0.
    9000005    1    3    3    0    0 -0.16062714197E+02  0.60363902226E+02 -0.16497308001E+02  0.64614028280E+02  0.10000000000E+01 0.  0.
<mgrwt>
<rscale>  0 0.12499979E+03</rscale>
<asrwt>0</asrwt>
<pdfrwt beam="2">  1        4 0.12859478E-01 0.12499979E+03</pdfrwt>
<pdfrwt beam="1">  1       -4 0.71896632E-02 0.12499979E+03</pdfrwt>
<totfact> 0.10337728E+04</totfact>
</mgrwt>
</event>
<event>
 5    1  0.3309811E-002  0.1249993E+03  0.7818608E-02  0.1235070E+00
         -4   -1    0    0    0  501 -0.00000000000E+00  0.00000000000E+00  0.66918723348E+01  0.68113181797E+01  0.12700000000E+01 0. -1.
          4   -1    0    0  501    0  0.00000000000E+00 -0.00000000000E+00 -0.57844015329E+03  0.57844154747E+03  0.12700000000E+01 0. -1.
         25    2    1    2    0    0  0.00000000000E+00  0.00000000000E+00 -0.57174828095E+03  0.58525286565E+03  0.12499927990E+03 0.  0.
    9000005    1    3    3    0    0  0.11782222621E+02  0.29032980822E+02 -0.53902848036E+03  0.53993929046E+03  0.10000000000E+01 0.  0.
    9000005    1    3    3    0    0 -0.11782222621E+02 -0.29032980822E+02 -0.32719800598E+02  0.45313575190E+02  0.10000000000E+01 0.  0.
<mgrwt>
<rscale>  0 0.12499928E+03</rscale>
<asrwt>0</asrwt>
<pdfrwt beam="2">  1        4 0.89000049E-01 0.12499928E+03</pdfrwt>
<pdfrwt beam="1">  1       -4 0.10388147E-02 0.12499928E+03</pdfrwt>
<totfact> 0.49812725E+03</totfact>
</mgrwt>
</event>
<event>
 5    1  0.3309811E-002  0.1249994E+03  0.7818608E-02  0.1235070E+00
         -4   -1    0    0    0  501 -0.00000000000E+00  0.00000000000E+00  0.49190407340E+02  0.49206799066E+02  0.12700000000E+01 0.  1.
          4   -1    0    0  501    0  0.00000000000E+00 -0.00000000000E+00 -0.79375349819E+02  0.79385509124E+02  0.12700000000E+01 0.  1.
         25    2    1    2    0    0  0.00000000000E+00  0.00000000000E+00 -0.30184942479E+02  0.12859230819E+03  0.12499940389E+03 0.  0.
    9000005    1    3    3    0    0  0.28911966088E+02 -0.31803224146E+02 -0.61760083909E+02  0.75250613377E+02  0.10000000000E+01 0.  0.
    9000005    1    3    3    0    0 -0.28911966088E+02  0.31803224146E+02  0.31575141431E+02  0.53341694813E+02  0.10000000000E+01 0.  0.
<mgrwt>
<rscale>  0 0.12499940E+03</rscale>
<asrwt>0</asrwt>
<pdfrwt beam="2">  1        4 0.12213635E-01 0.12499940E+03</pdfrwt>
<pdfrwt beam="1">  1       -4 0.75697974E-02 0.12499940E+03</pdfrwt>
<totfact> 0.10374855E+04</totfact>
</mgrwt>
</event>
<event>
 5    1  0.3309811E-002  0.1250000E+03  0.7818608E-02  0.1235069E+00
          4   -1    0    0  501    0  0.00000000000E+00  0.00000000000E+00  0.21866578653E+03  0.21866947455E+03  0.12700000000E+01 0. -1.
         -4   -1    0    0    0  501 -0.00000000000E+00 -0.00000000000E+00 -0.17837593272E+02  0.17882746818E+02  0.12700000000E+01 0. -1.
         25    2    1    2    0    0  0.00000000000E+00  0.00000000000E+00  0.20082819326E+03  0.23655222136E+03  0.12499996090E+03 0.  0.
    9000005    1    3    3    0    0  0.14357972042E+02  0.39814306100E+02  0.18742248858E+03  0.19214452778E+03  0.10000000000E+01 0.  0.
    9000005    1    3    3    0    0 -0.14357972042E+02 -0.39814306100E+02  0.13405704678E+02  0.44407693583E+02  0.10000000000E+01 0.  0.
<mgrwt>
<rscale>  0 0.12499996E+03</rscale>
<asrwt>0</asrwt>
<pdfrwt beam="1">  1        4 0.33644647E-01 0.12499996E+03</pdfrwt>
<pdfrwt beam="2">  1       -4 0.27480022E-02 0.12499996E+03</pdfrwt>
<totfact> 0.84313620E+03</totfact>
</mgrwt>
</event>
<event>
 5    1  0.3309811E-002  0.1250024E+03  0.7818608E-02  0.1235066E+00
          4   -1    0    0  501    0  0.00000000000E+00  0.00000000000E+00  0.17133327871E+02  0.17180332475E+02  0.12700000000E+01 0.  1.
         -4   -1    0    0    0  501 -0.00000000000E+00 -0.00000000000E+00 -0.22763893435E+03  0.22764247699E+03  0.12700000000E+01 0.  1.
         25    2    1    2    0    0  0.00000000000E+00  0.00000000000E+00 -0.21050560647E+03  0.24482280946E+03  0.12500239069E+03 0.  0.
    9000005    1    3    3    0    0 -0.23747032864E+02  0.57352152657E+02 -0.91101256949E+02  0.11024350322E+03  0.10000000000E+01 0.  0.
    9000005    1    3    3    0    0  0.23747032864E+02 -0.57352152657E+02 -0.11940434952E+03  0.13457930625E+03  0.10000000000E+01 0.  0.
<mgrwt>
<rscale>  0 0.12500239E+03</rscale>
<asrwt>0</asrwt>
<pdfrwt beam="1">  1        4 0.26397850E-02 0.12500239E+03</pdfrwt>
<pdfrwt beam="2">  1       -4 0.35025261E-01 0.12500239E+03</pdfrwt>
<totfact> 0.83079873E+03</totfact>
</mgrwt>
</event>
<event>
 5    1  0.3309811E-002  0.1250016E+03  0.7818608E-02  0.1235067E+00
          4   -1    0    0  501    0  0.00000000000E+00  0.00000000000E+00  0.39555456584E+02  0.39575839164E+02  0.12700000000E+01 0.  1.
         -4   -1    0    0    0  501 -0.00000000000E+00 -0.00000000000E+00 -0.98706333825E+02  0.98714503682E+02  0.12700000000E+01 0.  1.
         25    2    1    2    0    0  0.00000000000E+00  0.00000000000E+00 -0.59150877241E+02  0.13829034285E+03  0.12500157057E+03 0.  0.
    9000005    1    3    3    0    0 -0.35303163138E+02  0.18978804946E+02  0.23467886041E+02  0.46456969767E+02  0.10000000000E+01 0.  0.
    9000005    1    3    3    0    0  0.35303163138E+02 -0.18978804946E+02 -0.82618763282E+02  0.91833373079E+02  0.10000000000E+01 0.  0.
<mgrwt>
<rscale>  0 0.12500157E+03</rscale>
<asrwt>0</asrwt>
<pdfrwt beam="1">  1        4 0.60876512E-02 0.12500157E+03</pdfrwt>
<pdfrwt beam="2">  1       -4 0.15187786E-01 0.12500157E+03</pdfrwt>
<totfact> 0.10168783E+04</totfact>
</mgrwt>
</event>
<event>
 5    1  0.3309811E-002  0.1249996E+03  0.7818608E-02  0.1235070E+00
         -4   -1    0    0    0  501 -0.00000000000E+00  0.00000000000E+00  0.12878625693E+02  0.12941093452E+02  0.12700000000E+01 0. -1.
          4   -1    0    0  501    0  0.00000000000E+00 -0.00000000000E+00 -0.30251296715E+03  0.30251563298E+03  0.12700000000E+01 0. -1.
         25    2    1    2    0    0  0.00000000000E+00  0.00000000000E+00 -0.28963434146E+03  0.31545672643E+03  0.12499957799E+03 0.  0.
    9000005    1    3    3    0    0  0.42286091114E+02  0.17712616510E+02 -0.25198737730E+03  0.25612592334E+03  0.10000000000E+01 0.  0.
    9000005    1    3    3    0    0 -0.42286091114E+02 -0.17712616510E+02 -0.37646964158E+02  0.59330803093E+02  0.10000000000E+01 0.  0.
<mgrwt>
<rscale>  0 0.12499958E+03</rscale>
<asrwt>0</asrwt>
<pdfrwt beam="2">  1        4 0.46545462E-01 0.12499958E+03</pdfrwt>
<pdfrwt beam="1">  1       -4 0.19863375E-02 0.12499958E+03</pdfrwt>
<totfact> 0.73700457E+03</totfact>
</mgrwt>
</event>
<event>
 5    1  0.3309811E-002  0.1250062E+03  0.7818608E-02  0.1235060E+00
         -4   -1    0    0    0  501 -0.00000000000E+00  0.00000000000E+00  0.23807378352E+02  0.23841228240E+02  0.12700000000E+01 0.  1.
          4   -1    0    0  501    0  0.00000000000E+00 -0.00000000000E+00 -0.16394063681E+03  0.16394555590E+03  0.12700000000E+01 0.  1.
         25    2    1    2    0    0  0.00000000000E+00  0.00000000000E+00 -0.14013325846E+03  0.18778678413E+03  0.12500618453E+03 0.  0.
    9000005    1    3    3    0    0  0.23115784760E+02  0.35962422427E+02 -0.13854547366E+03  0.14499477095E+03  0.10000000000E+01 0.  0.
    9000005    1    3    3    0    0 -0.23115784760E+02 -0.35962422427E+02 -0.15877848011E+01  0.42792013185E+02  0.10000000000E+01 0.  0.
<mgrwt>
<rscale>  0 0.12500618E+03</rscale>
<asrwt>0</asrwt>
<pdfrwt beam="2">  1        4 0.25224618E-01 0.12500618E+03</pdfrwt>
<pdfrwt beam="1">  1       -4 0.36656559E-02 0.12500618E+03</pdfrwt>
<totfact> 0.92221060E+03</totfact>
</mgrwt>
</event>
<event>
 5    1  0.3309811E-002  0.1250071E+03  0.7818608E-02  0.1235058E+00
         -4   -1    0    0    0  501 -0.00000000000E+00  0.00000000000E+00  0.12915366046E+04  0.12915372290E+04  0.12700000000E+01 0. -1.
          4   -1    0    0  501    0  0.00000000000E+00 -0.00000000000E+00 -0.28908846209E+01  0.31575487156E+01  0.12700000000E+01 0. -1.
         25    2    1    2    0    0  0.00000000000E+00  0.00000000000E+00  0.12886457200E+04  0.12946947777E+04  0.12500710321E+03 0.  0.
    9000005    1    3    3    0    0  0.23400902247E+02 -0.39080998502E+02  0.10874713537E+04  0.10884254094E+04  0.10000000000E+01 0.  0.
    9000005    1    3    3    0    0 -0.23400902247E+02  0.39080998502E+02  0.20117436631E+03  0.20626936837E+03  0.10000000000E+01 0.  0.
<mgrwt>
<rscale>  0 0.12500710E+03</rscale>
<asrwt>0</asrwt>
<pdfrwt beam="2">  1        4 0.46531256E-03 0.12500710E+03</pdfrwt>
<pdfrwt beam="1">  1       -4 0.19871832E+00 0.12500710E+03</pdfrwt>
<totfact> 0.22350636E+03</totfact>
</mgrwt>
</event>
<event>
 5    1  0.3309811E-002  0.1250003E+03  0.7818608E-02  0.1235069E+00
         -4   -1    0    0    0  501 -0.00000000000E+00  0.00000000000E+00  0.35420293147E+02  0.35443053856E+02  0.12700000000E+01 0.  1.
          4   -1    0    0  501    0  0.00000000000E+00 -0.00000000000E+00 -0.11022150412E+03  0.11022882051E+03  0.12700000000E+01 0.  1.
         25    2    1    2    0    0  0.00000000000E+00  0.00000000000E+00 -0.74801210977E+02  0.14567187437E+03  0.12500029527E+03 0.  0.
    9000005    1    3    3    0    0  0.13032342392E+02 -0.59170842435E+02 -0.19564777989E+02  0.63677398506E+02  0.10000000000E+01 0.  0.
    9000005    1    3    3    0    0 -0.13032342392E+02  0.59170842435E+02 -0.55236432988E+02  0.81994475862E+02  0.10000000000E+01 0.  0.
<mgrwt>
<rscale>  0 0.12500030E+03</rscale>
<asrwt>0</asrwt>
<pdfrwt beam="2">  1        4 0.16959468E-01 0.12500030E+03</pdfrwt>
<pdfrwt beam="1">  1       -4 0.54515895E-02 0.12500030E+03</pdfrwt>
<totfact> 0.10017289E+04</totfact>
</mgrwt>
</event>
<event>
 5    1  0.3309811E-002  0.1250029E+03  0.7818608E-02  0.1235065E+00
         -4   -1    0    0    0  501 -0.00000000000E+00  0.00000000000E+00  0.16340262120E+02  0.16389541364E+02  0.12700000000E+01 0.  1.
          4   -1    0    0  501    0  0.00000000000E+00 -0.00000000000E+00 -0.23865674834E+03  0.23866012743E+03  0.12700000000E+01 0.  1.
         25    2    1    2    0    0  0.00000000000E+00  0.00000000000E+00 -0.22231648622E+03  0.25504966880E+03  0.12500285401E+03 0.  0.
    9000005    1    3    3    0    0  0.58225555897E+02  0.22682891981E+02 -0.11286462710E+03  0.12901222035E+03  0.10000000000E+01 0.  0.
    9000005    1    3    3    0    0 -0.58225555897E+02 -0.22682891981E+02 -0.10945185911E+03  0.12603744845E+03  0.10000000000E+01 0.  0.
<mgrwt>
<rscale>  0 0.12500285E+03</rscale>
<asrwt>0</asrwt>
<pdfrwt beam="2">  1        4 0.36720471E-01 0.12500285E+03</pdfrwt>
<pdfrwt beam="1">  1       -4 0.25179373E-02 0.12500285E+03</pdfrwt>
<totfact> 0.81600643E+03</totfact>
</mgrwt>
</event>
<event>
 5    1  0.3309811E-002  0.1250315E+03  0.7818608E-02  0.1235020E+00
          4   -1    0    0  501    0  0.00000000000E+00  0.00000000000E+00  0.11204997211E+02  0.11276739888E+02  0.12700000000E+01 0.  1.
         -4   -1    0    0    0  501 -0.00000000000E+00 -0.00000000000E+00 -0.34760654674E+03  0.34760886674E+03  0.12700000000E+01 0.  1.
         25    2    1    2    0    0  0.00000000000E+00  0.00000000000E+00 -0.33640154953E+03  0.35888560663E+03  0.12503150051E+03 0.  0.
    9000005    1    3    3    0    0  0.30222520391E+02 -0.49225406922E+01 -0.11783535651E+02  0.32825049247E+02  0.10000000000E+01 0.  0.
    9000005    1    3    3    0    0 -0.30222520391E+02  0.49225406922E+01 -0.32461801388E+03  0.32606055738E+03  0.10000000000E+01 0.  0.
<mgrwt>
<rscale>  0 0.12503150E+03</rscale>
<asrwt>0</asrwt>
<pdfrwt beam="1">  1        4 0.17295431E-02 0.12503150E+03</pdfrwt>
<pdfrwt beam="2">  1       -4 0.53483619E-01 0.12503150E+03</pdfrwt>
<totfact> 0.68710082E+03</totfact>
</mgrwt>
</event>
<event>
 5    1  0.3309811E-002  0.1250042E+03  0.7818608E-02  0.1235063E+00
          4   -1    0    0  501    0  0.00000000000E+00  0.00000000000E+00  0.11346994964E+02  0.11417845450E+02  0.12700000000E+01 0.  1.
         -4   -1    0    0    0  501 -0.00000000000E+00 -0.00000000000E+00 -0.34313359854E+03  0.34313594878E+03  0.12700000000E+01 0.  1.
         25    2    1    2    0    0  0.00000000000E+00  0.00000000000E+00 -0.33178660357E+03  0.35455379423E+03  0.12500417070E+03 0.  0.
    9000005    1    3    3    0    0  0.40905083058E+02 -0.20466509066E+02 -0.28667614849E+03  0.29030383725E+03  0.10000000000E+01 0.  0.
    9000005    1    3    3    0    0 -0.40905083058E+02  0.20466509066E+02 -0.45110455089E+02  0.64249956978E+02  0.10000000000E+01 0.  0.
<mgrwt>
<rscale>  0 0.12500417E+03</rscale>
<asrwt>0</asrwt>
<pdfrwt beam="1">  1        4 0.17513226E-02 0.12500417E+03</pdfrwt>
<pdfrwt beam="2">  1       -4 0.52795407E-01 0.12500417E+03</pdfrwt>
<totfact> 0.69220087E+03</totfact>
</mgrwt>
</event>
<event>
 5    1  0.3309811E-002  0.1250015E+03  0.7818608E-02  0.1235067E+00
         -4   -1    0    0    0  501 -0.00000000000E+00  0.00000000000E+00  0.38665614471E+02  0.38686465882E+02  0.12700000000E+01 0.  1.
          4   -1    0    0  501    0  0.00000000000E+00 -0.00000000000E+00 -0.10097680509E+03  0.10098479126E+03  0.12700000000E+01 0.  1.
         25    2    1    2    0    0  0.00000000000E+00  0.00000000000E+00 -0.62311190615E+02  0.13967125714E+03  0.12500150237E+03 0.  0.
    9000005    1    3    3    0    0  0.51320737686E+02  0.32619856758E+02 -0.47249826065E+02  0.77015707714E+02  0.10000000000E+01 0.  0.
    9000005    1    3    3    0    0 -0.51320737686E+02 -0.32619856758E+02 -0.15061364550E+02  0.62655549425E+02  0.10000000000E+01 0.  0.
<mgrwt>
<rscale>  0 0.12500150E+03</rscale>
<asrwt>0</asrwt>
<pdfrwt beam="2">  1        4 0.15537111E-01 0.12500150E+03</pdfrwt>
<pdfrwt beam="1">  1       -4 0.59507744E-02 0.12500150E+03</pdfrwt>
<totfact> 0.10140060E+04</totfact>
</mgrwt>
</event>
<event>
 5    1  0.3309811E-002  0.1250024E+03  0.7818608E-02  0.1235065E+00
         -4   -1    0    0    0  501 -0.00000000000E+00  0.00000000000E+00  0.42243282511E+04  0.42243284420E+04  0.12700000000E+01 0. -1.
          4   -1    0    0  501    0  0.00000000000E+00 -0.00000000000E+00 -0.48841657161E+00  0.13606802517E+01  0.12700000000E+01 0. -1.
         25    2    1    2    0    0  0.00000000000E+00  0.00000000000E+00  0.42238398345E+04  0.42256891223E+04  0.12500244085E+03 0.  0.
    9000005    1    3    3    0    0  0.85162608051E+00  0.29636124830E+02  0.25222976119E+03  0.25396826099E+03  0.10000000000E+01 0.  0.
    9000005    1    3    3    0    0 -0.85162608051E+00 -0.29636124830E+02  0.39716100733E+04  0.39717208613E+04  0.10000000000E+01 0.  0.
<mgrwt>
<rscale>  0 0.12500244E+03</rscale>
<asrwt>0</asrwt>
<pdfrwt beam="2">  1        4 0.14224988E-03 0.12500244E+03</pdfrwt>
<pdfrwt beam="1">  1       -4 0.64997760E+00 0.12500244E+03</pdfrwt>
<totfact> 0.80505777E+00</totfact>
</mgrwt>
</event>
<event>
 5    1  0.3309811E-002  0.1250008E+03  0.7818608E-02  0.1235068E+00
          4   -1    0    0  501    0  0.00000000000E+00  0.00000000000E+00  0.62465281058E+03  0.62465410162E+03  0.12700000000E+01 0. -1.
         -4   -1    0    0    0  501 -0.00000000000E+00 -0.00000000000E+00 -0.61877613193E+01  0.63167468008E+01  0.12700000000E+01 0. -1.
         25    2    1    2    0    0  0.00000000000E+00  0.00000000000E+00  0.61846504926E+03  0.63097084842E+03  0.12500077758E+03 0.  0.
    9000005    1    3    3    0    0 -0.60056381808E+02 -0.15946775372E+02  0.34280279538E+03  0.34839033448E+03  0.10000000000E+01 0.  0.
    9000005    1    3    3    0    0  0.60056381808E+02  0.15946775372E+02  0.27566225389E+03  0.28258051394E+03  0.10000000000E+01 0.  0.
<mgrwt>
<rscale>  0 0.12500078E+03</rscale>
<asrwt>0</asrwt>
<pdfrwt beam="1">  1        4 0.96110458E-01 0.12500078E+03</pdfrwt>
<pdfrwt beam="2">  1       -4 0.96198451E-03 0.12500078E+03</pdfrwt>
<totfact> 0.46968433E+03</totfact>
</mgrwt>
</event>
<event>
 5    1  0.3309811E-002  0.1250000E+03  0.7818608E-02  0.1235069E+00
          4   -1    0    0  501    0  0.00000000000E+00  0.00000000000E+00  0.53114991737E+03  0.53115143568E+03  0.12700000000E+01 0. -1.
         -4   -1    0    0    0  501 -0.00000000000E+00 -0.00000000000E+00 -0.72979588581E+01  0.74076381860E+01  0.12700000000E+01 0. -1.
         25    2    1    2    0    0  0.00000000000E+00  0.00000000000E+00  0.52385195852E+03  0.53855907387E+03  0.12500000642E+03 0.  0.
    9000005    1    3    3    0    0 -0.12086439988E+02  0.58961881366E+02  0.18948917778E+03  0.19882085902E+03  0.10000000000E+01 0.  0.
    9000005    1    3    3    0    0  0.12086439988E+02 -0.58961881366E+02  0.33436278074E+03  0.33973821485E+03  0.10000000000E+01 0.  0.
<mgrwt>
<rscale>  0 0.12500001E+03</rscale>
<asrwt>0</asrwt>
<pdfrwt beam="1">  1        4 0.81723929E-01 0.12500001E+03</pdfrwt>
<pdfrwt beam="2">  1       -4 0.11313165E-02 0.12500001E+03</pdfrwt>
<totfact> 0.52992030E+03</totfact>
</mgrwt>
</event>
<event>
 5    1  0.3309811E-002  0.1249995E+03  0.7818608E-02  0.1235070E+00
         -4   -1    0    0    0  501 -0.00000000000E+00  0.00000000000E+00  0.40408426661E+02  0.40428379205E+02  0.12700000000E+01 0.  1.
          4   -1    0    0  501    0  0.00000000000E+00 -0.00000000000E+00 -0.96620402545E+02  0.96628748766E+02  0.12700000000E+01 0.  1.
         25    2    1    2    0    0  0.00000000000E+00  0.00000000000E+00 -0.56211975885E+02  0.13705712797E+03  0.12499948038E+03 0.  0.
    9000005    1    3    3    0    0 -0.68760321599E+01 -0.46730087751E+02  0.16758409129E+02  0.50128087895E+02  0.10000000000E+01 0.  0.
    9000005    1    3    3    0    0  0.68760321599E+01  0.46730087751E+02 -0.72970385014E+02  0.86929040076E+02  0.10000000000E+01 0.  0.
<mgrwt>
<rscale>  0 0.12499948E+03</rscale>
<asrwt>0</asrwt>
<pdfrwt beam="2">  1        4 0.14866854E-01 0.12499948E+03</pdfrwt>
<pdfrwt beam="1">  1       -4 0.62188579E-02 0.12499948E+03</pdfrwt>
<totfact> 0.10195011E+04</totfact>
</mgrwt>
</event>
<event>
 5    1  0.3309811E-002  0.1250018E+03  0.7818608E-02  0.1235066E+00
         -4   -1    0    0    0  501 -0.00000000000E+00  0.00000000000E+00  0.63869966540E+02  0.63882591727E+02  0.12700000000E+01 0. -1.
          4   -1    0    0  501    0  0.00000000000E+00 -0.00000000000E+00 -0.61135957956E+02  0.61149147624E+02  0.12700000000E+01 0. -1.
         25    2    1    2    0    0  0.00000000000E+00  0.00000000000E+00  0.27340085841E+01  0.12503173935E+03  0.12500184416E+03 0.  0.
    9000005    1    3    3    0    0  0.57422924346E+02  0.24313382392E+02  0.54707232159E+01  0.62605603713E+02  0.10000000000E+01 0.  0.
    9000005    1    3    3    0    0 -0.57422924346E+02 -0.24313382392E+02 -0.27367146318E+01  0.62426135638E+02  0.10000000000E+01 0.  0.
<mgrwt>
<rscale>  0 0.12500184E+03</rscale>
<asrwt>0</asrwt>
<pdfrwt beam="2">  1        4 0.94075177E-02 0.12500184E+03</pdfrwt>
<pdfrwt beam="1">  1       -4 0.98281345E-02 0.12500184E+03</pdfrwt>
<totfact> 0.10451738E+04</totfact>
</mgrwt>
</event>
<event>
 5    1  0.3309811E-002  0.1249965E+03  0.7818608E-02  0.1235075E+00
          4   -1    0    0  501    0  0.00000000000E+00  0.00000000000E+00  0.38577641685E+02  0.38598540620E+02  0.12700000000E+01 0. -1.
         -4   -1    0    0    0  501 -0.00000000000E+00 -0.00000000000E+00 -0.10119889362E+03  0.10120686227E+03  0.12700000000E+01 0. -1.
         25    2    1    2    0    0  0.00000000000E+00  0.00000000000E+00 -0.62621251939E+02  0.13980540289E+03  0.12499651788E+03 0.  0.
    9000005    1    3    3    0    0  0.30432770595E+02  0.21175009043E+02  0.24953169524E+02  0.44701176756E+02  0.10000000000E+01 0.  0.
    9000005    1    3    3    0    0 -0.30432770595E+02 -0.21175009043E+02 -0.87574421463E+02  0.95104226135E+02  0.10000000000E+01 0.  0.
<mgrwt>
<rscale>  0 0.12499652E+03</rscale>
<asrwt>0</asrwt>
<pdfrwt beam="1">  1        4 0.59372424E-02 0.12499652E+03</pdfrwt>
<pdfrwt beam="2">  1       -4 0.15571281E-01 0.12499652E+03</pdfrwt>
<totfact> 0.10138416E+04</totfact>
</mgrwt>
</event>
<event>
 5    1  0.3309811E-002  0.1250498E+03  0.7818608E-02  0.1234991E+00
          4   -1    0    0  501    0  0.00000000000E+00  0.00000000000E+00  0.72152512193E+01  0.73261688595E+01  0.12700000000E+01 0. -1.
         -4   -1    0    0    0  501 -0.00000000000E+00 -0.00000000000E+00 -0.53757479875E+03  0.53757629891E+03  0.12700000000E+01 0. -1.
         25    2    1    2    0    0  0.00000000000E+00  0.00000000000E+00 -0.53035954753E+03  0.54490246777E+03  0.12504978899E+03 0.  0.
    9000005    1    3    3    0    0 -0.28884734085E+02 -0.85035328175E+00 -0.23611942823E+02  0.37330614885E+02  0.10000000000E+01 0.  0.
    9000005    1    3    3    0    0  0.28884734085E+02  0.85035328175E+00 -0.50674760471E+03  0.50757185288E+03  0.10000000000E+01 0.  0.
<mgrwt>
<rscale>  0 0.12504979E+03</rscale>
<asrwt>0</asrwt>
<pdfrwt beam="1">  1        4 0.11186866E-02 0.12504979E+03</pdfrwt>
<pdfrwt beam="2">  1       -4 0.82712432E-01 0.12504979E+03</pdfrwt>
<totfact> 0.52483988E+03</totfact>
</mgrwt>
</event>
<event>
 5    1  0.3309811E-002  0.1250001E+03  0.7818608E-02  0.1235069E+00
          4   -1    0    0  501    0  0.00000000000E+00  0.00000000000E+00  0.68331414447E+03  0.68331532467E+03  0.12700000000E+01 0.  1.
         -4   -1    0    0    0  501 -0.00000000000E+00 -0.00000000000E+00 -0.56448974852E+01  0.57859975474E+01  0.12700000000E+01 0.  1.
         25    2    1    2    0    0  0.00000000000E+00  0.00000000000E+00  0.67766924698E+03  0.68910132222E+03  0.12500009591E+03 0.  0.
    9000005    1    3    3    0    0 -0.48075014347E+02 -0.34142281667E+02  0.45293154946E+03  0.45675473823E+03  0.10000000000E+01 0.  0.
    9000005    1    3    3    0    0  0.48075014347E+02  0.34142281667E+02  0.22473769753E+03  0.23234658399E+03  0.10000000000E+01 0.  0.
<mgrwt>
<rscale>  0 0.12500010E+03</rscale>
<asrwt>0</asrwt>
<pdfrwt beam="1">  1        4 0.10513617E+00 0.12500010E+03</pdfrwt>
<pdfrwt beam="2">  1       -4 0.87939061E-03 0.12500010E+03</pdfrwt>
<totfact> 0.43668212E+03</totfact>
</mgrwt>
</event>
<event>
 5    1  0.3309811E-002  0.1249888E+03  0.7818608E-02  0.1235087E+00
         -4   -1    0    0    0  501 -0.00000000000E+00  0.00000000000E+00  0.10232447206E+03  0.10233235306E+03  0.12700000000E+01 0. -1.
          4   -1    0    0  501    0  0.00000000000E+00 -0.00000000000E+00 -0.38148365845E+02  0.38169499821E+02  0.12700000000E+01 0. -1.
         25    2    1    2    0    0  0.00000000000E+00  0.00000000000E+00  0.64176106213E+02  0.14050185288E+03  0.12498879171E+03 0.  0.
    9000005    1    3    3    0    0 -0.50117036457E+02  0.34936985805E+02  0.17335167569E+02  0.63512348051E+02  0.10000000000E+01 0.  0.
    9000005    1    3    3    0    0  0.50117036457E+02 -0.34936985805E+02  0.46840938645E+02  0.76989504826E+02  0.10000000000E+01 0.  0.
<mgrwt>
<rscale>  0 0.12498879E+03</rscale>
<asrwt>0</asrwt>
<pdfrwt beam="2">  1        4 0.58712113E-02 0.12498879E+03</pdfrwt>
<pdfrwt beam="1">  1       -4 0.15744458E-01 0.12498879E+03</pdfrwt>
<totfact> 0.10125752E+04</totfact>
</mgrwt>
</event>
<event>
 5    1  0.3309811E-002  0.1250044E+03  0.7818608E-02  0.1235062E+00
          4   -1    0    0  501    0  0.00000000000E+00  0.00000000000E+00  0.19815975766E+01  0.23536416370E+01  0.12700000000E+01 0. -1.
         -4   -1    0    0    0  501 -0.00000000000E+00 -0.00000000000E+00 -0.18018462874E+04  0.18018467350E+04  0.12700000000E+01 0. -1.
         25    2    1    2    0    0  0.00000000000E+00  0.00000000000E+00 -0.17998646898E+04  0.18042003766E+04  0.12500438901E+03 0.  0.
    9000005    1    3    3    0    0 -0.33580730847E+02 -0.50560810345E+02 -0.11147205268E+04  0.11163722112E+04  0.10000000000E+01 0.  0.
    9000005    1    3    3    0    0  0.33580730847E+02  0.50560810345E+02 -0.68514416299E+03  0.68782816539E+03  0.10000000000E+01 0.  0.
<mgrwt>
<rscale>  0 0.12500439E+03</rscale>
<asrwt>0</asrwt>
<pdfrwt beam="1">  1        4 0.33351581E-03 0.12500439E+03</pdfrwt>
<pdfrwt beam="2">  1       -4 0.27723458E+00 0.12500439E+03</pdfrwt>
<totfact> 0.12637790E+03</totfact>
</mgrwt>
</event>
<event>
 5    1  0.3309811E-002  0.1250005E+03  0.7818608E-02  0.1235068E+00
          4   -1    0    0  501    0  0.00000000000E+00  0.00000000000E+00  0.13566441867E+02  0.13625756674E+02  0.12700000000E+01 0.  1.
         -4   -1    0    0    0  501 -0.00000000000E+00 -0.00000000000E+00 -0.28724838859E+03  0.28725119608E+03  0.12700000000E+01 0.  1.
         25    2    1    2    0    0  0.00000000000E+00  0.00000000000E+00 -0.27368194672E+03  0.30087695275E+03  0.12500053094E+03 0.  0.
    9000005    1    3    3    0    0 -0.34813981983E+02  0.23343177998E+02 -0.24840680003E+03  0.25192033582E+03  0.10000000000E+01 0.  0.
    9000005    1    3    3    0    0  0.34813981983E+02 -0.23343177998E+02 -0.25275146693E+02  0.48956616927E+02  0.10000000000E+01 0.  0.
<mgrwt>
<rscale>  0 0.12500053E+03</rscale>
<asrwt>0</asrwt>
<pdfrwt beam="1">  1        4 0.20919238E-02 0.12500053E+03</pdfrwt>
<pdfrwt beam="2">  1       -4 0.44196834E-01 0.12500053E+03</pdfrwt>
<totfact> 0.75488079E+03</totfact>
</mgrwt>
</event>
<event>
 5    1  0.3309811E-002  0.1249998E+03  0.7818608E-02  0.1235070E+00
         -4   -1    0    0    0  501 -0.00000000000E+00  0.00000000000E+00  0.76221602078E+02  0.76232181678E+02  0.12700000000E+01 0.  1.
          4   -1    0    0  501    0  0.00000000000E+00 -0.00000000000E+00 -0.51226395103E+02  0.51242135546E+02  0.12700000000E+01 0.  1.
         25    2    1    2    0    0  0.00000000000E+00  0.00000000000E+00  0.24995206975E+02  0.12747431722E+03  0.12499976472E+03 0.  0.
    9000005    1    3    3    0    0  0.56606842732E+02 -0.14824940442E+02 -0.98711103165E+01  0.59351093689E+02  0.10000000000E+01 0.  0.
    9000005    1    3    3    0    0 -0.56606842732E+02  0.14824940442E+02  0.34866317291E+02  0.68123223534E+02  0.10000000000E+01 0.  0.
<mgrwt>
<rscale>  0 0.12499976E+03</rscale>
<asrwt>0</asrwt>
<pdfrwt beam="2">  1        4 0.78830085E-02 0.12499976E+03</pdfrwt>
<pdfrwt beam="1">  1       -4 0.11728425E-01 0.12499976E+03</pdfrwt>
<totfact> 0.10398912E+04</totfact>
</mgrwt>
</event>
<event>
 5    1  0.3309811E-002  0.1249991E+03  0.7818608E-02  0.1235071E+00
         -4   -1    0    0    0  501 -0.00000000000E+00  0.00000000000E+00  0.14546714576E+04  0.14546720120E+04  0.12700000000E+01 0.  1.
          4   -1    0    0  501    0  0.00000000000E+00 -0.00000000000E+00 -0.25345298898E+01  0.28349147716E+01  0.12700000000E+01 0.  1.
         25    2    1    2    0    0  0.00000000000E+00  0.00000000000E+00  0.14521369277E+04  0.14575069268E+04  0.12499913891E+03 0.  0.
    9000005    1    3    3    0    0  0.95269447988E+01 -0.61142632613E+02  0.62440974455E+03  0.62746929271E+03  0.10000000000E+01 0.  0.
    9000005    1    3    3    0    0 -0.95269447988E+01  0.61142632613E+02  0.82772718317E+03  0.83003763407E+03  0.10000000000E+01 0.  0.
<mgrwt>
<rscale>  0 0.12499914E+03</rscale>
<asrwt>0</asrwt>
<pdfrwt beam="2">  1        4 0.41307758E-03 0.12499914E+03</pdfrwt>
<pdfrwt beam="1">  1       -4 0.22381836E+00 0.12499914E+03</pdfrwt>
<totfact> 0.18779906E+03</totfact>
</mgrwt>
</event>
<event>
 5    1  0.3309811E-002  0.1250498E+03  0.7818608E-02  0.1234991E+00
         -4   -1    0    0    0  501 -0.00000000000E+00  0.00000000000E+00  0.16564232371E+03  0.16564719226E+03  0.12700000000E+01 0.  1.
          4   -1    0    0  501    0  0.00000000000E+00 -0.00000000000E+00 -0.23578928351E+02  0.23613105729E+02  0.12700000000E+01 0.  1.
         25    2    1    2    0    0  0.00000000000E+00  0.00000000000E+00  0.14206339536E+03  0.18926029799E+03  0.12504979846E+03 0.  0.
    9000005    1    3    3    0    0  0.36348774680E+01  0.13055943072E+02  0.16339974596E+03  0.16396385871E+03  0.10000000000E+01 0.  0.
    9000005    1    3    3    0    0 -0.36348774680E+01 -0.13055943072E+02 -0.21336350596E+02  0.25296439284E+02  0.10000000000E+01 0.  0.
<mgrwt>
<rscale>  0 0.12504980E+03</rscale>
<asrwt>0</asrwt>
<pdfrwt beam="2">  1        4 0.36305308E-02 0.12504980E+03</pdfrwt>
<pdfrwt beam="1">  1       -4 0.25486439E-01 0.12504980E+03</pdfrwt>
<totfact> 0.91873649E+03</totfact>
</mgrwt>
</event>
<event>
 5    1  0.3309811E-002  0.1250152E+03  0.7818608E-02  0.1235046E+00
          4   -1    0    0  501    0  0.00000000000E+00  0.00000000000E+00  0.99898812661E+01  0.10070284391E+02  0.12700000000E+01 0.  1.
         -4   -1    0    0    0  501 -0.00000000000E+00 -0.00000000000E+00 -0.38946668998E+03  0.38946876063E+03  0.12700000000E+01 0.  1.
         25    2    1    2    0    0  0.00000000000E+00  0.00000000000E+00 -0.37947680872E+03  0.39953904502E+03  0.12501519964E+03 0.  0.
    9000005    1    3    3    0    0 -0.16447884509E+02  0.59512331738E+02 -0.22071571058E+03  0.22919135112E+03  0.10000000000E+01 0.  0.
    9000005    1    3    3    0    0  0.16447884509E+02 -0.59512331738E+02 -0.15876109814E+03  0.17034769390E+03  0.10000000000E+01 0.  0.
<mgrwt>
<rscale>  0 0.12501520E+03</rscale>
<asrwt>0</asrwt>
<pdfrwt beam="1">  1        4 0.15432492E-02 0.12501520E+03</pdfrwt>
<pdfrwt beam="2">  1       -4 0.59924285E-01 0.12501520E+03</pdfrwt>
<totfact> 0.64575979E+03</totfact>
</mgrwt>
</event>
<event>
 5    1  0.3309811E-002  0.1249988E+03  0.7818608E-02  0.1235071E+00
         -4   -1    0    0    0  501 -0.00000000000E+00  0.00000000000E+00  0.29192228533E+02  0.29219840977E+02  0.12700000000E+01 0. -1.
          4   -1    0    0  501    0  0.00000000000E+00 -0.00000000000E+00 -0.13371492910E+03  0.13372096008E+03  0.12700000000E+01 0. -1.
         25    2    1    2    0    0  0.00000000000E+00  0.00000000000E+00 -0.10452270056E+03  0.16294080105E+03  0.12499883885E+03 0.  0.
    9000005    1    3    3    0    0  0.46055199027E+02 -0.38833735761E+02 -0.30603888953E+02  0.67577647263E+02  0.10000000000E+01 0.  0.
    9000005    1    3    3    0    0 -0.46055199027E+02  0.38833735761E+02 -0.73918811611E+02  0.95363153789E+02  0.10000000000E+01 0.  0.
<mgrwt>
<rscale>  0 0.12499884E+03</rscale>
<asrwt>0</asrwt>
<pdfrwt beam="2">  1        4 0.20574115E-01 0.12499884E+03</pdfrwt>
<pdfrwt beam="1">  1       -4 0.44937001E-02 0.12499884E+03</pdfrwt>
<totfact> 0.96781324E+03</totfact>
</mgrwt>
</event>
<event>
 5    1  0.3309811E-002  0.1250016E+03  0.7818608E-02  0.1235067E+00
          4   -1    0    0  501    0  0.00000000000E+00  0.00000000000E+00  0.67896442355E+01  0.69073995718E+01  0.12700000000E+01 0. -1.
         -4   -1    0    0    0  501 -0.00000000000E+00 -0.00000000000E+00 -0.57027433967E+03  0.57027575382E+03  0.12700000000E+01 0. -1.
         25    2    1    2    0    0  0.00000000000E+00  0.00000000000E+00 -0.56348469544E+03  0.57718315339E+03  0.12500156224E+03 0.  0.
    9000005    1    3    3    0    0  0.37900488015E+02 -0.25235931998E+02 -0.47937862985E+03  0.48153729867E+03  0.10000000000E+01 0.  0.
    9000005    1    3    3    0    0 -0.37900488015E+02  0.25235931998E+02 -0.84106065588E+02  0.95645854715E+02  0.10000000000E+01 0.  0.
<mgrwt>
<rscale>  0 0.12500156E+03</rscale>
<asrwt>0</asrwt>
<pdfrwt beam="1">  1        4 0.10537280E-02 0.12500156E+03</pdfrwt>
<pdfrwt beam="2">  1       -4 0.87743643E-01 0.12500156E+03</pdfrwt>
<totfact> 0.50338584E+03</totfact>
</mgrwt>
</event>
<event>
 5    1  0.3309811E-002  0.1250007E+03  0.7818608E-02  0.1235068E+00
          4   -1    0    0  501    0  0.00000000000E+00  0.00000000000E+00  0.16224721812E+03  0.16225218854E+03  0.12700000000E+01 0. -1.
         -4   -1    0    0    0  501 -0.00000000000E+00 -0.00000000000E+00 -0.24054074532E+02  0.24087577744E+02  0.12700000000E+01 0. -1.
         25    2    1    2    0    0  0.00000000000E+00  0.00000000000E+00  0.13819314358E+03  0.18633976628E+03  0.12500065426E+03 0.  0.
    9000005    1    3    3    0    0  0.28581698953E+01  0.29562046743E+02  0.15106133965E+03  0.15395652659E+03  0.10000000000E+01 0.  0.
    9000005    1    3    3    0    0 -0.28581698953E+01 -0.29562046743E+02 -0.12868196070E+02  0.32383239691E+02  0.10000000000E+01 0.  0.
<mgrwt>
<rscale>  0 0.12500065E+03</rscale>
<asrwt>0</asrwt>
<pdfrwt beam="1">  1        4 0.24964070E-01 0.12500065E+03</pdfrwt>
<pdfrwt beam="2">  1       -4 0.37035863E-02 0.12500065E+03</pdfrwt>
<totfact> 0.92486756E+03</totfact>
</mgrwt>
</event>
<event>
 5    1  0.3309811E-002  0.1249956E+03  0.7818608E-02  0.1235076E+00
         -4   -1    0    0    0  501 -0.00000000000E+00  0.00000000000E+00  0.51052411833E+03  0.51052569797E+03  0.12700000000E+01 0. -1.
          4   -1    0    0  501    0  0.00000000000E+00 -0.00000000000E+00 -0.75966032725E+01  0.77020309841E+01  0.12700000000E+01 0. -1.
         25    2    1    2    0    0  0.00000000000E+00  0.00000000000E+00  0.50292751505E+03  0.51822772896E+03  0.12499557458E+03 0.  0.
    9000005    1    3    3    0    0 -0.31060543321E+02  0.22888787768E+02  0.47664223995E+02  0.61331331356E+02  0.10000000000E+01 0.  0.
    9000005    1    3    3    0    0  0.31060543321E+02 -0.22888787768E+02  0.45526329106E+03  0.45689639760E+03  0.10000000000E+01 0.  0.
<mgrwt>
<rscale>  0 0.12499557E+03</rscale>
<asrwt>0</asrwt>
<pdfrwt beam="2">  1        4 0.11769391E-02 0.12499557E+03</pdfrwt>
<pdfrwt beam="1">  1       -4 0.78550430E-01 0.12499557E+03</pdfrwt>
<totfact> 0.54482628E+03</totfact>
</mgrwt>
</event>
<event>
 5    1  0.3309811E-002  0.1249985E+03  0.7818608E-02  0.1235072E+00
         -4   -1    0    0    0  501 -0.00000000000E+00  0.00000000000E+00  0.37897959824E+02  0.37919233363E+02  0.12700000000E+01 0.  1.
          4   -1    0    0  501    0  0.00000000000E+00 -0.00000000000E+00 -0.10301627069E+03  0.10302409877E+03  0.12700000000E+01 0.  1.
         25    2    1    2    0    0  0.00000000000E+00  0.00000000000E+00 -0.65118310870E+02  0.14094333213E+03  0.12499851384E+03 0.  0.
    9000005    1    3    3    0    0 -0.53452294362E+01 -0.20971737626E+02  0.33542911105E+02  0.39931342855E+02  0.10000000000E+01 0.  0.
    9000005    1    3    3    0    0  0.53452294362E+01  0.20971737626E+02 -0.98661221974E+02  0.10101198928E+03  0.10000000000E+01 0.  0.
<mgrwt>
<rscale>  0 0.12499851E+03</rscale>
<asrwt>0</asrwt>
<pdfrwt beam="2">  1        4 0.15850895E-01 0.12499851E+03</pdfrwt>
<pdfrwt beam="1">  1       -4 0.58326940E-02 0.12499851E+03</pdfrwt>
<totfact> 0.10114411E+04</totfact>
</mgrwt>
</event>
<event>
 5    1  0.3309811E-002  0.1249928E+03  0.7818608E-02  0.1235081E+00
          4   -1    0    0  501    0  0.00000000000E+00  0.00000000000E+00  0.36281354050E+01  0.38439909621E+01  0.12700000000E+01 0.  1.
         -4   -1    0    0    0  501 -0.00000000000E+00 -0.00000000000E+00 -0.10452160455E+04  0.10452168171E+04  0.12700000000E+01 0.  1.
         25    2    1    2    0    0  0.00000000000E+00  0.00000000000E+00 -0.10415879101E+04  0.10490608080E+04  0.12499281770E+03 0.  0.
    9000005    1    3    3    0    0  0.60582307426E+02 -0.10177076571E+02 -0.61686036724E+03  0.61991249506E+03  0.10000000000E+01 0.  0.
    9000005    1    3    3    0    0 -0.60582307426E+02  0.10177076571E+02 -0.42472754286E+03  0.42914831297E+03  0.10000000000E+01 0.  0.
<mgrwt>
<rscale>  0 0.12499282E+03</rscale>
<asrwt>0</asrwt>
<pdfrwt beam="1">  1        4 0.57483914E-03 0.12499282E+03</pdfrwt>
<pdfrwt beam="2">  1       -4 0.16081890E+00 0.12499282E+03</pdfrwt>
<totfact> 0.29028704E+03</totfact>
</mgrwt>
</event>
<event>
 5    1  0.3309811E-002  0.1250025E+03  0.7818608E-02  0.1235065E+00
         -4   -1    0    0    0  501 -0.00000000000E+00  0.00000000000E+00  0.60064753437E+03  0.60064887700E+03  0.12700000000E+01 0. -1.
          4   -1    0    0  501    0  0.00000000000E+00 -0.00000000000E+00 -0.64402999838E+01  0.65643250895E+01  0.12700000000E+01 0. -1.
         25    2    1    2    0    0  0.00000000000E+00  0.00000000000E+00  0.59420723438E+03  0.60721320209E+03  0.12500254157E+03 0.  0.
    9000005    1    3    3    0    0 -0.45661956291E+02 -0.34612782456E+02  0.41828605087E+03  0.42219341458E+03  0.10000000000E+01 0.  0.
    9000005    1    3    3    0    0  0.45661956291E+02  0.34612782456E+02  0.17592118352E+03  0.18501978751E+03  0.10000000000E+01 0.  0.
<mgrwt>
<rscale>  0 0.12500254E+03</rscale>
<asrwt>0</asrwt>
<pdfrwt beam="2">  1        4 0.10004591E-02 0.12500254E+03</pdfrwt>
<pdfrwt beam="1">  1       -4 0.92416949E-01 0.12500254E+03</pdfrwt>
<totfact> 0.48412740E+03</totfact>
</mgrwt>
</event>
<event>
 5    1  0.3309811E-002  0.1249973E+03  0.7818608E-02  0.1235073E+00
         -4   -1    0    0    0  501 -0.00000000000E+00  0.00000000000E+00  0.22197390857E+03  0.22197754163E+03  0.12700000000E+01 0.  1.
          4   -1    0    0  501    0  0.00000000000E+00 -0.00000000000E+00 -0.17570332628E+02  0.17616171225E+02  0.12700000000E+01 0.  1.
         25    2    1    2    0    0  0.00000000000E+00  0.00000000000E+00  0.20440357595E+03  0.23959371285E+03  0.12499730149E+03 0.  0.
    9000005    1    3    3    0    0  0.79192998554E+01  0.51864856238E+02  0.37132370613E+02  0.64284458231E+02  0.10000000000E+01 0.  0.
    9000005    1    3    3    0    0 -0.79192998554E+01 -0.51864856238E+02  0.16727120533E+03  0.17530925462E+03  0.10000000000E+01 0.  0.
<mgrwt>
<rscale>  0 0.12499730E+03</rscale>
<asrwt>0</asrwt>
<pdfrwt beam="2">  1        4 0.27069335E-02 0.12499730E+03</pdfrwt>
<pdfrwt beam="1">  1       -4 0.34153639E-01 0.12499730E+03</pdfrwt>
<totfact> 0.83862957E+03</totfact>
</mgrwt>
</event>
<event>
 5    1  0.3309811E-002  0.1250000E+03  0.7818608E-02  0.1235069E+00
          4   -1    0    0  501    0  0.00000000000E+00  0.00000000000E+00  0.21593089167E+02  0.21630404522E+02  0.12700000000E+01 0. -1.
         -4   -1    0    0    0  501 -0.00000000000E+00 -0.00000000000E+00 -0.18070692471E+03  0.18071138740E+03  0.12700000000E+01 0. -1.
         25    2    1    2    0    0  0.00000000000E+00  0.00000000000E+00 -0.15911383554E+03  0.20234179192E+03  0.12499995240E+03 0.  0.
    9000005    1    3    3    0    0 -0.42540593691E+02  0.36987770455E+02 -0.12321626555E+03  0.13550293492E+03  0.10000000000E+01 0.  0.
    9000005    1    3    3    0    0  0.42540593691E+02 -0.36987770455E+02 -0.35897569984E+02  0.66838857004E+02  0.10000000000E+01 0.  0.
<mgrwt>
<rscale>  0 0.12499995E+03</rscale>
<asrwt>0</asrwt>
<pdfrwt beam="1">  1        4 0.33252275E-02 0.12499995E+03</pdfrwt>
<pdfrwt beam="2">  1       -4 0.27804278E-01 0.12499995E+03</pdfrwt>
<totfact> 0.89742138E+03</totfact>
</mgrwt>
</event>
<event>
 5    1  0.3309811E-002  0.1249904E+03  0.7818608E-02  0.1235084E+00
         -4   -1    0    0    0  501 -0.00000000000E+00  0.00000000000E+00  0.25859570161E+02  0.25890737126E+02  0.12700000000E+01 0. -1.
          4   -1    0    0  501    0  0.00000000000E+00 -0.00000000000E+00 -0.15090831334E+03  0.15091365722E+03  0.12700000000E+01 0. -1.
         25    2    1    2    0    0  0.00000000000E+00  0.00000000000E+00 -0.12504874318E+03  0.17680439434E+03  0.12499042239E+03 0.  0.
    9000005    1    3    3    0    0  0.52109294935E+02  0.35640979291E+01 -0.14003878441E+02  0.54085025876E+02  0.10000000000E+01 0.  0.
    9000005    1    3    3    0    0 -0.52109294935E+02 -0.35640979291E+01 -0.11104486474E+03  0.12271936847E+03  0.10000000000E+01 0.  0.
<mgrwt>
<rscale>  0 0.12499042E+03</rscale>
<asrwt>0</asrwt>
<pdfrwt beam="2">  1        4 0.23219472E-01 0.12499042E+03</pdfrwt>
<pdfrwt beam="1">  1       -4 0.39812040E-02 0.12499042E+03</pdfrwt>
<totfact> 0.94215643E+03</totfact>
</mgrwt>
</event>
<event>
 5    1  0.3309811E-002  0.1249993E+03  0.7818608E-02  0.1235070E+00
          4   -1    0    0  501    0  0.00000000000E+00  0.00000000000E+00  0.77446061570E+02  0.77456473924E+02  0.12700000000E+01 0. -1.
         -4   -1    0    0    0  501 -0.00000000000E+00 -0.00000000000E+00 -0.50415935757E+02  0.50431929155E+02  0.12700000000E+01 0. -1.
         25    2    1    2    0    0  0.00000000000E+00  0.00000000000E+00  0.27030125813E+02  0.12788840308E+03  0.12499926376E+03 0.  0.
    9000005    1    3    3    0    0 -0.80545107832E+00 -0.19501647167E+01 -0.50384499550E+02  0.50438573421E+02  0.10000000000E+01 0.  0.
    9000005    1    3    3    0    0  0.80545107832E+00  0.19501647167E+01  0.77414625363E+02  0.77449829657E+02  0.10000000000E+01 0.  0.
<mgrwt>
<rscale>  0 0.12499926E+03</rscale>
<asrwt>0</asrwt>
<pdfrwt beam="1">  1        4 0.11916810E-01 0.12499926E+03</pdfrwt>
<pdfrwt beam="2">  1       -4 0.77583291E-02 0.12499926E+03</pdfrwt>
<totfact> 0.10390071E+04</totfact>
</mgrwt>
</event>
<event>
 5    1  0.3309811E-002  0.1249988E+03  0.7818608E-02  0.1235071E+00
          4   -1    0    0  501    0  0.00000000000E+00  0.00000000000E+00  0.11349296097E+03  0.11350006648E+03  0.12700000000E+01 0.  1.
         -4   -1    0    0    0  501 -0.00000000000E+00 -0.00000000000E+00 -0.34397856181E+02  0.34421292972E+02  0.12700000000E+01 0.  1.
         25    2    1    2    0    0  0.00000000000E+00  0.00000000000E+00  0.79095104792E+02  0.14792135945E+03  0.12499877191E+03 0.  0.
    9000005    1    3    3    0    0  0.56834345811E+02  0.21425828484E+02  0.22156891735E+02  0.64661710783E+02  0.10000000000E+01 0.  0.
    9000005    1    3    3    0    0 -0.56834345811E+02 -0.21425828484E+02  0.56938213057E+02  0.83259648667E+02  0.10000000000E+01 0.  0.
<mgrwt>
<rscale>  0 0.12499877E+03</rscale>
<asrwt>0</asrwt>
<pdfrwt beam="1">  1        4 0.17462805E-01 0.12499877E+03</pdfrwt>
<pdfrwt beam="2">  1       -4 0.52943273E-02 0.12499877E+03</pdfrwt>
<totfact> 0.99722425E+03</totfact>
</mgrwt>
</event>
<event>
 5    1  0.3309811E-002  0.1250017E+03  0.7818608E-02  0.1235067E+00
          4   -1    0    0  501    0  0.00000000000E+00  0.00000000000E+00  0.78486216642E+02  0.78496491022E+02  0.12700000000E+01 0.  1.
         -4   -1    0    0    0  501 -0.00000000000E+00 -0.00000000000E+00 -0.49749566772E+02  0.49765774323E+02  0.12700000000E+01 0.  1.
         25    2    1    2    0    0  0.00000000000E+00  0.00000000000E+00  0.28736649870E+02  0.12826226535E+03  0.12500165465E+03 0.  0.
    9000005    1    3    3    0    0  0.56259671852E+02  0.24907629401E+02  0.25599744188E+02  0.66647487438E+02  0.10000000000E+01 0.  0.
    9000005    1    3    3    0    0 -0.56259671852E+02 -0.24907629401E+02  0.31369056825E+01  0.61614777907E+02  0.10000000000E+01 0.  0.
<mgrwt>
<rscale>  0 0.12500165E+03</rscale>
<asrwt>0</asrwt>
<pdfrwt beam="1">  1        4 0.12076840E-01 0.12500165E+03</pdfrwt>
<pdfrwt beam="2">  1       -4 0.76558165E-02 0.12500165E+03</pdfrwt>
<totfact> 0.10381440E+04</totfact>
</mgrwt>
</event>
<event>
 5    1  0.3309811E-002  0.1250007E+03  0.7818608E-02  0.1235068E+00
         -4   -1    0    0    0  501 -0.00000000000E+00  0.00000000000E+00  0.29335178550E+02  0.29362656565E+02  0.12700000000E+01 0. -1.
          4   -1    0    0  501    0  0.00000000000E+00 -0.00000000000E+00 -0.13306796582E+03  0.13307402612E+03  0.12700000000E+01 0. -1.
         25    2    1    2    0    0  0.00000000000E+00  0.00000000000E+00 -0.10373278727E+03  0.16243668268E+03  0.12500073890E+03 0.  0.
    9000005    1    3    3    0    0  0.43810844922E+02  0.42062426657E+02 -0.32738849641E+02  0.69003406762E+02  0.10000000000E+01 0.  0.
    9000005    1    3    3    0    0 -0.43810844922E+02 -0.42062426657E+02 -0.70993937628E+02  0.93433275919E+02  0.10000000000E+01 0.  0.
<mgrwt>
<rscale>  0 0.12500074E+03</rscale>
<asrwt>0</asrwt>
<pdfrwt beam="2">  1        4 0.20474574E-01 0.12500074E+03</pdfrwt>
<pdfrwt beam="1">  1       -4 0.45156844E-02 0.12500074E+03</pdfrwt>
<totfact> 0.96873450E+03</totfact>
</mgrwt>
</event>
<event>
 5    1  0.3309811E-002  0.1250007E+03  0.7818608E-02  0.1235068E+00
         -4   -1    0    0    0  501 -0.00000000000E+00  0.00000000000E+00  0.69423030977E+02  0.69434646467E+02  0.12700000000E+01 0.  1.
          4   -1    0    0  501    0  0.00000000000E+00 -0.00000000000E+00 -0.56244463823E+02  0.56258800296E+02  0.12700000000E+01 0.  1.
         25    2    1    2    0    0  0.00000000000E+00  0.00000000000E+00  0.13178567154E+02  0.12569344676E+03  0.12500067171E+03 0.  0.
    9000005    1    3    3    0    0 -0.32790187719E+02  0.12112679602E+01  0.60068894336E+02  0.68453894320E+02  0.10000000000E+01 0.  0.
    9000005    1    3    3    0    0  0.32790187719E+02 -0.12112679602E+01 -0.46890327182E+02  0.57239552444E+02  0.10000000000E+01 0.  0.
<mgrwt>
<rscale>  0 0.12500067E+03</rscale>
<asrwt>0</asrwt>
<pdfrwt beam="2">  1        4 0.86549907E-02 0.12500067E+03</pdfrwt>
<pdfrwt beam="1">  1       -4 0.10682463E-01 0.12500067E+03</pdfrwt>
<totfact> 0.10437530E+04</totfact>
</mgrwt>
</event>
<event>
 5    1  0.3309811E-002  0.1249573E+03  0.7818608E-02  0.1235136E+00
          4   -1    0    0  501    0  0.00000000000E+00  0.00000000000E+00  0.35743862866E+02  0.35766417665E+02  0.12700000000E+01 0.  1.
         -4   -1    0    0    0  501 -0.00000000000E+00 -0.00000000000E+00 -0.10914918183E+03  0.10915657010E+03  0.12700000000E+01 0.  1.
         25    2    1    2    0    0  0.00000000000E+00  0.00000000000E+00 -0.73405318968E+02  0.14492298776E+03  0.12495731883E+03 0.  0.
    9000005    1    3    3    0    0 -0.35107308218E+02  0.10170847787E+02  0.22053828684E+02  0.42700592439E+02  0.10000000000E+01 0.  0.
    9000005    1    3    3    0    0  0.35107308218E+02 -0.10170847787E+02 -0.95459147652E+02  0.10222239532E+03  0.10000000000E+01 0.  0.
<mgrwt>
<rscale>  0 0.12495732E+03</rscale>
<asrwt>0</asrwt>
<pdfrwt beam="1">  1        4 0.55013592E-02 0.12495732E+03</pdfrwt>
<pdfrwt beam="2">  1       -4 0.16794485E-01 0.12495732E+03</pdfrwt>
<totfact> 0.10042202E+04</totfact>
</mgrwt>
</event>
<event>
 5    1  0.3309811E-002  0.1249997E+03  0.7818608E-02  0.1235070E+00
          4   -1    0    0  501    0  0.00000000000E+00  0.00000000000E+00  0.34455328514E+03  0.34455562570E+03  0.12700000000E+01 0. -1.
         -4   -1    0    0    0  501 -0.00000000000E+00 -0.00000000000E+00 -0.11299129872E+02  0.11370278619E+02  0.12700000000E+01 0. -1.
         25    2    1    2    0    0  0.00000000000E+00  0.00000000000E+00  0.33325415527E+03  0.35592590432E+03  0.12499966944E+03 0.  0.
    9000005    1    3    3    0    0 -0.29149500999E+02  0.36338320246E+02  0.48020634122E+02  0.66911495487E+02  0.10000000000E+01 0.  0.
    9000005    1    3    3    0    0  0.29149500999E+02 -0.36338320246E+02  0.28523352114E+03  0.28901440883E+03  0.10000000000E+01 0.  0.
<mgrwt>
<rscale>  0 0.12499967E+03</rscale>
<asrwt>0</asrwt>
<pdfrwt beam="1">  1        4 0.53013841E-01 0.12499967E+03</pdfrwt>
<pdfrwt beam="2">  1       -4 0.17439810E-02 0.12499967E+03</pdfrwt>
<totfact> 0.69078026E+03</totfact>
</mgrwt>
</event>
<event>
 5    1  0.3309811E-002  0.1249999E+03  0.7818608E-02  0.1235069E+00
         -4   -1    0    0    0  501 -0.00000000000E+00  0.00000000000E+00  0.63659719572E+03  0.63659846254E+03  0.12700000000E+01 0.  1.
          4   -1    0    0  501    0  0.00000000000E+00 -0.00000000000E+00 -0.60691329030E+01  0.62005866008E+01  0.12700000000E+01 0.  1.
         25    2    1    2    0    0  0.00000000000E+00  0.00000000000E+00  0.63052806282E+03  0.64279904914E+03  0.12499991827E+03 0.  0.
    9000005    1    3    3    0    0  0.12753875340E+01 -0.60827685747E+02  0.24188600357E+03  0.24942227786E+03  0.10000000000E+01 0.  0.
    9000005    1    3    3    0    0 -0.12753875340E+01  0.60827685747E+02  0.38864205925E+03  0.39337677128E+03  0.10000000000E+01 0.  0.
<mgrwt>
<rscale>  0 0.12499992E+03</rscale>
<asrwt>0</asrwt>
<pdfrwt beam="2">  1        4 0.94392194E-03 0.12499992E+03</pdfrwt>
<pdfrwt beam="1">  1       -4 0.97948248E-01 0.12499992E+03</pdfrwt>
<totfact> 0.46272841E+03</totfact>
</mgrwt>
</event>
<event>
 5    1  0.3309811E-002  0.1249987E+03  0.7818608E-02  0.1235071E+00
         -4   -1    0    0    0  501 -0.00000000000E+00  0.00000000000E+00  0.25419073571E+02  0.25450779972E+02  0.12700000000E+01 0. -1.
          4   -1    0    0  501    0  0.00000000000E+00 -0.00000000000E+00 -0.15354063015E+03  0.15354588242E+03  0.12700000000E+01 0. -1.
         25    2    1    2    0    0  0.00000000000E+00  0.00000000000E+00 -0.12812155658E+03  0.17899666239E+03  0.12499868754E+03 0.  0.
    9000005    1    3    3    0    0  0.43250357606E+02  0.44370536397E+02 -0.75679317653E+02  0.97814605523E+02  0.10000000000E+01 0.  0.
    9000005    1    3    3    0    0 -0.43250357606E+02 -0.44370536397E+02 -0.52442238927E+02  0.81182056865E+02  0.10000000000E+01 0.  0.
<mgrwt>
<rscale>  0 0.12499869E+03</rscale>
<asrwt>0</asrwt>
<pdfrwt beam="2">  1        4 0.23624478E-01 0.12499869E+03</pdfrwt>
<pdfrwt beam="1">  1       -4 0.39134698E-02 0.12499869E+03</pdfrwt>
<totfact> 0.93800680E+03</totfact>
</mgrwt>
</event>
<event>
 5    1  0.3309811E-002  0.1249999E+03  0.7818608E-02  0.1235069E+00
         -4   -1    0    0    0  501 -0.00000000000E+00  0.00000000000E+00  0.14728985301E+03  0.14729532817E+03  0.12700000000E+01 0.  1.
          4   -1    0    0  501    0  0.00000000000E+00 -0.00000000000E+00 -0.26499604904E+02  0.26530019979E+02  0.12700000000E+01 0.  1.
         25    2    1    2    0    0  0.00000000000E+00  0.00000000000E+00  0.12079024811E+03  0.17382534815E+03  0.12499987048E+03 0.  0.
    9000005    1    3    3    0    0  0.14608455870E+02 -0.60740719931E+02  0.58240870038E+02  0.85415695182E+02  0.10000000000E+01 0.  0.
    9000005    1    3    3    0    0 -0.14608455870E+02  0.60740719931E+02  0.62549378069E+02  0.88409652965E+02  0.10000000000E+01 0.  0.
<mgrwt>
<rscale>  0 0.12499987E+03</rscale>
<asrwt>0</asrwt>
<pdfrwt beam="2">  1        4 0.40796232E-02 0.12499987E+03</pdfrwt>
<pdfrwt beam="1">  1       -4 0.22662738E-01 0.12499987E+03</pdfrwt>
<totfact> 0.94740692E+03</totfact>
</mgrwt>
</event>
<event>
 5    1  0.3309811E-002  0.1249974E+03  0.7818608E-02  0.1235073E+00
          4   -1    0    0  501    0  0.00000000000E+00  0.00000000000E+00  0.39606586539E+02  0.39626942821E+02  0.12700000000E+01 0. -1.
         -4   -1    0    0    0  501 -0.00000000000E+00 -0.00000000000E+00 -0.98572337795E+02  0.98580518757E+02  0.12700000000E+01 0. -1.
         25    2    1    2    0    0  0.00000000000E+00  0.00000000000E+00 -0.58965751256E+02  0.13820746158E+03  0.12499737043E+03 0.  0.
    9000005    1    3    3    0    0  0.79969846715E+00 -0.60141642238E+02 -0.10737423953E+02  0.61106046525E+02  0.10000000000E+01 0.  0.
    9000005    1    3    3    0    0 -0.79969846715E+00  0.60141642238E+02 -0.48228327303E+02  0.77101415053E+02  0.10000000000E+01 0.  0.
<mgrwt>
<rscale>  0 0.12499737E+03</rscale>
<asrwt>0</asrwt>
<pdfrwt beam="1">  1        4 0.60955162E-02 0.12499737E+03</pdfrwt>
<pdfrwt beam="2">  1       -4 0.15167170E-01 0.12499737E+03</pdfrwt>
<totfact> 0.10171476E+04</totfact>
</mgrwt>
</event>
<event>
 5    1  0.3309811E-002  0.1249991E+03  0.7818608E-02  0.1235071E+00
          4   -1    0    0  501    0  0.00000000000E+00  0.00000000000E+00  0.10024970659E+02  0.10105094592E+02  0.12700000000E+01 0. -1.
         -4   -1    0    0    0  501 -0.00000000000E+00 -0.00000000000E+00 -0.38801409227E+03  0.38801617067E+03  0.12700000000E+01 0. -1.
         25    2    1    2    0    0  0.00000000000E+00  0.00000000000E+00 -0.37798912161E+03  0.39812126526E+03  0.12499906318E+03 0.  0.
    9000005    1    3    3    0    0 -0.61170646581E+02  0.74720667714E+01 -0.15597004878E+03  0.16770609977E+03  0.10000000000E+01 0.  0.
    9000005    1    3    3    0    0  0.61170646581E+02 -0.74720667714E+01 -0.22201907283E+03  0.23041516549E+03  0.10000000000E+01 0.  0.
<mgrwt>
<rscale>  0 0.12499906E+03</rscale>
<asrwt>0</asrwt>
<pdfrwt beam="1">  1        4 0.15486267E-02 0.12499906E+03</pdfrwt>
<pdfrwt beam="2">  1       -4 0.59700788E-01 0.12499906E+03</pdfrwt>
<totfact> 0.64737268E+03</totfact>
</mgrwt>
</event>
<event>
 5    1  0.3309811E-002  0.1249974E+03  0.7818608E-02  0.1235073E+00
          4   -1    0    0  501    0  0.00000000000E+00  0.00000000000E+00  0.68392634680E+03  0.68392752595E+03  0.12700000000E+01 0.  1.
         -4   -1    0    0    0  501 -0.00000000000E+00 -0.00000000000E+00 -0.56394662680E+01  0.57806989013E+01  0.12700000000E+01 0.  1.
         25    2    1    2    0    0  0.00000000000E+00  0.00000000000E+00  0.67828688053E+03  0.68970822485E+03  0.12499737246E+03 0.  0.
    9000005    1    3    3    0    0  0.47625415384E+02 -0.40074798232E+02  0.36982356553E+03  0.37502618477E+03  0.10000000000E+01 0.  0.
    9000005    1    3    3    0    0 -0.47625415384E+02  0.40074798232E+02  0.30846331500E+03  0.31468204008E+03  0.10000000000E+01 0.  0.
<mgrwt>
<rscale>  0 0.12499737E+03</rscale>
<asrwt>0</asrwt>
<pdfrwt beam="1">  1        4 0.10523036E+00 0.12499737E+03</pdfrwt>
<pdfrwt beam="2">  1       -4 0.87856526E-03 0.12499737E+03</pdfrwt>
<totfact> 0.43638097E+03</totfact>
</mgrwt>
</event>
<event>
 5    1  0.3309811E-002  0.1249984E+03  0.7818608E-02  0.1235072E+00
         -4   -1    0    0    0  501 -0.00000000000E+00  0.00000000000E+00  0.22068714176E+03  0.22069079600E+03  0.12700000000E+01 0.  1.
          4   -1    0    0  501    0  0.00000000000E+00 -0.00000000000E+00 -0.17673355017E+02  0.17718927099E+02  0.12700000000E+01 0.  1.
         25    2    1    2    0    0  0.00000000000E+00  0.00000000000E+00  0.20301378675E+03  0.23840972310E+03  0.12499839383E+03 0.  0.
    9000005    1    3    3    0    0 -0.20531432384E+02 -0.47607236891E+02  0.34965249423E+02  0.62542444686E+02  0.10000000000E+01 0.  0.
    9000005    1    3    3    0    0  0.20531432384E+02  0.47607236891E+02  0.16804853732E+03  0.17586727842E+03  0.10000000000E+01 0.  0.
<mgrwt>
<rscale>  0 0.12499839E+03</rscale>
<asrwt>0</asrwt>
<pdfrwt beam="2">  1        4 0.27227646E-02 0.12499839E+03</pdfrwt>
<pdfrwt beam="1">  1       -4 0.33955652E-01 0.12499839E+03</pdfrwt>
<totfact> 0.84037794E+03</totfact>
</mgrwt>
</event>
<event>
 5    1  0.3309811E-002  0.1250051E+03  0.7818608E-02  0.1235061E+00
          4   -1    0    0  501    0  0.00000000000E+00  0.00000000000E+00  0.18272661991E+03  0.18273103328E+03  0.12700000000E+01 0.  1.
         -4   -1    0    0    0  501 -0.00000000000E+00 -0.00000000000E+00 -0.21355765534E+02  0.21393494842E+02  0.12700000000E+01 0.  1.
         25    2    1    2    0    0  0.00000000000E+00  0.00000000000E+00  0.16137085438E+03  0.20412452812E+03  0.12500508125E+03 0.  0.
    9000005    1    3    3    0    0 -0.32319528272E+02  0.50823743001E+02  0.53460866209E+02  0.80539859549E+02  0.10000000000E+01 0.  0.
    9000005    1    3    3    0    0  0.32319528272E+02 -0.50823743001E+02  0.10790998817E+03  0.12358466857E+03  0.10000000000E+01 0.  0.
<mgrwt>
<rscale>  0 0.12500508E+03</rscale>
<asrwt>0</asrwt>
<pdfrwt beam="1">  1        4 0.28115030E-01 0.12500508E+03</pdfrwt>
<pdfrwt beam="2">  1       -4 0.32887441E-02 0.12500508E+03</pdfrwt>
<totfact> 0.89434337E+03</totfact>
</mgrwt>
</event>
<event>
 5    1  0.3309811E-002  0.1249990E+03  0.7818608E-02  0.1235071E+00
         -4   -1    0    0    0  501 -0.00000000000E+00  0.00000000000E+00  0.69777054193E+02  0.69788610760E+02  0.12700000000E+01 0. -1.
          4   -1    0    0  501    0  0.00000000000E+00 -0.00000000000E+00 -0.55957595097E+02  0.55972005048E+02  0.12700000000E+01 0. -1.
         25    2    1    2    0    0  0.00000000000E+00  0.00000000000E+00  0.13819459096E+02  0.12576061581E+03  0.12499902015E+03 0.  0.
    9000005    1    3    3    0    0 -0.14315956521E+02 -0.42404672204E+02  0.50788364913E+02  0.67702000313E+02  0.10000000000E+01 0.  0.
    9000005    1    3    3    0    0  0.14315956521E+02  0.42404672204E+02 -0.36968905817E+02  0.58058615495E+02  0.10000000000E+01 0.  0.
<mgrwt>
<rscale>  0 0.12499902E+03</rscale>
<asrwt>0</asrwt>
<pdfrwt beam="2">  1        4 0.86108583E-02 0.12499902E+03</pdfrwt>
<pdfrwt beam="1">  1       -4 0.10736929E-01 0.12499902E+03</pdfrwt>
<totfact> 0.10436442E+04</totfact>
</mgrwt>
</event>
<event>
 5    1  0.3309811E-002  0.1250006E+03  0.7818608E-02  0.1235068E+00
         -4   -1    0    0    0  501 -0.00000000000E+00  0.00000000000E+00  0.18937787223E+02  0.18980323625E+02  0.12700000000E+01 0. -1.
          4   -1    0    0  501    0  0.00000000000E+00 -0.00000000000E+00 -0.20599360026E+03  0.20599751515E+03  0.12700000000E+01 0. -1.
         25    2    1    2    0    0  0.00000000000E+00  0.00000000000E+00 -0.18705581303E+03  0.22497783877E+03  0.12500060299E+03 0.  0.
    9000005    1    3    3    0    0 -0.62338882818E+01  0.53889138719E+02 -0.14936239196E+03  0.15891200322E+03  0.10000000000E+01 0.  0.
    9000005    1    3    3    0    0  0.62338882818E+01 -0.53889138719E+02 -0.37693421072E+02  0.66065835552E+02  0.10000000000E+01 0.  0.
<mgrwt>
<rscale>  0 0.12500060E+03</rscale>
<asrwt>0</asrwt>
<pdfrwt beam="2">  1        4 0.31694895E-01 0.12500060E+03</pdfrwt>
<pdfrwt beam="1">  1       -4 0.29170790E-02 0.12500060E+03</pdfrwt>
<totfact> 0.86085591E+03</totfact>
</mgrwt>
</event>
<event>
 5    1  0.3309811E-002  0.1250011E+03  0.7818608E-02  0.1235068E+00
          4   -1    0    0  501    0  0.00000000000E+00  0.00000000000E+00  0.15057367215E+02  0.15110830799E+02  0.12700000000E+01 0.  1.
         -4   -1    0    0    0  501 -0.00000000000E+00 -0.00000000000E+00 -0.25891439865E+03  0.25891751337E+03  0.12700000000E+01 0.  1.
         25    2    1    2    0    0  0.00000000000E+00  0.00000000000E+00 -0.24385703144E+03  0.27402834417E+03  0.12500112650E+03 0.  0.
    9000005    1    3    3    0    0 -0.43092577289E+02 -0.33109953521E+02 -0.54286187582E+02  0.76819459786E+02  0.10000000000E+01 0.  0.
    9000005    1    3    3    0    0  0.43092577289E+02  0.33109953521E+02 -0.18957084386E+03  0.19720888438E+03  0.10000000000E+01 0.  0.
<mgrwt>
<rscale>  0 0.12500113E+03</rscale>
<asrwt>0</asrwt>
<pdfrwt beam="1">  1        4 0.23208704E-02 0.12500113E+03</pdfrwt>
<pdfrwt beam="2">  1       -4 0.39837333E-01 0.12500113E+03</pdfrwt>
<totfact> 0.78974648E+03</totfact>
</mgrwt>
</event>
<event>
 5    1  0.3309811E-002  0.1249953E+03  0.7818608E-02  0.1235077E+00
         -4   -1    0    0    0  501 -0.00000000000E+00  0.00000000000E+00  0.86511326584E+01  0.87438547720E+01  0.12700000000E+01 0.  1.
          4   -1    0    0  501    0  0.00000000000E+00 -0.00000000000E+00 -0.44899642788E+03  0.44899822399E+03  0.12700000000E+01 0.  1.
         25    2    1    2    0    0  0.00000000000E+00  0.00000000000E+00 -0.44034529522E+03  0.45774207877E+03  0.12499532651E+03 0.  0.
    9000005    1    3    3    0    0  0.54410426192E+02 -0.15139751798E+02 -0.12223348079E+03  0.13465411390E+03  0.10000000000E+01 0.  0.
    9000005    1    3    3    0    0 -0.54410426192E+02  0.15139751798E+02 -0.31811181443E+03  0.32308796487E+03  0.10000000000E+01 0.  0.
<mgrwt>
<rscale>  0 0.12499533E+03</rscale>
<asrwt>0</asrwt>
<pdfrwt beam="2">  1        4 0.69083626E-01 0.12499533E+03</pdfrwt>
<pdfrwt beam="1">  1       -4 0.13382145E-02 0.12499533E+03</pdfrwt>
<totfact> 0.59305030E+03</totfact>
</mgrwt>
</event>
<event>
 5    1  0.3309811E-002  0.1249845E+03  0.7818608E-02  0.1235093E+00
         -4   -1    0    0    0  501 -0.00000000000E+00  0.00000000000E+00  0.11200874277E+03  0.11201594242E+03  0.12700000000E+01 0.  1.
          4   -1    0    0  501    0  0.00000000000E+00 -0.00000000000E+00 -0.34845990600E+02  0.34869126185E+02  0.12700000000E+01 0.  1.
         25    2    1    2    0    0  0.00000000000E+00  0.00000000000E+00  0.77162752167E+02  0.14688506860E+03  0.12498453127E+03 0.  0.
    9000005    1    3    3    0    0 -0.47081796971E+02  0.31248595293E+02  0.69920776157E+02  0.89905980069E+02  0.10000000000E+01 0.  0.
    9000005    1    3    3    0    0  0.47081796971E+02 -0.31248595293E+02  0.72419760102E+01  0.56979088535E+02  0.10000000000E+01 0.  0.
<mgrwt>
<rscale>  0 0.12498453E+03</rscale>
<asrwt>0</asrwt>
<pdfrwt beam="2">  1        4 0.53632550E-02 0.12498453E+03</pdfrwt>
<pdfrwt beam="1">  1       -4 0.17234448E-01 0.12498453E+03</pdfrwt>
<totfact> 0.99963085E+03</totfact>
</mgrwt>
</event>
<event>
 5    1  0.3309811E-002  0.1250007E+03  0.7818608E-02  0.1235068E+00
         -4   -1    0    0    0  501 -0.00000000000E+00  0.00000000000E+00  0.11294443686E+03  0.11295157687E+03  0.12700000000E+01 0.  1.
          4   -1    0    0  501    0  0.00000000000E+00 -0.00000000000E+00 -0.34566074121E+02  0.34589396932E+02  0.12700000000E+01 0.  1.
         25    2    1    2    0    0  0.00000000000E+00  0.00000000000E+00  0.78378362741E+02  0.14754097380E+03  0.12500068482E+03 0.  0.
    9000005    1    3    3    0    0 -0.23691938013E+02 -0.50332624163E+02  0.55839632065E+01  0.55918347857E+02  0.10000000000E+01 0.  0.
    9000005    1    3    3    0    0  0.23691938013E+02  0.50332624163E+02  0.72794399534E+02  0.91622625947E+02  0.10000000000E+01 0.  0.
<mgrwt>
<rscale>  0 0.12500068E+03</rscale>
<asrwt>0</asrwt>
<pdfrwt beam="2">  1        4 0.53202009E-02 0.12500068E+03</pdfrwt>
<pdfrwt beam="1">  1       -4 0.17378410E-01 0.12500068E+03</pdfrwt>
<totfact> 0.99794607E+03</totfact>
</mgrwt>
</event>
<event>
 5    1  0.3309811E-002  0.1250022E+03  0.7818608E-02  0.1235066E+00
          4   -1    0    0  501    0  0.00000000000E+00  0.00000000000E+00  0.57118357260E+03  0.57118498449E+03  0.12700000000E+01 0. -1.
         -4   -1    0    0    0  501 -0.00000000000E+00 -0.00000000000E+00 -0.67787237349E+01  0.68966655330E+01  0.12700000000E+01 0. -1.
         25    2    1    2    0    0  0.00000000000E+00  0.00000000000E+00  0.56440484887E+03  0.57808165003E+03  0.12500224267E+03 0.  0.
    9000005    1    3    3    0    0  0.29159002491E+02  0.50965892124E+02  0.18327330270E+03  0.19245226179E+03  0.10000000000E+01 0.  0.
    9000005    1    3    3    0    0 -0.29159002491E+02 -0.50965892124E+02  0.38113154616E+03  0.38562938823E+03  0.10000000000E+01 0.  0.
<mgrwt>
<rscale>  0 0.12500224E+03</rscale>
<asrwt>0</asrwt>
<pdfrwt beam="1">  1        4 0.87883600E-01 0.12500224E+03</pdfrwt>
<pdfrwt beam="2">  1       -4 0.10520613E-02 0.12500224E+03</pdfrwt>
<totfact> 0.50278563E+03</totfact>
</mgrwt>
</event>
<event>
 5    1  0.3309811E-002  0.1249955E+03  0.7818608E-02  0.1235076E+00
         -4   -1    0    0    0  501 -0.00000000000E+00  0.00000000000E+00  0.10665512527E+04  0.10665520088E+04  0.12700000000E+01 0.  1.
          4   -1    0    0  501    0  0.00000000000E+00 -0.00000000000E+00 -0.35513565776E+01  0.37716088797E+01  0.12700000000E+01 0.  1.
         25    2    1    2    0    0  0.00000000000E+00  0.00000000000E+00  0.10629998961E+04  0.10703236177E+04  0.12499546979E+03 0.  0.
    9000005    1    3    3    0    0 -0.20686918065E+02 -0.42312269379E+02  0.17982738264E+03  0.18589557355E+03  0.10000000000E+01 0.  0.
    9000005    1    3    3    0    0  0.20686918065E+02  0.42312269379E+02  0.88317251344E+03  0.88442804411E+03  0.10000000000E+01 0.  0.
<mgrwt>
<rscale>  0 0.12499547E+03</rscale>
<asrwt>0</asrwt>
<pdfrwt beam="2">  1        4 0.56336352E-03 0.12499547E+03</pdfrwt>
<pdfrwt beam="1">  1       -4 0.16410172E+00 0.12499547E+03</pdfrwt>
<totfact> 0.28371400E+03</totfact>
</mgrwt>
</event>
<event>
 5    1  0.3309811E-002  0.1249997E+03  0.7818608E-02  0.1235070E+00
          4   -1    0    0  501    0  0.00000000000E+00  0.00000000000E+00  0.16619471589E+02  0.16667925363E+02  0.12700000000E+01 0. -1.
         -4   -1    0    0    0  501 -0.00000000000E+00 -0.00000000000E+00 -0.23464700282E+03  0.23465043966E+03  0.12700000000E+01 0. -1.
         25    2    1    2    0    0  0.00000000000E+00  0.00000000000E+00 -0.21802753123E+03  0.25131836502E+03  0.12499966489E+03 0.  0.
    9000005    1    3    3    0    0 -0.21054154598E+02  0.54124282514E+02 -0.62617742265E+02  0.85408998530E+02  0.10000000000E+01 0.  0.
    9000005    1    3    3    0    0  0.21054154598E+02 -0.54124282514E+02 -0.15540978896E+03  0.16590936649E+03  0.10000000000E+01 0.  0.
<mgrwt>
<rscale>  0 0.12499966E+03</rscale>
<asrwt>0</asrwt>
<pdfrwt beam="1">  1        4 0.25608335E-02 0.12499966E+03</pdfrwt>
<pdfrwt beam="2">  1       -4 0.36103528E-01 0.12499966E+03</pdfrwt>
<totfact> 0.82140670E+03</totfact>
</mgrwt>
</event>
<event>
 5    1  0.3309811E-002  0.1250297E+03  0.7818608E-02  0.1235023E+00
         -4   -1    0    0    0  501 -0.00000000000E+00  0.00000000000E+00  0.50616474163E+02  0.50632404216E+02  0.12700000000E+01 0. -1.
          4   -1    0    0  501    0  0.00000000000E+00 -0.00000000000E+00 -0.77176833628E+02  0.77187282300E+02  0.12700000000E+01 0. -1.
         25    2    1    2    0    0  0.00000000000E+00  0.00000000000E+00 -0.26560359464E+02  0.12781968652E+03  0.12502967474E+03 0.  0.
    9000005    1    3    3    0    0 -0.68118049298E+01 -0.61918753448E+02 -0.18569824247E+02  0.65009007742E+02  0.10000000000E+01 0.  0.
    9000005    1    3    3    0    0  0.68118049298E+01  0.61918753448E+02 -0.79905352178E+01  0.62810678774E+02  0.10000000000E+01 0.  0.
<mgrwt>
<rscale>  0 0.12502967E+03</rscale>
<asrwt>0</asrwt>
<pdfrwt beam="2">  1        4 0.11875388E-01 0.12502967E+03</pdfrwt>
<pdfrwt beam="1">  1       -4 0.77891790E-02 0.12502967E+03</pdfrwt>
<totfact> 0.10384425E+04</totfact>
</mgrwt>
</event>
<event>
 5    1  0.3309811E-002  0.1250003E+03  0.7818608E-02  0.1235069E+00
          4   -1    0    0  501    0  0.00000000000E+00  0.00000000000E+00  0.59358016472E+02  0.59371601120E+02  0.12700000000E+01 0.  1.
         -4   -1    0    0    0  501 -0.00000000000E+00 -0.00000000000E+00 -0.65781344380E+02  0.65793602793E+02  0.12700000000E+01 0.  1.
         25    2    1    2    0    0  0.00000000000E+00  0.00000000000E+00 -0.64233279079E+01  0.12516520391E+03  0.12500027652E+03 0.  0.
    9000005    1    3    3    0    0  0.43358734720E+01 -0.62280611560E+02 -0.59708226807E+01  0.62724198668E+02  0.10000000000E+01 0.  0.
    9000005    1    3    3    0    0 -0.43358734720E+01  0.62280611560E+02 -0.45250522713E+00  0.62441005245E+02  0.10000000000E+01 0.  0.
<mgrwt>
<rscale>  0 0.12500028E+03</rscale>
<asrwt>0</asrwt>
<pdfrwt beam="1">  1        4 0.91339904E-02 0.12500028E+03</pdfrwt>
<pdfrwt beam="2">  1       -4 0.10122195E-01 0.12500028E+03</pdfrwt>
<totfact> 0.10449210E+04</totfact>
</mgrwt>
</event>
<event>
 5    1  0.3309811E-002  0.1250102E+03  0.7818608E-02  0.1235053E+00
          4   -1    0    0  501    0  0.00000000000E+00  0.00000000000E+00  0.35717461300E+03  0.35717687086E+03  0.12700000000E+01 0.  1.
         -4   -1    0    0    0  501 -0.00000000000E+00 -0.00000000000E+00 -0.10899146555E+02  0.10972889119E+02  0.12700000000E+01 0.  1.
         25    2    1    2    0    0  0.00000000000E+00  0.00000000000E+00  0.34627546645E+03  0.36814975997E+03  0.12501018800E+03 0.  0.
    9000005    1    3    3    0    0 -0.21797300644E+02 -0.10751458596E+02  0.35743573624E+01  0.24586423243E+02  0.10000000000E+01 0.  0.
    9000005    1    3    3    0    0  0.21797300644E+02  0.10751458596E+02  0.34270110909E+03  0.34356333673E+03  0.10000000000E+01 0.  0.
<mgrwt>
<rscale>  0 0.12501019E+03</rscale>
<asrwt>0</asrwt>
<pdfrwt beam="1">  1        4 0.54955780E-01 0.12501019E+03</pdfrwt>
<pdfrwt beam="2">  1       -4 0.16826382E-02 0.12501019E+03</pdfrwt>
<totfact> 0.67757690E+03</totfact>
</mgrwt>
</event>
<event>
 5    1  0.3309811E-002  0.1249933E+03  0.7818608E-02  0.1235080E+00
         -4   -1    0    0    0  501 -0.00000000000E+00  0.00000000000E+00  0.33450454008E+02  0.33474554117E+02  0.12700000000E+01 0.  1.
          4   -1    0    0  501    0  0.00000000000E+00 -0.00000000000E+00 -0.11669501732E+03  0.11670192787E+03  0.12700000000E+01 0.  1.
         25    2    1    2    0    0  0.00000000000E+00  0.00000000000E+00 -0.83244563316E+02  0.15017648199E+03  0.12499327350E+03 0.  0.
    9000005    1    3    3    0    0 -0.47168066571E+02 -0.20705653638E+02  0.87805435876E+00  0.51529812498E+02  0.10000000000E+01 0.  0.
    9000005    1    3    3    0    0  0.47168066571E+02  0.20705653638E+02 -0.84122617675E+02  0.98646669488E+02  0.10000000000E+01 0.  0.
<mgrwt>
<rscale>  0 0.12499327E+03</rscale>
<asrwt>0</asrwt>
<pdfrwt beam="2">  1        4 0.17955465E-01 0.12499327E+03</pdfrwt>
<pdfrwt beam="1">  1       -4 0.51486092E-02 0.12499327E+03</pdfrwt>
<totfact> 0.99283560E+03</totfact>
</mgrwt>
</event>
<event>
 5    1  0.3309811E-002  0.1250011E+03  0.7818608E-02  0.1235068E+00
         -4   -1    0    0    0  501 -0.00000000000E+00  0.00000000000E+00  0.24826325305E+03  0.24826650140E+03  0.12700000000E+01 0. -1.
          4   -1    0    0  501    0  0.00000000000E+00 -0.00000000000E+00 -0.15705602175E+02  0.15756866429E+02  0.12700000000E+01 0. -1.
         25    2    1    2    0    0  0.00000000000E+00  0.00000000000E+00  0.23255765088E+03  0.26402336783E+03  0.12500111110E+03 0.  0.
    9000005    1    3    3    0    0  0.37949894294E+02  0.40436506846E+02  0.17713030903E+03  0.18561102322E+03  0.10000000000E+01 0.  0.
    9000005    1    3    3    0    0 -0.37949894294E+02 -0.40436506846E+02  0.55427341848E+02  0.78412344609E+02  0.10000000000E+01 0.  0.
<mgrwt>
<rscale>  0 0.12500111E+03</rscale>
<asrwt>0</asrwt>
<pdfrwt beam="2">  1        4 0.24204400E-02 0.12500111E+03</pdfrwt>
<pdfrwt beam="1">  1       -4 0.38198536E-01 0.12500111E+03</pdfrwt>
<totfact> 0.80342749E+03</totfact>
</mgrwt>
</event>
<event>
 5    1  0.3309811E-002  0.1250026E+03  0.7818608E-02  0.1235065E+00
         -4   -1    0    0    0  501 -0.00000000000E+00  0.00000000000E+00  0.90110009053E+02  0.90118958225E+02  0.12700000000E+01 0.  1.
          4   -1    0    0  501    0  0.00000000000E+00 -0.00000000000E+00 -0.43331180243E+02  0.43349787557E+02  0.12700000000E+01 0.  1.
         25    2    1    2    0    0  0.00000000000E+00  0.00000000000E+00  0.46778828811E+02  0.13346874578E+03  0.12500258908E+03 0.  0.
    9000005    1    3    3    0    0 -0.28635639410E+02  0.11290331724E+02  0.81459876169E+02  0.87087214104E+02  0.10000000000E+01 0.  0.
    9000005    1    3    3    0    0  0.28635639410E+02 -0.11290331724E+02 -0.34681047359E+02  0.46381531678E+02  0.10000000000E+01 0.  0.
<mgrwt>
<rscale>  0 0.12500259E+03</rscale>
<asrwt>0</asrwt>
<pdfrwt beam="2">  1        4 0.66684552E-02 0.12500259E+03</pdfrwt>
<pdfrwt beam="1">  1       -4 0.13865198E-01 0.12500259E+03</pdfrwt>
<totfact> 0.10269848E+04</totfact>
</mgrwt>
</event>
<event>
 5    1  0.3309811E-002  0.1249989E+03  0.7818608E-02  0.1235071E+00
         -4   -1    0    0    0  501 -0.00000000000E+00  0.00000000000E+00  0.17863127824E+03  0.17863579279E+03  0.12700000000E+01 0.  1.
          4   -1    0    0  501    0  0.00000000000E+00 -0.00000000000E+00 -0.21844061718E+02  0.21880949073E+02  0.12700000000E+01 0.  1.
         25    2    1    2    0    0  0.00000000000E+00  0.00000000000E+00  0.15678721653E+03  0.20051674187E+03  0.12499893001E+03 0.  0.
    9000005    1    3    3    0    0  0.26808669256E+02 -0.12373447025E+02  0.16674379675E+03  0.16934078273E+03  0.10000000000E+01 0.  0.
    9000005    1    3    3    0    0 -0.26808669256E+02  0.12373447025E+02 -0.99565802274E+01  0.31175959141E+02  0.10000000000E+01 0.  0.
<mgrwt>
<rscale>  0 0.12499893E+03</rscale>
<asrwt>0</asrwt>
<pdfrwt beam="2">  1        4 0.33638097E-02 0.12499893E+03</pdfrwt>
<pdfrwt beam="1">  1       -4 0.27484919E-01 0.12499893E+03</pdfrwt>
<totfact> 0.90050583E+03</totfact>
</mgrwt>
</event>
<event>
 5    1  0.3309811E-002  0.1250067E+03  0.7818608E-02  0.1235059E+00
          4   -1    0    0  501    0  0.00000000000E+00  0.00000000000E+00  0.45933243190E+03  0.45933418759E+03  0.12700000000E+01 0.  1.
         -4   -1    0    0    0  501 -0.00000000000E+00 -0.00000000000E+00 -0.84559034223E+01  0.85507428149E+01  0.12700000000E+01 0.  1.
         25    2    1    2    0    0  0.00000000000E+00  0.00000000000E+00  0.45087652847E+03  0.46788493041E+03  0.12500665652E+03 0.  0.
    9000005    1    3    3    0    0 -0.41998299464E+02  0.46272505349E+02  0.22848850340E+03  0.23688182305E+03  0.10000000000E+01 0.  0.
    9000005    1    3    3    0    0  0.41998299464E+02 -0.46272505349E+02  0.22238802508E+03  0.23100310735E+03  0.10000000000E+01 0.  0.
<mgrwt>
<rscale>  0 0.12500666E+03</rscale>
<asrwt>0</asrwt>
<pdfrwt beam="1">  1        4 0.70673975E-01 0.12500666E+03</pdfrwt>
<pdfrwt beam="2">  1       -4 0.13083383E-02 0.12500666E+03</pdfrwt>
<totfact> 0.58436568E+03</totfact>
</mgrwt>
</event>
<event>
 5    1  0.3309811E-002  0.1250016E+03  0.7818608E-02  0.1235067E+00
          4   -1    0    0  501    0  0.00000000000E+00  0.00000000000E+00  0.75393696425E+02  0.75404392184E+02  0.12700000000E+01 0.  1.
         -4   -1    0    0    0  501 -0.00000000000E+00 -0.00000000000E+00 -0.51790521756E+02  0.51806090798E+02  0.12700000000E+01 0.  1.
         25    2    1    2    0    0  0.00000000000E+00  0.00000000000E+00  0.23603174669E+02  0.12721048298E+03  0.12500158849E+03 0.  0.
    9000005    1    3    3    0    0 -0.35350107229E+02  0.17784205120E+02  0.61024061654E+02  0.72738188963E+02  0.10000000000E+01 0.  0.
    9000005    1    3    3    0    0  0.35350107229E+02 -0.17784205120E+02 -0.37420886985E+02  0.54472294018E+02  0.10000000000E+01 0.  0.
<mgrwt>
<rscale>  0 0.12500159E+03</rscale>
<asrwt>0</asrwt>
<pdfrwt beam="1">  1        4 0.11601051E-01 0.12500159E+03</pdfrwt>
<pdfrwt beam="2">  1       -4 0.79697929E-02 0.12500159E+03</pdfrwt>
<totfact> 0.10404203E+04</totfact>
</mgrwt>
</event>
<event>
 5    1  0.3309811E-002  0.1250026E+03  0.7818608E-02  0.1235065E+00
         -4   -1    0    0    0  501 -0.00000000000E+00  0.00000000000E+00  0.42988500330E+01  0.44825229064E+01  0.12700000000E+01 0.  1.
          4   -1    0    0  501    0  0.00000000000E+00 -0.00000000000E+00 -0.88952040089E+03  0.88952130750E+03  0.12700000000E+01 0.  1.
         25    2    1    2    0    0  0.00000000000E+00  0.00000000000E+00 -0.88522155086E+03  0.89400383041E+03  0.12500261870E+03 0.  0.
    9000005    1    3    3    0    0  0.27615589759E+02 -0.49918777868E+02 -0.26014549618E+03  0.26632909034E+03  0.10000000000E+01 0.  0.
    9000005    1    3    3    0    0 -0.27615589759E+02  0.49918777868E+02 -0.62507605468E+03  0.62767474007E+03  0.10000000000E+01 0.  0.
<mgrwt>
<rscale>  0 0.12500262E+03</rscale>
<asrwt>0</asrwt>
<pdfrwt beam="2">  1        4 0.13686335E+00 0.12500262E+03</pdfrwt>
<pdfrwt beam="1">  1       -4 0.67556068E-03 0.12500262E+03</pdfrwt>
<totfact> 0.34388628E+03</totfact>
</mgrwt>
</event>
<event>
 5    1  0.3309811E-002  0.1249977E+03  0.7818608E-02  0.1235073E+00
         -4   -1    0    0    0  501 -0.00000000000E+00  0.00000000000E+00  0.15673769082E+02  0.15725137113E+02  0.12700000000E+01 0. -1.
          4   -1    0    0  501    0  0.00000000000E+00 -0.00000000000E+00 -0.24875215796E+03  0.24875539992E+03  0.12700000000E+01 0. -1.
         25    2    1    2    0    0  0.00000000000E+00  0.00000000000E+00 -0.23307838887E+03  0.26448053703E+03  0.12499767641E+03 0.  0.
    9000005    1    3    3    0    0  0.35499092817E+02 -0.51302103782E+02 -0.10890635619E+03  0.12551368795E+03  0.10000000000E+01 0.  0.
    9000005    1    3    3    0    0 -0.35499092817E+02  0.51302103782E+02 -0.12417203268E+03  0.13896684908E+03  0.10000000000E+01 0.  0.
<mgrwt>
<rscale>  0 0.12499768E+03</rscale>
<asrwt>0</asrwt>
<pdfrwt beam="2">  1        4 0.38273761E-01 0.12499768E+03</pdfrwt>
<pdfrwt beam="1">  1       -4 0.24155500E-02 0.12499768E+03</pdfrwt>
<totfact> 0.80285517E+03</totfact>
</mgrwt>
</event>
<event>
 5    1  0.3309811E-002  0.1249987E+03  0.7818608E-02  0.1235071E+00
          4   -1    0    0  501    0  0.00000000000E+00  0.00000000000E+00  0.39365119390E+03  0.39365324253E+03  0.12700000000E+01 0.  1.
         -4   -1    0    0    0  501 -0.00000000000E+00 -0.00000000000E+00 -0.98802016671E+01  0.99614900985E+01  0.12700000000E+01 0.  1.
         25    2    1    2    0    0  0.00000000000E+00  0.00000000000E+00  0.38377099223E+03  0.40361473263E+03  0.12499871167E+03 0.  0.
    9000005    1    3    3    0    0  0.91334291844E+00  0.59334493719E+02  0.12863157620E+03  0.14166332883E+03  0.10000000000E+01 0.  0.
    9000005    1    3    3    0    0 -0.91334291844E+00 -0.59334493719E+02  0.25513941603E+03  0.26195140380E+03  0.10000000000E+01 0.  0.
<mgrwt>
<rscale>  0 0.12499871E+03</rscale>
<asrwt>0</asrwt>
<pdfrwt beam="1">  1        4 0.60568142E-01 0.12499871E+03</pdfrwt>
<pdfrwt beam="2">  1       -4 0.15264413E-02 0.12499871E+03</pdfrwt>
<totfact> 0.64204555E+03</totfact>
</mgrwt>
</event>
<event>
 5    1  0.3309811E-002  0.1249991E+03  0.7818608E-02  0.1235071E+00
         -4   -1    0    0    0  501 -0.00000000000E+00  0.00000000000E+00  0.10346008680E+02  0.10423665171E+02  0.12700000000E+01 0.  1.
          4   -1    0    0  501    0  0.00000000000E+00 -0.00000000000E+00 -0.37606498022E+03  0.37606712466E+03  0.12700000000E+01 0.  1.
         25    2    1    2    0    0  0.00000000000E+00  0.00000000000E+00 -0.36571897154E+03  0.38649078983E+03  0.12499905791E+03 0.  0.
    9000005    1    3    3    0    0 -0.34814349024E+02 -0.50136155931E+02 -0.22428677520E+03  0.23244618852E+03  0.10000000000E+01 0.  0.
    9000005    1    3    3    0    0  0.34814349024E+02  0.50136155931E+02 -0.14143219634E+03  0.15404460131E+03  0.10000000000E+01 0.  0.
<mgrwt>
<rscale>  0 0.12499906E+03</rscale>
<asrwt>0</asrwt>
<pdfrwt beam="2">  1        4 0.57862279E-01 0.12499906E+03</pdfrwt>
<pdfrwt beam="1">  1       -4 0.15978325E-02 0.12499906E+03</pdfrwt>
<totfact> 0.65889609E+03</totfact>
</mgrwt>
</event>
<event>
 5    1  0.3309811E-002  0.1250211E+03  0.7818608E-02  0.1235036E+00
         -4   -1    0    0    0  501 -0.00000000000E+00  0.00000000000E+00  0.55929033019E+03  0.55929177210E+03  0.12700000000E+01 0.  1.
          4   -1    0    0  501    0  0.00000000000E+00 -0.00000000000E+00 -0.69274750668E+01  0.70429262953E+01  0.12700000000E+01 0.  1.
         25    2    1    2    0    0  0.00000000000E+00  0.00000000000E+00  0.55236285512E+03  0.56633469840E+03  0.12502106579E+03 0.  0.
    9000005    1    3    3    0    0  0.38457413097E+02 -0.36655575059E+02  0.12704038085E+03  0.13770570857E+03  0.10000000000E+01 0.  0.
    9000005    1    3    3    0    0 -0.38457413097E+02  0.36655575059E+02  0.42532247427E+03  0.42862898983E+03  0.10000000000E+01 0.  0.
<mgrwt>
<rscale>  0 0.12502107E+03</rscale>
<asrwt>0</asrwt>
<pdfrwt beam="2">  1        4 0.10747573E-02 0.12502107E+03</pdfrwt>
<pdfrwt beam="1">  1       -4 0.86053645E-01 0.12502107E+03</pdfrwt>
<totfact> 0.51040440E+03</totfact>
</mgrwt>
</event>
<event>
 5    1  0.3309811E-002  0.1249988E+03  0.7818608E-02  0.1235071E+00
         -4   -1    0    0    0  501 -0.00000000000E+00  0.00000000000E+00  0.15794249303E+02  0.15845226759E+02  0.12700000000E+01 0. -1.
          4   -1    0    0  501    0  0.00000000000E+00 -0.00000000000E+00 -0.24686521047E+03  0.24686847721E+03  0.12700000000E+01 0. -1.
         25    2    1    2    0    0  0.00000000000E+00  0.00000000000E+00 -0.23107096116E+03  0.26271370397E+03  0.12499880463E+03 0.  0.
    9000005    1    3    3    0    0 -0.29428787692E+02  0.16332598202E+02 -0.22619844628E+03  0.22869093644E+03  0.10000000000E+01 0.  0.
    9000005    1    3    3    0    0  0.29428787692E+02 -0.16332598202E+02 -0.48725148827E+01  0.34022767529E+02  0.10000000000E+01 0.  0.
<mgrwt>
<rscale>  0 0.12499880E+03</rscale>
<asrwt>0</asrwt>
<pdfrwt beam="2">  1        4 0.37983433E-01 0.12499880E+03</pdfrwt>
<pdfrwt beam="1">  1       -4 0.24340573E-02 0.12499880E+03</pdfrwt>
<totfact> 0.80528877E+03</totfact>
</mgrwt>
</event>
<event>
 5    1  0.3309811E-002  0.1249971E+03  0.7818608E-02  0.1235074E+00
         -4   -1    0    0    0  501 -0.00000000000E+00  0.00000000000E+00  0.20500498643E+03  0.20500892020E+03  0.12700000000E+01 0. -1.
          4   -1    0    0  501    0  0.00000000000E+00 -0.00000000000E+00 -0.19028256471E+02  0.19070591085E+02  0.12700000000E+01 0. -1.
         25    2    1    2    0    0  0.00000000000E+00  0.00000000000E+00  0.18597672996E+03  0.22407951128E+03  0.12499713313E+03 0.  0.
    9000005    1    3    3    0    0 -0.59540789693E+02 -0.17509291991E+02  0.79889563313E+02  0.10116829182E+03  0.10000000000E+01 0.  0.
    9000005    1    3    3    0    0  0.59540789693E+02  0.17509291991E+02  0.10608716665E+03  0.12291121947E+03  0.10000000000E+01 0.  0.
<mgrwt>
<rscale>  0 0.12499713E+03</rscale>
<asrwt>0</asrwt>
<pdfrwt beam="2">  1        4 0.29309831E-02 0.12499713E+03</pdfrwt>
<pdfrwt beam="1">  1       -4 0.31542788E-01 0.12499713E+03</pdfrwt>
<totfact> 0.86232427E+03</totfact>
</mgrwt>
</event>
<event>
 5    1  0.3309811E-002  0.1249994E+03  0.7818608E-02  0.1235070E+00
          4   -1    0    0  501    0  0.00000000000E+00  0.00000000000E+00  0.29359390711E+02  0.29386846087E+02  0.12700000000E+01 0. -1.
         -4   -1    0    0    0  501 -0.00000000000E+00 -0.00000000000E+00 -0.13295557213E+03  0.13296163755E+03  0.12700000000E+01 0. -1.
         25    2    1    2    0    0  0.00000000000E+00  0.00000000000E+00 -0.10359618142E+03  0.16234848364E+03  0.12499944534E+03 0.  0.
    9000005    1    3    3    0    0  0.15076256782E+02  0.65177124913E+00  0.26963832971E+02  0.30915475297E+02  0.10000000000E+01 0.  0.
    9000005    1    3    3    0    0 -0.15076256782E+02 -0.65177124913E+00 -0.13056001439E+03  0.13143300834E+03  0.10000000000E+01 0.  0.
<mgrwt>
<rscale>  0 0.12499945E+03</rscale>
<asrwt>0</asrwt>
<pdfrwt beam="1">  1        4 0.45194079E-02 0.12499945E+03</pdfrwt>
<pdfrwt beam="2">  1       -4 0.20457282E-01 0.12499945E+03</pdfrwt>
<totfact> 0.96893125E+03</totfact>
</mgrwt>
</event>
<event>
 5    1  0.3309811E-002  0.1250001E+03  0.7818608E-02  0.1235069E+00
         -4   -1    0    0    0  501 -0.00000000000E+00  0.00000000000E+00  0.12653473841E+01  0.17927643466E+01  0.12700000000E+01 0. -1.
          4   -1    0    0  501    0  0.00000000000E+00 -0.00000000000E+00 -0.25541564176E+04  0.25541567334E+04  0.12700000000E+01 0. -1.
         25    2    1    2    0    0  0.00000000000E+00  0.00000000000E+00 -0.25528910703E+04  0.25559494977E+04  0.12500007335E+03 0.  0.
    9000005    1    3    3    0    0 -0.49004250435E+02  0.37323194066E+02 -0.10611943241E+04  0.10629811056E+04  0.10000000000E+01 0.  0.
    9000005    1    3    3    0    0  0.49004250435E+02 -0.37323194066E+02 -0.14916967461E+04  0.14929683921E+04  0.10000000000E+01 0.  0.
<mgrwt>
<rscale>  0 0.12500007E+03</rscale>
<asrwt>0</asrwt>
<pdfrwt beam="2">  1        4 0.39298432E+00 0.12500007E+03</pdfrwt>
<pdfrwt beam="1">  1       -4 0.23526570E-03 0.12500007E+03</pdfrwt>
<totfact> 0.42447003E+02</totfact>
</mgrwt>
</event>
<event>
 5    1  0.3309811E-002  0.1249970E+03  0.7818608E-02  0.1235074E+00
         -4   -1    0    0    0  501 -0.00000000000E+00  0.00000000000E+00  0.22289935232E+02  0.22326085923E+02  0.12700000000E+01 0.  1.
          4   -1    0    0  501    0  0.00000000000E+00 -0.00000000000E+00 -0.17505849924E+03  0.17506310593E+03  0.12700000000E+01 0.  1.
         25    2    1    2    0    0  0.00000000000E+00  0.00000000000E+00 -0.15276856401E+03  0.19738919185E+03  0.12499703560E+03 0.  0.
    9000005    1    3    3    0    0 -0.61013580444E+02  0.10830491203E+02 -0.89126395345E+02  0.10855630284E+03  0.10000000000E+01 0.  0.
    9000005    1    3    3    0    0  0.61013580444E+02 -0.10830491203E+02 -0.63642168664E+02  0.88832889014E+02  0.10000000000E+01 0.  0.
<mgrwt>
<rscale>  0 0.12499704E+03</rscale>
<asrwt>0</asrwt>
<pdfrwt beam="2">  1        4 0.26935211E-01 0.12499704E+03</pdfrwt>
<pdfrwt beam="1">  1       -4 0.34323561E-02 0.12499704E+03</pdfrwt>
<totfact> 0.90583288E+03</totfact>
</mgrwt>
</event>
<event>
 5    1  0.3309811E-002  0.1250003E+03  0.7818608E-02  0.1235069E+00
         -4   -1    0    0    0  501 -0.00000000000E+00  0.00000000000E+00  0.11685014631E+04  0.11685021533E+04  0.12700000000E+01 0. -1.
          4   -1    0    0  501    0  0.00000000000E+00 -0.00000000000E+00 -0.32216359655E+01  0.34629233740E+01  0.12700000000E+01 0. -1.
         25    2    1    2    0    0  0.00000000000E+00  0.00000000000E+00  0.11652798272E+04  0.11719650767E+04  0.12500026127E+03 0.  0.
    9000005    1    3    3    0    0 -0.13555451358E+02  0.49706326889E+02  0.91422667916E+03  0.91567783094E+03  0.10000000000E+01 0.  0.
    9000005    1    3    3    0    0  0.13555451358E+02 -0.49706326889E+02  0.25105314800E+03  0.25628724571E+03  0.10000000000E+01 0.  0.
<mgrwt>
<rscale>  0 0.12500026E+03</rscale>
<asrwt>0</asrwt>
<pdfrwt beam="2">  1        4 0.51424989E-03 0.12500026E+03</pdfrwt>
<pdfrwt beam="1">  1       -4 0.17978809E+00 0.12500026E+03</pdfrwt>
<totfact> 0.25458430E+03</totfact>
</mgrwt>
</event>
<event>
 5    1  0.3309811E-002  0.1249974E+03  0.7818608E-02  0.1235073E+00
         -4   -1    0    0    0  501 -0.00000000000E+00  0.00000000000E+00  0.22928836799E+03  0.22929188515E+03  0.12700000000E+01 0. -1.
          4   -1    0    0  501    0  0.00000000000E+00 -0.00000000000E+00 -0.17008375119E+02  0.17055724088E+02  0.12700000000E+01 0. -1.
         25    2    1    2    0    0  0.00000000000E+00  0.00000000000E+00  0.21227999287E+03  0.24634760923E+03  0.12499739679E+03 0.  0.
    9000005    1    3    3    0    0  0.61071877803E+02  0.62910772156E+01  0.12910116204E+03  0.14295965148E+03  0.10000000000E+01 0.  0.
    9000005    1    3    3    0    0 -0.61071877803E+02 -0.62910772156E+01  0.83178830829E+02  0.10338795776E+03  0.10000000000E+01 0.  0.
<mgrwt>
<rscale>  0 0.12499740E+03</rscale>
<asrwt>0</asrwt>
<pdfrwt beam="2">  1        4 0.26205860E-02 0.12499740E+03</pdfrwt>
<pdfrwt beam="1">  1       -4 0.35279044E-01 0.12499740E+03</pdfrwt>
<totfact> 0.82865801E+03</totfact>
</mgrwt>
</event>
<event>
 5    1  0.3309811E-002  0.1249984E+03  0.7818608E-02  0.1235072E+00
         -4   -1    0    0    0  501 -0.00000000000E+00  0.00000000000E+00  0.21371416940E+02  0.21409118666E+02  0.12700000000E+01 0. -1.
          4   -1    0    0  501    0  0.00000000000E+00 -0.00000000000E+00 -0.18257353266E+03  0.18257794973E+03  0.12700000000E+01 0. -1.
         25    2    1    2    0    0  0.00000000000E+00  0.00000000000E+00 -0.16120211572E+03  0.20398706839E+03  0.12499840783E+03 0.  0.
    9000005    1    3    3    0    0  0.41406972169E+02 -0.41476113248E+02 -0.11599317170E+03  0.12996238377E+03  0.10000000000E+01 0.  0.
    9000005    1    3    3    0    0 -0.41406972169E+02  0.41476113248E+02 -0.45208944017E+02  0.74024684623E+02  0.10000000000E+01 0.  0.
<mgrwt>
<rscale>  0 0.12499841E+03</rscale>
<asrwt>0</asrwt>
<pdfrwt beam="2">  1        4 0.28091475E-01 0.12499841E+03</pdfrwt>
<pdfrwt beam="1">  1       -4 0.32911503E-02 0.12499841E+03</pdfrwt>
<totfact> 0.89470571E+03</totfact>
</mgrwt>
</event>
<event>
 5    1  0.3309811E-002  0.1250024E+03  0.7818608E-02  0.1235065E+00
         -4   -1    0    0    0  501 -0.00000000000E+00  0.00000000000E+00  0.27566973296E+02  0.27596211999E+02  0.12700000000E+01 0.  1.
          4   -1    0    0  501    0  0.00000000000E+00 -0.00000000000E+00 -0.14159865800E+03  0.14160435321E+03  0.12700000000E+01 0.  1.
         25    2    1    2    0    0  0.00000000000E+00  0.00000000000E+00 -0.11403168470E+03  0.16920056520E+03  0.12500242458E+03 0.  0.
    9000005    1    3    3    0    0  0.50884986900E+02  0.36276075984E+02 -0.56464424380E+02  0.84228657838E+02  0.10000000000E+01 0.  0.
    9000005    1    3    3    0    0 -0.50884986900E+02 -0.36276075984E+02 -0.57567260321E+02  0.84971907367E+02  0.10000000000E+01 0.  0.
<mgrwt>
<rscale>  0 0.12500242E+03</rscale>
<asrwt>0</asrwt>
<pdfrwt beam="2">  1        4 0.21787096E-01 0.12500242E+03</pdfrwt>
<pdfrwt beam="1">  1       -4 0.42437601E-02 0.12500242E+03</pdfrwt>
<totfact> 0.95592529E+03</totfact>
</mgrwt>
</event>
<event>
 5    1  0.3309811E-002  0.1249984E+03  0.7818608E-02  0.1235072E+00
          4   -1    0    0  501    0  0.00000000000E+00  0.00000000000E+00  0.31859663756E+02  0.31884966279E+02  0.12700000000E+01 0. -1.
         -4   -1    0    0    0  501 -0.00000000000E+00 -0.00000000000E+00 -0.12252751984E+03  0.12253410145E+03  0.12700000000E+01 0. -1.
         25    2    1    2    0    0  0.00000000000E+00  0.00000000000E+00 -0.90667856084E+02  0.15441906773E+03  0.12499835339E+03 0.  0.
    9000005    1    3    3    0    0 -0.55982125132E+02  0.24262745409E+02 -0.62021375724E+02  0.87007644467E+02  0.10000000000E+01 0.  0.
    9000005    1    3    3    0    0  0.55982125132E+02 -0.24262745409E+02 -0.28646480360E+02  0.67411423261E+02  0.10000000000E+01 0.  0.
<mgrwt>
<rscale>  0 0.12499835E+03</rscale>
<asrwt>0</asrwt>
<pdfrwt beam="1">  1        4 0.49039394E-02 0.12499835E+03</pdfrwt>
<pdfrwt beam="2">  1       -4 0.18852840E-01 0.12499835E+03</pdfrwt>
<totfact> 0.98433309E+03</totfact>
</mgrwt>
</event>
<event>
 5    1  0.3309811E-002  0.1250024E+03  0.7818608E-02  0.1235066E+00
         -4   -1    0    0    0  501 -0.00000000000E+00  0.00000000000E+00  0.27112543407E+02  0.27142271644E+02  0.12700000000E+01 0. -1.
          4   -1    0    0  501    0  0.00000000000E+00 -0.00000000000E+00 -0.14396932946E+03  0.14397493090E+03  0.12700000000E+01 0. -1.
         25    2    1    2    0    0  0.00000000000E+00  0.00000000000E+00 -0.11685678606E+03  0.17111720254E+03  0.12500235421E+03 0.  0.
    9000005    1    3    3    0    0 -0.10811416370E+01  0.62118354429E+02 -0.49190690810E+02  0.79250128621E+02  0.10000000000E+01 0.  0.
    9000005    1    3    3    0    0  0.10811416370E+01 -0.62118354429E+02 -0.67666095248E+02  0.91867073918E+02  0.10000000000E+01 0.  0.
<mgrwt>
<rscale>  0 0.12500235E+03</rscale>
<asrwt>0</asrwt>
<pdfrwt beam="2">  1        4 0.22151845E-01 0.12500235E+03</pdfrwt>
<pdfrwt beam="1">  1       -4 0.41738783E-02 0.12500235E+03</pdfrwt>
<totfact> 0.95235783E+03</totfact>
</mgrwt>
</event>
<event>
 5    1  0.3309811E-002  0.1249993E+03  0.7818608E-02  0.1235070E+00
         -4   -1    0    0    0  501 -0.00000000000E+00  0.00000000000E+00  0.19372964879E+03  0.19373381151E+03  0.12700000000E+01 0. -1.
          4   -1    0    0  501    0  0.00000000000E+00 -0.00000000000E+00 -0.20138810936E+02  0.20178815771E+02  0.12700000000E+01 0. -1.
         25    2    1    2    0    0  0.00000000000E+00  0.00000000000E+00  0.17359083786E+03  0.21391262728E+03  0.12499933248E+03 0.  0.
    9000005    1    3    3    0    0  0.55014281626E+02  0.80789802572E-01  0.36069271119E+02  0.65791869018E+02  0.10000000000E+01 0.  0.
    9000005    1    3    3    0    0 -0.55014281626E+02 -0.80789802572E-01  0.13752156674E+03  0.14812075826E+03  0.10000000000E+01 0.  0.
<mgrwt>
<rscale>  0 0.12499933E+03</rscale>
<asrwt>0</asrwt>
<pdfrwt beam="2">  1        4 0.31016761E-02 0.12499933E+03</pdfrwt>
<pdfrwt beam="1">  1       -4 0.29807959E-01 0.12499933E+03</pdfrwt>
<totfact> 0.87842168E+03</totfact>
</mgrwt>
</event>
<event>
 5    1  0.3309811E-002  0.1250039E+03  0.7818608E-02  0.1235063E+00
         -4   -1    0    0    0  501 -0.00000000000E+00  0.00000000000E+00  0.89024641394E+02  0.89033699661E+02  0.12700000000E+01 0.  1.
          4   -1    0    0  501    0  0.00000000000E+00 -0.00000000000E+00 -0.43860590962E+02  0.43878973775E+02  0.12700000000E+01 0.  1.
         25    2    1    2    0    0  0.00000000000E+00  0.00000000000E+00  0.45164050432E+02  0.13291267344E+03  0.12500394917E+03 0.  0.
    9000005    1    3    3    0    0 -0.60342049833E+02 -0.15941828866E+02  0.25976488534E+02  0.67609783628E+02  0.10000000000E+01 0.  0.
    9000005    1    3    3    0    0  0.60342049833E+02  0.15941828866E+02  0.19187561897E+02  0.65302889808E+02  0.10000000000E+01 0.  0.
<mgrwt>
<rscale>  0 0.12500395E+03</rscale>
<asrwt>0</asrwt>
<pdfrwt beam="2">  1        4 0.67498942E-02 0.12500395E+03</pdfrwt>
<pdfrwt beam="1">  1       -4 0.13698209E-01 0.12500395E+03</pdfrwt>
<totfact> 0.10281340E+04</totfact>
</mgrwt>
</event>
<event>
 5    1  0.3309811E-002  0.1249886E+03  0.7818608E-02  0.1235087E+00
          4   -1    0    0  501    0  0.00000000000E+00  0.00000000000E+00  0.28454893071E+03  0.28455176483E+03  0.12700000000E+01 0. -1.
         -4   -1    0    0    0  501 -0.00000000000E+00 -0.00000000000E+00 -0.13693074130E+02  0.13751842754E+02  0.12700000000E+01 0. -1.
         25    2    1    2    0    0  0.00000000000E+00  0.00000000000E+00  0.27085585658E+03  0.29830360759E+03  0.12498858850E+03 0.  0.
    9000005    1    3    3    0    0  0.25481504745E+02  0.10422892075E+02  0.15501700383E+01  0.27592513304E+02  0.10000000000E+01 0.  0.
    9000005    1    3    3    0    0 -0.25481504745E+02 -0.10422892075E+02  0.26930568655E+03  0.27071109429E+03  0.10000000000E+01 0.  0.
<mgrwt>
<rscale>  0 0.12498859E+03</rscale>
<asrwt>0</asrwt>
<pdfrwt beam="1">  1        4 0.43781496E-01 0.12498859E+03</pdfrwt>
<pdfrwt beam="2">  1       -4 0.21113655E-02 0.12498859E+03</pdfrwt>
<totfact> 0.75831335E+03</totfact>
</mgrwt>
</event>
<event>
 5    1  0.3309811E-002  0.1250005E+03  0.7818608E-02  0.1235069E+00
          4   -1    0    0  501    0  0.00000000000E+00  0.00000000000E+00  0.23561996756E+02  0.23596198659E+02  0.12700000000E+01 0.  1.
         -4   -1    0    0    0  501 -0.00000000000E+00 -0.00000000000E+00 -0.16563047891E+03  0.16563534781E+03  0.12700000000E+01 0.  1.
         25    2    1    2    0    0  0.00000000000E+00  0.00000000000E+00 -0.14206848216E+03  0.18923154647E+03  0.12500049823E+03 0.  0.
    9000005    1    3    3    0    0 -0.56358134663E+02 -0.14428489379E+02 -0.36484682538E+02  0.68677162932E+02  0.10000000000E+01 0.  0.
    9000005    1    3    3    0    0  0.56358134663E+02  0.14428489379E+02 -0.10558379962E+03  0.12055438354E+03  0.10000000000E+01 0.  0.
<mgrwt>
<rscale>  0 0.12500050E+03</rscale>
<asrwt>0</asrwt>
<pdfrwt beam="1">  1        4 0.36279281E-02 0.12500050E+03</pdfrwt>
<pdfrwt beam="2">  1       -4 0.25484617E-01 0.12500050E+03</pdfrwt>
<totfact> 0.91980169E+03</totfact>
</mgrwt>
</event>
<event>
 5    1  0.3309811E-002  0.1249978E+03  0.7818608E-02  0.1235073E+00
          4   -1    0    0  501    0  0.00000000000E+00  0.00000000000E+00  0.65504432880E+03  0.65504555994E+03  0.12700000000E+01 0.  1.
         -4   -1    0    0    0  501 -0.00000000000E+00 -0.00000000000E+00 -0.58942524473E+01  0.60295200400E+01  0.12700000000E+01 0.  1.
         25    2    1    2    0    0  0.00000000000E+00  0.00000000000E+00  0.64915007636E+03  0.66107507998E+03  0.12499775893E+03 0.  0.
    9000005    1    3    3    0    0 -0.10484156736E+02  0.59091449435E+02  0.23245558855E+03  0.24007981503E+03  0.10000000000E+01 0.  0.
    9000005    1    3    3    0    0  0.10484156736E+02 -0.59091449435E+02  0.41669448781E+03  0.42099526495E+03  0.10000000000E+01 0.  0.
<mgrwt>
<rscale>  0 0.12499776E+03</rscale>
<asrwt>0</asrwt>
<pdfrwt beam="1">  1        4 0.10078649E+00 0.12499776E+03</pdfrwt>
<pdfrwt beam="2">  1       -4 0.91730851E-03 0.12499776E+03</pdfrwt>
<totfact> 0.45224775E+03</totfact>
</mgrwt>
</event>
<event>
 5    1  0.3309811E-002  0.1250200E+03  0.7818608E-02  0.1235038E+00
         -4   -1    0    0    0  501 -0.00000000000E+00  0.00000000000E+00  0.15315879689E+03  0.15316406225E+03  0.12700000000E+01 0. -1.
          4   -1    0    0  501    0  0.00000000000E+00 -0.00000000000E+00 -0.25491241853E+02  0.25522858602E+02  0.12700000000E+01 0. -1.
         25    2    1    2    0    0  0.00000000000E+00  0.00000000000E+00  0.12766755504E+03  0.17868692085E+03  0.12502004269E+03 0.  0.
    9000005    1    3    3    0    0  0.27286368723E+02 -0.37516640703E+00  0.14420145640E+03  0.14676425552E+03  0.10000000000E+01 0.  0.
    9000005    1    3    3    0    0 -0.27286368723E+02  0.37516640703E+00 -0.16533901366E+02  0.31922665338E+02  0.10000000000E+01 0.  0.
<mgrwt>
<rscale>  0 0.12502004E+03</rscale>
<asrwt>0</asrwt>
<pdfrwt beam="2">  1        4 0.39245667E-02 0.12502004E+03</pdfrwt>
<pdfrwt beam="1">  1       -4 0.23565728E-01 0.12502004E+03</pdfrwt>
<totfact> 0.93811727E+03</totfact>
</mgrwt>
</event>
<event>
 5    1  0.3309811E-002  0.1250031E+03  0.7818608E-02  0.1235064E+00
          4   -1    0    0  501    0  0.00000000000E+00  0.00000000000E+00  0.47644385381E+01  0.49307985746E+01  0.12700000000E+01 0. -1.
         -4   -1    0    0    0  501 -0.00000000000E+00 -0.00000000000E+00 -0.80568133169E+03  0.80568233264E+03  0.12700000000E+01 0. -1.
         25    2    1    2    0    0  0.00000000000E+00  0.00000000000E+00 -0.80091689315E+03  0.81061313122E+03  0.12500311503E+03 0.  0.
    9000005    1    3    3    0    0 -0.60372223413E+02  0.15991086558E+02 -0.41484885442E+03  0.41952484100E+03  0.10000000000E+01 0.  0.
    9000005    1    3    3    0    0  0.60372223413E+02 -0.15991086558E+02 -0.38606803874E+03  0.39108829021E+03  0.10000000000E+01 0.  0.
<mgrwt>
<rscale>  0 0.12500312E+03</rscale>
<asrwt>0</asrwt>
<pdfrwt beam="1">  1        4 0.74586511E-03 0.12500312E+03</pdfrwt>
<pdfrwt beam="2">  1       -4 0.12396374E+00 0.12500312E+03</pdfrwt>
<totfact> 0.37792756E+03</totfact>
</mgrwt>
</event>
<event>
 5    1  0.3309811E-002  0.1250005E+03  0.7818608E-02  0.1235069E+00
          4   -1    0    0  501    0  0.00000000000E+00  0.00000000000E+00  0.92760815992E+03  0.92760902931E+03  0.12700000000E+01 0. -1.
         -4   -1    0    0    0  501 -0.00000000000E+00 -0.00000000000E+00 -0.41144861579E+01  0.43060302302E+01  0.12700000000E+01 0. -1.
         25    2    1    2    0    0  0.00000000000E+00  0.00000000000E+00  0.92349367376E+03  0.93191505954E+03  0.12500045085E+03 0.  0.
    9000005    1    3    3    0    0 -0.38935299325E+02 -0.46247344771E+02  0.34374959314E+03  0.34902658526E+03  0.10000000000E+01 0.  0.
    9000005    1    3    3    0    0  0.38935299325E+02  0.46247344771E+02  0.57974408062E+03  0.58288847427E+03  0.10000000000E+01 0.  0.
<mgrwt>
<rscale>  0 0.12500045E+03</rscale>
<asrwt>0</asrwt>
<pdfrwt beam="1">  1        4 0.14272383E+00 0.12500045E+03</pdfrwt>
<pdfrwt beam="2">  1       -4 0.64779855E-03 0.12500045E+03</pdfrwt>
<totfact> 0.32966542E+03</totfact>
</mgrwt>
</event>
<event>
 5    1  0.3309811E-002  0.1249728E+03  0.7818608E-02  0.1235112E+00
          4   -1    0    0  501    0  0.00000000000E+00  0.00000000000E+00  0.76396793893E+03  0.76396899454E+03  0.12700000000E+01 0. -1.
         -4   -1    0    0    0  501 -0.00000000000E+00 -0.00000000000E+00 -0.50309074097E+01  0.51887309975E+01  0.12700000000E+01 0. -1.
         25    2    1    2    0    0  0.00000000000E+00  0.00000000000E+00  0.75893703152E+03  0.76915772553E+03  0.12497275277E+03 0.  0.
    9000005    1    3    3    0    0 -0.17958474620E+02  0.31696083207E+02  0.67071692578E+02  0.76333219811E+02  0.10000000000E+01 0.  0.
    9000005    1    3    3    0    0  0.17958474620E+02 -0.31696083207E+02  0.69186533894E+03  0.69282450572E+03  0.10000000000E+01 0.  0.
<mgrwt>
<rscale>  0 0.12497275E+03</rscale>
<asrwt>0</asrwt>
<pdfrwt beam="1">  1        4 0.11754578E+00 0.12497275E+03</pdfrwt>
<pdfrwt beam="2">  1       -4 0.78620703E-03 0.12497275E+03</pdfrwt>
<totfact> 0.39697776E+03</totfact>
</mgrwt>
</event>
<event>
 5    1  0.3309811E-002  0.1249992E+03  0.7818608E-02  0.1235071E+00
         -4   -1    0    0    0  501 -0.00000000000E+00  0.00000000000E+00  0.91857172693E+02  0.91865951664E+02  0.12700000000E+01 0.  1.
          4   -1    0    0  501    0  0.00000000000E+00 -0.00000000000E+00 -0.42504399197E+02  0.42523368295E+02  0.12700000000E+01 0.  1.
         25    2    1    2    0    0  0.00000000000E+00  0.00000000000E+00  0.49352773496E+02  0.13438931996E+03  0.12499917227E+03 0.  0.
    9000005    1    3    3    0    0  0.43529209786E+02 -0.92928303389E+01  0.71835511459E+02  0.84513250481E+02  0.10000000000E+01 0.  0.
    9000005    1    3    3    0    0 -0.43529209786E+02  0.92928303389E+01 -0.22482737963E+02  0.49876069478E+02  0.10000000000E+01 0.  0.
<mgrwt>
<rscale>  0 0.12499917E+03</rscale>
<asrwt>0</asrwt>
<pdfrwt beam="2">  1        4 0.65412730E-02 0.12499917E+03</pdfrwt>
<pdfrwt beam="1">  1       -4 0.14134007E-01 0.12499917E+03</pdfrwt>
<totfact> 0.10251150E+04</totfact>
</mgrwt>
</event>
<event>
 5    1  0.3309811E-002  0.1250091E+03  0.7818608E-02  0.1235055E+00
          4   -1    0    0  501    0  0.00000000000E+00  0.00000000000E+00  0.94888136472E+02  0.94896635046E+02  0.12700000000E+01 0. -1.
         -4   -1    0    0    0  501 -0.00000000000E+00 -0.00000000000E+00 -0.41152767880E+02  0.41172359712E+02  0.12700000000E+01 0. -1.
         25    2    1    2    0    0  0.00000000000E+00  0.00000000000E+00  0.53735368591E+02  0.13606899476E+03  0.12500912565E+03 0.  0.
    9000005    1    3    3    0    0 -0.37354810534E+01  0.61945796557E+02  0.34909488541E+02  0.71210307680E+02  0.10000000000E+01 0.  0.
    9000005    1    3    3    0    0  0.37354810534E+01 -0.61945796557E+02  0.18825880050E+02  0.64858687077E+02  0.10000000000E+01 0.  0.
<mgrwt>
<rscale>  0 0.12500913E+03</rscale>
<asrwt>0</asrwt>
<pdfrwt beam="1">  1        4 0.14600335E-01 0.12500913E+03</pdfrwt>
<pdfrwt beam="2">  1       -4 0.63333560E-02 0.12500913E+03</pdfrwt>
<totfact> 0.10213486E+04</totfact>
</mgrwt>
</event>
<event>
 5    1  0.3309811E-002  0.1249999E+03  0.7818608E-02  0.1235069E+00
          4   -1    0    0  501    0  0.00000000000E+00  0.00000000000E+00  0.12920037727E+02  0.12982306223E+02  0.12700000000E+01 0.  1.
         -4   -1    0    0    0  501 -0.00000000000E+00 -0.00000000000E+00 -0.30154944635E+03  0.30155212069E+03  0.12700000000E+01 0.  1.
         25    2    1    2    0    0  0.00000000000E+00  0.00000000000E+00 -0.28862940862E+03  0.31453442691E+03  0.12499988077E+03 0.  0.
    9000005    1    3    3    0    0 -0.48725384837E+02 -0.38086982839E+02 -0.12174365599E+03  0.13655511402E+03  0.10000000000E+01 0.  0.
    9000005    1    3    3    0    0  0.48725384837E+02  0.38086982839E+02 -0.16688575263E+03  0.17797931290E+03  0.10000000000E+01 0.  0.
<mgrwt>
<rscale>  0 0.12499988E+03</rscale>
<asrwt>0</asrwt>
<pdfrwt beam="1">  1        4 0.19926940E-02 0.12499988E+03</pdfrwt>
<pdfrwt beam="2">  1       -4 0.46397213E-01 0.12499988E+03</pdfrwt>
<totfact> 0.73811130E+03</totfact>
</mgrwt>
</event>
<event>
 5    1  0.3309811E-002  0.1249989E+03  0.7818608E-02  0.1235071E+00
          4   -1    0    0  501    0  0.00000000000E+00  0.00000000000E+00  0.57516938719E+01  0.58902361918E+01  0.12700000000E+01 0. -1.
         -4   -1    0    0    0  501 -0.00000000000E+00 -0.00000000000E+00 -0.67091504121E+03  0.67091624322E+03  0.12700000000E+01 0. -1.
         25    2    1    2    0    0  0.00000000000E+00  0.00000000000E+00 -0.66516334733E+03  0.67680647941E+03  0.12499892774E+03 0.  0.
    9000005    1    3    3    0    0  0.85123501141E+01  0.54210519898E+02 -0.49446905252E+03  0.49750566276E+03  0.10000000000E+01 0.  0.
    9000005    1    3    3    0    0 -0.85123501141E+01 -0.54210519898E+02 -0.17069429481E+03  0.17930081666E+03  0.10000000000E+01 0.  0.
<mgrwt>
<rscale>  0 0.12499893E+03</rscale>
<asrwt>0</asrwt>
<pdfrwt beam="1">  1        4 0.89562608E-03 0.12499893E+03</pdfrwt>
<pdfrwt beam="2">  1       -4 0.10322839E+00 0.12499893E+03</pdfrwt>
<totfact> 0.44340720E+03</totfact>
</mgrwt>
</event>
<event>
 5    1  0.3309811E-002  0.1250007E+03  0.7818608E-02  0.1235068E+00
          4   -1    0    0  501    0  0.00000000000E+00  0.00000000000E+00  0.10689259142E+02  0.10764439652E+02  0.12700000000E+01 0.  1.
         -4   -1    0    0    0  501 -0.00000000000E+00 -0.00000000000E+00 -0.36408399104E+03  0.36408620604E+03  0.12700000000E+01 0.  1.
         25    2    1    2    0    0  0.00000000000E+00  0.00000000000E+00 -0.35339473190E+03  0.37485064570E+03  0.12500068018E+03 0.  0.
    9000005    1    3    3    0    0  0.28916835182E+02 -0.34511128087E+02 -0.30665572683E+03  0.30994505338E+03  0.10000000000E+01 0.  0.
    9000005    1    3    3    0    0 -0.28916835182E+02  0.34511128087E+02 -0.46739005067E+02  0.64905592312E+02  0.10000000000E+01 0.  0.
<mgrwt>
<rscale>  0 0.12500068E+03</rscale>
<asrwt>0</asrwt>
<pdfrwt beam="1">  1        4 0.16504552E-02 0.12500068E+03</pdfrwt>
<pdfrwt beam="2">  1       -4 0.56018866E-01 0.12500068E+03</pdfrwt>
<totfact> 0.67073500E+03</totfact>
</mgrwt>
</event>
<event>
 5    1  0.3309811E-002  0.1249874E+03  0.7818608E-02  0.1235089E+00
          4   -1    0    0  501    0  0.00000000000E+00  0.00000000000E+00  0.50334592915E+03  0.50334753132E+03  0.12700000000E+01 0. -1.
         -4   -1    0    0    0  501 -0.00000000000E+00 -0.00000000000E+00 -0.77054029789E+01  0.78093620141E+01  0.12700000000E+01 0. -1.
         25    2    1    2    0    0  0.00000000000E+00  0.00000000000E+00  0.49564052617E+03  0.51115689334E+03  0.12498735306E+03 0.  0.
    9000005    1    3    3    0    0  0.21948248942E+02 -0.47016684359E+02  0.10543367388E+03  0.11751405800E+03  0.10000000000E+01 0.  0.
    9000005    1    3    3    0    0 -0.21948248942E+02  0.47016684359E+02  0.39020685229E+03  0.39364283534E+03  0.10000000000E+01 0.  0.
<mgrwt>
<rscale>  0 0.12498735E+03</rscale>
<asrwt>0</asrwt>
<pdfrwt beam="1">  1        4 0.77445976E-01 0.12498735E+03</pdfrwt>
<pdfrwt beam="2">  1       -4 0.11935664E-02 0.12498735E+03</pdfrwt>
<totfact> 0.55024285E+03</totfact>
</mgrwt>
</event>
<event>
 5    1  0.3309811E-002  0.1249899E+03  0.7818608E-02  0.1235085E+00
          4   -1    0    0  501    0  0.00000000000E+00  0.00000000000E+00  0.45854224909E+01  0.47580457564E+01  0.12700000000E+01 0. -1.
         -4   -1    0    0    0  501 -0.00000000000E+00 -0.00000000000E+00 -0.83583754956E+03  0.83583851440E+03  0.12700000000E+01 0. -1.
         25    2    1    2    0    0  0.00000000000E+00  0.00000000000E+00 -0.83125212707E+03  0.84059656016E+03  0.12498991235E+03 0.  0.
    9000005    1    3    3    0    0  0.48343743093E+02  0.38780024382E+02 -0.36198697970E+03  0.36725547138E+03  0.10000000000E+01 0.  0.
    9000005    1    3    3    0    0 -0.48343743093E+02 -0.38780024382E+02 -0.46926514737E+03  0.47334108878E+03  0.10000000000E+01 0.  0.
<mgrwt>
<rscale>  0 0.12498991E+03</rscale>
<asrwt>0</asrwt>
<pdfrwt beam="1">  1        4 0.71880321E-03 0.12498991E+03</pdfrwt>
<pdfrwt beam="2">  1       -4 0.12860363E+00 0.12498991E+03</pdfrwt>
<totfact> 0.36523318E+03</totfact>
</mgrwt>
</event>
<event>
 5    1  0.3309811E-002  0.1249845E+03  0.7818608E-02  0.1235093E+00
          4   -1    0    0  501    0  0.00000000000E+00  0.00000000000E+00  0.86434825616E+02  0.86444155264E+02  0.12700000000E+01 0.  1.
         -4   -1    0    0    0  501 -0.00000000000E+00 -0.00000000000E+00 -0.45161117732E+02  0.45178971378E+02  0.12700000000E+01 0.  1.
         25    2    1    2    0    0  0.00000000000E+00  0.00000000000E+00  0.41273707884E+02  0.13162312664E+03  0.12498451306E+03 0.  0.
    9000005    1    3    3    0    0  0.51699333255E+02 -0.10569702227E+02 -0.14603079076E+02  0.54761205088E+02  0.10000000000E+01 0.  0.
    9000005    1    3    3    0    0 -0.51699333255E+02  0.10569702227E+02  0.55876786960E+02  0.76861921555E+02  0.10000000000E+01 0.  0.
<mgrwt>
<rscale>  0 0.12498451E+03</rscale>
<asrwt>0</asrwt>
<pdfrwt beam="1">  1        4 0.13299757E-01 0.12498451E+03</pdfrwt>
<pdfrwt beam="2">  1       -4 0.69499553E-02 0.12498451E+03</pdfrwt>
<totfact> 0.10313352E+04</totfact>
</mgrwt>
</event>
<event>
 5    1  0.3309811E-002  0.1249897E+03  0.7818608E-02  0.1235085E+00
          4   -1    0    0  501    0  0.00000000000E+00  0.00000000000E+00  0.57737440823E+01  0.59117696782E+01  0.12700000000E+01 0. -1.
         -4   -1    0    0    0  501 -0.00000000000E+00 -0.00000000000E+00 -0.66831373478E+03  0.66831494147E+03  0.12700000000E+01 0. -1.
         25    2    1    2    0    0  0.00000000000E+00  0.00000000000E+00 -0.66253999069E+03  0.67422671115E+03  0.12498967460E+03 0.  0.
    9000005    1    3    3    0    0 -0.26724409287E+02 -0.29641598894E+02 -0.71908408213E+02  0.82247417033E+02  0.10000000000E+01 0.  0.
    9000005    1    3    3    0    0  0.26724409287E+02  0.29641598894E+02 -0.59063158248E+03  0.59197929411E+03  0.10000000000E+01 0.  0.
<mgrwt>
<rscale>  0 0.12498967E+03</rscale>
<asrwt>0</asrwt>
<pdfrwt beam="1">  1        4 0.89897903E-03 0.12498967E+03</pdfrwt>
<pdfrwt beam="2">  1       -4 0.10282815E+00 0.12498967E+03</pdfrwt>
<totfact> 0.44492673E+03</totfact>
</mgrwt>
</event>
<event>
 5    1  0.3309811E-002  0.1249997E+03  0.7818608E-02  0.1235070E+00
          4   -1    0    0  501    0  0.00000000000E+00  0.00000000000E+00  0.39491979813E+03  0.39492184018E+03  0.12700000000E+01 0.  1.
         -4   -1    0    0    0  501 -0.00000000000E+00 -0.00000000000E+00 -0.98483661952E+01  0.99299152420E+01  0.12700000000E+01 0.  1.
         25    2    1    2    0    0  0.00000000000E+00  0.00000000000E+00  0.38507143193E+03  0.40485175542E+03  0.12499974472E+03 0.  0.
    9000005    1    3    3    0    0 -0.48596668709E+02 -0.31887309249E+02  0.26687334221E+03  0.27313150218E+03  0.10000000000E+01 0.  0.
    9000005    1    3    3    0    0  0.48596668709E+02  0.31887309249E+02  0.11819808972E+03  0.13172025325E+03  0.10000000000E+01 0.  0.
<mgrwt>
<rscale>  0 0.12499974E+03</rscale>
<asrwt>0</asrwt>
<pdfrwt beam="1">  1        4 0.60763314E-01 0.12499974E+03</pdfrwt>
<pdfrwt beam="2">  1       -4 0.15215635E-02 0.12499974E+03</pdfrwt>
<totfact> 0.64083997E+03</totfact>
</mgrwt>
</event>
<event>
 5    1  0.3309811E-002  0.1249897E+03  0.7818608E-02  0.1235085E+00
         -4   -1    0    0    0  501 -0.00000000000E+00  0.00000000000E+00  0.43636950392E+02  0.43655427377E+02  0.12700000000E+01 0.  1.
          4   -1    0    0  501    0  0.00000000000E+00 -0.00000000000E+00 -0.89460359448E+02  0.89469373601E+02  0.12700000000E+01 0.  1.
         25    2    1    2    0    0  0.00000000000E+00  0.00000000000E+00 -0.45823409056E+02  0.13312480098E+03  0.12498971085E+03 0.  0.
    9000005    1    3    3    0    0 -0.15742087832E+02  0.13156279859E+02  0.39952793456E+02  0.44923565463E+02  0.10000000000E+01 0.  0.
    9000005    1    3    3    0    0  0.15742087832E+02 -0.13156279859E+02 -0.85776202512E+02  0.88201235515E+02  0.10000000000E+01 0.  0.
<mgrwt>
<rscale>  0 0.12498971E+03</rscale>
<asrwt>0</asrwt>
<pdfrwt beam="2">  1        4 0.13765247E-01 0.12498971E+03</pdfrwt>
<pdfrwt beam="1">  1       -4 0.67154917E-02 0.12498971E+03</pdfrwt>
<totfact> 0.10280134E+04</totfact>
</mgrwt>
</event>
<event>
 5    1  0.3309811E-002  0.1249986E+03  0.7818608E-02  0.1235072E+00
          4   -1    0    0  501    0  0.00000000000E+00  0.00000000000E+00  0.18510648598E+02  0.18554164263E+02  0.12700000000E+01 0. -1.
         -4   -1    0    0    0  501 -0.00000000000E+00 -0.00000000000E+00 -0.21072917562E+03  0.21073300253E+03  0.12700000000E+01 0. -1.
         25    2    1    2    0    0  0.00000000000E+00  0.00000000000E+00 -0.19221852702E+03  0.22928716679E+03  0.12499857090E+03 0.  0.
    9000005    1    3    3    0    0  0.63860660882E+01  0.27155119157E+02  0.64646999584E+01  0.28652655759E+02  0.10000000000E+01 0.  0.
    9000005    1    3    3    0    0 -0.63860660882E+01 -0.27155119157E+02 -0.19868322698E+03  0.20063451104E+03  0.10000000000E+01 0.  0.
<mgrwt>
<rscale>  0 0.12499857E+03</rscale>
<asrwt>0</asrwt>
<pdfrwt beam="1">  1        4 0.28514340E-02 0.12499857E+03</pdfrwt>
<pdfrwt beam="2">  1       -4 0.32423513E-01 0.12499857E+03</pdfrwt>
<totfact> 0.85421898E+03</totfact>
</mgrwt>
</event>
<event>
 5    1  0.3309811E-002  0.1250000E+03  0.7818608E-02  0.1235069E+00
         -4   -1    0    0    0  501 -0.00000000000E+00  0.00000000000E+00  0.43817506639E+01  0.45620871189E+01  0.12700000000E+01 0.  1.
          4   -1    0    0  501    0  0.00000000000E+00 -0.00000000000E+00 -0.87332534501E+03  0.87332626843E+03  0.12700000000E+01 0.  1.
         25    2    1    2    0    0  0.00000000000E+00  0.00000000000E+00 -0.86894359434E+03  0.87788835555E+03  0.12499997864E+03 0.  0.
    9000005    1    3    3    0    0  0.19321698338E+02  0.31716191595E+02 -0.78744875193E+03  0.78832466773E+03  0.10000000000E+01 0.  0.
    9000005    1    3    3    0    0 -0.19321698338E+02 -0.31716191595E+02 -0.81494842413E+02  0.89563687820E+02  0.10000000000E+01 0.  0.
<mgrwt>
<rscale>  0 0.12499998E+03</rscale>
<asrwt>0</asrwt>
<pdfrwt beam="2">  1        4 0.13437155E+00 0.12499998E+03</pdfrwt>
<pdfrwt beam="1">  1       -4 0.68805925E-03 0.12499998E+03</pdfrwt>
<totfact> 0.35012532E+03</totfact>
</mgrwt>
</event>
<event>
 5    1  0.3309811E-002  0.1250010E+03  0.7818608E-02  0.1235068E+00
         -4   -1    0    0    0  501 -0.00000000000E+00  0.00000000000E+00  0.25370741667E+02  0.25402508395E+02  0.12700000000E+01 0.  1.
          4   -1    0    0  501    0  0.00000000000E+00 -0.00000000000E+00 -0.15383856671E+03  0.15384380880E+03  0.12700000000E+01 0.  1.
         25    2    1    2    0    0  0.00000000000E+00  0.00000000000E+00 -0.12846782504E+03  0.17924631720E+03  0.12500104063E+03 0.  0.
    9000005    1    3    3    0    0 -0.47880137817E+02  0.39770971981E+02 -0.72227795069E+02  0.95352462948E+02  0.10000000000E+01 0.  0.
    9000005    1    3    3    0    0  0.47880137817E+02 -0.39770971981E+02 -0.56240029974E+02  0.83893854251E+02  0.10000000000E+01 0.  0.
<mgrwt>
<rscale>  0 0.12500104E+03</rscale>
<asrwt>0</asrwt>
<pdfrwt beam="2">  1        4 0.23670318E-01 0.12500104E+03</pdfrwt>
<pdfrwt beam="1">  1       -4 0.39060380E-02 0.12500104E+03</pdfrwt>
<totfact> 0.93750657E+03</totfact>
</mgrwt>
</event>
<event>
 5    1  0.3309811E-002  0.1250004E+03  0.7818608E-02  0.1235069E+00
          4   -1    0    0  501    0  0.00000000000E+00  0.00000000000E+00  0.10610233164E+03  0.10610993205E+03  0.12700000000E+01 0.  1.
         -4   -1    0    0    0  501 -0.00000000000E+00 -0.00000000000E+00 -0.36796212077E+02  0.36818122212E+02  0.12700000000E+01 0.  1.
         25    2    1    2    0    0  0.00000000000E+00  0.00000000000E+00  0.69306119567E+02  0.14292805426E+03  0.12500036194E+03 0.  0.
    9000005    1    3    3    0    0  0.46950398240E+02 -0.30819898886E+02  0.33169251898E+01  0.56269068367E+02  0.10000000000E+01 0.  0.
    9000005    1    3    3    0    0 -0.46950398240E+02  0.30819898886E+02  0.65989194377E+02  0.86658985897E+02  0.10000000000E+01 0.  0.
<mgrwt>
<rscale>  0 0.12500036E+03</rscale>
<asrwt>0</asrwt>
<pdfrwt beam="1">  1        4 0.16325706E-01 0.12500036E+03</pdfrwt>
<pdfrwt beam="2">  1       -4 0.56632258E-02 0.12500036E+03</pdfrwt>
<totfact> 0.10073175E+04</totfact>
</mgrwt>
</event>
<event>
 5    1  0.3309811E-002  0.1249984E+03  0.7818608E-02  0.1235072E+00
          4   -1    0    0  501    0  0.00000000000E+00  0.00000000000E+00  0.29967708292E+02  0.29994606853E+02  0.12700000000E+01 0. -1.
         -4   -1    0    0    0  501 -0.00000000000E+00 -0.00000000000E+00 -0.13025681975E+03  0.13026301083E+03  0.12700000000E+01 0. -1.
         25    2    1    2    0    0  0.00000000000E+00  0.00000000000E+00 -0.10028911146E+03  0.16025761769E+03  0.12499839259E+03 0.  0.
    9000005    1    3    3    0    0 -0.58421551852E+02  0.21848991157E+02 -0.55059011543E+02  0.83204272051E+02  0.10000000000E+01 0.  0.
    9000005    1    3    3    0    0  0.58421551852E+02 -0.21848991157E+02 -0.45230099915E+02  0.77053345636E+02  0.10000000000E+01 0.  0.
<mgrwt>
<rscale>  0 0.12499839E+03</rscale>
<asrwt>0</asrwt>
<pdfrwt beam="1">  1        4 0.46129621E-02 0.12499839E+03</pdfrwt>
<pdfrwt beam="2">  1       -4 0.20042056E-01 0.12499839E+03</pdfrwt>
<totfact> 0.97296657E+03</totfact>
</mgrwt>
</event>
<event>
 5    1  0.3309811E-002  0.1250022E+03  0.7818608E-02  0.1235066E+00
         -4   -1    0    0    0  501 -0.00000000000E+00  0.00000000000E+00  0.94368597533E+01  0.95219337324E+01  0.12700000000E+01 0.  1.
          4   -1    0    0  501    0  0.00000000000E+00 -0.00000000000E+00 -0.41200648846E+03  0.41200844582E+03  0.12700000000E+01 0.  1.
         25    2    1    2    0    0  0.00000000000E+00  0.00000000000E+00 -0.40256962870E+03  0.42153037956E+03  0.12500221972E+03 0.  0.
    9000005    1    3    3    0    0  0.29714098416E+02 -0.53048317509E+02 -0.15261110324E+03  0.16428085849E+03  0.10000000000E+01 0.  0.
    9000005    1    3    3    0    0 -0.29714098416E+02  0.53048317509E+02 -0.24995852547E+03  0.25724952107E+03  0.10000000000E+01 0.  0.
<mgrwt>
<rscale>  0 0.12500222E+03</rscale>
<asrwt>0</asrwt>
<pdfrwt beam="2">  1        4 0.63392294E-01 0.12500222E+03</pdfrwt>
<pdfrwt beam="1">  1       -4 0.14585196E-02 0.12500222E+03</pdfrwt>
<totfact> 0.62508232E+03</totfact>
</mgrwt>
</event>
<event>
 5    1  0.3309811E-002  0.1249887E+03  0.7818608E-02  0.1235087E+00
         -4   -1    0    0    0  501 -0.00000000000E+00  0.00000000000E+00  0.44180600730E+02  0.44198850447E+02  0.12700000000E+01 0.  1.
          4   -1    0    0  501    0  0.00000000000E+00 -0.00000000000E+00 -0.88358424927E+02  0.88367551486E+02  0.12700000000E+01 0.  1.
         25    2    1    2    0    0  0.00000000000E+00  0.00000000000E+00 -0.44177824197E+02  0.13256640193E+03  0.12498868257E+03 0.  0.
    9000005    1    3    3    0    0  0.37432166848E+02  0.29088922721E+02 -0.65265823370E+02  0.80671929692E+02  0.10000000000E+01 0.  0.
    9000005    1    3    3    0    0 -0.37432166848E+02 -0.29088922721E+02  0.21087999174E+02  0.51894472241E+02  0.10000000000E+01 0.  0.
<mgrwt>
<rscale>  0 0.12498868E+03</rscale>
<asrwt>0</asrwt>
<pdfrwt beam="2">  1        4 0.13595710E-01 0.12498868E+03</pdfrwt>
<pdfrwt beam="1">  1       -4 0.67991214E-02 0.12498868E+03</pdfrwt>
<totfact> 0.10292251E+04</totfact>
</mgrwt>
</event>
<event>
 5    1  0.3309811E-002  0.1250034E+03  0.7818608E-02  0.1235064E+00
         -4   -1    0    0    0  501 -0.00000000000E+00  0.00000000000E+00  0.61926612764E+02  0.61939634067E+02  0.12700000000E+01 0.  1.
          4   -1    0    0  501    0  0.00000000000E+00 -0.00000000000E+00 -0.63056110705E+02  0.63068898811E+02  0.12700000000E+01 0.  1.
         25    2    1    2    0    0  0.00000000000E+00  0.00000000000E+00 -0.11294979410E+01  0.12500853288E+03  0.12500343006E+03 0.  0.
    9000005    1    3    3    0    0  0.15309296499E+02 -0.54550746332E+02  0.25804981118E+02  0.62266006256E+02  0.10000000000E+01 0.  0.
    9000005    1    3    3    0    0 -0.15309296499E+02  0.54550746332E+02 -0.26934479059E+02  0.62742526621E+02  0.10000000000E+01 0.  0.
<mgrwt>
<rscale>  0 0.12500343E+03</rscale>
<asrwt>0</asrwt>
<pdfrwt beam="2">  1        4 0.97029254E-02 0.12500343E+03</pdfrwt>
<pdfrwt beam="1">  1       -4 0.95291566E-02 0.12500343E+03</pdfrwt>
<totfact> 0.10451867E+04</totfact>
</mgrwt>
</event>
<event>
 5    1  0.3309811E-002  0.1249983E+03  0.7818608E-02  0.1235072E+00
         -4   -1    0    0    0  501 -0.00000000000E+00  0.00000000000E+00  0.34857979165E+01  0.37099443547E+01  0.12700000000E+01 0. -1.
          4   -1    0    0  501    0  0.00000000000E+00 -0.00000000000E+00 -0.10854565765E+04  0.10854573194E+04  0.12700000000E+01 0. -1.
         25    2    1    2    0    0  0.00000000000E+00  0.00000000000E+00 -0.10819707786E+04  0.10891672638E+04  0.12499825141E+03 0.  0.
    9000005    1    3    3    0    0  0.91417429769E+01 -0.37960343239E+02 -0.11584518462E+03  0.12225246796E+03  0.10000000000E+01 0.  0.
    9000005    1    3    3    0    0 -0.91417429769E+01  0.37960343239E+02 -0.96612559394E+03  0.96691479582E+03  0.10000000000E+01 0.  0.
<mgrwt>
<rscale>  0 0.12499825E+03</rscale>
<asrwt>0</asrwt>
<pdfrwt beam="2">  1        4 0.16701036E+00 0.12499825E+03</pdfrwt>
<pdfrwt beam="1">  1       -4 0.55357665E-03 0.12499825E+03</pdfrwt>
<totfact> 0.27803721E+03</totfact>
</mgrwt>
</event>
<event>
 5    1  0.3309811E-002  0.1250056E+03  0.7818608E-02  0.1235061E+00
         -4   -1    0    0    0  501 -0.00000000000E+00  0.00000000000E+00  0.86176571431E+02  0.86185929035E+02  0.12700000000E+01 0. -1.
          4   -1    0    0  501    0  0.00000000000E+00 -0.00000000000E+00 -0.45311797407E+02  0.45329591707E+02  0.12700000000E+01 0. -1.
         25    2    1    2    0    0  0.00000000000E+00  0.00000000000E+00  0.40864774023E+02  0.13151552074E+03  0.12500560963E+03 0.  0.
    9000005    1    3    3    0    0 -0.41668136943E+02  0.17806434120E+02  0.65712022396E+02  0.79827142124E+02  0.10000000000E+01 0.  0.
    9000005    1    3    3    0    0  0.41668136943E+02 -0.17806434120E+02 -0.24847248372E+02  0.51688378617E+02  0.10000000000E+01 0.  0.
<mgrwt>
<rscale>  0 0.12500561E+03</rscale>
<asrwt>0</asrwt>
<pdfrwt beam="2">  1        4 0.69731343E-02 0.12500561E+03</pdfrwt>
<pdfrwt beam="1">  1       -4 0.13260023E-01 0.12500561E+03</pdfrwt>
<totfact> 0.10310745E+04</totfact>
</mgrwt>
</event>
<event>
 5    1  0.3309811E-002  0.1250099E+03  0.7818608E-02  0.1235054E+00
          4   -1    0    0  501    0  0.00000000000E+00  0.00000000000E+00  0.72519053258E+01  0.73622707675E+01  0.12700000000E+01 0.  1.
         -4   -1    0    0    0  501 -0.00000000000E+00 -0.00000000000E+00 -0.53455762445E+03  0.53455913308E+03  0.12700000000E+01 0.  1.
         25    2    1    2    0    0  0.00000000000E+00  0.00000000000E+00 -0.52730571912E+03  0.54192140385E+03  0.12500994571E+03 0.  0.
    9000005    1    3    3    0    0 -0.82068435280E+01 -0.61944387673E+02 -0.25850131160E+03  0.26594809182E+03  0.10000000000E+01 0.  0.
    9000005    1    3    3    0    0  0.82068435280E+01  0.61944387673E+02 -0.26880440752E+03  0.27597331202E+03  0.10000000000E+01 0.  0.
<mgrwt>
<rscale>  0 0.12500995E+03</rscale>
<asrwt>0</asrwt>
<pdfrwt beam="1">  1        4 0.11242839E-02 0.12500995E+03</pdfrwt>
<pdfrwt beam="2">  1       -4 0.82248209E-01 0.12500995E+03</pdfrwt>
<totfact> 0.52740920E+03</totfact>
</mgrwt>
</event>
<event>
 5    1  0.3309811E-002  0.1250013E+03  0.7818608E-02  0.1235067E+00
          4   -1    0    0  501    0  0.00000000000E+00  0.00000000000E+00  0.11804332670E+03  0.11805015832E+03  0.12700000000E+01 0. -1.
         -4   -1    0    0    0  501 -0.00000000000E+00 -0.00000000000E+00 -0.33072379696E+02  0.33096755110E+02  0.12700000000E+01 0. -1.
         25    2    1    2    0    0  0.00000000000E+00  0.00000000000E+00  0.84970947004E+02  0.15114691343E+03  0.12500131041E+03 0.  0.
    9000005    1    3    3    0    0  0.61941658578E+02  0.80024036549E+01  0.45057430685E+02  0.77019345567E+02  0.10000000000E+01 0.  0.
    9000005    1    3    3    0    0 -0.61941658578E+02 -0.80024036549E+01  0.39913516319E+02  0.74127567859E+02  0.10000000000E+01 0.  0.
<mgrwt>
<rscale>  0 0.12500131E+03</rscale>
<asrwt>0</asrwt>
<pdfrwt beam="1">  1        4 0.18162913E-01 0.12500131E+03</pdfrwt>
<pdfrwt beam="2">  1       -4 0.50904589E-02 0.12500131E+03</pdfrwt>
<totfact> 0.99072646E+03</totfact>
</mgrwt>
</event>
<event>
 5    1  0.3309811E-002  0.1250148E+03  0.7818608E-02  0.1235046E+00
         -4   -1    0    0    0  501 -0.00000000000E+00  0.00000000000E+00  0.68129659330E+03  0.68129777700E+03  0.12700000000E+01 0.  1.
          4   -1    0    0  501    0  0.00000000000E+00 -0.00000000000E+00 -0.56634005985E+01  0.58040508560E+01  0.12700000000E+01 0.  1.
         25    2    1    2    0    0  0.00000000000E+00  0.00000000000E+00  0.67563319270E+03  0.68710182785E+03  0.12501484216E+03 0.  0.
    9000005    1    3    3    0    0  0.41718749491E+02 -0.38773376880E+02  0.47926658889E+03  0.48263991965E+03  0.10000000000E+01 0.  0.
    9000005    1    3    3    0    0 -0.41718749491E+02  0.38773376880E+02  0.19636660381E+03  0.20446190820E+03  0.10000000000E+01 0.  0.
<mgrwt>
<rscale>  0 0.12501484E+03</rscale>
<asrwt>0</asrwt>
<pdfrwt beam="2">  1        4 0.88220332E-03 0.12501484E+03</pdfrwt>
<pdfrwt beam="1">  1       -4 0.10482570E+00 0.12501484E+03</pdfrwt>
<totfact> 0.43762181E+03</totfact>
</mgrwt>
</event>
<event>
 5    1  0.3309811E-002  0.1250042E+03  0.7818608E-02  0.1235063E+00
         -4   -1    0    0    0  501 -0.00000000000E+00  0.00000000000E+00  0.46893803583E+02  0.46910997799E+02  0.12700000000E+01 0.  1.
          4   -1    0    0  501    0  0.00000000000E+00 -0.00000000000E+00 -0.83268210974E+02  0.83277895379E+02  0.12700000000E+01 0.  1.
         25    2    1    2    0    0  0.00000000000E+00  0.00000000000E+00 -0.36374407390E+02  0.13018889318E+03  0.12500420151E+03 0.  0.
    9000005    1    3    3    0    0  0.21293846547E+02  0.53165435668E+02  0.78605527878E+01  0.57816777329E+02  0.10000000000E+01 0.  0.
    9000005    1    3    3    0    0 -0.21293846547E+02 -0.53165435668E+02 -0.44234960178E+02  0.72372115849E+02  0.10000000000E+01 0.  0.
<mgrwt>
<rscale>  0 0.12500420E+03</rscale>
<asrwt>0</asrwt>
<pdfrwt beam="2">  1        4 0.12812562E-01 0.12500420E+03</pdfrwt>
<pdfrwt beam="1">  1       -4 0.72164989E-02 0.12500420E+03</pdfrwt>
<totfact> 0.10339488E+04</totfact>
</mgrwt>
</event>
<event>
 5    1  0.3309811E-002  0.1250002E+03  0.7818608E-02  0.1235069E+00
          4   -1    0    0  501    0  0.00000000000E+00  0.00000000000E+00  0.72492816287E+03  0.72492927532E+03  0.12700000000E+01 0. -1.
         -4   -1    0    0    0  501 -0.00000000000E+00 -0.00000000000E+00 -0.53125158090E+01  0.54622087310E+01  0.12700000000E+01 0. -1.
         25    2    1    2    0    0  0.00000000000E+00  0.00000000000E+00  0.71961564706E+03  0.73039148405E+03  0.12500016194E+03 0.  0.
    9000005    1    3    3    0    0  0.48487258146E+02 -0.10541088274E+02  0.13783589262E+03  0.14649867590E+03  0.10000000000E+01 0.  0.
    9000005    1    3    3    0    0 -0.48487258146E+02  0.10541088274E+02  0.58177975444E+03  0.58389280815E+03  0.10000000000E+01 0.  0.
<mgrwt>
<rscale>  0 0.12500016E+03</rscale>
<asrwt>0</asrwt>
<pdfrwt beam="1">  1        4 0.11153900E+00 0.12500016E+03</pdfrwt>
<pdfrwt beam="2">  1       -4 0.82891060E-03 0.12500016E+03</pdfrwt>
<totfact> 0.41529883E+03</totfact>
</mgrwt>
</event>
<event>
 5    1  0.3309811E-002  0.1250349E+03  0.7818608E-02  0.1235015E+00
         -4   -1    0    0    0  501 -0.00000000000E+00  0.00000000000E+00  0.15436276962E+04  0.15436282186E+04  0.12700000000E+01 0.  1.
          4   -1    0    0  501    0  0.00000000000E+00 -0.00000000000E+00 -0.23721682947E+01  0.26907401247E+01  0.12700000000E+01 0.  1.
         25    2    1    2    0    0  0.00000000000E+00  0.00000000000E+00  0.15412555279E+04  0.15463189588E+04  0.12503487486E+03 0.  0.
    9000005    1    3    3    0    0  0.19693093431E+02  0.58030478904E+01  0.40451578409E+02  0.45374260209E+02  0.10000000000E+01 0.  0.
    9000005    1    3    3    0    0 -0.19693093431E+02 -0.58030478904E+01  0.15008039495E+04  0.15009446986E+04  0.10000000000E+01 0.  0.
<mgrwt>
<rscale>  0 0.12503487E+03</rscale>
<asrwt>0</asrwt>
<pdfrwt beam="2">  1        4 0.38949542E-03 0.12503487E+03</pdfrwt>
<pdfrwt beam="1">  1       -4 0.23750528E+00 0.12503487E+03</pdfrwt>
<totfact> 0.17024737E+03</totfact>
</mgrwt>
</event>
<event>
 5    1  0.3309811E-002  0.1249990E+03  0.7818608E-02  0.1235071E+00
          4   -1    0    0  501    0  0.00000000000E+00  0.00000000000E+00  0.10058897684E+03  0.10059699380E+03  0.12700000000E+01 0.  1.
         -4   -1    0    0    0  501 -0.00000000000E+00 -0.00000000000E+00 -0.38813193301E+02  0.38833965471E+02  0.12700000000E+01 0.  1.
         25    2    1    2    0    0  0.00000000000E+00  0.00000000000E+00  0.61775783541E+02  0.13943095927E+03  0.12499897988E+03 0.  0.
    9000005    1    3    3    0    0  0.19420007877E+02  0.56609455024E+02  0.10827675783E+02  0.60827671885E+02  0.10000000000E+01 0.  0.
    9000005    1    3    3    0    0 -0.19420007877E+02 -0.56609455024E+02  0.50948107758E+02  0.78603287388E+02  0.10000000000E+01 0.  0.
<mgrwt>
<rscale>  0 0.12499898E+03</rscale>
<asrwt>0</asrwt>
<pdfrwt beam="1">  1        4 0.15477442E-01 0.12499898E+03</pdfrwt>
<pdfrwt beam="2">  1       -4 0.59734751E-02 0.12499898E+03</pdfrwt>
<totfact> 0.10145626E+04</totfact>
</mgrwt>
</event>
<event>
 5    1  0.3309811E-002  0.1249965E+03  0.7818608E-02  0.1235075E+00
          4   -1    0    0  501    0  0.00000000000E+00  0.00000000000E+00  0.46977766840E+02  0.46994930336E+02  0.12700000000E+01 0. -1.
         -4   -1    0    0    0  501 -0.00000000000E+00 -0.00000000000E+00 -0.83109131178E+02  0.83118834118E+02  0.12700000000E+01 0. -1.
         25    2    1    2    0    0  0.00000000000E+00  0.00000000000E+00 -0.36131364338E+02  0.13011376445E+03  0.12499646480E+03 0.  0.
    9000005    1    3    3    0    0  0.11665660906E+02  0.46753282687E+02 -0.59482415428E+02  0.76557918150E+02  0.10000000000E+01 0.  0.
    9000005    1    3    3    0    0 -0.11665660906E+02 -0.46753282687E+02  0.23351051090E+02  0.53555846304E+02  0.10000000000E+01 0.  0.
<mgrwt>
<rscale>  0 0.12499646E+03</rscale>
<asrwt>0</asrwt>
<pdfrwt beam="1">  1        4 0.72294154E-02 0.12499646E+03</pdfrwt>
<pdfrwt beam="2">  1       -4 0.12788087E-01 0.12499646E+03</pdfrwt>
<totfact> 0.10342900E+04</totfact>
</mgrwt>
</event>
<event>
 5    1  0.3309811E-002  0.1249967E+03  0.7818608E-02  0.1235074E+00
         -4   -1    0    0    0  501 -0.00000000000E+00  0.00000000000E+00  0.28415703463E+02  0.28444069739E+02  0.12700000000E+01 0.  1.
          4   -1    0    0  501    0  0.00000000000E+00 -0.00000000000E+00 -0.13736094909E+03  0.13736681999E+03  0.12700000000E+01 0.  1.
         25    2    1    2    0    0  0.00000000000E+00  0.00000000000E+00 -0.10894524562E+03  0.16581088973E+03  0.12499673839E+03 0.  0.
    9000005    1    3    3    0    0 -0.24269457526E+02 -0.10483936128E+02 -0.12958382394E+03  0.13225689741E+03  0.10000000000E+01 0.  0.
    9000005    1    3    3    0    0  0.24269457526E+02  0.10483936128E+02  0.20638578319E+02  0.33553992317E+02  0.10000000000E+01 0.  0.
<mgrwt>
<rscale>  0 0.12499674E+03</rscale>
<asrwt>0</asrwt>
<pdfrwt beam="2">  1        4 0.21135087E-01 0.12499674E+03</pdfrwt>
<pdfrwt beam="1">  1       -4 0.43742804E-02 0.12499674E+03</pdfrwt>
<totfact> 0.96241094E+03</totfact>
</mgrwt>
</event>
<event>
 5    1  0.3309811E-002  0.1249984E+03  0.7818608E-02  0.1235072E+00
          4   -1    0    0  501    0  0.00000000000E+00  0.00000000000E+00  0.12965091258E+03  0.12965713259E+03  0.12700000000E+01 0. -1.
         -4   -1    0    0    0  501 -0.00000000000E+00 -0.00000000000E+00 -0.30107875408E+02  0.30134648855E+02  0.12700000000E+01 0. -1.
         25    2    1    2    0    0  0.00000000000E+00  0.00000000000E+00  0.99543037170E+02  0.15979178145E+03  0.12499838867E+03 0.  0.
    9000005    1    3    3    0    0  0.16058260216E+02 -0.56035997145E+02  0.78562763930E+02  0.97831531591E+02  0.10000000000E+01 0.  0.
    9000005    1    3    3    0    0 -0.16058260216E+02  0.56035997145E+02  0.20980273240E+02  0.61960249857E+02  0.10000000000E+01 0.  0.
<mgrwt>
<rscale>  0 0.12499839E+03</rscale>
<asrwt>0</asrwt>
<pdfrwt beam="1">  1        4 0.19948832E-01 0.12499839E+03</pdfrwt>
<pdfrwt beam="2">  1       -4 0.46345188E-02 0.12499839E+03</pdfrwt>
<totfact> 0.97386470E+03</totfact>
</mgrwt>
</event>
<event>
 5    1  0.3309811E-002  0.1249748E+03  0.7818608E-02  0.1235109E+00
         -4   -1    0    0    0  501 -0.00000000000E+00  0.00000000000E+00  0.10289725304E+02  0.10367803376E+02  0.12700000000E+01 0. -1.
          4   -1    0    0  501    0  0.00000000000E+00 -0.00000000000E+00 -0.37795974529E+03  0.37796187898E+03  0.12700000000E+01 0. -1.
         25    2    1    2    0    0  0.00000000000E+00  0.00000000000E+00 -0.36767001998E+03  0.38832968235E+03  0.12497479186E+03 0.  0.
    9000005    1    3    3    0    0  0.37157453000E+01 -0.38912078646E+02 -0.33528721880E+03  0.33755958839E+03  0.10000000000E+01 0.  0.
    9000005    1    3    3    0    0 -0.37157453000E+01  0.38912078646E+02 -0.32382801187E+02  0.50770093957E+02  0.10000000000E+01 0.  0.
<mgrwt>
<rscale>  0 0.12497479E+03</rscale>
<asrwt>0</asrwt>
<pdfrwt beam="2">  1        4 0.58153813E-01 0.12497479E+03</pdfrwt>
<pdfrwt beam="1">  1       -4 0.15892051E-02 0.12497479E+03</pdfrwt>
<totfact> 0.65740483E+03</totfact>
</mgrwt>
</event>
<event>
 5    1  0.3309811E-002  0.1250015E+03  0.7818608E-02  0.1235067E+00
         -4   -1    0    0    0  501 -0.00000000000E+00  0.00000000000E+00  0.12212136873E+03  0.12212797223E+03  0.12700000000E+01 0. -1.
          4   -1    0    0  501    0  0.00000000000E+00 -0.00000000000E+00 -0.31967292410E+02  0.31992509812E+02  0.12700000000E+01 0. -1.
         25    2    1    2    0    0  0.00000000000E+00  0.00000000000E+00  0.90154076323E+02  0.15412048204E+03  0.12500146202E+03 0.  0.
    9000005    1    3    3    0    0  0.62142621496E+02 -0.47990010490E+01  0.50673808299E+02  0.80334118935E+02  0.10000000000E+01 0.  0.
    9000005    1    3    3    0    0 -0.62142621496E+02  0.47990010490E+01  0.39480268023E+02  0.73786363108E+02  0.10000000000E+01 0.  0.
<mgrwt>
<rscale>  0 0.12500146E+03</rscale>
<asrwt>0</asrwt>
<pdfrwt beam="2">  1        4 0.49204928E-02 0.12500146E+03</pdfrwt>
<pdfrwt beam="1">  1       -4 0.18790351E-01 0.12500146E+03</pdfrwt>
<totfact> 0.98485198E+03</totfact>
</mgrwt>
</event>
<event>
 5    1  0.3309811E-002  0.1250093E+03  0.7818608E-02  0.1235055E+00
         -4   -1    0    0    0  501 -0.00000000000E+00  0.00000000000E+00  0.26559222444E+02  0.26589569324E+02  0.12700000000E+01 0.  1.
          4   -1    0    0  501    0  0.00000000000E+00 -0.00000000000E+00 -0.14698175169E+03  0.14698723832E+03  0.12700000000E+01 0.  1.
         25    2    1    2    0    0  0.00000000000E+00  0.00000000000E+00 -0.12042252924E+03  0.17357680764E+03  0.12500929006E+03 0.  0.
    9000005    1    3    3    0    0 -0.12496491690E+02 -0.93177667938E+01  0.23823469573E+02  0.28487554916E+02  0.10000000000E+01 0.  0.
    9000005    1    3    3    0    0  0.12496491690E+02  0.93177667938E+01 -0.14424599882E+03  0.14508925273E+03  0.10000000000E+01 0.  0.
<mgrwt>
<rscale>  0 0.12500929E+03</rscale>
<asrwt>0</asrwt>
<pdfrwt beam="2">  1        4 0.22615333E-01 0.12500929E+03</pdfrwt>
<pdfrwt beam="1">  1       -4 0.40887907E-02 0.12500929E+03</pdfrwt>
<totfact> 0.94766389E+03</totfact>
</mgrwt>
</event>
<event>
 5    1  0.3309811E-002  0.1250022E+03  0.7818608E-02  0.1235066E+00
          4   -1    0    0  501    0  0.00000000000E+00  0.00000000000E+00  0.27815565692E+03  0.27815855618E+03  0.12700000000E+01 0.  1.
         -4   -1    0    0    0  501 -0.00000000000E+00 -0.00000000000E+00 -0.14012190408E+02  0.14069626152E+02  0.12700000000E+01 0.  1.
         25    2    1    2    0    0  0.00000000000E+00  0.00000000000E+00  0.26414346651E+03  0.29222818233E+03  0.12500215858E+03 0.  0.
    9000005    1    3    3    0    0  0.42015632785E+02 -0.19662224736E+02  0.22996516649E+03  0.23459943367E+03  0.10000000000E+01 0.  0.
    9000005    1    3    3    0    0 -0.42015632785E+02  0.19662224736E+02  0.34178300020E+02  0.57628748660E+02  0.10000000000E+01 0.  0.
<mgrwt>
<rscale>  0 0.12500216E+03</rscale>
<asrwt>0</asrwt>
<pdfrwt beam="1">  1        4 0.42797820E-01 0.12500216E+03</pdfrwt>
<pdfrwt beam="2">  1       -4 0.21603627E-02 0.12500216E+03</pdfrwt>
<totfact> 0.76580505E+03</totfact>
</mgrwt>
</event>
<event>
 5    1  0.3309811E-002  0.1250020E+03  0.7818608E-02  0.1235066E+00
         -4   -1    0    0    0  501 -0.00000000000E+00  0.00000000000E+00  0.40677497658E+02  0.40697318286E+02  0.12700000000E+01 0.  1.
          4   -1    0    0  501    0  0.00000000000E+00 -0.00000000000E+00 -0.95985449147E+02  0.95993850574E+02  0.12700000000E+01 0.  1.
         25    2    1    2    0    0  0.00000000000E+00  0.00000000000E+00 -0.55307951490E+02  0.13669116886E+03  0.12500202457E+03 0.  0.
    9000005    1    3    3    0    0 -0.51991241468E+02 -0.28623033911E+01 -0.65441006864E+02  0.83634964874E+02  0.10000000000E+01 0.  0.
    9000005    1    3    3    0    0  0.51991241468E+02  0.28623033911E+01  0.10133055375E+02  0.53056203985E+02  0.10000000000E+01 0.  0.
<mgrwt>
<rscale>  0 0.12500202E+03</rscale>
<asrwt>0</asrwt>
<pdfrwt beam="2">  1        4 0.14769163E-01 0.12500202E+03</pdfrwt>
<pdfrwt beam="1">  1       -4 0.62602475E-02 0.12500202E+03</pdfrwt>
<totfact> 0.10202081E+04</totfact>
</mgrwt>
</event>
<event>
 5    1  0.3309811E-002  0.1249906E+03  0.7818608E-02  0.1235084E+00
          4   -1    0    0  501    0  0.00000000000E+00  0.00000000000E+00  0.20533992032E+03  0.20534384767E+03  0.12700000000E+01 0.  1.
         -4   -1    0    0    0  501 -0.00000000000E+00 -0.00000000000E+00 -0.18995160629E+02  0.19037568839E+02  0.12700000000E+01 0.  1.
         25    2    1    2    0    0  0.00000000000E+00  0.00000000000E+00  0.18634475969E+03  0.22438141651E+03  0.12499060209E+03 0.  0.
    9000005    1    3    3    0    0  0.33935783827E+02  0.12157418351E+02  0.18480116483E+03  0.18828677799E+03  0.10000000000E+01 0.  0.
    9000005    1    3    3    0    0 -0.33935783827E+02 -0.12157418351E+02  0.15435948657E+01  0.36094638522E+02  0.10000000000E+01 0.  0.
<mgrwt>
<rscale>  0 0.12499060E+03</rscale>
<asrwt>0</asrwt>
<pdfrwt beam="1">  1        4 0.31594323E-01 0.12499060E+03</pdfrwt>
<pdfrwt beam="2">  1       -4 0.29258965E-02 0.12499060E+03</pdfrwt>
<totfact> 0.86197845E+03</totfact>
</mgrwt>
</event>
<event>
 5    1  0.3309811E-002  0.1250008E+03  0.7818608E-02  0.1235068E+00
         -4   -1    0    0    0  501 -0.00000000000E+00  0.00000000000E+00  0.21984978041E+03  0.21985344856E+03  0.12700000000E+01 0. -1.
          4   -1    0    0  501    0  0.00000000000E+00 -0.00000000000E+00 -0.17741527738E+02  0.17786925155E+02  0.12700000000E+01 0. -1.
         25    2    1    2    0    0  0.00000000000E+00  0.00000000000E+00  0.20210825267E+03  0.23764037372E+03  0.12500080569E+03 0.  0.
    9000005    1    3    3    0    0  0.49071619364E+02 -0.31430874758E+02  0.58147247196E+02  0.82328768190E+02  0.10000000000E+01 0.  0.
    9000005    1    3    3    0    0 -0.49071619364E+02  0.31430874758E+02  0.14396100547E+03  0.15531160553E+03  0.10000000000E+01 0.  0.
<mgrwt>
<rscale>  0 0.12500081E+03</rscale>
<asrwt>0</asrwt>
<pdfrwt beam="2">  1        4 0.27332399E-02 0.12500081E+03</pdfrwt>
<pdfrwt beam="1">  1       -4 0.33826820E-01 0.12500081E+03</pdfrwt>
<totfact> 0.84148537E+03</totfact>
</mgrwt>
</event>
<event>
 5    1  0.3309811E-002  0.1250000E+03  0.7818608E-02  0.1235069E+00
          4   -1    0    0  501    0  0.00000000000E+00  0.00000000000E+00  0.57426752579E+03  0.57426893010E+03  0.12700000000E+01 0.  1.
         -4   -1    0    0    0  501 -0.00000000000E+00 -0.00000000000E+00 -0.67414379496E+01  0.68600208183E+01  0.12700000000E+01 0.  1.
         25    2    1    2    0    0  0.00000000000E+00  0.00000000000E+00  0.56752608784E+03  0.58112895092E+03  0.12499998886E+03 0.  0.
    9000005    1    3    3    0    0 -0.43715074808E+02 -0.43882951847E+02  0.32224851484E+03  0.32814909194E+03  0.10000000000E+01 0.  0.
    9000005    1    3    3    0    0  0.43715074808E+02  0.43882951847E+02  0.24527757300E+03  0.25297985898E+03  0.10000000000E+01 0.  0.
<mgrwt>
<rscale>  0 0.12499999E+03</rscale>
<asrwt>0</asrwt>
<pdfrwt beam="1">  1        4 0.88358065E-01 0.12499999E+03</pdfrwt>
<pdfrwt beam="2">  1       -4 0.10463743E-02 0.12499999E+03</pdfrwt>
<totfact> 0.50080909E+03</totfact>
</mgrwt>
</event>
<event>
 5    1  0.3309811E-002  0.1250042E+03  0.7818608E-02  0.1235063E+00
          4   -1    0    0  501    0  0.00000000000E+00  0.00000000000E+00  0.49721167357E+01  0.51317487110E+01  0.12700000000E+01 0.  1.
         -4   -1    0    0    0  501 -0.00000000000E+00 -0.00000000000E+00 -0.77311047777E+03  0.77311152090E+03  0.12700000000E+01 0.  1.
         25    2    1    2    0    0  0.00000000000E+00  0.00000000000E+00 -0.76813836104E+03  0.77824326961E+03  0.12500417990E+03 0.  0.
    9000005    1    3    3    0    0 -0.80740680436E+01 -0.59279236315E+02 -0.27161008308E+03  0.27812273489E+03  0.10000000000E+01 0.  0.
    9000005    1    3    3    0    0  0.80740680436E+01  0.59279236315E+02 -0.49652827796E+03  0.50012053472E+03  0.10000000000E+01 0.  0.
<mgrwt>
<rscale>  0 0.12500418E+03</rscale>
<asrwt>0</asrwt>
<pdfrwt beam="1">  1        4 0.77730127E-03 0.12500418E+03</pdfrwt>
<pdfrwt beam="2">  1       -4 0.11895234E+00 0.12500418E+03</pdfrwt>
<totfact> 0.39251084E+03</totfact>
</mgrwt>
</event>
<event>
 5    1  0.3309811E-002  0.1250041E+03  0.7818608E-02  0.1235063E+00
          4   -1    0    0  501    0  0.00000000000E+00  0.00000000000E+00  0.36243686302E+03  0.36243908809E+03  0.12700000000E+01 0.  1.
         -4   -1    0    0    0  501 -0.00000000000E+00 -0.00000000000E+00 -0.10738768483E+02  0.10813604788E+02  0.12700000000E+01 0.  1.
         25    2    1    2    0    0  0.00000000000E+00  0.00000000000E+00  0.35169809454E+03  0.37325269288E+03  0.12500409209E+03 0.  0.
    9000005    1    3    3    0    0  0.57260928149E+02  0.24138274851E+02  0.19566342581E+03  0.20529648415E+03  0.10000000000E+01 0.  0.
    9000005    1    3    3    0    0 -0.57260928149E+02 -0.24138274851E+02  0.15603466873E+03  0.16795620873E+03  0.10000000000E+01 0.  0.
<mgrwt>
<rscale>  0 0.12500409E+03</rscale>
<asrwt>0</asrwt>
<pdfrwt beam="1">  1        4 0.55765456E-01 0.12500409E+03</pdfrwt>
<pdfrwt beam="2">  1       -4 0.16580457E-02 0.12500409E+03</pdfrwt>
<totfact> 0.67233921E+03</totfact>
</mgrwt>
</event>
<event>
 5    1  0.3309811E-002  0.1249999E+03  0.7818608E-02  0.1235070E+00
          4   -1    0    0  501    0  0.00000000000E+00  0.00000000000E+00  0.49887258758E+01  0.51478428360E+01  0.12700000000E+01 0.  1.
         -4   -1    0    0    0  501 -0.00000000000E+00 -0.00000000000E+00 -0.77056282339E+03  0.77056386996E+03  0.12700000000E+01 0.  1.
         25    2    1    2    0    0  0.00000000000E+00  0.00000000000E+00 -0.76557409751E+03  0.77571171279E+03  0.12499985035E+03 0.  0.
    9000005    1    3    3    0    0  0.95304105756E+01 -0.35111326881E+02 -0.67478394318E+02  0.76667905285E+02  0.10000000000E+01 0.  0.
    9000005    1    3    3    0    0 -0.95304105756E+01  0.35111326881E+02 -0.69809570319E+03  0.69904380751E+03  0.10000000000E+01 0.  0.
<mgrwt>
<rscale>  0 0.12499985E+03</rscale>
<asrwt>0</asrwt>
<pdfrwt beam="1">  1        4 0.77981717E-03 0.12499985E+03</pdfrwt>
<pdfrwt beam="2">  1       -4 0.11856035E+00 0.12499985E+03</pdfrwt>
<totfact> 0.39372424E+03</totfact>
</mgrwt>
</event>
<event>
 5    1  0.3309811E-002  0.1249998E+03  0.7818608E-02  0.1235070E+00
         -4   -1    0    0    0  501 -0.00000000000E+00  0.00000000000E+00  0.48118866387E+03  0.48119033983E+03  0.12700000000E+01 0. -1.
          4   -1    0    0  501    0  0.00000000000E+00 -0.00000000000E+00 -0.80665237580E+01  0.81658866964E+01  0.12700000000E+01 0. -1.
         25    2    1    2    0    0  0.00000000000E+00  0.00000000000E+00  0.47312214012E+03  0.48935622652E+03  0.12499982787E+03 0.  0.
    9000005    1    3    3    0    0  0.14153031295E+02  0.59861904362E+02  0.19341173683E+03  0.20296023215E+03  0.10000000000E+01 0.  0.
    9000005    1    3    3    0    0 -0.14153031295E+02 -0.59861904362E+02  0.27971040328E+03  0.28639599437E+03  0.10000000000E+01 0.  0.
<mgrwt>
<rscale>  0 0.12499983E+03</rscale>
<asrwt>0</asrwt>
<pdfrwt beam="2">  1        4 0.12487750E-02 0.12499983E+03</pdfrwt>
<pdfrwt beam="1">  1       -4 0.74036848E-01 0.12499983E+03</pdfrwt>
<totfact> 0.56699941E+03</totfact>
</mgrwt>
</event>
<event>
 5    1  0.3309811E-002  0.1250012E+03  0.7818608E-02  0.1235067E+00
         -4   -1    0    0    0  501 -0.00000000000E+00  0.00000000000E+00  0.41712541411E+02  0.41731870447E+02  0.12700000000E+01 0.  1.
          4   -1    0    0  501    0  0.00000000000E+00 -0.00000000000E+00 -0.93603341972E+02  0.93611957187E+02  0.12700000000E+01 0.  1.
         25    2    1    2    0    0  0.00000000000E+00  0.00000000000E+00 -0.51890800561E+02  0.13534382763E+03  0.12500118598E+03 0.  0.
    9000005    1    3    3    0    0 -0.30813374757E+02  0.51709924860E+02 -0.44125888529E+02  0.74642309928E+02  0.10000000000E+01 0.  0.
    9000005    1    3    3    0    0  0.30813374757E+02 -0.51709924860E+02 -0.77649120319E+01  0.60701517706E+02  0.10000000000E+01 0.  0.
<mgrwt>
<rscale>  0 0.12500119E+03</rscale>
<asrwt>0</asrwt>
<pdfrwt beam="2">  1        4 0.14402664E-01 0.12500119E+03</pdfrwt>
<pdfrwt beam="1">  1       -4 0.64194637E-02 0.12500119E+03</pdfrwt>
<totfact> 0.10230555E+04</totfact>
</mgrwt>
</event>
<event>
 5    1  0.3309811E-002  0.1250005E+03  0.7818608E-02  0.1235068E+00
          4   -1    0    0  501    0  0.00000000000E+00  0.00000000000E+00  0.18072397178E+03  0.18072843406E+03  0.12700000000E+01 0. -1.
         -4   -1    0    0    0  501 -0.00000000000E+00 -0.00000000000E+00 -0.21591242093E+02  0.21628560634E+02  0.12700000000E+01 0. -1.
         25    2    1    2    0    0  0.00000000000E+00  0.00000000000E+00  0.15913272969E+03  0.20235699469E+03  0.12500051057E+03 0.  0.
    9000005    1    3    3    0    0  0.88115279456E+01 -0.41018221183E+02  0.45882181018E+01  0.42215983219E+02  0.10000000000E+01 0.  0.
    9000005    1    3    3    0    0 -0.88115279456E+01  0.41018221183E+02  0.15454451159E+03  0.16014101147E+03  0.10000000000E+01 0.  0.
<mgrwt>
<rscale>  0 0.12500051E+03</rscale>
<asrwt>0</asrwt>
<pdfrwt beam="1">  1        4 0.27806902E-01 0.12500051E+03</pdfrwt>
<pdfrwt beam="2">  1       -4 0.33249435E-02 0.12500051E+03</pdfrwt>
<totfact> 0.89738472E+03</totfact>
</mgrwt>
</event>
<event>
 5    1  0.3309811E-002  0.1250020E+03  0.7818608E-02  0.1235066E+00
          4   -1    0    0  501    0  0.00000000000E+00  0.00000000000E+00  0.16216359776E+02  0.16266014398E+02  0.12700000000E+01 0.  1.
         -4   -1    0    0    0  501 -0.00000000000E+00 -0.00000000000E+00 -0.24047155755E+03  0.24047491114E+03  0.12700000000E+01 0.  1.
         25    2    1    2    0    0  0.00000000000E+00  0.00000000000E+00 -0.22425519777E+03  0.25674092554E+03  0.12500203646E+03 0.  0.
    9000005    1    3    3    0    0 -0.54611171989E+02  0.12096904236E+02 -0.54888331641E+02  0.78373746551E+02  0.10000000000E+01 0.  0.
    9000005    1    3    3    0    0  0.54611171989E+02 -0.12096904236E+02 -0.16936686613E+03  0.17836717899E+03  0.10000000000E+01 0.  0.
<mgrwt>
<rscale>  0 0.12500204E+03</rscale>
<asrwt>0</asrwt>
<pdfrwt beam="1">  1        4 0.24989023E-02 0.12500204E+03</pdfrwt>
<pdfrwt beam="2">  1       -4 0.36999699E-01 0.12500204E+03</pdfrwt>
<totfact> 0.81361924E+03</totfact>
</mgrwt>
</event>
<event>
 5    1  0.3309811E-002  0.1249936E+03  0.7818608E-02  0.1235079E+00
          4   -1    0    0  501    0  0.00000000000E+00  0.00000000000E+00  0.64174480698E+01  0.65419064292E+01  0.12700000000E+01 0. -1.
         -4   -1    0    0    0  501 -0.00000000000E+00 -0.00000000000E+00 -0.60265931638E+03  0.60266065453E+03  0.12700000000E+01 0. -1.
         25    2    1    2    0    0  0.00000000000E+00  0.00000000000E+00 -0.59624186831E+03  0.60920256096E+03  0.12499357885E+03 0.  0.
    9000005    1    3    3    0    0  0.16321306586E+02  0.12207527064E+02 -0.10214162298E+02  0.22819681794E+02  0.10000000000E+01 0.  0.
    9000005    1    3    3    0    0 -0.16321306586E+02 -0.12207527064E+02 -0.58602770601E+03  0.58638287917E+03  0.10000000000E+01 0.  0.
<mgrwt>
<rscale>  0 0.12499358E+03</rscale>
<asrwt>0</asrwt>
<pdfrwt beam="1">  1        4 0.99697684E-03 0.12499358E+03</pdfrwt>
<pdfrwt beam="2">  1       -4 0.92726450E-01 0.12499358E+03</pdfrwt>
<totfact> 0.48298639E+03</totfact>
</mgrwt>
</event>
<event>
 5    1  0.3309811E-002  0.1250016E+03  0.7818608E-02  0.1235067E+00
          4   -1    0    0  501    0  0.00000000000E+00  0.00000000000E+00  0.71388291636E+03  0.71388404603E+03  0.12700000000E+01 0.  1.
         -4   -1    0    0    0  501 -0.00000000000E+00 -0.00000000000E+00 -0.53971390604E+01  0.55445477757E+01  0.12700000000E+01 0.  1.
         25    2    1    2    0    0  0.00000000000E+00  0.00000000000E+00  0.70848577730E+03  0.71942859381E+03  0.12500161977E+03 0.  0.
    9000005    1    3    3    0    0 -0.53130975441E+02  0.19637953956E+02  0.50616695530E+03  0.50932753354E+03  0.10000000000E+01 0.  0.
    9000005    1    3    3    0    0  0.53130975441E+02 -0.19637953956E+02  0.20231882200E+03  0.21010106026E+03  0.10000000000E+01 0.  0.
<mgrwt>
<rscale>  0 0.12500162E+03</rscale>
<asrwt>0</asrwt>
<pdfrwt beam="1">  1        4 0.10983951E+00 0.12500162E+03</pdfrwt>
<pdfrwt beam="2">  1       -4 0.84175558E-03 0.12500162E+03</pdfrwt>
<totfact> 0.42079251E+03</totfact>
</mgrwt>
</event>
<event>
 5    1  0.3309811E-002  0.1249754E+03  0.7818608E-02  0.1235108E+00
         -4   -1    0    0    0  501 -0.00000000000E+00  0.00000000000E+00  0.14223816193E+03  0.14224383153E+03  0.12700000000E+01 0. -1.
          4   -1    0    0  501    0  0.00000000000E+00 -0.00000000000E+00 -0.27431032274E+02  0.27460415722E+02  0.12700000000E+01 0. -1.
         25    2    1    2    0    0  0.00000000000E+00  0.00000000000E+00  0.11480712965E+03  0.16970424725E+03  0.12497541565E+03 0.  0.
    9000005    1    3    3    0    0  0.47996308061E+02  0.31656065387E+02  0.90608662121E+02  0.10731580366E+03  0.10000000000E+01 0.  0.
    9000005    1    3    3    0    0 -0.47996308061E+02 -0.31656065387E+02  0.24198467532E+02  0.62388443594E+02  0.10000000000E+01 0.  0.
<mgrwt>
<rscale>  0 0.12497542E+03</rscale>
<asrwt>0</asrwt>
<pdfrwt beam="2">  1        4 0.42228551E-02 0.12497542E+03</pdfrwt>
<pdfrwt beam="1">  1       -4 0.21885491E-01 0.12497542E+03</pdfrwt>
<totfact> 0.95556508E+03</totfact>
</mgrwt>
</event>
<event>
 5    1  0.3309811E-002  0.1249993E+03  0.7818608E-02  0.1235070E+00
          4   -1    0    0  501    0  0.00000000000E+00  0.00000000000E+00  0.20999730433E+03  0.21000114458E+03  0.12700000000E+01 0.  1.
         -4   -1    0    0    0  501 -0.00000000000E+00 -0.00000000000E+00 -0.18575517701E+02  0.18618881756E+02  0.12700000000E+01 0.  1.
         25    2    1    2    0    0  0.00000000000E+00  0.00000000000E+00  0.19142178662E+03  0.22862002633E+03  0.12499926418E+03 0.  0.
    9000005    1    3    3    0    0  0.21751275067E+02 -0.46386686361E+02  0.16115538452E+03  0.16910618143E+03  0.10000000000E+01 0.  0.
    9000005    1    3    3    0    0 -0.21751275067E+02  0.46386686361E+02  0.30266402102E+02  0.59513844900E+02  0.10000000000E+01 0.  0.
<mgrwt>
<rscale>  0 0.12499926E+03</rscale>
<asrwt>0</asrwt>
<pdfrwt beam="1">  1        4 0.32310908E-01 0.12499926E+03</pdfrwt>
<pdfrwt beam="2">  1       -4 0.28614032E-02 0.12499926E+03</pdfrwt>
<totfact> 0.85523349E+03</totfact>
</mgrwt>
</event>
<event>
 5    1  0.3309811E-002  0.1250040E+03  0.7818608E-02  0.1235063E+00
          4   -1    0    0  501    0  0.00000000000E+00  0.00000000000E+00  0.55961006574E+02  0.55975415647E+02  0.12700000000E+01 0. -1.
         -4   -1    0    0    0  501 -0.00000000000E+00 -0.00000000000E+00 -0.69778355399E+02  0.69789911751E+02  0.12700000000E+01 0. -1.
         25    2    1    2    0    0  0.00000000000E+00  0.00000000000E+00 -0.13817348825E+02  0.12576532740E+03  0.12500399372E+03 0.  0.
    9000005    1    3    3    0    0 -0.25382106241E+02 -0.44075127258E+02  0.29625454127E+02  0.58868800669E+02  0.10000000000E+01 0.  0.
    9000005    1    3    3    0    0  0.25382106241E+02  0.44075127258E+02 -0.43442802952E+02  0.66896526729E+02  0.10000000000E+01 0.  0.
<mgrwt>
<rscale>  0 0.12500399E+03</rscale>
<asrwt>0</asrwt>
<pdfrwt beam="1">  1        4 0.86113830E-02 0.12500399E+03</pdfrwt>
<pdfrwt beam="2">  1       -4 0.10737129E-01 0.12500399E+03</pdfrwt>
<totfact> 0.10435167E+04</totfact>
</mgrwt>
</event>
<event>
 5    1  0.3309811E-002  0.1250161E+03  0.7818608E-02  0.1235044E+00
         -4   -1    0    0    0  501 -0.00000000000E+00  0.00000000000E+00  0.19889022017E+02  0.19929528263E+02  0.12700000000E+01 0.  1.
          4   -1    0    0  501    0  0.00000000000E+00 -0.00000000000E+00 -0.19621049271E+03  0.19621460280E+03  0.12700000000E+01 0.  1.
         25    2    1    2    0    0  0.00000000000E+00  0.00000000000E+00 -0.17632147069E+03  0.21614413106E+03  0.12501609642E+03 0.  0.
    9000005    1    3    3    0    0 -0.44627754475E+02 -0.58878536509E+01 -0.13197040101E+02  0.46919773630E+02  0.10000000000E+01 0.  0.
    9000005    1    3    3    0    0  0.44627754475E+02  0.58878536509E+01 -0.16312443059E+03  0.16922435743E+03  0.10000000000E+01 0.  0.
<mgrwt>
<rscale>  0 0.12501610E+03</rscale>
<asrwt>0</asrwt>
<pdfrwt beam="2">  1        4 0.30189660E-01 0.12501610E+03</pdfrwt>
<pdfrwt beam="1">  1       -4 0.30632817E-02 0.12501610E+03</pdfrwt>
<totfact> 0.87450736E+03</totfact>
</mgrwt>
</event>
<event>
 5    1  0.3309811E-002  0.1250002E+03  0.7818608E-02  0.1235069E+00
          4   -1    0    0  501    0  0.00000000000E+00  0.00000000000E+00  0.13513801043E+02  0.13573345890E+02  0.12700000000E+01 0.  1.
         -4   -1    0    0    0  501 -0.00000000000E+00 -0.00000000000E+00 -0.28836111767E+03  0.28836391432E+03  0.12700000000E+01 0.  1.
         25    2    1    2    0    0  0.00000000000E+00  0.00000000000E+00 -0.27484731663E+03  0.30193726021E+03  0.12500024659E+03 0.  0.
    9000005    1    3    3    0    0 -0.29998602111E+02 -0.54351111555E+02 -0.15472539639E+03  0.16671804864E+03  0.10000000000E+01 0.  0.
    9000005    1    3    3    0    0  0.29998602111E+02  0.54351111555E+02 -0.12012192024E+03  0.13521921157E+03  0.10000000000E+01 0.  0.
<mgrwt>
<rscale>  0 0.12500025E+03</rscale>
<asrwt>0</asrwt>
<pdfrwt beam="1">  1        4 0.20838420E-02 0.12500025E+03</pdfrwt>
<pdfrwt beam="2">  1       -4 0.44368040E-01 0.12500025E+03</pdfrwt>
<totfact> 0.75356063E+03</totfact>
</mgrwt>
</event>
<event>
 5    1  0.3309811E-002  0.1249957E+03  0.7818608E-02  0.1235076E+00
         -4   -1    0    0    0  501 -0.00000000000E+00  0.00000000000E+00  0.12168160713E+02  0.12234256624E+02  0.12700000000E+01 0.  1.
          4   -1    0    0  501    0  0.00000000000E+00 -0.00000000000E+00 -0.32006337812E+03  0.32006589777E+03  0.12700000000E+01 0.  1.
         25    2    1    2    0    0  0.00000000000E+00  0.00000000000E+00 -0.30789521741E+03  0.33230015439E+03  0.12499571075E+03 0.  0.
    9000005    1    3    3    0    0  0.39452563279E+02  0.30114141967E+02 -0.53008335354E+02  0.72624031234E+02  0.10000000000E+01 0.  0.
    9000005    1    3    3    0    0 -0.39452563279E+02 -0.30114141967E+02 -0.25488688205E+03  0.25967612316E+03  0.10000000000E+01 0.  0.
<mgrwt>
<rscale>  0 0.12499571E+03</rscale>
<asrwt>0</asrwt>
<pdfrwt beam="2">  1        4 0.49245791E-01 0.12499571E+03</pdfrwt>
<pdfrwt beam="1">  1       -4 0.18773031E-02 0.12499571E+03</pdfrwt>
<totfact> 0.71723495E+03</totfact>
</mgrwt>
</event>
<event>
 5    1  0.3309811E-002  0.1250026E+03  0.7818608E-02  0.1235065E+00
         -4   -1    0    0    0  501 -0.00000000000E+00  0.00000000000E+00  0.24379487114E+03  0.24379817902E+03  0.12700000000E+01 0. -1.
          4   -1    0    0  501    0  0.00000000000E+00 -0.00000000000E+00 -0.15994777240E+02  0.16045117605E+02  0.12700000000E+01 0. -1.
         25    2    1    2    0    0  0.00000000000E+00  0.00000000000E+00  0.22780009390E+03  0.25984329663E+03  0.12500262406E+03 0.  0.
    9000005    1    3    3    0    0 -0.23215220471E+02 -0.55557415682E+02  0.14867352590E+03  0.16040695185E+03  0.10000000000E+01 0.  0.
    9000005    1    3    3    0    0  0.23215220471E+02  0.55557415682E+02  0.79126568001E+02  0.99436344775E+02  0.10000000000E+01 0.  0.
<mgrwt>
<rscale>  0 0.12500262E+03</rscale>
<asrwt>0</asrwt>
<pdfrwt beam="2">  1        4 0.24648622E-02 0.12500262E+03</pdfrwt>
<pdfrwt beam="1">  1       -4 0.37511024E-01 0.12500262E+03</pdfrwt>
<totfact> 0.80923334E+03</totfact>
</mgrwt>
</event>
<event>
 5    1  0.3309811E-002  0.1250009E+03  0.7818608E-02  0.1235068E+00
          4   -1    0    0  501    0  0.00000000000E+00  0.00000000000E+00  0.55229602907E+03  0.55229748924E+03  0.12700000000E+01 0. -1.
         -4   -1    0    0    0  501 -0.00000000000E+00 -0.00000000000E+00 -0.70143538933E+01  0.71283981749E+01  0.12700000000E+01 0. -1.
         25    2    1    2    0    0  0.00000000000E+00  0.00000000000E+00  0.54528167517E+03  0.55942588742E+03  0.12500087293E+03 0.  0.
    9000005    1    3    3    0    0 -0.11440679331E+02  0.52839597394E+02  0.13236851042E+03  0.14298718385E+03  0.10000000000E+01 0.  0.
    9000005    1    3    3    0    0  0.11440679331E+02 -0.52839597394E+02  0.41291316476E+03  0.41643870356E+03  0.10000000000E+01 0.  0.
<mgrwt>
<rscale>  0 0.12500087E+03</rscale>
<asrwt>0</asrwt>
<pdfrwt beam="1">  1        4 0.84977518E-01 0.12500087E+03</pdfrwt>
<pdfrwt beam="2">  1       -4 0.10880162E-02 0.12500087E+03</pdfrwt>
<totfact> 0.51532200E+03</totfact>
</mgrwt>
</event>
<event>
 5    1  0.3309811E-002  0.1250025E+03  0.7818608E-02  0.1235065E+00
          4   -1    0    0  501    0  0.00000000000E+00  0.00000000000E+00  0.18538537239E+03  0.18538972247E+03  0.12700000000E+01 0. -1.
         -4   -1    0    0    0  501 -0.00000000000E+00 -0.00000000000E+00 -0.21048084022E+02  0.21086363864E+02  0.12700000000E+01 0. -1.
         25    2    1    2    0    0  0.00000000000E+00  0.00000000000E+00  0.16433728837E+03  0.20647608633E+03  0.12500251949E+03 0.  0.
    9000005    1    3    3    0    0  0.19826651506E+02  0.23335417519E+02 -0.78155201354E+01  0.31618351882E+02  0.10000000000E+01 0.  0.
    9000005    1    3    3    0    0 -0.19826651506E+02 -0.23335417519E+02  0.17215280850E+03  0.17485773445E+03  0.10000000000E+01 0.  0.
<mgrwt>
<rscale>  0 0.12500252E+03</rscale>
<asrwt>0</asrwt>
<pdfrwt beam="1">  1        4 0.28524107E-01 0.12500252E+03</pdfrwt>
<pdfrwt beam="2">  1       -4 0.32414459E-02 0.12500252E+03</pdfrwt>
<totfact> 0.89049616E+03</totfact>
</mgrwt>
</event>
<event>
 5    1  0.3309811E-002  0.1249962E+03  0.7818608E-02  0.1235075E+00
          4   -1    0    0  501    0  0.00000000000E+00  0.00000000000E+00  0.12508930126E+03  0.12509574808E+03  0.12700000000E+01 0.  1.
         -4   -1    0    0    0  501 -0.00000000000E+00 -0.00000000000E+00 -0.31205641570E+02  0.31231473961E+02  0.12700000000E+01 0.  1.
         25    2    1    2    0    0  0.00000000000E+00  0.00000000000E+00  0.93883659685E+02  0.15632722204E+03  0.12499623513E+03 0.  0.
    9000005    1    3    3    0    0  0.55391020186E+02 -0.27562542280E+02  0.57927387148E+02  0.84761082083E+02  0.10000000000E+01 0.  0.
    9000005    1    3    3    0    0 -0.55391020186E+02  0.27562542280E+02  0.35956272537E+02  0.71566139961E+02  0.10000000000E+01 0.  0.
<mgrwt>
<rscale>  0 0.12499624E+03</rscale>
<asrwt>0</asrwt>
<pdfrwt beam="1">  1        4 0.19246991E-01 0.12499624E+03</pdfrwt>
<pdfrwt beam="2">  1       -4 0.48033510E-02 0.12499624E+03</pdfrwt>
<totfact> 0.98063879E+03</totfact>
</mgrwt>
</event>
<event>
 5    1  0.3309811E-002  0.1249976E+03  0.7818608E-02  0.1235073E+00
         -4   -1    0    0    0  501 -0.00000000000E+00  0.00000000000E+00  0.39593391423E+01  0.41580363688E+01  0.12700000000E+01 0. -1.
          4   -1    0    0  501    0  0.00000000000E+00 -0.00000000000E+00 -0.96220573294E+03  0.96220657106E+03  0.12700000000E+01 0. -1.
         25    2    1    2    0    0  0.00000000000E+00  0.00000000000E+00 -0.95824639380E+03  0.96636460743E+03  0.12499761308E+03 0.  0.
    9000005    1    3    3    0    0 -0.60669307398E+02 -0.12847989398E+02 -0.53863990563E+03  0.54219902585E+03  0.10000000000E+01 0.  0.
    9000005    1    3    3    0    0  0.60669307398E+02  0.12847989398E+02 -0.41960648816E+03  0.42416558158E+03  0.10000000000E+01 0.  0.
<mgrwt>
<rscale>  0 0.12499761E+03</rscale>
<asrwt>0</asrwt>
<pdfrwt beam="2">  1        4 0.14804682E+00 0.12499761E+03</pdfrwt>
<pdfrwt beam="1">  1       -4 0.62447874E-03 0.12499761E+03</pdfrwt>
<totfact> 0.31743689E+03</totfact>
</mgrwt>
</event>
<event>
 5    1  0.3309811E-002  0.1250002E+03  0.7818608E-02  0.1235069E+00
         -4   -1    0    0    0  501 -0.00000000000E+00  0.00000000000E+00  0.12475512857E+03  0.12476159266E+03  0.12700000000E+01 0.  1.
          4   -1    0    0  501    0  0.00000000000E+00 -0.00000000000E+00 -0.31291258927E+02  0.31317020695E+02  0.12700000000E+01 0.  1.
         25    2    1    2    0    0  0.00000000000E+00  0.00000000000E+00  0.93463869639E+02  0.15607861336E+03  0.12500015448E+03 0.  0.
    9000005    1    3    3    0    0  0.76764417331E+01  0.57207753506E+02  0.16827248564E+02  0.60131614922E+02  0.10000000000E+01 0.  0.
    9000005    1    3    3    0    0 -0.76764417331E+01 -0.57207753506E+02  0.76636621075E+02  0.95946998435E+02  0.10000000000E+01 0.  0.
<mgrwt>
<rscale>  0 0.12500015E+03</rscale>
<asrwt>0</asrwt>
<pdfrwt beam="2">  1        4 0.48165187E-02 0.12500015E+03</pdfrwt>
<pdfrwt beam="1">  1       -4 0.19195576E-01 0.12500015E+03</pdfrwt>
<totfact> 0.98103828E+03</totfact>
</mgrwt>
</event>
<event>
 5    1  0.3309811E-002  0.1250012E+03  0.7818608E-02  0.1235067E+00
         -4   -1    0    0    0  501 -0.00000000000E+00  0.00000000000E+00  0.20785681059E+02  0.20824443260E+02  0.12700000000E+01 0. -1.
          4   -1    0    0  501    0  0.00000000000E+00 -0.00000000000E+00 -0.18771756052E+03  0.18772185655E+03  0.12700000000E+01 0. -1.
         25    2    1    2    0    0  0.00000000000E+00  0.00000000000E+00 -0.16693187946E+03  0.20854629981E+03  0.12500122713E+03 0.  0.
    9000005    1    3    3    0    0 -0.56906430441E+01  0.15274227844E+02 -0.18411680225E+03  0.18483961244E+03  0.10000000000E+01 0.  0.
    9000005    1    3    3    0    0  0.56906430441E+01 -0.15274227844E+02  0.17184922797E+02  0.23706687369E+02  0.10000000000E+01 0.  0.
<mgrwt>
<rscale>  0 0.12500123E+03</rscale>
<asrwt>0</asrwt>
<pdfrwt beam="2">  1        4 0.28882936E-01 0.12500123E+03</pdfrwt>
<pdfrwt beam="1">  1       -4 0.32011094E-02 0.12500123E+03</pdfrwt>
<totfact> 0.88711407E+03</totfact>
</mgrwt>
</event>
<event>
 5    1  0.3309811E-002  0.1250014E+03  0.7818608E-02  0.1235067E+00
          4   -1    0    0  501    0  0.00000000000E+00  0.00000000000E+00  0.58732104616E+02  0.58745834002E+02  0.12700000000E+01 0.  1.
         -4   -1    0    0    0  501 -0.00000000000E+00 -0.00000000000E+00 -0.66483574466E+02  0.66495703423E+02  0.12700000000E+01 0.  1.
         25    2    1    2    0    0  0.00000000000E+00  0.00000000000E+00 -0.77514698497E+01  0.12524153743E+03  0.12500142964E+03 0.  0.
    9000005    1    3    3    0    0 -0.37349530619E+02 -0.20187400013E+02  0.42068872166E+02  0.59777157528E+02  0.10000000000E+01 0.  0.
    9000005    1    3    3    0    0  0.37349530619E+02  0.20187400013E+02 -0.49820342016E+02  0.65464379897E+02  0.10000000000E+01 0.  0.
<mgrwt>
<rscale>  0 0.12500143E+03</rscale>
<asrwt>0</asrwt>
<pdfrwt beam="1">  1        4 0.90376975E-02 0.12500143E+03</pdfrwt>
<pdfrwt beam="2">  1       -4 0.10230231E-01 0.12500143E+03</pdfrwt>
<totfact> 0.10447281E+04</totfact>
</mgrwt>
</event>
<event>
 5    1  0.3309811E-002  0.1250019E+03  0.7818608E-02  0.1235066E+00
          4   -1    0    0  501    0  0.00000000000E+00  0.00000000000E+00  0.90642795581E+02  0.90651692156E+02  0.12700000000E+01 0. -1.
         -4   -1    0    0    0  501 -0.00000000000E+00 -0.00000000000E+00 -0.43075942160E+02  0.43094659681E+02  0.12700000000E+01 0. -1.
         25    2    1    2    0    0  0.00000000000E+00  0.00000000000E+00  0.47566853421E+02  0.13374635184E+03  0.12500192433E+03 0.  0.
    9000005    1    3    3    0    0  0.56710551854E+02  0.18979766807E+02  0.43746781286E+01  0.59970459798E+02  0.10000000000E+01 0.  0.
    9000005    1    3    3    0    0 -0.56710551854E+02 -0.18979766807E+02  0.43192175292E+02  0.73775892039E+02  0.10000000000E+01 0.  0.
<mgrwt>
<rscale>  0 0.12500192E+03</rscale>
<asrwt>0</asrwt>
<pdfrwt beam="1">  1        4 0.13947170E-01 0.12500192E+03</pdfrwt>
<pdfrwt beam="2">  1       -4 0.66291922E-02 0.12500192E+03</pdfrwt>
<totfact> 0.10264117E+04</totfact>
</mgrwt>
</event>
<event>
 5    1  0.3309811E-002  0.1249987E+03  0.7818608E-02  0.1235071E+00
          4   -1    0    0  501    0  0.00000000000E+00  0.00000000000E+00  0.20290973044E+04  0.20290977019E+04  0.12700000000E+01 0. -1.
         -4   -1    0    0    0  501 -0.00000000000E+00 -0.00000000000E+00 -0.17151772736E+01  0.21341820634E+01  0.12700000000E+01 0. -1.
         25    2    1    2    0    0  0.00000000000E+00  0.00000000000E+00  0.20273821272E+04  0.20312318839E+04  0.12499870722E+03 0.  0.
    9000005    1    3    3    0    0  0.47203011452E+02 -0.33110016684E+02  0.62207841646E+03  0.62474551117E+03  0.10000000000E+01 0.  0.
    9000005    1    3    3    0    0 -0.47203011452E+02  0.33110016684E+02  0.14053037107E+04  0.14064863728E+04  0.10000000000E+01 0.  0.
<mgrwt>
<rscale>  0 0.12499871E+03</rscale>
<asrwt>0</asrwt>
<pdfrwt beam="1">  1        4 0.31220037E+00 0.12499871E+03</pdfrwt>
<pdfrwt beam="2">  1       -4 0.29613581E-03 0.12499871E+03</pdfrwt>
<totfact> 0.94593605E+02</totfact>
</mgrwt>
</event>
<event>
 5    1  0.3309811E-002  0.1250095E+03  0.7818608E-02  0.1235054E+00
         -4   -1    0    0    0  501 -0.00000000000E+00  0.00000000000E+00  0.89512230601E+02  0.89521239531E+02  0.12700000000E+01 0.  1.
          4   -1    0    0  501    0  0.00000000000E+00 -0.00000000000E+00 -0.43625465600E+02  0.43643947448E+02  0.12700000000E+01 0.  1.
         25    2    1    2    0    0  0.00000000000E+00  0.00000000000E+00  0.45886765000E+02  0.13316518698E+03  0.12500948692E+03 0.  0.
    9000005    1    3    3    0    0  0.49171874285E+02 -0.31861050817E+02  0.46106995107E+02  0.74564433731E+02  0.10000000000E+01 0.  0.
    9000005    1    3    3    0    0 -0.49171874285E+02  0.31861050817E+02 -0.22023010665E+00  0.58600753248E+02  0.10000000000E+01 0.  0.
<mgrwt>
<rscale>  0 0.12500949E+03</rscale>
<asrwt>0</asrwt>
<pdfrwt beam="2">  1        4 0.67137249E-02 0.12500949E+03</pdfrwt>
<pdfrwt beam="1">  1       -4 0.13773227E-01 0.12500949E+03</pdfrwt>
<totfact> 0.10274692E+04</totfact>
</mgrwt>
</event>
<event>
 5    1  0.3309811E-002  0.1249996E+03  0.7818608E-02  0.1235070E+00
          4   -1    0    0  501    0  0.00000000000E+00  0.00000000000E+00  0.27944548276E+02  0.27973392328E+02  0.12700000000E+01 0. -1.
         -4   -1    0    0    0  501 -0.00000000000E+00 -0.00000000000E+00 -0.13968112054E+03  0.13968689393E+03  0.12700000000E+01 0. -1.
         25    2    1    2    0    0  0.00000000000E+00  0.00000000000E+00 -0.11173657227E+03  0.16766028626E+03  0.12499964003E+03 0.  0.
    9000005    1    3    3    0    0  0.14868331090E+02  0.60578769403E+02 -0.60953322857E+02  0.87219046883E+02  0.10000000000E+01 0.  0.
    9000005    1    3    3    0    0 -0.14868331090E+02 -0.60578769403E+02 -0.50783249412E+02  0.80441239378E+02  0.10000000000E+01 0.  0.
<mgrwt>
<rscale>  0 0.12499964E+03</rscale>
<asrwt>0</asrwt>
<pdfrwt beam="1">  1        4 0.43018242E-02 0.12499964E+03</pdfrwt>
<pdfrwt beam="2">  1       -4 0.21492066E-01 0.12499964E+03</pdfrwt>
<totfact> 0.95886710E+03</totfact>
</mgrwt>
</event>
<event>
 5    1  0.3309811E-002  0.1249768E+03  0.7818608E-02  0.1235106E+00
         -4   -1    0    0    0  501 -0.00000000000E+00  0.00000000000E+00  0.36201620468E+03  0.36201843234E+03  0.12700000000E+01 0.  1.
          4   -1    0    0  501    0  0.00000000000E+00 -0.00000000000E+00 -0.10746601376E+02  0.10821383513E+02  0.12700000000E+01 0.  1.
         25    2    1    2    0    0  0.00000000000E+00  0.00000000000E+00  0.35126960331E+03  0.37283981585E+03  0.12497677415E+03 0.  0.
    9000005    1    3    3    0    0  0.36540290550E+02  0.48512785499E+02  0.21938989892E+03  0.22764360509E+03  0.10000000000E+01 0.  0.
    9000005    1    3    3    0    0 -0.36540290550E+02 -0.48512785499E+02  0.13187970438E+03  0.14519621076E+03  0.10000000000E+01 0.  0.
<mgrwt>
<rscale>  0 0.12497677E+03</rscale>
<asrwt>0</asrwt>
<pdfrwt beam="2">  1        4 0.16592472E-02 0.12497677E+03</pdfrwt>
<pdfrwt beam="1">  1       -4 0.55700722E-01 0.12497677E+03</pdfrwt>
<totfact> 0.67317437E+03</totfact>
</mgrwt>
</event>
<event>
 5    1  0.3309811E-002  0.1249963E+03  0.7818608E-02  0.1235075E+00
         -4   -1    0    0    0  501 -0.00000000000E+00  0.00000000000E+00  0.36295385003E+02  0.36317597284E+02  0.12700000000E+01 0. -1.
          4   -1    0    0  501    0  0.00000000000E+00 -0.00000000000E+00 -0.10755857054E+03  0.10756606805E+03  0.12700000000E+01 0. -1.
         25    2    1    2    0    0  0.00000000000E+00  0.00000000000E+00 -0.71263185534E+02  0.14388366534E+03  0.12499627010E+03 0.  0.
    9000005    1    3    3    0    0 -0.40387079203E+02 -0.41992664564E+02 -0.61640342476E+02  0.84823533670E+02  0.10000000000E+01 0.  0.
    9000005    1    3    3    0    0  0.40387079203E+02  0.41992664564E+02 -0.96228430584E+01  0.59060131665E+02  0.10000000000E+01 0.  0.
<mgrwt>
<rscale>  0 0.12499627E+03</rscale>
<asrwt>0</asrwt>
<pdfrwt beam="2">  1        4 0.16549758E-01 0.12499627E+03</pdfrwt>
<pdfrwt beam="1">  1       -4 0.55861908E-02 0.12499627E+03</pdfrwt>
<totfact> 0.10054564E+04</totfact>
</mgrwt>
</event>
<event>
 5    1  0.3309811E-002  0.1249984E+03  0.7818608E-02  0.1235072E+00
          4   -1    0    0  501    0  0.00000000000E+00  0.00000000000E+00  0.12290283425E+02  0.12355726068E+02  0.12700000000E+01 0.  1.
         -4   -1    0    0    0  501 -0.00000000000E+00 -0.00000000000E+00 -0.31691365093E+03  0.31691619562E+03  0.12700000000E+01 0.  1.
         25    2    1    2    0    0  0.00000000000E+00  0.00000000000E+00 -0.30462336751E+03  0.32927192169E+03  0.12499840952E+03 0.  0.
    9000005    1    3    3    0    0  0.65642982136E+01 -0.53247211563E+02 -0.23672133257E+03  0.24272689353E+03  0.10000000000E+01 0.  0.
    9000005    1    3    3    0    0 -0.65642982136E+01  0.53247211563E+02 -0.67902034941E+02  0.86545028161E+02  0.10000000000E+01 0.  0.
<mgrwt>
<rscale>  0 0.12499841E+03</rscale>
<asrwt>0</asrwt>
<pdfrwt beam="1">  1        4 0.18960429E-02 0.12499841E+03</pdfrwt>
<pdfrwt beam="2">  1       -4 0.48761170E-01 0.12499841E+03</pdfrwt>
<totfact> 0.72069299E+03</totfact>
</mgrwt>
</event>
<event>
 5    1  0.3309811E-002  0.1250009E+03  0.7818608E-02  0.1235068E+00
         -4   -1    0    0    0  501 -0.00000000000E+00  0.00000000000E+00  0.10979036818E+02  0.11052246353E+02  0.12700000000E+01 0. -1.
          4   -1    0    0  501    0  0.00000000000E+00 -0.00000000000E+00 -0.35454033690E+03  0.35454261153E+03  0.12700000000E+01 0. -1.
         25    2    1    2    0    0  0.00000000000E+00  0.00000000000E+00 -0.34356130008E+03  0.36559485788E+03  0.12500093278E+03 0.  0.
    9000005    1    3    3    0    0 -0.52064206090E+02 -0.16167479648E+02 -0.26112834338E+03  0.26676034314E+03  0.10000000000E+01 0.  0.
    9000005    1    3    3    0    0  0.52064206090E+02  0.16167479648E+02 -0.82432956697E+02  0.98834514739E+02  0.10000000000E+01 0.  0.
<mgrwt>
<rscale>  0 0.12500093E+03</rscale>
<asrwt>0</asrwt>
<pdfrwt beam="2">  1        4 0.54550465E-01 0.12500093E+03</pdfrwt>
<pdfrwt beam="1">  1       -4 0.16948893E-02 0.12500093E+03</pdfrwt>
<totfact> 0.68040930E+03</totfact>
</mgrwt>
</event>
<event>
 5    1  0.3309811E-002  0.1250020E+03  0.7818608E-02  0.1235066E+00
          4   -1    0    0  501    0  0.00000000000E+00  0.00000000000E+00  0.11554483465E+03  0.11555181398E+03  0.12700000000E+01 0.  1.
         -4   -1    0    0    0  501 -0.00000000000E+00 -0.00000000000E+00 -0.33788358696E+02  0.33812217960E+02  0.12700000000E+01 0.  1.
         25    2    1    2    0    0  0.00000000000E+00  0.00000000000E+00  0.81756475957E+02  0.14936403194E+03  0.12500197069E+03 0.  0.
    9000005    1    3    3    0    0  0.48391572481E+02 -0.95937767966E+01 -0.49594111631E+01  0.49592142518E+02  0.10000000000E+01 0.  0.
    9000005    1    3    3    0    0 -0.48391572481E+02  0.95937767966E+01  0.86715887120E+02  0.99771889425E+02  0.10000000000E+01 0.  0.
<mgrwt>
<rscale>  0 0.12500197E+03</rscale>
<asrwt>0</asrwt>
<pdfrwt beam="1">  1        4 0.17778500E-01 0.12500197E+03</pdfrwt>
<pdfrwt beam="2">  1       -4 0.52005813E-02 0.12500197E+03</pdfrwt>
<totfact> 0.99426210E+03</totfact>
</mgrwt>
</event>
<event>
 5    1  0.3309811E-002  0.1249935E+03  0.7818608E-02  0.1235079E+00
          4   -1    0    0  501    0  0.00000000000E+00  0.00000000000E+00  0.19166826168E+03  0.19167246916E+03  0.12700000000E+01 0. -1.
         -4   -1    0    0    0  501 -0.00000000000E+00 -0.00000000000E+00 -0.20353917352E+02  0.20393500228E+02  0.12700000000E+01 0. -1.
         25    2    1    2    0    0  0.00000000000E+00  0.00000000000E+00  0.17131434432E+03  0.21206596939E+03  0.12499348304E+03 0.  0.
    9000005    1    3    3    0    0 -0.37168706061E+02  0.16386184837E+02  0.16622095198E+03  0.17111523790E+03  0.10000000000E+01 0.  0.
    9000005    1    3    3    0    0  0.37168706061E+02 -0.16386184837E+02  0.50933923407E+01  0.40950731487E+02  0.10000000000E+01 0.  0.
<mgrwt>
<rscale>  0 0.12499348E+03</rscale>
<asrwt>0</asrwt>
<pdfrwt beam="1">  1        4 0.29490794E-01 0.12499348E+03</pdfrwt>
<pdfrwt beam="2">  1       -4 0.31347403E-02 0.12499348E+03</pdfrwt>
<totfact> 0.88152428E+03</totfact>
</mgrwt>
</event>
<event>
 5    1  0.3309811E-002  0.1249993E+03  0.7818608E-02  0.1235070E+00
          4   -1    0    0  501    0  0.00000000000E+00  0.00000000000E+00  0.20074223587E+03  0.20074625317E+03  0.12700000000E+01 0. -1.
         -4   -1    0    0    0  501 -0.00000000000E+00 -0.00000000000E+00 -0.19433864577E+02  0.19475317517E+02  0.12700000000E+01 0. -1.
         25    2    1    2    0    0  0.00000000000E+00  0.00000000000E+00  0.18130837129E+03  0.22022157069E+03  0.12499925878E+03 0.  0.
    9000005    1    3    3    0    0 -0.25331137797E+02 -0.44731936017E+02  0.15325554564E+03  0.16165047143E+03  0.10000000000E+01 0.  0.
    9000005    1    3    3    0    0  0.25331137797E+02  0.44731936017E+02  0.28052825650E+02  0.58571099263E+02  0.10000000000E+01 0.  0.
<mgrwt>
<rscale>  0 0.12499926E+03</rscale>
<asrwt>0</asrwt>
<pdfrwt beam="1">  1        4 0.30886917E-01 0.12499926E+03</pdfrwt>
<pdfrwt beam="2">  1       -4 0.29933232E-02 0.12499926E+03</pdfrwt>
<totfact> 0.86834740E+03</totfact>
</mgrwt>
</event>
<event>
 5    1  0.3309811E-002  0.1250001E+03  0.7818608E-02  0.1235069E+00
          4   -1    0    0  501    0  0.00000000000E+00  0.00000000000E+00  0.47671803667E+02  0.47688717375E+02  0.12700000000E+01 0. -1.
         -4   -1    0    0    0  501 -0.00000000000E+00 -0.00000000000E+00 -0.81904251341E+02  0.81914097003E+02  0.12700000000E+01 0. -1.
         25    2    1    2    0    0  0.00000000000E+00  0.00000000000E+00 -0.34232447674E+02  0.12960281438E+03  0.12500011608E+03 0.  0.
    9000005    1    3    3    0    0  0.17242785860E+02 -0.56118189814E+02 -0.39321939315E+02  0.70666681001E+02  0.10000000000E+01 0.  0.
    9000005    1    3    3    0    0 -0.17242785860E+02  0.56118189814E+02  0.50894916411E+01  0.58936133377E+02  0.10000000000E+01 0.  0.
<mgrwt>
<rscale>  0 0.12500012E+03</rscale>
<asrwt>0</asrwt>
<pdfrwt beam="1">  1        4 0.73361821E-02 0.12500012E+03</pdfrwt>
<pdfrwt beam="2">  1       -4 0.12602712E-01 0.12500012E+03</pdfrwt>
<totfact> 0.10352984E+04</totfact>
</mgrwt>
</event>
<event>
 5    1  0.3309811E-002  0.1249892E+03  0.7818608E-02  0.1235086E+00
         -4   -1    0    0    0  501 -0.00000000000E+00  0.00000000000E+00  0.18269311026E+02  0.18313400159E+02  0.12700000000E+01 0. -1.
          4   -1    0    0  501    0  0.00000000000E+00 -0.00000000000E+00 -0.21347445019E+03  0.21347822789E+03  0.12700000000E+01 0. -1.
         25    2    1    2    0    0  0.00000000000E+00  0.00000000000E+00 -0.19520513916E+03  0.23179162805E+03  0.12498924945E+03 0.  0.
    9000005    1    3    3    0    0  0.41513109218E+02 -0.40779868615E+02 -0.55385170664E+02  0.80342100114E+02  0.10000000000E+01 0.  0.
    9000005    1    3    3    0    0 -0.41513109218E+02  0.40779868615E+02 -0.13981996850E+03  0.15144952794E+03  0.10000000000E+01 0.  0.
<mgrwt>
<rscale>  0 0.12498925E+03</rscale>
<asrwt>0</asrwt>
<pdfrwt beam="2">  1        4 0.32845903E-01 0.12498925E+03</pdfrwt>
<pdfrwt beam="1">  1       -4 0.28143454E-02 0.12498925E+03</pdfrwt>
<totfact> 0.85055646E+03</totfact>
</mgrwt>
</event>
<event>
 5    1  0.3309811E-002  0.1249951E+03  0.7818608E-02  0.1235077E+00
          4   -1    0    0  501    0  0.00000000000E+00  0.00000000000E+00  0.41979357990E+01  0.43858368612E+01  0.12700000000E+01 0.  1.
         -4   -1    0    0    0  501 -0.00000000000E+00 -0.00000000000E+00 -0.90988774471E+03  0.90988863103E+03  0.12700000000E+01 0.  1.
         25    2    1    2    0    0  0.00000000000E+00  0.00000000000E+00 -0.90568980891E+03  0.91427446789E+03  0.12499509058E+03 0.  0.
    9000005    1    3    3    0    0 -0.43655142979E+02  0.35960687225E+02 -0.25849417215E+03  0.26461137460E+03  0.10000000000E+01 0.  0.
    9000005    1    3    3    0    0  0.43655142979E+02 -0.35960687225E+02 -0.64719563676E+03  0.64966309329E+03  0.10000000000E+01 0.  0.
<mgrwt>
<rscale>  0 0.12499509E+03</rscale>
<asrwt>0</asrwt>
<pdfrwt beam="1">  1        4 0.66035910E-03 0.12499509E+03</pdfrwt>
<pdfrwt beam="2">  1       -4 0.13999710E+00 0.12499509E+03</pdfrwt>
<totfact> 0.33622841E+03</totfact>
</mgrwt>
</event>
<event>
 5    1  0.3309811E-002  0.1250012E+03  0.7818608E-02  0.1235067E+00
         -4   -1    0    0    0  501 -0.00000000000E+00  0.00000000000E+00  0.28810755154E+02  0.28838732852E+02  0.12700000000E+01 0. -1.
          4   -1    0    0  501    0  0.00000000000E+00 -0.00000000000E+00 -0.13548882970E+03  0.13549478172E+03  0.12700000000E+01 0. -1.
         25    2    1    2    0    0  0.00000000000E+00  0.00000000000E+00 -0.10667807455E+03  0.16433351458E+03  0.12500116969E+03 0.  0.
    9000005    1    3    3    0    0  0.41915963236E+02 -0.22653654507E+02 -0.17771326685E+00  0.47656768864E+02  0.10000000000E+01 0.  0.
    9000005    1    3    3    0    0 -0.41915963236E+02  0.22653654507E+02 -0.10650036128E+03  0.11667674571E+03  0.10000000000E+01 0.  0.
<mgrwt>
<rscale>  0 0.12500117E+03</rscale>
<asrwt>0</asrwt>
<pdfrwt beam="2">  1        4 0.20847045E-01 0.12500117E+03</pdfrwt>
<pdfrwt beam="1">  1       -4 0.44350339E-02 0.12500117E+03</pdfrwt>
<totfact> 0.96511227E+03</totfact>
</mgrwt>
</event>
<event>
 5    1  0.3309811E-002  0.1250021E+03  0.7818608E-02  0.1235066E+00
         -4   -1    0    0    0  501 -0.00000000000E+00  0.00000000000E+00  0.41975610602E+03  0.41975802725E+03  0.12700000000E+01 0.  1.
          4   -1    0    0  501    0  0.00000000000E+00 -0.00000000000E+00 -0.92610330454E+01  0.93477073696E+01  0.12700000000E+01 0.  1.
         25    2    1    2    0    0  0.00000000000E+00  0.00000000000E+00  0.41049507298E+03  0.42910573462E+03  0.12500210617E+03 0.  0.
    9000005    1    3    3    0    0 -0.12617118850E+02 -0.21202141108E+02  0.81487220112E+01  0.26002387314E+02  0.10000000000E+01 0.  0.
    9000005    1    3    3    0    0  0.12617118850E+02  0.21202141108E+02  0.40234635097E+03  0.40310334731E+03  0.10000000000E+01 0.  0.
<mgrwt>
<rscale>  0 0.12500211E+03</rscale>
<asrwt>0</asrwt>
<pdfrwt beam="2">  1        4 0.14315896E-02 0.12500211E+03</pdfrwt>
<pdfrwt beam="1">  1       -4 0.64584667E-01 0.12500211E+03</pdfrwt>
<totfact> 0.61814268E+03</totfact>
</mgrwt>
</event>
<event>
 5    1  0.3309811E-002  0.1250016E+03  0.7818608E-02  0.1235067E+00
         -4   -1    0    0    0  501 -0.00000000000E+00  0.00000000000E+00  0.32826300174E+02  0.32850858179E+02  0.12700000000E+01 0.  1.
          4   -1    0    0  501    0  0.00000000000E+00 -0.00000000000E+00 -0.11892811794E+03  0.11893489873E+03  0.12700000000E+01 0.  1.
         25    2    1    2    0    0  0.00000000000E+00  0.00000000000E+00 -0.86101817762E+02  0.15178575691E+03  0.12500157190E+03 0.  0.
    9000005    1    3    3    0    0  0.27058694112E+01  0.45590574889E+02  0.87449070508E+01  0.46511242160E+02  0.10000000000E+01 0.  0.
    9000005    1    3    3    0    0 -0.27058694112E+01 -0.45590574889E+02 -0.94846724812E+02  0.10527451475E+03  0.10000000000E+01 0.  0.
<mgrwt>
<rscale>  0 0.12500157E+03</rscale>
<asrwt>0</asrwt>
<pdfrwt beam="2">  1        4 0.18299044E-01 0.12500157E+03</pdfrwt>
<pdfrwt beam="1">  1       -4 0.50526108E-02 0.12500157E+03</pdfrwt>
<totfact> 0.98945419E+03</totfact>
</mgrwt>
</event>
<event>
 5    1  0.3309811E-002  0.1249982E+03  0.7818608E-02  0.1235072E+00
          4   -1    0    0  501    0  0.00000000000E+00  0.00000000000E+00  0.16946993553E+03  0.16947469412E+03  0.12700000000E+01 0. -1.
         -4   -1    0    0    0  501 -0.00000000000E+00 -0.00000000000E+00 -0.23026548466E+02  0.23061544490E+02  0.12700000000E+01 0. -1.
         25    2    1    2    0    0  0.00000000000E+00  0.00000000000E+00  0.14644338706E+03  0.19253623861E+03  0.12499815024E+03 0.  0.
    9000005    1    3    3    0    0 -0.55680914625E+02  0.28362710466E+02  0.74102225389E+02  0.96937853319E+02  0.10000000000E+01 0.  0.
    9000005    1    3    3    0    0  0.55680914625E+02 -0.28362710466E+02  0.72341161670E+02  0.95598385291E+02  0.10000000000E+01 0.  0.
<mgrwt>
<rscale>  0 0.12499815E+03</rscale>
<asrwt>0</asrwt>
<pdfrwt beam="1">  1        4 0.26075356E-01 0.12499815E+03</pdfrwt>
<pdfrwt beam="2">  1       -4 0.35456039E-02 0.12499815E+03</pdfrwt>
<totfact> 0.91411667E+03</totfact>
</mgrwt>
</event>
<event>
 5    1  0.3309811E-002  0.1250001E+03  0.7818608E-02  0.1235069E+00
          4   -1    0    0  501    0  0.00000000000E+00  0.00000000000E+00  0.82018304088E+02  0.82028136060E+02  0.12700000000E+01 0. -1.
         -4   -1    0    0    0  501 -0.00000000000E+00 -0.00000000000E+00 -0.47605480144E+02  0.47622417408E+02  0.12700000000E+01 0. -1.
         25    2    1    2    0    0  0.00000000000E+00  0.00000000000E+00  0.34412823944E+02  0.12965055347E+03  0.12500009425E+03 0.  0.
    9000005    1    3    3    0    0  0.44822522628E+02  0.78538139524E+01 -0.27218304397E+02  0.53033734760E+02  0.10000000000E+01 0.  0.
    9000005    1    3    3    0    0 -0.44822522628E+02 -0.78538139524E+01  0.61631128341E+02  0.76616818708E+02  0.10000000000E+01 0.  0.
<mgrwt>
<rscale>  0 0.12500009E+03</rscale>
<asrwt>0</asrwt>
<pdfrwt beam="1">  1        4 0.12620260E-01 0.12500009E+03</pdfrwt>
<pdfrwt beam="2">  1       -4 0.73259792E-02 0.12500009E+03</pdfrwt>
<totfact> 0.10351966E+04</totfact>
</mgrwt>
</event>
<event>
 5    1  0.3309811E-002  0.1250003E+03  0.7818608E-02  0.1235069E+00
          4   -1    0    0  501    0  0.00000000000E+00  0.00000000000E+00  0.44751881041E+03  0.44752061245E+03  0.12700000000E+01 0. -1.
         -4   -1    0    0    0  501 -0.00000000000E+00 -0.00000000000E+00 -0.86806972987E+01  0.87731069520E+01  0.12700000000E+01 0. -1.
         25    2    1    2    0    0  0.00000000000E+00  0.00000000000E+00  0.43883811311E+03  0.45629371940E+03  0.12500027540E+03 0.  0.
    9000005    1    3    3    0    0  0.19372962430E+01  0.60864992962E+02  0.16818839597E+03  0.17887603815E+03  0.10000000000E+01 0.  0.
    9000005    1    3    3    0    0 -0.19372962430E+01 -0.60864992962E+02  0.27064971713E+03  0.27741768125E+03  0.10000000000E+01 0.  0.
<mgrwt>
<rscale>  0 0.12500028E+03</rscale>
<asrwt>0</asrwt>
<pdfrwt beam="1">  1        4 0.68856275E-01 0.12500028E+03</pdfrwt>
<pdfrwt beam="2">  1       -4 0.13427393E-02 0.12500028E+03</pdfrwt>
<totfact> 0.59422070E+03</totfact>
</mgrwt>
</event>
<event>
 5    1  0.3309811E-002  0.1250015E+03  0.7818608E-02  0.1235067E+00
         -4   -1    0    0    0  501 -0.00000000000E+00  0.00000000000E+00  0.11960235165E+03  0.11960909422E+03  0.12700000000E+01 0.  1.
          4   -1    0    0  501    0  0.00000000000E+00 -0.00000000000E+00 -0.32641092307E+02  0.32665789551E+02  0.12700000000E+01 0.  1.
         25    2    1    2    0    0  0.00000000000E+00  0.00000000000E+00  0.86961259347E+02  0.15227488378E+03  0.12500151840E+03 0.  0.
    9000005    1    3    3    0    0 -0.34396228792E+02  0.10711441592E+02  0.10568572023E+03  0.11166157350E+03  0.10000000000E+01 0.  0.
    9000005    1    3    3    0    0  0.34396228792E+02 -0.10711441592E+02 -0.18724460883E+02  0.40613310275E+02  0.10000000000E+01 0.  0.
<mgrwt>
<rscale>  0 0.12500152E+03</rscale>
<asrwt>0</asrwt>
<pdfrwt beam="2">  1        4 0.50241250E-02 0.12500152E+03</pdfrwt>
<pdfrwt beam="1">  1       -4 0.18402780E-01 0.12500152E+03</pdfrwt>
<totfact> 0.98848775E+03</totfact>
</mgrwt>
</event>
<event>
 5    1  0.3309811E-002  0.1250001E+03  0.7818608E-02  0.1235069E+00
         -4   -1    0    0    0  501 -0.00000000000E+00  0.00000000000E+00  0.12949713236E+03  0.12950335976E+03  0.12700000000E+01 0.  1.
          4   -1    0    0  501    0  0.00000000000E+00 -0.00000000000E+00 -0.30144484740E+02  0.30171225700E+02  0.12700000000E+01 0.  1.
         25    2    1    2    0    0  0.00000000000E+00  0.00000000000E+00  0.99352647617E+02  0.15967458546E+03  0.12500009861E+03 0.  0.
    9000005    1    3    3    0    0 -0.40974055839E+02  0.42937908878E+02  0.24686373516E+02  0.64288057274E+02  0.10000000000E+01 0.  0.
    9000005    1    3    3    0    0  0.40974055839E+02 -0.42937908878E+02  0.74666274101E+02  0.95386528183E+02  0.10000000000E+01 0.  0.
<mgrwt>
<rscale>  0 0.12500010E+03</rscale>
<asrwt>0</asrwt>
<pdfrwt beam="2">  1        4 0.46401491E-02 0.12500010E+03</pdfrwt>
<pdfrwt beam="1">  1       -4 0.19925171E-01 0.12500010E+03</pdfrwt>
<totfact> 0.97405343E+03</totfact>
</mgrwt>
</event>
<event>
 5    1  0.3309811E-002  0.1249817E+03  0.7818608E-02  0.1235098E+00
          4   -1    0    0  501    0  0.00000000000E+00  0.00000000000E+00  0.35512567836E+02  0.35535269442E+02  0.12700000000E+01 0.  1.
         -4   -1    0    0    0  501 -0.00000000000E+00 -0.00000000000E+00 -0.10990247616E+03  0.10990981378E+03  0.12700000000E+01 0.  1.
         25    2    1    2    0    0  0.00000000000E+00  0.00000000000E+00 -0.74389908323E+02  0.14544508322E+03  0.12498165375E+03 0.  0.
    9000005    1    3    3    0    0 -0.47352934387E+02 -0.83733260087E+01  0.92332712397E+01  0.48976180755E+02  0.10000000000E+01 0.  0.
    9000005    1    3    3    0    0  0.47352934387E+02  0.83733260087E+01 -0.83623179563E+02  0.96468902470E+02  0.10000000000E+01 0.  0.
<mgrwt>
<rscale>  0 0.12498165E+03</rscale>
<asrwt>0</asrwt>
<pdfrwt beam="1">  1        4 0.54657827E-02 0.12498165E+03</pdfrwt>
<pdfrwt beam="2">  1       -4 0.16910384E-01 0.12498165E+03</pdfrwt>
<totfact> 0.10026094E+04</totfact>
</mgrwt>
</event>
<event>
 4    1  0.3309811E-002  0.1250861E+03  0.7818608E-02  0.1234935E+00
         -4   -1    0    0    0  501 -0.00000000000E+00  0.00000000000E+00  0.69871559387E+02  0.69883100326E+02  0.12700000000E+01 0.  1.
          4   -1    0    0  501    0  0.00000000000E+00 -0.00000000000E+00 -0.55959810955E+02  0.55974220335E+02  0.12700000000E+01 0.  1.
    9000005    1    1    2    0    0 -0.28353805229E+02 -0.35434839790E+02 -0.36333412794E+02  0.58143641331E+02  0.10000000000E+01 0.  0.
    9000005    1    1    2    0    0  0.28353805229E+02  0.35434839790E+02  0.50245161225E+02  0.67713679330E+02  0.10000000000E+01 0.  0.
<mgrwt>
<rscale>  0 0.12508608E+03</rscale>
<asrwt>0</asrwt>
<pdfrwt beam="2">  1        4 0.86111978E-02 0.12508608E+03</pdfrwt>
<pdfrwt beam="1">  1       -4 0.10751467E-01 0.12508608E+03</pdfrwt>
<totfact> 0.10413846E+04</totfact>
</mgrwt>
</event>
<event>
 5    1  0.3309811E-002  0.1249990E+03  0.7818608E-02  0.1235071E+00
         -4   -1    0    0    0  501 -0.00000000000E+00  0.00000000000E+00  0.65022704590E+02  0.65035105998E+02  0.12700000000E+01 0. -1.
          4   -1    0    0  501    0  0.00000000000E+00 -0.00000000000E+00 -0.60049325671E+02  0.60062753962E+02  0.12700000000E+01 0. -1.
         25    2    1    2    0    0  0.00000000000E+00  0.00000000000E+00  0.49733789191E+01  0.12509785996E+03  0.12499896027E+03 0.  0.
    9000005    1    3    3    0    0 -0.45368894518E+02  0.15572309657E+01 -0.40494041625E+02  0.60840192021E+02  0.10000000000E+01 0.  0.
    9000005    1    3    3    0    0  0.45368894518E+02 -0.15572309657E+01  0.45467420544E+02  0.64257667939E+02  0.10000000000E+01 0.  0.
<mgrwt>
<rscale>  0 0.12499896E+03</rscale>
<asrwt>0</asrwt>
<pdfrwt beam="2">  1        4 0.92403447E-02 0.12499896E+03</pdfrwt>
<pdfrwt beam="1">  1       -4 0.10005480E-01 0.12499896E+03</pdfrwt>
<totfact> 0.10450983E+04</totfact>
</mgrwt>
</event>
<event>
 5    1  0.3309811E-002  0.1249984E+03  0.7818608E-02  0.1235072E+00
          4   -1    0    0  501    0  0.00000000000E+00  0.00000000000E+00  0.92928593075E+02  0.92937270838E+02  0.12700000000E+01 0.  1.
         -4   -1    0    0    0  501 -0.00000000000E+00 -0.00000000000E+00 -0.42013637633E+02  0.42032828208E+02  0.12700000000E+01 0.  1.
         25    2    1    2    0    0  0.00000000000E+00  0.00000000000E+00  0.50914955442E+02  0.13497009905E+03  0.12499837979E+03 0.  0.
    9000005    1    3    3    0    0  0.48887713783E+02  0.32602791648E+02  0.24961194060E+01  0.58823304857E+02  0.10000000000E+01 0.  0.
    9000005    1    3    3    0    0 -0.48887713783E+02 -0.32602791648E+02  0.48418836036E+02  0.76146794189E+02  0.10000000000E+01 0.  0.
<mgrwt>
<rscale>  0 0.12499838E+03</rscale>
<asrwt>0</asrwt>
<pdfrwt beam="1">  1        4 0.14298850E-01 0.12499838E+03</pdfrwt>
<pdfrwt beam="2">  1       -4 0.64657803E-02 0.12499838E+03</pdfrwt>
<totfact> 0.10239075E+04</totfact>
</mgrwt>
</event>
<event>
 5    1  0.3309811E-002  0.1249969E+03  0.7818608E-02  0.1235074E+00
         -4   -1    0    0    0  501 -0.00000000000E+00  0.00000000000E+00  0.69910759074E+02  0.69922293543E+02  0.12700000000E+01 0.  1.
          4   -1    0    0  501    0  0.00000000000E+00 -0.00000000000E+00 -0.55848661405E+02  0.55863099455E+02  0.12700000000E+01 0.  1.
         25    2    1    2    0    0  0.00000000000E+00  0.00000000000E+00  0.14062097669E+02  0.12578539300E+03  0.12499688996E+03 0.  0.
    9000005    1    3    3    0    0 -0.23648507652E+02  0.56080277238E+02  0.21291050611E+02  0.64486884290E+02  0.10000000000E+01 0.  0.
    9000005    1    3    3    0    0  0.23648507652E+02 -0.56080277238E+02 -0.72289529418E+01  0.61298508709E+02  0.10000000000E+01 0.  0.
<mgrwt>
<rscale>  0 0.12499689E+03</rscale>
<asrwt>0</asrwt>
<pdfrwt beam="2">  1        4 0.85940997E-02 0.12499689E+03</pdfrwt>
<pdfrwt beam="1">  1       -4 0.10757499E-01 0.12499689E+03</pdfrwt>
<totfact> 0.10436399E+04</totfact>
</mgrwt>
</event>
<event>
 5    1  0.3309811E-002  0.1250011E+03  0.7818608E-02  0.1235068E+00
          4   -1    0    0  501    0  0.00000000000E+00  0.00000000000E+00  0.31846946649E+01  0.34285828134E+01  0.12700000000E+01 0.  1.
         -4   -1    0    0    0  501 -0.00000000000E+00 -0.00000000000E+00 -0.11811111989E+04  0.11811118817E+04  0.12700000000E+01 0.  1.
         25    2    1    2    0    0  0.00000000000E+00  0.00000000000E+00 -0.11779265043E+04  0.11845404645E+04  0.12500105065E+03 0.  0.
    9000005    1    3    3    0    0 -0.35687467798E+02  0.43162224288E+02 -0.85170358203E+03  0.85354353410E+03  0.10000000000E+01 0.  0.
    9000005    1    3    3    0    0  0.35687467798E+02 -0.43162224288E+02 -0.32622292224E+03  0.33099693043E+03  0.10000000000E+01 0.  0.
<mgrwt>
<rscale>  0 0.12500105E+03</rscale>
<asrwt>0</asrwt>
<pdfrwt beam="1">  1        4 0.50876711E-03 0.12500105E+03</pdfrwt>
<pdfrwt beam="2">  1       -4 0.18172789E+00 0.12500105E+03</pdfrwt>
<totfact> 0.25120506E+03</totfact>
</mgrwt>
</event>
<event>
 5    1  0.3309811E-002  0.1250082E+03  0.7818608E-02  0.1235057E+00
         -4   -1    0    0    0  501 -0.00000000000E+00  0.00000000000E+00  0.11037420526E+03  0.11038151152E+03  0.12700000000E+01 0. -1.
          4   -1    0    0  501    0  0.00000000000E+00 -0.00000000000E+00 -0.35375718152E+02  0.35398507522E+02  0.12700000000E+01 0. -1.
         25    2    1    2    0    0  0.00000000000E+00  0.00000000000E+00  0.74998487105E+02  0.14578001905E+03  0.12500816327E+03 0.  0.
    9000005    1    3    3    0    0 -0.40999581536E+01  0.60986375673E+02  0.22311662250E+02  0.65076554511E+02  0.10000000000E+01 0.  0.
    9000005    1    3    3    0    0  0.40999581536E+01 -0.60986375673E+02  0.52686824854E+02  0.80703464534E+02  0.10000000000E+01 0.  0.
<mgrwt>
<rscale>  0 0.12500816E+03</rscale>
<asrwt>0</asrwt>
<pdfrwt beam="2">  1        4 0.54447334E-02 0.12500816E+03</pdfrwt>
<pdfrwt beam="1">  1       -4 0.16982962E-01 0.12500816E+03</pdfrwt>
<totfact> 0.10013324E+04</totfact>
</mgrwt>
</event>
<event>
 5    1  0.3309811E-002  0.1249973E+03  0.7818608E-02  0.1235073E+00
         -4   -1    0    0    0  501 -0.00000000000E+00  0.00000000000E+00  0.32765772228E+02  0.32790375565E+02  0.12700000000E+01 0.  1.
          4   -1    0    0  501    0  0.00000000000E+00 -0.00000000000E+00 -0.11913953442E+03  0.11914630318E+03  0.12700000000E+01 0.  1.
         25    2    1    2    0    0  0.00000000000E+00  0.00000000000E+00 -0.86373762189E+02  0.15193667874E+03  0.12499731018E+03 0.  0.
    9000005    1    3    3    0    0 -0.24143848795E+02  0.57632005403E+02 -0.44209946324E+02  0.76549936874E+02  0.10000000000E+01 0.  0.
    9000005    1    3    3    0    0  0.24143848795E+02 -0.57632005403E+02 -0.42163815864E+02  0.75386741869E+02  0.10000000000E+01 0.  0.
<mgrwt>
<rscale>  0 0.12499731E+03</rscale>
<asrwt>0</asrwt>
<pdfrwt beam="2">  1        4 0.18331572E-01 0.12499731E+03</pdfrwt>
<pdfrwt beam="1">  1       -4 0.50433013E-02 0.12499731E+03</pdfrwt>
<totfact> 0.98925029E+03</totfact>
</mgrwt>
</event>
<event>
 5    1  0.3309811E-002  0.1250008E+03  0.7818608E-02  0.1235068E+00
         -4   -1    0    0    0  501 -0.00000000000E+00  0.00000000000E+00  0.72307423047E+02  0.72318575260E+02  0.12700000000E+01 0. -1.
          4   -1    0    0  501    0  0.00000000000E+00 -0.00000000000E+00 -0.54000732664E+02  0.54015664656E+02  0.12700000000E+01 0. -1.
         25    2    1    2    0    0  0.00000000000E+00  0.00000000000E+00  0.18306690383E+02  0.12633423992E+03  0.12500082105E+03 0.  0.
    9000005    1    3    3    0    0  0.46873880574E+02 -0.39773252932E+02 -0.22016709049E+01  0.61521700916E+02  0.10000000000E+01 0.  0.
    9000005    1    3    3    0    0 -0.46873880574E+02  0.39773252932E+02  0.20508361288E+02  0.64812539000E+02  0.10000000000E+01 0.  0.
<mgrwt>
<rscale>  0 0.12500082E+03</rscale>
<asrwt>0</asrwt>
<pdfrwt beam="2">  1        4 0.83098115E-02 0.12500082E+03</pdfrwt>
<pdfrwt beam="1">  1       -4 0.11126225E-01 0.12500082E+03</pdfrwt>
<totfact> 0.10423452E+04</totfact>
</mgrwt>
</event>
<event>
 5    1  0.3309811E-002  0.1249976E+03  0.7818608E-02  0.1235073E+00
         -4   -1    0    0    0  501 -0.00000000000E+00  0.00000000000E+00  0.83963149316E+01  0.84918198539E+01  0.12700000000E+01 0.  1.
          4   -1    0    0  501    0  0.00000000000E+00 -0.00000000000E+00 -0.46248896233E+03  0.46249070604E+03  0.12700000000E+01 0.  1.
         25    2    1    2    0    0  0.00000000000E+00  0.00000000000E+00 -0.45409264740E+03  0.47098252590E+03  0.12499762910E+03 0.  0.
    9000005    1    3    3    0    0  0.11950177027E+02 -0.20551605244E+02 -0.44480300092E+03  0.44543897993E+03  0.10000000000E+01 0.  0.
    9000005    1    3    3    0    0 -0.11950177027E+02  0.20551605244E+02 -0.92896464754E+01  0.25543545970E+02  0.10000000000E+01 0.  0.
<mgrwt>
<rscale>  0 0.12499763E+03</rscale>
<asrwt>0</asrwt>
<pdfrwt beam="2">  1        4 0.71159609E-01 0.12499763E+03</pdfrwt>
<pdfrwt beam="1">  1       -4 0.12992218E-02 0.12499763E+03</pdfrwt>
<totfact> 0.58191263E+03</totfact>
</mgrwt>
</event>
<event>
 5    1  0.3309811E-002  0.1249991E+03  0.7818608E-02  0.1235071E+00
         -4   -1    0    0    0  501 -0.00000000000E+00  0.00000000000E+00  0.86589519139E+02  0.86598832121E+02  0.12700000000E+01 0.  1.
          4   -1    0    0  501    0  0.00000000000E+00 -0.00000000000E+00 -0.45090942193E+02  0.45108823615E+02  0.12700000000E+01 0.  1.
         25    2    1    2    0    0  0.00000000000E+00  0.00000000000E+00  0.41498576945E+02  0.13170765574E+03  0.12499909876E+03 0.  0.
    9000005    1    3    3    0    0  0.62131196767E+02 -0.40676603619E+01  0.15137851398E+02  0.64085770788E+02  0.10000000000E+01 0.  0.
    9000005    1    3    3    0    0 -0.62131196767E+02  0.40676603619E+01  0.26360725547E+02  0.67621884948E+02  0.10000000000E+01 0.  0.
<mgrwt>
<rscale>  0 0.12499910E+03</rscale>
<asrwt>0</asrwt>
<pdfrwt beam="2">  1        4 0.69391600E-02 0.12499910E+03</pdfrwt>
<pdfrwt beam="1">  1       -4 0.13323556E-01 0.12499910E+03</pdfrwt>
<totfact> 0.10308152E+04</totfact>
</mgrwt>
</event>
<event>
 5    1  0.3309811E-002  0.1250005E+03  0.7818608E-02  0.1235069E+00
         -4   -1    0    0    0  501 -0.00000000000E+00  0.00000000000E+00  0.11291304298E+03  0.11292018498E+03  0.12700000000E+01 0. -1.
          4   -1    0    0  501    0  0.00000000000E+00 -0.00000000000E+00 -0.34575574157E+02  0.34598890564E+02  0.12700000000E+01 0. -1.
         25    2    1    2    0    0  0.00000000000E+00  0.00000000000E+00  0.78337468826E+02  0.14751907554E+03  0.12500047451E+03 0.  0.
    9000005    1    3    3    0    0  0.35645106421E+02  0.49777196726E+02  0.53952968205E+02  0.81610450947E+02  0.10000000000E+01 0.  0.
    9000005    1    3    3    0    0 -0.35645106421E+02 -0.49777196726E+02  0.24384500621E+02  0.65908624596E+02  0.10000000000E+01 0.  0.
<mgrwt>
<rscale>  0 0.12500047E+03</rscale>
<asrwt>0</asrwt>
<pdfrwt beam="2">  1        4 0.53216620E-02 0.12500047E+03</pdfrwt>
<pdfrwt beam="1">  1       -4 0.17373581E-01 0.12500047E+03</pdfrwt>
<totfact> 0.99799485E+03</totfact>
</mgrwt>
</event>
<event>
 5    1  0.3309811E-002  0.1250070E+03  0.7818608E-02  0.1235058E+00
         -4   -1    0    0    0  501 -0.00000000000E+00  0.00000000000E+00  0.52277869501E+03  0.52278023763E+03  0.12700000000E+01 0.  1.
          4   -1    0    0  501    0  0.00000000000E+00 -0.00000000000E+00 -0.74174085691E+01  0.75253471602E+01  0.12700000000E+01 0.  1.
         25    2    1    2    0    0  0.00000000000E+00  0.00000000000E+00  0.51536128644E+03  0.53030558479E+03  0.12500703059E+03 0.  0.
    9000005    1    3    3    0    0  0.48910545110E+02  0.36949795185E+02  0.30931730764E+03  0.31533430767E+03  0.10000000000E+01 0.  0.
    9000005    1    3    3    0    0 -0.48910545110E+02 -0.36949795185E+02  0.20604397881E+03  0.21497127713E+03  0.10000000000E+01 0.  0.
<mgrwt>
<rscale>  0 0.12500703E+03</rscale>
<asrwt>0</asrwt>
<pdfrwt beam="2">  1        4 0.11495620E-02 0.12500703E+03</pdfrwt>
<pdfrwt beam="1">  1       -4 0.80435874E-01 0.12500703E+03</pdfrwt>
<totfact> 0.53579118E+03</totfact>
</mgrwt>
</event>
<event>
 5    1  0.3309811E-002  0.1249983E+03  0.7818608E-02  0.1235072E+00
         -4   -1    0    0    0  501 -0.00000000000E+00  0.00000000000E+00  0.44843056633E+02  0.44861036861E+02  0.12700000000E+01 0. -1.
          4   -1    0    0  501    0  0.00000000000E+00 -0.00000000000E+00 -0.87066883411E+02  0.87076145338E+02  0.12700000000E+01 0. -1.
         25    2    1    2    0    0  0.00000000000E+00  0.00000000000E+00 -0.42223826777E+02  0.13193718220E+03  0.12499827398E+03 0.  0.
    9000005    1    3    3    0    0  0.52443209915E+02 -0.55712248211E+01 -0.56496186184E+02  0.77292611972E+02  0.10000000000E+01 0.  0.
    9000005    1    3    3    0    0 -0.52443209915E+02  0.55712248211E+01  0.14272359406E+02  0.54644570226E+02  0.10000000000E+01 0.  0.
<mgrwt>
<rscale>  0 0.12499827E+03</rscale>
<asrwt>0</asrwt>
<pdfrwt beam="2">  1        4 0.13397001E-01 0.12499827E+03</pdfrwt>
<pdfrwt beam="1">  1       -4 0.69010274E-02 0.12499827E+03</pdfrwt>
<totfact> 0.10303441E+04</totfact>
</mgrwt>
</event>
<event>
 5    1  0.3309811E-002  0.1250043E+03  0.7818608E-02  0.1235063E+00
         -4   -1    0    0    0  501 -0.00000000000E+00  0.00000000000E+00  0.35081585892E+01  0.37309618983E+01  0.12700000000E+01 0.  1.
          4   -1    0    0  501    0  0.00000000000E+00 -0.00000000000E+00 -0.10790564128E+04  0.10790571601E+04  0.12700000000E+01 0.  1.
         25    2    1    2    0    0  0.00000000000E+00  0.00000000000E+00 -0.10755482542E+04  0.10827881220E+04  0.12500428051E+03 0.  0.
    9000005    1    3    3    0    0  0.56725156736E+02  0.25134943463E+02 -0.47294852986E+03  0.47700190848E+03  0.10000000000E+01 0.  0.
    9000005    1    3    3    0    0 -0.56725156736E+02 -0.25134943463E+02 -0.60259972431E+03  0.60578621355E+03  0.10000000000E+01 0.  0.
<mgrwt>
<rscale>  0 0.12500428E+03</rscale>
<asrwt>0</asrwt>
<pdfrwt beam="2">  1        4 0.16602562E+00 0.12500428E+03</pdfrwt>
<pdfrwt beam="1">  1       -4 0.55691377E-03 0.12500428E+03</pdfrwt>
<totfact> 0.27990105E+03</totfact>
</mgrwt>
</event>
<event>
 5    1  0.3309811E-002  0.1250007E+03  0.7818608E-02  0.1235068E+00
         -4   -1    0    0    0  501 -0.00000000000E+00  0.00000000000E+00  0.12231030065E+02  0.12296788054E+02  0.12700000000E+01 0. -1.
          4   -1    0    0  501    0  0.00000000000E+00 -0.00000000000E+00 -0.31845265472E+03  0.31845518711E+03  0.12700000000E+01 0. -1.
         25    2    1    2    0    0  0.00000000000E+00  0.00000000000E+00 -0.30622162466E+03  0.33075197517E+03  0.12500074268E+03 0.  0.
    9000005    1    3    3    0    0 -0.68666320839E+01 -0.62002721082E+02 -0.14327838149E+03  0.15627278285E+03  0.10000000000E+01 0.  0.
    9000005    1    3    3    0    0  0.68666320839E+01  0.62002721082E+02 -0.16294324317E+03  0.17447919232E+03  0.10000000000E+01 0.  0.
<mgrwt>
<rscale>  0 0.12500074E+03</rscale>
<asrwt>0</asrwt>
<pdfrwt beam="2">  1        4 0.48997963E-01 0.12500074E+03</pdfrwt>
<pdfrwt beam="1">  1       -4 0.18869503E-02 0.12500074E+03</pdfrwt>
<totfact> 0.71894129E+03</totfact>
</mgrwt>
</event>
<event>
 5    1  0.3309811E-002  0.1250009E+03  0.7818608E-02  0.1235068E+00
         -4   -1    0    0    0  501 -0.00000000000E+00  0.00000000000E+00  0.67338673964E+03  0.67338793724E+03  0.12700000000E+01 0. -1.
          4   -1    0    0  501    0  0.00000000000E+00 -0.00000000000E+00 -0.57302560951E+01  0.58693044661E+01  0.12700000000E+01 0. -1.
         25    2    1    2    0    0  0.00000000000E+00  0.00000000000E+00  0.66765648354E+03  0.67925724170E+03  0.12500088157E+03 0.  0.
    9000005    1    3    3    0    0  0.34930074382E+02 -0.51584904960E+02  0.30710049707E+03  0.31335734844E+03  0.10000000000E+01 0.  0.
    9000005    1    3    3    0    0 -0.34930074382E+02  0.51584904960E+02  0.36055598647E+03  0.36589989327E+03  0.10000000000E+01 0.  0.
<mgrwt>
<rscale>  0 0.12500088E+03</rscale>
<asrwt>0</asrwt>
<pdfrwt beam="2">  1        4 0.89236574E-03 0.12500088E+03</pdfrwt>
<pdfrwt beam="1">  1       -4 0.10360878E+00 0.12500088E+03</pdfrwt>
<totfact> 0.44203668E+03</totfact>
</mgrwt>
</event>
<event>
 5    1  0.3309811E-002  0.1250022E+03  0.7818608E-02  0.1235066E+00
          4   -1    0    0  501    0  0.00000000000E+00  0.00000000000E+00  0.11658710719E+03  0.11659402413E+03  0.12700000000E+01 0.  1.
         -4   -1    0    0    0  501 -0.00000000000E+00 -0.00000000000E+00 -0.33486211798E+02  0.33510286191E+02  0.12700000000E+01 0.  1.
         25    2    1    2    0    0  0.00000000000E+00  0.00000000000E+00  0.83100895392E+02  0.15010431032E+03  0.12500218063E+03 0.  0.
    9000005    1    3    3    0    0 -0.37243307195E+02  0.15816946414E+02  0.98739267166E+02  0.10671308544E+03  0.10000000000E+01 0.  0.
    9000005    1    3    3    0    0  0.37243307195E+02 -0.15816946414E+02 -0.15638371773E+02  0.43391224878E+02  0.10000000000E+01 0.  0.
<mgrwt>
<rscale>  0 0.12500218E+03</rscale>
<asrwt>0</asrwt>
<pdfrwt beam="1">  1        4 0.17938862E-01 0.12500218E+03</pdfrwt>
<pdfrwt beam="2">  1       -4 0.51541088E-02 0.12500218E+03</pdfrwt>
<totfact> 0.99278037E+03</totfact>
</mgrwt>
</event>
<event>
 5    1  0.3309811E-002  0.1250108E+03  0.7818608E-02  0.1235052E+00
          4   -1    0    0  501    0  0.00000000000E+00  0.00000000000E+00  0.90906619897E+02  0.90915490655E+02  0.12700000000E+01 0. -1.
         -4   -1    0    0    0  501 -0.00000000000E+00 -0.00000000000E+00 -0.42956993244E+02  0.42975762571E+02  0.12700000000E+01 0. -1.
         25    2    1    2    0    0  0.00000000000E+00  0.00000000000E+00  0.47949626653E+02  0.13389125323E+03  0.12501080351E+03 0.  0.
    9000005    1    3    3    0    0 -0.15760304394E+02  0.23574961682E+01 -0.40749711536E+02  0.43766242391E+02  0.10000000000E+01 0.  0.
    9000005    1    3    3    0    0  0.15760304394E+02 -0.23574961682E+01  0.88699338189E+02  0.90125010834E+02  0.10000000000E+01 0.  0.
<mgrwt>
<rscale>  0 0.12501080E+03</rscale>
<asrwt>0</asrwt>
<pdfrwt beam="1">  1        4 0.13987760E-01 0.12501080E+03</pdfrwt>
<pdfrwt beam="2">  1       -4 0.66108944E-02 0.12501080E+03</pdfrwt>
<totfact> 0.10258994E+04</totfact>
</mgrwt>
</event>
<event>
 5    1  0.3309811E-002  0.1249984E+03  0.7818608E-02  0.1235072E+00
          4   -1    0    0  501    0  0.00000000000E+00  0.00000000000E+00  0.26013895931E+02  0.26044878221E+02  0.12700000000E+01 0.  1.
         -4   -1    0    0    0  501 -0.00000000000E+00 -0.00000000000E+00 -0.15003334333E+03  0.15003871837E+03  0.12700000000E+01 0.  1.
         25    2    1    2    0    0  0.00000000000E+00  0.00000000000E+00 -0.12401944740E+03  0.17608359659E+03  0.12499843861E+03 0.  0.
    9000005    1    3    3    0    0  0.41150067169E+02 -0.42792650773E+01 -0.12798547536E+03  0.13450993287E+03  0.10000000000E+01 0.  0.
    9000005    1    3    3    0    0 -0.41150067169E+02  0.42792650773E+01  0.39660279600E+01  0.41573663724E+02  0.10000000000E+01 0.  0.
<mgrwt>
<rscale>  0 0.12499844E+03</rscale>
<asrwt>0</asrwt>
<pdfrwt beam="1">  1        4 0.40049346E-02 0.12499844E+03</pdfrwt>
<pdfrwt beam="2">  1       -4 0.23084849E-01 0.12499844E+03</pdfrwt>
<totfact> 0.94330060E+03</totfact>
</mgrwt>
</event>
<event>
 5    1  0.3309811E-002  0.1249996E+03  0.7818608E-02  0.1235070E+00
          4   -1    0    0  501    0  0.00000000000E+00  0.00000000000E+00  0.36862445243E+02  0.36884316034E+02  0.12700000000E+01 0. -1.
         -4   -1    0    0    0  501 -0.00000000000E+00 -0.00000000000E+00 -0.10591042332E+03  0.10591803750E+03  0.12700000000E+01 0. -1.
         25    2    1    2    0    0  0.00000000000E+00  0.00000000000E+00 -0.69047978080E+02  0.14280235354E+03  0.12499955559E+03 0.  0.
    9000005    1    3    3    0    0 -0.10643800008E+02  0.49907412286E+02 -0.75733352891E+02  0.91326781503E+02  0.10000000000E+01 0.  0.
    9000005    1    3    3    0    0  0.10643800008E+02 -0.49907412286E+02  0.66853748109E+01  0.51475572033E+02  0.10000000000E+01 0.  0.
<mgrwt>
<rscale>  0 0.12499956E+03</rscale>
<asrwt>0</asrwt>
<pdfrwt beam="1">  1        4 0.56734135E-02 0.12499956E+03</pdfrwt>
<pdfrwt beam="2">  1       -4 0.16296179E-01 0.12499956E+03</pdfrwt>
<totfact> 0.10075933E+04</totfact>
</mgrwt>
</event>
<event>
 5    1  0.3309811E-002  0.1249965E+03  0.7818608E-02  0.1235075E+00
         -4   -1    0    0    0  501 -0.00000000000E+00  0.00000000000E+00  0.30745698317E+04  0.30745700940E+04  0.12700000000E+01 0. -1.
          4   -1    0    0  501    0  0.00000000000E+00 -0.00000000000E+00 -0.95271298580E+00  0.15876278006E+01  0.12700000000E+01 0. -1.
         25    2    1    2    0    0  0.00000000000E+00  0.00000000000E+00  0.30736171188E+04  0.30761577218E+04  0.12499654764E+03 0.  0.
    9000005    1    3    3    0    0  0.24149765307E+02 -0.38415338298E+02  0.47941561069E+03  0.48155921458E+03  0.10000000000E+01 0.  0.
    9000005    1    3    3    0    0 -0.24149765307E+02  0.38415338298E+02  0.25942015081E+04  0.25945985073E+04  0.10000000000E+01 0.  0.
<mgrwt>
<rscale>  0 0.12499655E+03</rscale>
<asrwt>0</asrwt>
<pdfrwt beam="2">  1        4 0.19543217E-03 0.12499655E+03</pdfrwt>
<pdfrwt beam="1">  1       -4 0.47305678E+00 0.12499655E+03</pdfrwt>
<totfact> 0.15462405E+02</totfact>
</mgrwt>
</event>
<event>
 5    1  0.3309811E-002  0.1250017E+03  0.7818608E-02  0.1235067E+00
          4   -1    0    0  501    0  0.00000000000E+00  0.00000000000E+00  0.41217914838E+02  0.41237475718E+02  0.12700000000E+01 0.  1.
         -4   -1    0    0    0  501 -0.00000000000E+00 -0.00000000000E+00 -0.94727032422E+02  0.94735545448E+02  0.12700000000E+01 0.  1.
         25    2    1    2    0    0  0.00000000000E+00  0.00000000000E+00 -0.53509117584E+02  0.13597302117E+03  0.12500174727E+03 0.  0.
    9000005    1    3    3    0    0 -0.30385058023E+01 -0.59993007428E+02 -0.45499748650E+02  0.75363257526E+02  0.10000000000E+01 0.  0.
    9000005    1    3    3    0    0  0.30385058023E+01  0.59993007428E+02 -0.80093689341E+01  0.60609763640E+02  0.10000000000E+01 0.  0.
<mgrwt>
<rscale>  0 0.12500175E+03</rscale>
<asrwt>0</asrwt>
<pdfrwt beam="1">  1        4 0.63433772E-02 0.12500175E+03</pdfrwt>
<pdfrwt beam="2">  1       -4 0.14575549E-01 0.12500175E+03</pdfrwt>
<totfact> 0.10217200E+04</totfact>
</mgrwt>
</event>
<event>
 5    1  0.3309811E-002  0.1250001E+03  0.7818608E-02  0.1235069E+00
         -4   -1    0    0    0  501 -0.00000000000E+00  0.00000000000E+00  0.46104044506E+02  0.46121533146E+02  0.12700000000E+01 0.  1.
          4   -1    0    0  501    0  0.00000000000E+00 -0.00000000000E+00 -0.84688646972E+02  0.84698168964E+02  0.12700000000E+01 0.  1.
         25    2    1    2    0    0  0.00000000000E+00  0.00000000000E+00 -0.38584602466E+02  0.13081970211E+03  0.12500009165E+03 0.  0.
    9000005    1    3    3    0    0  0.50506813855E+02  0.36007928039E+02 -0.27245210666E+02  0.67755521042E+02  0.10000000000E+01 0.  0.
    9000005    1    3    3    0    0 -0.50506813855E+02 -0.36007928039E+02 -0.11339391800E+02  0.63064181068E+02  0.10000000000E+01 0.  0.
<mgrwt>
<rscale>  0 0.12500009E+03</rscale>
<asrwt>0</asrwt>
<pdfrwt beam="2">  1        4 0.13031100E-01 0.12500009E+03</pdfrwt>
<pdfrwt beam="1">  1       -4 0.70950077E-02 0.12500009E+03</pdfrwt>
<totfact> 0.10326935E+04</totfact>
</mgrwt>
</event>
<event>
 5    1  0.3309811E-002  0.1250009E+03  0.7818608E-02  0.1235068E+00
         -4   -1    0    0    0  501 -0.00000000000E+00  0.00000000000E+00  0.25539552212E+03  0.25539867975E+03  0.12700000000E+01 0. -1.
          4   -1    0    0  501    0  0.00000000000E+00 -0.00000000000E+00 -0.15265509753E+02  0.15318246898E+02  0.12700000000E+01 0. -1.
         25    2    1    2    0    0  0.00000000000E+00  0.00000000000E+00  0.24013001236E+03  0.27071692665E+03  0.12500092614E+03 0.  0.
    9000005    1    3    3    0    0  0.41749321661E+02  0.44191655659E+02  0.15140436441E+03  0.16315694852E+03  0.10000000000E+01 0.  0.
    9000005    1    3    3    0    0 -0.41749321661E+02 -0.44191655659E+02  0.88725647953E+02  0.10755997812E+03  0.10000000000E+01 0.  0.
<mgrwt>
<rscale>  0 0.12500093E+03</rscale>
<asrwt>0</asrwt>
<pdfrwt beam="2">  1        4 0.23528397E-02 0.12500093E+03</pdfrwt>
<pdfrwt beam="1">  1       -4 0.39295916E-01 0.12500093E+03</pdfrwt>
<totfact> 0.79423590E+03</totfact>
</mgrwt>
</event>
<event>
 5    1  0.3309811E-002  0.1249990E+03  0.7818608E-02  0.1235071E+00
         -4   -1    0    0    0  501 -0.00000000000E+00  0.00000000000E+00  0.55721613386E+03  0.55721758114E+03  0.12700000000E+01 0. -1.
          4   -1    0    0  501    0  0.00000000000E+00 -0.00000000000E+00 -0.69511964796E+01  0.70662601493E+01  0.12700000000E+01 0. -1.
         25    2    1    2    0    0  0.00000000000E+00  0.00000000000E+00  0.55026493738E+03  0.56428384129E+03  0.12499900892E+03 0.  0.
    9000005    1    3    3    0    0 -0.14364837124E+02 -0.25960000536E+01  0.54943372046E+03  0.54962851176E+03  0.10000000000E+01 0.  0.
    9000005    1    3    3    0    0  0.14364837124E+02  0.25960000536E+01  0.83121691286E+00  0.14655329523E+02  0.10000000000E+01 0.  0.
<mgrwt>
<rscale>  0 0.12499901E+03</rscale>
<asrwt>0</asrwt>
<pdfrwt beam="2">  1        4 0.10783771E-02 0.12499901E+03</pdfrwt>
<pdfrwt beam="1">  1       -4 0.85734532E-01 0.12499901E+03</pdfrwt>
<totfact> 0.51203733E+03</totfact>
</mgrwt>
</event>
<event>
 5    1  0.3309811E-002  0.1250014E+03  0.7818608E-02  0.1235067E+00
          4   -1    0    0  501    0  0.00000000000E+00  0.00000000000E+00  0.53538107501E+03  0.53538258132E+03  0.12700000000E+01 0.  1.
         -4   -1    0    0    0  501 -0.00000000000E+00 -0.00000000000E+00 -0.72395775151E+01  0.73501280668E+01  0.12700000000E+01 0.  1.
         25    2    1    2    0    0  0.00000000000E+00  0.00000000000E+00  0.52814149750E+03  0.54273270939E+03  0.12500140983E+03 0.  0.
    9000005    1    3    3    0    0  0.31784728380E+02  0.37900497855E+02  0.42989283641E+03  0.43273036350E+03  0.10000000000E+01 0.  0.
    9000005    1    3    3    0    0 -0.31784728380E+02 -0.37900497855E+02  0.98248661087E+02  0.11000234589E+03  0.10000000000E+01 0.  0.
<mgrwt>
<rscale>  0 0.12500141E+03</rscale>
<asrwt>0</asrwt>
<pdfrwt beam="1">  1        4 0.82374965E-01 0.12500141E+03</pdfrwt>
<pdfrwt beam="2">  1       -4 0.11224006E-02 0.12500141E+03</pdfrwt>
<totfact> 0.52693216E+03</totfact>
</mgrwt>
</event>
<event>
 5    1  0.3309811E-002  0.1250004E+03  0.7818608E-02  0.1235069E+00
         -4   -1    0    0    0  501 -0.00000000000E+00  0.00000000000E+00  0.39878966888E+02  0.39899184203E+02  0.12700000000E+01 0. -1.
          4   -1    0    0  501    0  0.00000000000E+00 -0.00000000000E+00 -0.97904103624E+02  0.97912340420E+02  0.12700000000E+01 0. -1.
         25    2    1    2    0    0  0.00000000000E+00  0.00000000000E+00 -0.58025136736E+02  0.13781152462E+03  0.12500039930E+03 0.  0.
    9000005    1    3    3    0    0  0.33279305750E+02  0.77005302207E+01 -0.86706176798E+02  0.93197486295E+02  0.10000000000E+01 0.  0.
    9000005    1    3    3    0    0 -0.33279305750E+02 -0.77005302207E+01  0.28681040062E+02  0.44614038328E+02  0.10000000000E+01 0.  0.
<mgrwt>
<rscale>  0 0.12500040E+03</rscale>
<asrwt>0</asrwt>
<pdfrwt beam="2">  1        4 0.15064359E-01 0.12500040E+03</pdfrwt>
<pdfrwt beam="1">  1       -4 0.61374145E-02 0.12500040E+03</pdfrwt>
<totfact> 0.10179053E+04</totfact>
</mgrwt>
</event>
<event>
 5    1  0.3309811E-002  0.1249990E+03  0.7818608E-02  0.1235071E+00
          4   -1    0    0  501    0  0.00000000000E+00  0.00000000000E+00  0.58731792198E+01  0.60089212134E+01  0.12700000000E+01 0. -1.
         -4   -1    0    0    0  501 -0.00000000000E+00 -0.00000000000E+00 -0.65735484684E+03  0.65735607365E+03  0.12700000000E+01 0. -1.
         25    2    1    2    0    0  0.00000000000E+00  0.00000000000E+00 -0.65148166762E+03  0.66336499486E+03  0.12499901265E+03 0.  0.
    9000005    1    3    3    0    0  0.48721315037E+02 -0.39131149117E+02 -0.32796039385E+03  0.33386229692E+03  0.10000000000E+01 0.  0.
    9000005    1    3    3    0    0 -0.48721315037E+02  0.39131149117E+02 -0.32352127377E+03  0.32950269794E+03  0.10000000000E+01 0.  0.
<mgrwt>
<rscale>  0 0.12499901E+03</rscale>
<asrwt>0</asrwt>
<pdfrwt beam="1">  1        4 0.91410261E-03 0.12499901E+03</pdfrwt>
<pdfrwt beam="2">  1       -4 0.10114199E+00 0.12499901E+03</pdfrwt>
<totfact> 0.45093342E+03</totfact>
</mgrwt>
</event>
<event>
 5    1  0.3309811E-002  0.1249941E+03  0.7818608E-02  0.1235079E+00
          4   -1    0    0  501    0  0.00000000000E+00  0.00000000000E+00  0.39820093440E+02  0.39840340631E+02  0.12700000000E+01 0. -1.
         -4   -1    0    0    0  501 -0.00000000000E+00 -0.00000000000E+00 -0.98038901195E+02  0.98047126666E+02  0.12700000000E+01 0. -1.
         25    2    1    2    0    0  0.00000000000E+00  0.00000000000E+00 -0.58218807754E+02  0.13788746730E+03  0.12499409611E+03 0.  0.
    9000005    1    3    3    0    0 -0.37075887070E+02 -0.32082397466E+02  0.13629429007E+02  0.50898555620E+02  0.10000000000E+01 0.  0.
    9000005    1    3    3    0    0  0.37075887070E+02  0.32082397466E+02 -0.71848236761E+02  0.86988911677E+02  0.10000000000E+01 0.  0.
<mgrwt>
<rscale>  0 0.12499410E+03</rscale>
<asrwt>0</asrwt>
<pdfrwt beam="1">  1        4 0.61283584E-02 0.12499410E+03</pdfrwt>
<pdfrwt beam="2">  1       -4 0.15085098E-01 0.12499410E+03</pdfrwt>
<totfact> 0.10178912E+04</totfact>
</mgrwt>
</event>
<event>
 5    1  0.3309811E-002  0.1250003E+03  0.7818608E-02  0.1235069E+00
          4   -1    0    0  501    0  0.00000000000E+00  0.00000000000E+00  0.11259207102E+03  0.11259923338E+03  0.12700000000E+01 0. -1.
         -4   -1    0    0    0  501 -0.00000000000E+00 -0.00000000000E+00 -0.34674130875E+02  0.34697381053E+02  0.12700000000E+01 0. -1.
         25    2    1    2    0    0  0.00000000000E+00  0.00000000000E+00  0.77917940149E+02  0.14729661443E+03  0.12500034890E+03 0.  0.
    9000005    1    3    3    0    0  0.13699025877E+02  0.50358802113E+02 -0.15467817373E+01  0.52221305939E+02  0.10000000000E+01 0.  0.
    9000005    1    3    3    0    0 -0.13699025877E+02 -0.50358802113E+02  0.79464721887E+02  0.95075308492E+02  0.10000000000E+01 0.  0.
<mgrwt>
<rscale>  0 0.12500035E+03</rscale>
<asrwt>0</asrwt>
<pdfrwt beam="1">  1        4 0.17324196E-01 0.12500035E+03</pdfrwt>
<pdfrwt beam="2">  1       -4 0.53368211E-02 0.12500035E+03</pdfrwt>
<totfact> 0.99844548E+03</totfact>
</mgrwt>
</event>
<event>
 5    1  0.3309811E-002  0.1249952E+03  0.7818608E-02  0.1235077E+00
          4   -1    0    0  501    0  0.00000000000E+00  0.00000000000E+00  0.67101117396E+02  0.67113134749E+02  0.12700000000E+01 0.  1.
         -4   -1    0    0    0  501 -0.00000000000E+00 -0.00000000000E+00 -0.58185717257E+02  0.58199575537E+02  0.12700000000E+01 0.  1.
         25    2    1    2    0    0  0.00000000000E+00  0.00000000000E+00  0.89154001389E+01  0.12531271029E+03  0.12499516390E+03 0.  0.
    9000005    1    3    3    0    0  0.26073952336E+02  0.50371036361E+02 -0.21835927414E+02  0.60785689274E+02  0.10000000000E+01 0.  0.
    9000005    1    3    3    0    0 -0.26073952336E+02 -0.50371036361E+02  0.30751327553E+02  0.64527021012E+02  0.10000000000E+01 0.  0.
<mgrwt>
<rscale>  0 0.12499516E+03</rscale>
<asrwt>0</asrwt>
<pdfrwt beam="1">  1        4 0.10325239E-01 0.12499516E+03</pdfrwt>
<pdfrwt beam="2">  1       -4 0.89536393E-02 0.12499516E+03</pdfrwt>
<totfact> 0.10447216E+04</totfact>
</mgrwt>
</event>
<event>
 5    1  0.3309811E-002  0.1250031E+03  0.7818608E-02  0.1235064E+00
          4   -1    0    0  501    0  0.00000000000E+00  0.00000000000E+00  0.14057422425E+02  0.14114674110E+02  0.12700000000E+01 0. -1.
         -4   -1    0    0    0  501 -0.00000000000E+00 -0.00000000000E+00 -0.27726829383E+03  0.27727120237E+03  0.12700000000E+01 0. -1.
         25    2    1    2    0    0  0.00000000000E+00  0.00000000000E+00 -0.26321087140E+03  0.29138587648E+03  0.12500306470E+03 0.  0.
    9000005    1    3    3    0    0  0.54487372413E+02 -0.35147901659E+01 -0.20247081544E+03  0.20970612439E+03  0.10000000000E+01 0.  0.
    9000005    1    3    3    0    0 -0.54487372413E+02  0.35147901659E+01 -0.60740055966E+02  0.81679752088E+02  0.10000000000E+01 0.  0.
<mgrwt>
<rscale>  0 0.12500306E+03</rscale>
<asrwt>0</asrwt>
<pdfrwt beam="1">  1        4 0.21673083E-02 0.12500306E+03</pdfrwt>
<pdfrwt beam="2">  1       -4 0.42661284E-01 0.12500306E+03</pdfrwt>
<totfact> 0.76687022E+03</totfact>
</mgrwt>
</event>
<event>
 5    1  0.3309811E-002  0.1249837E+03  0.7818608E-02  0.1235095E+00
          4   -1    0    0  501    0  0.00000000000E+00  0.00000000000E+00  0.32602364516E+02  0.32627091076E+02  0.12700000000E+01 0.  1.
         -4   -1    0    0    0  501 -0.00000000000E+00 -0.00000000000E+00 -0.11971017543E+03  0.11971691193E+03  0.12700000000E+01 0.  1.
         25    2    1    2    0    0  0.00000000000E+00  0.00000000000E+00 -0.87107810918E+02  0.15234400301E+03  0.12498369706E+03 0.  0.
    9000005    1    3    3    0    0  0.12394319111E+02 -0.18632531772E+02 -0.11466397328E+03  0.11683157602E+03  0.10000000000E+01 0.  0.
    9000005    1    3    3    0    0 -0.12394319111E+02  0.18632531772E+02  0.27556162363E+02  0.35512426989E+02  0.10000000000E+01 0.  0.
<mgrwt>
<rscale>  0 0.12498370E+03</rscale>
<asrwt>0</asrwt>
<pdfrwt beam="1">  1        4 0.50181687E-02 0.12498370E+03</pdfrwt>
<pdfrwt beam="2">  1       -4 0.18419370E-01 0.12498370E+03</pdfrwt>
<totfact> 0.98874756E+03</totfact>
</mgrwt>
</event>
<event>
 5    1  0.3309811E-002  0.1250366E+03  0.7818608E-02  0.1235012E+00
         -4   -1    0    0    0  501 -0.00000000000E+00  0.00000000000E+00  0.32447381040E+02  0.32472225615E+02  0.12700000000E+01 0. -1.
          4   -1    0    0  501    0  0.00000000000E+00 -0.00000000000E+00 -0.12038347295E+03  0.12039017177E+03  0.12700000000E+01 0. -1.
         25    2    1    2    0    0  0.00000000000E+00  0.00000000000E+00 -0.87936091907E+02  0.15286239739E+03  0.12503661973E+03 0.  0.
    9000005    1    3    3    0    0 -0.52464536797E+02 -0.33497471301E+02 -0.50983648919E+02  0.80467015988E+02  0.10000000000E+01 0.  0.
    9000005    1    3    3    0    0  0.52464536797E+02  0.33497471301E+02 -0.36952442988E+02  0.72395381398E+02  0.10000000000E+01 0.  0.
<mgrwt>
<rscale>  0 0.12503662E+03</rscale>
<asrwt>0</asrwt>
<pdfrwt beam="2">  1        4 0.18522960E-01 0.12503662E+03</pdfrwt>
<pdfrwt beam="1">  1       -4 0.49943313E-02 0.12503662E+03</pdfrwt>
<totfact> 0.98654849E+03</totfact>
</mgrwt>
</event>
<event>
 5    1  0.3309811E-002  0.1250011E+03  0.7818608E-02  0.1235068E+00
          4   -1    0    0  501    0  0.00000000000E+00  0.00000000000E+00  0.54425186490E+02  0.54440002062E+02  0.12700000000E+01 0. -1.
         -4   -1    0    0    0  501 -0.00000000000E+00 -0.00000000000E+00 -0.71743875299E+02  0.71755115099E+02  0.12700000000E+01 0. -1.
         25    2    1    2    0    0  0.00000000000E+00  0.00000000000E+00 -0.17318688809E+02  0.12619511716E+03  0.12500108245E+03 0.  0.
    9000005    1    3    3    0    0 -0.62161345193E+02 -0.45765921662E+01 -0.13212371217E+02  0.63722404107E+02  0.10000000000E+01 0.  0.
    9000005    1    3    3    0    0  0.62161345193E+02  0.45765921662E+01 -0.41063175917E+01  0.62472713053E+02  0.10000000000E+01 0.  0.
<mgrwt>
<rscale>  0 0.12500108E+03</rscale>
<asrwt>0</asrwt>
<pdfrwt beam="1">  1        4 0.83751098E-02 0.12500108E+03</pdfrwt>
<pdfrwt beam="2">  1       -4 0.11039524E-01 0.12500108E+03</pdfrwt>
<totfact> 0.10426431E+04</totfact>
</mgrwt>
</event>
<event>
 5    1  0.3309811E-002  0.1249962E+03  0.7818608E-02  0.1235075E+00
         -4   -1    0    0    0  501 -0.00000000000E+00  0.00000000000E+00  0.10935323419E+03  0.10936060866E+03  0.12700000000E+01 0.  1.
          4   -1    0    0  501    0  0.00000000000E+00 -0.00000000000E+00 -0.35699338137E+02  0.35721921048E+02  0.12700000000E+01 0.  1.
         25    2    1    2    0    0  0.00000000000E+00  0.00000000000E+00  0.73653896051E+02  0.14508252971E+03  0.12499617604E+03 0.  0.
    9000005    1    3    3    0    0 -0.22929872683E+01  0.60382612075E+02  0.55314225308E+02  0.81926681570E+02  0.10000000000E+01 0.  0.
    9000005    1    3    3    0    0  0.22929872683E+01 -0.60382612075E+02  0.18339670743E+02  0.63155848142E+02  0.10000000000E+01 0.  0.
<mgrwt>
<rscale>  0 0.12499618E+03</rscale>
<asrwt>0</asrwt>
<pdfrwt beam="2">  1        4 0.54945103E-02 0.12499618E+03</pdfrwt>
<pdfrwt beam="1">  1       -4 0.16825879E-01 0.12499618E+03</pdfrwt>
<totfact> 0.10030176E+04</totfact>
</mgrwt>
</event>
<event>
 5    1  0.3309811E-002  0.1249944E+03  0.7818608E-02  0.1235078E+00
          4   -1    0    0  501    0  0.00000000000E+00  0.00000000000E+00  0.68612974158E+02  0.68624726760E+02  0.12700000000E+01 0.  1.
         -4   -1    0    0    0  501 -0.00000000000E+00 -0.00000000000E+00 -0.56902857766E+02  0.56917028400E+02  0.12700000000E+01 0.  1.
         25    2    1    2    0    0  0.00000000000E+00  0.00000000000E+00  0.11710116392E+02  0.12554175516E+03  0.12499442173E+03 0.  0.
    9000005    1    3    3    0    0 -0.65993129786E+01  0.58128552782E+02 -0.16205221792E+02  0.60713168207E+02  0.10000000000E+01 0.  0.
    9000005    1    3    3    0    0  0.65993129786E+01 -0.58128552782E+02  0.27915338185E+02  0.64828586953E+02  0.10000000000E+01 0.  0.
<mgrwt>
<rscale>  0 0.12499442E+03</rscale>
<asrwt>0</asrwt>
<pdfrwt beam="1">  1        4 0.10557836E-01 0.12499442E+03</pdfrwt>
<pdfrwt beam="2">  1       -4 0.87562799E-02 0.12499442E+03</pdfrwt>
<totfact> 0.10442346E+04</totfact>
</mgrwt>
</event>
<event>
 5    1  0.3309811E-002  0.1249998E+03  0.7818608E-02  0.1235070E+00
          4   -1    0    0  501    0  0.00000000000E+00  0.00000000000E+00  0.64591781420E+02  0.64604265548E+02  0.12700000000E+01 0.  1.
         -4   -1    0    0    0  501 -0.00000000000E+00 -0.00000000000E+00 -0.60450808376E+02  0.60464147503E+02  0.12700000000E+01 0.  1.
         25    2    1    2    0    0  0.00000000000E+00  0.00000000000E+00  0.41409730445E+01  0.12506841305E+03  0.12499984114E+03 0.  0.
    9000005    1    3    3    0    0 -0.32559571366E+02 -0.40385667478E+02 -0.32792741630E+02  0.61379896780E+02  0.10000000000E+01 0.  0.
    9000005    1    3    3    0    0  0.32559571366E+02  0.40385667478E+02  0.36933714674E+02  0.63688516271E+02  0.10000000000E+01 0.  0.
<mgrwt>
<rscale>  0 0.12499984E+03</rscale>
<asrwt>0</asrwt>
<pdfrwt beam="1">  1        4 0.99391835E-02 0.12499984E+03</pdfrwt>
<pdfrwt beam="2">  1       -4 0.93021108E-02 0.12499984E+03</pdfrwt>
<totfact> 0.10451414E+04</totfact>
</mgrwt>
</event>
<event>
 5    1  0.3309811E-002  0.1249990E+03  0.7818608E-02  0.1235071E+00
         -4   -1    0    0    0  501 -0.00000000000E+00  0.00000000000E+00  0.66595660807E+02  0.66607769354E+02  0.12700000000E+01 0.  1.
          4   -1    0    0  501    0  0.00000000000E+00 -0.00000000000E+00 -0.58630977935E+02  0.58644730996E+02  0.12700000000E+01 0.  1.
         25    2    1    2    0    0  0.00000000000E+00  0.00000000000E+00  0.79646828714E+01  0.12525250035E+03  0.12499901068E+03 0.  0.
    9000005    1    3    3    0    0 -0.10700517006E+02 -0.50058658174E+02 -0.31934704368E+02  0.60342320683E+02  0.10000000000E+01 0.  0.
    9000005    1    3    3    0    0  0.10700517006E+02  0.50058658174E+02  0.39899387239E+02  0.64910179667E+02  0.10000000000E+01 0.  0.
<mgrwt>
<rscale>  0 0.12499901E+03</rscale>
<asrwt>0</asrwt>
<pdfrwt beam="2">  1        4 0.90221398E-02 0.12499901E+03</pdfrwt>
<pdfrwt beam="1">  1       -4 0.10247476E-01 0.12499901E+03</pdfrwt>
<totfact> 0.10447614E+04</totfact>
</mgrwt>
</event>
<event>
 5    1  0.3309811E-002  0.1249995E+03  0.7818608E-02  0.1235070E+00
          4   -1    0    0  501    0  0.00000000000E+00  0.00000000000E+00  0.65176941427E+02  0.65189313493E+02  0.12700000000E+01 0.  1.
         -4   -1    0    0    0  501 -0.00000000000E+00 -0.00000000000E+00 -0.59907777167E+02  0.59921237180E+02  0.12700000000E+01 0.  1.
         25    2    1    2    0    0  0.00000000000E+00  0.00000000000E+00  0.52691642592E+01  0.12511055067E+03  0.12499954319E+03 0.  0.
    9000005    1    3    3    0    0  0.52944298367E+02  0.20978610596E+02 -0.23118028837E+02  0.61470676663E+02  0.10000000000E+01 0.  0.
    9000005    1    3    3    0    0 -0.52944298367E+02 -0.20978610596E+02  0.28387193096E+02  0.63639874010E+02  0.10000000000E+01 0.  0.
<mgrwt>
<rscale>  0 0.12499954E+03</rscale>
<asrwt>0</asrwt>
<pdfrwt beam="1">  1        4 0.10029209E-01 0.12499954E+03</pdfrwt>
<pdfrwt beam="2">  1       -4 0.92185682E-02 0.12499954E+03</pdfrwt>
<totfact> 0.10450570E+04</totfact>
</mgrwt>
</event>
<event>
 5    1  0.3309811E-002  0.1249799E+03  0.7818608E-02  0.1235101E+00
          4   -1    0    0  501    0  0.00000000000E+00  0.00000000000E+00  0.76636555356E+02  0.76647077679E+02  0.12700000000E+01 0.  1.
         -4   -1    0    0    0  501 -0.00000000000E+00 -0.00000000000E+00 -0.50932758734E+02  0.50948589895E+02  0.12700000000E+01 0.  1.
         25    2    1    2    0    0  0.00000000000E+00  0.00000000000E+00  0.25703796622E+02  0.12759566757E+03  0.12497987527E+03 0.  0.
    9000005    1    3    3    0    0  0.93399425970E+01 -0.23514449846E+02  0.71177536820E+02  0.75547373396E+02  0.10000000000E+01 0.  0.
    9000005    1    3    3    0    0 -0.93399425970E+01  0.23514449846E+02 -0.45473740198E+02  0.52048294178E+02  0.10000000000E+01 0.  0.
<mgrwt>
<rscale>  0 0.12497988E+03</rscale>
<asrwt>0</asrwt>
<pdfrwt beam="1">  1        4 0.11792266E-01 0.12497988E+03</pdfrwt>
<pdfrwt beam="2">  1       -4 0.78378363E-02 0.12497988E+03</pdfrwt>
<totfact> 0.10400954E+04</totfact>
</mgrwt>
</event>
<event>
 5    1  0.3309811E-002  0.1249968E+03  0.7818608E-02  0.1235074E+00
         -4   -1    0    0    0  501 -0.00000000000E+00  0.00000000000E+00  0.45093584149E+03  0.45093762988E+03  0.12700000000E+01 0. -1.
          4   -1    0    0  501    0  0.00000000000E+00 -0.00000000000E+00 -0.86137266849E+01  0.87068471562E+01  0.12700000000E+01 0. -1.
         25    2    1    2    0    0  0.00000000000E+00  0.00000000000E+00  0.44232211481E+03  0.45964447704E+03  0.12499676805E+03 0.  0.
    9000005    1    3    3    0    0 -0.30640590732E+02  0.19523105109E+02  0.40812496833E+03  0.40974014595E+03  0.10000000000E+01 0.  0.
    9000005    1    3    3    0    0  0.30640590732E+02 -0.19523105109E+02  0.34197146480E+02  0.49904331084E+02  0.10000000000E+01 0.  0.
<mgrwt>
<rscale>  0 0.12499677E+03</rscale>
<asrwt>0</asrwt>
<pdfrwt beam="2">  1        4 0.13324895E-02 0.12499677E+03</pdfrwt>
<pdfrwt beam="1">  1       -4 0.69382040E-01 0.12499677E+03</pdfrwt>
<totfact> 0.59141516E+03</totfact>
</mgrwt>
</event>
<event>
 5    1  0.3309811E-002  0.1249970E+03  0.7818608E-02  0.1235074E+00
         -4   -1    0    0    0  501 -0.00000000000E+00  0.00000000000E+00  0.34946892891E+03  0.34947123654E+03  0.12700000000E+01 0. -1.
          4   -1    0    0  501    0  0.00000000000E+00 -0.00000000000E+00 -0.11138713925E+02  0.11210880782E+02  0.12700000000E+01 0. -1.
         25    2    1    2    0    0  0.00000000000E+00  0.00000000000E+00  0.33833021498E+03  0.36068211733E+03  0.12499702152E+03 0.  0.
    9000005    1    3    3    0    0  0.18655621369E+02  0.30234500777E+02  0.31750769626E+03  0.31949067972E+03  0.10000000000E+01 0.  0.
    9000005    1    3    3    0    0 -0.18655621369E+02 -0.30234500777E+02  0.20822518725E+02  0.41191437605E+02  0.10000000000E+01 0.  0.
<mgrwt>
<rscale>  0 0.12499702E+03</rscale>
<asrwt>0</asrwt>
<pdfrwt beam="2">  1        4 0.17193770E-02 0.12499702E+03</pdfrwt>
<pdfrwt beam="1">  1       -4 0.53770182E-01 0.12499702E+03</pdfrwt>
<totfact> 0.68569675E+03</totfact>
</mgrwt>
</event>
<event>
 5    1  0.3309811E-002  0.1250017E+03  0.7818608E-02  0.1235067E+00
          4   -1    0    0  501    0  0.00000000000E+00  0.00000000000E+00  0.30553283066E+03  0.30553547014E+03  0.12700000000E+01 0.  1.
         -4   -1    0    0    0  501 -0.00000000000E+00 -0.00000000000E+00 -0.12751150903E+02  0.12814240100E+02  0.12700000000E+01 0.  1.
         25    2    1    2    0    0  0.00000000000E+00  0.00000000000E+00  0.29278167976E+03  0.31834971024E+03  0.12500170401E+03 0.  0.
    9000005    1    3    3    0    0  0.49868466033E+02 -0.17595177537E+02  0.61583161888E+02  0.81178445447E+02  0.10000000000E+01 0.  0.
    9000005    1    3    3    0    0 -0.49868466033E+02  0.17595177537E+02  0.23119851787E+03  0.23717126479E+03  0.10000000000E+01 0.  0.
<mgrwt>
<rscale>  0 0.12500170E+03</rscale>
<asrwt>0</asrwt>
<pdfrwt beam="1">  1        4 0.47010099E-01 0.12500170E+03</pdfrwt>
<pdfrwt beam="2">  1       -4 0.19667719E-02 0.12500170E+03</pdfrwt>
<totfact> 0.73350069E+03</totfact>
</mgrwt>
</event>
<event>
 5    1  0.3309811E-002  0.1250017E+03  0.7818608E-02  0.1235067E+00
          4   -1    0    0  501    0  0.00000000000E+00  0.00000000000E+00  0.19237464974E+02  0.19279340202E+02  0.12700000000E+01 0.  1.
         -4   -1    0    0    0  501 -0.00000000000E+00 -0.00000000000E+00 -0.20279503863E+03  0.20279901526E+03  0.12700000000E+01 0.  1.
         25    2    1    2    0    0  0.00000000000E+00  0.00000000000E+00 -0.18355757365E+03  0.22207835546E+03  0.12500165247E+03 0.  0.
    9000005    1    3    3    0    0 -0.49042141241E+02 -0.75179897175E+01 -0.24274837603E+02  0.55244180938E+02  0.10000000000E+01 0.  0.
    9000005    1    3    3    0    0  0.49042141241E+02  0.75179897175E+01 -0.15928273605E+03  0.16683417453E+03  0.10000000000E+01 0.  0.
<mgrwt>
<rscale>  0 0.12500165E+03</rscale>
<asrwt>0</asrwt>
<pdfrwt beam="1">  1        4 0.29631372E-02 0.12500165E+03</pdfrwt>
<pdfrwt beam="2">  1       -4 0.31202762E-01 0.12500165E+03</pdfrwt>
<totfact> 0.86537349E+03</totfact>
</mgrwt>
</event>
<event>
 5    1  0.3309811E-002  0.1250012E+03  0.7818608E-02  0.1235067E+00
         -4   -1    0    0    0  501 -0.00000000000E+00  0.00000000000E+00  0.15674899772E+03  0.15675414248E+03  0.12700000000E+01 0.  1.
          4   -1    0    0  501    0  0.00000000000E+00 -0.00000000000E+00 -0.24899148913E+02  0.24931516532E+02  0.12700000000E+01 0.  1.
         25    2    1    2    0    0  0.00000000000E+00  0.00000000000E+00  0.13184984880E+03  0.18168565901E+03  0.12500118424E+03 0.  0.
    9000005    1    3    3    0    0 -0.46974742319E+02 -0.41059289575E+02  0.71131586998E+02  0.94621320775E+02  0.10000000000E+01 0.  0.
    9000005    1    3    3    0    0  0.46974742319E+02  0.41059289575E+02  0.60718261805E+02  0.87064338239E+02  0.10000000000E+01 0.  0.
<mgrwt>
<rscale>  0 0.12500118E+03</rscale>
<asrwt>0</asrwt>
<pdfrwt beam="2">  1        4 0.38335239E-02 0.12500118E+03</pdfrwt>
<pdfrwt beam="1">  1       -4 0.24118116E-01 0.12500118E+03</pdfrwt>
<totfact> 0.93311979E+03</totfact>
</mgrwt>
</event>
<event>
 5    1  0.3309811E-002  0.1249996E+03  0.7818608E-02  0.1235070E+00
         -4   -1    0    0    0  501 -0.00000000000E+00  0.00000000000E+00  0.60996376740E+03  0.60996508953E+03  0.12700000000E+01 0.  1.
          4   -1    0    0  501    0  0.00000000000E+00 -0.00000000000E+00 -0.63397166239E+01  0.64656714169E+01  0.12700000000E+01 0.  1.
         25    2    1    2    0    0  0.00000000000E+00  0.00000000000E+00  0.60362405078E+03  0.61643076094E+03  0.12499955345E+03 0.  0.
    9000005    1    3    3    0    0  0.47635504088E+02 -0.20023516685E+02  0.47512611396E+03  0.47792876733E+03  0.10000000000E+01 0.  0.
    9000005    1    3    3    0    0 -0.47635504088E+02  0.20023516685E+02  0.12849793681E+03  0.13850199362E+03  0.10000000000E+01 0.  0.
<mgrwt>
<rscale>  0 0.12499955E+03</rscale>
<asrwt>0</asrwt>
<pdfrwt beam="2">  1        4 0.98513175E-03 0.12499955E+03</pdfrwt>
<pdfrwt beam="1">  1       -4 0.93850351E-01 0.12499955E+03</pdfrwt>
<totfact> 0.47847086E+03</totfact>
</mgrwt>
</event>
<event>
 5    1  0.3309811E-002  0.1249969E+03  0.7818608E-02  0.1235074E+00
         -4   -1    0    0    0  501 -0.00000000000E+00  0.00000000000E+00  0.15496261613E+02  0.15548216103E+02  0.12700000000E+01 0.  1.
          4   -1    0    0  501    0  0.00000000000E+00 -0.00000000000E+00 -0.25158918039E+03  0.25159238580E+03  0.12700000000E+01 0.  1.
         25    2    1    2    0    0  0.00000000000E+00  0.00000000000E+00 -0.23609291878E+03  0.26714060190E+03  0.12499693950E+03 0.  0.
    9000005    1    3    3    0    0  0.29848285416E+02  0.45984421466E+02 -0.18214651101E+03  0.19022050003E+03  0.10000000000E+01 0.  0.
    9000005    1    3    3    0    0 -0.29848285416E+02 -0.45984421466E+02 -0.53946407771E+02  0.76920101867E+02  0.10000000000E+01 0.  0.
<mgrwt>
<rscale>  0 0.12499694E+03</rscale>
<asrwt>0</asrwt>
<pdfrwt beam="2">  1        4 0.38710268E-01 0.12499694E+03</pdfrwt>
<pdfrwt beam="1">  1       -4 0.23882835E-02 0.12499694E+03</pdfrwt>
<totfact> 0.79919749E+03</totfact>
</mgrwt>
</event>
<event>
 5    1  0.3309811E-002  0.1250001E+03  0.7818608E-02  0.1235069E+00
         -4   -1    0    0    0  501 -0.00000000000E+00  0.00000000000E+00  0.90144480885E+01  0.91034704558E+01  0.12700000000E+01 0.  1.
          4   -1    0    0  501    0  0.00000000000E+00 -0.00000000000E+00 -0.43111375085E+03  0.43111562147E+03  0.12700000000E+01 0.  1.
         25    2    1    2    0    0  0.00000000000E+00  0.00000000000E+00 -0.42209930276E+03  0.44021909192E+03  0.12500011000E+03 0.  0.
    9000005    1    3    3    0    0  0.51330429866E+02 -0.30303287732E+02 -0.27713803952E+03  0.28347768029E+03  0.10000000000E+01 0.  0.
    9000005    1    3    3    0    0 -0.51330429866E+02  0.30303287732E+02 -0.14496126324E+03  0.15674141163E+03  0.10000000000E+01 0.  0.
<mgrwt>
<rscale>  0 0.12500011E+03</rscale>
<asrwt>0</asrwt>
<pdfrwt beam="2">  1        4 0.66332168E-01 0.12500011E+03</pdfrwt>
<pdfrwt beam="1">  1       -4 0.13938303E-02 0.12500011E+03</pdfrwt>
<totfact> 0.60820351E+03</totfact>
</mgrwt>
</event>
<event>
 5    1  0.3309811E-002  0.1249980E+03  0.7818608E-02  0.1235072E+00
          4   -1    0    0  501    0  0.00000000000E+00  0.00000000000E+00  0.10831500080E+03  0.10832244596E+03  0.12700000000E+01 0. -1.
         -4   -1    0    0    0  501 -0.00000000000E+00 -0.00000000000E+00 -0.36042785086E+02  0.36065152943E+02  0.12700000000E+01 0. -1.
         25    2    1    2    0    0  0.00000000000E+00  0.00000000000E+00  0.72272215716E+02  0.14438759890E+03  0.12499802219E+03 0.  0.
    9000005    1    3    3    0    0 -0.64370680439E+01 -0.61109265244E+02  0.22998780487E+02  0.65618000942E+02  0.10000000000E+01 0.  0.
    9000005    1    3    3    0    0  0.64370680439E+01  0.61109265244E+02  0.49273435229E+02  0.78769597961E+02  0.10000000000E+01 0.  0.
<mgrwt>
<rscale>  0 0.12499802E+03</rscale>
<asrwt>0</asrwt>
<pdfrwt beam="1">  1        4 0.16666139E-01 0.12499802E+03</pdfrwt>
<pdfrwt beam="2">  1       -4 0.55473373E-02 0.12499802E+03</pdfrwt>
<totfact> 0.10043893E+04</totfact>
</mgrwt>
</event>
<event>
 5    1  0.3309811E-002  0.1249957E+03  0.7818608E-02  0.1235076E+00
         -4   -1    0    0    0  501 -0.00000000000E+00  0.00000000000E+00  0.35857632501E+03  0.35857857404E+03  0.12700000000E+01 0.  1.
          4   -1    0    0  501    0  0.00000000000E+00 -0.00000000000E+00 -0.10853723451E+02  0.10927772543E+02  0.12700000000E+01 0.  1.
         25    2    1    2    0    0  0.00000000000E+00  0.00000000000E+00  0.34772260156E+03  0.36950634658E+03  0.12499573003E+03 0.  0.
    9000005    1    3    3    0    0 -0.12258652374E+02 -0.24953891646E+02  0.33930050184E+03  0.34043913086E+03  0.10000000000E+01 0.  0.
    9000005    1    3    3    0    0  0.12258652374E+02  0.24953891646E+02  0.84220997161E+01  0.29067215724E+02  0.10000000000E+01 0.  0.
<mgrwt>
<rscale>  0 0.12499573E+03</rscale>
<asrwt>0</asrwt>
<pdfrwt beam="2">  1        4 0.16756729E-02 0.12499573E+03</pdfrwt>
<pdfrwt beam="1">  1       -4 0.55171451E-01 0.12499573E+03</pdfrwt>
<totfact> 0.67637001E+03</totfact>
</mgrwt>
</event>
<event>
 5    1  0.3309811E-002  0.1249982E+03  0.7818608E-02  0.1235072E+00
         -4   -1    0    0    0  501 -0.00000000000E+00  0.00000000000E+00  0.14809298935E+03  0.14809843481E+03  0.12700000000E+01 0.  1.
          4   -1    0    0  501    0  0.00000000000E+00 -0.00000000000E+00 -0.26355010150E+02  0.26385591901E+02  0.12700000000E+01 0.  1.
         25    2    1    2    0    0  0.00000000000E+00  0.00000000000E+00  0.12173797920E+03  0.17448402671E+03  0.12499815998E+03 0.  0.
    9000005    1    3    3    0    0 -0.57673181145E+02 -0.22808505699E+02  0.71564775403E+02  0.94704492154E+02  0.10000000000E+01 0.  0.
    9000005    1    3    3    0    0  0.57673181145E+02  0.22808505699E+02  0.50173203794E+02  0.79779534560E+02  0.10000000000E+01 0.  0.
<mgrwt>
<rscale>  0 0.12499816E+03</rscale>
<asrwt>0</asrwt>
<pdfrwt beam="2">  1        4 0.40573882E-02 0.12499816E+03</pdfrwt>
<pdfrwt beam="1">  1       -4 0.22786308E-01 0.12499816E+03</pdfrwt>
<totfact> 0.94623330E+03</totfact>
</mgrwt>
</event>
<event>
 5    1  0.3309811E-002  0.1249695E+03  0.7818608E-02  0.1235117E+00
          4   -1    0    0  501    0  0.00000000000E+00  0.00000000000E+00  0.12481967078E+03  0.12482613153E+03  0.12700000000E+01 0. -1.
         -4   -1    0    0    0  501 -0.00000000000E+00 -0.00000000000E+00 -0.31259737188E+02  0.31285524913E+02  0.12700000000E+01 0. -1.
         25    2    1    2    0    0  0.00000000000E+00  0.00000000000E+00  0.93559933591E+02  0.15611165645E+03  0.12496954871E+03 0.  0.
    9000005    1    3    3    0    0  0.28645906776E+02  0.39196011258E+02 -0.23443484388E+01  0.48614928193E+02  0.10000000000E+01 0.  0.
    9000005    1    3    3    0    0 -0.28645906776E+02 -0.39196011258E+02  0.95904282029E+02  0.10749672825E+03  0.10000000000E+01 0.  0.
<mgrwt>
<rscale>  0 0.12496955E+03</rscale>
<asrwt>0</asrwt>
<pdfrwt beam="1">  1        4 0.19205507E-01 0.12496955E+03</pdfrwt>
<pdfrwt beam="2">  1       -4 0.48116709E-02 0.12496955E+03</pdfrwt>
<totfact> 0.98164911E+03</totfact>
</mgrwt>
</event>
<event>
 5    1  0.3309811E-002  0.1250007E+03  0.7818608E-02  0.1235068E+00
         -4   -1    0    0    0  501 -0.00000000000E+00  0.00000000000E+00  0.33857807841E+02  0.33881618199E+02  0.12700000000E+01 0. -1.
          4   -1    0    0  501    0  0.00000000000E+00 -0.00000000000E+00 -0.11530569371E+03  0.11531268752E+03  0.12700000000E+01 0. -1.
         25    2    1    2    0    0  0.00000000000E+00  0.00000000000E+00 -0.81447885872E+02  0.14919430572E+03  0.12500073098E+03 0.  0.
    9000005    1    3    3    0    0 -0.12489868028E+02 -0.31875923663E+02 -0.10312290095E+03  0.10866187930E+03  0.10000000000E+01 0.  0.
    9000005    1    3    3    0    0  0.12489868028E+02  0.31875923663E+02  0.21675015077E+02  0.40532426418E+02  0.10000000000E+01 0.  0.
<mgrwt>
<rscale>  0 0.12500073E+03</rscale>
<asrwt>0</asrwt>
<pdfrwt beam="2">  1        4 0.17741707E-01 0.12500073E+03</pdfrwt>
<pdfrwt beam="1">  1       -4 0.52112631E-02 0.12500073E+03</pdfrwt>
<totfact> 0.99462907E+03</totfact>
</mgrwt>
</event>
<event>
 5    1  0.3309811E-002  0.1250006E+03  0.7818608E-02  0.1235068E+00
          4   -1    0    0  501    0  0.00000000000E+00  0.00000000000E+00  0.14826837524E+02  0.14881129358E+02  0.12700000000E+01 0.  1.
         -4   -1    0    0    0  501 -0.00000000000E+00 -0.00000000000E+00 -0.26292349488E+03  0.26292656210E+03  0.12700000000E+01 0.  1.
         25    2    1    2    0    0  0.00000000000E+00  0.00000000000E+00 -0.24809665736E+03  0.27780769146E+03  0.12500064818E+03 0.  0.
    9000005    1    3    3    0    0  0.48259184539E+02 -0.19980342510E+02 -0.47797641955E+02  0.70808033129E+02  0.10000000000E+01 0.  0.
    9000005    1    3    3    0    0 -0.48259184539E+02  0.19980342510E+02 -0.20029901540E+03  0.20699965833E+03  0.10000000000E+01 0.  0.
<mgrwt>
<rscale>  0 0.12500065E+03</rscale>
<asrwt>0</asrwt>
<pdfrwt beam="1">  1        4 0.22854643E-02 0.12500065E+03</pdfrwt>
<pdfrwt beam="2">  1       -4 0.40454177E-01 0.12500065E+03</pdfrwt>
<totfact> 0.78468561E+03</totfact>
</mgrwt>
</event>
<event>
 5    1  0.3309811E-002  0.1250003E+03  0.7818608E-02  0.1235069E+00
         -4   -1    0    0    0  501 -0.00000000000E+00  0.00000000000E+00  0.70236598227E+01  0.71375554152E+01  0.12700000000E+01 0. -1.
          4   -1    0    0  501    0  0.00000000000E+00 -0.00000000000E+00 -0.55157108895E+03  0.55157255104E+03  0.12700000000E+01 0. -1.
         25    2    1    2    0    0  0.00000000000E+00  0.00000000000E+00 -0.54454742912E+03  0.55871010646E+03  0.12500032196E+03 0.  0.
    9000005    1    3    3    0    0  0.13593217797E+02 -0.58185842030E+02 -0.35407017042E+03  0.35907806027E+03  0.10000000000E+01 0.  0.
    9000005    1    3    3    0    0 -0.13593217797E+02  0.58185842030E+02 -0.19047725870E+03  0.19963204619E+03  0.10000000000E+01 0.  0.
<mgrwt>
<rscale>  0 0.12500032E+03</rscale>
<asrwt>0</asrwt>
<pdfrwt beam="2">  1        4 0.84865930E-01 0.12500032E+03</pdfrwt>
<pdfrwt beam="1">  1       -4 0.10894372E-02 0.12500032E+03</pdfrwt>
<totfact> 0.51581824E+03</totfact>
</mgrwt>
</event>
<event>
 5    1  0.3309811E-002  0.1249920E+03  0.7818608E-02  0.1235082E+00
         -4   -1    0    0    0  501 -0.00000000000E+00  0.00000000000E+00  0.95779239409E+03  0.95779323608E+03  0.12700000000E+01 0. -1.
          4   -1    0    0  501    0  0.00000000000E+00 -0.00000000000E+00 -0.39781225259E+01  0.41759261046E+01  0.12700000000E+01 0. -1.
         25    2    1    2    0    0  0.00000000000E+00  0.00000000000E+00  0.95381427157E+03  0.96196916218E+03  0.12499201715E+03 0.  0.
    9000005    1    3    3    0    0 -0.36034949510E+02 -0.55272708636E+01  0.86313592111E+02  0.93702211780E+02  0.10000000000E+01 0.  0.
    9000005    1    3    3    0    0  0.36034949510E+02  0.55272708636E+01  0.86750067945E+03  0.86826695040E+03  0.10000000000E+01 0.  0.
<mgrwt>
<rscale>  0 0.12499202E+03</rscale>
<asrwt>0</asrwt>
<pdfrwt beam="2">  1        4 0.62730055E-03 0.12499202E+03</pdfrwt>
<pdfrwt beam="1">  1       -4 0.14736766E+00 0.12499202E+03</pdfrwt>
<totfact> 0.31900415E+03</totfact>
</mgrwt>
</event>
<event>
 5    1  0.3309811E-002  0.1250007E+03  0.7818608E-02  0.1235068E+00
         -4   -1    0    0    0  501 -0.00000000000E+00  0.00000000000E+00  0.39305483567E+02  0.39325995708E+02  0.12700000000E+01 0. -1.
          4   -1    0    0  501    0  0.00000000000E+00 -0.00000000000E+00 -0.99332438723E+02  0.99340557089E+02  0.12700000000E+01 0. -1.
         25    2    1    2    0    0  0.00000000000E+00  0.00000000000E+00 -0.60026955156E+02  0.13866655280E+03  0.12500071008E+03 0.  0.
    9000005    1    3    3    0    0 -0.56664856044E+02 -0.19563994258E+02 -0.49596731727E+02  0.77810613542E+02  0.10000000000E+01 0.  0.
    9000005    1    3    3    0    0  0.56664856044E+02  0.19563994258E+02 -0.10430223429E+02  0.60855939255E+02  0.10000000000E+01 0.  0.
<mgrwt>
<rscale>  0 0.12500071E+03</rscale>
<asrwt>0</asrwt>
<pdfrwt beam="2">  1        4 0.15284116E-01 0.12500071E+03</pdfrwt>
<pdfrwt beam="1">  1       -4 0.60491998E-02 0.12500071E+03</pdfrwt>
<totfact> 0.10161135E+04</totfact>
</mgrwt>
</event>
<event>
 5    1  0.3309811E-002  0.1249898E+03  0.7818608E-02  0.1235085E+00
         -4   -1    0    0    0  501 -0.00000000000E+00  0.00000000000E+00  0.13481908625E+02  0.13541593709E+02  0.12700000000E+01 0. -1.
          4   -1    0    0  501    0  0.00000000000E+00 -0.00000000000E+00 -0.28899183043E+03  0.28899462098E+03  0.12700000000E+01 0. -1.
         25    2    1    2    0    0  0.00000000000E+00  0.00000000000E+00 -0.27550992181E+03  0.30253621469E+03  0.12498977632E+03 0.  0.
    9000005    1    3    3    0    0 -0.49792685329E+02  0.22435885780E+02 -0.64260944122E+02  0.84339489105E+02  0.10000000000E+01 0.  0.
    9000005    1    3    3    0    0  0.49792685329E+02 -0.22435885780E+02 -0.21124897768E+03  0.21819672558E+03  0.10000000000E+01 0.  0.
<mgrwt>
<rscale>  0 0.12498978E+03</rscale>
<asrwt>0</asrwt>
<pdfrwt beam="2">  1        4 0.44465083E-01 0.12498978E+03</pdfrwt>
<pdfrwt beam="1">  1       -4 0.20789458E-02 0.12498978E+03</pdfrwt>
<totfact> 0.75298885E+03</totfact>
</mgrwt>
</event>
<event>
 5    1  0.3309811E-002  0.1250110E+03  0.7818608E-02  0.1235052E+00
         -4   -1    0    0    0  501 -0.00000000000E+00  0.00000000000E+00  0.68411235463E+02  0.68423022716E+02  0.12700000000E+01 0.  1.
          4   -1    0    0  501    0  0.00000000000E+00 -0.00000000000E+00 -0.57085788186E+02  0.57099913422E+02  0.12700000000E+01 0.  1.
         25    2    1    2    0    0  0.00000000000E+00  0.00000000000E+00  0.11325447278E+02  0.12552293614E+03  0.12501096648E+03 0.  0.
    9000005    1    3    3    0    0 -0.70285529665E+00  0.58947617648E+02 -0.15173642279E+02  0.60881483654E+02  0.10000000000E+01 0.  0.
    9000005    1    3    3    0    0  0.70285529665E+00 -0.58947617648E+02  0.26499089557E+02  0.64641452484E+02  0.10000000000E+01 0.  0.
<mgrwt>
<rscale>  0 0.12501097E+03</rscale>
<asrwt>0</asrwt>
<pdfrwt beam="2">  1        4 0.87844222E-02 0.12501097E+03</pdfrwt>
<pdfrwt beam="1">  1       -4 0.10526799E-01 0.12501097E+03</pdfrwt>
<totfact> 0.10438865E+04</totfact>
</mgrwt>
</event>
<event>
 5    1  0.3309811E-002  0.1249990E+03  0.7818608E-02  0.1235071E+00
         -4   -1    0    0    0  501 -0.00000000000E+00  0.00000000000E+00  0.94662079868E+02  0.94670598736E+02  0.12700000000E+01 0.  1.
          4   -1    0    0  501    0  0.00000000000E+00 -0.00000000000E+00 -0.41244405936E+02  0.41263954258E+02  0.12700000000E+01 0.  1.
         25    2    1    2    0    0  0.00000000000E+00  0.00000000000E+00  0.53417673932E+02  0.13593455299E+03  0.12499901923E+03 0.  0.
    9000005    1    3    3    0    0  0.42343836604E+02  0.32654387827E+02 -0.84604863760E+01  0.54146923943E+02  0.10000000000E+01 0.  0.
    9000005    1    3    3    0    0 -0.42343836604E+02 -0.32654387827E+02  0.61878160308E+02  0.81787629051E+02  0.10000000000E+01 0.  0.
<mgrwt>
<rscale>  0 0.12499902E+03</rscale>
<asrwt>0</asrwt>
<pdfrwt beam="2">  1        4 0.63474523E-02 0.12499902E+03</pdfrwt>
<pdfrwt beam="1">  1       -4 0.14565556E-01 0.12499902E+03</pdfrwt>
<totfact> 0.10218636E+04</totfact>
</mgrwt>
</event>
<event>
 5    1  0.3309811E-002  0.1249734E+03  0.7818608E-02  0.1235111E+00
          4   -1    0    0  501    0  0.00000000000E+00  0.00000000000E+00  0.82885560683E+02  0.82895289792E+02  0.12700000000E+01 0. -1.
         -4   -1    0    0    0  501 -0.00000000000E+00 -0.00000000000E+00 -0.47087122337E+02  0.47104245987E+02  0.12700000000E+01 0. -1.
         25    2    1    2    0    0  0.00000000000E+00  0.00000000000E+00  0.35798438346E+02  0.12999953578E+03  0.12497340163E+03 0.  0.
    9000005    1    3    3    0    0  0.32631925900E+02  0.14040895138E+02 -0.35564308510E+02  0.50277324551E+02  0.10000000000E+01 0.  0.
    9000005    1    3    3    0    0 -0.32631925900E+02 -0.14040895138E+02  0.71362746856E+02  0.79722211228E+02  0.10000000000E+01 0.  0.
<mgrwt>
<rscale>  0 0.12497340E+03</rscale>
<asrwt>0</asrwt>
<pdfrwt beam="1">  1        4 0.12753690E-01 0.12497340E+03</pdfrwt>
<pdfrwt beam="2">  1       -4 0.72462384E-02 0.12497340E+03</pdfrwt>
<totfact> 0.10350731E+04</totfact>
</mgrwt>
</event>
<event>
 5    1  0.3309811E-002  0.1250005E+03  0.7818608E-02  0.1235068E+00
          4   -1    0    0  501    0  0.00000000000E+00  0.00000000000E+00  0.54768185507E+03  0.54768332755E+03  0.12700000000E+01 0. -1.
         -4   -1    0    0    0  501 -0.00000000000E+00 -0.00000000000E+00 -0.70743678579E+01  0.71874599539E+01  0.12700000000E+01 0. -1.
         25    2    1    2    0    0  0.00000000000E+00  0.00000000000E+00  0.54060748722E+03  0.55487078751E+03  0.12500054237E+03 0.  0.
    9000005    1    3    3    0    0  0.27669796322E+02 -0.35331280492E+02  0.77254611098E+02  0.89348709815E+02  0.10000000000E+01 0.  0.
    9000005    1    3    3    0    0 -0.27669796322E+02  0.35331280492E+02  0.46335287612E+03  0.46552207769E+03  0.10000000000E+01 0.  0.
<mgrwt>
<rscale>  0 0.12500054E+03</rscale>
<asrwt>0</asrwt>
<pdfrwt beam="1">  1        4 0.84267545E-01 0.12500054E+03</pdfrwt>
<pdfrwt beam="2">  1       -4 0.10971771E-02 0.12500054E+03</pdfrwt>
<totfact> 0.51845500E+03</totfact>
</mgrwt>
</event>
<event>
 5    1  0.3309811E-002  0.1249995E+03  0.7818608E-02  0.1235070E+00
          4   -1    0    0  501    0  0.00000000000E+00  0.00000000000E+00  0.10715778198E+02  0.10790773947E+02  0.12700000000E+01 0.  1.
         -4   -1    0    0    0  501 -0.00000000000E+00 -0.00000000000E+00 -0.36318261222E+03  0.36318483273E+03  0.12700000000E+01 0.  1.
         25    2    1    2    0    0  0.00000000000E+00  0.00000000000E+00 -0.35246683403E+03  0.37397560667E+03  0.12499954119E+03 0.  0.
    9000005    1    3    3    0    0 -0.57786022302E+02  0.16877710026E+02 -0.22639786814E+03  0.23426710432E+03  0.10000000000E+01 0.  0.
    9000005    1    3    3    0    0  0.57786022302E+02 -0.16877710026E+02 -0.12606896588E+03  0.13970850235E+03  0.10000000000E+01 0.  0.
<mgrwt>
<rscale>  0 0.12499954E+03</rscale>
<asrwt>0</asrwt>
<pdfrwt beam="1">  1        4 0.16545213E-02 0.12499954E+03</pdfrwt>
<pdfrwt beam="2">  1       -4 0.55880178E-01 0.12499954E+03</pdfrwt>
<totfact> 0.67165741E+03</totfact>
</mgrwt>
</event>
<event>
 5    1  0.3309811E-002  0.1250080E+03  0.7818608E-02  0.1235057E+00
         -4   -1    0    0    0  501 -0.00000000000E+00  0.00000000000E+00  0.15163585878E+01  0.19779391717E+01  0.12700000000E+01 0.  1.
          4   -1    0    0  501    0  0.00000000000E+00 -0.00000000000E+00 -0.22356090053E+04  0.22356093661E+04  0.12700000000E+01 0.  1.
         25    2    1    2    0    0  0.00000000000E+00  0.00000000000E+00 -0.22340926468E+04  0.22375873052E+04  0.12500797696E+03 0.  0.
    9000005    1    3    3    0    0 -0.27007802466E+02 -0.56268259561E+01 -0.11328715337E+03  0.11660215128E+03  0.10000000000E+01 0.  0.
    9000005    1    3    3    0    0  0.27007802466E+02  0.56268259561E+01 -0.21208054934E+04  0.21209851540E+04  0.10000000000E+01 0.  0.
<mgrwt>
<rscale>  0 0.12500798E+03</rscale>
<asrwt>0</asrwt>
<pdfrwt beam="2">  1        4 0.34397309E+00 0.12500798E+03</pdfrwt>
<pdfrwt beam="1">  1       -4 0.26882167E-03 0.12500798E+03</pdfrwt>
<totfact> 0.70690795E+02</totfact>
</mgrwt>
</event>
<event>
 5    1  0.3309811E-002  0.1249996E+03  0.7818608E-02  0.1235070E+00
         -4   -1    0    0    0  501 -0.00000000000E+00  0.00000000000E+00  0.19237731275E+02  0.19279605925E+02  0.12700000000E+01 0. -1.
          4   -1    0    0  501    0  0.00000000000E+00 -0.00000000000E+00 -0.20278557212E+03  0.20278954894E+03  0.12700000000E+01 0. -1.
         25    2    1    2    0    0  0.00000000000E+00  0.00000000000E+00 -0.18354784084E+03  0.22206915487E+03  0.12499959866E+03 0.  0.
    9000005    1    3    3    0    0  0.20457726558E+02  0.18572616026E+02 -0.19135261294E+03  0.19333981256E+03  0.10000000000E+01 0.  0.
    9000005    1    3    3    0    0 -0.20457726558E+02 -0.18572616026E+02  0.78047720946E+01  0.28729342307E+02  0.10000000000E+01 0.  0.
<mgrwt>
<rscale>  0 0.12499960E+03</rscale>
<asrwt>0</asrwt>
<pdfrwt beam="2">  1        4 0.31201306E-01 0.12499960E+03</pdfrwt>
<pdfrwt beam="1">  1       -4 0.29631781E-02 0.12499960E+03</pdfrwt>
<totfact> 0.86542765E+03</totfact>
</mgrwt>
</event>
<event>
 5    1  0.3309811E-002  0.1250145E+03  0.7818608E-02  0.1235047E+00
         -4   -1    0    0    0  501 -0.00000000000E+00  0.00000000000E+00  0.69338857099E+02  0.69350486688E+02  0.12700000000E+01 0.  1.
          4   -1    0    0  501    0  0.00000000000E+00 -0.00000000000E+00 -0.56325228089E+02  0.56339544010E+02  0.12700000000E+01 0.  1.
         25    2    1    2    0    0  0.00000000000E+00  0.00000000000E+00  0.13013629010E+02  0.12569003070E+03  0.12501451626E+03 0.  0.
    9000005    1    3    3    0    0 -0.55971348956E+02 -0.19150132200E+02 -0.13767411753E+02  0.60745873058E+02  0.10000000000E+01 0.  0.
    9000005    1    3    3    0    0  0.55971348956E+02  0.19150132200E+02  0.26781040763E+02  0.64944157640E+02  0.10000000000E+01 0.  0.
<mgrwt>
<rscale>  0 0.12501452E+03</rscale>
<asrwt>0</asrwt>
<pdfrwt beam="2">  1        4 0.86674155E-02 0.12501452E+03</pdfrwt>
<pdfrwt beam="1">  1       -4 0.10669512E-01 0.12501452E+03</pdfrwt>
<totfact> 0.10434346E+04</totfact>
</mgrwt>
</event>
<event>
 5    1  0.3309811E-002  0.1249979E+03  0.7818608E-02  0.1235073E+00
         -4   -1    0    0    0  501 -0.00000000000E+00  0.00000000000E+00  0.37626256577E+02  0.37647683647E+02  0.12700000000E+01 0. -1.
          4   -1    0    0  501    0  0.00000000000E+00 -0.00000000000E+00 -0.10375875857E+03  0.10376653063E+03  0.12700000000E+01 0. -1.
         25    2    1    2    0    0  0.00000000000E+00  0.00000000000E+00 -0.66132501989E+02  0.14141421428E+03  0.12499788870E+03 0.  0.
    9000005    1    3    3    0    0  0.35268053779E+01 -0.51948933065E+02  0.60259727689E+01  0.52425588700E+02  0.10000000000E+01 0.  0.
    9000005    1    3    3    0    0 -0.35268053779E+01  0.51948933065E+02 -0.72158474758E+02  0.88988625577E+02  0.10000000000E+01 0.  0.
<mgrwt>
<rscale>  0 0.12499789E+03</rscale>
<asrwt>0</asrwt>
<pdfrwt beam="2">  1        4 0.15965132E-01 0.12499789E+03</pdfrwt>
<pdfrwt beam="1">  1       -4 0.57909010E-02 0.12499789E+03</pdfrwt>
<totfact> 0.10104840E+04</totfact>
</mgrwt>
</event>
<event>
 5    1  0.3309811E-002  0.1250005E+03  0.7818608E-02  0.1235068E+00
          4   -1    0    0  501    0  0.00000000000E+00  0.00000000000E+00  0.39031474711E+03  0.39031681325E+03  0.12700000000E+01 0. -1.
         -4   -1    0    0    0  501 -0.00000000000E+00 -0.00000000000E+00 -0.99656381227E+01  0.10046235275E+02  0.12700000000E+01 0. -1.
         25    2    1    2    0    0  0.00000000000E+00  0.00000000000E+00  0.38034910898E+03  0.40036304853E+03  0.12500050369E+03 0.  0.
    9000005    1    3    3    0    0  0.41416659483E+02 -0.93715682307E+01  0.33702339185E+03  0.33968946499E+03  0.10000000000E+01 0.  0.
    9000005    1    3    3    0    0 -0.41416659483E+02  0.93715682307E+01  0.43325717135E+02  0.60673583536E+02  0.10000000000E+01 0.  0.
<mgrwt>
<rscale>  0 0.12500050E+03</rscale>
<asrwt>0</asrwt>
<pdfrwt beam="1">  1        4 0.60054784E-01 0.12500050E+03</pdfrwt>
<pdfrwt beam="2">  1       -4 0.15395337E-02 0.12500050E+03</pdfrwt>
<totfact> 0.64516774E+03</totfact>
</mgrwt>
</event>
<event>
 5    1  0.3309811E-002  0.1250001E+03  0.7818608E-02  0.1235069E+00
          4   -1    0    0  501    0  0.00000000000E+00  0.00000000000E+00  0.23448045814E+02  0.23482413686E+02  0.12700000000E+01 0.  1.
         -4   -1    0    0    0  501 -0.00000000000E+00 -0.00000000000E+00 -0.16643327442E+03  0.16643811984E+03  0.12700000000E+01 0.  1.
         25    2    1    2    0    0  0.00000000000E+00  0.00000000000E+00 -0.14298522861E+03  0.18992053352E+03  0.12500013381E+03 0.  0.
    9000005    1    3    3    0    0  0.36492331559E+02 -0.50053606555E+02 -0.58944797010E+02  0.85513407641E+02  0.10000000000E+01 0.  0.
    9000005    1    3    3    0    0 -0.36492331559E+02  0.50053606555E+02 -0.84040431598E+02  0.10440712588E+03  0.10000000000E+01 0.  0.
<mgrwt>
<rscale>  0 0.12500013E+03</rscale>
<asrwt>0</asrwt>
<pdfrwt beam="1">  1        4 0.36104082E-02 0.12500013E+03</pdfrwt>
<pdfrwt beam="2">  1       -4 0.25608135E-01 0.12500013E+03</pdfrwt>
<totfact> 0.91860868E+03</totfact>
</mgrwt>
</event>
<event>
 5    1  0.3309811E-002  0.1250070E+03  0.7818608E-02  0.1235058E+00
          4   -1    0    0  501    0  0.00000000000E+00  0.00000000000E+00  0.19326061819E+04  0.19326065991E+04  0.12700000000E+01 0.  1.
         -4   -1    0    0    0  501 -0.00000000000E+00 -0.00000000000E+00 -0.18215308520E+01  0.22205572825E+01  0.12700000000E+01 0.  1.
         25    2    1    2    0    0  0.00000000000E+00  0.00000000000E+00  0.19307846510E+04  0.19348271564E+04  0.12500702655E+03 0.  0.
    9000005    1    3    3    0    0 -0.59542078786E+02 -0.15811399597E+02  0.80274361189E+03  0.80510469253E+03  0.10000000000E+01 0.  0.
    9000005    1    3    3    0    0  0.59542078786E+02  0.15811399597E+02  0.11280410391E+04  0.11297224639E+04  0.10000000000E+01 0.  0.
<mgrwt>
<rscale>  0 0.12500703E+03</rscale>
<asrwt>0</asrwt>
<pdfrwt beam="1">  1        4 0.29735518E+00 0.12500703E+03</pdfrwt>
<pdfrwt beam="2">  1       -4 0.31096151E-03 0.12500703E+03</pdfrwt>
<totfact> 0.10734272E+03</totfact>
</mgrwt>
</event>
<event>
 5    1  0.3309811E-002  0.1250005E+03  0.7818608E-02  0.1235068E+00
         -4   -1    0    0    0  501 -0.00000000000E+00  0.00000000000E+00  0.23094406751E+01  0.26356054773E+01  0.12700000000E+01 0.  1.
          4   -1    0    0  501    0  0.00000000000E+00 -0.00000000000E+00 -0.15795506105E+04  0.15795511210E+04  0.12700000000E+01 0.  1.
         25    2    1    2    0    0  0.00000000000E+00  0.00000000000E+00 -0.15772411698E+04  0.15821867265E+04  0.12500051931E+03 0.  0.
    9000005    1    3    3    0    0  0.13259788051E+02  0.24111697036E+02 -0.14988019150E+04  0.14990548277E+04  0.10000000000E+01 0.  0.
    9000005    1    3    3    0    0 -0.13259788051E+02 -0.24111697036E+02 -0.78439254789E+02  0.83131898841E+02  0.10000000000E+01 0.  0.
<mgrwt>
<rscale>  0 0.12500052E+03</rscale>
<asrwt>0</asrwt>
<pdfrwt beam="2">  1        4 0.24303211E+00 0.12500052E+03</pdfrwt>
<pdfrwt beam="1">  1       -4 0.38042870E-03 0.12500052E+03</pdfrwt>
<totfact> 0.16370124E+03</totfact>
</mgrwt>
</event>
<event>
 5    1  0.3309811E-002  0.1250055E+03  0.7818608E-02  0.1235061E+00
          4   -1    0    0  501    0  0.00000000000E+00  0.00000000000E+00  0.14923232835E+02  0.14977175242E+02  0.12700000000E+01 0.  1.
         -4   -1    0    0    0  501 -0.00000000000E+00 -0.00000000000E+00 -0.26125150399E+03  0.26125459084E+03  0.12700000000E+01 0.  1.
         25    2    1    2    0    0  0.00000000000E+00  0.00000000000E+00 -0.24632827116E+03  0.27623176609E+03  0.12500548558E+03 0.  0.
    9000005    1    3    3    0    0 -0.61699368081E+02  0.91258886725E+01 -0.11446459627E+03  0.13035811316E+03  0.10000000000E+01 0.  0.
    9000005    1    3    3    0    0  0.61699368081E+02 -0.91258886725E+01 -0.13186367488E+03  0.14587365293E+03  0.10000000000E+01 0.  0.
<mgrwt>
<rscale>  0 0.12500549E+03</rscale>
<asrwt>0</asrwt>
<pdfrwt beam="1">  1        4 0.23002690E-02 0.12500549E+03</pdfrwt>
<pdfrwt beam="2">  1       -4 0.40196922E-01 0.12500549E+03</pdfrwt>
<totfact> 0.78670819E+03</totfact>
</mgrwt>
</event>
<event>
 5    1  0.3309811E-002  0.1250039E+03  0.7818608E-02  0.1235063E+00
          4   -1    0    0  501    0  0.00000000000E+00  0.00000000000E+00  0.92805904141E+01  0.93670837743E+01  0.12700000000E+01 0.  1.
         -4   -1    0    0    0  501 -0.00000000000E+00 -0.00000000000E+00 -0.41889188895E+03  0.41889381414E+03  0.12700000000E+01 0.  1.
         25    2    1    2    0    0  0.00000000000E+00  0.00000000000E+00 -0.40961129853E+03  0.42826089791E+03  0.12500392313E+03 0.  0.
    9000005    1    3    3    0    0 -0.54201530251E+02 -0.24122689339E+02 -0.13751456156E+03  0.14976970543E+03  0.10000000000E+01 0.  0.
    9000005    1    3    3    0    0  0.54201530251E+02  0.24122689339E+02 -0.27209673697E+03  0.27849119249E+03  0.10000000000E+01 0.  0.
<mgrwt>
<rscale>  0 0.12500392E+03</rscale>
<asrwt>0</asrwt>
<pdfrwt beam="1">  1        4 0.14345849E-02 0.12500392E+03</pdfrwt>
<pdfrwt beam="2">  1       -4 0.64451693E-01 0.12500392E+03</pdfrwt>
<totfact> 0.61888600E+03</totfact>
</mgrwt>
</event>
<event>
 5    1  0.3309811E-002  0.1249995E+03  0.7818608E-02  0.1235070E+00
          4   -1    0    0  501    0  0.00000000000E+00  0.00000000000E+00  0.37879345170E+03  0.37879558069E+03  0.12700000000E+01 0. -1.
         -4   -1    0    0    0  501 -0.00000000000E+00 -0.00000000000E+00 -0.10271000860E+02  0.10349220196E+02  0.12700000000E+01 0. -1.
         25    2    1    2    0    0  0.00000000000E+00  0.00000000000E+00  0.36852245084E+03  0.38914480089E+03  0.12499951714E+03 0.  0.
    9000005    1    3    3    0    0 -0.23118263060E+02  0.40503953290E+02  0.54766974878E+02  0.71940571698E+02  0.10000000000E+01 0.  0.
    9000005    1    3    3    0    0  0.23118263060E+02 -0.40503953290E+02  0.31375547596E+03  0.31720422919E+03  0.10000000000E+01 0.  0.
<mgrwt>
<rscale>  0 0.12499952E+03</rscale>
<asrwt>0</asrwt>
<pdfrwt beam="1">  1        4 0.58282098E-01 0.12499952E+03</pdfrwt>
<pdfrwt beam="2">  1       -4 0.15863346E-02 0.12499952E+03</pdfrwt>
<totfact> 0.65623122E+03</totfact>
</mgrwt>
</event>
<event>
 5    1  0.3309811E-002  0.1250075E+03  0.7818608E-02  0.1235058E+00
         -4   -1    0    0    0  501 -0.00000000000E+00  0.00000000000E+00  0.19741402417E+03  0.19741810920E+03  0.12700000000E+01 0. -1.
          4   -1    0    0  501    0  0.00000000000E+00 -0.00000000000E+00 -0.19764786473E+02  0.19805546807E+02  0.12700000000E+01 0. -1.
         25    2    1    2    0    0  0.00000000000E+00  0.00000000000E+00  0.17764923770E+03  0.21722365601E+03  0.12500746007E+03 0.  0.
    9000005    1    3    3    0    0 -0.27461537038E+02  0.55350807681E+02  0.72535882226E+02  0.95290619358E+02  0.10000000000E+01 0.  0.
    9000005    1    3    3    0    0  0.27461537038E+02 -0.55350807681E+02  0.10511335547E+03  0.12193303665E+03  0.10000000000E+01 0.  0.
<mgrwt>
<rscale>  0 0.12500746E+03</rscale>
<asrwt>0</asrwt>
<pdfrwt beam="2">  1        4 0.30441860E-02 0.12500746E+03</pdfrwt>
<pdfrwt beam="1">  1       -4 0.30374838E-01 0.12500746E+03</pdfrwt>
<totfact> 0.87295033E+03</totfact>
</mgrwt>
</event>
<event>
 5    1  0.3309811E-002  0.1249961E+03  0.7818608E-02  0.1235075E+00
         -4   -1    0    0    0  501 -0.00000000000E+00  0.00000000000E+00  0.12474093935E+03  0.12474740418E+03  0.12700000000E+01 0.  1.
          4   -1    0    0  501    0  0.00000000000E+00 -0.00000000000E+00 -0.31292803635E+02  0.31318564133E+02  0.12700000000E+01 0.  1.
         25    2    1    2    0    0  0.00000000000E+00  0.00000000000E+00  0.93448135710E+02  0.15606596831E+03  0.12499612953E+03 0.  0.
    9000005    1    3    3    0    0 -0.11258510478E+02 -0.52625552029E+01 -0.29740401470E+02  0.32248101108E+02  0.10000000000E+01 0.  0.
    9000005    1    3    3    0    0  0.11258510478E+02  0.52625552029E+01  0.12318853718E+03  0.12381786720E+03  0.10000000000E+01 0.  0.
<mgrwt>
<rscale>  0 0.12499613E+03</rscale>
<asrwt>0</asrwt>
<pdfrwt beam="2">  1        4 0.48167563E-02 0.12499613E+03</pdfrwt>
<pdfrwt beam="1">  1       -4 0.19193393E-01 0.12499613E+03</pdfrwt>
<totfact> 0.98115180E+03</totfact>
</mgrwt>
</event>
<event>
 5    1  0.3309811E-002  0.1249987E+03  0.7818608E-02  0.1235071E+00
         -4   -1    0    0    0  501 -0.00000000000E+00  0.00000000000E+00  0.28921977439E+03  0.28922256274E+03  0.12700000000E+01 0.  1.
          4   -1    0    0  501    0  0.00000000000E+00 -0.00000000000E+00 -0.13473167556E+02  0.13532891191E+02  0.12700000000E+01 0.  1.
         25    2    1    2    0    0  0.00000000000E+00  0.00000000000E+00  0.27574660684E+03  0.30275545393E+03  0.12499869481E+03 0.  0.
    9000005    1    3    3    0    0  0.51297123030E+02  0.27867401295E+02  0.19187954997E+03  0.20056607037E+03  0.10000000000E+01 0.  0.
    9000005    1    3    3    0    0 -0.51297123030E+02 -0.27867401295E+02  0.83867056866E+02  0.10218938357E+03  0.10000000000E+01 0.  0.
<mgrwt>
<rscale>  0 0.12499869E+03</rscale>
<asrwt>0</asrwt>
<pdfrwt beam="2">  1        4 0.20776036E-02 0.12499869E+03</pdfrwt>
<pdfrwt beam="1">  1       -4 0.44500159E-01 0.12499869E+03</pdfrwt>
<totfact> 0.75256673E+03</totfact>
</mgrwt>
</event>
<event>
 5    1  0.3309811E-002  0.1249978E+03  0.7818608E-02  0.1235073E+00
          4   -1    0    0  501    0  0.00000000000E+00  0.00000000000E+00  0.81487193900E+03  0.81487292866E+03  0.12700000000E+01 0. -1.
         -4   -1    0    0    0  501 -0.00000000000E+00 -0.00000000000E+00 -0.47084003582E+01  0.48766724242E+01  0.12700000000E+01 0. -1.
         25    2    1    2    0    0  0.00000000000E+00  0.00000000000E+00  0.81016353864E+03  0.81974960109E+03  0.12499779654E+03 0.  0.
    9000005    1    3    3    0    0  0.43688141234E+02  0.19184825929E+02  0.14043929759E+03  0.14832702902E+03  0.10000000000E+01 0.  0.
    9000005    1    3    3    0    0 -0.43688141234E+02 -0.19184825929E+02  0.66972424105E+03  0.67142257207E+03  0.10000000000E+01 0.  0.
<mgrwt>
<rscale>  0 0.12499780E+03</rscale>
<asrwt>0</asrwt>
<pdfrwt beam="1">  1        4 0.12537789E+00 0.12499780E+03</pdfrwt>
<pdfrwt beam="2">  1       -4 0.73738970E-03 0.12499780E+03</pdfrwt>
<totfact> 0.37399929E+03</totfact>
</mgrwt>
</event>
<event>
 5    1  0.3309811E-002  0.1249941E+03  0.7818608E-02  0.1235078E+00
          4   -1    0    0  501    0  0.00000000000E+00  0.00000000000E+00  0.22463882767E+02  0.22499753976E+02  0.12700000000E+01 0. -1.
         -4   -1    0    0    0  501 -0.00000000000E+00 -0.00000000000E+00 -0.17369695666E+03  0.17370159945E+03  0.12700000000E+01 0. -1.
         25    2    1    2    0    0  0.00000000000E+00  0.00000000000E+00 -0.15123307389E+03  0.19620135343E+03  0.12499411365E+03 0.  0.
    9000005    1    3    3    0    0 -0.39566316202E+02 -0.47730138575E+01 -0.65813625818E-01  0.39865766899E+02  0.10000000000E+01 0.  0.
    9000005    1    3    3    0    0  0.39566316202E+02  0.47730138575E+01 -0.15116726026E+03  0.15633558653E+03  0.10000000000E+01 0.  0.
<mgrwt>
<rscale>  0 0.12499411E+03</rscale>
<asrwt>0</asrwt>
<pdfrwt beam="1">  1        4 0.34590985E-02 0.12499411E+03</pdfrwt>
<pdfrwt beam="2">  1       -4 0.26725724E-01 0.12499411E+03</pdfrwt>
<totfact> 0.90791319E+03</totfact>
</mgrwt>
</event>
<event>
 5    1  0.3309811E-002  0.1250061E+03  0.7818608E-02  0.1235060E+00
          4   -1    0    0  501    0  0.00000000000E+00  0.00000000000E+00  0.22796280413E+03  0.22796634174E+03  0.12700000000E+01 0.  1.
         -4   -1    0    0    0  501 -0.00000000000E+00 -0.00000000000E+00 -0.17109948194E+02  0.17157016850E+02  0.12700000000E+01 0.  1.
         25    2    1    2    0    0  0.00000000000E+00  0.00000000000E+00  0.21085285594E+03  0.24512335859E+03  0.12500613613E+03 0.  0.
    9000005    1    3    3    0    0  0.22770331808E+02 -0.25164664059E+02  0.25238435770E+01  0.34045823742E+02  0.10000000000E+01 0.  0.
    9000005    1    3    3    0    0 -0.22770331808E+02  0.25164664059E+02  0.20832901236E+03  0.21107753485E+03  0.10000000000E+01 0.  0.
<mgrwt>
<rscale>  0 0.12500614E+03</rscale>
<asrwt>0</asrwt>
<pdfrwt beam="1">  1        4 0.35075096E-01 0.12500614E+03</pdfrwt>
<pdfrwt beam="2">  1       -4 0.26361923E-02 0.12500614E+03</pdfrwt>
<totfact> 0.83028845E+03</totfact>
</mgrwt>
</event>
<event>
 5    1  0.3309811E-002  0.1249653E+03  0.7818608E-02  0.1235124E+00
          4   -1    0    0  501    0  0.00000000000E+00  0.00000000000E+00  0.18151508773E+04  0.18151513216E+04  0.12700000000E+01 0. -1.
         -4   -1    0    0    0  501 -0.00000000000E+00 -0.00000000000E+00 -0.19628721684E+01  0.23378980195E+01  0.12700000000E+01 0. -1.
         25    2    1    2    0    0  0.00000000000E+00  0.00000000000E+00  0.18131880051E+04  0.18174892196E+04  0.12496528092E+03 0.  0.
    9000005    1    3    3    0    0  0.16806053226E+02  0.50468957673E+02  0.43006669226E+03  0.43334503447E+03  0.10000000000E+01 0.  0.
    9000005    1    3    3    0    0 -0.16806053226E+02 -0.50468957673E+02  0.13831213128E+04  0.13841441851E+04  0.10000000000E+01 0.  0.
<mgrwt>
<rscale>  0 0.12496528E+03</rscale>
<asrwt>0</asrwt>
<pdfrwt beam="1">  1        4 0.27928155E+00 0.12496528E+03</pdfrwt>
<pdfrwt beam="2">  1       -4 0.33086421E-03 0.12496528E+03</pdfrwt>
<totfact> 0.12445582E+03</totfact>
</mgrwt>
</event>
<event>
 5    1  0.3309811E-002  0.1250072E+03  0.7818608E-02  0.1235058E+00
         -4   -1    0    0    0  501 -0.00000000000E+00  0.00000000000E+00  0.28637894960E+03  0.28638176561E+03  0.12700000000E+01 0.  1.
          4   -1    0    0  501    0  0.00000000000E+00 -0.00000000000E+00 -0.13609265954E+02  0.13668394924E+02  0.12700000000E+01 0.  1.
         25    2    1    2    0    0  0.00000000000E+00  0.00000000000E+00  0.27276968364E+03  0.30005016053E+03  0.12500719387E+03 0.  0.
    9000005    1    3    3    0    0  0.11776190163E+02  0.30396030843E+02  0.84010128081E+01  0.33677505281E+02  0.10000000000E+01 0.  0.
    9000005    1    3    3    0    0 -0.11776190163E+02 -0.30396030843E+02  0.26436867084E+03  0.26637265525E+03  0.10000000000E+01 0.  0.
<mgrwt>
<rscale>  0 0.12500719E+03</rscale>
<asrwt>0</asrwt>
<pdfrwt beam="2">  1        4 0.20984983E-02 0.12500719E+03</pdfrwt>
<pdfrwt beam="1">  1       -4 0.44063062E-01 0.12500719E+03</pdfrwt>
<totfact> 0.75580477E+03</totfact>
</mgrwt>
</event>
<event>
 5    1  0.3309811E-002  0.1250064E+03  0.7818608E-02  0.1235059E+00
         -4   -1    0    0    0  501 -0.00000000000E+00  0.00000000000E+00  0.10825139510E+03  0.10825884463E+03  0.12700000000E+01 0. -1.
          4   -1    0    0  501    0  0.00000000000E+00 -0.00000000000E+00 -0.36068791978E+02  0.36091143717E+02  0.12700000000E+01 0. -1.
         25    2    1    2    0    0  0.00000000000E+00  0.00000000000E+00  0.72182603124E+02  0.14434998835E+03  0.12500636361E+03 0.  0.
    9000005    1    3    3    0    0 -0.31611279321E+02  0.53379531408E+02  0.44809435065E+02  0.76534520476E+02  0.10000000000E+01 0.  0.
    9000005    1    3    3    0    0  0.31611279321E+02 -0.53379531408E+02  0.27373168059E+02  0.67815467876E+02  0.10000000000E+01 0.  0.
<mgrwt>
<rscale>  0 0.12500636E+03</rscale>
<asrwt>0</asrwt>
<pdfrwt beam="2">  1        4 0.55513374E-02 0.12500636E+03</pdfrwt>
<pdfrwt beam="1">  1       -4 0.16656353E-01 0.12500636E+03</pdfrwt>
<totfact> 0.10042773E+04</totfact>
</mgrwt>
</event>
<event>
 5    1  0.3309811E-002  0.1249985E+03  0.7818608E-02  0.1235072E+00
         -4   -1    0    0    0  501 -0.00000000000E+00  0.00000000000E+00  0.17898425172E+03  0.17898875737E+03  0.12700000000E+01 0. -1.
          4   -1    0    0  501    0  0.00000000000E+00 -0.00000000000E+00 -0.21800761021E+02  0.21837721518E+02  0.12700000000E+01 0. -1.
         25    2    1    2    0    0  0.00000000000E+00  0.00000000000E+00  0.15718349070E+03  0.20082647888E+03  0.12499849948E+03 0.  0.
    9000005    1    3    3    0    0 -0.45773964011E+02 -0.26833360969E+01  0.14680643709E+03  0.15380372571E+03  0.10000000000E+01 0.  0.
    9000005    1    3    3    0    0  0.45773964011E+02  0.26833360969E+01  0.10377053612E+02  0.47022753169E+02  0.10000000000E+01 0.  0.
<mgrwt>
<rscale>  0 0.12499850E+03</rscale>
<asrwt>0</asrwt>
<pdfrwt beam="2">  1        4 0.33571528E-02 0.12499850E+03</pdfrwt>
<pdfrwt beam="1">  1       -4 0.27539230E-01 0.12499850E+03</pdfrwt>
<totfact> 0.89999321E+03</totfact>
</mgrwt>
</event>
<event>
 5    1  0.3309811E-002  0.1250008E+03  0.7818608E-02  0.1235068E+00
          4   -1    0    0  501    0  0.00000000000E+00  0.00000000000E+00  0.28623287777E+02  0.28651448536E+02  0.12700000000E+01 0. -1.
         -4   -1    0    0    0  501 -0.00000000000E+00 -0.00000000000E+00 -0.13637450175E+03  0.13638041511E+03  0.12700000000E+01 0. -1.
         25    2    1    2    0    0  0.00000000000E+00  0.00000000000E+00 -0.10775121397E+03  0.16503186365E+03  0.12500076763E+03 0.  0.
    9000005    1    3    3    0    0 -0.94205413631E+01 -0.52153722447E+02 -0.10156882309E+02  0.53971470453E+02  0.10000000000E+01 0.  0.
    9000005    1    3    3    0    0  0.94205413631E+01  0.52153722447E+02 -0.97594331659E+02  0.11106039320E+03  0.10000000000E+01 0.  0.
<mgrwt>
<rscale>  0 0.12500077E+03</rscale>
<asrwt>0</asrwt>
<pdfrwt beam="1">  1        4 0.44062039E-02 0.12500077E+03</pdfrwt>
<pdfrwt beam="2">  1       -4 0.20983313E-01 0.12500077E+03</pdfrwt>
<totfact> 0.96379696E+03</totfact>
</mgrwt>
</event>
<event>
 5    1  0.3309811E-002  0.1249991E+03  0.7818608E-02  0.1235071E+00
          4   -1    0    0  501    0  0.00000000000E+00  0.00000000000E+00  0.48634131859E+02  0.48650711009E+02  0.12700000000E+01 0. -1.
         -4   -1    0    0    0  501 -0.00000000000E+00 -0.00000000000E+00 -0.80282605899E+02  0.80292650411E+02  0.12700000000E+01 0. -1.
         25    2    1    2    0    0  0.00000000000E+00  0.00000000000E+00 -0.31648474041E+02  0.12894336142E+03  0.12499905818E+03 0.  0.
    9000005    1    3    3    0    0 -0.10940468578E+02 -0.42567607993E+02  0.30001596788E+02  0.53223969345E+02  0.10000000000E+01 0.  0.
    9000005    1    3    3    0    0  0.10940468578E+02  0.42567607993E+02 -0.61650070829E+02  0.75719392075E+02  0.10000000000E+01 0.  0.
<mgrwt>
<rscale>  0 0.12499906E+03</rscale>
<asrwt>0</asrwt>
<pdfrwt beam="1">  1        4 0.74842221E-02 0.12499906E+03</pdfrwt>
<pdfrwt beam="2">  1       -4 0.12353218E-01 0.12499906E+03</pdfrwt>
<totfact> 0.10367384E+04</totfact>
</mgrwt>
</event>
<event>
 5    1  0.3309811E-002  0.1249977E+03  0.7818608E-02  0.1235073E+00
         -4   -1    0    0    0  501 -0.00000000000E+00  0.00000000000E+00  0.75774693841E+01  0.76831596539E+01  0.12700000000E+01 0. -1.
          4   -1    0    0  501    0  0.00000000000E+00 -0.00000000000E+00 -0.51181307573E+03  0.51181465140E+03  0.12700000000E+01 0. -1.
         25    2    1    2    0    0  0.00000000000E+00  0.00000000000E+00 -0.50423560635E+03  0.51949781106E+03  0.12499771591E+03 0.  0.
    9000005    1    3    3    0    0 -0.44497973466E+02 -0.33240113413E+02 -0.13309678907E+03  0.14422458197E+03  0.10000000000E+01 0.  0.
    9000005    1    3    3    0    0  0.44497973466E+02  0.33240113413E+02 -0.37113881728E+03  0.37527322909E+03  0.10000000000E+01 0.  0.
<mgrwt>
<rscale>  0 0.12499772E+03</rscale>
<asrwt>0</asrwt>
<pdfrwt beam="2">  1        4 0.78748698E-01 0.12499772E+03</pdfrwt>
<pdfrwt beam="1">  1       -4 0.11740161E-02 0.12499772E+03</pdfrwt>
<totfact> 0.54385428E+03</totfact>
</mgrwt>
</event>
<event>
 5    1  0.3309811E-002  0.1249969E+03  0.7818608E-02  0.1235074E+00
          4   -1    0    0  501    0  0.00000000000E+00  0.00000000000E+00  0.53649413529E+02  0.53664443275E+02  0.12700000000E+01 0.  1.
         -4   -1    0    0    0  501 -0.00000000000E+00 -0.00000000000E+00 -0.72776296099E+02  0.72787376473E+02  0.12700000000E+01 0.  1.
         25    2    1    2    0    0  0.00000000000E+00  0.00000000000E+00 -0.19126882570E+02  0.12645181975E+03  0.12499690028E+03 0.  0.
    9000005    1    3    3    0    0 -0.31713531579E+02  0.22496464466E+02  0.39926496111E+02  0.55740147922E+02  0.10000000000E+01 0.  0.
    9000005    1    3    3    0    0  0.31713531579E+02 -0.22496464466E+02 -0.59053378682E+02  0.70711671826E+02  0.10000000000E+01 0.  0.
<mgrwt>
<rscale>  0 0.12499690E+03</rscale>
<asrwt>0</asrwt>
<pdfrwt beam="1">  1        4 0.82557644E-02 0.12499690E+03</pdfrwt>
<pdfrwt beam="2">  1       -4 0.11198362E-01 0.12499690E+03</pdfrwt>
<totfact> 0.10421808E+04</totfact>
</mgrwt>
</event>
<event>
 5    1  0.3309811E-002  0.1250015E+03  0.7818608E-02  0.1235067E+00
         -4   -1    0    0    0  501 -0.00000000000E+00  0.00000000000E+00  0.11542230121E+03  0.11542928795E+03  0.12700000000E+01 0.  1.
          4   -1    0    0  501    0  0.00000000000E+00 -0.00000000000E+00 -0.33824020143E+02  0.33847854270E+02  0.12700000000E+01 0.  1.
         25    2    1    2    0    0  0.00000000000E+00  0.00000000000E+00  0.81598281063E+02  0.14927714222E+03  0.12500154285E+03 0.  0.
    9000005    1    3    3    0    0  0.29992721395E+02 -0.27077796520E+02  0.97728611692E+02  0.10575751484E+03  0.10000000000E+01 0.  0.
    9000005    1    3    3    0    0 -0.29992721395E+02  0.27077796520E+02 -0.16130330629E+02  0.43519627380E+02  0.10000000000E+01 0.  0.
<mgrwt>
<rscale>  0 0.12500154E+03</rscale>
<asrwt>0</asrwt>
<pdfrwt beam="2">  1        4 0.52060662E-02 0.12500154E+03</pdfrwt>
<pdfrwt beam="1">  1       -4 0.17759648E-01 0.12500154E+03</pdfrwt>
<totfact> 0.99444530E+03</totfact>
</mgrwt>
</event>
<event>
 5    1  0.3309811E-002  0.1249984E+03  0.7818608E-02  0.1235072E+00
         -4   -1    0    0    0  501 -0.00000000000E+00  0.00000000000E+00  0.28437497147E+02  0.28465841705E+02  0.12700000000E+01 0.  1.
          4   -1    0    0  501    0  0.00000000000E+00 -0.00000000000E+00 -0.13725934891E+03  0.13726522415E+03  0.12700000000E+01 0.  1.
         25    2    1    2    0    0  0.00000000000E+00  0.00000000000E+00 -0.10882185176E+03  0.16573106586E+03  0.12499836307E+03 0.  0.
    9000005    1    3    3    0    0 -0.22389608581E+02  0.25120390129E+02 -0.12422779475E+03  0.12870848286E+03  0.10000000000E+01 0.  0.
    9000005    1    3    3    0    0  0.22389608581E+02 -0.25120390129E+02  0.15405942987E+02  0.37022583000E+02  0.10000000000E+01 0.  0.
<mgrwt>
<rscale>  0 0.12499836E+03</rscale>
<asrwt>0</asrwt>
<pdfrwt beam="2">  1        4 0.21119455E-01 0.12499836E+03</pdfrwt>
<pdfrwt beam="1">  1       -4 0.43776319E-02 0.12499836E+03</pdfrwt>
<totfact> 0.96252658E+03</totfact>
</mgrwt>
</event>
<event>
 5    1  0.3309811E-002  0.1250131E+03  0.7818608E-02  0.1235049E+00
          4   -1    0    0  501    0  0.00000000000E+00  0.00000000000E+00  0.44760862480E+03  0.44761042648E+03  0.12700000000E+01 0.  1.
         -4   -1    0    0    0  501 -0.00000000000E+00 -0.00000000000E+00 -0.86807386371E+01  0.87731478550E+01  0.12700000000E+01 0.  1.
         25    2    1    2    0    0  0.00000000000E+00  0.00000000000E+00  0.43892788616E+03  0.45638357434E+03  0.12501311001E+03 0.  0.
    9000005    1    3    3    0    0 -0.34643877624E+02  0.47680941908E+02  0.29537704827E+03  0.30120137968E+03  0.10000000000E+01 0.  0.
    9000005    1    3    3    0    0  0.34643877624E+02 -0.47680941908E+02  0.14355083790E+03  0.15518219466E+03  0.10000000000E+01 0.  0.
<mgrwt>
<rscale>  0 0.12501311E+03</rscale>
<asrwt>0</asrwt>
<pdfrwt beam="1">  1        4 0.68870124E-01 0.12501311E+03</pdfrwt>
<pdfrwt beam="2">  1       -4 0.13427450E-02 0.12501311E+03</pdfrwt>
<totfact> 0.59397590E+03</totfact>
</mgrwt>
</event>
<event>
 5    1  0.3309811E-002  0.1250005E+03  0.7818608E-02  0.1235068E+00
          4   -1    0    0  501    0  0.00000000000E+00  0.00000000000E+00  0.62549936938E+02  0.62562828508E+02  0.12700000000E+01 0. -1.
         -4   -1    0    0    0  501 -0.00000000000E+00 -0.00000000000E+00 -0.62424829159E+02  0.62437746560E+02  0.12700000000E+01 0. -1.
         25    2    1    2    0    0  0.00000000000E+00  0.00000000000E+00  0.12510777916E+00  0.12500057507E+03  0.12500051246E+03 0.  0.
    9000005    1    3    3    0    0  0.52108786704E+02 -0.24538138911E+02 -0.24182790091E+02  0.62476021397E+02  0.10000000000E+01 0.  0.
    9000005    1    3    3    0    0 -0.52108786704E+02  0.24538138911E+02  0.24307897870E+02  0.62524553672E+02  0.10000000000E+01 0.  0.
<mgrwt>
<rscale>  0 0.12500051E+03</rscale>
<asrwt>0</asrwt>
<pdfrwt beam="1">  1        4 0.96250525E-02 0.12500051E+03</pdfrwt>
<pdfrwt beam="2">  1       -4 0.96058052E-02 0.12500051E+03</pdfrwt>
<totfact> 0.10452729E+04</totfact>
</mgrwt>
</event>
<event>
 5    1  0.3309811E-002  0.1249992E+03  0.7818608E-02  0.1235071E+00
          4   -1    0    0  501    0  0.00000000000E+00  0.00000000000E+00  0.30938620005E+03  0.30938880665E+03  0.12700000000E+01 0.  1.
         -4   -1    0    0    0  501 -0.00000000000E+00 -0.00000000000E+00 -0.12591035882E+02  0.12654923333E+02  0.12700000000E+01 0.  1.
         25    2    1    2    0    0  0.00000000000E+00  0.00000000000E+00  0.29679516417E+03  0.32204372998E+03  0.12499917819E+03 0.  0.
    9000005    1    3    3    0    0 -0.45571154441E+02 -0.26446623800E+02  0.23496674960E+03  0.24080391908E+03  0.10000000000E+01 0.  0.
    9000005    1    3    3    0    0  0.45571154441E+02  0.26446623800E+02  0.61828414567E+02  0.81239810902E+02  0.10000000000E+01 0.  0.
<mgrwt>
<rscale>  0 0.12499918E+03</rscale>
<asrwt>0</asrwt>
<pdfrwt beam="1">  1        4 0.47602984E-01 0.12499918E+03</pdfrwt>
<pdfrwt beam="2">  1       -4 0.19421977E-02 0.12499918E+03</pdfrwt>
<totfact> 0.72915040E+03</totfact>
</mgrwt>
</event>
<event>
 5    1  0.3309811E-002  0.1249872E+03  0.7818608E-02  0.1235089E+00
          4   -1    0    0  501    0  0.00000000000E+00  0.00000000000E+00  0.98091518069E+02  0.98099739128E+02  0.12700000000E+01 0.  1.
         -4   -1    0    0    0  501 -0.00000000000E+00 -0.00000000000E+00 -0.39794348957E+02  0.39814609240E+02  0.12700000000E+01 0.  1.
         25    2    1    2    0    0  0.00000000000E+00  0.00000000000E+00  0.58297169112E+02  0.13791434837E+03  0.12498722959E+03 0.  0.
    9000005    1    3    3    0    0  0.16270633721E+02  0.52678545658E+02  0.61595530571E+02  0.82672680376E+02  0.10000000000E+01 0.  0.
    9000005    1    3    3    0    0 -0.16270633721E+02 -0.52678545658E+02 -0.32983614590E+01  0.55241667993E+02  0.10000000000E+01 0.  0.
<mgrwt>
<rscale>  0 0.12498723E+03</rscale>
<asrwt>0</asrwt>
<pdfrwt beam="1">  1        4 0.15093194E-01 0.12498723E+03</pdfrwt>
<pdfrwt beam="2">  1       -4 0.61243984E-02 0.12498723E+03</pdfrwt>
<totfact> 0.10179925E+04</totfact>
</mgrwt>
</event>
<event>
 5    1  0.3309811E-002  0.1250002E+03  0.7818608E-02  0.1235069E+00
          4   -1    0    0  501    0  0.00000000000E+00  0.00000000000E+00  0.59102701729E+03  0.59102838177E+03  0.12700000000E+01 0.  1.
         -4   -1    0    0    0  501 -0.00000000000E+00 -0.00000000000E+00 -0.65468858342E+01  0.66689290089E+01  0.12700000000E+01 0.  1.
         25    2    1    2    0    0  0.00000000000E+00  0.00000000000E+00  0.58448013145E+03  0.59769731078E+03  0.12500020502E+03 0.  0.
    9000005    1    3    3    0    0  0.23739974776E+01  0.55512434087E+02  0.42899604659E+03  0.43258048291E+03  0.10000000000E+01 0.  0.
    9000005    1    3    3    0    0 -0.23739974776E+01 -0.55512434087E+02  0.15548408486E+03  0.16511682788E+03  0.10000000000E+01 0.  0.
<mgrwt>
<rscale>  0 0.12500021E+03</rscale>
<asrwt>0</asrwt>
<pdfrwt beam="1">  1        4 0.90936731E-01 0.12500021E+03</pdfrwt>
<pdfrwt beam="2">  1       -4 0.10167060E-02 0.12500021E+03</pdfrwt>
<totfact> 0.49013063E+03</totfact>
</mgrwt>
</event>
<event>
 5    1  0.3309811E-002  0.1249986E+03  0.7818608E-02  0.1235071E+00
         -4   -1    0    0    0  501 -0.00000000000E+00  0.00000000000E+00  0.43679023786E+02  0.43697482981E+02  0.12700000000E+01 0.  1.
          4   -1    0    0  501    0  0.00000000000E+00 -0.00000000000E+00 -0.89386916321E+02  0.89395937880E+02  0.12700000000E+01 0.  1.
         25    2    1    2    0    0  0.00000000000E+00  0.00000000000E+00 -0.45707892536E+02  0.13309342086E+03  0.12499858894E+03 0.  0.
    9000005    1    3    3    0    0  0.49383245488E+02  0.35784998254E+02 -0.83368286567E+01  0.61561138286E+02  0.10000000000E+01 0.  0.
    9000005    1    3    3    0    0 -0.49383245488E+02 -0.35784998254E+02 -0.37371063879E+02  0.71532282575E+02  0.10000000000E+01 0.  0.
<mgrwt>
<rscale>  0 0.12499859E+03</rscale>
<asrwt>0</asrwt>
<pdfrwt beam="2">  1        4 0.13753947E-01 0.12499859E+03</pdfrwt>
<pdfrwt beam="1">  1       -4 0.67219638E-02 0.12499859E+03</pdfrwt>
<totfact> 0.10278742E+04</totfact>
</mgrwt>
</event>
<event>
 5    1  0.3309811E-002  0.1249923E+03  0.7818608E-02  0.1235081E+00
          4   -1    0    0  501    0  0.00000000000E+00  0.00000000000E+00  0.16798373185E+03  0.16798853254E+03  0.12700000000E+01 0.  1.
         -4   -1    0    0    0  501 -0.00000000000E+00 -0.00000000000E+00 -0.23228387679E+02  0.23263080066E+02  0.12700000000E+01 0.  1.
         25    2    1    2    0    0  0.00000000000E+00  0.00000000000E+00  0.14475534417E+03  0.19125161261E+03  0.12499227840E+03 0.  0.
    9000005    1    3    3    0    0  0.34691197643E+02  0.84958607883E+01  0.15083367558E+03  0.15500792409E+03  0.10000000000E+01 0.  0.
    9000005    1    3    3    0    0 -0.34691197643E+02 -0.84958607883E+01 -0.60783314067E+01  0.36243688514E+02  0.10000000000E+01 0.  0.
<mgrwt>
<rscale>  0 0.12499228E+03</rscale>
<asrwt>0</asrwt>
<pdfrwt beam="1">  1        4 0.25846690E-01 0.12499228E+03</pdfrwt>
<pdfrwt beam="2">  1       -4 0.35766360E-02 0.12499228E+03</pdfrwt>
<totfact> 0.91645841E+03</totfact>
</mgrwt>
</event>
<event>
 5    1  0.3309811E-002  0.1249979E+03  0.7818608E-02  0.1235073E+00
         -4   -1    0    0    0  501 -0.00000000000E+00  0.00000000000E+00  0.33636453059E+02  0.33660419997E+02  0.12700000000E+01 0. -1.
          4   -1    0    0  501    0  0.00000000000E+00 -0.00000000000E+00 -0.11605867808E+03  0.11606562652E+03  0.12700000000E+01 0. -1.
         25    2    1    2    0    0  0.00000000000E+00  0.00000000000E+00 -0.82422225024E+02  0.14972604651E+03  0.12499786329E+03 0.  0.
    9000005    1    3    3    0    0  0.14589857694E+02  0.27762744293E+02 -0.10595464859E+03  0.11050349079E+03  0.10000000000E+01 0.  0.
    9000005    1    3    3    0    0 -0.14589857694E+02 -0.27762744293E+02  0.23532423570E+02  0.39222555721E+02  0.10000000000E+01 0.  0.
<mgrwt>
<rscale>  0 0.12499786E+03</rscale>
<asrwt>0</asrwt>
<pdfrwt beam="2">  1        4 0.17857559E-01 0.12499786E+03</pdfrwt>
<pdfrwt beam="1">  1       -4 0.51772171E-02 0.12499786E+03</pdfrwt>
<totfact> 0.99363113E+03</totfact>
</mgrwt>
</event>
<event>
 5    1  0.3309811E-002  0.1249996E+03  0.7818608E-02  0.1235070E+00
         -4   -1    0    0    0  501 -0.00000000000E+00  0.00000000000E+00  0.73714640221E+01  0.74800656300E+01  0.12700000000E+01 0. -1.
          4   -1    0    0  501    0  0.00000000000E+00 -0.00000000000E+00 -0.52592768116E+03  0.52592921455E+03  0.12700000000E+01 0. -1.
         25    2    1    2    0    0  0.00000000000E+00  0.00000000000E+00 -0.51855621714E+03  0.53340928018E+03  0.12499963937E+03 0.  0.
    9000005    1    3    3    0    0  0.63421930545E+01  0.61380532697E+02 -0.21715623902E+03  0.22575567623E+03  0.10000000000E+01 0.  0.
    9000005    1    3    3    0    0 -0.63421930545E+01 -0.61380532697E+02 -0.30139997812E+03  0.30765360394E+03  0.10000000000E+01 0.  0.
<mgrwt>
<rscale>  0 0.12499964E+03</rscale>
<asrwt>0</asrwt>
<pdfrwt beam="2">  1        4 0.80920394E-01 0.12499964E+03</pdfrwt>
<pdfrwt beam="1">  1       -4 0.11425437E-02 0.12499964E+03</pdfrwt>
<totfact> 0.53362734E+03</totfact>
</mgrwt>
</event>
<event>
 5    1  0.3309811E-002  0.1250176E+03  0.7818608E-02  0.1235042E+00
          4   -1    0    0  501    0  0.00000000000E+00  0.00000000000E+00  0.41538546262E+03  0.41538740406E+03  0.12700000000E+01 0. -1.
         -4   -1    0    0    0  501 -0.00000000000E+00 -0.00000000000E+00 -0.93617214272E+01  0.94474720471E+01  0.12700000000E+01 0. -1.
         25    2    1    2    0    0  0.00000000000E+00  0.00000000000E+00  0.40602374119E+03  0.42483487611E+03  0.12501757296E+03 0.  0.
    9000005    1    3    3    0    0 -0.36805499172E+02 -0.46533111209E+02  0.26980819796E+03  0.27625611106E+03  0.10000000000E+01 0.  0.
    9000005    1    3    3    0    0  0.36805499172E+02  0.46533111209E+02  0.13621554323E+03  0.14857876505E+03  0.10000000000E+01 0.  0.
<mgrwt>
<rscale>  0 0.12501757E+03</rscale>
<asrwt>0</asrwt>
<pdfrwt beam="1">  1        4 0.63912197E-01 0.12501757E+03</pdfrwt>
<pdfrwt beam="2">  1       -4 0.14470105E-02 0.12501757E+03</pdfrwt>
<totfact> 0.62182884E+03</totfact>
</mgrwt>
</event>
<event>
 5    1  0.3309811E-002  0.1249991E+03  0.7818608E-02  0.1235071E+00
         -4   -1    0    0    0  501 -0.00000000000E+00  0.00000000000E+00  0.24351417786E+03  0.24351748955E+03  0.12700000000E+01 0.  1.
          4   -1    0    0  501    0  0.00000000000E+00 -0.00000000000E+00 -0.16012374064E+02  0.16062659280E+02  0.12700000000E+01 0.  1.
         25    2    1    2    0    0  0.00000000000E+00  0.00000000000E+00  0.22750180380E+03  0.25958014883E+03  0.12499913175E+03 0.  0.
    9000005    1    3    3    0    0  0.10271112749E+02 -0.60807334570E+02  0.92760439209E+02  0.11139356704E+03  0.10000000000E+01 0.  0.
    9000005    1    3    3    0    0 -0.10271112749E+02  0.60807334570E+02  0.13474136459E+03  0.14818658180E+03  0.10000000000E+01 0.  0.
<mgrwt>
<rscale>  0 0.12499913E+03</rscale>
<asrwt>0</asrwt>
<pdfrwt beam="2">  1        4 0.24675652E-02 0.12499913E+03</pdfrwt>
<pdfrwt beam="1">  1       -4 0.37467839E-01 0.12499913E+03</pdfrwt>
<totfact> 0.80966584E+03</totfact>
</mgrwt>
</event>
<event>
 5    1  0.3309811E-002  0.1250033E+03  0.7818608E-02  0.1235064E+00
          4   -1    0    0  501    0  0.00000000000E+00  0.00000000000E+00  0.46384692429E+02  0.46402075296E+02  0.12700000000E+01 0.  1.
         -4   -1    0    0    0  501 -0.00000000000E+00 -0.00000000000E+00 -0.84180725792E+02  0.84190305231E+02  0.12700000000E+01 0.  1.
         25    2    1    2    0    0  0.00000000000E+00  0.00000000000E+00 -0.37796033363E+02  0.13059238053E+03  0.12500331881E+03 0.  0.
    9000005    1    3    3    0    0 -0.27539285907E+02 -0.61043585781E+01 -0.77156780525E+02  0.82157435713E+02  0.10000000000E+01 0.  0.
    9000005    1    3    3    0    0  0.27539285907E+02  0.61043585781E+01  0.39360747162E+02  0.48434944814E+02  0.10000000000E+01 0.  0.
<mgrwt>
<rscale>  0 0.12500332E+03</rscale>
<asrwt>0</asrwt>
<pdfrwt beam="1">  1        4 0.71381806E-02 0.12500332E+03</pdfrwt>
<pdfrwt beam="2">  1       -4 0.12952955E-01 0.12500332E+03</pdfrwt>
<totfact> 0.10331062E+04</totfact>
</mgrwt>
</event>
<event>
 5    1  0.3309811E-002  0.1250004E+03  0.7818608E-02  0.1235069E+00
          4   -1    0    0  501    0  0.00000000000E+00  0.00000000000E+00  0.19713624595E+01  0.23450309053E+01  0.12700000000E+01 0. -1.
         -4   -1    0    0    0  501 -0.00000000000E+00 -0.00000000000E+00 -0.18095975814E+04  0.18095980271E+04  0.12700000000E+01 0. -1.
         25    2    1    2    0    0  0.00000000000E+00  0.00000000000E+00 -0.18076262190E+04  0.18119430580E+04  0.12500039151E+03 0.  0.
    9000005    1    3    3    0    0  0.59617471081E+02 -0.17794128279E+02 -0.98883215864E+03  0.99078802567E+03  0.10000000000E+01 0.  0.
    9000005    1    3    3    0    0 -0.59617471081E+02  0.17794128279E+02 -0.81879406032E+03  0.82115503230E+03  0.10000000000E+01 0.  0.
<mgrwt>
<rscale>  0 0.12500039E+03</rscale>
<asrwt>0</asrwt>
<pdfrwt beam="1">  1        4 0.33206599E-03 0.12500039E+03</pdfrwt>
<pdfrwt beam="2">  1       -4 0.27842719E+00 0.12500039E+03</pdfrwt>
<totfact> 0.12520403E+03</totfact>
</mgrwt>
</event>
<event>
 5    1  0.3309811E-002  0.1250020E+03  0.7818608E-02  0.1235066E+00
         -4   -1    0    0    0  501 -0.00000000000E+00  0.00000000000E+00  0.16881558317E+03  0.16882036021E+03  0.12700000000E+01 0.  1.
          4   -1    0    0  501    0  0.00000000000E+00 -0.00000000000E+00 -0.23117367692E+02  0.23152226438E+02  0.12700000000E+01 0.  1.
         25    2    1    2    0    0  0.00000000000E+00  0.00000000000E+00  0.14569821548E+03  0.19197258664E+03  0.12500201610E+03 0.  0.
    9000005    1    3    3    0    0  0.25749456166E+02 -0.35177162058E+02  0.40837814026E+01  0.43796626512E+02  0.10000000000E+01 0.  0.
    9000005    1    3    3    0    0 -0.25749456166E+02  0.35177162058E+02  0.14161443407E+03  0.14817596013E+03  0.10000000000E+01 0.  0.
<mgrwt>
<rscale>  0 0.12500202E+03</rscale>
<asrwt>0</asrwt>
<pdfrwt beam="2">  1        4 0.35595670E-02 0.12500202E+03</pdfrwt>
<pdfrwt beam="1">  1       -4 0.25974677E-01 0.12500202E+03</pdfrwt>
<totfact> 0.91501088E+03</totfact>
</mgrwt>
</event>
<event>
 5    1  0.3309811E-002  0.1250038E+03  0.7818608E-02  0.1235063E+00
          4   -1    0    0  501    0  0.00000000000E+00  0.00000000000E+00  0.33871230332E+02  0.33895031261E+02  0.12700000000E+01 0. -1.
         -4   -1    0    0    0  501 -0.00000000000E+00 -0.00000000000E+00 -0.11526565123E+03  0.11527264746E+03  0.12700000000E+01 0. -1.
         25    2    1    2    0    0  0.00000000000E+00  0.00000000000E+00 -0.81394420895E+02  0.14916767872E+03  0.12500377843E+03 0.  0.
    9000005    1    3    3    0    0 -0.13502829951E+02  0.13118306202E+02 -0.11180729489E+03  0.11338557036E+03  0.10000000000E+01 0.  0.
    9000005    1    3    3    0    0  0.13502829951E+02 -0.13118306202E+02  0.30412873997E+02  0.35782108365E+02  0.10000000000E+01 0.  0.
<mgrwt>
<rscale>  0 0.12500378E+03</rscale>
<asrwt>0</asrwt>
<pdfrwt beam="1">  1        4 0.52133276E-02 0.12500378E+03</pdfrwt>
<pdfrwt beam="2">  1       -4 0.17735546E-01 0.12500378E+03</pdfrwt>
<totfact> 0.99461409E+03</totfact>
</mgrwt>
</event>
<event>
 5    1  0.3309811E-002  0.1249963E+03  0.7818608E-02  0.1235075E+00
          4   -1    0    0  501    0  0.00000000000E+00  0.00000000000E+00  0.39006025963E+03  0.39006232712E+03  0.12700000000E+01 0.  1.
         -4   -1    0    0    0  501 -0.00000000000E+00 -0.00000000000E+00 -0.99715235235E+01  0.10052073487E+02  0.12700000000E+01 0.  1.
         25    2    1    2    0    0  0.00000000000E+00  0.00000000000E+00  0.38008873611E+03  0.40011440061E+03  0.12499634499E+03 0.  0.
    9000005    1    3    3    0    0  0.52969312551E+02  0.22161444379E+02  0.26898308032E+03  0.27504504211E+03  0.10000000000E+01 0.  0.
    9000005    1    3    3    0    0 -0.52969312551E+02 -0.22161444379E+02  0.11110565579E+03  0.12506935850E+03  0.10000000000E+01 0.  0.
<mgrwt>
<rscale>  0 0.12499634E+03</rscale>
<asrwt>0</asrwt>
<pdfrwt beam="1">  1        4 0.60015622E-01 0.12499634E+03</pdfrwt>
<pdfrwt beam="2">  1       -4 0.15404358E-02 0.12499634E+03</pdfrwt>
<totfact> 0.64546873E+03</totfact>
</mgrwt>
</event>
<event>
 5    1  0.3309811E-002  0.1250010E+03  0.7818608E-02  0.1235068E+00
          4   -1    0    0  501    0  0.00000000000E+00  0.00000000000E+00  0.78535453238E+02  0.78545721177E+02  0.12700000000E+01 0. -1.
         -4   -1    0    0    0  501 -0.00000000000E+00 -0.00000000000E+00 -0.49717827273E+02  0.49734045168E+02  0.12700000000E+01 0. -1.
         25    2    1    2    0    0  0.00000000000E+00  0.00000000000E+00  0.28817625965E+02  0.12827976634E+03  0.12500097155E+03 0.  0.
    9000005    1    3    3    0    0 -0.12527181960E+01  0.53510213186E+02 -0.18692455071E+02  0.56703792595E+02  0.10000000000E+01 0.  0.
    9000005    1    3    3    0    0  0.12527181960E+01 -0.53510213186E+02  0.47510081036E+02  0.71575973749E+02  0.10000000000E+01 0.  0.
<mgrwt>
<rscale>  0 0.12500097E+03</rscale>
<asrwt>0</asrwt>
<pdfrwt beam="1">  1        4 0.12084415E-01 0.12500097E+03</pdfrwt>
<pdfrwt beam="2">  1       -4 0.76509339E-02 0.12500097E+03</pdfrwt>
<totfact> 0.10381223E+04</totfact>
</mgrwt>
</event>
<event>
 5    1  0.3309811E-002  0.1250009E+03  0.7818608E-02  0.1235068E+00
         -4   -1    0    0    0  501 -0.00000000000E+00  0.00000000000E+00  0.30220517158E+02  0.30247190899E+02  0.12700000000E+01 0.  1.
          4   -1    0    0  501    0  0.00000000000E+00 -0.00000000000E+00 -0.12917327429E+03  0.12917951731E+03  0.12700000000E+01 0.  1.
         25    2    1    2    0    0  0.00000000000E+00  0.00000000000E+00 -0.98952757134E+02  0.15942670820E+03  0.12500090857E+03 0.  0.
    9000005    1    3    3    0    0 -0.25409416583E+02  0.43060252079E+02 -0.16617582188E+01  0.50035839161E+02  0.10000000000E+01 0.  0.
    9000005    1    3    3    0    0  0.25409416583E+02 -0.43060252079E+02 -0.97290998915E+02  0.10939086904E+03  0.10000000000E+01 0.  0.
<mgrwt>
<rscale>  0 0.12500091E+03</rscale>
<asrwt>0</asrwt>
<pdfrwt beam="2">  1        4 0.19875343E-01 0.12500091E+03</pdfrwt>
<pdfrwt beam="1">  1       -4 0.46518425E-02 0.12500091E+03</pdfrwt>
<totfact> 0.97451435E+03</totfact>
</mgrwt>
</event>
<event>
 5    1  0.3309811E-002  0.1250009E+03  0.7818608E-02  0.1235068E+00
          4   -1    0    0  501    0  0.00000000000E+00  0.00000000000E+00  0.15703808370E+02  0.15755078461E+02  0.12700000000E+01 0. -1.
         -4   -1    0    0    0  501 -0.00000000000E+00 -0.00000000000E+00 -0.24829072059E+03  0.24829396858E+03  0.12700000000E+01 0. -1.
         25    2    1    2    0    0  0.00000000000E+00  0.00000000000E+00 -0.23258691222E+03  0.26404904704E+03  0.12500091002E+03 0.  0.
    9000005    1    3    3    0    0 -0.96338955456E+01 -0.57638328131E+01 -0.24615350785E+03  0.24641141032E+03  0.10000000000E+01 0.  0.
    9000005    1    3    3    0    0  0.96338955456E+01  0.57638328131E+01  0.13566595625E+02  0.17637636716E+02  0.10000000000E+01 0.  0.
<mgrwt>
<rscale>  0 0.12500091E+03</rscale>
<asrwt>0</asrwt>
<pdfrwt beam="1">  1        4 0.24201644E-02 0.12500091E+03</pdfrwt>
<pdfrwt beam="2">  1       -4 0.38202763E-01 0.12500091E+03</pdfrwt>
<totfact> 0.80339546E+03</totfact>
</mgrwt>
</event>
<event>
 5    1  0.3309811E-002  0.1249980E+03  0.7818608E-02  0.1235072E+00
         -4   -1    0    0    0  501 -0.00000000000E+00  0.00000000000E+00  0.72888483532E+02  0.72899546855E+02  0.12700000000E+01 0.  1.
          4   -1    0    0  501    0  0.00000000000E+00 -0.00000000000E+00 -0.53567728773E+02  0.53582781432E+02  0.12700000000E+01 0.  1.
         25    2    1    2    0    0  0.00000000000E+00  0.00000000000E+00  0.19320754759E+02  0.12648232829E+03  0.12499795120E+03 0.  0.
    9000005    1    3    3    0    0  0.31038401269E+02  0.11187003055E+02 -0.44041419370E+02  0.55037968810E+02  0.10000000000E+01 0.  0.
    9000005    1    3    3    0    0 -0.31038401269E+02 -0.11187003055E+02  0.63362174128E+02  0.71444359476E+02  0.10000000000E+01 0.  0.
<mgrwt>
<rscale>  0 0.12499795E+03</rscale>
<asrwt>0</asrwt>
<pdfrwt beam="2">  1        4 0.82431981E-02 0.12499795E+03</pdfrwt>
<pdfrwt beam="1">  1       -4 0.11215622E-01 0.12499795E+03</pdfrwt>
<totfact> 0.10420895E+04</totfact>
</mgrwt>
</event>
<event>
 5    1  0.3309811E-002  0.1249999E+03  0.7818608E-02  0.1235070E+00
         -4   -1    0    0    0  501 -0.00000000000E+00  0.00000000000E+00  0.85265652127E+02  0.85275109690E+02  0.12700000000E+01 0. -1.
          4   -1    0    0  501    0  0.00000000000E+00 -0.00000000000E+00 -0.45791792924E+02  0.45809400773E+02  0.12700000000E+01 0. -1.
         25    2    1    2    0    0  0.00000000000E+00  0.00000000000E+00  0.39473859203E+02  0.13108451046E+03  0.12499985329E+03 0.  0.
    9000005    1    3    3    0    0  0.30165219539E+02  0.54482590322E+02  0.14293121245E+02  0.63902945417E+02  0.10000000000E+01 0.  0.
    9000005    1    3    3    0    0 -0.30165219539E+02 -0.54482590322E+02  0.25180737958E+02  0.67181565047E+02  0.10000000000E+01 0.  0.
<mgrwt>
<rscale>  0 0.12499985E+03</rscale>
<asrwt>0</asrwt>
<pdfrwt beam="2">  1        4 0.70469732E-02 0.12499985E+03</pdfrwt>
<pdfrwt beam="1">  1       -4 0.13119874E-01 0.12499985E+03</pdfrwt>
<totfact> 0.10321312E+04</totfact>
</mgrwt>
</event>
<event>
 5    1  0.3309811E-002  0.1250002E+03  0.7818608E-02  0.1235069E+00
          4   -1    0    0  501    0  0.00000000000E+00  0.00000000000E+00  0.76788639396E+01  0.77831774619E+01  0.12700000000E+01 0.  1.
         -4   -1    0    0    0  501 -0.00000000000E+00 -0.00000000000E+00 -0.50516640203E+03  0.50516799843E+03  0.12700000000E+01 0.  1.
         25    2    1    2    0    0  0.00000000000E+00  0.00000000000E+00 -0.49748753809E+03  0.51295117589E+03  0.12500023318E+03 0.  0.
    9000005    1    3    3    0    0 -0.57030219901E+02  0.22946835921E+02 -0.29485432490E+03  0.30119607595E+03  0.10000000000E+01 0.  0.
    9000005    1    3    3    0    0  0.57030219901E+02 -0.22946835921E+02 -0.20263321319E+03  0.21175509994E+03  0.10000000000E+01 0.  0.
<mgrwt>
<rscale>  0 0.12500023E+03</rscale>
<asrwt>0</asrwt>
<pdfrwt beam="1">  1        4 0.11895110E-02 0.12500023E+03</pdfrwt>
<pdfrwt beam="2">  1       -4 0.77726029E-01 0.12500023E+03</pdfrwt>
<totfact> 0.54873062E+03</totfact>
</mgrwt>
</event>
<event>
 5    1  0.3309811E-002  0.1250155E+03  0.7818608E-02  0.1235045E+00
          4   -1    0    0  501    0  0.00000000000E+00  0.00000000000E+00  0.19419134097E+02  0.19460618414E+02  0.12700000000E+01 0. -1.
         -4   -1    0    0    0  501 -0.00000000000E+00 -0.00000000000E+00 -0.20094630822E+03  0.20095032144E+03  0.12700000000E+01 0. -1.
         25    2    1    2    0    0  0.00000000000E+00  0.00000000000E+00 -0.18152717413E+03  0.22041093986E+03  0.12501546889E+03 0.  0.
    9000005    1    3    3    0    0  0.44145128713E+02 -0.28906066708E+02 -0.31710928213E+02  0.61570577793E+02  0.10000000000E+01 0.  0.
    9000005    1    3    3    0    0 -0.44145128713E+02  0.28906066708E+02 -0.14981624591E+03  0.15884036207E+03  0.10000000000E+01 0.  0.
<mgrwt>
<rscale>  0 0.12501547E+03</rscale>
<asrwt>0</asrwt>
<pdfrwt beam="1">  1        4 0.29910590E-02 0.12501547E+03</pdfrwt>
<pdfrwt beam="2">  1       -4 0.30918315E-01 0.12501547E+03</pdfrwt>
<totfact> 0.86773382E+03</totfact>
</mgrwt>
</event>
<event>
 5    1  0.3309811E-002  0.1249973E+03  0.7818608E-02  0.1235074E+00
         -4   -1    0    0    0  501 -0.00000000000E+00  0.00000000000E+00  0.22636958675E+02  0.22672556055E+02  0.12700000000E+01 0. -1.
          4   -1    0    0  501    0  0.00000000000E+00 -0.00000000000E+00 -0.17237967643E+03  0.17238435470E+03  0.12700000000E+01 0. -1.
         25    2    1    2    0    0  0.00000000000E+00  0.00000000000E+00 -0.14974271776E+03  0.19505691076E+03  0.12499726762E+03 0.  0.
    9000005    1    3    3    0    0 -0.58394346084E+02 -0.68664283237E+01 -0.10790186368E+03  0.12288555520E+03  0.10000000000E+01 0.  0.
    9000005    1    3    3    0    0  0.58394346084E+02  0.68664283237E+01 -0.41840854078E+02  0.72171355554E+02  0.10000000000E+01 0.  0.
<mgrwt>
<rscale>  0 0.12499727E+03</rscale>
<asrwt>0</asrwt>
<pdfrwt beam="2">  1        4 0.26523047E-01 0.12499727E+03</pdfrwt>
<pdfrwt beam="1">  1       -4 0.34857073E-02 0.12499727E+03</pdfrwt>
<totfact> 0.90980364E+03</totfact>
</mgrwt>
</event>
<event>
 5    1  0.3309811E-002  0.1250034E+03  0.7818608E-02  0.1235064E+00
         -4   -1    0    0    0  501 -0.00000000000E+00  0.00000000000E+00  0.15094638538E+03  0.15095172791E+03  0.12700000000E+01 0.  1.
          4   -1    0    0  501    0  0.00000000000E+00 -0.00000000000E+00 -0.25858430256E+02  0.25889598593E+02  0.12700000000E+01 0.  1.
         25    2    1    2    0    0  0.00000000000E+00  0.00000000000E+00  0.12508795512E+03  0.17684132650E+03  0.12500343292E+03 0.  0.
    9000005    1    3    3    0    0  0.17673968317E+02  0.59886852831E+02  0.66194941139E+02  0.91003156706E+02  0.10000000000E+01 0.  0.
    9000005    1    3    3    0    0 -0.17673968317E+02 -0.59886852831E+02  0.58893013986E+02  0.85838169799E+02  0.10000000000E+01 0.  0.
<mgrwt>
<rscale>  0 0.12500343E+03</rscale>
<asrwt>0</asrwt>
<pdfrwt beam="2">  1        4 0.39810285E-02 0.12500343E+03</pdfrwt>
<pdfrwt beam="1">  1       -4 0.23225330E-01 0.12500343E+03</pdfrwt>
<totfact> 0.94181432E+03</totfact>
</mgrwt>
</event>
<event>
 5    1  0.3309811E-002  0.1250034E+03  0.7818608E-02  0.1235064E+00
         -4   -1    0    0    0  501 -0.00000000000E+00  0.00000000000E+00  0.16799569953E+03  0.16800049988E+03  0.12700000000E+01 0.  1.
          4   -1    0    0  501    0  0.00000000000E+00 -0.00000000000E+00 -0.23230889546E+02  0.23265578202E+02  0.12700000000E+01 0.  1.
         25    2    1    2    0    0  0.00000000000E+00  0.00000000000E+00  0.14476480998E+03  0.19126607808E+03  0.12500344961E+03 0.  0.
    9000005    1    3    3    0    0  0.50875789839E+02  0.80640598969E+01  0.12652434629E+03  0.13661180497E+03  0.10000000000E+01 0.  0.
    9000005    1    3    3    0    0 -0.50875789839E+02 -0.80640598969E+01  0.18240463697E+02  0.54654273114E+02  0.10000000000E+01 0.  0.
<mgrwt>
<rscale>  0 0.12500345E+03</rscale>
<asrwt>0</asrwt>
<pdfrwt beam="2">  1        4 0.35770207E-02 0.12500345E+03</pdfrwt>
<pdfrwt beam="1">  1       -4 0.25848529E-01 0.12500345E+03</pdfrwt>
<totfact> 0.91620408E+03</totfact>
</mgrwt>
</event>
<event>
 5    1  0.3309811E-002  0.1250075E+03  0.7818608E-02  0.1235058E+00
          4   -1    0    0  501    0  0.00000000000E+00  0.00000000000E+00  0.44760438956E+02  0.44778452358E+02  0.12700000000E+01 0.  1.
         -4   -1    0    0    0  501 -0.00000000000E+00 -0.00000000000E+00 -0.87240462782E+02  0.87249706282E+02  0.12700000000E+01 0.  1.
         25    2    1    2    0    0  0.00000000000E+00  0.00000000000E+00 -0.42480023825E+02  0.13202815864E+03  0.12500752877E+03 0.  0.
    9000005    1    3    3    0    0  0.47861784087E+02  0.40184621214E+02 -0.21670848598E+02  0.66152700906E+02  0.10000000000E+01 0.  0.
    9000005    1    3    3    0    0 -0.47861784087E+02 -0.40184621214E+02 -0.20809175227E+02  0.65875457735E+02  0.10000000000E+01 0.  0.
<mgrwt>
<rscale>  0 0.12500753E+03</rscale>
<asrwt>0</asrwt>
<pdfrwt beam="1">  1        4 0.68883181E-02 0.12500753E+03</pdfrwt>
<pdfrwt beam="2">  1       -4 0.13423706E-01 0.12500753E+03</pdfrwt>
<totfact> 0.10299348E+04</totfact>
</mgrwt>
</event>
<event>
 5    1  0.3309811E-002  0.1250032E+03  0.7818608E-02  0.1235064E+00
          4   -1    0    0  501    0  0.00000000000E+00  0.00000000000E+00  0.17481922885E+02  0.17527992691E+02  0.12700000000E+01 0. -1.
         -4   -1    0    0    0  501 -0.00000000000E+00 -0.00000000000E+00 -0.22311475888E+03  0.22311837336E+03  0.12700000000E+01 0. -1.
         25    2    1    2    0    0  0.00000000000E+00  0.00000000000E+00 -0.20563283599E+03  0.24064636605E+03  0.12500324097E+03 0.  0.
    9000005    1    3    3    0    0 -0.58695710409E+02  0.18063062477E+02 -0.80532203262E+02  0.10128127373E+03  0.10000000000E+01 0.  0.
    9000005    1    3    3    0    0  0.58695710409E+02 -0.18063062477E+02 -0.12510063273E+03  0.13936509232E+03  0.10000000000E+01 0.  0.
<mgrwt>
<rscale>  0 0.12500324E+03</rscale>
<asrwt>0</asrwt>
<pdfrwt beam="1">  1        4 0.26933486E-02 0.12500324E+03</pdfrwt>
<pdfrwt beam="2">  1       -4 0.34329167E-01 0.12500324E+03</pdfrwt>
<totfact> 0.83695151E+03</totfact>
</mgrwt>
</event>
<event>
 5    1  0.3309811E-002  0.1250002E+03  0.7818608E-02  0.1235069E+00
          4   -1    0    0  501    0  0.00000000000E+00  0.00000000000E+00  0.80388885130E+03  0.80388985448E+03  0.12700000000E+01 0.  1.
         -4   -1    0    0    0  501 -0.00000000000E+00 -0.00000000000E+00 -0.47752003302E+01  0.49411980525E+01  0.12700000000E+01 0.  1.
         25    2    1    2    0    0  0.00000000000E+00  0.00000000000E+00  0.79911365097E+03  0.80883105254E+03  0.12500017753E+03 0.  0.
    9000005    1    3    3    0    0 -0.35636812481E+02 -0.23532188400E+02  0.10434283305E+03  0.11274827317E+03  0.10000000000E+01 0.  0.
    9000005    1    3    3    0    0  0.35636812481E+02  0.23532188400E+02  0.69477081792E+03  0.69608277937E+03  0.10000000000E+01 0.  0.
<mgrwt>
<rscale>  0 0.12500018E+03</rscale>
<asrwt>0</asrwt>
<pdfrwt beam="1">  1        4 0.12368797E+00 0.12500018E+03</pdfrwt>
<pdfrwt beam="2">  1       -4 0.74749293E-03 0.12500018E+03</pdfrwt>
<totfact> 0.37873388E+03</totfact>
</mgrwt>
</event>
<event>
 5    1  0.3309811E-002  0.1250020E+03  0.7818608E-02  0.1235066E+00
          4   -1    0    0  501    0  0.00000000000E+00  0.00000000000E+00  0.36456165906E+03  0.36456387116E+03  0.12700000000E+01 0. -1.
         -4   -1    0    0    0  501 -0.00000000000E+00 -0.00000000000E+00 -0.10675378564E+02  0.10750656142E+02  0.12700000000E+01 0. -1.
         25    2    1    2    0    0  0.00000000000E+00  0.00000000000E+00  0.35388628049E+03  0.37531452730E+03  0.12500197951E+03 0.  0.
    9000005    1    3    3    0    0  0.33845860312E+02  0.45053646660E+02  0.25806539785E+03  0.26414791861E+03  0.10000000000E+01 0.  0.
    9000005    1    3    3    0    0 -0.33845860312E+02 -0.45053646660E+02  0.95820882645E+02  0.11116660869E+03  0.10000000000E+01 0.  0.
<mgrwt>
<rscale>  0 0.12500198E+03</rscale>
<asrwt>0</asrwt>
<pdfrwt beam="1">  1        4 0.56092374E-01 0.12500198E+03</pdfrwt>
<pdfrwt beam="2">  1       -4 0.16483266E-02 0.12500198E+03</pdfrwt>
<totfact> 0.67023642E+03</totfact>
</mgrwt>
</event>
<event>
 5    1  0.3309811E-002  0.1249966E+03  0.7818608E-02  0.1235075E+00
         -4   -1    0    0    0  501 -0.00000000000E+00  0.00000000000E+00  0.11535083171E+02  0.11604785382E+02  0.12700000000E+01 0. -1.
          4   -1    0    0  501    0  0.00000000000E+00 -0.00000000000E+00 -0.33753127846E+03  0.33753366771E+03  0.12700000000E+01 0. -1.
         25    2    1    2    0    0  0.00000000000E+00  0.00000000000E+00 -0.32599619529E+03  0.34913845309E+03  0.12499656030E+03 0.  0.
    9000005    1    3    3    0    0 -0.42234613062E+02  0.46008505357E+02 -0.16891669394E+03  0.18009551520E+03  0.10000000000E+01 0.  0.
    9000005    1    3    3    0    0  0.42234613062E+02 -0.46008505357E+02 -0.15707950135E+03  0.16904293789E+03  0.10000000000E+01 0.  0.
<mgrwt>
<rscale>  0 0.12499656E+03</rscale>
<asrwt>0</asrwt>
<pdfrwt beam="2">  1        4 0.51933427E-01 0.12499656E+03</pdfrwt>
<pdfrwt beam="1">  1       -4 0.17801739E-02 0.12499656E+03</pdfrwt>
<totfact> 0.69824759E+03</totfact>
</mgrwt>
</event>
<event>
 5    1  0.3309811E-002  0.1250013E+03  0.7818608E-02  0.1235067E+00
          4   -1    0    0  501    0  0.00000000000E+00  0.00000000000E+00  0.10924452280E+03  0.10925190461E+03  0.12700000000E+01 0. -1.
         -4   -1    0    0    0  501 -0.00000000000E+00 -0.00000000000E+00 -0.35737790332E+02  0.35760348961E+02  0.12700000000E+01 0. -1.
         25    2    1    2    0    0  0.00000000000E+00  0.00000000000E+00  0.73506732464E+02  0.14501225357E+03  0.12500125587E+03 0.  0.
    9000005    1    3    3    0    0  0.11315000474E+02 -0.21213098101E+02  0.10367037948E+03  0.10642637055E+03  0.10000000000E+01 0.  0.
    9000005    1    3    3    0    0 -0.11315000474E+02  0.21213098101E+02 -0.30163647020E+02  0.38585883018E+02  0.10000000000E+01 0.  0.
<mgrwt>
<rscale>  0 0.12500126E+03</rscale>
<asrwt>0</asrwt>
<pdfrwt beam="1">  1        4 0.16809153E-01 0.12500126E+03</pdfrwt>
<pdfrwt beam="2">  1       -4 0.55004247E-02 0.12500126E+03</pdfrwt>
<totfact> 0.10030456E+04</totfact>
</mgrwt>
</event>
<event>
 5    1  0.3309811E-002  0.1249971E+03  0.7818608E-02  0.1235074E+00
          4   -1    0    0  501    0  0.00000000000E+00  0.00000000000E+00  0.95113856582E+02  0.95122334990E+02  0.12700000000E+01 0. -1.
         -4   -1    0    0    0  501 -0.00000000000E+00 -0.00000000000E+00 -0.41047151018E+02  0.41066793236E+02  0.12700000000E+01 0. -1.
         25    2    1    2    0    0  0.00000000000E+00  0.00000000000E+00  0.54066705564E+02  0.13618912823E+03  0.12499707995E+03 0.  0.
    9000005    1    3    3    0    0  0.88417404888E+01  0.72472960570E+01  0.93970112155E+02  0.94668271630E+02  0.10000000000E+01 0.  0.
    9000005    1    3    3    0    0 -0.88417404888E+01 -0.72472960570E+01 -0.39903406590E+02  0.41520856596E+02  0.10000000000E+01 0.  0.
<mgrwt>
<rscale>  0 0.12499708E+03</rscale>
<asrwt>0</asrwt>
<pdfrwt beam="1">  1        4 0.14635064E-01 0.12499708E+03</pdfrwt>
<pdfrwt beam="2">  1       -4 0.63171095E-02 0.12499708E+03</pdfrwt>
<totfact> 0.10213740E+04</totfact>
</mgrwt>
</event>
<event>
 5    1  0.3309811E-002  0.1250002E+03  0.7818608E-02  0.1235069E+00
         -4   -1    0    0    0  501 -0.00000000000E+00  0.00000000000E+00  0.23120994357E+03  0.23121343150E+03  0.12700000000E+01 0.  1.
          4   -1    0    0  501    0  0.00000000000E+00 -0.00000000000E+00 -0.16867392060E+02  0.16915135675E+02  0.12700000000E+01 0.  1.
         25    2    1    2    0    0  0.00000000000E+00  0.00000000000E+00  0.21434255151E+03  0.24812856717E+03  0.12500022584E+03 0.  0.
    9000005    1    3    3    0    0 -0.56620387699E+02 -0.54054439725E+01  0.55783392896E+02  0.79673546743E+02  0.10000000000E+01 0.  0.
    9000005    1    3    3    0    0  0.56620387699E+02  0.54054439725E+01  0.15855915861E+03  0.16845502043E+03  0.10000000000E+01 0.  0.
<mgrwt>
<rscale>  0 0.12500023E+03</rscale>
<asrwt>0</asrwt>
<pdfrwt beam="2">  1        4 0.25989245E-02 0.12500023E+03</pdfrwt>
<pdfrwt beam="1">  1       -4 0.35574699E-01 0.12500023E+03</pdfrwt>
<totfact> 0.82601048E+03</totfact>
</mgrwt>
</event>
<event>
 5    1  0.3309811E-002  0.1249926E+03  0.7818608E-02  0.1235081E+00
         -4   -1    0    0    0  501 -0.00000000000E+00  0.00000000000E+00  0.60474011439E+03  0.60474144793E+03  0.12700000000E+01 0. -1.
          4   -1    0    0  501    0  0.00000000000E+00 -0.00000000000E+00 -0.63948367493E+01  0.65197267620E+01  0.12700000000E+01 0. -1.
         25    2    1    2    0    0  0.00000000000E+00  0.00000000000E+00  0.59834527764E+03  0.61126117470E+03  0.12499260946E+03 0.  0.
    9000005    1    3    3    0    0  0.17590435950E+02 -0.10724838161E+02  0.58767772251E+03  0.58803958296E+03  0.10000000000E+01 0.  0.
    9000005    1    3    3    0    0 -0.17590435950E+02  0.10724838161E+02  0.10667555129E+02  0.23221591739E+02  0.10000000000E+01 0.  0.
<mgrwt>
<rscale>  0 0.12499261E+03</rscale>
<asrwt>0</asrwt>
<pdfrwt beam="2">  1        4 0.99353057E-03 0.12499261E+03</pdfrwt>
<pdfrwt beam="1">  1       -4 0.93046648E-01 0.12499261E+03</pdfrwt>
<totfact> 0.48172206E+03</totfact>
</mgrwt>
</event>
<event>
 5    1  0.3309811E-002  0.1249898E+03  0.7818608E-02  0.1235085E+00
         -4   -1    0    0    0  501 -0.00000000000E+00  0.00000000000E+00  0.30158787742E+03  0.30159055142E+03  0.12700000000E+01 0.  1.
          4   -1    0    0  501    0  0.00000000000E+00 -0.00000000000E+00 -0.12916283865E+02  0.12978570371E+02  0.12700000000E+01 0.  1.
         25    2    1    2    0    0  0.00000000000E+00  0.00000000000E+00  0.28867159355E+03  0.31456912179E+03  0.12498977342E+03 0.  0.
    9000005    1    3    3    0    0  0.33847595989E+02 -0.18268721692E+01  0.27645038415E+03  0.27852255225E+03  0.10000000000E+01 0.  0.
    9000005    1    3    3    0    0 -0.33847595989E+02  0.18268721692E+01  0.12221209402E+02  0.36046569538E+02  0.10000000000E+01 0.  0.
<mgrwt>
<rscale>  0 0.12498977E+03</rscale>
<asrwt>0</asrwt>
<pdfrwt beam="2">  1        4 0.19921176E-02 0.12498977E+03</pdfrwt>
<pdfrwt beam="1">  1       -4 0.46403132E-01 0.12498977E+03</pdfrwt>
<totfact> 0.73823484E+03</totfact>
</mgrwt>
</event>
<event>
 5    1  0.3309811E-002  0.1250030E+03  0.7818608E-02  0.1235065E+00
         -4   -1    0    0    0  501 -0.00000000000E+00  0.00000000000E+00  0.12539795159E+03  0.12540438255E+03  0.12700000000E+01 0.  1.
          4   -1    0    0  501    0  0.00000000000E+00 -0.00000000000E+00 -0.31132130857E+02  0.31158024195E+02  0.12700000000E+01 0.  1.
         25    2    1    2    0    0  0.00000000000E+00  0.00000000000E+00  0.94265820734E+02  0.15656240675E+03  0.12500296896E+03 0.  0.
    9000005    1    3    3    0    0 -0.42465601494E+01  0.57479082154E+02  0.16877088650E+02  0.60064251262E+02  0.10000000000E+01 0.  0.
    9000005    1    3    3    0    0  0.42465601494E+01 -0.57479082154E+02  0.77388732085E+02  0.96498155485E+02  0.10000000000E+01 0.  0.
<mgrwt>
<rscale>  0 0.12500297E+03</rscale>
<asrwt>0</asrwt>
<pdfrwt beam="2">  1        4 0.47920451E-02 0.12500297E+03</pdfrwt>
<pdfrwt beam="1">  1       -4 0.19294479E-01 0.12500297E+03</pdfrwt>
<totfact> 0.98003106E+03</totfact>
</mgrwt>
</event>
<event>
 5    1  0.3309811E-002  0.1249998E+03  0.7818608E-02  0.1235070E+00
          4   -1    0    0  501    0  0.00000000000E+00  0.00000000000E+00  0.52818640863E+02  0.52833906941E+02  0.12700000000E+01 0. -1.
         -4   -1    0    0    0  501 -0.00000000000E+00 -0.00000000000E+00 -0.73924247014E+02  0.73935155350E+02  0.12700000000E+01 0. -1.
         25    2    1    2    0    0  0.00000000000E+00  0.00000000000E+00 -0.21105606151E+02  0.12676906229E+03  0.12499979417E+03 0.  0.
    9000005    1    3    3    0    0  0.48639149539E+02 -0.36646334839E+02  0.36640472655E+01  0.61017587361E+02  0.10000000000E+01 0.  0.
    9000005    1    3    3    0    0 -0.48639149539E+02  0.36646334839E+02 -0.24769653416E+02  0.65751474929E+02  0.10000000000E+01 0.  0.
<mgrwt>
<rscale>  0 0.12499979E+03</rscale>
<asrwt>0</asrwt>
<pdfrwt beam="1">  1        4 0.81279581E-02 0.12499979E+03</pdfrwt>
<pdfrwt beam="2">  1       -4 0.11374975E-01 0.12499979E+03</pdfrwt>
<totfact> 0.10414215E+04</totfact>
</mgrwt>
</event>
<event>
 5    1  0.3309811E-002  0.1250011E+03  0.7818608E-02  0.1235068E+00
          4   -1    0    0  501    0  0.00000000000E+00  0.00000000000E+00  0.38598529214E+01  0.40634178440E+01  0.12700000000E+01 0.  1.
         -4   -1    0    0    0  501 -0.00000000000E+00 -0.00000000000E+00 -0.98583309256E+03  0.98583391060E+03  0.12700000000E+01 0.  1.
         25    2    1    2    0    0  0.00000000000E+00  0.00000000000E+00 -0.98197323964E+03  0.98989732844E+03  0.12500110996E+03 0.  0.
    9000005    1    3    3    0    0  0.36599558591E+02 -0.68325469128E+01 -0.88845233699E+03  0.88923268411E+03  0.10000000000E+01 0.  0.
    9000005    1    3    3    0    0 -0.36599558591E+02  0.68325469128E+01 -0.93520902644E+02  0.10066464433E+03  0.10000000000E+01 0.  0.
<mgrwt>
<rscale>  0 0.12500111E+03</rscale>
<asrwt>0</asrwt>
<pdfrwt beam="1">  1        4 0.60954608E-03 0.12500111E+03</pdfrwt>
<pdfrwt beam="2">  1       -4 0.15168216E+00 0.12500111E+03</pdfrwt>
<totfact> 0.30939709E+03</totfact>
</mgrwt>
</event>
<event>
 5    1  0.3309811E-002  0.1249982E+03  0.7818608E-02  0.1235072E+00
          4   -1    0    0  501    0  0.00000000000E+00  0.00000000000E+00  0.12826686223E+03  0.12827314936E+03  0.12700000000E+01 0.  1.
         -4   -1    0    0    0  501 -0.00000000000E+00 -0.00000000000E+00 -0.30432918080E+02  0.30459405819E+02  0.12700000000E+01 0.  1.
         25    2    1    2    0    0  0.00000000000E+00  0.00000000000E+00  0.97833944155E+02  0.15873255518E+03  0.12499817377E+03 0.  0.
    9000005    1    3    3    0    0 -0.55675888243E+02 -0.94306403159E+00  0.12899792843E+02  0.57167285722E+02  0.10000000000E+01 0.  0.
    9000005    1    3    3    0    0  0.55675888243E+02  0.94306403159E+00  0.84934151312E+02  0.10156526946E+03  0.10000000000E+01 0.  0.
<mgrwt>
<rscale>  0 0.12499817E+03</rscale>
<asrwt>0</asrwt>
<pdfrwt beam="1">  1        4 0.19735885E-01 0.12499817E+03</pdfrwt>
<pdfrwt beam="2">  1       -4 0.46845085E-02 0.12499817E+03</pdfrwt>
<totfact> 0.97591702E+03</totfact>
</mgrwt>
</event>
<event>
 5    1  0.3309811E-002  0.1249991E+03  0.7818608E-02  0.1235071E+00
          4   -1    0    0  501    0  0.00000000000E+00  0.00000000000E+00  0.15837263495E+03  0.15837772697E+03  0.12700000000E+01 0. -1.
         -4   -1    0    0    0  501 -0.00000000000E+00 -0.00000000000E+00 -0.24642717528E+02  0.24675421519E+02  0.12700000000E+01 0. -1.
         25    2    1    2    0    0  0.00000000000E+00  0.00000000000E+00  0.13372991742E+03  0.18305314849E+03  0.12499905743E+03 0.  0.
    9000005    1    3    3    0    0 -0.56513708211E+02 -0.85850908735E+00  0.10590406103E+03  0.12004668424E+03  0.10000000000E+01 0.  0.
    9000005    1    3    3    0    0  0.56513708211E+02  0.85850908735E+00  0.27825856387E+02  0.63006464250E+02  0.10000000000E+01 0.  0.
<mgrwt>
<rscale>  0 0.12499906E+03</rscale>
<asrwt>0</asrwt>
<pdfrwt beam="1">  1        4 0.24367928E-01 0.12499906E+03</pdfrwt>
<pdfrwt beam="2">  1       -4 0.37940947E-02 0.12499906E+03</pdfrwt>
<totfact> 0.93072262E+03</totfact>
</mgrwt>
</event>
<event>
 5    1  0.3309811E-002  0.1250093E+03  0.7818608E-02  0.1235055E+00
          4   -1    0    0  501    0  0.00000000000E+00  0.00000000000E+00  0.19312842977E+03  0.19313260544E+03  0.12700000000E+01 0.  1.
         -4   -1    0    0    0  501 -0.00000000000E+00 -0.00000000000E+00 -0.20204863435E+02  0.20244737746E+02  0.12700000000E+01 0.  1.
         25    2    1    2    0    0  0.00000000000E+00  0.00000000000E+00  0.17292356633E+03  0.21337734319E+03  0.12500932282E+03 0.  0.
    9000005    1    3    3    0    0 -0.43482866664E+02 -0.31497700923E+02  0.31868791844E+02  0.62445854548E+02  0.10000000000E+01 0.  0.
    9000005    1    3    3    0    0  0.43482866664E+02  0.31497700923E+02  0.14105477449E+03  0.15093148864E+03  0.10000000000E+01 0.  0.
<mgrwt>
<rscale>  0 0.12500932E+03</rscale>
<asrwt>0</asrwt>
<pdfrwt beam="1">  1        4 0.29715456E-01 0.12500932E+03</pdfrwt>
<pdfrwt beam="2">  1       -4 0.31118289E-02 0.12500932E+03</pdfrwt>
<totfact> 0.87908950E+03</totfact>
</mgrwt>
</event>
<event>
 5    1  0.3309811E-002  0.1250205E+03  0.7818608E-02  0.1235037E+00
          4   -1    0    0  501    0  0.00000000000E+00  0.00000000000E+00  0.15958373533E+03  0.15958878871E+03  0.12700000000E+01 0.  1.
         -4   -1    0    0    0  501 -0.00000000000E+00 -0.00000000000E+00 -0.24463868779E+02  0.24496811540E+02  0.12700000000E+01 0.  1.
         25    2    1    2    0    0  0.00000000000E+00  0.00000000000E+00  0.13511986655E+03  0.18408560025E+03  0.12502051785E+03 0.  0.
    9000005    1    3    3    0    0  0.43667994914E+02 -0.31472934552E+02  0.11433389316E+03  0.12637514991E+03  0.10000000000E+01 0.  0.
    9000005    1    3    3    0    0 -0.43667994914E+02  0.31472934552E+02  0.20785973395E+02  0.57710450346E+02  0.10000000000E+01 0.  0.
<mgrwt>
<rscale>  0 0.12502052E+03</rscale>
<asrwt>0</asrwt>
<pdfrwt beam="1">  1        4 0.24554267E-01 0.12502052E+03</pdfrwt>
<pdfrwt beam="2">  1       -4 0.37665949E-02 0.12502052E+03</pdfrwt>
<totfact> 0.92844006E+03</totfact>
</mgrwt>
</event>
<event>
 5    1  0.3309811E-002  0.1250007E+03  0.7818608E-02  0.1235068E+00
         -4   -1    0    0    0  501 -0.00000000000E+00  0.00000000000E+00  0.45807151198E+03  0.45807327251E+03  0.12700000000E+01 0.  1.
          4   -1    0    0  501    0  0.00000000000E+00 -0.00000000000E+00 -0.84786296556E+01  0.85732176478E+01  0.12700000000E+01 0.  1.
         25    2    1    2    0    0  0.00000000000E+00  0.00000000000E+00  0.44959288232E+03  0.46664649016E+03  0.12500074776E+03 0.  0.
    9000005    1    3    3    0    0  0.44355173895E+02  0.13143243158E+02  0.38164073241E+03  0.38443565772E+03  0.10000000000E+01 0.  0.
    9000005    1    3    3    0    0 -0.44355173895E+02 -0.13143243158E+02  0.67952149910E+02  0.82210832433E+02  0.10000000000E+01 0.  0.
<mgrwt>
<rscale>  0 0.12500075E+03</rscale>
<asrwt>0</asrwt>
<pdfrwt beam="2">  1        4 0.13118159E-02 0.12500075E+03</pdfrwt>
<pdfrwt beam="1">  1       -4 0.70479958E-01 0.12500075E+03</pdfrwt>
<totfact> 0.58547387E+03</totfact>
</mgrwt>
</event>
<event>
 5    1  0.3309811E-002  0.1249963E+03  0.7818608E-02  0.1235075E+00
         -4   -1    0    0    0  501 -0.00000000000E+00  0.00000000000E+00  0.72506426165E+03  0.72506537389E+03  0.12700000000E+01 0.  1.
          4   -1    0    0  501    0  0.00000000000E+00 -0.00000000000E+00 -0.53111499350E+01  0.54608802983E+01  0.12700000000E+01 0.  1.
         25    2    1    2    0    0  0.00000000000E+00  0.00000000000E+00  0.71975311171E+03  0.73052625419E+03  0.12499626492E+03 0.  0.
    9000005    1    3    3    0    0  0.75639228750E-01 -0.12718264182E+02  0.71744862860E+03  0.71756204934E+03  0.10000000000E+01 0.  0.
    9000005    1    3    3    0    0 -0.75639228750E-01  0.12718264182E+02  0.23044831100E+01  0.12964204854E+02  0.10000000000E+01 0.  0.
<mgrwt>
<rscale>  0 0.12499626E+03</rscale>
<asrwt>0</asrwt>
<pdfrwt beam="2">  1        4 0.82870363E-03 0.12499626E+03</pdfrwt>
<pdfrwt beam="1">  1       -4 0.11155990E+00 0.12499626E+03</pdfrwt>
<totfact> 0.41526740E+03</totfact>
</mgrwt>
</event>
<event>
 4    1  0.3309811E-002  0.1248340E+03  0.7818608E-02  0.1235329E+00
          4   -1    0    0  501    0  0.00000000000E+00  0.00000000000E+00  0.27703126288E+02  0.27732221442E+02  0.12700000000E+01 0. -1.
         -4   -1    0    0    0  501 -0.00000000000E+00 -0.00000000000E+00 -0.14052397066E+03  0.14052970942E+03  0.12700000000E+01 0. -1.
    9000005    1    1    2    0    0 -0.99101607148E+01  0.22112558791E+02 -0.13393089384E+03  0.13610900362E+03  0.10000000000E+01 0.  0.
    9000005    1    1    2    0    0  0.99101607148E+01 -0.22112558791E+02  0.21110049469E+02  0.32152927243E+02  0.10000000000E+01 0.  0.
<mgrwt>
<rscale>  0 0.12483403E+03</rscale>
<asrwt>0</asrwt>
<pdfrwt beam="1">  1        4 0.42646990E-02 0.12483403E+03</pdfrwt>
<pdfrwt beam="2">  1       -4 0.21621752E-01 0.12483403E+03</pdfrwt>
<totfact> 0.96131015E+03</totfact>
</mgrwt>
</event>
<event>
 5    1  0.3309811E-002  0.1249876E+03  0.7818608E-02  0.1235089E+00
          4   -1    0    0  501    0  0.00000000000E+00  0.00000000000E+00  0.16659243956E+03  0.16659728035E+03  0.12700000000E+01 0. -1.
         -4   -1    0    0    0  501 -0.00000000000E+00 -0.00000000000E+00 -0.23420912210E+02  0.23455319839E+02  0.12700000000E+01 0. -1.
         25    2    1    2    0    0  0.00000000000E+00  0.00000000000E+00  0.14317152735E+03  0.19005260018E+03  0.12498761776E+03 0.  0.
    9000005    1    3    3    0    0  0.21692478582E+02 -0.28183066923E+02 -0.65370951662E+01  0.36174334845E+02  0.10000000000E+01 0.  0.
    9000005    1    3    3    0    0 -0.21692478582E+02  0.28183066923E+02  0.14970862252E+03  0.15387826534E+03  0.10000000000E+01 0.  0.
<mgrwt>
<rscale>  0 0.12498762E+03</rscale>
<asrwt>0</asrwt>
<pdfrwt beam="1">  1        4 0.25632625E-01 0.12498762E+03</pdfrwt>
<pdfrwt beam="2">  1       -4 0.36062364E-02 0.12498762E+03</pdfrwt>
<totfact> 0.91863639E+03</totfact>
</mgrwt>
</event>
<event>
 5    1  0.3309811E-002  0.1250019E+03  0.7818608E-02  0.1235066E+00
         -4   -1    0    0    0  501 -0.00000000000E+00  0.00000000000E+00  0.46117437972E+03  0.46117612840E+03  0.12700000000E+01 0.  1.
          4   -1    0    0  501    0  0.00000000000E+00 -0.00000000000E+00 -0.84210999849E+01  0.85163269639E+01  0.12700000000E+01 0.  1.
         25    2    1    2    0    0  0.00000000000E+00  0.00000000000E+00  0.45275327973E+03  0.46969245536E+03  0.12500188126E+03 0.  0.
    9000005    1    3    3    0    0 -0.42032060129E+01 -0.36192511720E+02  0.35601458509E+02  0.50951238389E+02  0.10000000000E+01 0.  0.
    9000005    1    3    3    0    0  0.42032060129E+01  0.36192511720E+02  0.41715182122E+03  0.41874121698E+03  0.10000000000E+01 0.  0.
<mgrwt>
<rscale>  0 0.12500188E+03</rscale>
<asrwt>0</asrwt>
<pdfrwt beam="2">  1        4 0.13030131E-02 0.12500188E+03</pdfrwt>
<pdfrwt beam="1">  1       -4 0.70957386E-01 0.12500188E+03</pdfrwt>
<totfact> 0.58292579E+03</totfact>
</mgrwt>
</event>
<event>
 5    1  0.3309811E-002  0.1249999E+03  0.7818608E-02  0.1235069E+00
          4   -1    0    0  501    0  0.00000000000E+00  0.00000000000E+00  0.28949921602E+02  0.28977764937E+02  0.12700000000E+01 0. -1.
         -4   -1    0    0    0  501 -0.00000000000E+00 -0.00000000000E+00 -0.13483542753E+03  0.13484140839E+03  0.12700000000E+01 0. -1.
         25    2    1    2    0    0  0.00000000000E+00  0.00000000000E+00 -0.10588550592E+03  0.16381917333E+03  0.12499992474E+03 0.  0.
    9000005    1    3    3    0    0  0.48985796971E+02  0.36891385778E+02 -0.68705546299E+02  0.92097962745E+02  0.10000000000E+01 0.  0.
    9000005    1    3    3    0    0 -0.48985796971E+02 -0.36891385778E+02 -0.37179959625E+02  0.71721210581E+02  0.10000000000E+01 0.  0.
<mgrwt>
<rscale>  0 0.12499992E+03</rscale>
<asrwt>0</asrwt>
<pdfrwt beam="1">  1        4 0.44564360E-02 0.12499992E+03</pdfrwt>
<pdfrwt beam="2">  1       -4 0.20746513E-01 0.12499992E+03</pdfrwt>
<totfact> 0.96611654E+03</totfact>
</mgrwt>
</event>
<event>
 5    1  0.3309811E-002  0.1249847E+03  0.7818608E-02  0.1235093E+00
          4   -1    0    0  501    0  0.00000000000E+00  0.00000000000E+00  0.13989686562E+02  0.14047214318E+02  0.12700000000E+01 0. -1.
         -4   -1    0    0    0  501 -0.00000000000E+00 -0.00000000000E+00 -0.27852327301E+03  0.27852616845E+03  0.12700000000E+01 0. -1.
         25    2    1    2    0    0  0.00000000000E+00  0.00000000000E+00 -0.26453358645E+03  0.29257338277E+03  0.12498466283E+03 0.  0.
    9000005    1    3    3    0    0 -0.40265456508E+00  0.55172585732E+02 -0.63614288624E+02  0.84213740353E+02  0.10000000000E+01 0.  0.
    9000005    1    3    3    0    0  0.40265456508E+00 -0.55172585732E+02 -0.20091929783E+03  0.20835964241E+03  0.10000000000E+01 0.  0.
<mgrwt>
<rscale>  0 0.12498466E+03</rscale>
<asrwt>0</asrwt>
<pdfrwt beam="1">  1        4 0.21569076E-02 0.12498466E+03</pdfrwt>
<pdfrwt beam="2">  1       -4 0.42854378E-01 0.12498466E+03</pdfrwt>
<totfact> 0.76566044E+03</totfact>
</mgrwt>
</event>
<event>
 5    1  0.3309811E-002  0.1250027E+03  0.7818608E-02  0.1235065E+00
          4   -1    0    0  501    0  0.00000000000E+00  0.00000000000E+00  0.34777624788E+03  0.34777856675E+03  0.12700000000E+01 0.  1.
         -4   -1    0    0    0  501 -0.00000000000E+00 -0.00000000000E+00 -0.11194306636E+02  0.11266117391E+02  0.12700000000E+01 0.  1.
         25    2    1    2    0    0  0.00000000000E+00  0.00000000000E+00  0.33658194125E+03  0.35904468414E+03  0.12500272812E+03 0.  0.
    9000005    1    3    3    0    0  0.56707152097E+02 -0.40157892512E+01  0.24283755391E+03  0.24940510270E+03  0.10000000000E+01 0.  0.
    9000005    1    3    3    0    0 -0.56707152097E+02  0.40157892512E+01  0.93744387337E+02  0.10963958144E+03  0.10000000000E+01 0.  0.
<mgrwt>
<rscale>  0 0.12500273E+03</rscale>
<asrwt>0</asrwt>
<pdfrwt beam="1">  1        4 0.53509744E-01 0.12500273E+03</pdfrwt>
<pdfrwt beam="2">  1       -4 0.17279032E-02 0.12500273E+03</pdfrwt>
<totfact> 0.68736707E+03</totfact>
</mgrwt>
</event>
<event>
 5    1  0.3309811E-002  0.1250014E+03  0.7818608E-02  0.1235067E+00
          4   -1    0    0  501    0  0.00000000000E+00  0.00000000000E+00  0.51816582513E+03  0.51816738148E+03  0.12700000000E+01 0.  1.
         -4   -1    0    0    0  501 -0.00000000000E+00 -0.00000000000E+00 -0.74837072975E+01  0.75907031897E+01  0.12700000000E+01 0.  1.
         25    2    1    2    0    0  0.00000000000E+00  0.00000000000E+00  0.51068211783E+03  0.52575808467E+03  0.12500135249E+03 0.  0.
    9000005    1    3    3    0    0  0.47222121766E+02  0.40219451119E+02  0.22336383211E+03  0.23181875362E+03  0.10000000000E+01 0.  0.
    9000005    1    3    3    0    0 -0.47222121766E+02 -0.40219451119E+02  0.28731828572E+03  0.29393933106E+03  0.10000000000E+01 0.  0.
<mgrwt>
<rscale>  0 0.12500135E+03</rscale>
<asrwt>0</asrwt>
<pdfrwt beam="1">  1        4 0.79726184E-01 0.12500135E+03</pdfrwt>
<pdfrwt beam="2">  1       -4 0.11596895E-02 0.12500135E+03</pdfrwt>
<totfact> 0.53918202E+03</totfact>
</mgrwt>
</event>
<event>
 5    1  0.3309811E-002  0.1249984E+03  0.7818608E-02  0.1235072E+00
          4   -1    0    0  501    0  0.00000000000E+00  0.00000000000E+00  0.58408411328E+03  0.58408549399E+03  0.12700000000E+01 0. -1.
         -4   -1    0    0    0  501 -0.00000000000E+00 -0.00000000000E+00 -0.66259564500E+01  0.67465694155E+01  0.12700000000E+01 0. -1.
         25    2    1    2    0    0  0.00000000000E+00  0.00000000000E+00  0.57745815683E+03  0.59083206340E+03  0.12499841701E+03 0.  0.
    9000005    1    3    3    0    0  0.35565370851E+02  0.33485594505E+02  0.47294798530E+03  0.47546501179E+03  0.10000000000E+01 0.  0.
    9000005    1    3    3    0    0 -0.35565370851E+02 -0.33485594505E+02  0.10451017153E+03  0.11536705161E+03  0.10000000000E+01 0.  0.
<mgrwt>
<rscale>  0 0.12499842E+03</rscale>
<asrwt>0</asrwt>
<pdfrwt beam="1">  1        4 0.89868507E-01 0.12499842E+03</pdfrwt>
<pdfrwt beam="2">  1       -4 0.10287617E-02 0.12499842E+03</pdfrwt>
<totfact> 0.49453183E+03</totfact>
</mgrwt>
</event>
<event>
 5    1  0.3309811E-002  0.1250017E+03  0.7818608E-02  0.1235067E+00
         -4   -1    0    0    0  501 -0.00000000000E+00  0.00000000000E+00  0.21780386895E+02  0.21817381907E+02  0.12700000000E+01 0. -1.
          4   -1    0    0  501    0  0.00000000000E+00 -0.00000000000E+00 -0.17916050771E+03  0.17916500893E+03  0.12700000000E+01 0. -1.
         25    2    1    2    0    0  0.00000000000E+00  0.00000000000E+00 -0.15738012082E+03  0.20098239083E+03  0.12500167598E+03 0.  0.
    9000005    1    3    3    0    0 -0.46126241318E+02  0.35170195029E+02 -0.41300248268E+02  0.71212943090E+02  0.10000000000E+01 0.  0.
    9000005    1    3    3    0    0  0.46126241318E+02 -0.35170195029E+02 -0.11607987255E+03  0.12976944774E+03  0.10000000000E+01 0.  0.
<mgrwt>
<rscale>  0 0.12500168E+03</rscale>
<asrwt>0</asrwt>
<pdfrwt beam="2">  1        4 0.27566346E-01 0.12500168E+03</pdfrwt>
<pdfrwt beam="1">  1       -4 0.33540209E-02 0.12500168E+03</pdfrwt>
<totfact> 0.89966709E+03</totfact>
</mgrwt>
</event>
<event>
 5    1  0.3309811E-002  0.1249987E+03  0.7818608E-02  0.1235071E+00
          4   -1    0    0  501    0  0.00000000000E+00  0.00000000000E+00  0.38801345964E+01  0.40826883896E+01  0.12700000000E+01 0.  1.
         -4   -1    0    0    0  501 -0.00000000000E+00 -0.00000000000E+00 -0.98089910271E+03  0.98089992486E+03  0.12700000000E+01 0.  1.
         25    2    1    2    0    0  0.00000000000E+00  0.00000000000E+00 -0.97701896811E+03  0.98498261325E+03  0.12499873742E+03 0.  0.
    9000005    1    3    3    0    0 -0.51458133180E+02  0.32004195003E+01 -0.21024726904E+03  0.21647885877E+03  0.10000000000E+01 0.  0.
    9000005    1    3    3    0    0  0.51458133180E+02 -0.32004195003E+01 -0.76677169907E+03  0.76850375448E+03  0.10000000000E+01 0.  0.
<mgrwt>
<rscale>  0 0.12499874E+03</rscale>
<asrwt>0</asrwt>
<pdfrwt beam="1">  1        4 0.61258887E-03 0.12499874E+03</pdfrwt>
<pdfrwt beam="2">  1       -4 0.15092301E+00 0.12499874E+03</pdfrwt>
<totfact> 0.31106480E+03</totfact>
</mgrwt>
</event>
<event>
 5    1  0.3309811E-002  0.1249825E+03  0.7818608E-02  0.1235097E+00
         -4   -1    0    0    0  501 -0.00000000000E+00  0.00000000000E+00  0.54195625266E+03  0.54195774069E+03  0.12700000000E+01 0. -1.
          4   -1    0    0  501    0  0.00000000000E+00 -0.00000000000E+00 -0.71481928628E+01  0.72601350678E+01  0.12700000000E+01 0. -1.
         25    2    1    2    0    0  0.00000000000E+00  0.00000000000E+00  0.53480805979E+03  0.54921787576E+03  0.12498245569E+03 0.  0.
    9000005    1    3    3    0    0 -0.36931364640E+02 -0.33695831335E+02  0.10269941498E+03  0.11422567392E+03  0.10000000000E+01 0.  0.
    9000005    1    3    3    0    0  0.36931364640E+02  0.33695831335E+02  0.43210864481E+03  0.43499220184E+03  0.10000000000E+01 0.  0.
<mgrwt>
<rscale>  0 0.12498246E+03</rscale>
<asrwt>0</asrwt>
<pdfrwt beam="2">  1        4 0.11084471E-02 0.12498246E+03</pdfrwt>
<pdfrwt beam="1">  1       -4 0.83386630E-01 0.12498246E+03</pdfrwt>
<totfact> 0.52258605E+03</totfact>
</mgrwt>
</event>
<event>
 5    1  0.3309811E-002  0.1250001E+03  0.7818608E-02  0.1235069E+00
          4   -1    0    0  501    0  0.00000000000E+00  0.00000000000E+00  0.20990867479E+03  0.20991251667E+03  0.12700000000E+01 0. -1.
         -4   -1    0    0    0  501 -0.00000000000E+00 -0.00000000000E+00 -0.18583616819E+02  0.18626962020E+02  0.12700000000E+01 0. -1.
         25    2    1    2    0    0  0.00000000000E+00  0.00000000000E+00  0.19132505797E+03  0.22853947869E+03  0.12500006204E+03 0.  0.
    9000005    1    3    3    0    0 -0.59878032107E+02 -0.12193705316E+02  0.71741021219E+02  0.94243510672E+02  0.10000000000E+01 0.  0.
    9000005    1    3    3    0    0  0.59878032107E+02  0.12193705316E+02  0.11958403676E+03  0.13429596802E+03  0.10000000000E+01 0.  0.
<mgrwt>
<rscale>  0 0.12500006E+03</rscale>
<asrwt>0</asrwt>
<pdfrwt beam="1">  1        4 0.32297269E-01 0.12500006E+03</pdfrwt>
<pdfrwt beam="2">  1       -4 0.28626481E-02 0.12500006E+03</pdfrwt>
<totfact> 0.85534251E+03</totfact>
</mgrwt>
</event>
<event>
 5    1  0.3309811E-002  0.1250036E+03  0.7818608E-02  0.1235064E+00
         -4   -1    0    0    0  501 -0.00000000000E+00  0.00000000000E+00  0.59265994958E+02  0.59279600693E+02  0.12700000000E+01 0. -1.
          4   -1    0    0  501    0  0.00000000000E+00 -0.00000000000E+00 -0.65886969888E+02  0.65899208653E+02  0.12700000000E+01 0. -1.
         25    2    1    2    0    0  0.00000000000E+00  0.00000000000E+00 -0.66209749302E+01  0.12517880935E+03  0.12500358795E+03 0.  0.
    9000005    1    3    3    0    0  0.46587681201E+02  0.26182713483E+02 -0.35752313834E+02  0.64305322249E+02  0.10000000000E+01 0.  0.
    9000005    1    3    3    0    0 -0.46587681201E+02 -0.26182713483E+02  0.29131338904E+02  0.60873487097E+02  0.10000000000E+01 0.  0.
<mgrwt>
<rscale>  0 0.12500359E+03</rscale>
<asrwt>0</asrwt>
<pdfrwt beam="2">  1        4 0.10138445E-01 0.12500359E+03</pdfrwt>
<pdfrwt beam="1">  1       -4 0.91198334E-02 0.12500359E+03</pdfrwt>
<totfact> 0.10448133E+04</totfact>
</mgrwt>
</event>
<event>
 5    1  0.3309811E-002  0.1250039E+03  0.7818608E-02  0.1235063E+00
         -4   -1    0    0    0  501 -0.00000000000E+00  0.00000000000E+00  0.32968184310E+02  0.32992636705E+02  0.12700000000E+01 0. -1.
          4   -1    0    0  501    0  0.00000000000E+00 -0.00000000000E+00 -0.11842102191E+03  0.11842783174E+03  0.12700000000E+01 0. -1.
         25    2    1    2    0    0  0.00000000000E+00  0.00000000000E+00 -0.85452837600E+02  0.15142046844E+03  0.12500388318E+03 0.  0.
    9000005    1    3    3    0    0  0.43492002463E+02  0.24669060308E+02 -0.88137028200E+02  0.10133732064E+03  0.10000000000E+01 0.  0.
    9000005    1    3    3    0    0 -0.43492002463E+02 -0.24669060308E+02  0.26841905995E+01  0.50083147803E+02  0.10000000000E+01 0.  0.
<mgrwt>
<rscale>  0 0.12500388E+03</rscale>
<asrwt>0</asrwt>
<pdfrwt beam="2">  1        4 0.18221023E-01 0.12500388E+03</pdfrwt>
<pdfrwt beam="1">  1       -4 0.50744332E-02 0.12500388E+03</pdfrwt>
<totfact> 0.99012648E+03</totfact>
</mgrwt>
</event>
<event>
 5    1  0.3309811E-002  0.1250040E+03  0.7818608E-02  0.1235063E+00
         -4   -1    0    0    0  501 -0.00000000000E+00  0.00000000000E+00  0.27215631249E+03  0.27215927566E+03  0.12700000000E+01 0. -1.
          4   -1    0    0  501    0  0.00000000000E+00 -0.00000000000E+00 -0.14322736118E+02  0.14378931460E+02  0.12700000000E+01 0. -1.
         25    2    1    2    0    0  0.00000000000E+00  0.00000000000E+00  0.25783357637E+03  0.28653820712E+03  0.12500396408E+03 0.  0.
    9000005    1    3    3    0    0  0.58259152477E+02 -0.85999744006E+01  0.80976263181E+02  0.10013113205E+03  0.10000000000E+01 0.  0.
    9000005    1    3    3    0    0 -0.58259152477E+02  0.85999744006E+01  0.17685731319E+03  0.18640707507E+03  0.10000000000E+01 0.  0.
<mgrwt>
<rscale>  0 0.12500396E+03</rscale>
<asrwt>0</asrwt>
<pdfrwt beam="2">  1        4 0.22080488E-02 0.12500396E+03</pdfrwt>
<pdfrwt beam="1">  1       -4 0.41874747E-01 0.12500396E+03</pdfrwt>
<totfact> 0.77312291E+03</totfact>
</mgrwt>
</event>
<event>
 5    1  0.3309811E-002  0.1249700E+03  0.7818608E-02  0.1235116E+00
         -4   -1    0    0    0  501 -0.00000000000E+00  0.00000000000E+00  0.67270271851E+03  0.67270391733E+03  0.12700000000E+01 0. -1.
          4   -1    0    0  501    0  0.00000000000E+00 -0.00000000000E+00 -0.57333216938E+01  0.58722974758E+01  0.12700000000E+01 0. -1.
         25    2    1    2    0    0  0.00000000000E+00  0.00000000000E+00  0.66696939682E+03  0.67857621481E+03  0.12497000844E+03 0.  0.
    9000005    1    3    3    0    0 -0.31248829096E+02  0.38489753710E+02  0.53992318119E+03  0.54219552935E+03  0.10000000000E+01 0.  0.
    9000005    1    3    3    0    0  0.31248829096E+02 -0.38489753710E+02  0.12704621563E+03  0.13638068546E+03  0.10000000000E+01 0.  0.
<mgrwt>
<rscale>  0 0.12497001E+03</rscale>
<asrwt>0</asrwt>
<pdfrwt beam="2">  1        4 0.89283266E-03 0.12497001E+03</pdfrwt>
<pdfrwt beam="1">  1       -4 0.10350345E+00 0.12497001E+03</pdfrwt>
<totfact> 0.44271091E+03</totfact>
</mgrwt>
</event>
<event>
 5    1  0.3309811E-002  0.1250007E+03  0.7818608E-02  0.1235068E+00
          4   -1    0    0  501    0  0.00000000000E+00  0.00000000000E+00  0.42297516576E+02  0.42316578412E+02  0.12700000000E+01 0.  1.
         -4   -1    0    0    0  501 -0.00000000000E+00 -0.00000000000E+00 -0.92308622206E+02  0.92317358247E+02  0.12700000000E+01 0.  1.
         25    2    1    2    0    0  0.00000000000E+00  0.00000000000E+00 -0.50011105630E+02  0.13463393666E+03  0.12500074485E+03 0.  0.
    9000005    1    3    3    0    0  0.49325141698E+01  0.56916306308E+02  0.22742100092E+01  0.57183630970E+02  0.10000000000E+01 0.  0.
    9000005    1    3    3    0    0 -0.49325141698E+01 -0.56916306308E+02 -0.52285315639E+02  0.77450305689E+02  0.10000000000E+01 0.  0.
<mgrwt>
<rscale>  0 0.12500074E+03</rscale>
<asrwt>0</asrwt>
<pdfrwt beam="1">  1        4 0.65094485E-02 0.12500074E+03</pdfrwt>
<pdfrwt beam="2">  1       -4 0.14203465E-01 0.12500074E+03</pdfrwt>
<totfact> 0.10245620E+04</totfact>
</mgrwt>
</event>
<event>
 5    1  0.3309811E-002  0.1249987E+03  0.7818608E-02  0.1235071E+00
         -4   -1    0    0    0  501 -0.00000000000E+00  0.00000000000E+00  0.11121441649E+03  0.11122166756E+03  0.12700000000E+01 0. -1.
          4   -1    0    0  501    0  0.00000000000E+00 -0.00000000000E+00 -0.35102979272E+02  0.35125945593E+02  0.12700000000E+01 0. -1.
         25    2    1    2    0    0  0.00000000000E+00  0.00000000000E+00  0.76111437220E+02  0.14634761316E+03  0.12499869200E+03 0.  0.
    9000005    1    3    3    0    0  0.20580316680E+01 -0.11622418316E+02 -0.33791805664E+02  0.35807851540E+02  0.10000000000E+01 0.  0.
    9000005    1    3    3    0    0 -0.20580316680E+01  0.11622418316E+02  0.10990324288E+03  0.11053976162E+03  0.10000000000E+01 0.  0.
<mgrwt>
<rscale>  0 0.12499869E+03</rscale>
<asrwt>0</asrwt>
<pdfrwt beam="2">  1        4 0.54027829E-02 0.12499869E+03</pdfrwt>
<pdfrwt beam="1">  1       -4 0.17112234E-01 0.12499869E+03</pdfrwt>
<totfact> 0.10003974E+04</totfact>
</mgrwt>
</event>
<event>
 5    1  0.3309811E-002  0.1250557E+03  0.7818608E-02  0.1234982E+00
          4   -1    0    0  501    0  0.00000000000E+00  0.00000000000E+00  0.20138502996E+01  0.23808597248E+01  0.12700000000E+01 0.  1.
         -4   -1    0    0    0  501 -0.00000000000E+00 -0.00000000000E+00 -0.17789225736E+04  0.17789230270E+04  0.12700000000E+01 0.  1.
         25    2    1    2    0    0  0.00000000000E+00  0.00000000000E+00 -0.17769087233E+04  0.17813038867E+04  0.12505569036E+03 0.  0.
    9000005    1    3    3    0    0 -0.28566484107E+02  0.15137933067E+02 -0.12622538314E+03  0.13030367754E+03  0.10000000000E+01 0.  0.
    9000005    1    3    3    0    0  0.28566484107E+02 -0.15137933067E+02 -0.16506833402E+04  0.16510002092E+04  0.10000000000E+01 0.  0.
<mgrwt>
<rscale>  0 0.12505569E+03</rscale>
<asrwt>0</asrwt>
<pdfrwt beam="1">  1        4 0.33809091E-03 0.12505569E+03</pdfrwt>
<pdfrwt beam="2">  1       -4 0.27370751E+00 0.12505569E+03</pdfrwt>
<totfact> 0.12977997E+03</totfact>
</mgrwt>
</event>
<event>
 5    1  0.3309811E-002  0.1249953E+03  0.7818608E-02  0.1235077E+00
         -4   -1    0    0    0  501 -0.00000000000E+00  0.00000000000E+00  0.11380900851E+02  0.11451541563E+02  0.12700000000E+01 0.  1.
          4   -1    0    0  501    0  0.00000000000E+00 -0.00000000000E+00 -0.34206903460E+03  0.34207139216E+03  0.12700000000E+01 0.  1.
         25    2    1    2    0    0  0.00000000000E+00  0.00000000000E+00 -0.33068813375E+03  0.35352293372E+03  0.12499529136E+03 0.  0.
    9000005    1    3    3    0    0 -0.81558345758E+01 -0.30695993758E+01 -0.34035593853E+03  0.34046894861E+03  0.10000000000E+01 0.  0.
    9000005    1    3    3    0    0  0.81558345758E+01  0.30695993758E+01  0.96678047786E+01  0.13053985108E+02  0.10000000000E+01 0.  0.
<mgrwt>
<rscale>  0 0.12499529E+03</rscale>
<asrwt>0</asrwt>
<pdfrwt beam="2">  1        4 0.52631613E-01 0.12499529E+03</pdfrwt>
<pdfrwt beam="1">  1       -4 0.17565233E-02 0.12499529E+03</pdfrwt>
<totfact> 0.69345949E+03</totfact>
</mgrwt>
</event>
<event>
 5    1  0.3309811E-002  0.1250011E+03  0.7818608E-02  0.1235067E+00
         -4   -1    0    0    0  501 -0.00000000000E+00  0.00000000000E+00  0.79029302136E+01  0.80043242038E+01  0.12700000000E+01 0.  1.
          4   -1    0    0  501    0  0.00000000000E+00 -0.00000000000E+00 -0.49103491811E+03  0.49103656045E+03  0.12700000000E+01 0.  1.
         25    2    1    2    0    0  0.00000000000E+00  0.00000000000E+00 -0.48313198789E+03  0.49904088465E+03  0.12500114732E+03 0.  0.
    9000005    1    3    3    0    0  0.40961639007E+02  0.40258418648E+02 -0.33990329301E+03  0.34472285208E+03  0.10000000000E+01 0.  0.
    9000005    1    3    3    0    0 -0.40961639007E+02 -0.40258418648E+02 -0.14322869488E+03  0.15431803258E+03  0.10000000000E+01 0.  0.
<mgrwt>
<rscale>  0 0.12500115E+03</rscale>
<asrwt>0</asrwt>
<pdfrwt beam="2">  1        4 0.75551736E-01 0.12500115E+03</pdfrwt>
<pdfrwt beam="1">  1       -4 0.12237617E-02 0.12500115E+03</pdfrwt>
<totfact> 0.55937458E+03</totfact>
</mgrwt>
</event>
<event>
 5    1  0.3309811E-002  0.1250008E+03  0.7818608E-02  0.1235068E+00
          4   -1    0    0  501    0  0.00000000000E+00  0.00000000000E+00  0.10183315949E+02  0.10262203648E+02  0.12700000000E+01 0. -1.
         -4   -1    0    0    0  501 -0.00000000000E+00 -0.00000000000E+00 -0.38203780767E+03  0.38203991858E+03  0.12700000000E+01 0. -1.
         25    2    1    2    0    0  0.00000000000E+00  0.00000000000E+00 -0.37185449172E+03  0.39230212223E+03  0.12500076837E+03 0.  0.
    9000005    1    3    3    0    0 -0.43389341961E+02  0.28341203203E+02 -0.76332923459E+02  0.92269030550E+02  0.10000000000E+01 0.  0.
    9000005    1    3    3    0    0  0.43389341961E+02 -0.28341203203E+02 -0.29552156826E+03  0.30003309168E+03  0.10000000000E+01 0.  0.
<mgrwt>
<rscale>  0 0.12500077E+03</rscale>
<asrwt>0</asrwt>
<pdfrwt beam="1">  1        4 0.15728949E-02 0.12500077E+03</pdfrwt>
<pdfrwt beam="2">  1       -4 0.58781267E-01 0.12500077E+03</pdfrwt>
<totfact> 0.65307322E+03</totfact>
</mgrwt>
</event>
<event>
 5    1  0.3309811E-002  0.1250061E+03  0.7818608E-02  0.1235060E+00
         -4   -1    0    0    0  501 -0.00000000000E+00  0.00000000000E+00  0.26358896464E+02  0.26389473712E+02  0.12700000000E+01 0.  1.
          4   -1    0    0  501    0  0.00000000000E+00 -0.00000000000E+00 -0.14808990997E+03  0.14809535555E+03  0.12700000000E+01 0.  1.
         25    2    1    2    0    0  0.00000000000E+00  0.00000000000E+00 -0.12173101351E+03  0.17448482927E+03  0.12500606383E+03 0.  0.
    9000005    1    3    3    0    0  0.46054047353E+01  0.27175376574E+01 -0.14777683964E+03  0.14787693903E+03  0.10000000000E+01 0.  0.
    9000005    1    3    3    0    0 -0.46054047353E+01 -0.27175376574E+01  0.26045826131E+02  0.26607890231E+02  0.10000000000E+01 0.  0.
<mgrwt>
<rscale>  0 0.12500606E+03</rscale>
<asrwt>0</asrwt>
<pdfrwt beam="2">  1        4 0.22785834E-01 0.12500606E+03</pdfrwt>
<pdfrwt beam="1">  1       -4 0.40579859E-02 0.12500606E+03</pdfrwt>
<totfact> 0.94606407E+03</totfact>
</mgrwt>
</event>
<event>
 5    1  0.3309811E-002  0.1249942E+03  0.7818608E-02  0.1235078E+00
         -4   -1    0    0    0  501 -0.00000000000E+00  0.00000000000E+00  0.25300039937E+03  0.25300358690E+03  0.12700000000E+01 0. -1.
          4   -1    0    0  501    0  0.00000000000E+00 -0.00000000000E+00 -0.15408868741E+02  0.15461116903E+02  0.12700000000E+01 0. -1.
         25    2    1    2    0    0  0.00000000000E+00  0.00000000000E+00  0.23759153063E+03  0.26846470380E+03  0.12499424690E+03 0.  0.
    9000005    1    3    3    0    0 -0.14563876935E+02  0.60733391945E+02  0.12321788477E+03  0.13814593203E+03  0.10000000000E+01 0.  0.
    9000005    1    3    3    0    0  0.14563876935E+02 -0.60733391945E+02  0.11437364586E+03  0.13031877177E+03  0.10000000000E+01 0.  0.
<mgrwt>
<rscale>  0 0.12499425E+03</rscale>
<asrwt>0</asrwt>
<pdfrwt beam="2">  1        4 0.23748597E-02 0.12499425E+03</pdfrwt>
<pdfrwt beam="1">  1       -4 0.38927399E-01 0.12499425E+03</pdfrwt>
<totfact> 0.79742849E+03</totfact>
</mgrwt>
</event>
<event>
 5    1  0.3309811E-002  0.1250000E+03  0.7818608E-02  0.1235069E+00
          4   -1    0    0  501    0  0.00000000000E+00  0.00000000000E+00  0.21983250021E+02  0.22019904211E+02  0.12700000000E+01 0.  1.
         -4   -1    0    0    0  501 -0.00000000000E+00 -0.00000000000E+00 -0.17750502747E+03  0.17750957067E+03  0.12700000000E+01 0.  1.
         25    2    1    2    0    0  0.00000000000E+00  0.00000000000E+00 -0.15552177745E+03  0.19952947488E+03  0.12499995233E+03 0.  0.
    9000005    1    3    3    0    0 -0.23286513796E+02 -0.46732351595E+02 -0.13257185869E+03  0.14248674369E+03  0.10000000000E+01 0.  0.
    9000005    1    3    3    0    0  0.23286513796E+02  0.46732351595E+02 -0.22949918763E+02  0.57042731190E+02  0.10000000000E+01 0.  0.
<mgrwt>
<rscale>  0 0.12499995E+03</rscale>
<asrwt>0</asrwt>
<pdfrwt beam="1">  1        4 0.33852076E-02 0.12499995E+03</pdfrwt>
<pdfrwt beam="2">  1       -4 0.27311634E-01 0.12499995E+03</pdfrwt>
<totfact> 0.90215021E+03</totfact>
</mgrwt>
</event>
<event>
 5    1  0.3309811E-002  0.1249996E+03  0.7818608E-02  0.1235070E+00
         -4   -1    0    0    0  501 -0.00000000000E+00  0.00000000000E+00  0.11980322465E+03  0.11980995592E+03  0.12700000000E+01 0. -1.
          4   -1    0    0  501    0  0.00000000000E+00 -0.00000000000E+00 -0.32585322449E+02  0.32610061931E+02  0.12700000000E+01 0. -1.
         25    2    1    2    0    0  0.00000000000E+00  0.00000000000E+00  0.87217902201E+02  0.15242001785E+03  0.12499959750E+03 0.  0.
    9000005    1    3    3    0    0 -0.50009359762E+02  0.19739131864E+02  0.82450155710E+02  0.98435753500E+02  0.10000000000E+01 0.  0.
    9000005    1    3    3    0    0  0.50009359762E+02 -0.19739131864E+02  0.47677464913E+01  0.53984264347E+02  0.10000000000E+01 0.  0.
<mgrwt>
<rscale>  0 0.12499960E+03</rscale>
<asrwt>0</asrwt>
<pdfrwt beam="2">  1        4 0.50155473E-02 0.12499960E+03</pdfrwt>
<pdfrwt beam="1">  1       -4 0.18433686E-01 0.12499960E+03</pdfrwt>
<totfact> 0.98824368E+03</totfact>
</mgrwt>
</event>
<event>
 5    1  0.3309811E-002  0.1249930E+03  0.7818608E-02  0.1235080E+00
          4   -1    0    0  501    0  0.00000000000E+00  0.00000000000E+00  0.52026097510E+01  0.53553756377E+01  0.12700000000E+01 0. -1.
         -4   -1    0    0    0  501 -0.00000000000E+00 -0.00000000000E+00 -0.73972516975E+03  0.73972625995E+03  0.12700000000E+01 0. -1.
         25    2    1    2    0    0  0.00000000000E+00  0.00000000000E+00 -0.73452256000E+03  0.74508163559E+03  0.12499300998E+03 0.  0.
    9000005    1    3    3    0    0 -0.44951582321E+02  0.95828104203E+01 -0.11489687207E+03  0.12375284328E+03  0.10000000000E+01 0.  0.
    9000005    1    3    3    0    0  0.44951582321E+02 -0.95828104203E+01 -0.61962568793E+03  0.62132879231E+03  0.10000000000E+01 0.  0.
<mgrwt>
<rscale>  0 0.12499301E+03</rscale>
<asrwt>0</asrwt>
<pdfrwt beam="1">  1        4 0.81223717E-03 0.12499301E+03</pdfrwt>
<pdfrwt beam="2">  1       -4 0.11381563E+00 0.12499301E+03</pdfrwt>
<totfact> 0.40816755E+03</totfact>
</mgrwt>
</event>
<event>
 5    1  0.3309811E-002  0.1249985E+03  0.7818608E-02  0.1235072E+00
          4   -1    0    0  501    0  0.00000000000E+00  0.00000000000E+00  0.67075995862E+01  0.68267702619E+01  0.12700000000E+01 0. -1.
         -4   -1    0    0    0  501 -0.00000000000E+00 -0.00000000000E+00 -0.57710043786E+03  0.57710183528E+03  0.12700000000E+01 0. -1.
         25    2    1    2    0    0  0.00000000000E+00  0.00000000000E+00 -0.57039283828E+03  0.58392860554E+03  0.12499850563E+03 0.  0.
    9000005    1    3    3    0    0 -0.50401387550E+02 -0.36838650950E+02 -0.29821849745E+03  0.30468452257E+03  0.10000000000E+01 0.  0.
    9000005    1    3    3    0    0  0.50401387550E+02  0.36838650950E+02 -0.27217434083E+03  0.27924408297E+03  0.10000000000E+01 0.  0.
<mgrwt>
<rscale>  0 0.12499851E+03</rscale>
<asrwt>0</asrwt>
<pdfrwt beam="1">  1        4 0.10412133E-02 0.12499851E+03</pdfrwt>
<pdfrwt beam="2">  1       -4 0.88793919E-01 0.12499851E+03</pdfrwt>
<totfact> 0.49899707E+03</totfact>
</mgrwt>
</event>
<event>
 5    1  0.3309811E-002  0.1250001E+03  0.7818608E-02  0.1235069E+00
          4   -1    0    0  501    0  0.00000000000E+00  0.00000000000E+00  0.47255319028E+02  0.47272381751E+02  0.12700000000E+01 0.  1.
         -4   -1    0    0    0  501 -0.00000000000E+00 -0.00000000000E+00 -0.82625931594E+02  0.82635691271E+02  0.12700000000E+01 0.  1.
         25    2    1    2    0    0  0.00000000000E+00  0.00000000000E+00 -0.35370612566E+02  0.12990807302E+03  0.12500010881E+03 0.  0.
    9000005    1    3    3    0    0 -0.17855597118E+02  0.57978252875E+02 -0.20978530432E+01  0.60709975641E+02  0.10000000000E+01 0.  0.
    9000005    1    3    3    0    0  0.17855597118E+02 -0.57978252875E+02 -0.33272759523E+02  0.69198097381E+02  0.10000000000E+01 0.  0.
<mgrwt>
<rscale>  0 0.12500011E+03</rscale>
<asrwt>0</asrwt>
<pdfrwt beam="1">  1        4 0.72721124E-02 0.12500011E+03</pdfrwt>
<pdfrwt beam="2">  1       -4 0.12713745E-01 0.12500011E+03</pdfrwt>
<totfact> 0.10346449E+04</totfact>
</mgrwt>
</event>
<event>
 5    1  0.3309811E-002  0.1249988E+03  0.7818608E-02  0.1235071E+00
         -4   -1    0    0    0  501 -0.00000000000E+00  0.00000000000E+00  0.59035089684E+01  0.60385692130E+01  0.12700000000E+01 0.  1.
          4   -1    0    0  501    0  0.00000000000E+00 -0.00000000000E+00 -0.65405154097E+03  0.65405277398E+03  0.12700000000E+01 0.  1.
         25    2    1    2    0    0  0.00000000000E+00  0.00000000000E+00 -0.64814803200E+03  0.66009134319E+03  0.12499883986E+03 0.  0.
    9000005    1    3    3    0    0  0.36713281340E+00  0.16883073732E+02 -0.64179991101E+03  0.64202281792E+03  0.10000000000E+01 0.  0.
    9000005    1    3    3    0    0 -0.36713281340E+00 -0.16883073732E+02 -0.63481209960E+01  0.18068525267E+02  0.10000000000E+01 0.  0.
<mgrwt>
<rscale>  0 0.12499884E+03</rscale>
<asrwt>0</asrwt>
<pdfrwt beam="2">  1        4 0.10063374E+00 0.12499884E+03</pdfrwt>
<pdfrwt beam="1">  1       -4 0.91871676E-03 0.12499884E+03</pdfrwt>
<totfact> 0.45279809E+03</totfact>
</mgrwt>
</event>
<event>
 5    1  0.3309811E-002  0.1250021E+03  0.7818608E-02  0.1235066E+00
         -4   -1    0    0    0  501 -0.00000000000E+00  0.00000000000E+00  0.14673392744E+03  0.14673942334E+03  0.12700000000E+01 0. -1.
          4   -1    0    0  501    0  0.00000000000E+00 -0.00000000000E+00 -0.26601066306E+02  0.26631365504E+02  0.12700000000E+01 0. -1.
         25    2    1    2    0    0  0.00000000000E+00  0.00000000000E+00  0.12013286114E+03  0.17337078884E+03  0.12500210438E+03 0.  0.
    9000005    1    3    3    0    0 -0.52554628813E+01 -0.60121005006E+02  0.37564316788E+02  0.71093129266E+02  0.10000000000E+01 0.  0.
    9000005    1    3    3    0    0  0.52554628813E+01  0.60121005006E+02  0.82568544348E+02  0.10227765958E+03  0.10000000000E+01 0.  0.
<mgrwt>
<rscale>  0 0.12500210E+03</rscale>
<asrwt>0</asrwt>
<pdfrwt beam="2">  1        4 0.40952251E-02 0.12500210E+03</pdfrwt>
<pdfrwt beam="1">  1       -4 0.22577204E-01 0.12500210E+03</pdfrwt>
<totfact> 0.94819599E+03</totfact>
</mgrwt>
</event>
<event>
 5    1  0.3309811E-002  0.1249824E+03  0.7818608E-02  0.1235097E+00
         -4   -1    0    0    0  501 -0.00000000000E+00  0.00000000000E+00  0.19141417263E+02  0.19183502152E+02  0.12700000000E+01 0.  1.
          4   -1    0    0  501    0  0.00000000000E+00 -0.00000000000E+00 -0.20374751620E+03  0.20375147425E+03  0.12700000000E+01 0.  1.
         25    2    1    2    0    0  0.00000000000E+00  0.00000000000E+00 -0.18460609894E+03  0.22293497640E+03  0.12498236651E+03 0.  0.
    9000005    1    3    3    0    0  0.41441280057E+02  0.39608151715E+02 -0.13664456841E+03  0.14818543603E+03  0.10000000000E+01 0.  0.
    9000005    1    3    3    0    0 -0.41441280057E+02 -0.39608151715E+02 -0.47961530525E+02  0.74749540369E+02  0.10000000000E+01 0.  0.
<mgrwt>
<rscale>  0 0.12498237E+03</rscale>
<asrwt>0</asrwt>
<pdfrwt beam="2">  1        4 0.31349312E-01 0.12498237E+03</pdfrwt>
<pdfrwt beam="1">  1       -4 0.29483753E-02 0.12498237E+03</pdfrwt>
<totfact> 0.86440082E+03</totfact>
</mgrwt>
</event>
<event>
 5    1  0.3309811E-002  0.1250164E+03  0.7818608E-02  0.1235044E+00
          4   -1    0    0  501    0  0.00000000000E+00  0.00000000000E+00  0.44245681084E+02  0.44263903970E+02  0.12700000000E+01 0.  1.
         -4   -1    0    0    0  501 -0.00000000000E+00 -0.00000000000E+00 -0.88267694837E+02  0.88276830776E+02  0.12700000000E+01 0.  1.
         25    2    1    2    0    0  0.00000000000E+00  0.00000000000E+00 -0.44022013753E+02  0.13254073475E+03  0.12501643361E+03 0.  0.
    9000005    1    3    3    0    0 -0.49749045082E+02  0.24973861928E+02  0.81179918546E+01  0.56263336711E+02  0.10000000000E+01 0.  0.
    9000005    1    3    3    0    0  0.49749045082E+02 -0.24973861928E+02 -0.52140005607E+02  0.76277398034E+02  0.10000000000E+01 0.  0.
<mgrwt>
<rscale>  0 0.12501643E+03</rscale>
<asrwt>0</asrwt>
<pdfrwt beam="1">  1        4 0.68091324E-02 0.12501643E+03</pdfrwt>
<pdfrwt beam="2">  1       -4 0.13581750E-01 0.12501643E+03</pdfrwt>
<totfact> 0.10286357E+04</totfact>
</mgrwt>
</event>
<event>
 5    1  0.3309811E-002  0.1250015E+03  0.7818608E-02  0.1235067E+00
         -4   -1    0    0    0  501 -0.00000000000E+00  0.00000000000E+00  0.72500279844E+01  0.73604215759E+01  0.12700000000E+01 0. -1.
          4   -1    0    0  501    0  0.00000000000E+00 -0.00000000000E+00 -0.53462186120E+03  0.53462336965E+03  0.12700000000E+01 0. -1.
         25    2    1    2    0    0  0.00000000000E+00  0.00000000000E+00 -0.52737183321E+03  0.54198379122E+03  0.12500151791E+03 0.  0.
    9000005    1    3    3    0    0  0.14620231428E+02 -0.60150111495E+02 -0.22649941287E+03  0.23480794516E+03  0.10000000000E+01 0.  0.
    9000005    1    3    3    0    0 -0.14620231428E+02  0.60150111495E+02 -0.30087242034E+03  0.30717584606E+03  0.10000000000E+01 0.  0.
<mgrwt>
<rscale>  0 0.12500152E+03</rscale>
<asrwt>0</asrwt>
<pdfrwt beam="2">  1        4 0.82258094E-01 0.12500152E+03</pdfrwt>
<pdfrwt beam="1">  1       -4 0.11239972E-02 0.12500152E+03</pdfrwt>
<totfact> 0.52746251E+03</totfact>
</mgrwt>
</event>
<event>
 5    1  0.3309811E-002  0.1250206E+03  0.7818608E-02  0.1235037E+00
         -4   -1    0    0    0  501 -0.00000000000E+00  0.00000000000E+00  0.12225080018E+04  0.12225086615E+04  0.12700000000E+01 0. -1.
          4   -1    0    0  501    0  0.00000000000E+00 -0.00000000000E+00 -0.30694913469E+01  0.33218484506E+01  0.12700000000E+01 0. -1.
         25    2    1    2    0    0  0.00000000000E+00  0.00000000000E+00  0.12194385104E+04  0.12258305099E+04  0.12502063139E+03 0.  0.
    9000005    1    3    3    0    0  0.16672097472E+02  0.59299497365E+02  0.50588299270E+03  0.50962043868E+03  0.10000000000E+01 0.  0.
    9000005    1    3    3    0    0 -0.16672097472E+02 -0.59299497365E+02  0.71355551775E+03  0.71621007123E+03  0.10000000000E+01 0.  0.
<mgrwt>
<rscale>  0 0.12502063E+03</rscale>
<asrwt>0</asrwt>
<pdfrwt beam="2">  1        4 0.49169155E-03 0.12502063E+03</pdfrwt>
<pdfrwt beam="1">  1       -4 0.18809789E+00 0.12502063E+03</pdfrwt>
<totfact> 0.24035615E+03</totfact>
</mgrwt>
</event>
<event>
 5    1  0.3309811E-002  0.1249432E+03  0.7818608E-02  0.1235158E+00
          4   -1    0    0  501    0  0.00000000000E+00  0.00000000000E+00  0.24477868045E+03  0.24478197503E+03  0.12700000000E+01 0.  1.
         -4   -1    0    0    0  501 -0.00000000000E+00 -0.00000000000E+00 -0.15915083452E+02  0.15965675097E+02  0.12700000000E+01 0.  1.
         25    2    1    2    0    0  0.00000000000E+00  0.00000000000E+00  0.22886359700E+03  0.26074765013E+03  0.12494315115E+03 0.  0.
    9000005    1    3    3    0    0  0.14194234055E+01 -0.48888163240E+02  0.19551731309E+03  0.20154425565E+03  0.10000000000E+01 0.  0.
    9000005    1    3    3    0    0 -0.14194234055E+01  0.48888163240E+02  0.33346283907E+02  0.59203394482E+02  0.10000000000E+01 0.  0.
<mgrwt>
<rscale>  0 0.12494315E+03</rscale>
<asrwt>0</asrwt>
<pdfrwt beam="1">  1        4 0.37662402E-01 0.12494315E+03</pdfrwt>
<pdfrwt beam="2">  1       -4 0.24526196E-02 0.12494315E+03</pdfrwt>
<totfact> 0.80903583E+03</totfact>
</mgrwt>
</event>
<event>
 5    1  0.3309811E-002  0.1250003E+03  0.7818608E-02  0.1235069E+00
         -4   -1    0    0    0  501 -0.00000000000E+00  0.00000000000E+00  0.24474903085E+03  0.24475232583E+03  0.12700000000E+01 0. -1.
          4   -1    0    0  501    0  0.00000000000E+00 -0.00000000000E+00 -0.15931625390E+02  0.15982164671E+02  0.12700000000E+01 0. -1.
         25    2    1    2    0    0  0.00000000000E+00  0.00000000000E+00  0.22881740546E+03  0.26073449051E+03  0.12500027799E+03 0.  0.
    9000005    1    3    3    0    0  0.26551280749E+02  0.56557545915E+02  0.11181947754E+03  0.12809497284E+03  0.10000000000E+01 0.  0.
    9000005    1    3    3    0    0 -0.26551280749E+02 -0.56557545915E+02  0.11699792792E+03  0.13263951766E+03  0.10000000000E+01 0.  0.
<mgrwt>
<rscale>  0 0.12500028E+03</rscale>
<asrwt>0</asrwt>
<pdfrwt beam="2">  1        4 0.24551606E-02 0.12500028E+03</pdfrwt>
<pdfrwt beam="1">  1       -4 0.37657835E-01 0.12500028E+03</pdfrwt>
<totfact> 0.80802598E+03</totfact>
</mgrwt>
</event>
<event>
 5    1  0.3309811E-002  0.1250045E+03  0.7818608E-02  0.1235062E+00
         -4   -1    0    0    0  501 -0.00000000000E+00  0.00000000000E+00  0.35551128454E+01  0.37751460029E+01  0.12700000000E+01 0.  1.
          4   -1    0    0  501    0  0.00000000000E+00 -0.00000000000E+00 -0.10656445326E+04  0.10656452893E+04  0.12700000000E+01 0.  1.
         25    2    1    2    0    0  0.00000000000E+00  0.00000000000E+00 -0.10620894197E+04  0.10694204353E+04  0.12500452809E+03 0.  0.
    9000005    1    3    3    0    0  0.52949357116E+02 -0.21366477401E+02 -0.31371061013E+03  0.31886597135E+03  0.10000000000E+01 0.  0.
    9000005    1    3    3    0    0 -0.52949357116E+02  0.21366477401E+02 -0.74837880960E+03  0.75055446400E+03  0.10000000000E+01 0.  0.
<mgrwt>
<rscale>  0 0.12500453E+03</rscale>
<asrwt>0</asrwt>
<pdfrwt beam="2">  1        4 0.16396205E+00 0.12500453E+03</pdfrwt>
<pdfrwt beam="1">  1       -4 0.56392513E-03 0.12500453E+03</pdfrwt>
<totfact> 0.28393299E+03</totfact>
</mgrwt>
</event>
<event>
 5    1  0.3309811E-002  0.1250000E+03  0.7818608E-02  0.1235069E+00
          4   -1    0    0  501    0  0.00000000000E+00  0.00000000000E+00  0.26501652248E+01  0.29387541100E+01  0.12700000000E+01 0.  1.
         -4   -1    0    0    0  501 -0.00000000000E+00 -0.00000000000E+00 -0.13975671829E+04  0.13975677599E+04  0.12700000000E+01 0.  1.
         25    2    1    2    0    0  0.00000000000E+00  0.00000000000E+00 -0.13949170177E+04  0.14005065140E+04  0.12500003877E+03 0.  0.
    9000005    1    3    3    0    0 -0.22374483566E+02  0.39398103662E+02 -0.21523850255E+03  0.21995781656E+03  0.10000000000E+01 0.  0.
    9000005    1    3    3    0    0  0.22374483566E+02 -0.39398103662E+02 -0.11796785151E+04  0.11805486975E+04  0.10000000000E+01 0.  0.
<mgrwt>
<rscale>  0 0.12500004E+03</rscale>
<asrwt>0</asrwt>
<pdfrwt beam="1">  1        4 0.42996237E-03 0.12500004E+03</pdfrwt>
<pdfrwt beam="2">  1       -4 0.21503202E+00 0.12500004E+03</pdfrwt>
<totfact> 0.19970119E+03</totfact>
</mgrwt>
</event>
<event>
 5    1  0.3309811E-002  0.1249967E+03  0.7818608E-02  0.1235074E+00
         -4   -1    0    0    0  501 -0.00000000000E+00  0.00000000000E+00  0.10849834425E+03  0.10850577683E+03  0.12700000000E+01 0.  1.
          4   -1    0    0  501    0  0.00000000000E+00 -0.00000000000E+00 -0.35981084471E+02  0.36003490660E+02  0.12700000000E+01 0.  1.
         25    2    1    2    0    0  0.00000000000E+00  0.00000000000E+00  0.72517259779E+02  0.14450926749E+03  0.12499670165E+03 0.  0.
    9000005    1    3    3    0    0 -0.29987516579E+02 -0.64676498362E+01  0.99199606541E+02  0.10383950878E+03  0.10000000000E+01 0.  0.
    9000005    1    3    3    0    0  0.29987516579E+02  0.64676498362E+01 -0.26682346762E+02  0.40669758712E+02  0.10000000000E+01 0.  0.
<mgrwt>
<rscale>  0 0.12499670E+03</rscale>
<asrwt>0</asrwt>
<pdfrwt beam="2">  1        4 0.55378469E-02 0.12499670E+03</pdfrwt>
<pdfrwt beam="1">  1       -4 0.16694348E-01 0.12499670E+03</pdfrwt>
<totfact> 0.10041714E+04</totfact>
</mgrwt>
</event>
<event>
 5    1  0.3309811E-002  0.1250066E+03  0.7818608E-02  0.1235059E+00
          4   -1    0    0  501    0  0.00000000000E+00  0.00000000000E+00  0.60478706650E+02  0.60492039626E+02  0.12700000000E+01 0. -1.
         -4   -1    0    0    0  501 -0.00000000000E+00 -0.00000000000E+00 -0.64568954351E+02  0.64581442892E+02  0.12700000000E+01 0. -1.
         25    2    1    2    0    0  0.00000000000E+00  0.00000000000E+00 -0.40902477007E+01  0.12507348252E+03  0.12500658344E+03 0.  0.
    9000005    1    3    3    0    0  0.58534376020E+02  0.21303568891E+02  0.30119110888E+01  0.62371362274E+02  0.10000000000E+01 0.  0.
    9000005    1    3    3    0    0 -0.58534376020E+02 -0.21303568891E+02 -0.71021587895E+01  0.62702120244E+02  0.10000000000E+01 0.  0.
<mgrwt>
<rscale>  0 0.12500658E+03</rscale>
<asrwt>0</asrwt>
<pdfrwt beam="1">  1        4 0.93064027E-02 0.12500658E+03</pdfrwt>
<pdfrwt beam="2">  1       -4 0.99356716E-02 0.12500658E+03</pdfrwt>
<totfact> 0.10449712E+04</totfact>
</mgrwt>
</event>
<event>
 5    1  0.3309811E-002  0.1250026E+03  0.7818608E-02  0.1235065E+00
         -4   -1    0    0    0  501 -0.00000000000E+00  0.00000000000E+00  0.10936235727E+03  0.10936973113E+03  0.12700000000E+01 0.  1.
          4   -1    0    0  501    0  0.00000000000E+00 -0.00000000000E+00 -0.35700029568E+02  0.35722612043E+02  0.12700000000E+01 0.  1.
         25    2    1    2    0    0  0.00000000000E+00  0.00000000000E+00  0.73662327701E+02  0.14509234317E+03  0.12500259807E+03 0.  0.
    9000005    1    3    3    0    0  0.59416803533E+02  0.19122725935E+02  0.33276800202E+02  0.70741647005E+02  0.10000000000E+01 0.  0.
    9000005    1    3    3    0    0 -0.59416803533E+02 -0.19122725935E+02  0.40385527499E+02  0.74350696168E+02  0.10000000000E+01 0.  0.
<mgrwt>
<rscale>  0 0.12500260E+03</rscale>
<asrwt>0</asrwt>
<pdfrwt beam="2">  1        4 0.54946166E-02 0.12500260E+03</pdfrwt>
<pdfrwt beam="1">  1       -4 0.16827282E-01 0.12500260E+03</pdfrwt>
<totfact> 0.10028526E+04</totfact>
</mgrwt>
</event>
<event>
 5    1  0.3309811E-002  0.1250041E+03  0.7818608E-02  0.1235063E+00
         -4   -1    0    0    0  501 -0.00000000000E+00  0.00000000000E+00  0.60357619578E+02  0.60370979296E+02  0.12700000000E+01 0.  1.
          4   -1    0    0  501    0  0.00000000000E+00 -0.00000000000E+00 -0.64695899614E+02  0.64708363655E+02  0.12700000000E+01 0.  1.
         25    2    1    2    0    0  0.00000000000E+00  0.00000000000E+00 -0.43382800361E+01  0.12507934295E+03  0.12500408537E+03 0.  0.
    9000005    1    3    3    0    0 -0.19919158909E+02 -0.41837187176E+02 -0.44127453747E+02  0.63994963057E+02  0.10000000000E+01 0.  0.
    9000005    1    3    3    0    0  0.19919158909E+02  0.41837187176E+02  0.39789173711E+02  0.61084379894E+02  0.10000000000E+01 0.  0.
<mgrwt>
<rscale>  0 0.12500409E+03</rscale>
<asrwt>0</asrwt>
<pdfrwt beam="2">  1        4 0.99552017E-02 0.12500409E+03</pdfrwt>
<pdfrwt beam="1">  1       -4 0.92877741E-02 0.12500409E+03</pdfrwt>
<totfact> 0.10450175E+04</totfact>
</mgrwt>
</event>
<event>
 5    1  0.3309811E-002  0.1249997E+03  0.7818608E-02  0.1235070E+00
          4   -1    0    0  501    0  0.00000000000E+00  0.00000000000E+00  0.64411105106E+01  0.65651203043E+01  0.12700000000E+01 0.  1.
         -4   -1    0    0    0  501 -0.00000000000E+00 -0.00000000000E+00 -0.60054566356E+03  0.60054700642E+03  0.12700000000E+01 0.  1.
         25    2    1    2    0    0  0.00000000000E+00  0.00000000000E+00 -0.59410455305E+03  0.60711212672E+03  0.12499965785E+03 0.  0.
    9000005    1    3    3    0    0  0.35605224125E+01 -0.60783853089E+02 -0.22873115325E+03  0.23669874225E+03  0.10000000000E+01 0.  0.
    9000005    1    3    3    0    0 -0.35605224125E+01  0.60783853089E+02 -0.36537339980E+03  0.37041338447E+03  0.10000000000E+01 0.  0.
<mgrwt>
<rscale>  0 0.12499966E+03</rscale>
<asrwt>0</asrwt>
<pdfrwt beam="1">  1        4 0.10005831E-02 0.12499966E+03</pdfrwt>
<pdfrwt beam="2">  1       -4 0.92401239E-01 0.12499966E+03</pdfrwt>
<totfact> 0.48422108E+03</totfact>
</mgrwt>
</event>
<event>
 5    1  0.3309811E-002  0.1250003E+03  0.7818608E-02  0.1235069E+00
          4   -1    0    0  501    0  0.00000000000E+00  0.00000000000E+00  0.72314855041E+01  0.73421578977E+01  0.12700000000E+01 0.  1.
         -4   -1    0    0    0  501 -0.00000000000E+00 -0.00000000000E+00 -0.53596170166E+03  0.53596320634E+03  0.12700000000E+01 0.  1.
         25    2    1    2    0    0  0.00000000000E+00  0.00000000000E+00 -0.52873021616E+03  0.54330536424E+03  0.12500030932E+03 0.  0.
    9000005    1    3    3    0    0  0.16188413154E+02 -0.44171309444E+02 -0.85573997364E+02  0.97657966000E+02  0.10000000000E+01 0.  0.
    9000005    1    3    3    0    0 -0.16188413154E+02  0.44171309444E+02 -0.44315621880E+03  0.44564739824E+03  0.10000000000E+01 0.  0.
<mgrwt>
<rscale>  0 0.12500031E+03</rscale>
<asrwt>0</asrwt>
<pdfrwt beam="1">  1        4 0.11211657E-02 0.12500031E+03</pdfrwt>
<pdfrwt beam="2">  1       -4 0.82464244E-01 0.12500031E+03</pdfrwt>
<totfact> 0.52653940E+03</totfact>
</mgrwt>
</event>
<event>
 4    1  0.3309811E-002  0.1249014E+03  0.7818608E-02  0.1235224E+00
          4   -1    0    0  501    0  0.00000000000E+00  0.00000000000E+00  0.44506995204E+03  0.44507176400E+03  0.12700000000E+01 0.  1.
         -4   -1    0    0    0  501 -0.00000000000E+00 -0.00000000000E+00 -0.87150101797E+01  0.88070598064E+01  0.12700000000E+01 0.  1.
    9000005    1    1    2    0    0 -0.40440273498E+02  0.46570263908E+02  0.18278049685E+03  0.19290908540E+03  0.10000000000E+01 0.  0.
    9000005    1    1    2    0    0  0.40440273498E+02 -0.46570263908E+02  0.25357444501E+03  0.26096973840E+03  0.10000000000E+01 0.  0.
<mgrwt>
<rscale>  0 0.12490137E+03</rscale>
<asrwt>0</asrwt>
<pdfrwt beam="1">  1        4 0.68479519E-01 0.12490137E+03</pdfrwt>
<pdfrwt beam="2">  1       -4 0.13479909E-02 0.12490137E+03</pdfrwt>
<totfact> 0.59758956E+03</totfact>
</mgrwt>
</event>
<event>
 5    1  0.3309811E-002  0.1250005E+03  0.7818608E-02  0.1235068E+00
         -4   -1    0    0    0  501 -0.00000000000E+00  0.00000000000E+00  0.23569904730E+03  0.23570246880E+03  0.12700000000E+01 0.  1.
          4   -1    0    0  501    0  0.00000000000E+00 -0.00000000000E+00 -0.16545306931E+02  0.16593977264E+02  0.12700000000E+01 0.  1.
         25    2    1    2    0    0  0.00000000000E+00  0.00000000000E+00  0.21915374037E+03  0.25229644607E+03  0.12500053911E+03 0.  0.
    9000005    1    3    3    0    0  0.57243188589E+01  0.28017016997E+02 -0.25751586934E+01  0.28728948990E+02  0.10000000000E+01 0.  0.
    9000005    1    3    3    0    0 -0.57243188589E+01 -0.28017016997E+02  0.22172889907E+03  0.22356749708E+03  0.10000000000E+01 0.  0.
<mgrwt>
<rscale>  0 0.12500054E+03</rscale>
<asrwt>0</asrwt>
<pdfrwt beam="2">  1        4 0.25494391E-02 0.12500054E+03</pdfrwt>
<pdfrwt beam="1">  1       -4 0.36265397E-01 0.12500054E+03</pdfrwt>
<totfact> 0.81998465E+03</totfact>
</mgrwt>
</event>
<event>
 5    1  0.3309811E-002  0.1250081E+03  0.7818608E-02  0.1235057E+00
         -4   -1    0    0    0  501 -0.00000000000E+00  0.00000000000E+00  0.16474227001E+03  0.16474716516E+03  0.12700000000E+01 0.  1.
          4   -1    0    0  501    0  0.00000000000E+00 -0.00000000000E+00 -0.23692092220E+02  0.23726106587E+02  0.12700000000E+01 0.  1.
         25    2    1    2    0    0  0.00000000000E+00  0.00000000000E+00  0.14105017779E+03  0.18847327175E+03  0.12500808577E+03 0.  0.
    9000005    1    3    3    0    0 -0.23832048770E+00  0.57613806117E+02  0.10703319979E+03  0.12155868257E+03  0.10000000000E+01 0.  0.
    9000005    1    3    3    0    0  0.23832048770E+00 -0.57613806117E+02  0.34016978003E+02  0.66914589175E+02  0.10000000000E+01 0.  0.
<mgrwt>
<rscale>  0 0.12500809E+03</rscale>
<asrwt>0</asrwt>
<pdfrwt beam="2">  1        4 0.36479302E-02 0.12500809E+03</pdfrwt>
<pdfrwt beam="1">  1       -4 0.25347958E-01 0.12500809E+03</pdfrwt>
<totfact> 0.92096956E+03</totfact>
</mgrwt>
</event>
<event>
 5    1  0.3309811E-002  0.1250046E+03  0.7818608E-02  0.1235062E+00
          4   -1    0    0  501    0  0.00000000000E+00  0.00000000000E+00  0.24445529078E+03  0.24445858972E+03  0.12700000000E+01 0. -1.
         -4   -1    0    0    0  501 -0.00000000000E+00 -0.00000000000E+00 -0.15951925371E+02  0.16002400540E+02  0.12700000000E+01 0. -1.
         25    2    1    2    0    0  0.00000000000E+00  0.00000000000E+00  0.22850336541E+03  0.26046099026E+03  0.12500455770E+03 0.  0.
    9000005    1    3    3    0    0  0.11789008547E+02  0.24405102542E+02 -0.30788930187E+01  0.27295958215E+02  0.10000000000E+01 0.  0.
    9000005    1    3    3    0    0 -0.11789008547E+02 -0.24405102542E+02  0.23158225842E+03  0.23316503205E+03  0.10000000000E+01 0.  0.
<mgrwt>
<rscale>  0 0.12500456E+03</rscale>
<asrwt>0</asrwt>
<pdfrwt beam="1">  1        4 0.37612642E-01 0.12500456E+03</pdfrwt>
<pdfrwt beam="2">  1       -4 0.24582789E-02 0.12500456E+03</pdfrwt>
<totfact> 0.80833209E+03</totfact>
</mgrwt>
</event>
<event>
 5    1  0.3309811E-002  0.1249993E+03  0.7818608E-02  0.1235070E+00
          4   -1    0    0  501    0  0.00000000000E+00  0.00000000000E+00  0.19334697206E+02  0.19376362302E+02  0.12700000000E+01 0.  1.
         -4   -1    0    0    0  501 -0.00000000000E+00 -0.00000000000E+00 -0.20176979819E+03  0.20177379503E+03  0.12700000000E+01 0.  1.
         25    2    1    2    0    0  0.00000000000E+00  0.00000000000E+00 -0.18243510098E+03  0.22115015733E+03  0.12499930407E+03 0.  0.
    9000005    1    3    3    0    0  0.65581292742E+01  0.58090822450E+02 -0.13028683522E+03  0.14280480435E+03  0.10000000000E+01 0.  0.
    9000005    1    3    3    0    0 -0.65581292742E+01 -0.58090822450E+02 -0.52148265762E+02  0.78345352986E+02  0.10000000000E+01 0.  0.
<mgrwt>
<rscale>  0 0.12499930E+03</rscale>
<asrwt>0</asrwt>
<pdfrwt beam="1">  1        4 0.29780814E-02 0.12499930E+03</pdfrwt>
<pdfrwt beam="2">  1       -4 0.31045018E-01 0.12499930E+03</pdfrwt>
<totfact> 0.86688027E+03</totfact>
</mgrwt>
</event>
<event>
 5    1  0.3309811E-002  0.1250017E+03  0.7818608E-02  0.1235067E+00
         -4   -1    0    0    0  501 -0.00000000000E+00  0.00000000000E+00  0.41407236377E+01  0.43311075078E+01  0.12700000000E+01 0.  1.
          4   -1    0    0  501    0  0.00000000000E+00 -0.00000000000E+00 -0.92200815869E+03  0.92200903336E+03  0.12700000000E+01 0.  1.
         25    2    1    2    0    0  0.00000000000E+00  0.00000000000E+00 -0.91786743506E+03  0.92634014087E+03  0.12500171298E+03 0.  0.
    9000005    1    3    3    0    0  0.70191951277E+01  0.46085045254E+02 -0.15050086731E+03  0.15755827988E+03  0.10000000000E+01 0.  0.
    9000005    1    3    3    0    0 -0.70191951277E+01 -0.46085045254E+02 -0.76736656775E+03  0.76878186099E+03  0.10000000000E+01 0.  0.
<mgrwt>
<rscale>  0 0.12500171E+03</rscale>
<asrwt>0</asrwt>
<pdfrwt beam="2">  1        4 0.14186196E+00 0.12500171E+03</pdfrwt>
<pdfrwt beam="1">  1       -4 0.65174734E-03 0.12500171E+03</pdfrwt>
<totfact> 0.33169955E+03</totfact>
</mgrwt>
</event>
<event>
 5    1  0.3309811E-002  0.1249960E+03  0.7818608E-02  0.1235076E+00
          4   -1    0    0  501    0  0.00000000000E+00  0.00000000000E+00  0.55834959038E+03  0.55835103472E+03  0.12700000000E+01 0.  1.
         -4   -1    0    0    0  501 -0.00000000000E+00 -0.00000000000E+00 -0.69365125370E+01  0.70518158070E+01  0.12700000000E+01 0.  1.
         25    2    1    2    0    0  0.00000000000E+00  0.00000000000E+00  0.55141307784E+03  0.56540285053E+03  0.12499600383E+03 0.  0.
    9000005    1    3    3    0    0  0.17094515333E+02  0.46938446699E+02  0.10588074635E+03  0.11707763527E+03  0.10000000000E+01 0.  0.
    9000005    1    3    3    0    0 -0.17094515333E+02 -0.46938446699E+02  0.44553233149E+03  0.44832521525E+03  0.10000000000E+01 0.  0.
<mgrwt>
<rscale>  0 0.12499600E+03</rscale>
<asrwt>0</asrwt>
<pdfrwt beam="1">  1        4 0.85908899E-01 0.12499600E+03</pdfrwt>
<pdfrwt beam="2">  1       -4 0.10761366E-02 0.12499600E+03</pdfrwt>
<totfact> 0.51131427E+03</totfact>
</mgrwt>
</event>
<event>
 5    1  0.3309811E-002  0.1250016E+03  0.7818608E-02  0.1235067E+00
          4   -1    0    0  501    0  0.00000000000E+00  0.00000000000E+00  0.29587239067E+02  0.29614483207E+02  0.12700000000E+01 0. -1.
         -4   -1    0    0    0  501 -0.00000000000E+00 -0.00000000000E+00 -0.13193720190E+03  0.13194331413E+03  0.12700000000E+01 0. -1.
         25    2    1    2    0    0  0.00000000000E+00  0.00000000000E+00 -0.10234996283E+03  0.16155779734E+03  0.12500162795E+03 0.  0.
    9000005    1    3    3    0    0 -0.76548715578E+01 -0.45973918594E+02 -0.10498098899E+03  0.11486603631E+03  0.10000000000E+01 0.  0.
    9000005    1    3    3    0    0  0.76548715578E+01  0.45973918594E+02  0.26310261541E+01  0.46691761030E+02  0.10000000000E+01 0.  0.
<mgrwt>
<rscale>  0 0.12500163E+03</rscale>
<asrwt>0</asrwt>
<pdfrwt beam="1">  1        4 0.45544489E-02 0.12500163E+03</pdfrwt>
<pdfrwt beam="2">  1       -4 0.20300597E-01 0.12500163E+03</pdfrwt>
<totfact> 0.97039742E+03</totfact>
</mgrwt>
</event>
<event>
 5    1  0.3309811E-002  0.1250093E+03  0.7818608E-02  0.1235055E+00
         -4   -1    0    0    0  501 -0.00000000000E+00  0.00000000000E+00  0.20644007754E+02  0.20683035467E+02  0.12700000000E+01 0.  1.
          4   -1    0    0  501    0  0.00000000000E+00 -0.00000000000E+00 -0.18902768213E+03  0.18903194839E+03  0.12700000000E+01 0.  1.
         25    2    1    2    0    0  0.00000000000E+00  0.00000000000E+00 -0.16838367438E+03  0.20971498385E+03  0.12500925029E+03 0.  0.
    9000005    1    3    3    0    0  0.11270161733E+02  0.22476428339E+02 -0.18017643777E+03  0.18192513598E+03  0.10000000000E+01 0.  0.
    9000005    1    3    3    0    0 -0.11270161733E+02 -0.22476428339E+02  0.11792763391E+02  0.27789847872E+02  0.10000000000E+01 0.  0.
<mgrwt>
<rscale>  0 0.12500925E+03</rscale>
<asrwt>0</asrwt>
<pdfrwt beam="2">  1        4 0.29084511E-01 0.12500925E+03</pdfrwt>
<pdfrwt beam="1">  1       -4 0.31793316E-02 0.12500925E+03</pdfrwt>
<totfact> 0.88504145E+03</totfact>
</mgrwt>
</event>
<event>
 5    1  0.3309811E-002  0.1249989E+03  0.7818608E-02  0.1235071E+00
         -4   -1    0    0    0  501 -0.00000000000E+00  0.00000000000E+00  0.15323725165E+03  0.15324251432E+03  0.12700000000E+01 0.  1.
          4   -1    0    0  501    0  0.00000000000E+00 -0.00000000000E+00 -0.25469561787E+02  0.25501205415E+02  0.12700000000E+01 0.  1.
         25    2    1    2    0    0  0.00000000000E+00  0.00000000000E+00  0.12776768987E+03  0.17874371973E+03  0.12499893907E+03 0.  0.
    9000005    1    3    3    0    0 -0.60194167526E+02  0.11313377284E+02  0.81620756037E+02  0.10205037053E+03  0.10000000000E+01 0.  0.
    9000005    1    3    3    0    0  0.60194167526E+02 -0.11313377284E+02  0.46146933831E+02  0.76693349201E+02  0.10000000000E+01 0.  0.
<mgrwt>
<rscale>  0 0.12499894E+03</rscale>
<asrwt>0</asrwt>
<pdfrwt beam="2">  1        4 0.39212331E-02 0.12499894E+03</pdfrwt>
<pdfrwt beam="1">  1       -4 0.23577801E-01 0.12499894E+03</pdfrwt>
<totfact> 0.93845860E+03</totfact>
</mgrwt>
</event>
<event>
 5    1  0.3309811E-002  0.1249975E+03  0.7818608E-02  0.1235073E+00
         -4   -1    0    0    0  501 -0.00000000000E+00  0.00000000000E+00  0.13641684011E+02  0.13700673073E+02  0.12700000000E+01 0. -1.
          4   -1    0    0  501    0  0.00000000000E+00 -0.00000000000E+00 -0.28565706619E+03  0.28565988932E+03  0.12700000000E+01 0. -1.
         25    2    1    2    0    0  0.00000000000E+00  0.00000000000E+00 -0.27201538218E+03  0.29936056239E+03  0.12499751266E+03 0.  0.
    9000005    1    3    3    0    0 -0.31397722563E+02 -0.29058294380E+02 -0.26916149961E+02  0.50553739556E+02  0.10000000000E+01 0.  0.
    9000005    1    3    3    0    0  0.31397722563E+02  0.29058294380E+02 -0.24509923222E+03  0.24880682283E+03  0.10000000000E+01 0.  0.
<mgrwt>
<rscale>  0 0.12499751E+03</rscale>
<asrwt>0</asrwt>
<pdfrwt beam="2">  1        4 0.43951991E-01 0.12499751E+03</pdfrwt>
<pdfrwt beam="1">  1       -4 0.21034756E-02 0.12499751E+03</pdfrwt>
<totfact> 0.75683300E+03</totfact>
</mgrwt>
</event>
<event>
 5    1  0.3309811E-002  0.1250009E+03  0.7818608E-02  0.1235068E+00
         -4   -1    0    0    0  501 -0.00000000000E+00  0.00000000000E+00  0.70102634516E+02  0.70114137419E+02  0.12700000000E+01 0.  1.
          4   -1    0    0  501    0  0.00000000000E+00 -0.00000000000E+00 -0.55699366658E+02  0.55713843397E+02  0.12700000000E+01 0.  1.
         25    2    1    2    0    0  0.00000000000E+00  0.00000000000E+00  0.14403267858E+02  0.12582798082E+03  0.12500090652E+03 0.  0.
    9000005    1    3    3    0    0 -0.37401374094E+02 -0.25806117486E+02  0.50386400907E+02  0.67857261071E+02  0.10000000000E+01 0.  0.
    9000005    1    3    3    0    0  0.37401374094E+02  0.25806117486E+02 -0.35983133048E+02  0.57970719745E+02  0.10000000000E+01 0.  0.
<mgrwt>
<rscale>  0 0.12500091E+03</rscale>
<asrwt>0</asrwt>
<pdfrwt beam="2">  1        4 0.85711318E-02 0.12500091E+03</pdfrwt>
<pdfrwt beam="1">  1       -4 0.10787019E-01 0.12500091E+03</pdfrwt>
<totfact> 0.10434517E+04</totfact>
</mgrwt>
</event>
<event>
 5    1  0.3309811E-002  0.1250012E+03  0.7818608E-02  0.1235067E+00
          4   -1    0    0  501    0  0.00000000000E+00  0.00000000000E+00  0.31479526848E+03  0.31479783030E+03  0.12700000000E+01 0. -1.
         -4   -1    0    0    0  501 -0.00000000000E+00 -0.00000000000E+00 -0.12373988569E+02  0.12438990840E+02  0.12700000000E+01 0. -1.
         25    2    1    2    0    0  0.00000000000E+00  0.00000000000E+00  0.30242127992E+03  0.32723682114E+03  0.12500122624E+03 0.  0.
    9000005    1    3    3    0    0  0.48997407876E+01 -0.82039363951E+00 -0.11869063480E+02  0.12905625649E+02  0.10000000000E+01 0.  0.
    9000005    1    3    3    0    0 -0.48997407876E+01  0.82039363951E+00  0.31429034340E+03  0.31433119549E+03  0.10000000000E+01 0.  0.
<mgrwt>
<rscale>  0 0.12500123E+03</rscale>
<asrwt>0</asrwt>
<pdfrwt beam="1">  1        4 0.48435239E-01 0.12500123E+03</pdfrwt>
<pdfrwt beam="2">  1       -4 0.19088878E-02 0.12500123E+03</pdfrwt>
<totfact> 0.72301622E+03</totfact>
</mgrwt>
</event>
<event>
 5    1  0.3309811E-002  0.1250000E+03  0.7818608E-02  0.1235069E+00
         -4   -1    0    0    0  501 -0.00000000000E+00  0.00000000000E+00  0.78862316103E+02  0.78872541490E+02  0.12700000000E+01 0.  1.
          4   -1    0    0  501    0  0.00000000000E+00 -0.00000000000E+00 -0.49510959217E+02  0.49527244852E+02  0.12700000000E+01 0.  1.
         25    2    1    2    0    0  0.00000000000E+00  0.00000000000E+00  0.29351356886E+02  0.12839978634E+03  0.12500001193E+03 0.  0.
    9000005    1    3    3    0    0  0.91567487041E+01 -0.33573005882E+02  0.67993676576E+02  0.76388041113E+02  0.10000000000E+01 0.  0.
    9000005    1    3    3    0    0 -0.91567487041E+01  0.33573005882E+02 -0.38642319690E+02  0.52011745229E+02  0.10000000000E+01 0.  0.
<mgrwt>
<rscale>  0 0.12500001E+03</rscale>
<asrwt>0</asrwt>
<pdfrwt beam="2">  1        4 0.76191100E-02 0.12500001E+03</pdfrwt>
<pdfrwt beam="1">  1       -4 0.12134703E-01 0.12500001E+03</pdfrwt>
<totfact> 0.10378860E+04</totfact>
</mgrwt>
</event>
<event>
 5    1  0.3309811E-002  0.1249982E+03  0.7818608E-02  0.1235072E+00
          4   -1    0    0  501    0  0.00000000000E+00  0.00000000000E+00  0.13967407190E+03  0.13967984558E+03  0.12700000000E+01 0. -1.
         -4   -1    0    0    0  501 -0.00000000000E+00 -0.00000000000E+00 -0.27945322274E+02  0.27974165528E+02  0.12700000000E+01 0. -1.
         25    2    1    2    0    0  0.00000000000E+00  0.00000000000E+00  0.11172874962E+03  0.16765401110E+03  0.12499821578E+03 0.  0.
    9000005    1    3    3    0    0 -0.23588363994E+02  0.57609904812E+02  0.48539320762E+02  0.78945409673E+02  0.10000000000E+01 0.  0.
    9000005    1    3    3    0    0  0.23588363994E+02 -0.57609904812E+02  0.63189428860E+02  0.88708601432E+02  0.10000000000E+01 0.  0.
<mgrwt>
<rscale>  0 0.12499822E+03</rscale>
<asrwt>0</asrwt>
<pdfrwt beam="1">  1        4 0.21490982E-01 0.12499822E+03</pdfrwt>
<pdfrwt beam="2">  1       -4 0.43019432E-02 0.12499822E+03</pdfrwt>
<totfact> 0.95890955E+03</totfact>
</mgrwt>
</event>
<event>
 5    1  0.3309811E-002  0.1250003E+03  0.7818608E-02  0.1235069E+00
         -4   -1    0    0    0  501 -0.00000000000E+00  0.00000000000E+00  0.49798285112E+02  0.49814476812E+02  0.12700000000E+01 0.  1.
          4   -1    0    0  501    0  0.00000000000E+00 -0.00000000000E+00 -0.78407755203E+02  0.78418039863E+02  0.12700000000E+01 0.  1.
         25    2    1    2    0    0  0.00000000000E+00  0.00000000000E+00 -0.28609470091E+02  0.12823251667E+03  0.12500030621E+03 0.  0.
    9000005    1    3    3    0    0 -0.33515956557E+02 -0.47395539979E+02 -0.38046471246E+02  0.69413186990E+02  0.10000000000E+01 0.  0.
    9000005    1    3    3    0    0  0.33515956557E+02  0.47395539979E+02  0.94370011547E+01  0.58819329685E+02  0.10000000000E+01 0.  0.
<mgrwt>
<rscale>  0 0.12500031E+03</rscale>
<asrwt>0</asrwt>
<pdfrwt beam="2">  1        4 0.12064768E-01 0.12500031E+03</pdfrwt>
<pdfrwt beam="1">  1       -4 0.76633113E-02 0.12500031E+03</pdfrwt>
<totfact> 0.10382397E+04</totfact>
</mgrwt>
</event>
<event>
 5    1  0.3309811E-002  0.1249998E+03  0.7818608E-02  0.1235070E+00
          4   -1    0    0  501    0  0.00000000000E+00  0.00000000000E+00  0.40786245201E+02  0.40806013008E+02  0.12700000000E+01 0. -1.
         -4   -1    0    0    0  501 -0.00000000000E+00 -0.00000000000E+00 -0.95726277615E+02  0.95734701786E+02  0.12700000000E+01 0. -1.
         25    2    1    2    0    0  0.00000000000E+00  0.00000000000E+00 -0.54940032414E+02  0.13654071479E+03  0.12499983854E+03 0.  0.
    9000005    1    3    3    0    0  0.61935833057E+02  0.75317819972E+01 -0.23613505471E+02  0.66718609077E+02  0.10000000000E+01 0.  0.
    9000005    1    3    3    0    0 -0.61935833057E+02 -0.75317819972E+01 -0.31326526942E+02  0.69822105717E+02  0.10000000000E+01 0.  0.
<mgrwt>
<rscale>  0 0.12499984E+03</rscale>
<asrwt>0</asrwt>
<pdfrwt beam="1">  1        4 0.62769756E-02 0.12499984E+03</pdfrwt>
<pdfrwt beam="2">  1       -4 0.14729288E-01 0.12499984E+03</pdfrwt>
<totfact> 0.10205735E+04</totfact>
</mgrwt>
</event>
<event>
 5    1  0.3309811E-002  0.1249966E+03  0.7818608E-02  0.1235075E+00
          4   -1    0    0  501    0  0.00000000000E+00  0.00000000000E+00  0.12091321668E+03  0.12091988615E+03  0.12700000000E+01 0. -1.
         -4   -1    0    0    0  501 -0.00000000000E+00 -0.00000000000E+00 -0.32284406435E+02  0.32309376330E+02  0.12700000000E+01 0. -1.
         25    2    1    2    0    0  0.00000000000E+00  0.00000000000E+00  0.88628810243E+02  0.15322926248E+03  0.12499656346E+03 0.  0.
    9000005    1    3    3    0    0 -0.14941397561E+02  0.58813057008E+02  0.26015923488E+02  0.66030669470E+02  0.10000000000E+01 0.  0.
    9000005    1    3    3    0    0  0.14941397561E+02 -0.58813057008E+02  0.62612886755E+02  0.87198593014E+02  0.10000000000E+01 0.  0.
<mgrwt>
<rscale>  0 0.12499656E+03</rscale>
<asrwt>0</asrwt>
<pdfrwt beam="1">  1        4 0.18604467E-01 0.12499656E+03</pdfrwt>
<pdfrwt beam="2">  1       -4 0.49692655E-02 0.12499656E+03</pdfrwt>
<totfact> 0.98671472E+03</totfact>
</mgrwt>
</event>
<event>
 5    1  0.3309811E-002  0.1249967E+03  0.7818608E-02  0.1235074E+00
         -4   -1    0    0    0  501 -0.00000000000E+00  0.00000000000E+00  0.19506799008E+02  0.19548097287E+02  0.12700000000E+01 0.  1.
          4   -1    0    0  501    0  0.00000000000E+00 -0.00000000000E+00 -0.19998520696E+03  0.19998923947E+03  0.12700000000E+01 0.  1.
         25    2    1    2    0    0  0.00000000000E+00  0.00000000000E+00 -0.18047840796E+03  0.21953733676E+03  0.12499674593E+03 0.  0.
    9000005    1    3    3    0    0  0.55950877967E+02  0.19543241065E+02 -0.12503998887E+03  0.13837788058E+03  0.10000000000E+01 0.  0.
    9000005    1    3    3    0    0 -0.55950877967E+02 -0.19543241065E+02 -0.55438419085E+02  0.81159456179E+02  0.10000000000E+01 0.  0.
<mgrwt>
<rscale>  0 0.12499675E+03</rscale>
<asrwt>0</asrwt>
<pdfrwt beam="2">  1        4 0.30770441E-01 0.12499675E+03</pdfrwt>
<pdfrwt beam="1">  1       -4 0.30045331E-02 0.12499675E+03</pdfrwt>
<totfact> 0.86947933E+03</totfact>
</mgrwt>
</event>
<event>
 5    1  0.3309811E-002  0.1250005E+03  0.7818608E-02  0.1235068E+00
         -4   -1    0    0    0  501 -0.00000000000E+00  0.00000000000E+00  0.76628915135E+02  0.76639438508E+02  0.12700000000E+01 0. -1.
          4   -1    0    0  501    0  0.00000000000E+00 -0.00000000000E+00 -0.50954662183E+02  0.50970486541E+02  0.12700000000E+01 0. -1.
         25    2    1    2    0    0  0.00000000000E+00  0.00000000000E+00  0.25674252952E+02  0.12760992505E+03  0.12500050282E+03 0.  0.
    9000005    1    3    3    0    0 -0.41429739964E+02  0.10140666651E+02 -0.33789333438E+02  0.54424034469E+02  0.10000000000E+01 0.  0.
    9000005    1    3    3    0    0  0.41429739964E+02 -0.10140666651E+02  0.59463586390E+02  0.73185890580E+02  0.10000000000E+01 0.  0.
<mgrwt>
<rscale>  0 0.12500050E+03</rscale>
<asrwt>0</asrwt>
<pdfrwt beam="2">  1        4 0.78412056E-02 0.12500050E+03</pdfrwt>
<pdfrwt beam="1">  1       -4 0.11791091E-01 0.12500050E+03</pdfrwt>
<totfact> 0.10395803E+04</totfact>
</mgrwt>
</event>
<event>
 5    1  0.3309811E-002  0.1249995E+03  0.7818608E-02  0.1235070E+00
         -4   -1    0    0    0  501 -0.00000000000E+00  0.00000000000E+00  0.18675159287E+03  0.18675591113E+03  0.12700000000E+01 0. -1.
          4   -1    0    0  501    0  0.00000000000E+00 -0.00000000000E+00 -0.20892820412E+02  0.20931384206E+02  0.12700000000E+01 0. -1.
         25    2    1    2    0    0  0.00000000000E+00  0.00000000000E+00  0.16585877246E+03  0.20768729533E+03  0.12499952096E+03 0.  0.
    9000005    1    3    3    0    0  0.52267324910E+02  0.34070780591E+02  0.88810436306E+02  0.10854024572E+03  0.10000000000E+01 0.  0.
    9000005    1    3    3    0    0 -0.52267324910E+02 -0.34070780591E+02  0.77048336154E+02  0.99147049616E+02  0.10000000000E+01 0.  0.
<mgrwt>
<rscale>  0 0.12499952E+03</rscale>
<asrwt>0</asrwt>
<pdfrwt beam="2">  1        4 0.32175787E-02 0.12499952E+03</pdfrwt>
<pdfrwt beam="1">  1       -4 0.28734313E-01 0.12499952E+03</pdfrwt>
<totfact> 0.88855925E+03</totfact>
</mgrwt>
</event>
<event>
 5    1  0.3309811E-002  0.1249968E+03  0.7818608E-02  0.1235074E+00
         -4   -1    0    0    0  501 -0.00000000000E+00  0.00000000000E+00  0.58819045368E+01  0.60174497073E+01  0.12700000000E+01 0. -1.
          4   -1    0    0  501    0  0.00000000000E+00 -0.00000000000E+00 -0.65637836806E+03  0.65637959670E+03  0.12700000000E+01 0. -1.
         25    2    1    2    0    0  0.00000000000E+00  0.00000000000E+00 -0.65049646352E+03  0.66239704640E+03  0.12499679206E+03 0.  0.
    9000005    1    3    3    0    0  0.10913366408E+02  0.39095454427E+02 -0.57703491849E+03  0.57846162645E+03  0.10000000000E+01 0.  0.
    9000005    1    3    3    0    0 -0.10913366408E+02 -0.39095454427E+02 -0.73461545038E+02  0.83935419953E+02  0.10000000000E+01 0.  0.
<mgrwt>
<rscale>  0 0.12499679E+03</rscale>
<asrwt>0</asrwt>
<pdfrwt beam="2">  1        4 0.10099175E+00 0.12499679E+03</pdfrwt>
<pdfrwt beam="1">  1       -4 0.91542997E-03 0.12499679E+03</pdfrwt>
<totfact> 0.45150499E+03</totfact>
</mgrwt>
</event>
<event>
 5    1  0.3309811E-002  0.1249932E+03  0.7818608E-02  0.1235080E+00
         -4   -1    0    0    0  501 -0.00000000000E+00  0.00000000000E+00  0.41264459675E+03  0.41264655109E+03  0.12700000000E+01 0.  1.
          4   -1    0    0  501    0  0.00000000000E+00 -0.00000000000E+00 -0.94207599199E+01  0.95059779859E+01  0.12700000000E+01 0.  1.
         25    2    1    2    0    0  0.00000000000E+00  0.00000000000E+00  0.40322383683E+03  0.42215252908E+03  0.12499318068E+03 0.  0.
    9000005    1    3    3    0    0 -0.10722196981E+02  0.57286335274E+02  0.12547904161E+03  0.13835707282E+03  0.10000000000E+01 0.  0.
    9000005    1    3    3    0    0  0.10722196981E+02 -0.57286335274E+02  0.27774479522E+03  0.28379545625E+03  0.10000000000E+01 0.  0.
<mgrwt>
<rscale>  0 0.12499318E+03</rscale>
<asrwt>0</asrwt>
<pdfrwt beam="2">  1        4 0.14560531E-02 0.12499318E+03</pdfrwt>
<pdfrwt beam="1">  1       -4 0.63490496E-01 0.12499318E+03</pdfrwt>
<totfact> 0.62463204E+03</totfact>
</mgrwt>
</event>
<event>
 5    1  0.3309811E-002  0.1249991E+03  0.7818608E-02  0.1235071E+00
          4   -1    0    0  501    0  0.00000000000E+00  0.00000000000E+00  0.15980182090E+03  0.15980686738E+03  0.12700000000E+01 0. -1.
         -4   -1    0    0    0  501 -0.00000000000E+00 -0.00000000000E+00 -0.24422071316E+02  0.24455070381E+02  0.12700000000E+01 0. -1.
         25    2    1    2    0    0  0.00000000000E+00  0.00000000000E+00  0.13537974958E+03  0.18426193776E+03  0.12499914044E+03 0.  0.
    9000005    1    3    3    0    0  0.11659625900E+02  0.61174297774E+02  0.60036626436E+02  0.86508023316E+02  0.10000000000E+01 0.  0.
    9000005    1    3    3    0    0 -0.11659625900E+02 -0.61174297774E+02  0.75343123147E+02  0.97753914447E+02  0.10000000000E+01 0.  0.
<mgrwt>
<rscale>  0 0.12499914E+03</rscale>
<asrwt>0</asrwt>
<pdfrwt beam="1">  1        4 0.24587821E-01 0.12499914E+03</pdfrwt>
<pdfrwt beam="2">  1       -4 0.37601685E-02 0.12499914E+03</pdfrwt>
<totfact> 0.92857207E+03</totfact>
</mgrwt>
</event>
<event>
 5    1  0.3309811E-002  0.1249987E+03  0.7818608E-02  0.1235071E+00
         -4   -1    0    0    0  501 -0.00000000000E+00  0.00000000000E+00  0.23236697039E+02  0.23271377039E+02  0.12700000000E+01 0.  1.
          4   -1    0    0  501    0  0.00000000000E+00 -0.00000000000E+00 -0.16794104893E+03  0.16794585085E+03  0.12700000000E+01 0.  1.
         25    2    1    2    0    0  0.00000000000E+00  0.00000000000E+00 -0.14470435189E+03  0.19121722789E+03  0.12499871513E+03 0.  0.
    9000005    1    3    3    0    0  0.54998538231E+02 -0.27356718724E+02 -0.54780612103E+02  0.82311267329E+02  0.10000000000E+01 0.  0.
    9000005    1    3    3    0    0 -0.54998538231E+02  0.27356718724E+02 -0.89923739790E+02  0.10890596056E+03  0.10000000000E+01 0.  0.
<mgrwt>
<rscale>  0 0.12499872E+03</rscale>
<asrwt>0</asrwt>
<pdfrwt beam="2">  1        4 0.25840121E-01 0.12499872E+03</pdfrwt>
<pdfrwt beam="1">  1       -4 0.35779136E-02 0.12499872E+03</pdfrwt>
<totfact> 0.91638589E+03</totfact>
</mgrwt>
</event>
<event>
 5    1  0.3309811E-002  0.1249886E+03  0.7818608E-02  0.1235087E+00
          4   -1    0    0  501    0  0.00000000000E+00  0.00000000000E+00  0.17605202172E+02  0.17650950216E+02  0.12700000000E+01 0.  1.
         -4   -1    0    0    0  501 -0.00000000000E+00 -0.00000000000E+00 -0.22150460620E+03  0.22150824695E+03  0.12700000000E+01 0.  1.
         25    2    1    2    0    0  0.00000000000E+00  0.00000000000E+00 -0.20389940402E+03  0.23915919716E+03  0.12498861799E+03 0.  0.
    9000005    1    3    3    0    0 -0.52011279075E+02 -0.32047783686E+02 -0.12706657935E+03  0.14099343665E+03  0.10000000000E+01 0.  0.
    9000005    1    3    3    0    0  0.52011279075E+02  0.32047783686E+02 -0.76832824675E+02  0.98165760516E+02  0.10000000000E+01 0.  0.
<mgrwt>
<rscale>  0 0.12498862E+03</rscale>
<asrwt>0</asrwt>
<pdfrwt beam="1">  1        4 0.27122919E-02 0.12498862E+03</pdfrwt>
<pdfrwt beam="2">  1       -4 0.34081429E-01 0.12498862E+03</pdfrwt>
<totfact> 0.83944050E+03</totfact>
</mgrwt>
</event>
<event>
 5    1  0.3309811E-002  0.1250126E+03  0.7818608E-02  0.1235050E+00
         -4   -1    0    0    0  501 -0.00000000000E+00  0.00000000000E+00  0.68033769323E+02  0.68045621963E+02  0.12700000000E+01 0. -1.
          4   -1    0    0  501    0  0.00000000000E+00 -0.00000000000E+00 -0.57403995217E+02  0.57418042172E+02  0.12700000000E+01 0. -1.
         25    2    1    2    0    0  0.00000000000E+00  0.00000000000E+00  0.10629774106E+02  0.12546366413E+03  0.12501255505E+03 0.  0.
    9000005    1    3    3    0    0 -0.42667272243E+02  0.96430129550E+01 -0.39484188127E+02  0.58936278569E+02  0.10000000000E+01 0.  0.
    9000005    1    3    3    0    0  0.42667272243E+02 -0.96430129550E+01  0.50113962233E+02  0.66527385566E+02  0.10000000000E+01 0.  0.
<mgrwt>
<rscale>  0 0.12501256E+03</rscale>
<asrwt>0</asrwt>
<pdfrwt beam="2">  1        4 0.88333762E-02 0.12501256E+03</pdfrwt>
<pdfrwt beam="1">  1       -4 0.10468726E-01 0.12501256E+03</pdfrwt>
<totfact> 0.10439801E+04</totfact>
</mgrwt>
</event>
<event>
 5    1  0.3309811E-002  0.1249714E+03  0.7818608E-02  0.1235114E+00
          4   -1    0    0  501    0  0.00000000000E+00  0.00000000000E+00  0.14453049995E+04  0.14453055574E+04  0.12700000000E+01 0. -1.
         -4   -1    0    0    0  501 -0.00000000000E+00 -0.00000000000E+00 -0.25516309815E+01  0.28502141438E+01  0.12700000000E+01 0. -1.
         25    2    1    2    0    0  0.00000000000E+00  0.00000000000E+00  0.14427533685E+04  0.14481557716E+04  0.12497142278E+03 0.  0.
    9000005    1    3    3    0    0  0.55942373415E+01 -0.61606697429E+02  0.61983638737E+03  0.62291638907E+03  0.10000000000E+01 0.  0.
    9000005    1    3    3    0    0 -0.55942373415E+01  0.61606697429E+02  0.82291698110E+03  0.82523938251E+03  0.10000000000E+01 0.  0.
<mgrwt>
<rscale>  0 0.12497142E+03</rscale>
<asrwt>0</asrwt>
<pdfrwt beam="1">  1        4 0.22237789E+00 0.12497142E+03</pdfrwt>
<pdfrwt beam="2">  1       -4 0.41556898E-03 0.12497142E+03</pdfrwt>
<totfact> 0.18982350E+03</totfact>
</mgrwt>
</event>
<event>
 5    1  0.3309811E-002  0.1249977E+03  0.7818608E-02  0.1235073E+00
         -4   -1    0    0    0  501 -0.00000000000E+00  0.00000000000E+00  0.18283547419E+02  0.18327602305E+02  0.12700000000E+01 0.  1.
          4   -1    0    0  501    0  0.00000000000E+00 -0.00000000000E+00 -0.21333763357E+03  0.21334141369E+03  0.12700000000E+01 0.  1.
         25    2    1    2    0    0  0.00000000000E+00  0.00000000000E+00 -0.19505408615E+03  0.23166901600E+03  0.12499774578E+03 0.  0.
    9000005    1    3    3    0    0  0.23514371647E+02 -0.55316394147E+02 -0.65841197204E+02  0.89156561086E+02  0.10000000000E+01 0.  0.
    9000005    1    3    3    0    0 -0.23514371647E+02  0.55316394147E+02 -0.12921288894E+03  0.14251245491E+03  0.10000000000E+01 0.  0.
<mgrwt>
<rscale>  0 0.12499775E+03</rscale>
<asrwt>0</asrwt>
<pdfrwt beam="2">  1        4 0.32824852E-01 0.12499775E+03</pdfrwt>
<pdfrwt beam="1">  1       -4 0.28165332E-02 0.12499775E+03</pdfrwt>
<totfact> 0.85058253E+03</totfact>
</mgrwt>
</event>
<event>
 5    1  0.3309811E-002  0.1250012E+03  0.7818608E-02  0.1235067E+00
         -4   -1    0    0    0  501 -0.00000000000E+00  0.00000000000E+00  0.74786423116E+02  0.74797205713E+02  0.12700000000E+01 0.  1.
          4   -1    0    0  501    0  0.00000000000E+00 -0.00000000000E+00 -0.52210833132E+02  0.52226276876E+02  0.12700000000E+01 0.  1.
         25    2    1    2    0    0  0.00000000000E+00  0.00000000000E+00  0.22575589984E+02  0.12702348259E+03  0.12500123146E+03 0.  0.
    9000005    1    3    3    0    0 -0.53589731407E+02 -0.96590471524E+01 -0.19870452699E+02  0.57974057945E+02  0.10000000000E+01 0.  0.
    9000005    1    3    3    0    0  0.53589731407E+02  0.96590471524E+01  0.42446042683E+02  0.69049424644E+02  0.10000000000E+01 0.  0.
<mgrwt>
<rscale>  0 0.12500123E+03</rscale>
<asrwt>0</asrwt>
<pdfrwt beam="2">  1        4 0.80344533E-02 0.12500123E+03</pdfrwt>
<pdfrwt beam="1">  1       -4 0.11507621E-01 0.12500123E+03</pdfrwt>
<totfact> 0.10408346E+04</totfact>
</mgrwt>
</event>
<event>
 5    1  0.3309811E-002  0.1250039E+03  0.7818608E-02  0.1235063E+00
          4   -1    0    0  501    0  0.00000000000E+00  0.00000000000E+00  0.24567118233E+03  0.24567446495E+03  0.12700000000E+01 0.  1.
         -4   -1    0    0    0  501 -0.00000000000E+00 -0.00000000000E+00 -0.15872568471E+02  0.15923295195E+02  0.12700000000E+01 0.  1.
         25    2    1    2    0    0  0.00000000000E+00  0.00000000000E+00  0.22979861386E+03  0.26159776015E+03  0.12500394066E+03 0.  0.
    9000005    1    3    3    0    0  0.23471577208E+01 -0.62254738762E+02  0.10457590477E+03  0.12173036394E+03  0.10000000000E+01 0.  0.
    9000005    1    3    3    0    0 -0.23471577208E+01  0.62254738762E+02  0.12522270909E+03  0.13986739620E+03  0.10000000000E+01 0.  0.
<mgrwt>
<rscale>  0 0.12500394E+03</rscale>
<asrwt>0</asrwt>
<pdfrwt beam="1">  1        4 0.37799722E-01 0.12500394E+03</pdfrwt>
<pdfrwt beam="2">  1       -4 0.24460881E-02 0.12500394E+03</pdfrwt>
<totfact> 0.80675281E+03</totfact>
</mgrwt>
</event>
<event>
 5    1  0.3309811E-002  0.1250023E+03  0.7818608E-02  0.1235066E+00
          4   -1    0    0  501    0  0.00000000000E+00  0.00000000000E+00  0.69738050705E+02  0.69749613735E+02  0.12700000000E+01 0. -1.
         -4   -1    0    0    0  501 -0.00000000000E+00 -0.00000000000E+00 -0.55991831849E+02  0.56006232990E+02  0.12700000000E+01 0. -1.
         25    2    1    2    0    0  0.00000000000E+00  0.00000000000E+00  0.13746218856E+02  0.12575584673E+03  0.12500229779E+03 0.  0.
    9000005    1    3    3    0    0  0.23006812495E+02  0.34241046448E+02  0.54098941575E+02  0.68040121712E+02  0.10000000000E+01 0.  0.
    9000005    1    3    3    0    0 -0.23006812495E+02 -0.34241046448E+02 -0.40352722718E+02  0.57715725014E+02  0.10000000000E+01 0.  0.
<mgrwt>
<rscale>  0 0.12500230E+03</rscale>
<asrwt>0</asrwt>
<pdfrwt beam="1">  1        4 0.10730928E-01 0.12500230E+03</pdfrwt>
<pdfrwt beam="2">  1       -4 0.86161252E-02 0.12500230E+03</pdfrwt>
<totfact> 0.10435775E+04</totfact>
</mgrwt>
</event>
<event>
 5    1  0.3309811E-002  0.1250031E+03  0.7818608E-02  0.1235064E+00
         -4   -1    0    0    0  501 -0.00000000000E+00  0.00000000000E+00  0.11554174642E+02  0.11623762371E+02  0.12700000000E+01 0.  1.
          4   -1    0    0  501    0  0.00000000000E+00 -0.00000000000E+00 -0.33701219434E+03  0.33701458727E+03  0.12700000000E+01 0.  1.
         25    2    1    2    0    0  0.00000000000E+00  0.00000000000E+00 -0.32545801969E+03  0.34863834964E+03  0.12500310499E+03 0.  0.
    9000005    1    3    3    0    0 -0.60422637682E+02  0.14398424472E+02 -0.18189728624E+03  0.19221298737E+03  0.10000000000E+01 0.  0.
    9000005    1    3    3    0    0  0.60422637682E+02 -0.14398424472E+02 -0.14356073345E+03  0.15642536227E+03  0.10000000000E+01 0.  0.
<mgrwt>
<rscale>  0 0.12500310E+03</rscale>
<asrwt>0</asrwt>
<pdfrwt beam="2">  1        4 0.51853559E-01 0.12500310E+03</pdfrwt>
<pdfrwt beam="1">  1       -4 0.17831026E-02 0.12500310E+03</pdfrwt>
<totfact> 0.69869816E+03</totfact>
</mgrwt>
</event>
<event>
 5    1  0.3309811E-002  0.1250014E+03  0.7818608E-02  0.1235067E+00
         -4   -1    0    0    0  501 -0.00000000000E+00  0.00000000000E+00  0.35244320346E+03  0.35244549162E+03  0.12700000000E+01 0. -1.
          4   -1    0    0  501    0  0.00000000000E+00 -0.00000000000E+00 -0.11044887886E+02  0.11117663802E+02  0.12700000000E+01 0. -1.
         25    2    1    2    0    0  0.00000000000E+00  0.00000000000E+00  0.34139831557E+03  0.36356315542E+03  0.12500143241E+03 0.  0.
    9000005    1    3    3    0    0  0.43754914357E+02 -0.24071126304E+02  0.61430849462E+02  0.79174875545E+02  0.10000000000E+01 0.  0.
    9000005    1    3    3    0    0 -0.43754914357E+02  0.24071126304E+02  0.27996746611E+03  0.28438827988E+03  0.10000000000E+01 0.  0.
<mgrwt>
<rscale>  0 0.12500143E+03</rscale>
<asrwt>0</asrwt>
<pdfrwt beam="2">  1        4 0.17049875E-02 0.12500143E+03</pdfrwt>
<pdfrwt beam="1">  1       -4 0.54227812E-01 0.12500143E+03</pdfrwt>
<totfact> 0.68255602E+03</totfact>
</mgrwt>
</event>
<event>
 5    1  0.3309811E-002  0.1249970E+03  0.7818608E-02  0.1235074E+00
          4   -1    0    0  501    0  0.00000000000E+00  0.00000000000E+00  0.13067576920E+03  0.13068194044E+03  0.12700000000E+01 0. -1.
         -4   -1    0    0    0  501 -0.00000000000E+00 -0.00000000000E+00 -0.29870902740E+02  0.29897888395E+02  0.12700000000E+01 0. -1.
         25    2    1    2    0    0  0.00000000000E+00  0.00000000000E+00  0.10080486646E+03  0.16057982883E+03  0.12499704127E+03 0.  0.
    9000005    1    3    3    0    0 -0.40610246094E+02 -0.10096287399E+02 -0.92197471287E+01  0.42861764361E+02  0.10000000000E+01 0.  0.
    9000005    1    3    3    0    0  0.40610246094E+02  0.10096287399E+02  0.11002461359E+03  0.11771806447E+03  0.10000000000E+01 0.  0.
<mgrwt>
<rscale>  0 0.12499704E+03</rscale>
<asrwt>0</asrwt>
<pdfrwt beam="1">  1        4 0.20106515E-01 0.12499704E+03</pdfrwt>
<pdfrwt beam="2">  1       -4 0.45980741E-02 0.12499704E+03</pdfrwt>
<totfact> 0.97237581E+03</totfact>
</mgrwt>
</event>
<event>
 5    1  0.3309811E-002  0.1250059E+03  0.7818608E-02  0.1235060E+00
          4   -1    0    0  501    0  0.00000000000E+00  0.00000000000E+00  0.16743346110E+03  0.16743827758E+03  0.12700000000E+01 0. -1.
         -4   -1    0    0    0  501 -0.00000000000E+00 -0.00000000000E+00 -0.23309912632E+02  0.23344483865E+02  0.12700000000E+01 0. -1.
         25    2    1    2    0    0  0.00000000000E+00  0.00000000000E+00  0.14412354847E+03  0.19078276144E+03  0.12500585922E+03 0.  0.
    9000005    1    3    3    0    0 -0.54981996588E+01  0.30859606495E+02 -0.10452373950E+02  0.33057489827E+02  0.10000000000E+01 0.  0.
    9000005    1    3    3    0    0  0.54981996588E+01 -0.30859606495E+02  0.15457592242E+03  0.15772527161E+03  0.10000000000E+01 0.  0.
<mgrwt>
<rscale>  0 0.12500586E+03</rscale>
<asrwt>0</asrwt>
<pdfrwt beam="1">  1        4 0.25762023E-01 0.12500586E+03</pdfrwt>
<pdfrwt beam="2">  1       -4 0.35891703E-02 0.12500586E+03</pdfrwt>
<totfact> 0.91699261E+03</totfact>
</mgrwt>
</event>
<event>
 5    1  0.3309811E-002  0.1250009E+03  0.7818608E-02  0.1235068E+00
          4   -1    0    0  501    0  0.00000000000E+00  0.00000000000E+00  0.24001210001E+01  0.27154154038E+01  0.12700000000E+01 0.  1.
         -4   -1    0    0    0  501 -0.00000000000E+00 -0.00000000000E+00 -0.15269163745E+04  0.15269169026E+04  0.12700000000E+01 0.  1.
         25    2    1    2    0    0  0.00000000000E+00  0.00000000000E+00 -0.15245162535E+04  0.15296323180E+04  0.12500088507E+03 0.  0.
    9000005    1    3    3    0    0  0.44227372458E+01 -0.50305814503E+02 -0.12127166266E+04  0.12137680388E+04  0.10000000000E+01 0.  0.
    9000005    1    3    3    0    0 -0.44227372458E+01  0.50305814503E+02 -0.31179962683E+03  0.31586427919E+03  0.10000000000E+01 0.  0.
<mgrwt>
<rscale>  0 0.12500089E+03</rscale>
<asrwt>0</asrwt>
<pdfrwt beam="1">  1        4 0.39354465E-03 0.12500089E+03</pdfrwt>
<pdfrwt beam="2">  1       -4 0.23493378E+00 0.12500089E+03</pdfrwt>
<totfact> 0.17354960E+03</totfact>
</mgrwt>
</event>
<event>
 5    1  0.3309811E-002  0.1250027E+03  0.7818608E-02  0.1235065E+00
          4   -1    0    0  501    0  0.00000000000E+00  0.00000000000E+00  0.28061155668E+02  0.28089879983E+02  0.12700000000E+01 0.  1.
         -4   -1    0    0    0  501 -0.00000000000E+00 -0.00000000000E+00 -0.13910806118E+03  0.13911385835E+03  0.12700000000E+01 0.  1.
         25    2    1    2    0    0  0.00000000000E+00  0.00000000000E+00 -0.11104690551E+03  0.16720373834E+03  0.12500269953E+03 0.  0.
    9000005    1    3    3    0    0  0.41010396600E+02  0.16788751561E+02 -0.11446453341E+03  0.12274707417E+03  0.10000000000E+01 0.  0.
    9000005    1    3    3    0    0 -0.41010396600E+02 -0.16788751561E+02  0.34176278978E+01  0.44456664165E+02  0.10000000000E+01 0.  0.
<mgrwt>
<rscale>  0 0.12500270E+03</rscale>
<asrwt>0</asrwt>
<pdfrwt beam="1">  1        4 0.43197565E-02 0.12500270E+03</pdfrwt>
<pdfrwt beam="2">  1       -4 0.21403895E-01 0.12500270E+03</pdfrwt>
<totfact> 0.95965841E+03</totfact>
</mgrwt>
</event>
<event>
 5    1  0.3309811E-002  0.1250021E+03  0.7818608E-02  0.1235066E+00
          4   -1    0    0  501    0  0.00000000000E+00  0.00000000000E+00  0.24126895587E+03  0.24127229838E+03  0.12700000000E+01 0.  1.
         -4   -1    0    0    0  501 -0.00000000000E+00 -0.00000000000E+00 -0.16162626262E+02  0.16212445457E+02  0.12700000000E+01 0.  1.
         25    2    1    2    0    0  0.00000000000E+00  0.00000000000E+00  0.22510632961E+03  0.25748474384E+03  0.12500213470E+03 0.  0.
    9000005    1    3    3    0    0 -0.19064868831E+01 -0.13999659959E+01  0.24118682201E+03  0.24120049276E+03  0.10000000000E+01 0.  0.
    9000005    1    3    3    0    0  0.19064868831E+01  0.13999659959E+01 -0.16080492406E+02  0.16284251074E+02  0.10000000000E+01 0.  0.
<mgrwt>
<rscale>  0 0.12500213E+03</rscale>
<asrwt>0</asrwt>
<pdfrwt beam="1">  1        4 0.37122389E-01 0.12500213E+03</pdfrwt>
<pdfrwt beam="2">  1       -4 0.24906473E-02 0.12500213E+03</pdfrwt>
<totfact> 0.81256480E+03</totfact>
</mgrwt>
</event>
<event>
 5    1  0.3309811E-002  0.1249948E+03  0.7818608E-02  0.1235077E+00
          4   -1    0    0  501    0  0.00000000000E+00  0.00000000000E+00  0.13017054748E+02  0.13078861354E+02  0.12700000000E+01 0. -1.
         -4   -1    0    0    0  501 -0.00000000000E+00 -0.00000000000E+00 -0.29928845344E+03  0.29929114798E+03  0.12700000000E+01 0. -1.
         25    2    1    2    0    0  0.00000000000E+00  0.00000000000E+00 -0.28627139869E+03  0.31237000934E+03  0.12499483600E+03 0.  0.
    9000005    1    3    3    0    0  0.10434357775E+02  0.27668684691E+02 -0.55624267280E+01  0.30106021421E+02  0.10000000000E+01 0.  0.
    9000005    1    3    3    0    0 -0.10434357775E+02 -0.27668684691E+02 -0.28070897196E+03  0.28226398792E+03  0.10000000000E+01 0.  0.
<mgrwt>
<rscale>  0 0.12499484E+03</rscale>
<asrwt>0</asrwt>
<pdfrwt beam="1">  1        4 0.20075857E-02 0.12499484E+03</pdfrwt>
<pdfrwt beam="2">  1       -4 0.46049334E-01 0.12499484E+03</pdfrwt>
<totfact> 0.74081383E+03</totfact>
</mgrwt>
</event>
<event>
 5    1  0.3309811E-002  0.1249759E+03  0.7818608E-02  0.1235107E+00
         -4   -1    0    0    0  501 -0.00000000000E+00  0.00000000000E+00  0.14276512063E+03  0.14277076930E+03  0.12700000000E+01 0.  1.
          4   -1    0    0  501    0  0.00000000000E+00 -0.00000000000E+00 -0.27329897365E+02  0.27359389430E+02  0.12700000000E+01 0.  1.
         25    2    1    2    0    0  0.00000000000E+00  0.00000000000E+00  0.11543522326E+03  0.17013015873E+03  0.12497591825E+03 0.  0.
    9000005    1    3    3    0    0  0.53564122740E+02 -0.27504013476E+02  0.35013654664E+02  0.69660189600E+02  0.10000000000E+01 0.  0.
    9000005    1    3    3    0    0 -0.53564122740E+02  0.27504013476E+02  0.80421568598E+02  0.10046996913E+03  0.10000000000E+01 0.  0.
<mgrwt>
<rscale>  0 0.12497592E+03</rscale>
<asrwt>0</asrwt>
<pdfrwt beam="2">  1        4 0.42073026E-02 0.12497592E+03</pdfrwt>
<pdfrwt beam="1">  1       -4 0.21966568E-01 0.12497592E+03</pdfrwt>
<totfact> 0.95475977E+03</totfact>
</mgrwt>
</event>
<event>
 5    1  0.3309811E-002  0.1249964E+03  0.7818608E-02  0.1235075E+00
         -4   -1    0    0    0  501 -0.00000000000E+00  0.00000000000E+00  0.18235892940E+02  0.18280062673E+02  0.12700000000E+01 0.  1.
          4   -1    0    0  501    0  0.00000000000E+00 -0.00000000000E+00 -0.21388910400E+03  0.21389287438E+03  0.12700000000E+01 0.  1.
         25    2    1    2    0    0  0.00000000000E+00  0.00000000000E+00 -0.19565321106E+03  0.23217293706E+03  0.12499637475E+03 0.  0.
    9000005    1    3    3    0    0  0.15724262128E+02 -0.18097568937E+02  0.93629651583E+01  0.25757320075E+02  0.10000000000E+01 0.  0.
    9000005    1    3    3    0    0 -0.15724262128E+02  0.18097568937E+02 -0.20501617622E+03  0.20641561698E+03  0.10000000000E+01 0.  0.
<mgrwt>
<rscale>  0 0.12499637E+03</rscale>
<asrwt>0</asrwt>
<pdfrwt beam="2">  1        4 0.32909702E-01 0.12499637E+03</pdfrwt>
<pdfrwt beam="1">  1       -4 0.28092098E-02 0.12499637E+03</pdfrwt>
<totfact> 0.84983927E+03</totfact>
</mgrwt>
</event>
<event>
 5    1  0.3309811E-002  0.1250062E+03  0.7818608E-02  0.1235060E+00
          4   -1    0    0  501    0  0.00000000000E+00  0.00000000000E+00  0.17954896983E+03  0.17955346130E+03  0.12700000000E+01 0. -1.
         -4   -1    0    0    0  501 -0.00000000000E+00 -0.00000000000E+00 -0.21734749509E+02  0.21771822069E+02  0.12700000000E+01 0. -1.
         25    2    1    2    0    0  0.00000000000E+00  0.00000000000E+00  0.15781422032E+03  0.20132528337E+03  0.12500616621E+03 0.  0.
    9000005    1    3    3    0    0  0.33116970357E+02 -0.51823264160E+02  0.96786884980E+02  0.11467818248E+03  0.10000000000E+01 0.  0.
    9000005    1    3    3    0    0 -0.33116970357E+02  0.51823264160E+02  0.61027335339E+02  0.86647100889E+02  0.10000000000E+01 0.  0.
<mgrwt>
<rscale>  0 0.12500617E+03</rscale>
<asrwt>0</asrwt>
<pdfrwt beam="1">  1        4 0.27626116E-01 0.12500617E+03</pdfrwt>
<pdfrwt beam="2">  1       -4 0.33470048E-02 0.12500617E+03</pdfrwt>
<totfact> 0.89900062E+03</totfact>
</mgrwt>
</event>
<event>
 5    1  0.3309811E-002  0.1250013E+03  0.7818608E-02  0.1235067E+00
         -4   -1    0    0    0  501 -0.00000000000E+00  0.00000000000E+00  0.13082387221E+03  0.13083003646E+03  0.12700000000E+01 0. -1.
          4   -1    0    0  501    0  0.00000000000E+00 -0.00000000000E+00 -0.29839103681E+02  0.29866118068E+02  0.12700000000E+01 0. -1.
         25    2    1    2    0    0  0.00000000000E+00  0.00000000000E+00  0.10098476853E+03  0.16069615452E+03  0.12500132241E+03 0.  0.
    9000005    1    3    3    0    0 -0.37542785644E+02  0.49053964007E+02  0.62659780409E+02  0.87994319246E+02  0.10000000000E+01 0.  0.
    9000005    1    3    3    0    0  0.37542785644E+02 -0.49053964007E+02  0.38324988117E+02  0.72701835278E+02  0.10000000000E+01 0.  0.
<mgrwt>
<rscale>  0 0.12500132E+03</rscale>
<asrwt>0</asrwt>
<pdfrwt beam="2">  1        4 0.45931836E-02 0.12500132E+03</pdfrwt>
<pdfrwt beam="1">  1       -4 0.20129301E-01 0.12500132E+03</pdfrwt>
<totfact> 0.97205851E+03</totfact>
</mgrwt>
</event>
<event>
 4    1  0.3309811E-002  0.1248174E+03  0.7818608E-02  0.1235355E+00
          4   -1    0    0  501    0  0.00000000000E+00  0.00000000000E+00  0.13627930912E+02  0.13686979248E+02  0.12700000000E+01 0. -1.
         -4   -1    0    0    0  501 -0.00000000000E+00 -0.00000000000E+00 -0.28512026937E+03  0.28512309781E+03  0.12700000000E+01 0. -1.
    9000005    1    1    2    0    0  0.68833593881E+01  0.55894340960E+02 -0.20008521069E+03  0.20786209256E+03  0.10000000000E+01 0.  0.
    9000005    1    1    2    0    0 -0.68833593881E+01 -0.55894340960E+02 -0.71407127766E+02  0.90947984494E+02  0.10000000000E+01 0.  0.
<mgrwt>
<rscale>  0 0.12481736E+03</rscale>
<asrwt>0</asrwt>
<pdfrwt beam="1">  1        4 0.21013647E-02 0.12481736E+03</pdfrwt>
<pdfrwt beam="2">  1       -4 0.43869412E-01 0.12481736E+03</pdfrwt>
<totfact> 0.76056316E+03</totfact>
</mgrwt>
</event>
<event>
 5    1  0.3309811E-002  0.1250025E+03  0.7818608E-02  0.1235065E+00
          4   -1    0    0  501    0  0.00000000000E+00  0.00000000000E+00  0.77336516497E+01  0.78372359821E+01  0.12700000000E+01 0. -1.
         -4   -1    0    0    0  501 -0.00000000000E+00 -0.00000000000E+00 -0.50165314120E+03  0.50165474878E+03  0.12700000000E+01 0. -1.
         25    2    1    2    0    0  0.00000000000E+00  0.00000000000E+00 -0.49391948955E+03  0.50949198476E+03  0.12500248150E+03 0.  0.
    9000005    1    3    3    0    0  0.29058018735E+02  0.54731395818E+02 -0.27994924109E+03  0.28672717298E+03  0.10000000000E+01 0.  0.
    9000005    1    3    3    0    0 -0.29058018735E+02 -0.54731395818E+02 -0.21397024846E+03  0.22276481178E+03  0.10000000000E+01 0.  0.
<mgrwt>
<rscale>  0 0.12500248E+03</rscale>
<asrwt>0</asrwt>
<pdfrwt beam="1">  1        4 0.11978846E-02 0.12500248E+03</pdfrwt>
<pdfrwt beam="2">  1       -4 0.77185473E-01 0.12500248E+03</pdfrwt>
<totfact> 0.55132357E+03</totfact>
</mgrwt>
</event>
<event>
 5    1  0.3309811E-002  0.1250086E+03  0.7818608E-02  0.1235056E+00
          4   -1    0    0  501    0  0.00000000000E+00  0.00000000000E+00  0.40714526015E+01  0.42649298102E+01  0.12700000000E+01 0.  1.
         -4   -1    0    0    0  501 -0.00000000000E+00 -0.00000000000E+00 -0.93709198670E+03  0.93709284728E+03  0.12700000000E+01 0.  1.
         25    2    1    2    0    0  0.00000000000E+00  0.00000000000E+00 -0.93302053410E+03  0.94135777709E+03  0.12500858952E+03 0.  0.
    9000005    1    3    3    0    0  0.12256426424E+02 -0.12749642414E+02 -0.91789231637E+03  0.91806322104E+03  0.10000000000E+01 0.  0.
    9000005    1    3    3    0    0 -0.12256426424E+02  0.12749642414E+02 -0.15128217727E+02  0.23294556059E+02  0.10000000000E+01 0.  0.
<mgrwt>
<rscale>  0 0.12500859E+03</rscale>
<asrwt>0</asrwt>
<pdfrwt beam="1">  1        4 0.64132713E-03 0.12500859E+03</pdfrwt>
<pdfrwt beam="2">  1       -4 0.14418278E+00 0.12500859E+03</pdfrwt>
<totfact> 0.32618731E+03</totfact>
</mgrwt>
</event>
<event>
 5    1  0.3309811E-002  0.1249975E+03  0.7818608E-02  0.1235073E+00
          4   -1    0    0  501    0  0.00000000000E+00  0.00000000000E+00  0.14115761752E+03  0.14116333052E+03  0.12700000000E+01 0. -1.
         -4   -1    0    0    0  501 -0.00000000000E+00 -0.00000000000E+00 -0.27651010593E+02  0.27680160528E+02  0.12700000000E+01 0. -1.
         25    2    1    2    0    0  0.00000000000E+00  0.00000000000E+00  0.11350660693E+03  0.16884349105E+03  0.12499749859E+03 0.  0.
    9000005    1    3    3    0    0  0.57094720663E+02  0.19490449599E+02  0.78759285311E+02  0.99215471454E+02  0.10000000000E+01 0.  0.
    9000005    1    3    3    0    0 -0.57094720663E+02 -0.19490449599E+02  0.34747321616E+02  0.69628019594E+02  0.10000000000E+01 0.  0.
<mgrwt>
<rscale>  0 0.12499750E+03</rscale>
<asrwt>0</asrwt>
<pdfrwt beam="1">  1        4 0.21719239E-01 0.12499750E+03</pdfrwt>
<pdfrwt beam="2">  1       -4 0.42566833E-02 0.12499750E+03</pdfrwt>
<totfact> 0.95669780E+03</totfact>
</mgrwt>
</event>
<event>
 5    1  0.3309811E-002  0.1250005E+03  0.7818608E-02  0.1235068E+00
          4   -1    0    0  501    0  0.00000000000E+00  0.00000000000E+00  0.60961031460E+02  0.60974258967E+02  0.12700000000E+01 0. -1.
         -4   -1    0    0    0  501 -0.00000000000E+00 -0.00000000000E+00 -0.64051870585E+02  0.64064459925E+02  0.12700000000E+01 0. -1.
         25    2    1    2    0    0  0.00000000000E+00  0.00000000000E+00 -0.30908391253E+01  0.12503871889E+03  0.12500051174E+03 0.  0.
    9000005    1    3    3    0    0  0.14428889559E+02 -0.45890991531E+02 -0.41446282173E+02  0.63505671113E+02  0.10000000000E+01 0.  0.
    9000005    1    3    3    0    0 -0.14428889559E+02  0.45890991531E+02  0.38355443047E+02  0.61533047779E+02  0.10000000000E+01 0.  0.
<mgrwt>
<rscale>  0 0.12500051E+03</rscale>
<asrwt>0</asrwt>
<pdfrwt beam="1">  1        4 0.93806062E-02 0.12500051E+03</pdfrwt>
<pdfrwt beam="2">  1       -4 0.98561198E-02 0.12500051E+03</pdfrwt>
<totfact> 0.10451901E+04</totfact>
</mgrwt>
</event>
<event>
 5    1  0.3309811E-002  0.1250005E+03  0.7818608E-02  0.1235068E+00
          4   -1    0    0  501    0  0.00000000000E+00  0.00000000000E+00  0.12825546505E+02  0.12888271535E+02  0.12700000000E+01 0. -1.
         -4   -1    0    0    0  501 -0.00000000000E+00 -0.00000000000E+00 -0.30376350770E+03  0.30376616255E+03  0.12700000000E+01 0. -1.
         25    2    1    2    0    0  0.00000000000E+00  0.00000000000E+00 -0.29093796120E+03  0.31665443409E+03  0.12500053344E+03 0.  0.
    9000005    1    3    3    0    0  0.40467344264E+02 -0.31329277098E+02 -0.23631798190E+03  0.24179809372E+03  0.10000000000E+01 0.  0.
    9000005    1    3    3    0    0 -0.40467344264E+02  0.31329277098E+02 -0.54619979295E+02  0.74856340369E+02  0.10000000000E+01 0.  0.
<mgrwt>
<rscale>  0 0.12500053E+03</rscale>
<asrwt>0</asrwt>
<pdfrwt beam="1">  1        4 0.19781904E-02 0.12500053E+03</pdfrwt>
<pdfrwt beam="2">  1       -4 0.46737871E-01 0.12500053E+03</pdfrwt>
<totfact> 0.73554943E+03</totfact>
</mgrwt>
</event>
<event>
 5    1  0.3309811E-002  0.1249897E+03  0.7818608E-02  0.1235085E+00
         -4   -1    0    0    0  501 -0.00000000000E+00  0.00000000000E+00  0.15088506809E+02  0.15141860445E+02  0.12700000000E+01 0.  1.
          4   -1    0    0  501    0  0.00000000000E+00 -0.00000000000E+00 -0.25833485739E+03  0.25833797910E+03  0.12700000000E+01 0.  1.
         25    2    1    2    0    0  0.00000000000E+00  0.00000000000E+00 -0.24324635058E+03  0.27347983954E+03  0.12498974183E+03 0.  0.
    9000005    1    3    3    0    0 -0.35228945198E+02  0.46144942996E+02 -0.17219312720E+03  0.18171930937E+03  0.10000000000E+01 0.  0.
    9000005    1    3    3    0    0  0.35228945198E+02 -0.46144942996E+02 -0.71053223384E+02  0.91760530170E+02  0.10000000000E+01 0.  0.
<mgrwt>
<rscale>  0 0.12498974E+03</rscale>
<asrwt>0</asrwt>
<pdfrwt beam="2">  1        4 0.39748165E-01 0.12498974E+03</pdfrwt>
<pdfrwt beam="1">  1       -4 0.23256532E-02 0.12498974E+03</pdfrwt>
<totfact> 0.79068688E+03</totfact>
</mgrwt>
</event>
<event>
 5    1  0.3309811E-002  0.1250019E+03  0.7818608E-02  0.1235066E+00
          4   -1    0    0  501    0  0.00000000000E+00  0.00000000000E+00  0.31949136466E+02  0.31974368186E+02  0.12700000000E+01 0.  1.
         -4   -1    0    0    0  501 -0.00000000000E+00 -0.00000000000E+00 -0.12219147801E+03  0.12219807772E+03  0.12700000000E+01 0.  1.
         25    2    1    2    0    0  0.00000000000E+00  0.00000000000E+00 -0.90242341543E+02  0.15417244590E+03  0.12500185146E+03 0.  0.
    9000005    1    3    3    0    0 -0.19451680067E+02  0.40477297301E+02 -0.98720422904E+02  0.10845967616E+03  0.10000000000E+01 0.  0.
    9000005    1    3    3    0    0  0.19451680067E+02 -0.40477297301E+02  0.84780813604E+01  0.45712769745E+02  0.10000000000E+01 0.  0.
<mgrwt>
<rscale>  0 0.12500185E+03</rscale>
<asrwt>0</asrwt>
<pdfrwt beam="1">  1        4 0.49177004E-02 0.12500185E+03</pdfrwt>
<pdfrwt beam="2">  1       -4 0.18801137E-01 0.12500185E+03</pdfrwt>
<totfact> 0.98474103E+03</totfact>
</mgrwt>
</event>
<event>
 5    1  0.3309811E-002  0.1250017E+03  0.7818608E-02  0.1235067E+00
          4   -1    0    0  501    0  0.00000000000E+00  0.00000000000E+00  0.24715598313E+03  0.24715924603E+03  0.12700000000E+01 0.  1.
         -4   -1    0    0    0  501 -0.00000000000E+00 -0.00000000000E+00 -0.15776348218E+02  0.15827383331E+02  0.12700000000E+01 0.  1.
         25    2    1    2    0    0  0.00000000000E+00  0.00000000000E+00  0.23137963491E+03  0.26298662936E+03  0.12500172706E+03 0.  0.
    9000005    1    3    3    0    0 -0.22032488696E+01  0.44142459151E+02  0.22739332689E+02  0.49714064978E+02  0.10000000000E+01 0.  0.
    9000005    1    3    3    0    0  0.22032488696E+01 -0.44142459151E+02  0.20864030222E+03  0.21327256438E+03  0.10000000000E+01 0.  0.
<mgrwt>
<rscale>  0 0.12500173E+03</rscale>
<asrwt>0</asrwt>
<pdfrwt beam="1">  1        4 0.38028175E-01 0.12500173E+03</pdfrwt>
<pdfrwt beam="2">  1       -4 0.24313072E-02 0.12500173E+03</pdfrwt>
<totfact> 0.80485653E+03</totfact>
</mgrwt>
</event>
<event>
 5    1  0.3309811E-002  0.1250075E+03  0.7818608E-02  0.1235058E+00
          4   -1    0    0  501    0  0.00000000000E+00  0.00000000000E+00  0.38090477058E+03  0.38090688777E+03  0.12700000000E+01 0.  1.
         -4   -1    0    0    0  501 -0.00000000000E+00 -0.00000000000E+00 -0.10214948497E+02  0.10293593775E+02  0.12700000000E+01 0.  1.
         25    2    1    2    0    0  0.00000000000E+00  0.00000000000E+00  0.37068982209E+03  0.39120048155E+03  0.12500749004E+03 0.  0.
    9000005    1    3    3    0    0  0.67600012486E+01 -0.58703042262E+02  0.12167275746E+03  0.13526642116E+03  0.10000000000E+01 0.  0.
    9000005    1    3    3    0    0 -0.67600012486E+01  0.58703042262E+02  0.24901706463E+03  0.25593406038E+03  0.10000000000E+01 0.  0.
<mgrwt>
<rscale>  0 0.12500749E+03</rscale>
<asrwt>0</asrwt>
<pdfrwt beam="1">  1        4 0.58606940E-01 0.12500749E+03</pdfrwt>
<pdfrwt beam="2">  1       -4 0.15777432E-02 0.12500749E+03</pdfrwt>
<totfact> 0.65406894E+03</totfact>
</mgrwt>
</event>
<event>
 5    1  0.3309811E-002  0.1249788E+03  0.7818608E-02  0.1235102E+00
         -4   -1    0    0    0  501 -0.00000000000E+00  0.00000000000E+00  0.89935574568E+00  0.15561943186E+01  0.12700000000E+01 0. -1.
          4   -1    0    0  501    0  0.00000000000E+00 -0.00000000000E+00 -0.31798338400E+04  0.31798340936E+04  0.12700000000E+01 0. -1.
         25    2    1    2    0    0  0.00000000000E+00  0.00000000000E+00 -0.31789344843E+04  0.31813902880E+04  0.12497883409E+03 0.  0.
    9000005    1    3    3    0    0  0.61198786190E+02 -0.12064822571E+02 -0.14974189488E+04  0.14987179053E+04  0.10000000000E+01 0.  0.
    9000005    1    3    3    0    0 -0.61198786190E+02  0.12064822571E+02 -0.16815155355E+04  0.16826723827E+04  0.10000000000E+01 0.  0.
<mgrwt>
<rscale>  0 0.12497883E+03</rscale>
<asrwt>0</asrwt>
<pdfrwt beam="2">  1        4 0.48924916E+00 0.12497883E+03</pdfrwt>
<pdfrwt beam="1">  1       -4 0.18891052E-03 0.12497883E+03</pdfrwt>
<totfact> 0.12273999E+02</totfact>
</mgrwt>
</event>
<event>
 5    1  0.3309811E-002  0.1249986E+03  0.7818608E-02  0.1235072E+00
          4   -1    0    0  501    0  0.00000000000E+00  0.00000000000E+00  0.13428928422E+02  0.13488847933E+02  0.12700000000E+01 0.  1.
         -4   -1    0    0    0  501 -0.00000000000E+00 -0.00000000000E+00 -0.29016778709E+03  0.29017056633E+03  0.12700000000E+01 0.  1.
         25    2    1    2    0    0  0.00000000000E+00  0.00000000000E+00 -0.27673885866E+03  0.30365941426E+03  0.12499857589E+03 0.  0.
    9000005    1    3    3    0    0 -0.17216318177E+02  0.48296275264E+02 -0.22515469945E+03  0.23092113481E+03  0.10000000000E+01 0.  0.
    9000005    1    3    3    0    0  0.17216318177E+02 -0.48296275264E+02 -0.51584159213E+02  0.72738279452E+02  0.10000000000E+01 0.  0.
<mgrwt>
<rscale>  0 0.12499858E+03</rscale>
<asrwt>0</asrwt>
<pdfrwt beam="1">  1        4 0.20708122E-02 0.12499858E+03</pdfrwt>
<pdfrwt beam="2">  1       -4 0.44646016E-01 0.12499858E+03</pdfrwt>
<totfact> 0.75144467E+03</totfact>
</mgrwt>
</event>
<event>
 5    1  0.3309811E-002  0.1250009E+03  0.7818608E-02  0.1235068E+00
          4   -1    0    0  501    0  0.00000000000E+00  0.00000000000E+00  0.33379654784E+03  0.33379896382E+03  0.12700000000E+01 0.  1.
         -4   -1    0    0    0  501 -0.00000000000E+00 -0.00000000000E+00 -0.11665728643E+02  0.11734654863E+02  0.12700000000E+01 0.  1.
         25    2    1    2    0    0  0.00000000000E+00  0.00000000000E+00  0.32213081920E+03  0.34553361869E+03  0.12500086786E+03 0.  0.
    9000005    1    3    3    0    0  0.17263178990E+02  0.60037600272E+02  0.16566889918E+03  0.17705850714E+03  0.10000000000E+01 0.  0.
    9000005    1    3    3    0    0 -0.17263178990E+02 -0.60037600272E+02  0.15646192002E+03  0.16847511155E+03  0.10000000000E+01 0.  0.
<mgrwt>
<rscale>  0 0.12500087E+03</rscale>
<asrwt>0</asrwt>
<pdfrwt beam="1">  1        4 0.51358804E-01 0.12500087E+03</pdfrwt>
<pdfrwt beam="2">  1       -4 0.18002153E-02 0.12500087E+03</pdfrwt>
<totfact> 0.70217372E+03</totfact>
</mgrwt>
</event>
<event>
 5    1  0.3309811E-002  0.1249926E+03  0.7818608E-02  0.1235081E+00
          4   -1    0    0  501    0  0.00000000000E+00  0.00000000000E+00  0.88077271107E+01  0.88988177224E+01  0.12700000000E+01 0. -1.
         -4   -1    0    0    0  501 -0.00000000000E+00 -0.00000000000E+00 -0.44107659468E+03  0.44107842305E+03  0.12700000000E+01 0. -1.
         25    2    1    2    0    0  0.00000000000E+00  0.00000000000E+00 -0.43226886757E+03  0.44997724077E+03  0.12499257313E+03 0.  0.
    9000005    1    3    3    0    0 -0.26099033600E+02  0.56743648724E+02 -0.22313796154E+03  0.23171653179E+03  0.10000000000E+01 0.  0.
    9000005    1    3    3    0    0  0.26099033600E+02 -0.56743648724E+02 -0.20913090603E+03  0.21826070898E+03  0.10000000000E+01 0.  0.
<mgrwt>
<rscale>  0 0.12499257E+03</rscale>
<asrwt>0</asrwt>
<pdfrwt beam="1">  1        4 0.13621829E-02 0.12499257E+03</pdfrwt>
<pdfrwt beam="2">  1       -4 0.67865068E-01 0.12499257E+03</pdfrwt>
<totfact> 0.59975585E+03</totfact>
</mgrwt>
</event>
<event>
 5    1  0.3309811E-002  0.1249950E+03  0.7818608E-02  0.1235077E+00
          4   -1    0    0  501    0  0.00000000000E+00  0.00000000000E+00  0.19830018463E+02  0.19870644988E+02  0.12700000000E+01 0.  1.
         -4   -1    0    0    0  501 -0.00000000000E+00 -0.00000000000E+00 -0.19672656683E+03  0.19673066613E+03  0.12700000000E+01 0.  1.
         25    2    1    2    0    0  0.00000000000E+00  0.00000000000E+00 -0.17689654837E+03  0.21660131112E+03  0.12499495652E+03 0.  0.
    9000005    1    3    3    0    0  0.40344180823E+01  0.47966360096E+02 -0.19395945741E+02  0.51906174404E+02  0.10000000000E+01 0.  0.
    9000005    1    3    3    0    0 -0.40344180823E+01 -0.47966360096E+02 -0.15750060262E+03  0.16469513671E+03  0.10000000000E+01 0.  0.
<mgrwt>
<rscale>  0 0.12499496E+03</rscale>
<asrwt>0</asrwt>
<pdfrwt beam="1">  1        4 0.30542127E-02 0.12499496E+03</pdfrwt>
<pdfrwt beam="2">  1       -4 0.30269065E-01 0.12499496E+03</pdfrwt>
<totfact> 0.87418872E+03</totfact>
</mgrwt>
</event>
<event>
 4    1  0.3309811E-002  0.1253339E+03  0.7818608E-02  0.1234548E+00
         -4   -1    0    0    0  501 -0.00000000000E+00  0.00000000000E+00  0.66081527127E+02  0.66093729865E+02  0.12700000000E+01 0.  1.
          4   -1    0    0  501    0  0.00000000000E+00 -0.00000000000E+00 -0.59404351087E+02  0.59417925141E+02  0.12700000000E+01 0.  1.
    9000005    1    1    2    0    0  0.27572386746E+02 -0.19697039248E+02  0.56119477472E+02  0.65563752316E+02  0.10000000000E+01 0.  0.
    9000005    1    1    2    0    0 -0.27572386746E+02  0.19697039248E+02 -0.49442301432E+02  0.59947902690E+02  0.10000000000E+01 0.  0.
<mgrwt>
<rscale>  0 0.12533392E+03</rscale>
<asrwt>0</asrwt>
<pdfrwt beam="2">  1        4 0.91411138E-02 0.12533392E+03</pdfrwt>
<pdfrwt beam="1">  1       -4 0.10168372E-01 0.12533392E+03</pdfrwt>
<totfact> 0.10363354E+04</totfact>
</mgrwt>
</event>
<event>
 5    1  0.3309811E-002  0.1249977E+03  0.7818608E-02  0.1235073E+00
          4   -1    0    0  501    0  0.00000000000E+00  0.00000000000E+00  0.95317692045E+02  0.95326152324E+02  0.12700000000E+01 0.  1.
         -4   -1    0    0    0  501 -0.00000000000E+00 -0.00000000000E+00 -0.40959725045E+02  0.40979409168E+02  0.12700000000E+01 0.  1.
         25    2    1    2    0    0  0.00000000000E+00  0.00000000000E+00  0.54357967000E+02  0.13630556149E+03  0.12499767005E+03 0.  0.
    9000005    1    3    3    0    0  0.25216641037E+02 -0.53808528604E+02  0.48263837524E+02  0.76561313653E+02  0.10000000000E+01 0.  0.
    9000005    1    3    3    0    0 -0.25216641037E+02  0.53808528604E+02  0.60941294760E+01  0.59744247839E+02  0.10000000000E+01 0.  0.
<mgrwt>
<rscale>  0 0.12499767E+03</rscale>
<asrwt>0</asrwt>
<pdfrwt beam="1">  1        4 0.14666425E-01 0.12499767E+03</pdfrwt>
<pdfrwt beam="2">  1       -4 0.63036612E-02 0.12499767E+03</pdfrwt>
<totfact> 0.10211162E+04</totfact>
</mgrwt>
</event>
<event>
 5    1  0.3309811E-002  0.1250026E+03  0.7818608E-02  0.1235065E+00
         -4   -1    0    0    0  501 -0.00000000000E+00  0.00000000000E+00  0.29655257105E+03  0.29655529046E+03  0.12700000000E+01 0. -1.
          4   -1    0    0  501    0  0.00000000000E+00 -0.00000000000E+00 -0.13139351595E+02  0.13200585606E+02  0.12700000000E+01 0. -1.
         25    2    1    2    0    0  0.00000000000E+00  0.00000000000E+00  0.28341321946E+03  0.30975587606E+03  0.12500259914E+03 0.  0.
    9000005    1    3    3    0    0  0.38510183435E+02 -0.49147945631E+02  0.14819576978E+03  0.16081523861E+03  0.10000000000E+01 0.  0.
    9000005    1    3    3    0    0 -0.38510183435E+02  0.49147945631E+02  0.13521744968E+03  0.14894063746E+03  0.10000000000E+01 0.  0.
<mgrwt>
<rscale>  0 0.12500260E+03</rscale>
<asrwt>0</asrwt>
<pdfrwt beam="2">  1        4 0.20263583E-02 0.12500260E+03</pdfrwt>
<pdfrwt beam="1">  1       -4 0.45628390E-01 0.12500260E+03</pdfrwt>
<totfact> 0.74386862E+03</totfact>
</mgrwt>
</event>
<event>
 5    1  0.3309811E-002  0.1250066E+03  0.7818608E-02  0.1235059E+00
         -4   -1    0    0    0  501 -0.00000000000E+00  0.00000000000E+00  0.17903730898E+02  0.17948718062E+02  0.12700000000E+01 0.  1.
          4   -1    0    0  501    0  0.00000000000E+00 -0.00000000000E+00 -0.21788335645E+03  0.21788705771E+03  0.12700000000E+01 0.  1.
         25    2    1    2    0    0  0.00000000000E+00  0.00000000000E+00 -0.19997962555E+03  0.23583577577E+03  0.12500664982E+03 0.  0.
    9000005    1    3    3    0    0  0.19731086787E+02  0.38654355815E+02 -0.18482726475E+03  0.18985676918E+03  0.10000000000E+01 0.  0.
    9000005    1    3    3    0    0 -0.19731086787E+02 -0.38654355815E+02 -0.15152360803E+02  0.45979006591E+02  0.10000000000E+01 0.  0.
<mgrwt>
<rscale>  0 0.12500665E+03</rscale>
<asrwt>0</asrwt>
<pdfrwt beam="2">  1        4 0.33524260E-01 0.12500665E+03</pdfrwt>
<pdfrwt beam="1">  1       -4 0.27581655E-02 0.12500665E+03</pdfrwt>
<totfact> 0.84408972E+03</totfact>
</mgrwt>
</event>
<event>
 5    1  0.3309811E-002  0.1249997E+03  0.7818608E-02  0.1235070E+00
         -4   -1    0    0    0  501 -0.00000000000E+00  0.00000000000E+00  0.24138602729E+02  0.24171988782E+02  0.12700000000E+01 0.  1.
          4   -1    0    0  501    0  0.00000000000E+00 -0.00000000000E+00 -0.16167730832E+03  0.16168229626E+03  0.12700000000E+01 0.  1.
         25    2    1    2    0    0  0.00000000000E+00  0.00000000000E+00 -0.13753870559E+03  0.18585428504E+03  0.12499967894E+03 0.  0.
    9000005    1    3    3    0    0  0.88841163433E+01  0.40773416104E+02  0.39388964761E+00  0.41743911329E+02  0.10000000000E+01 0.  0.
    9000005    1    3    3    0    0 -0.88841163433E+01 -0.40773416104E+02 -0.13793259523E+03  0.14411037371E+03  0.10000000000E+01 0.  0.
<mgrwt>
<rscale>  0 0.12499968E+03</rscale>
<asrwt>0</asrwt>
<pdfrwt beam="2">  1        4 0.24876383E-01 0.12499968E+03</pdfrwt>
<pdfrwt beam="1">  1       -4 0.37165831E-02 0.12499968E+03</pdfrwt>
<totfact> 0.92574367E+03</totfact>
</mgrwt>
</event>
<event>
 5    1  0.3309811E-002  0.1249928E+03  0.7818608E-02  0.1235081E+00
          4   -1    0    0  501    0  0.00000000000E+00  0.00000000000E+00  0.11324016271E+03  0.11324728408E+03  0.12700000000E+01 0. -1.
         -4   -1    0    0    0  501 -0.00000000000E+00 -0.00000000000E+00 -0.34471394046E+02  0.34494780873E+02  0.12700000000E+01 0. -1.
         25    2    1    2    0    0  0.00000000000E+00  0.00000000000E+00  0.78768768664E+02  0.14774206495E+03  0.12499279515E+03 0.  0.
    9000005    1    3    3    0    0 -0.58237184022E+02  0.83027742544E+01  0.64299013733E+02  0.87154281766E+02  0.10000000000E+01 0.  0.
    9000005    1    3    3    0    0  0.58237184022E+02 -0.83027742544E+01  0.14469754930E+02  0.60587783182E+02  0.10000000000E+01 0.  0.
<mgrwt>
<rscale>  0 0.12499280E+03</rscale>
<asrwt>0</asrwt>
<pdfrwt beam="1">  1        4 0.17423910E-01 0.12499280E+03</pdfrwt>
<pdfrwt beam="2">  1       -4 0.53056383E-02 0.12499280E+03</pdfrwt>
<totfact> 0.99771883E+03</totfact>
</mgrwt>
</event>
<event>
 5    1  0.3309811E-002  0.1249960E+03  0.7818608E-02  0.1235076E+00
         -4   -1    0    0    0  501 -0.00000000000E+00  0.00000000000E+00  0.11740890634E+03  0.11741577487E+03  0.12700000000E+01 0. -1.
          4   -1    0    0  501    0  0.00000000000E+00 -0.00000000000E+00 -0.33248388707E+02  0.33272635177E+02  0.12700000000E+01 0. -1.
         25    2    1    2    0    0  0.00000000000E+00  0.00000000000E+00  0.84160517636E+02  0.15068841005E+03  0.12499601671E+03 0.  0.
    9000005    1    3    3    0    0 -0.46115000765E+02 -0.59460860667E+01  0.92411637366E+02  0.10345462752E+03  0.10000000000E+01 0.  0.
    9000005    1    3    3    0    0  0.46115000765E+02  0.59460860667E+01 -0.82511197297E+01  0.47233782527E+02  0.10000000000E+01 0.  0.
<mgrwt>
<rscale>  0 0.12499602E+03</rscale>
<asrwt>0</asrwt>
<pdfrwt beam="2">  1        4 0.51175302E-02 0.12499602E+03</pdfrwt>
<pdfrwt beam="1">  1       -4 0.18065302E-01 0.12499602E+03</pdfrwt>
<totfact> 0.99175541E+03</totfact>
</mgrwt>
</event>
<event>
 5    1  0.3309811E-002  0.1249979E+03  0.7818608E-02  0.1235073E+00
          4   -1    0    0  501    0  0.00000000000E+00  0.00000000000E+00  0.14516788564E+02  0.14572235594E+02  0.12700000000E+01 0.  1.
         -4   -1    0    0    0  501 -0.00000000000E+00 -0.00000000000E+00 -0.26850622004E+03  0.26850922349E+03  0.12700000000E+01 0.  1.
         25    2    1    2    0    0  0.00000000000E+00  0.00000000000E+00 -0.25398943148E+03  0.28308145909E+03  0.12499792469E+03 0.  0.
    9000005    1    3    3    0    0  0.45885540827E+02  0.26001780473E+02 -0.51083870105E+02  0.73431173419E+02  0.10000000000E+01 0.  0.
    9000005    1    3    3    0    0 -0.45885540827E+02 -0.26001780473E+02 -0.20290556137E+03  0.20965028567E+03  0.10000000000E+01 0.  0.
<mgrwt>
<rscale>  0 0.12499792E+03</rscale>
<asrwt>0</asrwt>
<pdfrwt beam="1">  1        4 0.22378485E-02 0.12499792E+03</pdfrwt>
<pdfrwt beam="2">  1       -4 0.41313142E-01 0.12499792E+03</pdfrwt>
<totfact> 0.77774881E+03</totfact>
</mgrwt>
</event>
<event>
 5    1  0.3309811E-002  0.1249995E+03  0.7818608E-02  0.1235070E+00
         -4   -1    0    0    0  501 -0.00000000000E+00  0.00000000000E+00  0.30177079755E+03  0.30177346993E+03  0.12700000000E+01 0. -1.
          4   -1    0    0  501    0  0.00000000000E+00 -0.00000000000E+00 -0.12910431726E+02  0.12972746330E+02  0.12700000000E+01 0. -1.
         25    2    1    2    0    0  0.00000000000E+00  0.00000000000E+00  0.28886036582E+03  0.31474621626E+03  0.12499947882E+03 0.  0.
    9000005    1    3    3    0    0 -0.46662380114E+02 -0.41566397893E+02  0.14374394738E+03  0.15674331105E+03  0.10000000000E+01 0.  0.
    9000005    1    3    3    0    0  0.46662380114E+02  0.41566397893E+02  0.14511641844E+03  0.15800290521E+03  0.10000000000E+01 0.  0.
<mgrwt>
<rscale>  0 0.12499948E+03</rscale>
<asrwt>0</asrwt>
<pdfrwt beam="2">  1        4 0.19912193E-02 0.12499948E+03</pdfrwt>
<pdfrwt beam="1">  1       -4 0.46431275E-01 0.12499948E+03</pdfrwt>
<totfact> 0.73786232E+03</totfact>
</mgrwt>
</event>
<event>
 5    1  0.3309811E-002  0.1249983E+03  0.7818608E-02  0.1235072E+00
          4   -1    0    0  501    0  0.00000000000E+00  0.00000000000E+00  0.57727303274E+01  0.59107795960E+01  0.12700000000E+01 0. -1.
         -4   -1    0    0    0  501 -0.00000000000E+00 -0.00000000000E+00 -0.66852095749E+03  0.66852216381E+03  0.12700000000E+01 0. -1.
         25    2    1    2    0    0  0.00000000000E+00  0.00000000000E+00 -0.66274822716E+03  0.67443294340E+03  0.12499833016E+03 0.  0.
    9000005    1    3    3    0    0 -0.22463393219E+02  0.12680436487E+02 -0.63848144791E+03  0.63900309611E+03  0.10000000000E+01 0.  0.
    9000005    1    3    3    0    0  0.22463393219E+02 -0.12680436487E+02 -0.24266779249E+02  0.35429847298E+02  0.10000000000E+01 0.  0.
<mgrwt>
<rscale>  0 0.12499833E+03</rscale>
<asrwt>0</asrwt>
<pdfrwt beam="1">  1        4 0.89882486E-03 0.12499833E+03</pdfrwt>
<pdfrwt beam="2">  1       -4 0.10286003E+00 0.12499833E+03</pdfrwt>
<totfact> 0.44472791E+03</totfact>
</mgrwt>
</event>
<event>
 5    1  0.3309811E-002  0.1250012E+03  0.7818608E-02  0.1235067E+00
          4   -1    0    0  501    0  0.00000000000E+00  0.00000000000E+00  0.78657417610E+01  0.79676090172E+01  0.12700000000E+01 0. -1.
         -4   -1    0    0    0  501 -0.00000000000E+00 -0.00000000000E+00 -0.49332760054E+03  0.49332923525E+03  0.12700000000E+01 0. -1.
         25    2    1    2    0    0  0.00000000000E+00  0.00000000000E+00 -0.48546185878E+03  0.50129684427E+03  0.12500123898E+03 0.  0.
    9000005    1    3    3    0    0  0.33011064520E+01  0.58913872828E+02 -0.32526842911E+03  0.33057872390E+03  0.10000000000E+01 0.  0.
    9000005    1    3    3    0    0 -0.33011064520E+01 -0.58913872828E+02 -0.16019342966E+03  0.17071812037E+03  0.10000000000E+01 0.  0.
<mgrwt>
<rscale>  0 0.12500124E+03</rscale>
<asrwt>0</asrwt>
<pdfrwt beam="1">  1        4 0.12180762E-02 0.12500124E+03</pdfrwt>
<pdfrwt beam="2">  1       -4 0.75904491E-01 0.12500124E+03</pdfrwt>
<totfact> 0.55762379E+03</totfact>
</mgrwt>
</event>
<event>
 5    1  0.3309811E-002  0.1249983E+03  0.7818608E-02  0.1235072E+00
         -4   -1    0    0    0  501 -0.00000000000E+00  0.00000000000E+00  0.32853211397E+02  0.32877749301E+02  0.12700000000E+01 0.  1.
          4   -1    0    0  501    0  0.00000000000E+00 -0.00000000000E+00 -0.11882444987E+03  0.11883123658E+03  0.12700000000E+01 0.  1.
         25    2    1    2    0    0  0.00000000000E+00  0.00000000000E+00 -0.85971238475E+02  0.15170898588E+03  0.12499825020E+03 0.  0.
    9000005    1    3    3    0    0 -0.39415220512E+02 -0.28541018280E+02  0.45964228876E+01  0.48890453422E+02  0.10000000000E+01 0.  0.
    9000005    1    3    3    0    0  0.39415220512E+02  0.28541018280E+02 -0.90567661362E+02  0.10281853246E+03  0.10000000000E+01 0.  0.
<mgrwt>
<rscale>  0 0.12499825E+03</rscale>
<asrwt>0</asrwt>
<pdfrwt beam="2">  1        4 0.18283094E-01 0.12499825E+03</pdfrwt>
<pdfrwt beam="1">  1       -4 0.50567499E-02 0.12499825E+03</pdfrwt>
<totfact> 0.98968019E+03</totfact>
</mgrwt>
</event>
<event>
 5    1  0.3309811E-002  0.1250052E+03  0.7818608E-02  0.1235061E+00
         -4   -1    0    0    0  501 -0.00000000000E+00  0.00000000000E+00  0.30446683484E+02  0.30473159258E+02  0.12700000000E+01 0.  1.
          4   -1    0    0  501    0  0.00000000000E+00 -0.00000000000E+00 -0.12822329896E+03  0.12822958822E+03  0.12700000000E+01 0.  1.
         25    2    1    2    0    0  0.00000000000E+00  0.00000000000E+00 -0.97776615472E+02  0.15870274748E+03  0.12500518199E+03 0.  0.
    9000005    1    3    3    0    0  0.90338064552E+01 -0.52360675654E+02 -0.71211380780E+01  0.53618659266E+02  0.10000000000E+01 0.  0.
    9000005    1    3    3    0    0 -0.90338064552E+01  0.52360675654E+02 -0.90655477394E+02  0.10508408821E+03  0.10000000000E+01 0.  0.
<mgrwt>
<rscale>  0 0.12500518E+03</rscale>
<asrwt>0</asrwt>
<pdfrwt beam="2">  1        4 0.19729181E-01 0.12500518E+03</pdfrwt>
<pdfrwt beam="1">  1       -4 0.46866256E-02 0.12500518E+03</pdfrwt>
<totfact> 0.97582101E+03</totfact>
</mgrwt>
</event>
<event>
 5    1  0.3309811E-002  0.1250050E+03  0.7818608E-02  0.1235062E+00
          4   -1    0    0  501    0  0.00000000000E+00  0.00000000000E+00  0.11381078008E+02  0.11451717627E+02  0.12700000000E+01 0. -1.
         -4   -1    0    0    0  501 -0.00000000000E+00 -0.00000000000E+00 -0.34211665474E+03  0.34211901197E+03  0.12700000000E+01 0. -1.
         25    2    1    2    0    0  0.00000000000E+00  0.00000000000E+00 -0.33073557673E+03  0.35357072960E+03  0.12500495634E+03 0.  0.
    9000005    1    3    3    0    0 -0.36385101889E+02 -0.14053192762E+02 -0.27259520941E+02  0.47596736739E+02  0.10000000000E+01 0.  0.
    9000005    1    3    3    0    0  0.36385101889E+02  0.14053192762E+02 -0.30347605579E+03  0.30597399286E+03  0.10000000000E+01 0.  0.
<mgrwt>
<rscale>  0 0.12500496E+03</rscale>
<asrwt>0</asrwt>
<pdfrwt beam="1">  1        4 0.17565505E-02 0.12500496E+03</pdfrwt>
<pdfrwt beam="2">  1       -4 0.52638939E-01 0.12500496E+03</pdfrwt>
<totfact> 0.69325911E+03</totfact>
</mgrwt>
</event>
<event>
 4    1  0.3309811E-002  0.1250727E+03  0.7818608E-02  0.1234956E+00
          4   -1    0    0  501    0  0.00000000000E+00  0.00000000000E+00  0.20243912337E+03  0.20244310700E+03  0.12700000000E+01 0. -1.
         -4   -1    0    0    0  501 -0.00000000000E+00 -0.00000000000E+00 -0.19293322810E+02  0.19335077063E+02  0.12700000000E+01 0. -1.
    9000005    1    1    2    0    0  0.58866627007E+02 -0.18564034679E+02  0.10929522145E+03  0.12552429482E+03  0.10000000000E+01 0.  0.
    9000005    1    1    2    0    0 -0.58866627007E+02  0.18564034679E+02  0.73850579109E+02  0.96253889238E+02  0.10000000000E+01 0.  0.
<mgrwt>
<rscale>  0 0.12507269E+03</rscale>
<asrwt>0</asrwt>
<pdfrwt beam="1">  1        4 0.31148000E-01 0.12507269E+03</pdfrwt>
<pdfrwt beam="2">  1       -4 0.29717217E-02 0.12507269E+03</pdfrwt>
<totfact> 0.86447330E+03</totfact>
</mgrwt>
</event>
<event>
 5    1  0.3309811E-002  0.1250005E+03  0.7818608E-02  0.1235068E+00
          4   -1    0    0  501    0  0.00000000000E+00  0.00000000000E+00  0.46166624083E+02  0.46184089027E+02  0.12700000000E+01 0. -1.
         -4   -1    0    0    0  501 -0.00000000000E+00 -0.00000000000E+00 -0.84574494079E+02  0.84584028922E+02  0.12700000000E+01 0. -1.
         25    2    1    2    0    0  0.00000000000E+00  0.00000000000E+00 -0.38407869996E+02  0.13076811795E+03  0.12500054478E+03 0.  0.
    9000005    1    3    3    0    0 -0.15080382764E+02  0.42168598225E+02 -0.64800242109E+02  0.78776138506E+02  0.10000000000E+01 0.  0.
    9000005    1    3    3    0    0  0.15080382764E+02 -0.42168598225E+02  0.26392372113E+02  0.51991979443E+02  0.10000000000E+01 0.  0.
<mgrwt>
<rscale>  0 0.12500054E+03</rscale>
<asrwt>0</asrwt>
<pdfrwt beam="1">  1        4 0.71046345E-02 0.12500054E+03</pdfrwt>
<pdfrwt beam="2">  1       -4 0.13013537E-01 0.12500054E+03</pdfrwt>
<totfact> 0.10327936E+04</totfact>
</mgrwt>
</event>
<event>
 5    1  0.3309811E-002  0.1249938E+03  0.7818608E-02  0.1235079E+00
          4   -1    0    0  501    0  0.00000000000E+00  0.00000000000E+00  0.10910423518E+03  0.10911162649E+03  0.12700000000E+01 0.  1.
         -4   -1    0    0    0  501 -0.00000000000E+00 -0.00000000000E+00 -0.35779484710E+02  0.35802017068E+02  0.12700000000E+01 0.  1.
         25    2    1    2    0    0  0.00000000000E+00  0.00000000000E+00  0.73324750474E+02  0.14491364356E+03  0.12499378007E+03 0.  0.
    9000005    1    3    3    0    0  0.24563025669E+01 -0.59569911413E+02  0.14964754520E+02  0.61478058248E+02  0.10000000000E+01 0.  0.
    9000005    1    3    3    0    0 -0.24563025669E+01  0.59569911413E+02  0.58359995954E+02  0.83435585309E+02  0.10000000000E+01 0.  0.
<mgrwt>
<rscale>  0 0.12499378E+03</rscale>
<asrwt>0</asrwt>
<pdfrwt beam="1">  1        4 0.16787569E-01 0.12499378E+03</pdfrwt>
<pdfrwt beam="2">  1       -4 0.55068380E-02 0.12499378E+03</pdfrwt>
<totfact> 0.10034149E+04</totfact>
</mgrwt>
</event>
<event>
 5    1  0.3309811E-002  0.1249652E+03  0.7818608E-02  0.1235124E+00
         -4   -1    0    0    0  501 -0.00000000000E+00  0.00000000000E+00  0.80581868772E+03  0.80581968850E+03  0.12700000000E+01 0.  1.
          4   -1    0    0  501    0  0.00000000000E+00 -0.00000000000E+00 -0.47606105807E+01  0.49270998672E+01  0.12700000000E+01 0.  1.
         25    2    1    2    0    0  0.00000000000E+00  0.00000000000E+00  0.80105807714E+03  0.81074678837E+03  0.12496524278E+03 0.  0.
    9000005    1    3    3    0    0  0.39915325585E+02 -0.47945230023E+02  0.42214383606E+03  0.42672988719E+03  0.10000000000E+01 0.  0.
    9000005    1    3    3    0    0 -0.39915325585E+02  0.47945230023E+02  0.37891424108E+03  0.38401690118E+03  0.10000000000E+01 0.  0.
<mgrwt>
<rscale>  0 0.12496524E+03</rscale>
<asrwt>0</asrwt>
<pdfrwt beam="2">  1        4 0.74528584E-03 0.12496524E+03</pdfrwt>
<pdfrwt beam="1">  1       -4 0.12398493E+00 0.12496524E+03</pdfrwt>
<totfact> 0.37818164E+03</totfact>
</mgrwt>
</event>
<event>
 5    1  0.3309811E-002  0.1249981E+03  0.7818608E-02  0.1235072E+00
          4   -1    0    0  501    0  0.00000000000E+00  0.00000000000E+00  0.12825435886E+03  0.12826064660E+03  0.12700000000E+01 0.  1.
         -4   -1    0    0    0  501 -0.00000000000E+00 -0.00000000000E+00 -0.30435845953E+02  0.30462331147E+02  0.12700000000E+01 0.  1.
         25    2    1    2    0    0  0.00000000000E+00  0.00000000000E+00  0.97818512904E+02  0.15872297775E+03  0.12499808878E+03 0.  0.
    9000005    1    3    3    0    0 -0.24659902294E+02  0.18275580554E+02 -0.20210776350E+02  0.36763883179E+02  0.10000000000E+01 0.  0.
    9000005    1    3    3    0    0  0.24659902294E+02 -0.18275580554E+02  0.11802928925E+03  0.12195909457E+03  0.10000000000E+01 0.  0.
<mgrwt>
<rscale>  0 0.12499809E+03</rscale>
<asrwt>0</asrwt>
<pdfrwt beam="1">  1        4 0.19733960E-01 0.12499809E+03</pdfrwt>
<pdfrwt beam="2">  1       -4 0.46849589E-02 0.12499809E+03</pdfrwt>
<totfact> 0.97593744E+03</totfact>
</mgrwt>
</event>
<event>
 5    1  0.3309811E-002  0.1249996E+03  0.7818608E-02  0.1235070E+00
         -4   -1    0    0    0  501 -0.00000000000E+00  0.00000000000E+00  0.21858208873E+02  0.21895072394E+02  0.12700000000E+01 0. -1.
          4   -1    0    0  501    0  0.00000000000E+00 -0.00000000000E+00 -0.17851777519E+03  0.17852229261E+03  0.12700000000E+01 0. -1.
         25    2    1    2    0    0  0.00000000000E+00  0.00000000000E+00 -0.15665956632E+03  0.20041736501E+03  0.12499960191E+03 0.  0.
    9000005    1    3    3    0    0  0.24370007823E+02 -0.53559167300E+02 -0.11206649748E+03  0.12657954630E+03  0.10000000000E+01 0.  0.
    9000005    1    3    3    0    0 -0.24370007823E+02  0.53559167300E+02 -0.44593068835E+02  0.73837818706E+02  0.10000000000E+01 0.  0.
<mgrwt>
<rscale>  0 0.12499960E+03</rscale>
<asrwt>0</asrwt>
<pdfrwt beam="2">  1        4 0.27467455E-01 0.12499960E+03</pdfrwt>
<pdfrwt beam="1">  1       -4 0.33659846E-02 0.12499960E+03</pdfrwt>
<totfact> 0.90065965E+03</totfact>
</mgrwt>
</event>
<event>
 5    1  0.3309811E-002  0.1250373E+03  0.7818608E-02  0.1235011E+00
          4   -1    0    0  501    0  0.00000000000E+00  0.00000000000E+00  0.84110418527E+01  0.85063814309E+01  0.12700000000E+01 0. -1.
         -4   -1    0    0    0  501 -0.00000000000E+00 -0.00000000000E+00 -0.46198169012E+03  0.46198343574E+03  0.12700000000E+01 0. -1.
         25    2    1    2    0    0  0.00000000000E+00  0.00000000000E+00 -0.45357064826E+03  0.47048981718E+03  0.12503733482E+03 0.  0.
    9000005    1    3    3    0    0  0.42369346696E+02 -0.11970804543E+02 -0.59812097112E+02  0.74276164830E+02  0.10000000000E+01 0.  0.
    9000005    1    3    3    0    0 -0.42369346696E+02  0.11970804543E+02 -0.39375855115E+03  0.39621365235E+03  0.10000000000E+01 0.  0.
<mgrwt>
<rscale>  0 0.12503733E+03</rscale>
<asrwt>0</asrwt>
<pdfrwt beam="1">  1        4 0.13014749E-02 0.12503733E+03</pdfrwt>
<pdfrwt beam="2">  1       -4 0.71081555E-01 0.12503733E+03</pdfrwt>
<totfact> 0.58181151E+03</totfact>
</mgrwt>
</event>
<event>
 5    1  0.3309811E-002  0.1249984E+03  0.7818608E-02  0.1235072E+00
          4   -1    0    0  501    0  0.00000000000E+00  0.00000000000E+00  0.30599243671E+02  0.30625587557E+02  0.12700000000E+01 0. -1.
         -4   -1    0    0    0  501 -0.00000000000E+00 -0.00000000000E+00 -0.12757067844E+03  0.12757699988E+03  0.12700000000E+01 0. -1.
         25    2    1    2    0    0  0.00000000000E+00  0.00000000000E+00 -0.96971434769E+02  0.15820258743E+03  0.12499839803E+03 0.  0.
    9000005    1    3    3    0    0  0.15112945398E+02 -0.60270864161E+02 -0.40074068170E+02  0.73945311718E+02  0.10000000000E+01 0.  0.
    9000005    1    3    3    0    0 -0.15112945398E+02  0.60270864161E+02 -0.56897366598E+02  0.84257275716E+02  0.10000000000E+01 0.  0.
<mgrwt>
<rscale>  0 0.12499840E+03</rscale>
<asrwt>0</asrwt>
<pdfrwt beam="1">  1        4 0.47100887E-02 0.12499840E+03</pdfrwt>
<pdfrwt beam="2">  1       -4 0.19628771E-01 0.12499840E+03</pdfrwt>
<totfact> 0.97693954E+03</totfact>
</mgrwt>
</event>
<event>
 5    1  0.3309811E-002  0.1249982E+03  0.7818608E-02  0.1235072E+00
          4   -1    0    0  501    0  0.00000000000E+00  0.00000000000E+00  0.57993723900E+02  0.58007628048E+02  0.12700000000E+01 0.  1.
         -4   -1    0    0    0  501 -0.00000000000E+00 -0.00000000000E+00 -0.67326514779E+02  0.67338491907E+02  0.12700000000E+01 0.  1.
         25    2    1    2    0    0  0.00000000000E+00  0.00000000000E+00 -0.93327908795E+01  0.12534611995E+03  0.12499819520E+03 0.  0.
    9000005    1    3    3    0    0 -0.23147074391E+02 -0.30730444045E+02 -0.54047650626E+02  0.66349798661E+02  0.10000000000E+01 0.  0.
    9000005    1    3    3    0    0  0.23147074391E+02  0.30730444045E+02  0.44714859747E+02  0.58996321294E+02  0.10000000000E+01 0.  0.
<mgrwt>
<rscale>  0 0.12499820E+03</rscale>
<asrwt>0</asrwt>
<pdfrwt beam="1">  1        4 0.89241022E-02 0.12499820E+03</pdfrwt>
<pdfrwt beam="2">  1       -4 0.10359916E-01 0.12499820E+03</pdfrwt>
<totfact> 0.10445775E+04</totfact>
</mgrwt>
</event>
<event>
 5    1  0.3309811E-002  0.1250167E+03  0.7818608E-02  0.1235043E+00
         -4   -1    0    0    0  501 -0.00000000000E+00  0.00000000000E+00  0.33362138842E+03  0.33362380568E+03  0.12700000000E+01 0. -1.
          4   -1    0    0  501    0  0.00000000000E+00 -0.00000000000E+00 -0.11674865896E+02  0.11743738488E+02  0.12700000000E+01 0. -1.
         25    2    1    2    0    0  0.00000000000E+00  0.00000000000E+00  0.32194652253E+03  0.34536754416E+03  0.12501670766E+03 0.  0.
    9000005    1    3    3    0    0 -0.12401074874E+02 -0.48275672185E+02  0.56799524825E+02  0.75574553940E+02  0.10000000000E+01 0.  0.
    9000005    1    3    3    0    0  0.12401074874E+02  0.48275672185E+02  0.26514699770E+03  0.26979299022E+03  0.10000000000E+01 0.  0.
<mgrwt>
<rscale>  0 0.12501671E+03</rscale>
<asrwt>0</asrwt>
<pdfrwt beam="2">  1        4 0.18016170E-02 0.12501671E+03</pdfrwt>
<pdfrwt beam="1">  1       -4 0.51331854E-01 0.12501671E+03</pdfrwt>
<totfact> 0.70211234E+03</totfact>
</mgrwt>
</event>
<event>
 5    1  0.3309811E-002  0.1249961E+03  0.7818608E-02  0.1235075E+00
         -4   -1    0    0    0  501 -0.00000000000E+00  0.00000000000E+00  0.85963561774E+02  0.85972942562E+02  0.12700000000E+01 0. -1.
          4   -1    0    0  501    0  0.00000000000E+00 -0.00000000000E+00 -0.45417188754E+02  0.45434941777E+02  0.12700000000E+01 0. -1.
         25    2    1    2    0    0  0.00000000000E+00  0.00000000000E+00  0.40546373020E+02  0.13140788434E+03  0.12499609474E+03 0.  0.
    9000005    1    3    3    0    0  0.28430907478E+02  0.21841252978E+01  0.78730524437E+02  0.83741163005E+02  0.10000000000E+01 0.  0.
    9000005    1    3    3    0    0 -0.28430907478E+02 -0.21841252978E+01 -0.38184151417E+02  0.47666721334E+02  0.10000000000E+01 0.  0.
<mgrwt>
<rscale>  0 0.12499609E+03</rscale>
<asrwt>0</asrwt>
<pdfrwt beam="2">  1        4 0.69893471E-02 0.12499609E+03</pdfrwt>
<pdfrwt beam="1">  1       -4 0.13227251E-01 0.12499609E+03</pdfrwt>
<totfact> 0.10315262E+04</totfact>
</mgrwt>
</event>
<event>
 5    1  0.3309811E-002  0.1250000E+03  0.7818608E-02  0.1235069E+00
         -4   -1    0    0    0  501 -0.00000000000E+00  0.00000000000E+00  0.99453876599E+01  0.10026147600E+02  0.12700000000E+01 0.  1.
          4   -1    0    0  501    0  0.00000000000E+00 -0.00000000000E+00 -0.39109998365E+03  0.39110204565E+03  0.12700000000E+01 0.  1.
         25    2    1    2    0    0  0.00000000000E+00  0.00000000000E+00 -0.38115459599E+03  0.40112819325E+03  0.12500000550E+03 0.  0.
    9000005    1    3    3    0    0 -0.31080575569E+02 -0.46248535953E+02 -0.99794140104E+02  0.11430135456E+03  0.10000000000E+01 0.  0.
    9000005    1    3    3    0    0  0.31080575569E+02  0.46248535953E+02 -0.28136045588E+03  0.28682683868E+03  0.10000000000E+01 0.  0.
<mgrwt>
<rscale>  0 0.12500001E+03</rscale>
<asrwt>0</asrwt>
<pdfrwt beam="2">  1        4 0.60175587E-01 0.12500001E+03</pdfrwt>
<pdfrwt beam="1">  1       -4 0.15364309E-02 0.12500001E+03</pdfrwt>
<totfact> 0.64443208E+03</totfact>
</mgrwt>
</event>
<event>
 5    1  0.3309811E-002  0.1250025E+03  0.7818608E-02  0.1235065E+00
          4   -1    0    0  501    0  0.00000000000E+00  0.00000000000E+00  0.29817866033E+03  0.29818136491E+03  0.12700000000E+01 0.  1.
         -4   -1    0    0    0  501 -0.00000000000E+00 -0.00000000000E+00 -0.13067349889E+02  0.13128919724E+02  0.12700000000E+01 0.  1.
         25    2    1    2    0    0  0.00000000000E+00  0.00000000000E+00  0.28511131044E+03  0.31131028463E+03  0.12500253587E+03 0.  0.
    9000005    1    3    3    0    0 -0.58665636060E+02 -0.28256522652E+01  0.89388155205E+02  0.10696206550E+03  0.10000000000E+01 0.  0.
    9000005    1    3    3    0    0  0.58665636060E+02  0.28256522652E+01  0.19572315524E+03  0.20434821913E+03  0.10000000000E+01 0.  0.
<mgrwt>
<rscale>  0 0.12500254E+03</rscale>
<asrwt>0</asrwt>
<pdfrwt beam="1">  1        4 0.45878584E-01 0.12500254E+03</pdfrwt>
<pdfrwt beam="2">  1       -4 0.20153057E-02 0.12500254E+03</pdfrwt>
<totfact> 0.74197476E+03</totfact>
</mgrwt>
</event>
<event>
 5    1  0.3309811E-002  0.1249981E+03  0.7818608E-02  0.1235072E+00
         -4   -1    0    0    0  501 -0.00000000000E+00  0.00000000000E+00  0.13160764984E+03  0.13161377738E+03  0.12700000000E+01 0. -1.
          4   -1    0    0  501    0  0.00000000000E+00 -0.00000000000E+00 -0.29659700016E+02  0.29686877658E+02  0.12700000000E+01 0. -1.
         25    2    1    2    0    0  0.00000000000E+00  0.00000000000E+00  0.10194794982E+03  0.16130065504E+03  0.12499806735E+03 0.  0.
    9000005    1    3    3    0    0  0.12288600419E+02  0.17437569555E+02  0.12676984977E+03  0.12855610970E+03  0.10000000000E+01 0.  0.
    9000005    1    3    3    0    0 -0.12288600419E+02 -0.17437569555E+02 -0.24821899945E+02  0.32744545333E+02  0.10000000000E+01 0.  0.
<mgrwt>
<rscale>  0 0.12499807E+03</rscale>
<asrwt>0</asrwt>
<pdfrwt beam="2">  1        4 0.45655927E-02 0.12499807E+03</pdfrwt>
<pdfrwt beam="1">  1       -4 0.20249893E-01 0.12499807E+03</pdfrwt>
<totfact> 0.97096830E+03</totfact>
</mgrwt>
</event>
<event>
 5    1  0.3309811E-002  0.1249998E+03  0.7818608E-02  0.1235070E+00
         -4   -1    0    0    0  501 -0.00000000000E+00  0.00000000000E+00  0.41865324286E+03  0.41865516915E+03  0.12700000000E+01 0.  1.
          4   -1    0    0  501    0  0.00000000000E+00 -0.00000000000E+00 -0.92853146515E+01  0.93717644111E+01  0.12700000000E+01 0.  1.
         25    2    1    2    0    0  0.00000000000E+00  0.00000000000E+00  0.40936792820E+03  0.42802693356E+03  0.12499982084E+03 0.  0.
    9000005    1    3    3    0    0  0.20491824206E+02 -0.56573218698E+02  0.26247064994E+03  0.26928105395E+03  0.10000000000E+01 0.  0.
    9000005    1    3    3    0    0 -0.20491824206E+02  0.56573218698E+02  0.14689727826E+03  0.15874587961E+03  0.10000000000E+01 0.  0.
<mgrwt>
<rscale>  0 0.12499982E+03</rscale>
<asrwt>0</asrwt>
<pdfrwt beam="2">  1        4 0.14353084E-02 0.12499982E+03</pdfrwt>
<pdfrwt beam="1">  1       -4 0.64414975E-01 0.12499982E+03</pdfrwt>
<totfact> 0.61915497E+03</totfact>
</mgrwt>
</event>
<event>
 5    1  0.3309811E-002  0.1250018E+03  0.7818608E-02  0.1235066E+00
         -4   -1    0    0    0  501 -0.00000000000E+00  0.00000000000E+00  0.20243782038E+02  0.20283579841E+02  0.12700000000E+01 0. -1.
          4   -1    0    0  501    0  0.00000000000E+00 -0.00000000000E+00 -0.19273473313E+03  0.19273891733E+03  0.12700000000E+01 0. -1.
         25    2    1    2    0    0  0.00000000000E+00  0.00000000000E+00 -0.17249095109E+03  0.21302249718E+03  0.12500182436E+03 0.  0.
    9000005    1    3    3    0    0  0.52840806462E+02 -0.86994881953E+01 -0.31353369805E+02  0.62063400814E+02  0.10000000000E+01 0.  0.
    9000005    1    3    3    0    0 -0.52840806462E+02  0.86994881953E+01 -0.14113758129E+03  0.15095909636E+03  0.10000000000E+01 0.  0.
<mgrwt>
<rscale>  0 0.12500182E+03</rscale>
<asrwt>0</asrwt>
<pdfrwt beam="2">  1        4 0.29654879E-01 0.12500182E+03</pdfrwt>
<pdfrwt beam="1">  1       -4 0.31178114E-02 0.12500182E+03</pdfrwt>
<totfact> 0.87981047E+03</totfact>
</mgrwt>
</event>
<event>
 5    1  0.3309811E-002  0.1250273E+03  0.7818608E-02  0.1235027E+00
          4   -1    0    0  501    0  0.00000000000E+00  0.00000000000E+00  0.33433977224E+02  0.33458089202E+02  0.12700000000E+01 0. -1.
         -4   -1    0    0    0  501 -0.00000000000E+00 -0.00000000000E+00 -0.11681609296E+03  0.11682299634E+03  0.12700000000E+01 0. -1.
         25    2    1    2    0    0  0.00000000000E+00  0.00000000000E+00 -0.83382115736E+02  0.15028108554E+03  0.12502730681E+03 0.  0.
    9000005    1    3    3    0    0 -0.14840510127E+02  0.31637015437E+02 -0.10398381092E+03  0.10970311947E+03  0.10000000000E+01 0.  0.
    9000005    1    3    3    0    0  0.14840510127E+02 -0.31637015437E+02  0.20601695186E+02  0.40577966079E+02  0.10000000000E+01 0.  0.
<mgrwt>
<rscale>  0 0.12502731E+03</rscale>
<asrwt>0</asrwt>
<pdfrwt beam="1">  1        4 0.51460747E-02 0.12502731E+03</pdfrwt>
<pdfrwt beam="2">  1       -4 0.17974092E-01 0.12502731E+03</pdfrwt>
<totfact> 0.99186731E+03</totfact>
</mgrwt>
</event>
<event>
 5    1  0.3309811E-002  0.1249712E+03  0.7818608E-02  0.1235114E+00
         -4   -1    0    0    0  501 -0.00000000000E+00  0.00000000000E+00  0.19523834609E+02  0.19565096929E+02  0.12700000000E+01 0. -1.
          4   -1    0    0  501    0  0.00000000000E+00 -0.00000000000E+00 -0.19972949469E+03  0.19973353236E+03  0.12700000000E+01 0. -1.
         25    2    1    2    0    0  0.00000000000E+00  0.00000000000E+00 -0.18020566008E+03  0.21929862929E+03  0.12497123222E+03 0.  0.
    9000005    1    3    3    0    0 -0.38795905690E+02 -0.95672622597E+01 -0.17438400728E+03  0.17890622349E+03  0.10000000000E+01 0.  0.
    9000005    1    3    3    0    0  0.38795905690E+02  0.95672622597E+01 -0.58216527999E+01  0.40392405806E+02  0.10000000000E+01 0.  0.
<mgrwt>
<rscale>  0 0.12497123E+03</rscale>
<asrwt>0</asrwt>
<pdfrwt beam="2">  1        4 0.30731098E-01 0.12497123E+03</pdfrwt>
<pdfrwt beam="1">  1       -4 0.30071516E-02 0.12497123E+03</pdfrwt>
<totfact> 0.87035373E+03</totfact>
</mgrwt>
</event>
<event>
 5    1  0.3309811E-002  0.1250011E+03  0.7818608E-02  0.1235068E+00
         -4   -1    0    0    0  501 -0.00000000000E+00  0.00000000000E+00  0.94998542736E+02  0.95007031434E+02  0.12700000000E+01 0. -1.
          4   -1    0    0  501    0  0.00000000000E+00 -0.00000000000E+00 -0.41099654978E+02  0.41119272115E+02  0.12700000000E+01 0. -1.
         25    2    1    2    0    0  0.00000000000E+00  0.00000000000E+00  0.53898887758E+02  0.13612630355E+03  0.12500112166E+03 0.  0.
    9000005    1    3    3    0    0  0.39061761016E+02  0.44287556889E+02  0.46818105958E+01  0.59246335071E+02  0.10000000000E+01 0.  0.
    9000005    1    3    3    0    0 -0.39061761016E+02 -0.44287556889E+02  0.49217077163E+02  0.76879968479E+02  0.10000000000E+01 0.  0.
<mgrwt>
<rscale>  0 0.12500112E+03</rscale>
<asrwt>0</asrwt>
<pdfrwt beam="2">  1        4 0.63251859E-02 0.12500112E+03</pdfrwt>
<pdfrwt beam="1">  1       -4 0.14617322E-01 0.12500112E+03</pdfrwt>
<totfact> 0.10214127E+04</totfact>
</mgrwt>
</event>
<event>
 5    1  0.3309811E-002  0.1249972E+03  0.7818608E-02  0.1235074E+00
         -4   -1    0    0    0  501 -0.00000000000E+00  0.00000000000E+00  0.67476275775E+02  0.67488226325E+02  0.12700000000E+01 0. -1.
          4   -1    0    0  501    0  0.00000000000E+00 -0.00000000000E+00 -0.57864069121E+02  0.57878004416E+02  0.12700000000E+01 0. -1.
         25    2    1    2    0    0  0.00000000000E+00  0.00000000000E+00  0.96122066549E+01  0.12536623074E+03  0.12499718914E+03 0.  0.
    9000005    1    3    3    0    0  0.18347191566E+02 -0.40913984106E+02  0.48460472507E+02  0.66030227392E+02  0.10000000000E+01 0.  0.
    9000005    1    3    3    0    0 -0.18347191566E+02  0.40913984106E+02 -0.38848265852E+02  0.59336003350E+02  0.10000000000E+01 0.  0.
<mgrwt>
<rscale>  0 0.12499719E+03</rscale>
<asrwt>0</asrwt>
<pdfrwt beam="2">  1        4 0.89041558E-02 0.12499719E+03</pdfrwt>
<pdfrwt beam="1">  1       -4 0.10382957E-01 0.12499719E+03</pdfrwt>
<totfact> 0.10445577E+04</totfact>
</mgrwt>
</event>
<event>
 5    1  0.3309811E-002  0.1250025E+03  0.7818608E-02  0.1235065E+00
         -4   -1    0    0    0  501 -0.00000000000E+00  0.00000000000E+00  0.10884063740E+03  0.10884804660E+03  0.12700000000E+01 0.  1.
          4   -1    0    0  501    0  0.00000000000E+00 -0.00000000000E+00 -0.35871218401E+02  0.35893693173E+02  0.12700000000E+01 0.  1.
         25    2    1    2    0    0  0.00000000000E+00  0.00000000000E+00  0.72969418995E+02  0.14474173977E+03  0.12500254047E+03 0.  0.
    9000005    1    3    3    0    0 -0.59473569648E+02  0.12795340203E+02  0.19922843859E+02  0.64021448945E+02  0.10000000000E+01 0.  0.
    9000005    1    3    3    0    0  0.59473569648E+02 -0.12795340203E+02  0.53046575136E+02  0.80720290827E+02  0.10000000000E+01 0.  0.
<mgrwt>
<rscale>  0 0.12500254E+03</rscale>
<asrwt>0</asrwt>
<pdfrwt beam="2">  1        4 0.55209477E-02 0.12500254E+03</pdfrwt>
<pdfrwt beam="1">  1       -4 0.16747012E-01 0.12500254E+03</pdfrwt>
<totfact> 0.10035664E+04</totfact>
</mgrwt>
</event>
<event>
 5    1  0.3309811E-002  0.1249965E+03  0.7818608E-02  0.1235075E+00
          4   -1    0    0  501    0  0.00000000000E+00  0.00000000000E+00  0.16573742632E+03  0.16574229208E+03  0.12700000000E+01 0.  1.
         -4   -1    0    0    0  501 -0.00000000000E+00 -0.00000000000E+00 -0.23545246717E+02  0.23579472915E+02  0.12700000000E+01 0.  1.
         25    2    1    2    0    0  0.00000000000E+00  0.00000000000E+00  0.14219217960E+03  0.18932176499E+03  0.12499645899E+03 0.  0.
    9000005    1    3    3    0    0 -0.18267517790E+02  0.38392710490E+02  0.17318178462E+01  0.42564088362E+02  0.10000000000E+01 0.  0.
    9000005    1    3    3    0    0  0.18267517790E+02 -0.38392710490E+02  0.14046036176E+03  0.14675767663E+03  0.10000000000E+01 0.  0.
<mgrwt>
<rscale>  0 0.12499646E+03</rscale>
<asrwt>0</asrwt>
<pdfrwt beam="1">  1        4 0.25501074E-01 0.12499646E+03</pdfrwt>
<pdfrwt beam="2">  1       -4 0.36253525E-02 0.12499646E+03</pdfrwt>
<totfact> 0.91972753E+03</totfact>
</mgrwt>
</event>
<event>
 5    1  0.3309811E-002  0.1249957E+03  0.7818608E-02  0.1235076E+00
         -4   -1    0    0    0  501 -0.00000000000E+00  0.00000000000E+00  0.14866009765E+03  0.14866552234E+03  0.12700000000E+01 0.  1.
          4   -1    0    0  501    0  0.00000000000E+00 -0.00000000000E+00 -0.26253330218E+02  0.26284030276E+02  0.12700000000E+01 0.  1.
         25    2    1    2    0    0  0.00000000000E+00  0.00000000000E+00  0.12240676743E+03  0.17494955261E+03  0.12499571692E+03 0.  0.
    9000005    1    3    3    0    0 -0.78337776618E+00 -0.64487482182E+01  0.14819308100E+03  0.14833876530E+03  0.10000000000E+01 0.  0.
    9000005    1    3    3    0    0  0.78337776618E+00  0.64487482182E+01 -0.25786313568E+02  0.26610787319E+02  0.10000000000E+01 0.  0.
<mgrwt>
<rscale>  0 0.12499572E+03</rscale>
<asrwt>0</asrwt>
<pdfrwt beam="2">  1        4 0.40417527E-02 0.12499572E+03</pdfrwt>
<pdfrwt beam="1">  1       -4 0.22873563E-01 0.12499572E+03</pdfrwt>
<totfact> 0.94543164E+03</totfact>
</mgrwt>
</event>
<event>
 5    1  0.3309811E-002  0.1249973E+03  0.7818608E-02  0.1235074E+00
          4   -1    0    0  501    0  0.00000000000E+00  0.00000000000E+00  0.72408596166E+03  0.72408707541E+03  0.12700000000E+01 0. -1.
         -4   -1    0    0    0  501 -0.00000000000E+00 -0.00000000000E+00 -0.53186155124E+01  0.54681414547E+01  0.12700000000E+01 0. -1.
         25    2    1    2    0    0  0.00000000000E+00  0.00000000000E+00  0.71876734615E+03  0.72955521686E+03  0.12499726623E+03 0.  0.
    9000005    1    3    3    0    0  0.12008295224E+02  0.12485786127E+02  0.70982021932E+03  0.71003227938E+03  0.10000000000E+01 0.  0.
    9000005    1    3    3    0    0 -0.12008295224E+02 -0.12485786127E+02  0.89471268270E+01  0.19522937480E+02  0.10000000000E+01 0.  0.
<mgrwt>
<rscale>  0 0.12499727E+03</rscale>
<asrwt>0</asrwt>
<pdfrwt beam="1">  1        4 0.11140946E+00 0.12499727E+03</pdfrwt>
<pdfrwt beam="2">  1       -4 0.82983600E-03 0.12499727E+03</pdfrwt>
<totfact> 0.41574092E+03</totfact>
</mgrwt>
</event>
<event>
 5    1  0.3309811E-002  0.1250226E+03  0.7818608E-02  0.1235034E+00
          4   -1    0    0  501    0  0.00000000000E+00  0.00000000000E+00  0.24778184798E+03  0.24778510264E+03  0.12700000000E+01 0.  1.
         -4   -1    0    0    0  501 -0.00000000000E+00 -0.00000000000E+00 -0.15741637783E+02  0.15792785064E+02  0.12700000000E+01 0.  1.
         25    2    1    2    0    0  0.00000000000E+00  0.00000000000E+00  0.23204021020E+03  0.26357788770E+03  0.12502257291E+03 0.  0.
    9000005    1    3    3    0    0  0.30658823718E+02  0.61696886043E+01  0.23011152176E+03  0.23222907005E+03  0.10000000000E+01 0.  0.
    9000005    1    3    3    0    0 -0.30658823718E+02 -0.61696886043E+01  0.19286884408E+01  0.31348817655E+02  0.10000000000E+01 0.  0.
<mgrwt>
<rscale>  0 0.12502257E+03</rscale>
<asrwt>0</asrwt>
<pdfrwt beam="1">  1        4 0.38124466E-01 0.12502257E+03</pdfrwt>
<pdfrwt beam="2">  1       -4 0.24259754E-02 0.12502257E+03</pdfrwt>
<totfact> 0.80366186E+03</totfact>
</mgrwt>
</event>
<event>
 5    1  0.3309811E-002  0.1249985E+03  0.7818608E-02  0.1235072E+00
         -4   -1    0    0    0  501 -0.00000000000E+00  0.00000000000E+00  0.57410327897E+03  0.57410468369E+03  0.12700000000E+01 0.  1.
          4   -1    0    0  501    0  0.00000000000E+00 -0.00000000000E+00 -0.67432347635E+01  0.68617865804E+01  0.12700000000E+01 0.  1.
         25    2    1    2    0    0  0.00000000000E+00  0.00000000000E+00  0.56736004421E+03  0.58096647027E+03  0.12499847921E+03 0.  0.
    9000005    1    3    3    0    0  0.15814904329E+02  0.46537781627E+02  0.10431641941E+03  0.11532038708E+03  0.10000000000E+01 0.  0.
    9000005    1    3    3    0    0 -0.15814904329E+02 -0.46537781627E+02  0.46304362480E+03  0.46564608318E+03  0.10000000000E+01 0.  0.
<mgrwt>
<rscale>  0 0.12499848E+03</rscale>
<asrwt>0</asrwt>
<pdfrwt beam="2">  1        4 0.10466478E-02 0.12499848E+03</pdfrwt>
<pdfrwt beam="1">  1       -4 0.88332840E-01 0.12499848E+03</pdfrwt>
<totfact> 0.50093191E+03</totfact>
</mgrwt>
</event>
<event>
 5    1  0.3309811E-002  0.1249857E+03  0.7818608E-02  0.1235092E+00
         -4   -1    0    0    0  501 -0.00000000000E+00  0.00000000000E+00  0.21326956587E+03  0.21327334720E+03  0.12700000000E+01 0. -1.
          4   -1    0    0  501    0  0.00000000000E+00 -0.00000000000E+00 -0.18285875521E+02  0.18329924811E+02  0.12700000000E+01 0. -1.
         25    2    1    2    0    0  0.00000000000E+00  0.00000000000E+00  0.19498369035E+03  0.23160327201E+03  0.12498574361E+03 0.  0.
    9000005    1    3    3    0    0 -0.34592109006E+02  0.49982562029E+02  0.70671502639E+02  0.93221949120E+02  0.10000000000E+01 0.  0.
    9000005    1    3    3    0    0  0.34592109006E+02 -0.49982562029E+02  0.12431218771E+03  0.13838132289E+03  0.10000000000E+01 0.  0.
<mgrwt>
<rscale>  0 0.12498574E+03</rscale>
<asrwt>0</asrwt>
<pdfrwt beam="2">  1        4 0.28168909E-02 0.12498574E+03</pdfrwt>
<pdfrwt beam="1">  1       -4 0.32814382E-01 0.12498574E+03</pdfrwt>
<totfact> 0.85091078E+03</totfact>
</mgrwt>
</event>
<event>
 5    1  0.3309811E-002  0.1249635E+03  0.7818608E-02  0.1235126E+00
          4   -1    0    0  501    0  0.00000000000E+00  0.00000000000E+00  0.39465332985E+03  0.39465537329E+03  0.12700000000E+01 0.  1.
         -4   -1    0    0    0  501 -0.00000000000E+00 -0.00000000000E+00 -0.98493079845E+01  0.99308492977E+01  0.12700000000E+01 0.  1.
         25    2    1    2    0    0  0.00000000000E+00  0.00000000000E+00  0.38480402187E+03  0.40458622259E+03  0.12496349971E+03 0.  0.
    9000005    1    3    3    0    0 -0.33870692015E+02  0.52132972995E+02  0.21233343948E+03  0.22124999474E+03  0.10000000000E+01 0.  0.
    9000005    1    3    3    0    0  0.33870692015E+02 -0.52132972995E+02  0.17247058239E+03  0.18333622785E+03  0.10000000000E+01 0.  0.
<mgrwt>
<rscale>  0 0.12496350E+03</rscale>
<asrwt>0</asrwt>
<pdfrwt beam="1">  1        4 0.60722312E-01 0.12496350E+03</pdfrwt>
<pdfrwt beam="2">  1       -4 0.15217081E-02 0.12496350E+03</pdfrwt>
<totfact> 0.64160854E+03</totfact>
</mgrwt>
</event>
<event>
 5    1  0.3309811E-002  0.1249962E+03  0.7818608E-02  0.1235075E+00
          4   -1    0    0  501    0  0.00000000000E+00  0.00000000000E+00  0.30415290296E+02  0.30441793373E+02  0.12700000000E+01 0.  1.
         -4   -1    0    0    0  501 -0.00000000000E+00 -0.00000000000E+00 -0.12833711806E+03  0.12834340175E+03  0.12700000000E+01 0.  1.
         25    2    1    2    0    0  0.00000000000E+00  0.00000000000E+00 -0.97921827763E+02  0.15878519512E+03  0.12499621529E+03 0.  0.
    9000005    1    3    3    0    0  0.13116683587E+02 -0.61002060983E+02 -0.44613035697E+02  0.76711288522E+02  0.10000000000E+01 0.  0.
    9000005    1    3    3    0    0 -0.13116683587E+02  0.61002060983E+02 -0.53308792066E+02  0.82073906597E+02  0.10000000000E+01 0.  0.
<mgrwt>
<rscale>  0 0.12499622E+03</rscale>
<asrwt>0</asrwt>
<pdfrwt beam="1">  1        4 0.46817975E-02 0.12499622E+03</pdfrwt>
<pdfrwt beam="2">  1       -4 0.19746694E-01 0.12499622E+03</pdfrwt>
<totfact> 0.97585805E+03</totfact>
</mgrwt>
</event>
<event>
 5    1  0.3309811E-002  0.1250041E+03  0.7818608E-02  0.1235063E+00
         -4   -1    0    0    0  501 -0.00000000000E+00  0.00000000000E+00  0.12964176624E+03  0.12964798670E+03  0.12700000000E+01 0. -1.
          4   -1    0    0  501    0  0.00000000000E+00 -0.00000000000E+00 -0.30112747431E+02  0.30139516549E+02  0.12700000000E+01 0. -1.
         25    2    1    2    0    0  0.00000000000E+00  0.00000000000E+00  0.99529018813E+02  0.15978750325E+03  0.12500408237E+03 0.  0.
    9000005    1    3    3    0    0 -0.44586343525E+02 -0.19048585577E+02  0.10016606496E+03  0.11128805511E+03  0.10000000000E+01 0.  0.
    9000005    1    3    3    0    0  0.44586343525E+02  0.19048585577E+02 -0.63704614761E+00  0.48499448133E+02  0.10000000000E+01 0.  0.
<mgrwt>
<rscale>  0 0.12500408E+03</rscale>
<asrwt>0</asrwt>
<pdfrwt beam="2">  1        4 0.46352680E-02 0.12500408E+03</pdfrwt>
<pdfrwt beam="1">  1       -4 0.19947425E-01 0.12500408E+03</pdfrwt>
<totfact> 0.97374832E+03</totfact>
</mgrwt>
</event>
<event>
 5    1  0.3309811E-002  0.1250012E+03  0.7818608E-02  0.1235067E+00
          4   -1    0    0  501    0  0.00000000000E+00  0.00000000000E+00  0.94850524892E+02  0.94859026836E+02  0.12700000000E+01 0. -1.
         -4   -1    0    0    0  501 -0.00000000000E+00 -0.00000000000E+00 -0.41163859505E+02  0.41183446060E+02  0.12700000000E+01 0. -1.
         25    2    1    2    0    0  0.00000000000E+00  0.00000000000E+00  0.53686665387E+02  0.13604247290E+03  0.12500118556E+03 0.  0.
    9000005    1    3    3    0    0 -0.71029933159E+01  0.56823973467E+02  0.54071317911E+02  0.78766261148E+02  0.10000000000E+01 0.  0.
    9000005    1    3    3    0    0  0.71029933159E+01 -0.56823973467E+02 -0.38465252399E+00  0.57276211748E+02  0.10000000000E+01 0.  0.
<mgrwt>
<rscale>  0 0.12500119E+03</rscale>
<asrwt>0</asrwt>
<pdfrwt beam="1">  1        4 0.14594549E-01 0.12500119E+03</pdfrwt>
<pdfrwt beam="2">  1       -4 0.63350622E-02 0.12500119E+03</pdfrwt>
<totfact> 0.10215872E+04</totfact>
</mgrwt>
</event>
<event>
 5    1  0.3309811E-002  0.1249994E+03  0.7818608E-02  0.1235070E+00
          4   -1    0    0  501    0  0.00000000000E+00  0.00000000000E+00  0.14891245821E+03  0.14891787371E+03  0.12700000000E+01 0. -1.
         -4   -1    0    0    0  501 -0.00000000000E+00 -0.00000000000E+00 -0.26210339147E+02  0.26241089501E+02  0.12700000000E+01 0. -1.
         25    2    1    2    0    0  0.00000000000E+00  0.00000000000E+00  0.12270211906E+03  0.17515896321E+03  0.12499940948E+03 0.  0.
    9000005    1    3    3    0    0  0.52643422781E+02  0.69643501033E+01  0.10751634267E+03  0.11991912306E+03  0.10000000000E+01 0.  0.
    9000005    1    3    3    0    0 -0.52643422781E+02 -0.69643501033E+01  0.15185776384E+02  0.55239840142E+02  0.10000000000E+01 0.  0.
<mgrwt>
<rscale>  0 0.12499941E+03</rscale>
<asrwt>0</asrwt>
<pdfrwt beam="1">  1        4 0.22912391E-01 0.12499941E+03</pdfrwt>
<pdfrwt beam="2">  1       -4 0.40351419E-02 0.12499941E+03</pdfrwt>
<totfact> 0.94496987E+03</totfact>
</mgrwt>
</event>
<event>
 5    1  0.3309811E-002  0.1249972E+03  0.7818608E-02  0.1235074E+00
         -4   -1    0    0    0  501 -0.00000000000E+00  0.00000000000E+00  0.69992600410E+01  0.71135463112E+01  0.12700000000E+01 0.  1.
          4   -1    0    0  501    0  0.00000000000E+00 -0.00000000000E+00 -0.55343554024E+03  0.55343699740E+03  0.12700000000E+01 0.  1.
         25    2    1    2    0    0  0.00000000000E+00  0.00000000000E+00 -0.54643628019E+03  0.56055054372E+03  0.12499721496E+03 0.  0.
    9000005    1    3    3    0    0  0.32678498607E+02 -0.53136150307E+02 -0.28984180244E+03  0.29648036222E+03  0.10000000000E+01 0.  0.
    9000005    1    3    3    0    0 -0.32678498607E+02  0.53136150307E+02 -0.25659447776E+03  0.26407018150E+03  0.10000000000E+01 0.  0.
<mgrwt>
<rscale>  0 0.12499721E+03</rscale>
<asrwt>0</asrwt>
<pdfrwt beam="2">  1        4 0.85152799E-01 0.12499721E+03</pdfrwt>
<pdfrwt beam="1">  1       -4 0.10857130E-02 0.12499721E+03</pdfrwt>
<totfact> 0.51459536E+03</totfact>
</mgrwt>
</event>
<event>
 5    1  0.3309811E-002  0.1250008E+03  0.7818608E-02  0.1235068E+00
          4   -1    0    0  501    0  0.00000000000E+00  0.00000000000E+00  0.42775606647E+03  0.42775795177E+03  0.12700000000E+01 0. -1.
         -4   -1    0    0    0  501 -0.00000000000E+00 -0.00000000000E+00 -0.90860044079E+01  0.91743324607E+01  0.12700000000E+01 0. -1.
         25    2    1    2    0    0  0.00000000000E+00  0.00000000000E+00  0.41867006206E+03  0.43693228423E+03  0.12500080054E+03 0.  0.
    9000005    1    3    3    0    0 -0.18707481288E+01  0.30359303776E+02  0.18517748118E+02  0.35624345884E+02  0.10000000000E+01 0.  0.
    9000005    1    3    3    0    0  0.18707481288E+01 -0.30359303776E+02  0.40015231394E+03  0.40130793834E+03  0.10000000000E+01 0.  0.
<mgrwt>
<rscale>  0 0.12500080E+03</rscale>
<asrwt>0</asrwt>
<pdfrwt beam="1">  1        4 0.65815562E-01 0.12500080E+03</pdfrwt>
<pdfrwt beam="2">  1       -4 0.14047864E-02 0.12500080E+03</pdfrwt>
<totfact> 0.61111531E+03</totfact>
</mgrwt>
</event>
<event>
 5    1  0.3309811E-002  0.1249999E+03  0.7818608E-02  0.1235069E+00
         -4   -1    0    0    0  501 -0.00000000000E+00  0.00000000000E+00  0.10422925158E+02  0.10500012803E+02  0.12700000000E+01 0.  1.
          4   -1    0    0  501    0  0.00000000000E+00 -0.00000000000E+00 -0.37331542461E+03  0.37331758485E+03  0.12700000000E+01 0.  1.
         25    2    1    2    0    0  0.00000000000E+00  0.00000000000E+00 -0.36289249946E+03  0.38381759765E+03  0.12499992841E+03 0.  0.
    9000005    1    3    3    0    0 -0.29991537506E+02  0.50747596238E+01 -0.34906525226E+03  0.35038949162E+03  0.10000000000E+01 0.  0.
    9000005    1    3    3    0    0  0.29991537506E+02 -0.50747596238E+01 -0.13827247198E+02  0.33428106023E+02  0.10000000000E+01 0.  0.
<mgrwt>
<rscale>  0 0.12499993E+03</rscale>
<asrwt>0</asrwt>
<pdfrwt beam="2">  1        4 0.57439228E-01 0.12499993E+03</pdfrwt>
<pdfrwt beam="1">  1       -4 0.16096232E-02 0.12499993E+03</pdfrwt>
<totfact> 0.66157809E+03</totfact>
</mgrwt>
</event>
<event>
 5    1  0.3309811E-002  0.1249988E+03  0.7818608E-02  0.1235071E+00
          4   -1    0    0  501    0  0.00000000000E+00  0.00000000000E+00  0.31254841204E+01  0.33736554339E+01  0.12700000000E+01 0.  1.
         -4   -1    0    0    0  501 -0.00000000000E+00 -0.00000000000E+00 -0.12018110091E+04  0.12018116801E+04  0.12700000000E+01 0.  1.
         25    2    1    2    0    0  0.00000000000E+00  0.00000000000E+00 -0.11986855250E+04  0.12051853356E+04  0.12499882103E+03 0.  0.
    9000005    1    3    3    0    0 -0.23241779670E+02 -0.27919776229E+02 -0.10909153641E+03  0.11498546666E+03  0.10000000000E+01 0.  0.
    9000005    1    3    3    0    0  0.23241779670E+02  0.27919776229E+02 -0.10895939886E+04  0.10901998689E+04  0.10000000000E+01 0.  0.
<mgrwt>
<rscale>  0 0.12499882E+03</rscale>
<asrwt>0</asrwt>
<pdfrwt beam="1">  1        4 0.49998639E-03 0.12499882E+03</pdfrwt>
<pdfrwt beam="2">  1       -4 0.18491279E+00 0.12499882E+03</pdfrwt>
<totfact> 0.24578116E+03</totfact>
</mgrwt>
</event>
<event>
 5    1  0.3309811E-002  0.1249974E+03  0.7818608E-02  0.1235073E+00
          4   -1    0    0  501    0  0.00000000000E+00  0.00000000000E+00  0.57226863036E+02  0.57240953459E+02  0.12700000000E+01 0.  1.
         -4   -1    0    0    0  501 -0.00000000000E+00 -0.00000000000E+00 -0.68227799427E+02  0.68239618365E+02  0.12700000000E+01 0.  1.
         25    2    1    2    0    0  0.00000000000E+00  0.00000000000E+00 -0.11000936391E+02  0.12548057182E+03  0.12499741319E+03 0.  0.
    9000005    1    3    3    0    0 -0.60317158301E+02  0.82444170135E+01  0.86593124522E+01  0.61498891775E+02  0.10000000000E+01 0.  0.
    9000005    1    3    3    0    0  0.60317158301E+02 -0.82444170135E+01 -0.19660248843E+02  0.63981680049E+02  0.10000000000E+01 0.  0.
<mgrwt>
<rscale>  0 0.12499741E+03</rscale>
<asrwt>0</asrwt>
<pdfrwt beam="1">  1        4 0.88061258E-02 0.12499741E+03</pdfrwt>
<pdfrwt beam="2">  1       -4 0.10498578E-01 0.12499741E+03</pdfrwt>
<totfact> 0.10442993E+04</totfact>
</mgrwt>
</event>
<event>
 5    1  0.3309811E-002  0.1249995E+03  0.7818608E-02  0.1235070E+00
         -4   -1    0    0    0  501 -0.00000000000E+00  0.00000000000E+00  0.27107049712E+01  0.29934631183E+01  0.12700000000E+01 0. -1.
          4   -1    0    0  501    0  0.00000000000E+00 -0.00000000000E+00 -0.13693195833E+04  0.13693201723E+04  0.12700000000E+01 0. -1.
         25    2    1    2    0    0  0.00000000000E+00  0.00000000000E+00 -0.13666088783E+04  0.13723136354E+04  0.12499954987E+03 0.  0.
    9000005    1    3    3    0    0 -0.62239896444E+02 -0.34046492234E+01 -0.73218737026E+03  0.73483654067E+03  0.10000000000E+01 0.  0.
    9000005    1    3    3    0    0  0.62239896444E+02  0.34046492234E+01 -0.63442150808E+03  0.63747709470E+03  0.10000000000E+01 0.  0.
<mgrwt>
<rscale>  0 0.12499955E+03</rscale>
<asrwt>0</asrwt>
<pdfrwt beam="2">  1        4 0.21068582E+00 0.12499955E+03</pdfrwt>
<pdfrwt beam="1">  1       -4 0.43882856E-03 0.12499955E+03</pdfrwt>
<totfact> 0.20583221E+03</totfact>
</mgrwt>
</event>
<event>
 5    1  0.3309811E-002  0.1249995E+03  0.7818608E-02  0.1235070E+00
          4   -1    0    0  501    0  0.00000000000E+00  0.00000000000E+00  0.17572574632E+02  0.17618407397E+02  0.12700000000E+01 0.  1.
         -4   -1    0    0    0  501 -0.00000000000E+00 -0.00000000000E+00 -0.22195349593E+03  0.22195712932E+03  0.12700000000E+01 0.  1.
         25    2    1    2    0    0  0.00000000000E+00  0.00000000000E+00 -0.20438092130E+03  0.23957553672E+03  0.12499950721E+03 0.  0.
    9000005    1    3    3    0    0  0.41122141627E+02  0.39231615994E+02 -0.15198804128E+03  0.16226988296E+03  0.10000000000E+01 0.  0.
    9000005    1    3    3    0    0 -0.41122141627E+02 -0.39231615994E+02 -0.52392880026E+02  0.77305653758E+02  0.10000000000E+01 0.  0.
<mgrwt>
<rscale>  0 0.12499951E+03</rscale>
<asrwt>0</asrwt>
<pdfrwt beam="1">  1        4 0.27072783E-02 0.12499951E+03</pdfrwt>
<pdfrwt beam="2">  1       -4 0.34150495E-01 0.12499951E+03</pdfrwt>
<totfact> 0.83861547E+03</totfact>
</mgrwt>
</event>
<event>
 5    1  0.3309811E-002  0.1249990E+03  0.7818608E-02  0.1235071E+00
         -4   -1    0    0    0  501 -0.00000000000E+00  0.00000000000E+00  0.13160036457E+03  0.13160649245E+03  0.12700000000E+01 0. -1.
          4   -1    0    0  501    0  0.00000000000E+00 -0.00000000000E+00 -0.29661810025E+02  0.29688985735E+02  0.12700000000E+01 0. -1.
         25    2    1    2    0    0  0.00000000000E+00  0.00000000000E+00  0.10193855454E+03  0.16129547818E+03  0.12499904952E+03 0.  0.
    9000005    1    3    3    0    0 -0.14302222835E+02 -0.60600500525E+02  0.57823621682E+02  0.84979676783E+02  0.10000000000E+01 0.  0.
    9000005    1    3    3    0    0  0.14302222835E+02  0.60600500525E+02  0.44114932862E+02  0.76315801400E+02  0.10000000000E+01 0.  0.
<mgrwt>
<rscale>  0 0.12499905E+03</rscale>
<asrwt>0</asrwt>
<pdfrwt beam="2">  1        4 0.45659172E-02 0.12499905E+03</pdfrwt>
<pdfrwt beam="1">  1       -4 0.20248772E-01 0.12499905E+03</pdfrwt>
<totfact> 0.97095681E+03</totfact>
</mgrwt>
</event>
<event>
 5    1  0.3309811E-002  0.1249969E+03  0.7818608E-02  0.1235074E+00
         -4   -1    0    0    0  501 -0.00000000000E+00  0.00000000000E+00  0.19179023620E+03  0.19179444101E+03  0.12700000000E+01 0.  1.
          4   -1    0    0  501    0  0.00000000000E+00 -0.00000000000E+00 -0.20342060239E+02  0.20381666143E+02  0.12700000000E+01 0.  1.
         25    2    1    2    0    0  0.00000000000E+00  0.00000000000E+00  0.17144817596E+03  0.21217610715E+03  0.12499689358E+03 0.  0.
    9000005    1    3    3    0    0 -0.16730222046E+02  0.53510115709E+02  0.13257567516E+03  0.14394631797E+03  0.10000000000E+01 0.  0.
    9000005    1    3    3    0    0  0.16730222046E+02 -0.53510115709E+02  0.38872500795E+02  0.68229789175E+02  0.10000000000E+01 0.  0.
<mgrwt>
<rscale>  0 0.12499689E+03</rscale>
<asrwt>0</asrwt>
<pdfrwt beam="2">  1        4 0.31329177E-02 0.12499689E+03</pdfrwt>
<pdfrwt beam="1">  1       -4 0.29509561E-01 0.12499689E+03</pdfrwt>
<totfact> 0.88127841E+03</totfact>
</mgrwt>
</event>
<event>
 5    1  0.3309811E-002  0.1250009E+03  0.7818608E-02  0.1235068E+00
          4   -1    0    0  501    0  0.00000000000E+00  0.00000000000E+00  0.24950379470E+02  0.24982680715E+02  0.12700000000E+01 0.  1.
         -4   -1    0    0    0  501 -0.00000000000E+00 -0.00000000000E+00 -0.15642679524E+03  0.15643195060E+03  0.12700000000E+01 0.  1.
         25    2    1    2    0    0  0.00000000000E+00  0.00000000000E+00 -0.13147641577E+03  0.18141463132E+03  0.12500088220E+03 0.  0.
    9000005    1    3    3    0    0  0.40533265499E+02 -0.45114440853E+02 -0.87606601365E+02  0.10655597115E+03  0.10000000000E+01 0.  0.
    9000005    1    3    3    0    0 -0.40533265499E+02  0.45114440853E+02 -0.43869814404E+02  0.74858660163E+02  0.10000000000E+01 0.  0.
<mgrwt>
<rscale>  0 0.12500088E+03</rscale>
<asrwt>0</asrwt>
<pdfrwt beam="1">  1        4 0.38414013E-02 0.12500088E+03</pdfrwt>
<pdfrwt beam="2">  1       -4 0.24068542E-01 0.12500088E+03</pdfrwt>
<totfact> 0.93361137E+03</totfact>
</mgrwt>
</event>
<event>
 5    1  0.3309811E-002  0.1250011E+03  0.7818608E-02  0.1235067E+00
         -4   -1    0    0    0  501 -0.00000000000E+00  0.00000000000E+00  0.39913512923E+02  0.39933712748E+02  0.12700000000E+01 0.  1.
          4   -1    0    0  501    0  0.00000000000E+00 -0.00000000000E+00 -0.97820568157E+02  0.97828811986E+02  0.12700000000E+01 0.  1.
         25    2    1    2    0    0  0.00000000000E+00  0.00000000000E+00 -0.57907055234E+02  0.13776252473E+03  0.12500114470E+03 0.  0.
    9000005    1    3    3    0    0  0.36483552787E+02 -0.48551038230E+02 -0.45190894835E+02  0.75706472069E+02  0.10000000000E+01 0.  0.
    9000005    1    3    3    0    0 -0.36483552787E+02  0.48551038230E+02 -0.12716160399E+02  0.62056052665E+02  0.10000000000E+01 0.  0.
<mgrwt>
<rscale>  0 0.12500114E+03</rscale>
<asrwt>0</asrwt>
<pdfrwt beam="2">  1        4 0.15051506E-01 0.12500114E+03</pdfrwt>
<pdfrwt beam="1">  1       -4 0.61427285E-02 0.12500114E+03</pdfrwt>
<totfact> 0.10179904E+04</totfact>
</mgrwt>
</event>
<event>
 5    1  0.3309811E-002  0.1249956E+03  0.7818608E-02  0.1235076E+00
         -4   -1    0    0    0  501 -0.00000000000E+00  0.00000000000E+00  0.32559668493E+02  0.32584427452E+02  0.12700000000E+01 0. -1.
          4   -1    0    0  501    0  0.00000000000E+00 -0.00000000000E+00 -0.11988990290E+03  0.11989662930E+03  0.12700000000E+01 0. -1.
         25    2    1    2    0    0  0.00000000000E+00  0.00000000000E+00 -0.87330234412E+02  0.15248105676E+03  0.12499561123E+03 0.  0.
    9000005    1    3    3    0    0  0.22084011070E+02  0.58456963415E+02 -0.43952737734E+02  0.76405256828E+02  0.10000000000E+01 0.  0.
    9000005    1    3    3    0    0 -0.22084011070E+02 -0.58456963415E+02 -0.43377496677E+02  0.76075799928E+02  0.10000000000E+01 0.  0.
<mgrwt>
<rscale>  0 0.12499561E+03</rscale>
<asrwt>0</asrwt>
<pdfrwt beam="2">  1        4 0.18447022E-01 0.12499561E+03</pdfrwt>
<pdfrwt beam="1">  1       -4 0.50116018E-02 0.12499561E+03</pdfrwt>
<totfact> 0.98821174E+03</totfact>
</mgrwt>
</event>
<event>
 5    1  0.3309811E-002  0.1249957E+03  0.7818608E-02  0.1235076E+00
         -4   -1    0    0    0  501 -0.00000000000E+00  0.00000000000E+00  0.27355709586E+02  0.27385173853E+02  0.12700000000E+01 0.  1.
          4   -1    0    0  501    0  0.00000000000E+00 -0.00000000000E+00 -0.14267580196E+03  0.14268145417E+03  0.12700000000E+01 0.  1.
         25    2    1    2    0    0  0.00000000000E+00  0.00000000000E+00 -0.11532009237E+03  0.17006662803E+03  0.12499573698E+03 0.  0.
    9000005    1    3    3    0    0  0.41042974549E+02  0.40850229207E+02 -0.89618217242E+02  0.10670375742E+03  0.10000000000E+01 0.  0.
    9000005    1    3    3    0    0 -0.41042974549E+02 -0.40850229207E+02 -0.25701875132E+02  0.63362870606E+02  0.10000000000E+01 0.  0.
<mgrwt>
<rscale>  0 0.12499574E+03</rscale>
<asrwt>0</asrwt>
<pdfrwt beam="2">  1        4 0.21952824E-01 0.12499574E+03</pdfrwt>
<pdfrwt beam="1">  1       -4 0.42112721E-02 0.12499574E+03</pdfrwt>
<totfact> 0.95445352E+03</totfact>
</mgrwt>
</event>
<event>
 5    1  0.3309811E-002  0.1250049E+03  0.7818608E-02  0.1235062E+00
          4   -1    0    0  501    0  0.00000000000E+00  0.00000000000E+00  0.58590369384E+02  0.58604131975E+02  0.12700000000E+01 0. -1.
         -4   -1    0    0    0  501 -0.00000000000E+00 -0.00000000000E+00 -0.66648084775E+02  0.66660183799E+02  0.12700000000E+01 0. -1.
         25    2    1    2    0    0  0.00000000000E+00  0.00000000000E+00 -0.80577153909E+01  0.12526431577E+03  0.12500488802E+03 0.  0.
    9000005    1    3    3    0    0  0.65097973299E+01  0.46763917520E+02  0.36998927162E+02  0.59993016712E+02  0.10000000000E+01 0.  0.
    9000005    1    3    3    0    0 -0.65097973299E+01 -0.46763917520E+02 -0.45056642553E+02  0.65271299062E+02  0.10000000000E+01 0.  0.
<mgrwt>
<rscale>  0 0.12500489E+03</rscale>
<asrwt>0</asrwt>
<pdfrwt beam="1">  1        4 0.90158923E-02 0.12500489E+03</pdfrwt>
<pdfrwt beam="2">  1       -4 0.10255541E-01 0.12500489E+03</pdfrwt>
<totfact> 0.10445970E+04</totfact>
</mgrwt>
</event>
<event>
 5    1  0.3309811E-002  0.1250023E+03  0.7818608E-02  0.1235066E+00
          4   -1    0    0  501    0  0.00000000000E+00  0.00000000000E+00  0.29249830019E+02  0.29277388138E+02  0.12700000000E+01 0.  1.
         -4   -1    0    0    0  501 -0.00000000000E+00 -0.00000000000E+00 -0.13345925639E+03  0.13346529892E+03  0.12700000000E+01 0.  1.
         25    2    1    2    0    0  0.00000000000E+00  0.00000000000E+00 -0.10420942637E+03  0.16274268706E+03  0.12500231057E+03 0.  0.
    9000005    1    3    3    0    0  0.54798535174E+02  0.27219903869E+02 -0.35554900424E+02  0.70773961088E+02  0.10000000000E+01 0.  0.
    9000005    1    3    3    0    0 -0.54798535174E+02 -0.27219903869E+02 -0.68654525948E+02  0.91968725973E+02  0.10000000000E+01 0.  0.
<mgrwt>
<rscale>  0 0.12500231E+03</rscale>
<asrwt>0</asrwt>
<pdfrwt beam="1">  1        4 0.45025586E-02 0.12500231E+03</pdfrwt>
<pdfrwt beam="2">  1       -4 0.20534778E-01 0.12500231E+03</pdfrwt>
<totfact> 0.96811581E+03</totfact>
</mgrwt>
</event>
<event>
 5    1  0.3309811E-002  0.1250009E+03  0.7818608E-02  0.1235068E+00
          4   -1    0    0  501    0  0.00000000000E+00  0.00000000000E+00  0.99562908406E+02  0.99571007981E+02  0.12700000000E+01 0.  1.
         -4   -1    0    0    0  501 -0.00000000000E+00 -0.00000000000E+00 -0.39214578226E+02  0.39235137893E+02  0.12700000000E+01 0.  1.
         25    2    1    2    0    0  0.00000000000E+00  0.00000000000E+00  0.60348330180E+02  0.13880614587E+03  0.12500090070E+03 0.  0.
    9000005    1    3    3    0    0 -0.36084265467E+02  0.29422386151E+02 -0.16113456690E+02  0.49278742959E+02  0.10000000000E+01 0.  0.
    9000005    1    3    3    0    0  0.36084265467E+02 -0.29422386151E+02  0.76461786870E+02  0.89527402914E+02  0.10000000000E+01 0.  0.
<mgrwt>
<rscale>  0 0.12500090E+03</rscale>
<asrwt>0</asrwt>
<pdfrwt beam="1">  1        4 0.15319575E-01 0.12500090E+03</pdfrwt>
<pdfrwt beam="2">  1       -4 0.60352166E-02 0.12500090E+03</pdfrwt>
<totfact> 0.10158183E+04</totfact>
</mgrwt>
</event>
<event>
 5    1  0.3309811E-002  0.1249993E+03  0.7818608E-02  0.1235070E+00
          4   -1    0    0  501    0  0.00000000000E+00  0.00000000000E+00  0.67613474526E+03  0.67613593799E+03  0.12700000000E+01 0.  1.
         -4   -1    0    0    0  501 -0.00000000000E+00 -0.00000000000E+00 -0.57062559958E+01  0.58458752544E+01  0.12700000000E+01 0.  1.
         25    2    1    2    0    0  0.00000000000E+00  0.00000000000E+00  0.67042848926E+03  0.68198181325E+03  0.12499933754E+03 0.  0.
    9000005    1    3    3    0    0 -0.10470163260E+02  0.49834405856E+02  0.53284350365E+03  0.53527216601E+03  0.10000000000E+01 0.  0.
    9000005    1    3    3    0    0  0.10470163260E+02 -0.49834405856E+02  0.13758498561E+03  0.14670964723E+03  0.10000000000E+01 0.  0.
<mgrwt>
<rscale>  0 0.12499934E+03</rscale>
<asrwt>0</asrwt>
<pdfrwt beam="1">  1        4 0.10403149E+00 0.12499934E+03</pdfrwt>
<pdfrwt beam="2">  1       -4 0.88871784E-03 0.12499934E+03</pdfrwt>
<totfact> 0.44055737E+03</totfact>
</mgrwt>
</event>
<event>
 5    1  0.3309811E-002  0.1250020E+03  0.7818608E-02  0.1235066E+00
         -4   -1    0    0    0  501 -0.00000000000E+00  0.00000000000E+00  0.80696780790E+02  0.80706773755E+02  0.12700000000E+01 0. -1.
          4   -1    0    0  501    0  0.00000000000E+00 -0.00000000000E+00 -0.48386743946E+02  0.48403407832E+02  0.12700000000E+01 0. -1.
         25    2    1    2    0    0  0.00000000000E+00  0.00000000000E+00  0.32310036844E+02  0.12911018159E+03  0.12500200202E+03 0.  0.
    9000005    1    3    3    0    0 -0.38174180251E+02  0.18153065242E+02  0.63695685548E+02  0.76452221504E+02  0.10000000000E+01 0.  0.
    9000005    1    3    3    0    0  0.38174180251E+02 -0.18153065242E+02 -0.31385648704E+02  0.52657960083E+02  0.10000000000E+01 0.  0.
<mgrwt>
<rscale>  0 0.12500200E+03</rscale>
<asrwt>0</asrwt>
<pdfrwt beam="2">  1        4 0.74461651E-02 0.12500200E+03</pdfrwt>
<pdfrwt beam="1">  1       -4 0.12416940E-01 0.12500200E+03</pdfrwt>
<totfact> 0.10363111E+04</totfact>
</mgrwt>
</event>
<event>
 5    1  0.3309811E-002  0.1249997E+03  0.7818608E-02  0.1235070E+00
          4   -1    0    0  501    0  0.00000000000E+00  0.00000000000E+00  0.70267281547E+02  0.70278757502E+02  0.12700000000E+01 0. -1.
         -4   -1    0    0    0  501 -0.00000000000E+00 -0.00000000000E+00 -0.55567770551E+02  0.55582281565E+02  0.12700000000E+01 0. -1.
         25    2    1    2    0    0  0.00000000000E+00  0.00000000000E+00  0.14699510996E+02  0.12586103907E+03  0.12499970213E+03 0.  0.
    9000005    1    3    3    0    0  0.13214588830E+02  0.54659709066E+02 -0.20094661626E+02  0.59725242394E+02  0.10000000000E+01 0.  0.
    9000005    1    3    3    0    0 -0.13214588830E+02 -0.54659709066E+02  0.34794172621E+02  0.66135796673E+02  0.10000000000E+01 0.  0.
<mgrwt>
<rscale>  0 0.12499970E+03</rscale>
<asrwt>0</asrwt>
<pdfrwt beam="1">  1        4 0.10812350E-01 0.12499970E+03</pdfrwt>
<pdfrwt beam="2">  1       -4 0.85508868E-02 0.12499970E+03</pdfrwt>
<totfact> 0.10434075E+04</totfact>
</mgrwt>
</event>
<event>
 5    1  0.3309811E-002  0.1250000E+03  0.7818608E-02  0.1235069E+00
          4   -1    0    0  501    0  0.00000000000E+00  0.00000000000E+00  0.83079163911E+01  0.84044259032E+01  0.12700000000E+01 0.  1.
         -4   -1    0    0    0  501 -0.00000000000E+00 -0.00000000000E+00 -0.46737148712E+03  0.46737321262E+03  0.12700000000E+01 0.  1.
         25    2    1    2    0    0  0.00000000000E+00  0.00000000000E+00 -0.45906357073E+03  0.47577763852E+03  0.12499999739E+03 0.  0.
    9000005    1    3    3    0    0 -0.55196233654E+02 -0.13401638190E+01 -0.34094616592E+03  0.34538921278E+03  0.10000000000E+01 0.  0.
    9000005    1    3    3    0    0  0.55196233654E+02  0.13401638190E+01 -0.11811740481E+03  0.13038842574E+03  0.10000000000E+01 0.  0.
<mgrwt>
<rscale>  0 0.12500000E+03</rscale>
<asrwt>0</asrwt>
<pdfrwt beam="1">  1        4 0.12856979E-02 0.12500000E+03</pdfrwt>
<pdfrwt beam="2">  1       -4 0.71910842E-01 0.12500000E+03</pdfrwt>
<totfact> 0.57793965E+03</totfact>
</mgrwt>
</event>
<event>
 5    1  0.3309811E-002  0.1249979E+03  0.7818608E-02  0.1235073E+00
          4   -1    0    0  501    0  0.00000000000E+00  0.00000000000E+00  0.17558407323E+03  0.17558866613E+03  0.12700000000E+01 0. -1.
         -4   -1    0    0    0  501 -0.00000000000E+00 -0.00000000000E+00 -0.22223429427E+02  0.22259688126E+02  0.12700000000E+01 0. -1.
         25    2    1    2    0    0  0.00000000000E+00  0.00000000000E+00  0.15336064380E+03  0.19784835425E+03  0.12499793683E+03 0.  0.
    9000005    1    3    3    0    0 -0.51553039986E+02 -0.34479038237E+02  0.88796963795E+02  0.10831629974E+03  0.10000000000E+01 0.  0.
    9000005    1    3    3    0    0  0.51553039986E+02  0.34479038237E+02  0.64563680009E+02  0.89532054516E+02  0.10000000000E+01 0.  0.
<mgrwt>
<rscale>  0 0.12499794E+03</rscale>
<asrwt>0</asrwt>
<pdfrwt beam="1">  1        4 0.27016077E-01 0.12499794E+03</pdfrwt>
<pdfrwt beam="2">  1       -4 0.34221316E-02 0.12499794E+03</pdfrwt>
<totfact> 0.90503553E+03</totfact>
</mgrwt>
</event>
<event>
 5    1  0.3309811E-002  0.1250040E+03  0.7818608E-02  0.1235063E+00
         -4   -1    0    0    0  501 -0.00000000000E+00  0.00000000000E+00  0.35490256259E+02  0.35512972127E+02  0.12700000000E+01 0.  1.
          4   -1    0    0  501    0  0.00000000000E+00 -0.00000000000E+00 -0.11001095217E+03  0.11001828256E+03  0.12700000000E+01 0.  1.
         25    2    1    2    0    0  0.00000000000E+00  0.00000000000E+00 -0.74520695914E+02  0.14553125469E+03  0.12500404782E+03 0.  0.
    9000005    1    3    3    0    0 -0.52377570413E+02  0.15880527842E+02 -0.72378325291E+02  0.90748129561E+02  0.10000000000E+01 0.  0.
    9000005    1    3    3    0    0  0.52377570413E+02 -0.15880527842E+02 -0.21423706227E+01  0.54783125128E+02  0.10000000000E+01 0.  0.
<mgrwt>
<rscale>  0 0.12500405E+03</rscale>
<asrwt>0</asrwt>
<pdfrwt beam="2">  1        4 0.16927073E-01 0.12500405E+03</pdfrwt>
<pdfrwt beam="1">  1       -4 0.54623507E-02 0.12500405E+03</pdfrwt>
<totfact> 0.10019292E+04</totfact>
</mgrwt>
</event>
<event>
 5    1  0.3309811E-002  0.1249967E+03  0.7818608E-02  0.1235074E+00
         -4   -1    0    0    0  501 -0.00000000000E+00  0.00000000000E+00  0.95002853547E+03  0.95002938434E+03  0.12700000000E+01 0.  1.
          4   -1    0    0  501    0  0.00000000000E+00 -0.00000000000E+00 -0.40125602165E+01  0.42087455959E+01  0.12700000000E+01 0.  1.
         25    2    1    2    0    0  0.00000000000E+00  0.00000000000E+00  0.94601597525E+03  0.95423812993E+03  0.12499673270E+03 0.  0.
    9000005    1    3    3    0    0  0.12290002447E+02  0.54041534706E+02  0.69340951361E+03  0.69562151002E+03  0.10000000000E+01 0.  0.
    9000005    1    3    3    0    0 -0.12290002447E+02 -0.54041534706E+02  0.25260646164E+03  0.25861661992E+03  0.10000000000E+01 0.  0.
<mgrwt>
<rscale>  0 0.12499673E+03</rscale>
<asrwt>0</asrwt>
<pdfrwt beam="2">  1        4 0.63247284E-03 0.12499673E+03</pdfrwt>
<pdfrwt beam="1">  1       -4 0.14617353E+00 0.12499673E+03</pdfrwt>
<totfact> 0.32168235E+03</totfact>
</mgrwt>
</event>
<event>
 5    1  0.3309811E-002  0.1250010E+03  0.7818608E-02  0.1235068E+00
          4   -1    0    0  501    0  0.00000000000E+00  0.00000000000E+00  0.10375166595E+03  0.10375943855E+03  0.12700000000E+01 0.  1.
         -4   -1    0    0    0  501 -0.00000000000E+00 -0.00000000000E+00 -0.37630705907E+02  0.37652130445E+02  0.12700000000E+01 0.  1.
         25    2    1    2    0    0  0.00000000000E+00  0.00000000000E+00  0.66120960042E+02  0.14141156899E+03  0.12500100195E+03 0.  0.
    9000005    1    3    3    0    0  0.19084144483E+02 -0.54238263062E+02  0.53655403645E+01  0.57756235802E+02  0.10000000000E+01 0.  0.
    9000005    1    3    3    0    0 -0.19084144483E+02  0.54238263062E+02  0.60755419678E+02  0.83655333188E+02  0.10000000000E+01 0.  0.
<mgrwt>
<rscale>  0 0.12500100E+03</rscale>
<asrwt>0</asrwt>
<pdfrwt beam="1">  1        4 0.15964041E-01 0.12500100E+03</pdfrwt>
<pdfrwt beam="2">  1       -4 0.57915853E-02 0.12500100E+03</pdfrwt>
<totfact> 0.10104186E+04</totfact>
</mgrwt>
</event>
<event>
 5    1  0.3309811E-002  0.1250036E+03  0.7818608E-02  0.1235064E+00
          4   -1    0    0  501    0  0.00000000000E+00  0.00000000000E+00  0.43854039578E+02  0.43872425136E+02  0.12700000000E+01 0.  1.
         -4   -1    0    0    0  501 -0.00000000000E+00 -0.00000000000E+00 -0.89037422192E+02  0.89046479159E+02  0.12700000000E+01 0.  1.
         25    2    1    2    0    0  0.00000000000E+00  0.00000000000E+00 -0.45183382614E+02  0.13291890429E+03  0.12500358817E+03 0.  0.
    9000005    1    3    3    0    0 -0.47698792668E+02  0.24379120802E+01 -0.65447025401E+02  0.81027349526E+02  0.10000000000E+01 0.  0.
    9000005    1    3    3    0    0  0.47698792668E+02 -0.24379120802E+01  0.20263642788E+02  0.51891554769E+02  0.10000000000E+01 0.  0.
<mgrwt>
<rscale>  0 0.12500359E+03</rscale>
<asrwt>0</asrwt>
<pdfrwt beam="1">  1        4 0.67488863E-02 0.12500359E+03</pdfrwt>
<pdfrwt beam="2">  1       -4 0.13700176E-01 0.12500359E+03</pdfrwt>
<totfact> 0.10281292E+04</totfact>
</mgrwt>
</event>
<event>
 5    1  0.3309811E-002  0.1249936E+03  0.7818608E-02  0.1235079E+00
          4   -1    0    0  501    0  0.00000000000E+00  0.00000000000E+00  0.59001200179E+01  0.60352561027E+01  0.12700000000E+01 0. -1.
         -4   -1    0    0    0  501 -0.00000000000E+00 -0.00000000000E+00 -0.65436405486E+03  0.65436528728E+03  0.12700000000E+01 0. -1.
         25    2    1    2    0    0  0.00000000000E+00  0.00000000000E+00 -0.64846393484E+03  0.66040054338E+03  0.12499361146E+03 0.  0.
    9000005    1    3    3    0    0 -0.43144609523E+02 -0.30627182202E+02 -0.14857181039E+03  0.15771513707E+03  0.10000000000E+01 0.  0.
    9000005    1    3    3    0    0  0.43144609523E+02  0.30627182202E+02 -0.49989212446E+03  0.50268540631E+03  0.10000000000E+01 0.  0.
<mgrwt>
<rscale>  0 0.12499361E+03</rscale>
<asrwt>0</asrwt>
<pdfrwt beam="1">  1        4 0.91820117E-03 0.12499361E+03</pdfrwt>
<pdfrwt beam="2">  1       -4 0.10068183E+00 0.12499361E+03</pdfrwt>
<totfact> 0.45267345E+03</totfact>
</mgrwt>
</event>
<event>
 5    1  0.3309811E-002  0.1250009E+03  0.7818608E-02  0.1235068E+00
         -4   -1    0    0    0  501 -0.00000000000E+00  0.00000000000E+00  0.60558953361E+03  0.60559086529E+03  0.12700000000E+01 0.  1.
          4   -1    0    0  501    0  0.00000000000E+00 -0.00000000000E+00 -0.63865527210E+01  0.65116016200E+01  0.12700000000E+01 0.  1.
         25    2    1    2    0    0  0.00000000000E+00  0.00000000000E+00  0.59920298089E+03  0.61210246691E+03  0.12500087074E+03 0.  0.
    9000005    1    3    3    0    0 -0.25511719728E+02 -0.55554363672E+02  0.23609993083E+03  0.24388790971E+03  0.10000000000E+01 0.  0.
    9000005    1    3    3    0    0  0.25511719728E+02  0.55554363672E+02  0.36310305006E+03  0.36821455720E+03  0.10000000000E+01 0.  0.
<mgrwt>
<rscale>  0 0.12500087E+03</rscale>
<asrwt>0</asrwt>
<pdfrwt beam="2">  1        4 0.99226832E-03 0.12500087E+03</pdfrwt>
<pdfrwt beam="1">  1       -4 0.93177326E-01 0.12500087E+03</pdfrwt>
<totfact> 0.48111559E+03</totfact>
</mgrwt>
</event>
<event>
 5    1  0.3309811E-002  0.1249970E+03  0.7818608E-02  0.1235074E+00
         -4   -1    0    0    0  501 -0.00000000000E+00  0.00000000000E+00  0.38146087727E+03  0.38146299137E+03  0.12700000000E+01 0. -1.
          4   -1    0    0  501    0  0.00000000000E+00 -0.00000000000E+00 -0.10198215373E+02  0.10276988703E+02  0.12700000000E+01 0. -1.
         25    2    1    2    0    0  0.00000000000E+00  0.00000000000E+00  0.37126266190E+03  0.39173998008E+03  0.12499699145E+03 0.  0.
    9000005    1    3    3    0    0 -0.44792283091E+01 -0.58040869025E+02  0.25683967637E+03  0.26335608085E+03  0.10000000000E+01 0.  0.
    9000005    1    3    3    0    0  0.44792283091E+01  0.58040869025E+02  0.11442298553E+03  0.12838389922E+03  0.10000000000E+01 0.  0.
<mgrwt>
<rscale>  0 0.12499699E+03</rscale>
<asrwt>0</asrwt>
<pdfrwt beam="2">  1        4 0.15751785E-02 0.12499699E+03</pdfrwt>
<pdfrwt beam="1">  1       -4 0.58692504E-01 0.12499699E+03</pdfrwt>
<totfact> 0.65368501E+03</totfact>
</mgrwt>
</event>
<event>
 5    1  0.3309811E-002  0.1250008E+03  0.7818608E-02  0.1235068E+00
         -4   -1    0    0    0  501 -0.00000000000E+00  0.00000000000E+00  0.55558869424E+02  0.55573382762E+02  0.12700000000E+01 0.  1.
          4   -1    0    0  501    0  0.00000000000E+00 -0.00000000000E+00 -0.70279758710E+02  0.70291232628E+02  0.12700000000E+01 0.  1.
         25    2    1    2    0    0  0.00000000000E+00  0.00000000000E+00 -0.14720889286E+02  0.12586461539E+03  0.12500078730E+03 0.  0.
    9000005    1    3    3    0    0  0.69642711108E+01 -0.36145561096E+02  0.43489003755E+02  0.56985051607E+02  0.10000000000E+01 0.  0.
    9000005    1    3    3    0    0 -0.69642711108E+01  0.36145561096E+02 -0.58209893041E+02  0.68879563783E+02  0.10000000000E+01 0.  0.
<mgrwt>
<rscale>  0 0.12500079E+03</rscale>
<asrwt>0</asrwt>
<pdfrwt beam="2">  1        4 0.10814270E-01 0.12500079E+03</pdfrwt>
<pdfrwt beam="1">  1       -4 0.85495174E-02 0.12500079E+03</pdfrwt>
<totfact> 0.10433741E+04</totfact>
</mgrwt>
</event>
<event>
 5    1  0.3309811E-002  0.1249974E+03  0.7818608E-02  0.1235073E+00
         -4   -1    0    0    0  501 -0.00000000000E+00  0.00000000000E+00  0.10539276164E+03  0.10540041321E+03  0.12700000000E+01 0. -1.
          4   -1    0    0  501    0  0.00000000000E+00 -0.00000000000E+00 -0.37042301260E+02  0.37064065922E+02  0.12700000000E+01 0. -1.
         25    2    1    2    0    0  0.00000000000E+00  0.00000000000E+00  0.68350460377E+02  0.14246447914E+03  0.12499736950E+03 0.  0.
    9000005    1    3    3    0    0 -0.41159053553E+02  0.22984764258E+02 -0.12577982377E+02  0.48801359797E+02  0.10000000000E+01 0.  0.
    9000005    1    3    3    0    0  0.41159053553E+02 -0.22984764258E+02  0.80928442754E+02  0.93663119338E+02  0.10000000000E+01 0.  0.
<mgrwt>
<rscale>  0 0.12499737E+03</rscale>
<asrwt>0</asrwt>
<pdfrwt beam="2">  1        4 0.57010785E-02 0.12499737E+03</pdfrwt>
<pdfrwt beam="1">  1       -4 0.16216534E-01 0.12499737E+03</pdfrwt>
<totfact> 0.10083359E+04</totfact>
</mgrwt>
</event>
<event>
 5    1  0.3309811E-002  0.1249976E+03  0.7818608E-02  0.1235073E+00
          4   -1    0    0  501    0  0.00000000000E+00  0.00000000000E+00  0.87023045520E+02  0.87032312112E+02  0.12700000000E+01 0. -1.
         -4   -1    0    0    0  501 -0.00000000000E+00 -0.00000000000E+00 -0.44865194393E+02  0.44883165752E+02  0.12700000000E+01 0. -1.
         25    2    1    2    0    0  0.00000000000E+00  0.00000000000E+00  0.42157851126E+02  0.13191547786E+03  0.12499763553E+03 0.  0.
    9000005    1    3    3    0    0 -0.22454378090E+02 -0.20863677493E+02  0.78550220444E+02  0.84324547231E+02  0.10000000000E+01 0.  0.
    9000005    1    3    3    0    0  0.22454378090E+02  0.20863677493E+02 -0.36392369317E+02  0.47590930633E+02  0.10000000000E+01 0.  0.
<mgrwt>
<rscale>  0 0.12499764E+03</rscale>
<asrwt>0</asrwt>
<pdfrwt beam="1">  1        4 0.13390256E-01 0.12499764E+03</pdfrwt>
<pdfrwt beam="2">  1       -4 0.69044329E-02 0.12499764E+03</pdfrwt>
<totfact> 0.10304052E+04</totfact>
</mgrwt>
</event>
<event>
 5    1  0.3309811E-002  0.1250015E+03  0.7818608E-02  0.1235067E+00
          4   -1    0    0  501    0  0.00000000000E+00  0.00000000000E+00  0.29333203750E+02  0.29360683613E+02  0.12700000000E+01 0. -1.
         -4   -1    0    0    0  501 -0.00000000000E+00 -0.00000000000E+00 -0.13307858240E+03  0.13308464222E+03  0.12700000000E+01 0. -1.
         25    2    1    2    0    0  0.00000000000E+00  0.00000000000E+00 -0.10374537865E+03  0.16244532583E+03  0.12500152116E+03 0.  0.
    9000005    1    3    3    0    0 -0.21233887882E+02 -0.75022596555E+01 -0.12762838913E+03  0.12960388731E+03  0.10000000000E+01 0.  0.
    9000005    1    3    3    0    0  0.21233887882E+02  0.75022596555E+01  0.23883010477E+02  0.32841438519E+02  0.10000000000E+01 0.  0.
<mgrwt>
<rscale>  0 0.12500152E+03</rscale>
<asrwt>0</asrwt>
<pdfrwt beam="1">  1        4 0.45153806E-02 0.12500152E+03</pdfrwt>
<pdfrwt beam="2">  1       -4 0.20476208E-01 0.12500152E+03</pdfrwt>
<totfact> 0.96870095E+03</totfact>
</mgrwt>
</event>
<event>
 5    1  0.3309811E-002  0.1250020E+03  0.7818608E-02  0.1235066E+00
          4   -1    0    0  501    0  0.00000000000E+00  0.00000000000E+00  0.98582722605E+01  0.99397400349E+01  0.12700000000E+01 0. -1.
         -4   -1    0    0    0  501 -0.00000000000E+00 -0.00000000000E+00 -0.39454028246E+03  0.39454232648E+03  0.12700000000E+01 0. -1.
         25    2    1    2    0    0  0.00000000000E+00  0.00000000000E+00 -0.38468201020E+03  0.40448206651E+03  0.12500197263E+03 0.  0.
    9000005    1    3    3    0    0 -0.32934613815E+02  0.34578125265E+02 -0.32278200896E+03  0.32629673741E+03  0.10000000000E+01 0.  0.
    9000005    1    3    3    0    0  0.32934613815E+02 -0.34578125265E+02 -0.61900001233E+02  0.78185329101E+02  0.10000000000E+01 0.  0.
<mgrwt>
<rscale>  0 0.12500197E+03</rscale>
<asrwt>0</asrwt>
<pdfrwt beam="1">  1        4 0.15230816E-02 0.12500197E+03</pdfrwt>
<pdfrwt beam="2">  1       -4 0.60704917E-01 0.12500197E+03</pdfrwt>
<totfact> 0.64116405E+03</totfact>
</mgrwt>
</event>
<event>
 5    1  0.3309811E-002  0.1249979E+03  0.7818608E-02  0.1235073E+00
         -4   -1    0    0    0  501 -0.00000000000E+00  0.00000000000E+00  0.96751567405E+01  0.97581534090E+01  0.12700000000E+01 0.  1.
          4   -1    0    0  501    0  0.00000000000E+00 -0.00000000000E+00 -0.40191853185E+03  0.40192053835E+03  0.12700000000E+01 0.  1.
         25    2    1    2    0    0  0.00000000000E+00  0.00000000000E+00 -0.39224337511E+03  0.41167869175E+03  0.12499791969E+03 0.  0.
    9000005    1    3    3    0    0  0.20629001971E+02  0.35608334868E+02 -0.35100689773E+03  0.35341243822E+03  0.10000000000E+01 0.  0.
    9000005    1    3    3    0    0 -0.20629001971E+02 -0.35608334868E+02 -0.41236477380E+02  0.58266253536E+02  0.10000000000E+01 0.  0.
<mgrwt>
<rscale>  0 0.12499792E+03</rscale>
<asrwt>0</asrwt>
<pdfrwt beam="2">  1        4 0.61840146E-01 0.12499792E+03</pdfrwt>
<pdfrwt beam="1">  1       -4 0.14950247E-02 0.12499792E+03</pdfrwt>
<totfact> 0.63435482E+03</totfact>
</mgrwt>
</event>
<event>
 5    1  0.3309811E-002  0.1250017E+03  0.7818608E-02  0.1235067E+00
          4   -1    0    0  501    0  0.00000000000E+00  0.00000000000E+00  0.48327055143E+02  0.48343739603E+02  0.12700000000E+01 0. -1.
         -4   -1    0    0    0  501 -0.00000000000E+00 -0.00000000000E+00 -0.80796069519E+02  0.80806050205E+02  0.12700000000E+01 0. -1.
         25    2    1    2    0    0  0.00000000000E+00  0.00000000000E+00 -0.32469014377E+02  0.12914978981E+03  0.12500172524E+03 0.  0.
    9000005    1    3    3    0    0 -0.42726498355E+02 -0.25015677575E+02 -0.55631483654E+02  0.74479525776E+02  0.10000000000E+01 0.  0.
    9000005    1    3    3    0    0  0.42726498355E+02  0.25015677575E+02  0.23162469278E+02  0.54670264032E+02  0.10000000000E+01 0.  0.
<mgrwt>
<rscale>  0 0.12500173E+03</rscale>
<asrwt>0</asrwt>
<pdfrwt beam="1">  1        4 0.74369827E-02 0.12500173E+03</pdfrwt>
<pdfrwt beam="2">  1       -4 0.12432216E-01 0.12500173E+03</pdfrwt>
<totfact> 0.10362326E+04</totfact>
</mgrwt>
</event>
<event>
 5    1  0.3309811E-002  0.1249935E+03  0.7818608E-02  0.1235079E+00
         -4   -1    0    0    0  501 -0.00000000000E+00  0.00000000000E+00  0.11667648147E+03  0.11668339311E+03  0.12700000000E+01 0.  1.
          4   -1    0    0  501    0  0.00000000000E+00 -0.00000000000E+00 -0.33455915327E+02  0.33480011505E+02  0.12700000000E+01 0.  1.
         25    2    1    2    0    0  0.00000000000E+00  0.00000000000E+00  0.83220566142E+02  0.15016340462E+03  0.12499354166E+03 0.  0.
    9000005    1    3    3    0    0  0.31338722919E+02 -0.37141503404E+01  0.10640559845E+03  0.11099126924E+03  0.10000000000E+01 0.  0.
    9000005    1    3    3    0    0 -0.31338722919E+02  0.37141503404E+01 -0.23185032304E+02  0.39172135376E+02  0.10000000000E+01 0.  0.
<mgrwt>
<rscale>  0 0.12499354E+03</rscale>
<asrwt>0</asrwt>
<pdfrwt beam="2">  1        4 0.51494491E-02 0.12499354E+03</pdfrwt>
<pdfrwt beam="1">  1       -4 0.17952613E-01 0.12499354E+03</pdfrwt>
<totfact> 0.99285566E+03</totfact>
</mgrwt>
</event>
<event>
 5    1  0.3309811E-002  0.1250502E+03  0.7818608E-02  0.1234991E+00
          4   -1    0    0  501    0  0.00000000000E+00  0.00000000000E+00  0.49991497089E+02  0.50007626231E+02  0.12700000000E+01 0.  1.
         -4   -1    0    0    0  501 -0.00000000000E+00 -0.00000000000E+00 -0.78167137931E+02  0.78177454245E+02  0.12700000000E+01 0.  1.
         25    2    1    2    0    0  0.00000000000E+00  0.00000000000E+00 -0.28175640842E+02  0.12818508048E+03  0.12505018241E+03 0.  0.
    9000005    1    3    3    0    0  0.52535571613E+02 -0.38909241710E+01 -0.48595694887E+02  0.71677521841E+02  0.10000000000E+01 0.  0.
    9000005    1    3    3    0    0 -0.52535571613E+02  0.38909241710E+01  0.20420054046E+02  0.56507558635E+02  0.10000000000E+01 0.  0.
<mgrwt>
<rscale>  0 0.12505018E+03</rscale>
<asrwt>0</asrwt>
<pdfrwt beam="1">  1        4 0.76930338E-02 0.12505018E+03</pdfrwt>
<pdfrwt beam="2">  1       -4 0.12027748E-01 0.12505018E+03</pdfrwt>
<totfact> 0.10371738E+04</totfact>
</mgrwt>
</event>
<event>
 5    1  0.3309811E-002  0.1250000E+03  0.7818608E-02  0.1235069E+00
         -4   -1    0    0    0  501 -0.00000000000E+00  0.00000000000E+00  0.69375945956E+03  0.69376062199E+03  0.12700000000E+01 0.  1.
          4   -1    0    0  501    0  0.00000000000E+00 -0.00000000000E+00 -0.55577624103E+01  0.57010194711E+01  0.12700000000E+01 0.  1.
         25    2    1    2    0    0  0.00000000000E+00  0.00000000000E+00  0.68820169715E+03  0.69946164147E+03  0.12500004768E+03 0.  0.
    9000005    1    3    3    0    0  0.58786380087E+02  0.13303433383E+02  0.43646080202E+03  0.44060396222E+03  0.10000000000E+01 0.  0.
    9000005    1    3    3    0    0 -0.58786380087E+02 -0.13303433383E+02  0.25174089513E+03  0.25885767925E+03  0.10000000000E+01 0.  0.
<mgrwt>
<rscale>  0 0.12500005E+03</rscale>
<asrwt>0</asrwt>
<pdfrwt beam="2">  1        4 0.86614943E-03 0.12500005E+03</pdfrwt>
<pdfrwt beam="1">  1       -4 0.10674335E+00 0.12500005E+03</pdfrwt>
<totfact> 0.43115072E+03</totfact>
</mgrwt>
</event>
<event>
 5    1  0.3309811E-002  0.1250025E+03  0.7818608E-02  0.1235065E+00
         -4   -1    0    0    0  501 -0.00000000000E+00  0.00000000000E+00  0.71263438739E+02  0.71274754303E+02  0.12700000000E+01 0.  1.
          4   -1    0    0  501    0  0.00000000000E+00 -0.00000000000E+00 -0.54793354631E+02  0.54808070681E+02  0.12700000000E+01 0.  1.
         25    2    1    2    0    0  0.00000000000E+00  0.00000000000E+00  0.16470084108E+02  0.12608282498E+03  0.12500246032E+03 0.  0.
    9000005    1    3    3    0    0 -0.37590859736E+02 -0.25527375574E+02  0.51509038414E+02  0.68694255057E+02  0.10000000000E+01 0.  0.
    9000005    1    3    3    0    0  0.37590859736E+02  0.25527375574E+02 -0.35038954306E+02  0.57388569927E+02  0.10000000000E+01 0.  0.
<mgrwt>
<rscale>  0 0.12500246E+03</rscale>
<asrwt>0</asrwt>
<pdfrwt beam="2">  1        4 0.84317493E-02 0.12500246E+03</pdfrwt>
<pdfrwt beam="1">  1       -4 0.10965608E-01 0.12500246E+03</pdfrwt>
<totfact> 0.10428564E+04</totfact>
</mgrwt>
</event>
<event>
 4    1  0.3309811E-002  0.1235492E+03  0.7818608E-02  0.1237354E+00
          4   -1    0    0  501    0  0.00000000000E+00  0.00000000000E+00  0.19569672033E+03  0.19570084121E+03  0.12700000000E+01 0. -1.
         -4   -1    0    0    0  501 -0.00000000000E+00 -0.00000000000E+00 -0.19475078898E+02  0.19516444299E+02  0.12700000000E+01 0. -1.
    9000005    1    1    2    0    0 -0.46697486646E+02 -0.36755898696E+02  0.58783202394E+02  0.83594953386E+02  0.10000000000E+01 0.  0.
    9000005    1    1    2    0    0  0.46697486646E+02  0.36755898696E+02  0.11743843904E+03  0.13162233212E+03  0.10000000000E+01 0.  0.
<mgrwt>
<rscale>  0 0.12354923E+03</rscale>
<asrwt>0</asrwt>
<pdfrwt beam="1">  1        4 0.30110686E-01 0.12354923E+03</pdfrwt>
<pdfrwt beam="2">  1       -4 0.29996650E-02 0.12354923E+03</pdfrwt>
<totfact> 0.90533431E+03</totfact>
</mgrwt>
</event>
<event>
 5    1  0.3309811E-002  0.1250021E+03  0.7818608E-02  0.1235066E+00
          4   -1    0    0  501    0  0.00000000000E+00  0.00000000000E+00  0.74672715183E+01  0.75744995827E+01  0.12700000000E+01 0. -1.
         -4   -1    0    0    0  501 -0.00000000000E+00 -0.00000000000E+00 -0.51929654402E+03  0.51929809698E+03  0.12700000000E+01 0. -1.
         25    2    1    2    0    0  0.00000000000E+00  0.00000000000E+00 -0.51182927250E+03  0.52687259656E+03  0.12500211527E+03 0.  0.
    9000005    1    3    3    0    0 -0.48136662412E+02 -0.25530937794E+02 -0.38489466372E+03  0.38873367388E+03  0.10000000000E+01 0.  0.
    9000005    1    3    3    0    0  0.48136662412E+02  0.25530937794E+02 -0.12693460878E+03  0.13813892268E+03  0.10000000000E+01 0.  0.
<mgrwt>
<rscale>  0 0.12500212E+03</rscale>
<asrwt>0</asrwt>
<pdfrwt beam="1">  1        4 0.11571792E-02 0.12500212E+03</pdfrwt>
<pdfrwt beam="2">  1       -4 0.79900115E-01 0.12500212E+03</pdfrwt>
<totfact> 0.53835554E+03</totfact>
</mgrwt>
</event>
<event>
 5    1  0.3309811E-002  0.1249989E+03  0.7818608E-02  0.1235071E+00
          4   -1    0    0  501    0  0.00000000000E+00  0.00000000000E+00  0.34851753016E+03  0.34851984409E+03  0.12700000000E+01 0.  1.
         -4   -1    0    0    0  501 -0.00000000000E+00 -0.00000000000E+00 -0.11169652004E+02  0.11241620252E+02  0.12700000000E+01 0.  1.
         25    2    1    2    0    0  0.00000000000E+00  0.00000000000E+00  0.33734787815E+03  0.35976146435E+03  0.12499888133E+03 0.  0.
    9000005    1    3    3    0    0 -0.97221675500E+01  0.87879369702E+01 -0.71842601090E+01  0.14978717281E+02  0.10000000000E+01 0.  0.
    9000005    1    3    3    0    0  0.97221675500E+01 -0.87879369702E+01  0.34453213826E+03  0.34478274707E+03  0.10000000000E+01 0.  0.
<mgrwt>
<rscale>  0 0.12499888E+03</rscale>
<asrwt>0</asrwt>
<pdfrwt beam="1">  1        4 0.53623796E-01 0.12499888E+03</pdfrwt>
<pdfrwt beam="2">  1       -4 0.17241220E-02 0.12499888E+03</pdfrwt>
<totfact> 0.68665556E+03</totfact>
</mgrwt>
</event>
<event>
 5    1  0.3309811E-002  0.1250011E+03  0.7818608E-02  0.1235068E+00
          4   -1    0    0  501    0  0.00000000000E+00  0.00000000000E+00  0.18112130441E+03  0.18112575689E+03  0.12700000000E+01 0.  1.
         -4   -1    0    0    0  501 -0.00000000000E+00 -0.00000000000E+00 -0.21544012955E+02  0.21581413165E+02  0.12700000000E+01 0.  1.
         25    2    1    2    0    0  0.00000000000E+00  0.00000000000E+00  0.15957729145E+03  0.20270717006E+03  0.12500113938E+03 0.  0.
    9000005    1    3    3    0    0  0.22187586636E+02 -0.52827467056E+02  0.12024175209E+03  0.13319950909E+03  0.10000000000E+01 0.  0.
    9000005    1    3    3    0    0 -0.22187586636E+02  0.52827467056E+02  0.39335539364E+02  0.69507660969E+02  0.10000000000E+01 0.  0.
<mgrwt>
<rscale>  0 0.12500114E+03</rscale>
<asrwt>0</asrwt>
<pdfrwt beam="1">  1        4 0.27868035E-01 0.12500114E+03</pdfrwt>
<pdfrwt beam="2">  1       -4 0.33176830E-02 0.12500114E+03</pdfrwt>
<totfact> 0.89678634E+03</totfact>
</mgrwt>
</event>
<event>
 4    1  0.3309811E-002  0.1250650E+03  0.7818608E-02  0.1234968E+00
         -4   -1    0    0    0  501 -0.00000000000E+00  0.00000000000E+00  0.10222448556E+02  0.10301036573E+02  0.12700000000E+01 0.  1.
          4   -1    0    0  501    0  0.00000000000E+00 -0.00000000000E+00 -0.38097762842E+03  0.38097974520E+03  0.12700000000E+01 0.  1.
    9000005    1    1    2    0    0  0.82586566390E+00  0.60885953389E+02 -0.22979191172E+03  0.23772484949E+03  0.10000000000E+01 0.  0.
    9000005    1    1    2    0    0 -0.82586566390E+00 -0.60885953389E+02 -0.14096326814E+03  0.15355593228E+03  0.10000000000E+01 0.  0.
<mgrwt>
<rscale>  0 0.12506497E+03</rscale>
<asrwt>0</asrwt>
<pdfrwt beam="2">  1        4 0.58618140E-01 0.12506497E+03</pdfrwt>
<pdfrwt beam="1">  1       -4 0.15788927E-02 0.12506497E+03</pdfrwt>
<totfact> 0.65315974E+03</totfact>
</mgrwt>
</event>
<event>
 5    1  0.3309811E-002  0.1249990E+03  0.7818608E-02  0.1235071E+00
         -4   -1    0    0    0  501 -0.00000000000E+00  0.00000000000E+00  0.24229940383E+03  0.24230273213E+03  0.12700000000E+01 0. -1.
          4   -1    0    0  501    0  0.00000000000E+00 -0.00000000000E+00 -0.16092875033E+02  0.16142909491E+02  0.12700000000E+01 0. -1.
         25    2    1    2    0    0  0.00000000000E+00  0.00000000000E+00  0.22620652880E+03  0.25844564162E+03  0.12499902400E+03 0.  0.
    9000005    1    3    3    0    0  0.30530101775E+02  0.54254380764E+02  0.12434529035E+03  0.13906249019E+03  0.10000000000E+01 0.  0.
    9000005    1    3    3    0    0 -0.30530101775E+02 -0.54254380764E+02  0.10186123846E+03  0.11938315143E+03  0.10000000000E+01 0.  0.
<mgrwt>
<rscale>  0 0.12499902E+03</rscale>
<asrwt>0</asrwt>
<pdfrwt beam="2">  1        4 0.24799318E-02 0.12499902E+03</pdfrwt>
<pdfrwt beam="1">  1       -4 0.37280936E-01 0.12499902E+03</pdfrwt>
<totfact> 0.81126450E+03</totfact>
</mgrwt>
</event>
<event>
 5    1  0.3309811E-002  0.1249993E+03  0.7818608E-02  0.1235070E+00
         -4   -1    0    0    0  501 -0.00000000000E+00  0.00000000000E+00  0.35387966325E+02  0.35410747813E+02  0.12700000000E+01 0.  1.
          4   -1    0    0  501    0  0.00000000000E+00 -0.00000000000E+00 -0.11032041772E+03  0.11032772755E+03  0.12700000000E+01 0.  1.
         25    2    1    2    0    0  0.00000000000E+00  0.00000000000E+00 -0.74932451392E+02  0.14573847536E+03  0.12499932371E+03 0.  0.
    9000005    1    3    3    0    0  0.16481147438E+02 -0.23148484653E+02 -0.10235777466E+03  0.10623367920E+03  0.10000000000E+01 0.  0.
    9000005    1    3    3    0    0 -0.16481147438E+02  0.23148484653E+02  0.27425323273E+02  0.39504796155E+02  0.10000000000E+01 0.  0.
<mgrwt>
<rscale>  0 0.12499932E+03</rscale>
<asrwt>0</asrwt>
<pdfrwt beam="2">  1        4 0.16974686E-01 0.12499932E+03</pdfrwt>
<pdfrwt beam="1">  1       -4 0.54466173E-02 0.12499932E+03</pdfrwt>
<totfact> 0.10016158E+04</totfact>
</mgrwt>
</event>
<event>
 5    1  0.3309811E-002  0.1250010E+03  0.7818608E-02  0.1235068E+00
          4   -1    0    0  501    0  0.00000000000E+00  0.00000000000E+00  0.33080595349E+02  0.33104964713E+02  0.12700000000E+01 0. -1.
         -4   -1    0    0    0  501 -0.00000000000E+00 -0.00000000000E+00 -0.11801336512E+03  0.11802019847E+03  0.12700000000E+01 0. -1.
         25    2    1    2    0    0  0.00000000000E+00  0.00000000000E+00 -0.84932769772E+02  0.15112516318E+03  0.12500095826E+03 0.  0.
    9000005    1    3    3    0    0  0.33343308653E+01  0.22565028128E+02  0.27873802893E+02  0.36031196822E+02  0.10000000000E+01 0.  0.
    9000005    1    3    3    0    0 -0.33343308653E+01 -0.22565028128E+02 -0.11280657266E+03  0.11509396636E+03  0.10000000000E+01 0.  0.
<mgrwt>
<rscale>  0 0.12500096E+03</rscale>
<asrwt>0</asrwt>
<pdfrwt beam="1">  1        4 0.50917226E-02 0.12500096E+03</pdfrwt>
<pdfrwt beam="2">  1       -4 0.18158302E-01 0.12500096E+03</pdfrwt>
<totfact> 0.99077749E+03</totfact>
</mgrwt>
</event>
<event>
 5    1  0.3309811E-002  0.1249976E+03  0.7818608E-02  0.1235073E+00
         -4   -1    0    0    0  501 -0.00000000000E+00  0.00000000000E+00  0.35085496551E+02  0.35108474308E+02  0.12700000000E+01 0. -1.
          4   -1    0    0  501    0  0.00000000000E+00 -0.00000000000E+00 -0.11126791556E+03  0.11127516315E+03  0.12700000000E+01 0. -1.
         25    2    1    2    0    0  0.00000000000E+00  0.00000000000E+00 -0.76182419013E+02  0.14638363746E+03  0.12499763337E+03 0.  0.
    9000005    1    3    3    0    0 -0.54385177250E+02 -0.19666655558E+02 -0.65818566589E+02  0.87621963874E+02  0.10000000000E+01 0.  0.
    9000005    1    3    3    0    0  0.54385177250E+02  0.19666655558E+02 -0.10363852424E+02  0.58761673584E+02  0.10000000000E+01 0.  0.
<mgrwt>
<rscale>  0 0.12499763E+03</rscale>
<asrwt>0</asrwt>
<pdfrwt beam="2">  1        4 0.17120466E-01 0.12499763E+03</pdfrwt>
<pdfrwt beam="1">  1       -4 0.54000938E-02 0.12499763E+03</pdfrwt>
<totfact> 0.10003484E+04</totfact>
</mgrwt>
</event>
<event>
 5    1  0.3309811E-002  0.1250002E+03  0.7818608E-02  0.1235069E+00
          4   -1    0    0  501    0  0.00000000000E+00  0.00000000000E+00  0.38393026193E+02  0.38414025567E+02  0.12700000000E+01 0.  1.
         -4   -1    0    0    0  501 -0.00000000000E+00 -0.00000000000E+00 -0.10169124588E+03  0.10169917595E+03  0.12700000000E+01 0.  1.
         25    2    1    2    0    0  0.00000000000E+00  0.00000000000E+00 -0.63298219687E+02  0.14011320151E+03  0.12500017849E+03 0.  0.
    9000005    1    3    3    0    0  0.39950871757E+02 -0.14466984887E+02  0.19715885060E+02  0.46851701458E+02  0.10000000000E+01 0.  0.
    9000005    1    3    3    0    0 -0.39950871757E+02  0.14466984887E+02 -0.83014104747E+02  0.93261500056E+02  0.10000000000E+01 0.  0.
<mgrwt>
<rscale>  0 0.12500018E+03</rscale>
<asrwt>0</asrwt>
<pdfrwt beam="1">  1        4 0.59088448E-02 0.12500018E+03</pdfrwt>
<pdfrwt beam="2">  1       -4 0.15647032E-01 0.12500018E+03</pdfrwt>
<totfact> 0.10131199E+04</totfact>
</mgrwt>
</event>
<event>
 5    1  0.3309811E-002  0.1249982E+03  0.7818608E-02  0.1235072E+00
          4   -1    0    0  501    0  0.00000000000E+00  0.00000000000E+00  0.49564668440E+03  0.49564831147E+03  0.12700000000E+01 0. -1.
         -4   -1    0    0    0  501 -0.00000000000E+00 -0.00000000000E+00 -0.78280694746E+01  0.79304206509E+01  0.12700000000E+01 0. -1.
         25    2    1    2    0    0  0.00000000000E+00  0.00000000000E+00  0.48781861493E+03  0.50357873212E+03  0.12499815347E+03 0.  0.
    9000005    1    3    3    0    0  0.45920766134E+02  0.42249160711E+02  0.23029123522E+03  0.23859748817E+03  0.10000000000E+01 0.  0.
    9000005    1    3    3    0    0 -0.45920766134E+02 -0.42249160711E+02  0.25752737971E+03  0.26498124395E+03  0.10000000000E+01 0.  0.
<mgrwt>
<rscale>  0 0.12499815E+03</rscale>
<asrwt>0</asrwt>
<pdfrwt beam="1">  1        4 0.76261368E-01 0.12499815E+03</pdfrwt>
<pdfrwt beam="2">  1       -4 0.12123162E-02 0.12499815E+03</pdfrwt>
<totfact> 0.55590005E+03</totfact>
</mgrwt>
</event>
<event>
 5    1  0.3309811E-002  0.1249849E+03  0.7818608E-02  0.1235093E+00
         -4   -1    0    0    0  501 -0.00000000000E+00  0.00000000000E+00  0.33119286134E+02  0.33143627050E+02  0.12700000000E+01 0.  1.
          4   -1    0    0  501    0  0.00000000000E+00 -0.00000000000E+00 -0.11784529295E+03  0.11785213604E+03  0.12700000000E+01 0.  1.
         25    2    1    2    0    0  0.00000000000E+00  0.00000000000E+00 -0.84726006812E+02  0.15099576309E+03  0.12498489605E+03 0.  0.
    9000005    1    3    3    0    0  0.23158733890E+01 -0.17725115574E+01  0.33042945577E+02  0.33186462891E+02  0.10000000000E+01 0.  0.
    9000005    1    3    3    0    0 -0.23158733890E+01  0.17725115574E+01 -0.11776895239E+03  0.11780930020E+03  0.10000000000E+01 0.  0.
<mgrwt>
<rscale>  0 0.12498490E+03</rscale>
<asrwt>0</asrwt>
<pdfrwt beam="2">  1        4 0.18132444E-01 0.12498490E+03</pdfrwt>
<pdfrwt beam="1">  1       -4 0.50976736E-02 0.12498490E+03</pdfrwt>
<totfact> 0.99139269E+03</totfact>
</mgrwt>
</event>
<event>
 5    1  0.3309811E-002  0.1250057E+03  0.7818608E-02  0.1235060E+00
         -4   -1    0    0    0  501 -0.00000000000E+00  0.00000000000E+00  0.20317682065E+01  0.23960346502E+01  0.12700000000E+01 0.  1.
          4   -1    0    0  501    0  0.00000000000E+00 -0.00000000000E+00 -0.17642143878E+04  0.17642148449E+04  0.12700000000E+01 0.  1.
         25    2    1    2    0    0  0.00000000000E+00  0.00000000000E+00 -0.17621826196E+04  0.17666108796E+04  0.12500565988E+03 0.  0.
    9000005    1    3    3    0    0 -0.20556539443E+02  0.38029572053E+02 -0.24329247685E+03  0.24710533979E+03  0.10000000000E+01 0.  0.
    9000005    1    3    3    0    0  0.20556539443E+02 -0.38029572053E+02 -0.15188901427E+04  0.15195055398E+04  0.10000000000E+01 0.  0.
<mgrwt>
<rscale>  0 0.12500566E+03</rscale>
<asrwt>0</asrwt>
<pdfrwt beam="2">  1        4 0.27144453E+00 0.12500566E+03</pdfrwt>
<pdfrwt beam="1">  1       -4 0.34063679E-03 0.12500566E+03</pdfrwt>
<totfact> 0.13223459E+03</totfact>
</mgrwt>
</event>
<event>
 5    1  0.3309811E-002  0.1249996E+03  0.7818608E-02  0.1235070E+00
          4   -1    0    0  501    0  0.00000000000E+00  0.00000000000E+00  0.63557713218E+02  0.63570400419E+02  0.12700000000E+01 0.  1.
         -4   -1    0    0    0  501 -0.00000000000E+00 -0.00000000000E+00 -0.61434147604E+02  0.61447273266E+02  0.12700000000E+01 0.  1.
         25    2    1    2    0    0  0.00000000000E+00  0.00000000000E+00  0.21235656137E+01  0.12501767369E+03  0.12499963681E+03 0.  0.
    9000005    1    3    3    0    0 -0.55856082064E+02  0.25172894756E+02  0.13378216336E+02  0.62718045301E+02  0.10000000000E+01 0.  0.
    9000005    1    3    3    0    0  0.55856082064E+02 -0.25172894756E+02 -0.11254650723E+02  0.62299628385E+02  0.10000000000E+01 0.  0.
<mgrwt>
<rscale>  0 0.12499964E+03</rscale>
<asrwt>0</asrwt>
<pdfrwt beam="1">  1        4 0.97800953E-02 0.12499964E+03</pdfrwt>
<pdfrwt beam="2">  1       -4 0.94533930E-02 0.12499964E+03</pdfrwt>
<totfact> 0.10452564E+04</totfact>
</mgrwt>
</event>
<event>
 5    1  0.3309811E-002  0.1249994E+03  0.7818608E-02  0.1235070E+00
         -4   -1    0    0    0  501 -0.00000000000E+00  0.00000000000E+00  0.10699105697E+03  0.10699859425E+03  0.12700000000E+01 0. -1.
          4   -1    0    0  501    0  0.00000000000E+00 -0.00000000000E+00 -0.36489826608E+02  0.36511920599E+02  0.12700000000E+01 0. -1.
         25    2    1    2    0    0  0.00000000000E+00  0.00000000000E+00  0.70501230358E+02  0.14351051485E+03  0.12499937756E+03 0.  0.
    9000005    1    3    3    0    0  0.11577124030E+02  0.60501173193E+02  0.47335008643E+02  0.77691858014E+02  0.10000000000E+01 0.  0.
    9000005    1    3    3    0    0 -0.11577124030E+02 -0.60501173193E+02  0.23166221715E+02  0.65818656831E+02  0.10000000000E+01 0.  0.
<mgrwt>
<rscale>  0 0.12499938E+03</rscale>
<asrwt>0</asrwt>
<pdfrwt beam="2">  1        4 0.56160988E-02 0.12499938E+03</pdfrwt>
<pdfrwt beam="1">  1       -4 0.16462442E-01 0.12499938E+03</pdfrwt>
<totfact> 0.10061481E+04</totfact>
</mgrwt>
</event>
<event>
 5    1  0.3309811E-002  0.1250097E+03  0.7818608E-02  0.1235054E+00
          4   -1    0    0  501    0  0.00000000000E+00  0.00000000000E+00  0.37289660106E+03  0.37289876372E+03  0.12700000000E+01 0. -1.
         -4   -1    0    0    0  501 -0.00000000000E+00 -0.00000000000E+00 -0.10436360235E+02  0.10513349369E+02  0.12700000000E+01 0. -1.
         25    2    1    2    0    0  0.00000000000E+00  0.00000000000E+00  0.36246024082E+03  0.38341211308E+03  0.12500968875E+03 0.  0.
    9000005    1    3    3    0    0  0.12994336798E+02 -0.57668941858E+02  0.24343140584E+03  0.25050830124E+03  0.10000000000E+01 0.  0.
    9000005    1    3    3    0    0 -0.12994336798E+02  0.57668941858E+02  0.11902883498E+03  0.13290381184E+03  0.10000000000E+01 0.  0.
<mgrwt>
<rscale>  0 0.12500969E+03</rscale>
<asrwt>0</asrwt>
<pdfrwt beam="1">  1        4 0.57374802E-01 0.12500969E+03</pdfrwt>
<pdfrwt beam="2">  1       -4 0.16116823E-02 0.12500969E+03</pdfrwt>
<totfact> 0.66184553E+03</totfact>
</mgrwt>
</event>
<event>
 5    1  0.3309811E-002  0.1250010E+03  0.7818608E-02  0.1235068E+00
         -4   -1    0    0    0  501 -0.00000000000E+00  0.00000000000E+00  0.75399391962E+01  0.76461482514E+01  0.12700000000E+01 0. -1.
          4   -1    0    0  501    0  0.00000000000E+00 -0.00000000000E+00 -0.51435240188E+03  0.51435396978E+03  0.12700000000E+01 0. -1.
         25    2    1    2    0    0  0.00000000000E+00  0.00000000000E+00 -0.50681246269E+03  0.52200011803E+03  0.12500100353E+03 0.  0.
    9000005    1    3    3    0    0 -0.34195422004E+02 -0.25904489414E+02 -0.63643394897E+02  0.76758394797E+02  0.10000000000E+01 0.  0.
    9000005    1    3    3    0    0  0.34195422004E+02  0.25904489414E+02 -0.44316906779E+03  0.44524172323E+03  0.10000000000E+01 0.  0.
<mgrwt>
<rscale>  0 0.12500100E+03</rscale>
<asrwt>0</asrwt>
<pdfrwt beam="2">  1        4 0.79139402E-01 0.12500100E+03</pdfrwt>
<pdfrwt beam="1">  1       -4 0.11682816E-02 0.12500100E+03</pdfrwt>
<totfact> 0.54195754E+03</totfact>
</mgrwt>
</event>
<event>
 5    1  0.3309811E-002  0.1249961E+03  0.7818608E-02  0.1235075E+00
          4   -1    0    0  501    0  0.00000000000E+00  0.00000000000E+00  0.79696616886E+01  0.80702173101E+01  0.12700000000E+01 0.  1.
         -4   -1    0    0    0  501 -0.00000000000E+00 -0.00000000000E+00 -0.48693568523E+03  0.48693734140E+03  0.12700000000E+01 0.  1.
         25    2    1    2    0    0  0.00000000000E+00  0.00000000000E+00 -0.47896602354E+03  0.49500755871E+03  0.12499612584E+03 0.  0.
    9000005    1    3    3    0    0  0.53928593675E+02  0.28263665828E+02 -0.29519081854E+03  0.30140628290E+03  0.10000000000E+01 0.  0.
    9000005    1    3    3    0    0 -0.53928593675E+02 -0.28263665828E+02 -0.18377520500E+03  0.19360127580E+03  0.10000000000E+01 0.  0.
<mgrwt>
<rscale>  0 0.12499613E+03</rscale>
<asrwt>0</asrwt>
<pdfrwt beam="1">  1        4 0.12339646E-02 0.12499613E+03</pdfrwt>
<pdfrwt beam="2">  1       -4 0.74921022E-01 0.12499613E+03</pdfrwt>
<totfact> 0.56258613E+03</totfact>
</mgrwt>
</event>
<event>
 5    1  0.3309811E-002  0.1249990E+03  0.7818608E-02  0.1235071E+00
          4   -1    0    0  501    0  0.00000000000E+00  0.00000000000E+00  0.51259599059E+02  0.51275329309E+02  0.12700000000E+01 0.  1.
         -4   -1    0    0    0  501 -0.00000000000E+00 -0.00000000000E+00 -0.76171361835E+02  0.76181948411E+02  0.12700000000E+01 0.  1.
         25    2    1    2    0    0  0.00000000000E+00  0.00000000000E+00 -0.24911762776E+02  0.12745727772E+03  0.12499904687E+03 0.  0.
    9000005    1    3    3    0    0  0.59663894676E+02  0.79945880777E+01  0.46519342984E+01  0.60384884360E+02  0.10000000000E+01 0.  0.
    9000005    1    3    3    0    0 -0.59663894676E+02 -0.79945880777E+01 -0.29563697074E+02  0.67072393360E+02  0.10000000000E+01 0.  0.
<mgrwt>
<rscale>  0 0.12499905E+03</rscale>
<asrwt>0</asrwt>
<pdfrwt beam="1">  1        4 0.78881165E-02 0.12499905E+03</pdfrwt>
<pdfrwt beam="2">  1       -4 0.11720695E-01 0.12499905E+03</pdfrwt>
<totfact> 0.10399450E+04</totfact>
</mgrwt>
</event>
<event>
 5    1  0.3309811E-002  0.1249895E+03  0.7818608E-02  0.1235086E+00
          4   -1    0    0  501    0  0.00000000000E+00  0.00000000000E+00  0.12054419337E+02  0.12121135490E+02  0.12700000000E+01 0. -1.
         -4   -1    0    0    0  501 -0.00000000000E+00 -0.00000000000E+00 -0.32303480626E+03  0.32303730273E+03  0.12700000000E+01 0. -1.
         25    2    1    2    0    0  0.00000000000E+00  0.00000000000E+00 -0.31098038692E+03  0.33515843822E+03  0.12498951020E+03 0.  0.
    9000005    1    3    3    0    0  0.55764725368E+02  0.56923024156E+01 -0.81445667062E+02  0.98876203332E+02  0.10000000000E+01 0.  0.
    9000005    1    3    3    0    0 -0.55764725368E+02 -0.56923024156E+01 -0.22953471986E+03  0.23628223489E+03  0.10000000000E+01 0.  0.
<mgrwt>
<rscale>  0 0.12498951E+03</rscale>
<asrwt>0</asrwt>
<pdfrwt beam="1">  1        4 0.18598503E-02 0.12498951E+03</pdfrwt>
<pdfrwt beam="2">  1       -4 0.49702980E-01 0.12498951E+03</pdfrwt>
<totfact> 0.71405366E+03</totfact>
</mgrwt>
</event>
<event>
 5    1  0.3309811E-002  0.1250053E+03  0.7818608E-02  0.1235061E+00
          4   -1    0    0  501    0  0.00000000000E+00  0.00000000000E+00  0.42156479063E+02  0.42175604643E+02  0.12700000000E+01 0. -1.
         -4   -1    0    0    0  501 -0.00000000000E+00 -0.00000000000E+00 -0.92624131583E+02  0.92632837868E+02  0.12700000000E+01 0. -1.
         25    2    1    2    0    0  0.00000000000E+00  0.00000000000E+00 -0.50467652519E+02  0.13480844251E+03  0.12500532877E+03 0.  0.
    9000005    1    3    3    0    0 -0.51439911641E+02  0.51821056468E+01  0.12628821254E+02  0.53229745958E+02  0.10000000000E+01 0.  0.
    9000005    1    3    3    0    0  0.51439911641E+02 -0.51821056468E+01 -0.63096473774E+02  0.81578696552E+02  0.10000000000E+01 0.  0.
<mgrwt>
<rscale>  0 0.12500533E+03</rscale>
<asrwt>0</asrwt>
<pdfrwt beam="1">  1        4 0.64877531E-02 0.12500533E+03</pdfrwt>
<pdfrwt beam="2">  1       -4 0.14252007E-01 0.12500533E+03</pdfrwt>
<totfact> 0.10240879E+04</totfact>
</mgrwt>
</event>
<event>
 5    1  0.3309811E-002  0.1249995E+03  0.7818608E-02  0.1235070E+00
          4   -1    0    0  501    0  0.00000000000E+00  0.00000000000E+00  0.20075268976E+03  0.20075670686E+03  0.12700000000E+01 0. -1.
         -4   -1    0    0    0  501 -0.00000000000E+00 -0.00000000000E+00 -0.19432940840E+02  0.19474395747E+02  0.12700000000E+01 0. -1.
         25    2    1    2    0    0  0.00000000000E+00  0.00000000000E+00  0.18131974892E+03  0.22023110260E+03  0.12499954881E+03 0.  0.
    9000005    1    3    3    0    0  0.21605047227E+02  0.55621237761E+02  0.57948071277E+02  0.83183406521E+02  0.10000000000E+01 0.  0.
    9000005    1    3    3    0    0 -0.21605047227E+02 -0.55621237761E+02  0.12337167765E+03  0.13704769608E+03  0.10000000000E+01 0.  0.
<mgrwt>
<rscale>  0 0.12499955E+03</rscale>
<asrwt>0</asrwt>
<pdfrwt beam="1">  1        4 0.30888525E-01 0.12499955E+03</pdfrwt>
<pdfrwt beam="2">  1       -4 0.29931812E-02 0.12499955E+03</pdfrwt>
<totfact> 0.86832670E+03</totfact>
</mgrwt>
</event>
<event>
 5    1  0.3309811E-002  0.1249974E+03  0.7818608E-02  0.1235073E+00
          4   -1    0    0  501    0  0.00000000000E+00  0.00000000000E+00  0.43883530617E+02  0.43901903825E+02  0.12700000000E+01 0.  1.
         -4   -1    0    0    0  501 -0.00000000000E+00 -0.00000000000E+00 -0.88968736833E+02  0.88977800791E+02  0.12700000000E+01 0.  1.
         25    2    1    2    0    0  0.00000000000E+00  0.00000000000E+00 -0.45085206216E+02  0.13287970462E+03  0.12499736029E+03 0.  0.
    9000005    1    3    3    0    0  0.22738973763E+02  0.57725165564E+02 -0.14599519966E+02  0.63744816655E+02  0.10000000000E+01 0.  0.
    9000005    1    3    3    0    0 -0.22738973763E+02 -0.57725165564E+02 -0.30485686250E+02  0.69134887961E+02  0.10000000000E+01 0.  0.
<mgrwt>
<rscale>  0 0.12499736E+03</rscale>
<asrwt>0</asrwt>
<pdfrwt beam="1">  1        4 0.67534229E-02 0.12499736E+03</pdfrwt>
<pdfrwt beam="2">  1       -4 0.13689609E-01 0.12499736E+03</pdfrwt>
<totfact> 0.10283570E+04</totfact>
</mgrwt>
</event>
<event>
 5    1  0.3309811E-002  0.1249990E+03  0.7818608E-02  0.1235071E+00
         -4   -1    0    0    0  501 -0.00000000000E+00  0.00000000000E+00  0.16297492173E+02  0.16346900352E+02  0.12700000000E+01 0.  1.
          4   -1    0    0  501    0  0.00000000000E+00 -0.00000000000E+00 -0.23926628119E+03  0.23926965168E+03  0.12700000000E+01 0.  1.
         25    2    1    2    0    0  0.00000000000E+00  0.00000000000E+00 -0.22296878902E+03  0.25561655203E+03  0.12499896318E+03 0.  0.
    9000005    1    3    3    0    0 -0.57910266056E+02  0.28825020716E+01 -0.63820073837E+02  0.86231720135E+02  0.10000000000E+01 0.  0.
    9000005    1    3    3    0    0  0.57910266056E+02 -0.28825020716E+01 -0.15914871518E+03  0.16938483190E+03  0.10000000000E+01 0.  0.
<mgrwt>
<rscale>  0 0.12499896E+03</rscale>
<asrwt>0</asrwt>
<pdfrwt beam="2">  1        4 0.36814255E-01 0.12499896E+03</pdfrwt>
<pdfrwt beam="1">  1       -4 0.25113666E-02 0.12499896E+03</pdfrwt>
<totfact> 0.81527061E+03</totfact>
</mgrwt>
</event>
<event>
 5    1  0.3309811E-002  0.1250033E+03  0.7818608E-02  0.1235064E+00
          4   -1    0    0  501    0  0.00000000000E+00  0.00000000000E+00  0.18399490162E+03  0.18399928457E+03  0.12700000000E+01 0.  1.
         -4   -1    0    0    0  501 -0.00000000000E+00 -0.00000000000E+00 -0.21207710163E+02  0.21245702397E+02  0.12700000000E+01 0.  1.
         25    2    1    2    0    0  0.00000000000E+00  0.00000000000E+00  0.16278719146E+03  0.20524498697E+03  0.12500333984E+03 0.  0.
    9000005    1    3    3    0    0  0.16492919242E+02 -0.52401571923E+02  0.32478891342E+02  0.63826479677E+02  0.10000000000E+01 0.  0.
    9000005    1    3    3    0    0 -0.16492919242E+02  0.52401571923E+02  0.13030830011E+03  0.14141850729E+03  0.10000000000E+01 0.  0.
<mgrwt>
<rscale>  0 0.12500334E+03</rscale>
<asrwt>0</asrwt>
<pdfrwt beam="1">  1        4 0.28310166E-01 0.12500334E+03</pdfrwt>
<pdfrwt beam="2">  1       -4 0.32659845E-02 0.12500334E+03</pdfrwt>
<totfact> 0.89251707E+03</totfact>
</mgrwt>
</event>
<event>
 5    1  0.3309811E-002  0.1250175E+03  0.7818608E-02  0.1235042E+00
          4   -1    0    0  501    0  0.00000000000E+00  0.00000000000E+00  0.64610495629E+01  0.65846838538E+01  0.12700000000E+01 0. -1.
         -4   -1    0    0    0  501 -0.00000000000E+00 -0.00000000000E+00 -0.59889813108E+03  0.59889947764E+03  0.12700000000E+01 0. -1.
         25    2    1    2    0    0  0.00000000000E+00  0.00000000000E+00 -0.59243708152E+03  0.60548416149E+03  0.12501749580E+03 0.  0.
    9000005    1    3    3    0    0  0.44790036253E+02 -0.23888946885E+01 -0.50702216901E+03  0.50900327507E+03  0.10000000000E+01 0.  0.
    9000005    1    3    3    0    0 -0.44790036253E+02  0.23888946885E+01 -0.85414912510E+02  0.96480886421E+02  0.10000000000E+01 0.  0.
<mgrwt>
<rscale>  0 0.12501750E+03</rscale>
<asrwt>0</asrwt>
<pdfrwt beam="1">  1        4 0.10036220E-02 0.12501750E+03</pdfrwt>
<pdfrwt beam="2">  1       -4 0.92147745E-01 0.12501750E+03</pdfrwt>
<totfact> 0.48504663E+03</totfact>
</mgrwt>
</event>
<event>
 5    1  0.3309811E-002  0.1250057E+03  0.7818608E-02  0.1235060E+00
         -4   -1    0    0    0  501 -0.00000000000E+00  0.00000000000E+00  0.25873748415E+02  0.25904898321E+02  0.12700000000E+01 0. -1.
          4   -1    0    0  501    0  0.00000000000E+00 -0.00000000000E+00 -0.15086264307E+03  0.15086798857E+03  0.12700000000E+01 0. -1.
         25    2    1    2    0    0  0.00000000000E+00  0.00000000000E+00 -0.12498889466E+03  0.17677288689E+03  0.12500571888E+03 0.  0.
    9000005    1    3    3    0    0  0.23237653390E+02  0.20278808712E+02  0.14368953881E+02  0.34039469054E+02  0.10000000000E+01 0.  0.
    9000005    1    3    3    0    0 -0.23237653390E+02 -0.20278808712E+02 -0.13935784854E+03  0.14273341784E+03  0.10000000000E+01 0.  0.
<mgrwt>
<rscale>  0 0.12500572E+03</rscale>
<asrwt>0</asrwt>
<pdfrwt beam="2">  1        4 0.23212444E-01 0.12500572E+03</pdfrwt>
<pdfrwt beam="1">  1       -4 0.39833841E-02 0.12500572E+03</pdfrwt>
<totfact> 0.94189058E+03</totfact>
</mgrwt>
</event>
<event>
 5    1  0.3309811E-002  0.1250027E+03  0.7818608E-02  0.1235065E+00
         -4   -1    0    0    0  501 -0.00000000000E+00  0.00000000000E+00  0.47441143410E+02  0.47458139323E+02  0.12700000000E+01 0.  1.
          4   -1    0    0  501    0  0.00000000000E+00 -0.00000000000E+00 -0.82305717784E+02  0.82315515427E+02  0.12700000000E+01 0.  1.
         25    2    1    2    0    0  0.00000000000E+00  0.00000000000E+00 -0.34864574374E+02  0.12977365475E+03  0.12500265166E+03 0.  0.
    9000005    1    3    3    0    0 -0.70469453468E+01  0.57981721739E+02 -0.40503816051E+02  0.71085150414E+02  0.10000000000E+01 0.  0.
    9000005    1    3    3    0    0  0.70469453468E+01 -0.57981721739E+02  0.56392416772E+01  0.58688504337E+02  0.10000000000E+01 0.  0.
<mgrwt>
<rscale>  0 0.12500265E+03</rscale>
<asrwt>0</asrwt>
<pdfrwt beam="2">  1        4 0.12664479E-01 0.12500265E+03</pdfrwt>
<pdfrwt beam="1">  1       -4 0.73006985E-02 0.12500265E+03</pdfrwt>
<totfact> 0.10348732E+04</totfact>
</mgrwt>
</event>
<event>
 4    1  0.3309811E-002  0.1248646E+03  0.7818608E-02  0.1235281E+00
          4   -1    0    0  501    0  0.00000000000E+00  0.00000000000E+00  0.19392370713E+02  0.19433912161E+02  0.12700000000E+01 0. -1.
         -4   -1    0    0    0  501 -0.00000000000E+00 -0.00000000000E+00 -0.20073760195E+03  0.20074161935E+03  0.12700000000E+01 0. -1.
    9000005    1    1    2    0    0  0.15672983735E+02 -0.41760142200E+02 -0.13665214323E+02  0.46661439950E+02  0.10000000000E+01 0.  0.
    9000005    1    1    2    0    0 -0.15672983735E+02  0.41760142200E+02 -0.16768001692E+03  0.17351409156E+03  0.10000000000E+01 0.  0.
<mgrwt>
<rscale>  0 0.12486461E+03</rscale>
<asrwt>0</asrwt>
<pdfrwt beam="1">  1        4 0.29869463E-02 0.12486461E+03</pdfrwt>
<pdfrwt beam="2">  1       -4 0.30886211E-01 0.12486461E+03</pdfrwt>
<totfact> 0.87103713E+03</totfact>
</mgrwt>
</event>
<event>
 5    1  0.3309811E-002  0.1249999E+03  0.7818608E-02  0.1235069E+00
         -4   -1    0    0    0  501 -0.00000000000E+00  0.00000000000E+00  0.22133879683E+03  0.22134244031E+03  0.12700000000E+01 0. -1.
          4   -1    0    0  501    0  0.00000000000E+00 -0.00000000000E+00 -0.17621612676E+02  0.17667318226E+02  0.12700000000E+01 0. -1.
         25    2    1    2    0    0  0.00000000000E+00  0.00000000000E+00  0.20371718415E+03  0.23900975853E+03  0.12499989422E+03 0.  0.
    9000005    1    3    3    0    0  0.15986678792E+02 -0.12862332094E+02 -0.11006434843E+02  0.23305688011E+02  0.10000000000E+01 0.  0.
    9000005    1    3    3    0    0 -0.15986678792E+02  0.12862332094E+02  0.21472361900E+03  0.21570407052E+03  0.10000000000E+01 0.  0.
<mgrwt>
<rscale>  0 0.12499989E+03</rscale>
<asrwt>0</asrwt>
<pdfrwt beam="2">  1        4 0.27148135E-02 0.12499989E+03</pdfrwt>
<pdfrwt beam="1">  1       -4 0.34055918E-01 0.12499989E+03</pdfrwt>
<totfact> 0.83945265E+03</totfact>
</mgrwt>
</event>
<event>
 5    1  0.3309811E-002  0.1250062E+03  0.7818608E-02  0.1235060E+00
          4   -1    0    0  501    0  0.00000000000E+00  0.00000000000E+00  0.78177094927E+01  0.79201945502E+01  0.12700000000E+01 0.  1.
         -4   -1    0    0    0  501 -0.00000000000E+00 -0.00000000000E+00 -0.49635868761E+03  0.49636031234E+03  0.12700000000E+01 0.  1.
         25    2    1    2    0    0  0.00000000000E+00  0.00000000000E+00 -0.48854097811E+03  0.50428050689E+03  0.12500616916E+03 0.  0.
    9000005    1    3    3    0    0  0.60036244235E+02  0.17353462345E+02 -0.24579226585E+03  0.25361453276E+03  0.10000000000E+01 0.  0.
    9000005    1    3    3    0    0 -0.60036244235E+02 -0.17353462345E+02 -0.24274871226E+03  0.25066597412E+03  0.10000000000E+01 0.  0.
<mgrwt>
<rscale>  0 0.12500617E+03</rscale>
<asrwt>0</asrwt>
<pdfrwt beam="1">  1        4 0.12107334E-02 0.12500617E+03</pdfrwt>
<pdfrwt beam="2">  1       -4 0.76370859E-01 0.12500617E+03</pdfrwt>
<totfact> 0.55526254E+03</totfact>
</mgrwt>
</event>
<event>
 5    1  0.3309811E-002  0.1250077E+03  0.7818608E-02  0.1235057E+00
         -4   -1    0    0    0  501 -0.00000000000E+00  0.00000000000E+00  0.77105537039E+02  0.77115995371E+02  0.12700000000E+01 0. -1.
          4   -1    0    0  501    0  0.00000000000E+00 -0.00000000000E+00 -0.50645492780E+02  0.50661413708E+02  0.12700000000E+01 0. -1.
         25    2    1    2    0    0  0.00000000000E+00  0.00000000000E+00  0.26460044259E+02  0.12777740908E+03  0.12500772908E+03 0.  0.
    9000005    1    3    3    0    0 -0.37091664993E+02 -0.18925964549E+02 -0.34404527203E+02  0.54024579944E+02  0.10000000000E+01 0.  0.
    9000005    1    3    3    0    0  0.37091664993E+02  0.18925964549E+02  0.60864571463E+02  0.73752829135E+02  0.10000000000E+01 0.  0.
<mgrwt>
<rscale>  0 0.12500773E+03</rscale>
<asrwt>0</asrwt>
<pdfrwt beam="2">  1        4 0.77936434E-02 0.12500773E+03</pdfrwt>
<pdfrwt beam="1">  1       -4 0.11864420E-01 0.12500773E+03</pdfrwt>
<totfact> 0.10390484E+04</totfact>
</mgrwt>
</event>
<event>
 5    1  0.3309811E-002  0.1250121E+03  0.7818608E-02  0.1235050E+00
          4   -1    0    0  501    0  0.00000000000E+00  0.00000000000E+00  0.60938834904E+02  0.60952067229E+02  0.12700000000E+01 0.  1.
         -4   -1    0    0    0  501 -0.00000000000E+00 -0.00000000000E+00 -0.64087130940E+02  0.64099713355E+02  0.12700000000E+01 0.  1.
         25    2    1    2    0    0  0.00000000000E+00  0.00000000000E+00 -0.31482960362E+01  0.12505178058E+03  0.12501214365E+03 0.  0.
    9000005    1    3    3    0    0 -0.53814950716E+02  0.17331067265E+02 -0.28220803485E+02  0.63196744872E+02  0.10000000000E+01 0.  0.
    9000005    1    3    3    0    0  0.53814950716E+02 -0.17331067265E+02  0.25072507448E+02  0.61855035711E+02  0.10000000000E+01 0.  0.
<mgrwt>
<rscale>  0 0.12501214E+03</rscale>
<asrwt>0</asrwt>
<pdfrwt beam="1">  1        4 0.93771911E-02 0.12501214E+03</pdfrwt>
<pdfrwt beam="2">  1       -4 0.98615444E-02 0.12501214E+03</pdfrwt>
<totfact> 0.10448870E+04</totfact>
</mgrwt>
</event>
<event>
 5    1  0.3309811E-002  0.1250010E+03  0.7818608E-02  0.1235068E+00
          4   -1    0    0  501    0  0.00000000000E+00  0.00000000000E+00  0.19912274247E+02  0.19952733289E+02  0.12700000000E+01 0. -1.
         -4   -1    0    0    0  501 -0.00000000000E+00 -0.00000000000E+00 -0.19593455366E+03  0.19593866953E+03  0.12700000000E+01 0. -1.
         25    2    1    2    0    0  0.00000000000E+00  0.00000000000E+00 -0.17602227941E+03  0.21589140282E+03  0.12500101984E+03 0.  0.
    9000005    1    3    3    0    0  0.40972595270E+01  0.48448613165E+02 -0.15581578934E+03  0.16322872254E+03  0.10000000000E+01 0.  0.
    9000005    1    3    3    0    0 -0.40972595270E+01 -0.48448613165E+02 -0.20206490067E+02  0.52662680278E+02  0.10000000000E+01 0.  0.
<mgrwt>
<rscale>  0 0.12500102E+03</rscale>
<asrwt>0</asrwt>
<pdfrwt beam="1">  1        4 0.30668558E-02 0.12500102E+03</pdfrwt>
<pdfrwt beam="2">  1       -4 0.30147205E-01 0.12500102E+03</pdfrwt>
<totfact> 0.87520692E+03</totfact>
</mgrwt>
</event>
<event>
 5    1  0.3309811E-002  0.1250002E+03  0.7818608E-02  0.1235069E+00
         -4   -1    0    0    0  501 -0.00000000000E+00  0.00000000000E+00  0.20173633095E+03  0.20174032846E+03  0.12700000000E+01 0. -1.
          4   -1    0    0  501    0  0.00000000000E+00 -0.00000000000E+00 -0.19338178172E+02  0.19379835784E+02  0.12700000000E+01 0. -1.
         25    2    1    2    0    0  0.00000000000E+00  0.00000000000E+00  0.18239815278E+03  0.22112016424E+03  0.12500016359E+03 0.  0.
    9000005    1    3    3    0    0 -0.42367119302E+02 -0.88700655967E+01  0.17093203319E+03  0.17633040246E+03  0.10000000000E+01 0.  0.
    9000005    1    3    3    0    0  0.42367119302E+02  0.88700655967E+01  0.11466119587E+02  0.44789761777E+02  0.10000000000E+01 0.  0.
<mgrwt>
<rscale>  0 0.12500016E+03</rscale>
<asrwt>0</asrwt>
<pdfrwt beam="2">  1        4 0.29786163E-02 0.12500016E+03</pdfrwt>
<pdfrwt beam="1">  1       -4 0.31039870E-01 0.12500016E+03</pdfrwt>
<totfact> 0.86691091E+03</totfact>
</mgrwt>
</event>
<event>
 5    1  0.3309811E-002  0.1250011E+03  0.7818608E-02  0.1235068E+00
          4   -1    0    0  501    0  0.00000000000E+00  0.00000000000E+00  0.47738940970E+02  0.47755830900E+02  0.12700000000E+01 0. -1.
         -4   -1    0    0    0  501 -0.00000000000E+00 -0.00000000000E+00 -0.81790400480E+02  0.81800259845E+02  0.12700000000E+01 0. -1.
         25    2    1    2    0    0  0.00000000000E+00  0.00000000000E+00 -0.34051459510E+02  0.12955609074E+03  0.12500111501E+03 0.  0.
    9000005    1    3    3    0    0 -0.39772444803E+02  0.47788338084E+02 -0.23559990888E+02  0.66495456936E+02  0.10000000000E+01 0.  0.
    9000005    1    3    3    0    0  0.39772444803E+02 -0.47788338084E+02 -0.10491468621E+02  0.63060633808E+02  0.10000000000E+01 0.  0.
<mgrwt>
<rscale>  0 0.12500112E+03</rscale>
<asrwt>0</asrwt>
<pdfrwt beam="1">  1        4 0.73465101E-02 0.12500112E+03</pdfrwt>
<pdfrwt beam="2">  1       -4 0.12585196E-01 0.12500112E+03</pdfrwt>
<totfact> 0.10353752E+04</totfact>
</mgrwt>
</event>
<event>
 5    1  0.3309811E-002  0.1250003E+03  0.7818608E-02  0.1235069E+00
         -4   -1    0    0    0  501 -0.00000000000E+00  0.00000000000E+00  0.11174351095E+02  0.11246289272E+02  0.12700000000E+01 0.  1.
          4   -1    0    0  501    0  0.00000000000E+00 -0.00000000000E+00 -0.34837961425E+03  0.34838192910E+03  0.12700000000E+01 0.  1.
         25    2    1    2    0    0  0.00000000000E+00  0.00000000000E+00 -0.33720526316E+03  0.35962821838E+03  0.12500026380E+03 0.  0.
    9000005    1    3    3    0    0  0.28033800813E+02  0.37990066304E+02 -0.28638935474E+03  0.29025678568E+03  0.10000000000E+01 0.  0.
    9000005    1    3    3    0    0 -0.28033800813E+02 -0.37990066304E+02 -0.50815908419E+02  0.69371432695E+02  0.10000000000E+01 0.  0.
<mgrwt>
<rscale>  0 0.12500026E+03</rscale>
<asrwt>0</asrwt>
<pdfrwt beam="2">  1        4 0.53602567E-01 0.12500026E+03</pdfrwt>
<pdfrwt beam="1">  1       -4 0.17248430E-02 0.12500026E+03</pdfrwt>
<totfact> 0.68677765E+03</totfact>
</mgrwt>
</event>
<event>
 5    1  0.3309811E-002  0.1250013E+03  0.7818608E-02  0.1235067E+00
          4   -1    0    0  501    0  0.00000000000E+00  0.00000000000E+00  0.12002116460E+03  0.12002788365E+03  0.12700000000E+01 0.  1.
         -4   -1    0    0    0  501 -0.00000000000E+00 -0.00000000000E+00 -0.32526995280E+02  0.32551779090E+02  0.12700000000E+01 0.  1.
         25    2    1    2    0    0  0.00000000000E+00  0.00000000000E+00  0.87494169323E+02  0.15257966274E+03  0.12500129525E+03 0.  0.
    9000005    1    3    3    0    0 -0.28207823564E+02 -0.36165635047E+02 -0.80640320655E+01  0.46579642353E+02  0.10000000000E+01 0.  0.
    9000005    1    3    3    0    0  0.28207823564E+02  0.36165635047E+02  0.95558201389E+02  0.10600002038E+03  0.10000000000E+01 0.  0.
<mgrwt>
<rscale>  0 0.12500130E+03</rscale>
<asrwt>0</asrwt>
<pdfrwt beam="1">  1        4 0.18467218E-01 0.12500130E+03</pdfrwt>
<pdfrwt beam="2">  1       -4 0.50065764E-02 0.12500130E+03</pdfrwt>
<totfact> 0.98789066E+03</totfact>
</mgrwt>
</event>
<event>
 5    1  0.3309811E-002  0.1249997E+03  0.7818608E-02  0.1235070E+00
         -4   -1    0    0    0  501 -0.00000000000E+00  0.00000000000E+00  0.18535460535E+02  0.18578918086E+02  0.12700000000E+01 0.  1.
          4   -1    0    0  501    0  0.00000000000E+00 -0.00000000000E+00 -0.21045161890E+03  0.21045545087E+03  0.12700000000E+01 0.  1.
         25    2    1    2    0    0  0.00000000000E+00  0.00000000000E+00 -0.19191615837E+03  0.22903436895E+03  0.12499972127E+03 0.  0.
    9000005    1    3    3    0    0  0.41314223571E+02 -0.23704738249E+01 -0.18175782689E+03  0.18641188763E+03  0.10000000000E+01 0.  0.
    9000005    1    3    3    0    0 -0.41314223571E+02  0.23704738249E+01 -0.10158331481E+02  0.42622481320E+02  0.10000000000E+01 0.  0.
<mgrwt>
<rscale>  0 0.12499972E+03</rscale>
<asrwt>0</asrwt>
<pdfrwt beam="2">  1        4 0.32380808E-01 0.12499972E+03</pdfrwt>
<pdfrwt beam="1">  1       -4 0.28552471E-02 0.12499972E+03</pdfrwt>
<totfact> 0.85458623E+03</totfact>
</mgrwt>
</event>
<event>
 5    1  0.3309811E-002  0.1249988E+03  0.7818608E-02  0.1235071E+00
          4   -1    0    0  501    0  0.00000000000E+00  0.00000000000E+00  0.12929962196E+04  0.12929968433E+04  0.12700000000E+01 0.  1.
         -4   -1    0    0    0  501 -0.00000000000E+00 -0.00000000000E+00 -0.28868986600E+01  0.31538997880E+01  0.12700000000E+01 0.  1.
         25    2    1    2    0    0  0.00000000000E+00  0.00000000000E+00  0.12901093209E+04  0.12961507431E+04  0.12499875538E+03 0.  0.
    9000005    1    3    3    0    0 -0.17240082294E+02 -0.79824375282E+01  0.12623754801E+04  0.12625188286E+04  0.10000000000E+01 0.  0.
    9000005    1    3    3    0    0  0.17240082294E+02  0.79824375282E+01  0.27733840827E+02  0.33631914507E+02  0.10000000000E+01 0.  0.
<mgrwt>
<rscale>  0 0.12499876E+03</rscale>
<asrwt>0</asrwt>
<pdfrwt beam="1">  1        4 0.19894346E+00 0.12499876E+03</pdfrwt>
<pdfrwt beam="2">  1       -4 0.46472391E-03 0.12499876E+03</pdfrwt>
<totfact> 0.22320094E+03</totfact>
</mgrwt>
</event>
<event>
 5    1  0.3309811E-002  0.1249956E+03  0.7818608E-02  0.1235076E+00
          4   -1    0    0  501    0  0.00000000000E+00  0.00000000000E+00  0.73397731433E+02  0.73408718008E+02  0.12700000000E+01 0. -1.
         -4   -1    0    0    0  501 -0.00000000000E+00 -0.00000000000E+00 -0.53194033666E+02  0.53209192041E+02  0.12700000000E+01 0. -1.
         25    2    1    2    0    0  0.00000000000E+00  0.00000000000E+00  0.20203697767E+02  0.12661791005E+03  0.12499562289E+03 0.  0.
    9000005    1    3    3    0    0  0.80374828939E+01  0.34246048917E+02 -0.42217139956E+02  0.54960712366E+02  0.10000000000E+01 0.  0.
    9000005    1    3    3    0    0 -0.80374828939E+01 -0.34246048917E+02  0.62420837723E+02  0.71657197683E+02  0.10000000000E+01 0.  0.
<mgrwt>
<rscale>  0 0.12499562E+03</rscale>
<asrwt>0</asrwt>
<pdfrwt beam="1">  1        4 0.11293970E-01 0.12499562E+03</pdfrwt>
<pdfrwt beam="2">  1       -4 0.81857087E-02 0.12499562E+03</pdfrwt>
<totfact> 0.10418487E+04</totfact>
</mgrwt>
</event>
<event>
 5    1  0.3309811E-002  0.1249974E+03  0.7818608E-02  0.1235073E+00
         -4   -1    0    0    0  501 -0.00000000000E+00  0.00000000000E+00  0.18373206980E+04  0.18373211369E+04  0.12700000000E+01 0.  1.
          4   -1    0    0  501    0  0.00000000000E+00 -0.00000000000E+00 -0.19358253171E+01  0.23152364152E+01  0.12700000000E+01 0.  1.
         25    2    1    2    0    0  0.00000000000E+00  0.00000000000E+00  0.18353848727E+04  0.18396363734E+04  0.12499742098E+03 0.  0.
    9000005    1    3    3    0    0 -0.41109536741E+02  0.42459636064E+02  0.12165222784E+04  0.12179574166E+04  0.10000000000E+01 0.  0.
    9000005    1    3    3    0    0  0.41109536741E+02 -0.42459636064E+02  0.61886259430E+03  0.62167895680E+03  0.10000000000E+01 0.  0.
<mgrwt>
<rscale>  0 0.12499742E+03</rscale>
<asrwt>0</asrwt>
<pdfrwt beam="2">  1        4 0.32703910E-03 0.12499742E+03</pdfrwt>
<pdfrwt beam="1">  1       -4 0.28269344E+00 0.12499742E+03</pdfrwt>
<totfact> 0.12103408E+03</totfact>
</mgrwt>
</event>
<event>
 5    1  0.3309811E-002  0.1249984E+03  0.7818608E-02  0.1235072E+00
         -4   -1    0    0    0  501 -0.00000000000E+00  0.00000000000E+00  0.19406183389E+03  0.19406598948E+03  0.12700000000E+01 0. -1.
          4   -1    0    0  501    0  0.00000000000E+00 -0.00000000000E+00 -0.20103970702E+02  0.20144044727E+02  0.12700000000E+01 0. -1.
         25    2    1    2    0    0  0.00000000000E+00  0.00000000000E+00  0.17395786318E+03  0.21421003420E+03  0.12499840235E+03 0.  0.
    9000005    1    3    3    0    0 -0.15949473374E+02 -0.22105701492E+02  0.18334481651E+03  0.18536280501E+03  0.10000000000E+01 0.  0.
    9000005    1    3    3    0    0  0.15949473374E+02  0.22105701492E+02 -0.93869533272E+01  0.28847229193E+02  0.10000000000E+01 0.  0.
<mgrwt>
<rscale>  0 0.12499840E+03</rscale>
<asrwt>0</asrwt>
<pdfrwt beam="2">  1        4 0.30963207E-02 0.12499840E+03</pdfrwt>
<pdfrwt beam="1">  1       -4 0.29859070E-01 0.12499840E+03</pdfrwt>
<totfact> 0.87796043E+03</totfact>
</mgrwt>
</event>
<event>
 5    1  0.3309811E-002  0.1250101E+03  0.7818608E-02  0.1235054E+00
         -4   -1    0    0    0  501 -0.00000000000E+00  0.00000000000E+00  0.15796818187E+03  0.15797328693E+03  0.12700000000E+01 0. -1.
          4   -1    0    0  501    0  0.00000000000E+00 -0.00000000000E+00 -0.24710251023E+02  0.24742865752E+02  0.12700000000E+01 0. -1.
         25    2    1    2    0    0  0.00000000000E+00  0.00000000000E+00  0.13325793085E+03  0.18271615269E+03  0.12501006486E+03 0.  0.
    9000005    1    3    3    0    0 -0.39857214362E+02  0.43895097236E+02  0.37745880159E+02  0.70293161596E+02  0.10000000000E+01 0.  0.
    9000005    1    3    3    0    0  0.39857214362E+02 -0.43895097236E+02  0.95512050693E+02  0.11242299109E+03  0.10000000000E+01 0.  0.
<mgrwt>
<rscale>  0 0.12501006E+03</rscale>
<asrwt>0</asrwt>
<pdfrwt beam="2">  1        4 0.38044786E-02 0.12501006E+03</pdfrwt>
<pdfrwt beam="1">  1       -4 0.24305699E-01 0.12501006E+03</pdfrwt>
<totfact> 0.93109351E+03</totfact>
</mgrwt>
</event>
<event>
 5    1  0.3309811E-002  0.1250001E+03  0.7818608E-02  0.1235069E+00
         -4   -1    0    0    0  501 -0.00000000000E+00  0.00000000000E+00  0.70567775081E+02  0.70579202176E+02  0.12700000000E+01 0. -1.
          4   -1    0    0  501    0  0.00000000000E+00 -0.00000000000E+00 -0.55331517099E+02  0.55346090056E+02  0.12700000000E+01 0. -1.
         25    2    1    2    0    0  0.00000000000E+00  0.00000000000E+00  0.15236257982E+02  0.12592529223E+03  0.12500014267E+03 0.  0.
    9000005    1    3    3    0    0 -0.21996404887E+02 -0.63935891240E+01  0.66190855546E+02  0.70049619326E+02  0.10000000000E+01 0.  0.
    9000005    1    3    3    0    0  0.21996404887E+02  0.63935891240E+01 -0.50954597564E+02  0.55875672907E+02  0.10000000000E+01 0.  0.
<mgrwt>
<rscale>  0 0.12500014E+03</rscale>
<asrwt>0</asrwt>
<pdfrwt beam="2">  1        4 0.85145411E-02 0.12500014E+03</pdfrwt>
<pdfrwt beam="1">  1       -4 0.10858581E-01 0.12500014E+03</pdfrwt>
<totfact> 0.10432561E+04</totfact>
</mgrwt>
</event>
<event>
 5    1  0.3309811E-002  0.1249789E+03  0.7818608E-02  0.1235102E+00
          4   -1    0    0  501    0  0.00000000000E+00  0.00000000000E+00  0.12840014744E+02  0.12902669438E+02  0.12700000000E+01 0.  1.
         -4   -1    0    0    0  501 -0.00000000000E+00 -0.00000000000E+00 -0.30331789266E+03  0.30332055141E+03  0.12700000000E+01 0.  1.
         25    2    1    2    0    0  0.00000000000E+00  0.00000000000E+00 -0.29047787791E+03  0.31622322084E+03  0.12497890960E+03 0.  0.
    9000005    1    3    3    0    0  0.29682340545E+02 -0.54051010037E+02 -0.17071491832E+03  0.18151346056E+03  0.10000000000E+01 0.  0.
    9000005    1    3    3    0    0 -0.29682340545E+02  0.54051010037E+02 -0.11976295959E+03  0.13470976028E+03  0.10000000000E+01 0.  0.
<mgrwt>
<rscale>  0 0.12497891E+03</rscale>
<asrwt>0</asrwt>
<pdfrwt beam="1">  1        4 0.19804112E-02 0.12497891E+03</pdfrwt>
<pdfrwt beam="2">  1       -4 0.46669310E-01 0.12497891E+03</pdfrwt>
<totfact> 0.73642019E+03</totfact>
</mgrwt>
</event>
<event>
 5    1  0.3309811E-002  0.1250022E+03  0.7818608E-02  0.1235066E+00
          4   -1    0    0  501    0  0.00000000000E+00  0.00000000000E+00  0.20272270921E+03  0.20272668726E+03  0.12700000000E+01 0.  1.
         -4   -1    0    0    0  501 -0.00000000000E+00 -0.00000000000E+00 -0.19244508891E+02  0.19286368825E+02  0.12700000000E+01 0.  1.
         25    2    1    2    0    0  0.00000000000E+00  0.00000000000E+00  0.18347820032E+03  0.22201305609E+03  0.12500218831E+03 0.  0.
    9000005    1    3    3    0    0  0.62053820470E+02  0.47501313482E+01  0.81669157702E+02  0.10268442775E+03  0.10000000000E+01 0.  0.
    9000005    1    3    3    0    0 -0.62053820470E+02 -0.47501313482E+01  0.10180904262E+03  0.11932862834E+03  0.10000000000E+01 0.  0.
<mgrwt>
<rscale>  0 0.12500219E+03</rscale>
<asrwt>0</asrwt>
<pdfrwt beam="1">  1        4 0.31191635E-01 0.12500219E+03</pdfrwt>
<pdfrwt beam="2">  1       -4 0.29642197E-02 0.12500219E+03</pdfrwt>
<totfact> 0.86546578E+03</totfact>
</mgrwt>
</event>
<event>
 5    1  0.3309811E-002  0.1249943E+03  0.7818608E-02  0.1235078E+00
          4   -1    0    0  501    0  0.00000000000E+00  0.00000000000E+00  0.16785668585E+02  0.16833643986E+02  0.12700000000E+01 0.  1.
         -4   -1    0    0    0  501 -0.00000000000E+00 -0.00000000000E+00 -0.23231051757E+03  0.23231398897E+03  0.12700000000E+01 0.  1.
         25    2    1    2    0    0  0.00000000000E+00  0.00000000000E+00 -0.21552484898E+03  0.24914763296E+03  0.12499432979E+03 0.  0.
    9000005    1    3    3    0    0  0.19228912101E+02 -0.52082759532E+02 -0.16492904467E+03  0.17402572992E+03  0.10000000000E+01 0.  0.
    9000005    1    3    3    0    0 -0.19228912101E+02  0.52082759532E+02 -0.50595804316E+02  0.75121903034E+02  0.10000000000E+01 0.  0.
<mgrwt>
<rscale>  0 0.12499433E+03</rscale>
<asrwt>0</asrwt>
<pdfrwt beam="1">  1        4 0.25863682E-02 0.12499433E+03</pdfrwt>
<pdfrwt beam="2">  1       -4 0.35744035E-01 0.12499433E+03</pdfrwt>
<totfact> 0.82463995E+03</totfact>
</mgrwt>
</event>
<event>
 5    1  0.3309811E-002  0.1249995E+03  0.7818608E-02  0.1235070E+00
          4   -1    0    0  501    0  0.00000000000E+00  0.00000000000E+00  0.47632891612E+01  0.49296879854E+01  0.12700000000E+01 0.  1.
         -4   -1    0    0    0  501 -0.00000000000E+00 -0.00000000000E+00 -0.80582292193E+03  0.80582392271E+03  0.12700000000E+01 0.  1.
         25    2    1    2    0    0  0.00000000000E+00  0.00000000000E+00 -0.80105963277E+03  0.81075361070E+03  0.12499952800E+03 0.  0.
    9000005    1    3    3    0    0 -0.41343363047E+02 -0.20634645435E+02 -0.12764048084E+03  0.13575033926E+03  0.10000000000E+01 0.  0.
    9000005    1    3    3    0    0  0.41343363047E+02  0.20634645435E+02 -0.67341915193E+03  0.67500327144E+03  0.10000000000E+01 0.  0.
<mgrwt>
<rscale>  0 0.12499953E+03</rscale>
<asrwt>0</asrwt>
<pdfrwt beam="1">  1        4 0.74569125E-03 0.12499953E+03</pdfrwt>
<pdfrwt beam="2">  1       -4 0.12398553E+00 0.12499953E+03</pdfrwt>
<totfact> 0.37789562E+03</totfact>
</mgrwt>
</event>
<event>
 5    1  0.3309811E-002  0.1250010E+03  0.7818608E-02  0.1235068E+00
         -4   -1    0    0    0  501 -0.00000000000E+00  0.00000000000E+00  0.36054285678E+03  0.36054509353E+03  0.12700000000E+01 0. -1.
          4   -1    0    0  501    0  0.00000000000E+00 -0.00000000000E+00 -0.10795038076E+02  0.10869486973E+02  0.12700000000E+01 0. -1.
         25    2    1    2    0    0  0.00000000000E+00  0.00000000000E+00  0.34974781870E+03  0.37141458051E+03  0.12500101571E+03 0.  0.
    9000005    1    3    3    0    0  0.38922006400E+02  0.79114169782E+01  0.31823070147E+03  0.32070125110E+03  0.10000000000E+01 0.  0.
    9000005    1    3    3    0    0 -0.38922006400E+02 -0.79114169782E+01  0.31517117229E+02  0.50713329403E+02  0.10000000000E+01 0.  0.
<mgrwt>
<rscale>  0 0.12500102E+03</rscale>
<asrwt>0</asrwt>
<pdfrwt beam="2">  1        4 0.16666743E-02 0.12500102E+03</pdfrwt>
<pdfrwt beam="1">  1       -4 0.55474020E-01 0.12500102E+03</pdfrwt>
<totfact> 0.67429696E+03</totfact>
</mgrwt>
</event>
<event>
 5    1  0.3309811E-002  0.1249993E+03  0.7818608E-02  0.1235070E+00
         -4   -1    0    0    0  501 -0.00000000000E+00  0.00000000000E+00  0.41770160418E+02  0.41789462802E+02  0.12700000000E+01 0.  1.
          4   -1    0    0  501    0  0.00000000000E+00 -0.00000000000E+00 -0.93471474661E+02  0.93480102029E+02  0.12700000000E+01 0.  1.
         25    2    1    2    0    0  0.00000000000E+00  0.00000000000E+00 -0.51701314244E+02  0.13526956483E+03  0.12499931710E+03 0.  0.
    9000005    1    3    3    0    0 -0.16369372056E+02  0.27371605700E+02 -0.84006655946E+02  0.89862558295E+02  0.10000000000E+01 0.  0.
    9000005    1    3    3    0    0  0.16369372056E+02 -0.27371605700E+02  0.32305341702E+02  0.45407006536E+02  0.10000000000E+01 0.  0.
<mgrwt>
<rscale>  0 0.12499932E+03</rscale>
<asrwt>0</asrwt>
<pdfrwt beam="2">  1        4 0.14382375E-01 0.12499932E+03</pdfrwt>
<pdfrwt beam="1">  1       -4 0.64283270E-02 0.12499932E+03</pdfrwt>
<totfact> 0.10232550E+04</totfact>
</mgrwt>
</event>
<event>
 5    1  0.3309811E-002  0.1249975E+03  0.7818608E-02  0.1235073E+00
         -4   -1    0    0    0  501 -0.00000000000E+00  0.00000000000E+00  0.64290138052E+02  0.64302680743E+02  0.12700000000E+01 0. -1.
          4   -1    0    0  501    0  0.00000000000E+00 -0.00000000000E+00 -0.60732215906E+02  0.60745493239E+02  0.12700000000E+01 0. -1.
         25    2    1    2    0    0  0.00000000000E+00  0.00000000000E+00  0.35579221459E+01  0.12504817398E+03  0.12499754800E+03 0.  0.
    9000005    1    3    3    0    0 -0.44343756472E+02 -0.43945020121E+02 -0.97228370481E+00  0.62445807442E+02  0.10000000000E+01 0.  0.
    9000005    1    3    3    0    0  0.44343756472E+02  0.43945020121E+02  0.45302058507E+01  0.62602366541E+02  0.10000000000E+01 0.  0.
<mgrwt>
<rscale>  0 0.12499755E+03</rscale>
<asrwt>0</asrwt>
<pdfrwt beam="2">  1        4 0.93454040E-02 0.12499755E+03</pdfrwt>
<pdfrwt beam="1">  1       -4 0.98927766E-02 0.12499755E+03</pdfrwt>
<totfact> 0.10452396E+04</totfact>
</mgrwt>
</event>
<event>
 5    1  0.3309811E-002  0.1249996E+03  0.7818608E-02  0.1235070E+00
         -4   -1    0    0    0  501 -0.00000000000E+00  0.00000000000E+00  0.38967306697E+01  0.40984643358E+01  0.12700000000E+01 0. -1.
          4   -1    0    0  501    0  0.00000000000E+00 -0.00000000000E+00 -0.97694169506E+03  0.97694252054E+03  0.12700000000E+01 0. -1.
         25    2    1    2    0    0  0.00000000000E+00  0.00000000000E+00 -0.97304496439E+03  0.98104098488E+03  0.12499964515E+03 0.  0.
    9000005    1    3    3    0    0  0.23466432001E+02 -0.24866621706E+02 -0.89705988279E+03  0.89771178872E+03  0.10000000000E+01 0.  0.
    9000005    1    3    3    0    0 -0.23466432001E+02  0.24866621706E+02 -0.75985081603E+02  0.83329196156E+02  0.10000000000E+01 0.  0.
<mgrwt>
<rscale>  0 0.12499965E+03</rscale>
<asrwt>0</asrwt>
<pdfrwt beam="2">  1        4 0.15031411E+00 0.12499965E+03</pdfrwt>
<pdfrwt beam="1">  1       -4 0.61507928E-03 0.12499965E+03</pdfrwt>
<totfact> 0.31239170E+03</totfact>
</mgrwt>
</event>
<event>
 5    1  0.3309811E-002  0.1249990E+03  0.7818608E-02  0.1235071E+00
          4   -1    0    0  501    0  0.00000000000E+00  0.00000000000E+00  0.27129557768E+02  0.27159267382E+02  0.12700000000E+01 0.  1.
         -4   -1    0    0    0  501 -0.00000000000E+00 -0.00000000000E+00 -0.14387134739E+03  0.14387695264E+03  0.12700000000E+01 0.  1.
         25    2    1    2    0    0  0.00000000000E+00  0.00000000000E+00 -0.11674178963E+03  0.17103622002E+03  0.12499897245E+03 0.  0.
    9000005    1    3    3    0    0  0.50978330187E+02 -0.17727324176E+02 -0.15271854186E+02  0.56100603395E+02  0.10000000000E+01 0.  0.
    9000005    1    3    3    0    0 -0.50978330187E+02  0.17727324176E+02 -0.10146993544E+03  0.11493561663E+03  0.10000000000E+01 0.  0.
<mgrwt>
<rscale>  0 0.12499897E+03</rscale>
<asrwt>0</asrwt>
<pdfrwt beam="1">  1        4 0.41764947E-02 0.12499897E+03</pdfrwt>
<pdfrwt beam="2">  1       -4 0.22136770E-01 0.12499897E+03</pdfrwt>
<totfact> 0.95258048E+03</totfact>
</mgrwt>
</event>
<event>
 5    1  0.3309811E-002  0.1250024E+03  0.7818608E-02  0.1235066E+00
          4   -1    0    0  501    0  0.00000000000E+00  0.00000000000E+00  0.12380575269E+03  0.12381226636E+03  0.12700000000E+01 0. -1.
         -4   -1    0    0    0  501 -0.00000000000E+00 -0.00000000000E+00 -0.31532524783E+02  0.31558089600E+02  0.12700000000E+01 0. -1.
         25    2    1    2    0    0  0.00000000000E+00  0.00000000000E+00  0.92273227912E+02  0.15537035596E+03  0.12500239566E+03 0.  0.
    9000005    1    3    3    0    0  0.48156303585E+02  0.57703781560E+01  0.95119654978E+02  0.10677581937E+03  0.10000000000E+01 0.  0.
    9000005    1    3    3    0    0 -0.48156303585E+02 -0.57703781560E+01 -0.28464270661E+01  0.48594536586E+02  0.10000000000E+01 0.  0.
<mgrwt>
<rscale>  0 0.12500240E+03</rscale>
<asrwt>0</asrwt>
<pdfrwt beam="1">  1        4 0.19049507E-01 0.12500240E+03</pdfrwt>
<pdfrwt beam="2">  1       -4 0.48536252E-02 0.12500240E+03</pdfrwt>
<totfact> 0.98237549E+03</totfact>
</mgrwt>
</event>
<event>
 5    1  0.3309811E-002  0.1249987E+03  0.7818608E-02  0.1235071E+00
          4   -1    0    0  501    0  0.00000000000E+00  0.00000000000E+00  0.24630893322E+01  0.27712287994E+01  0.12700000000E+01 0.  1.
         -4   -1    0    0    0  501 -0.00000000000E+00 -0.00000000000E+00 -0.14922148285E+04  0.14922153689E+04  0.12700000000E+01 0.  1.
         25    2    1    2    0    0  0.00000000000E+00  0.00000000000E+00 -0.14897517391E+04  0.14949865977E+04  0.12499873224E+03 0.  0.
    9000005    1    3    3    0    0 -0.28926757269E+02  0.16629192895E+01 -0.14070814668E+04  0.14073801110E+04  0.10000000000E+01 0.  0.
    9000005    1    3    3    0    0  0.28926757269E+02 -0.16629192895E+01 -0.82670272275E+02  0.87606486659E+02  0.10000000000E+01 0.  0.
<mgrwt>
<rscale>  0 0.12499873E+03</rscale>
<asrwt>0</asrwt>
<pdfrwt beam="1">  1        4 0.40268262E-03 0.12499873E+03</pdfrwt>
<pdfrwt beam="2">  1       -4 0.22959458E+00 0.12499873E+03</pdfrwt>
<totfact> 0.18029813E+03</totfact>
</mgrwt>
</event>
<event>
 5    1  0.3309811E-002  0.1249970E+03  0.7818608E-02  0.1235074E+00
          4   -1    0    0  501    0  0.00000000000E+00  0.00000000000E+00  0.15146965277E+02  0.15200113720E+02  0.12700000000E+01 0. -1.
         -4   -1    0    0    0  501 -0.00000000000E+00 -0.00000000000E+00 -0.25737103622E+03  0.25737416962E+03  0.12700000000E+01 0. -1.
         25    2    1    2    0    0  0.00000000000E+00  0.00000000000E+00 -0.24222407094E+03  0.27257428334E+03  0.12499695753E+03 0.  0.
    9000005    1    3    3    0    0  0.11954900511E+02  0.28433202039E+02 -0.25984520138E+01  0.30969639605E+02  0.10000000000E+01 0.  0.
    9000005    1    3    3    0    0 -0.11954900511E+02 -0.28433202039E+02 -0.23962561893E+03  0.24160464373E+03  0.10000000000E+01 0.  0.
<mgrwt>
<rscale>  0 0.12499696E+03</rscale>
<asrwt>0</asrwt>
<pdfrwt beam="1">  1        4 0.23346319E-02 0.12499696E+03</pdfrwt>
<pdfrwt beam="2">  1       -4 0.39599870E-01 0.12499696E+03</pdfrwt>
<totfact> 0.79178476E+03</totfact>
</mgrwt>
</event>
<event>
 5    1  0.3309811E-002  0.1250096E+03  0.7818608E-02  0.1235054E+00
         -4   -1    0    0    0  501 -0.00000000000E+00  0.00000000000E+00  0.47834287147E+02  0.47851143423E+02  0.12700000000E+01 0.  1.
          4   -1    0    0  501    0  0.00000000000E+00 -0.00000000000E+00 -0.81638456593E+02  0.81648334306E+02  0.12700000000E+01 0.  1.
         25    2    1    2    0    0  0.00000000000E+00  0.00000000000E+00 -0.33804169446E+02  0.12949947773E+03  0.12500957107E+03 0.  0.
    9000005    1    3    3    0    0 -0.45588106577E+02 -0.23472417039E+02  0.20111001621E+02  0.55087949764E+02  0.10000000000E+01 0.  0.
    9000005    1    3    3    0    0  0.45588106577E+02  0.23472417039E+02 -0.53915171067E+02  0.74411527965E+02  0.10000000000E+01 0.  0.
<mgrwt>
<rscale>  0 0.12500957E+03</rscale>
<asrwt>0</asrwt>
<pdfrwt beam="2">  1        4 0.12561819E-01 0.12500957E+03</pdfrwt>
<pdfrwt beam="1">  1       -4 0.73611776E-02 0.12500957E+03</pdfrwt>
<totfact> 0.10352989E+04</totfact>
</mgrwt>
</event>
<event>
 5    1  0.3309811E-002  0.1250022E+03  0.7818608E-02  0.1235066E+00
          4   -1    0    0  501    0  0.00000000000E+00  0.00000000000E+00  0.14688872094E+03  0.14689421105E+03  0.12700000000E+01 0.  1.
         -4   -1    0    0    0  501 -0.00000000000E+00 -0.00000000000E+00 -0.26573026229E+02  0.26603357363E+02  0.12700000000E+01 0.  1.
         25    2    1    2    0    0  0.00000000000E+00  0.00000000000E+00  0.12031569471E+03  0.17349756841E+03  0.12500215938E+03 0.  0.
    9000005    1    3    3    0    0 -0.44982327633E+02 -0.10690181159E+02  0.11851304807E+03  0.12721647824E+03  0.10000000000E+01 0.  0.
    9000005    1    3    3    0    0  0.44982327633E+02  0.10690181159E+02  0.18026466380E+01  0.46281090170E+02  0.10000000000E+01 0.  0.
<mgrwt>
<rscale>  0 0.12500216E+03</rscale>
<asrwt>0</asrwt>
<pdfrwt beam="1">  1        4 0.22601020E-01 0.12500216E+03</pdfrwt>
<pdfrwt beam="2">  1       -4 0.40909134E-02 0.12500216E+03</pdfrwt>
<totfact> 0.94796137E+03</totfact>
</mgrwt>
</event>
<event>
 5    1  0.3309811E-002  0.1249998E+03  0.7818608E-02  0.1235070E+00
          4   -1    0    0  501    0  0.00000000000E+00  0.00000000000E+00  0.15610606098E+04  0.15610611264E+04  0.12700000000E+01 0.  1.
         -4   -1    0    0    0  501 -0.00000000000E+00 -0.00000000000E+00 -0.23406063505E+01  0.26629566440E+01  0.12700000000E+01 0.  1.
         25    2    1    2    0    0  0.00000000000E+00  0.00000000000E+00  0.15587200035E+04  0.15637240831E+04  0.12499983500E+03 0.  0.
    9000005    1    3    3    0    0  0.53153950194E+02 -0.50968700778E+01  0.37324003723E+03  0.37704170313E+03  0.10000000000E+01 0.  0.
    9000005    1    3    3    0    0 -0.53153950194E+02  0.50968700778E+01  0.11854799662E+04  0.11866823799E+04  0.10000000000E+01 0.  0.
<mgrwt>
<rscale>  0 0.12499984E+03</rscale>
<asrwt>0</asrwt>
<pdfrwt beam="1">  1        4 0.24018806E+00 0.12499984E+03</pdfrwt>
<pdfrwt beam="2">  1       -4 0.38492911E-03 0.12499984E+03</pdfrwt>
<totfact> 0.16711304E+03</totfact>
</mgrwt>
</event>
<event>
 5    1  0.3309811E-002  0.1250484E+03  0.7818608E-02  0.1234994E+00
         -4   -1    0    0    0  501 -0.00000000000E+00  0.00000000000E+00  0.97485311269E+01  0.98309083574E+01  0.12700000000E+01 0.  1.
          4   -1    0    0  501    0  0.00000000000E+00 -0.00000000000E+00 -0.39924101528E+03  0.39924303523E+03  0.12700000000E+01 0.  1.
         25    2    1    2    0    0  0.00000000000E+00  0.00000000000E+00 -0.38949248415E+03  0.40907394359E+03  0.12504837509E+03 0.  0.
    9000005    1    3    3    0    0  0.16594097861E+02 -0.48335555422E+02 -0.31254049393E+03  0.31669267492E+03  0.10000000000E+01 0.  0.
    9000005    1    3    3    0    0 -0.16594097861E+02  0.48335555422E+02 -0.76951990222E+02  0.92381268669E+02  0.10000000000E+01 0.  0.
<mgrwt>
<rscale>  0 0.12504838E+03</rscale>
<asrwt>0</asrwt>
<pdfrwt beam="2">  1        4 0.61428174E-01 0.12504838E+03</pdfrwt>
<pdfrwt beam="1">  1       -4 0.15062664E-02 0.12504838E+03</pdfrwt>
<totfact> 0.63611806E+03</totfact>
</mgrwt>
</event>
<event>
 5    1  0.3309811E-002  0.1249994E+03  0.7818608E-02  0.1235070E+00
         -4   -1    0    0    0  501 -0.00000000000E+00  0.00000000000E+00  0.36692588646E+03  0.36692808431E+03  0.12700000000E+01 0.  1.
          4   -1    0    0  501    0  0.00000000000E+00 -0.00000000000E+00 -0.10605667827E+02  0.10681436704E+02  0.12700000000E+01 0.  1.
         25    2    1    2    0    0  0.00000000000E+00  0.00000000000E+00  0.35632021863E+03  0.37760952101E+03  0.12499940861E+03 0.  0.
    9000005    1    3    3    0    0 -0.55854460794E+02  0.24863939303E+02  0.13908926515E+03  0.15193669717E+03  0.10000000000E+01 0.  0.
    9000005    1    3    3    0    0  0.55854460794E+02 -0.24863939303E+02  0.21723095348E+03  0.22567282384E+03  0.10000000000E+01 0.  0.
<mgrwt>
<rscale>  0 0.12499941E+03</rscale>
<asrwt>0</asrwt>
<pdfrwt beam="2">  1        4 0.16376385E-02 0.12499941E+03</pdfrwt>
<pdfrwt beam="1">  1       -4 0.56456140E-01 0.12499941E+03</pdfrwt>
<totfact> 0.66791149E+03</totfact>
</mgrwt>
</event>
<event>
 5    1  0.3309811E-002  0.1250011E+03  0.7818608E-02  0.1235068E+00
          4   -1    0    0  501    0  0.00000000000E+00  0.00000000000E+00  0.10948669991E+03  0.10949406540E+03  0.12700000000E+01 0.  1.
         -4   -1    0    0    0  501 -0.00000000000E+00 -0.00000000000E+00 -0.35658601028E+02  0.35681209723E+02  0.12700000000E+01 0.  1.
         25    2    1    2    0    0  0.00000000000E+00  0.00000000000E+00  0.73828098886E+02  0.14517527512E+03  0.12500108928E+03 0.  0.
    9000005    1    3    3    0    0 -0.51290136429E+02 -0.88979963643E+01  0.77069768807E+02  0.93008610882E+02  0.10000000000E+01 0.  0.
    9000005    1    3    3    0    0  0.51290136429E+02  0.88979963643E+01 -0.32416699209E+01  0.52166664242E+02  0.10000000000E+01 0.  0.
<mgrwt>
<rscale>  0 0.12500109E+03</rscale>
<asrwt>0</asrwt>
<pdfrwt beam="1">  1        4 0.16846414E-01 0.12500109E+03</pdfrwt>
<pdfrwt beam="2">  1       -4 0.54882443E-02 0.12500109E+03</pdfrwt>
<totfact> 0.10027182E+04</totfact>
</mgrwt>
</event>
<event>
 5    1  0.3309811E-002  0.1250021E+03  0.7818608E-02  0.1235066E+00
         -4   -1    0    0    0  501 -0.00000000000E+00  0.00000000000E+00  0.43528480710E+02  0.43547003719E+02  0.12700000000E+01 0. -1.
          4   -1    0    0  501    0  0.00000000000E+00 -0.00000000000E+00 -0.89700962322E+02  0.89709952299E+02  0.12700000000E+01 0. -1.
         25    2    1    2    0    0  0.00000000000E+00  0.00000000000E+00 -0.46172481612E+02  0.13325695602E+03  0.12500207306E+03 0.  0.
    9000005    1    3    3    0    0 -0.38107256491E+02 -0.34161200363E+01 -0.75761319150E+02  0.84879976159E+02  0.10000000000E+01 0.  0.
    9000005    1    3    3    0    0  0.38107256491E+02  0.34161200363E+01  0.29588837538E+02  0.48376979859E+02  0.10000000000E+01 0.  0.
<mgrwt>
<rscale>  0 0.12500207E+03</rscale>
<asrwt>0</asrwt>
<pdfrwt beam="2">  1        4 0.13802264E-01 0.12500207E+03</pdfrwt>
<pdfrwt beam="1">  1       -4 0.66988057E-02 0.12500207E+03</pdfrwt>
<totfact> 0.10274461E+04</totfact>
</mgrwt>
</event>
<event>
 5    1  0.3309811E-002  0.1249953E+03  0.7818608E-02  0.1235077E+00
         -4   -1    0    0    0  501 -0.00000000000E+00  0.00000000000E+00  0.68963637055E+01  0.70123271714E+01  0.12700000000E+01 0. -1.
          4   -1    0    0  501    0  0.00000000000E+00 -0.00000000000E+00 -0.56153990032E+03  0.56154133646E+03  0.12700000000E+01 0. -1.
         25    2    1    2    0    0  0.00000000000E+00  0.00000000000E+00 -0.55464353662E+03  0.56855366363E+03  0.12499526278E+03 0.  0.
    9000005    1    3    3    0    0  0.32692620594E+02 -0.38213846357E+02 -0.10860307411E+03  0.11968597746E+03  0.10000000000E+01 0.  0.
    9000005    1    3    3    0    0 -0.32692620594E+02  0.38213846357E+02 -0.44604046251E+03  0.44886768617E+03  0.10000000000E+01 0.  0.
<mgrwt>
<rscale>  0 0.12499526E+03</rscale>
<asrwt>0</asrwt>
<pdfrwt beam="2">  1        4 0.86399749E-01 0.12499526E+03</pdfrwt>
<pdfrwt beam="1">  1       -4 0.10700102E-02 0.12499526E+03</pdfrwt>
<totfact> 0.50920033E+03</totfact>
</mgrwt>
</event>
<event>
 5    1  0.3309811E-002  0.1249964E+03  0.7818608E-02  0.1235075E+00
          4   -1    0    0  501    0  0.00000000000E+00  0.00000000000E+00  0.82695526115E+02  0.82705277579E+02  0.12700000000E+01 0. -1.
         -4   -1    0    0    0  501 -0.00000000000E+00 -0.00000000000E+00 -0.47212768669E+02  0.47229846765E+02  0.12700000000E+01 0. -1.
         25    2    1    2    0    0  0.00000000000E+00  0.00000000000E+00  0.35482757446E+02  0.12993512434E+03  0.12499644180E+03 0.  0.
    9000005    1    3    3    0    0 -0.45627294938E+02 -0.25525903979E+01 -0.26564970325E+02  0.52868359247E+02  0.10000000000E+01 0.  0.
    9000005    1    3    3    0    0  0.45627294938E+02  0.25525903979E+01  0.62047727770E+02  0.77066765097E+02  0.10000000000E+01 0.  0.
<mgrwt>
<rscale>  0 0.12499644E+03</rscale>
<asrwt>0</asrwt>
<pdfrwt beam="1">  1        4 0.12724452E-01 0.12499644E+03</pdfrwt>
<pdfrwt beam="2">  1       -4 0.72655667E-02 0.12499644E+03</pdfrwt>
<totfact> 0.10346727E+04</totfact>
</mgrwt>
</event>
<event>
 5    1  0.3309811E-002  0.1250008E+03  0.7818608E-02  0.1235068E+00
          4   -1    0    0  501    0  0.00000000000E+00  0.00000000000E+00  0.12310900935E+02  0.12376234558E+02  0.12700000000E+01 0.  1.
         -4   -1    0    0    0  501 -0.00000000000E+00 -0.00000000000E+00 -0.31639793212E+03  0.31640048095E+03  0.12700000000E+01 0.  1.
         25    2    1    2    0    0  0.00000000000E+00  0.00000000000E+00 -0.30408703118E+03  0.32877671551E+03  0.12500082452E+03 0.  0.
    9000005    1    3    3    0    0 -0.48580907541E+02 -0.46108061946E+01 -0.25472017765E+03  0.25935445439E+03  0.10000000000E+01 0.  0.
    9000005    1    3    3    0    0  0.48580907541E+02  0.46108061946E+01 -0.49366853531E+02  0.69422261119E+02  0.10000000000E+01 0.  0.
<mgrwt>
<rscale>  0 0.12500082E+03</rscale>
<asrwt>0</asrwt>
<pdfrwt beam="1">  1        4 0.18992067E-02 0.12500082E+03</pdfrwt>
<pdfrwt beam="2">  1       -4 0.48681820E-01 0.12500082E+03</pdfrwt>
<totfact> 0.72122954E+03</totfact>
</mgrwt>
</event>
<event>
 5    1  0.3309811E-002  0.1250004E+03  0.7818608E-02  0.1235069E+00
         -4   -1    0    0    0  501 -0.00000000000E+00  0.00000000000E+00  0.60406207677E+03  0.60406341181E+03  0.12700000000E+01 0.  1.
          4   -1    0    0  501    0  0.00000000000E+00 -0.00000000000E+00 -0.64029711864E+01  0.65277055704E+01  0.12700000000E+01 0.  1.
         25    2    1    2    0    0  0.00000000000E+00  0.00000000000E+00  0.59765910558E+03  0.61059111738E+03  0.12500042456E+03 0.  0.
    9000005    1    3    3    0    0  0.51582439163E+02  0.16124942836E+02  0.45209706275E+03  0.45531694012E+03  0.10000000000E+01 0.  0.
    9000005    1    3    3    0    0 -0.51582439163E+02 -0.16124942836E+02  0.14556204283E+03  0.15527417726E+03  0.10000000000E+01 0.  0.
<mgrwt>
<rscale>  0 0.12500042E+03</rscale>
<asrwt>0</asrwt>
<pdfrwt beam="2">  1        4 0.99476992E-03 0.12500042E+03</pdfrwt>
<pdfrwt beam="1">  1       -4 0.92942345E-01 0.12500042E+03</pdfrwt>
<totfact> 0.48205364E+03</totfact>
</mgrwt>
</event>
<event>
 5    1  0.3309811E-002  0.1249854E+03  0.7818608E-02  0.1235092E+00
          4   -1    0    0  501    0  0.00000000000E+00  0.00000000000E+00  0.40535104506E+03  0.40535303456E+03  0.12700000000E+01 0.  1.
         -4   -1    0    0    0  501 -0.00000000000E+00 -0.00000000000E+00 -0.95905865696E+01  0.96743087996E+01  0.12700000000E+01 0.  1.
         25    2    1    2    0    0  0.00000000000E+00  0.00000000000E+00  0.39576045849E+03  0.41502734336E+03  0.12498542009E+03 0.  0.
    9000005    1    3    3    0    0 -0.22799768530E+01  0.59619113947E+02  0.13622937328E+03  0.14872484388E+03  0.10000000000E+01 0.  0.
    9000005    1    3    3    0    0  0.22799768530E+01 -0.59619113947E+02  0.25953108521E+03  0.26630249949E+03  0.10000000000E+01 0.  0.
<mgrwt>
<rscale>  0 0.12498542E+03</rscale>
<asrwt>0</asrwt>
<pdfrwt beam="1">  1        4 0.62368274E-01 0.12498542E+03</pdfrwt>
<pdfrwt beam="2">  1       -4 0.14820685E-02 0.12498542E+03</pdfrwt>
<totfact> 0.63137342E+03</totfact>
</mgrwt>
</event>
<event>
 5    1  0.3309811E-002  0.1249695E+03  0.7818608E-02  0.1235117E+00
         -4   -1    0    0    0  501 -0.00000000000E+00  0.00000000000E+00  0.15859638140E+02  0.15910406089E+02  0.12700000000E+01 0. -1.
          4   -1    0    0  501    0  0.00000000000E+00 -0.00000000000E+00 -0.24573524152E+03  0.24573852329E+03  0.12700000000E+01 0. -1.
         25    2    1    2    0    0  0.00000000000E+00  0.00000000000E+00 -0.22987560338E+03  0.26164892938E+03  0.12496947312E+03 0.  0.
    9000005    1    3    3    0    0  0.44613000378E+02 -0.11741990336E+02 -0.26724855550E+02  0.53323653700E+02  0.10000000000E+01 0.  0.
    9000005    1    3    3    0    0 -0.44613000378E+02  0.11741990336E+02 -0.20315074783E+03  0.20832527568E+03  0.10000000000E+01 0.  0.
<mgrwt>
<rscale>  0 0.12496947E+03</rscale>
<asrwt>0</asrwt>
<pdfrwt beam="2">  1        4 0.37809577E-01 0.12496947E+03</pdfrwt>
<pdfrwt beam="1">  1       -4 0.24441022E-02 0.12496947E+03</pdfrwt>
<totfact> 0.80730052E+03</totfact>
</mgrwt>
</event>
<event>
 5    1  0.3309811E-002  0.1249992E+03  0.7818608E-02  0.1235070E+00
         -4   -1    0    0    0  501 -0.00000000000E+00  0.00000000000E+00  0.26799782998E+02  0.26829857784E+02  0.12700000000E+01 0. -1.
          4   -1    0    0  501    0  0.00000000000E+00 -0.00000000000E+00 -0.14564039810E+03  0.14564593526E+03  0.12700000000E+01 0. -1.
         25    2    1    2    0    0  0.00000000000E+00  0.00000000000E+00 -0.11884061510E+03  0.17247579305E+03  0.12499922956E+03 0.  0.
    9000005    1    3    3    0    0 -0.38252673339E+01  0.59129358251E+02 -0.32021750718E+02  0.67359529366E+02  0.10000000000E+01 0.  0.
    9000005    1    3    3    0    0  0.38252673339E+01 -0.59129358251E+02 -0.86818864383E+02  0.10511626368E+03  0.10000000000E+01 0.  0.
<mgrwt>
<rscale>  0 0.12499923E+03</rscale>
<asrwt>0</asrwt>
<pdfrwt beam="2">  1        4 0.22408954E-01 0.12499923E+03</pdfrwt>
<pdfrwt beam="1">  1       -4 0.41257830E-02 0.12499923E+03</pdfrwt>
<totfact> 0.94990829E+03</totfact>
</mgrwt>
</event>
<event>
 5    1  0.3309811E-002  0.1249920E+03  0.7818608E-02  0.1235082E+00
          4   -1    0    0  501    0  0.00000000000E+00  0.00000000000E+00  0.88618092812E+02  0.88627192630E+02  0.12700000000E+01 0.  1.
         -4   -1    0    0    0  501 -0.00000000000E+00 -0.00000000000E+00 -0.44053476417E+02  0.44071778776E+02  0.12700000000E+01 0.  1.
         25    2    1    2    0    0  0.00000000000E+00  0.00000000000E+00  0.44564616394E+02  0.13269897141E+03  0.12499204766E+03 0.  0.
    9000005    1    3    3    0    0 -0.31321809262E+02 -0.54065993364E+02  0.21483858053E+02  0.66081340261E+02  0.10000000000E+01 0.  0.
    9000005    1    3    3    0    0  0.31321809262E+02  0.54065993364E+02  0.23080758341E+02  0.66617631145E+02  0.10000000000E+01 0.  0.
<mgrwt>
<rscale>  0 0.12499205E+03</rscale>
<asrwt>0</asrwt>
<pdfrwt beam="1">  1        4 0.13635660E-01 0.12499205E+03</pdfrwt>
<pdfrwt beam="2">  1       -4 0.67795659E-02 0.12499205E+03</pdfrwt>
<totfact> 0.10288647E+04</totfact>
</mgrwt>
</event>
<event>
 5    1  0.3309811E-002  0.1249934E+03  0.7818608E-02  0.1235080E+00
          4   -1    0    0  501    0  0.00000000000E+00  0.00000000000E+00  0.38104855303E+02  0.38126013399E+02  0.12700000000E+01 0. -1.
         -4   -1    0    0    0  501 -0.00000000000E+00 -0.00000000000E+00 -0.10244875231E+03  0.10245662375E+03  0.12700000000E+01 0. -1.
         25    2    1    2    0    0  0.00000000000E+00  0.00000000000E+00 -0.64343897011E+02  0.14058263715E+03  0.12499336297E+03 0.  0.
    9000005    1    3    3    0    0 -0.18350370222E+02 -0.59709281008E+02 -0.30256330472E+02  0.69414550776E+02  0.10000000000E+01 0.  0.
    9000005    1    3    3    0    0  0.18350370222E+02  0.59709281008E+02 -0.34087566539E+02  0.71168086375E+02  0.10000000000E+01 0.  0.
<mgrwt>
<rscale>  0 0.12499336E+03</rscale>
<asrwt>0</asrwt>
<pdfrwt beam="1">  1        4 0.58645185E-02 0.12499336E+03</pdfrwt>
<pdfrwt beam="2">  1       -4 0.15763579E-01 0.12499336E+03</pdfrwt>
<totfact> 0.10123038E+04</totfact>
</mgrwt>
</event>
<event>
 5    1  0.3309811E-002  0.1250028E+03  0.7818608E-02  0.1235065E+00
         -4   -1    0    0    0  501 -0.00000000000E+00  0.00000000000E+00  0.54935967499E+01  0.56384843043E+01  0.12700000000E+01 0. -1.
          4   -1    0    0  501    0  0.00000000000E+00 -0.00000000000E+00 -0.70168657240E+03  0.70168772170E+03  0.12700000000E+01 0. -1.
         25    2    1    2    0    0  0.00000000000E+00  0.00000000000E+00 -0.69619297565E+03  0.70732620600E+03  0.12500280940E+03 0.  0.
    9000005    1    3    3    0    0 -0.33393708127E+02 -0.48070285250E+02 -0.47200737358E+03  0.47562364615E+03  0.10000000000E+01 0.  0.
    9000005    1    3    3    0    0  0.33393708127E+02  0.48070285250E+02 -0.22418560207E+03  0.23170255985E+03  0.10000000000E+01 0.  0.
<mgrwt>
<rscale>  0 0.12500281E+03</rscale>
<asrwt>0</asrwt>
<pdfrwt beam="2">  1        4 0.10796294E+00 0.12500281E+03</pdfrwt>
<pdfrwt beam="1">  1       -4 0.85640289E-03 0.12500281E+03</pdfrwt>
<totfact> 0.42700166E+03</totfact>
</mgrwt>
</event>
<event>
 5    1  0.3309811E-002  0.1250107E+03  0.7818608E-02  0.1235053E+00
         -4   -1    0    0    0  501 -0.00000000000E+00  0.00000000000E+00  0.38740532120E+03  0.38740740286E+03  0.12700000000E+01 0.  1.
          4   -1    0    0  501    0  0.00000000000E+00 -0.00000000000E+00 -0.10042727601E+02  0.10122710984E+02  0.12700000000E+01 0.  1.
         25    2    1    2    0    0  0.00000000000E+00  0.00000000000E+00  0.37736259360E+03  0.39753011385E+03  0.12501065702E+03 0.  0.
    9000005    1    3    3    0    0  0.18625153193E+02  0.67514462520E+01  0.19094456455E+00  0.19837207913E+02  0.10000000000E+01 0.  0.
    9000005    1    3    3    0    0 -0.18625153193E+02 -0.67514462520E+01  0.37717164903E+03  0.37769290593E+03  0.10000000000E+01 0.  0.
<mgrwt>
<rscale>  0 0.12501066E+03</rscale>
<asrwt>0</asrwt>
<pdfrwt beam="2">  1        4 0.15513476E-02 0.12501066E+03</pdfrwt>
<pdfrwt beam="1">  1       -4 0.59607136E-01 0.12501066E+03</pdfrwt>
<totfact> 0.64778470E+03</totfact>
</mgrwt>
</event>
<event>
 5    1  0.3309811E-002  0.1249747E+03  0.7818608E-02  0.1235109E+00
          4   -1    0    0  501    0  0.00000000000E+00  0.00000000000E+00  0.33252929038E+02  0.33277172200E+02  0.12700000000E+01 0. -1.
         -4   -1    0    0    0  501 -0.00000000000E+00 -0.00000000000E+00 -0.11735274935E+03  0.11735962116E+03  0.12700000000E+01 0. -1.
         25    2    1    2    0    0  0.00000000000E+00  0.00000000000E+00 -0.84099820311E+02  0.15063679336E+03  0.12497465238E+03 0.  0.
    9000005    1    3    3    0    0  0.49237625439E+02 -0.23322790871E+02 -0.51860550289E+01  0.54737478017E+02  0.10000000000E+01 0.  0.
    9000005    1    3    3    0    0 -0.49237625439E+02  0.23322790871E+02 -0.78913765282E+02  0.95899315346E+02  0.10000000000E+01 0.  0.
<mgrwt>
<rscale>  0 0.12497465E+03</rscale>
<asrwt>0</asrwt>
<pdfrwt beam="1">  1        4 0.51182288E-02 0.12497465E+03</pdfrwt>
<pdfrwt beam="2">  1       -4 0.18056662E-01 0.12497465E+03</pdfrwt>
<totfact> 0.99233508E+03</totfact>
</mgrwt>
</event>
<event>
 5    1  0.3309811E-002  0.1250001E+03  0.7818608E-02  0.1235069E+00
          4   -1    0    0  501    0  0.00000000000E+00  0.00000000000E+00  0.30268141234E+02  0.30294773044E+02  0.12700000000E+01 0.  1.
         -4   -1    0    0    0  501 -0.00000000000E+00 -0.00000000000E+00 -0.12896845187E+03  0.12897470479E+03  0.12700000000E+01 0.  1.
         25    2    1    2    0    0  0.00000000000E+00  0.00000000000E+00 -0.98700310632E+02  0.15926947784E+03  0.12500006101E+03 0.  0.
    9000005    1    3    3    0    0 -0.50603222886E+02  0.15912935910E+01 -0.26730062803E+01  0.50708612132E+02  0.10000000000E+01 0.  0.
    9000005    1    3    3    0    0  0.50603222886E+02 -0.15912935910E+01 -0.96027304352E+02  0.10856086571E+03  0.10000000000E+01 0.  0.
<mgrwt>
<rscale>  0 0.12500006E+03</rscale>
<asrwt>0</asrwt>
<pdfrwt beam="1">  1        4 0.46591668E-02 0.12500006E+03</pdfrwt>
<pdfrwt beam="2">  1       -4 0.19843830E-01 0.12500006E+03</pdfrwt>
<totfact> 0.97483675E+03</totfact>
</mgrwt>
</event>
<event>
 5    1  0.3309811E-002  0.1250001E+03  0.7818608E-02  0.1235069E+00
         -4   -1    0    0    0  501 -0.00000000000E+00  0.00000000000E+00  0.11398374775E+04  0.11398381850E+04  0.12700000000E+01 0. -1.
          4   -1    0    0  501    0  0.00000000000E+00 -0.00000000000E+00 -0.33086331693E+01  0.35440024618E+01  0.12700000000E+01 0. -1.
         25    2    1    2    0    0  0.00000000000E+00  0.00000000000E+00  0.11365288443E+04  0.11433821875E+04  0.12500005056E+03 0.  0.
    9000005    1    3    3    0    0 -0.10113403234E+01  0.59036198936E+02  0.38103838193E+03  0.38558727170E+03  0.10000000000E+01 0.  0.
    9000005    1    3    3    0    0  0.10113403234E+01 -0.59036198936E+02  0.75549046240E+03  0.75779491577E+03  0.10000000000E+01 0.  0.
<mgrwt>
<rscale>  0 0.12500005E+03</rscale>
<asrwt>0</asrwt>
<pdfrwt beam="2">  1        4 0.52717992E-03 0.12500005E+03</pdfrwt>
<pdfrwt beam="1">  1       -4 0.17537788E+00 0.12500005E+03</pdfrwt>
<totfact> 0.26244519E+03</totfact>
</mgrwt>
</event>
<event>
 5    1  0.3309811E-002  0.1249972E+03  0.7818608E-02  0.1235074E+00
          4   -1    0    0  501    0  0.00000000000E+00  0.00000000000E+00  0.26199025610E+02  0.26229789228E+02  0.12700000000E+01 0. -1.
         -4   -1    0    0    0  501 -0.00000000000E+00 -0.00000000000E+00 -0.14897141128E+03  0.14897682463E+03  0.12700000000E+01 0. -1.
         25    2    1    2    0    0  0.00000000000E+00  0.00000000000E+00 -0.12277238567E+03  0.17520661386E+03  0.12499719540E+03 0.  0.
    9000005    1    3    3    0    0  0.16400159629E+02  0.25393464884E+02 -0.13804796673E+03  0.14132244837E+03  0.10000000000E+01 0.  0.
    9000005    1    3    3    0    0 -0.16400159629E+02 -0.25393464884E+02  0.15275581060E+02  0.33884165496E+02  0.10000000000E+01 0.  0.
<mgrwt>
<rscale>  0 0.12499720E+03</rscale>
<asrwt>0</asrwt>
<pdfrwt beam="1">  1        4 0.40334023E-02 0.12499720E+03</pdfrwt>
<pdfrwt beam="2">  1       -4 0.22921461E-01 0.12499720E+03</pdfrwt>
<totfact> 0.94492958E+03</totfact>
</mgrwt>
</event>
<event>
 5    1  0.3309811E-002  0.1249962E+03  0.7818608E-02  0.1235075E+00
         -4   -1    0    0    0  501 -0.00000000000E+00  0.00000000000E+00  0.33298927234E+01  0.35638582392E+01  0.12700000000E+01 0.  1.
          4   -1    0    0  501    0  0.00000000000E+00 -0.00000000000E+00 -0.11329688162E+04  0.11329695280E+04  0.12700000000E+01 0.  1.
         25    2    1    2    0    0  0.00000000000E+00  0.00000000000E+00 -0.11296389235E+04  0.11365333863E+04  0.12499616238E+03 0.  0.
    9000005    1    3    3    0    0  0.60979768179E+02 -0.15301961274E+01 -0.68820250830E+03  0.69090127085E+03  0.10000000000E+01 0.  0.
    9000005    1    3    3    0    0 -0.60979768179E+02  0.15301961274E+01 -0.44143641521E+03  0.44563211543E+03  0.10000000000E+01 0.  0.
<mgrwt>
<rscale>  0 0.12499616E+03</rscale>
<asrwt>0</asrwt>
<pdfrwt beam="2">  1        4 0.17432065E+00 0.12499616E+03</pdfrwt>
<pdfrwt beam="1">  1       -4 0.53034420E-03 0.12499616E+03</pdfrwt>
<totfact> 0.26439122E+03</totfact>
</mgrwt>
</event>
<event>
 5    1  0.3309811E-002  0.1249990E+03  0.7818608E-02  0.1235071E+00
         -4   -1    0    0    0  501 -0.00000000000E+00  0.00000000000E+00  0.78623620705E+02  0.78633877132E+02  0.12700000000E+01 0.  1.
          4   -1    0    0  501    0  0.00000000000E+00 -0.00000000000E+00 -0.49660515573E+02  0.49676752179E+02  0.12700000000E+01 0.  1.
         25    2    1    2    0    0  0.00000000000E+00  0.00000000000E+00  0.28963105132E+02  0.12831062931E+03  0.12499902454E+03 0.  0.
    9000005    1    3    3    0    0 -0.27230909413E+02 -0.34963053000E+01 -0.43143416047E+02  0.51147834035E+02  0.10000000000E+01 0.  0.
    9000005    1    3    3    0    0  0.27230909413E+02  0.34963053000E+01  0.72106521179E+02  0.77162795276E+02  0.10000000000E+01 0.  0.
<mgrwt>
<rscale>  0 0.12499902E+03</rscale>
<asrwt>0</asrwt>
<pdfrwt beam="2">  1        4 0.76421172E-02 0.12499902E+03</pdfrwt>
<pdfrwt beam="1">  1       -4 0.12097980E-01 0.12499902E+03</pdfrwt>
<totfact> 0.10381013E+04</totfact>
</mgrwt>
</event>
<event>
 5    1  0.3309811E-002  0.1250004E+03  0.7818608E-02  0.1235069E+00
         -4   -1    0    0    0  501 -0.00000000000E+00  0.00000000000E+00  0.33418189680E+02  0.33442313041E+02  0.12700000000E+01 0. -1.
          4   -1    0    0  501    0  0.00000000000E+00 -0.00000000000E+00 -0.11682084114E+03  0.11682774425E+03  0.12700000000E+01 0. -1.
         25    2    1    2    0    0  0.00000000000E+00  0.00000000000E+00 -0.83402651464E+02  0.15027005729E+03  0.12500035138E+03 0.  0.
    9000005    1    3    3    0    0 -0.13474889958E+02 -0.59803621353E+02 -0.56287914285E+02  0.83230854140E+02  0.10000000000E+01 0.  0.
    9000005    1    3    3    0    0  0.13474889958E+02  0.59803621353E+02 -0.27114737180E+02  0.67039203147E+02  0.10000000000E+01 0.  0.
<mgrwt>
<rscale>  0 0.12500035E+03</rscale>
<asrwt>0</asrwt>
<pdfrwt beam="2">  1        4 0.17974824E-01 0.12500035E+03</pdfrwt>
<pdfrwt beam="1">  1       -4 0.51436467E-02 0.12500035E+03</pdfrwt>
<totfact> 0.99249109E+03</totfact>
</mgrwt>
</event>
<event>
 5    1  0.3309811E-002  0.1250508E+03  0.7818608E-02  0.1234990E+00
          4   -1    0    0  501    0  0.00000000000E+00  0.00000000000E+00  0.26926282827E+03  0.26926582329E+03  0.12700000000E+01 0.  1.
         -4   -1    0    0    0  501 -0.00000000000E+00 -0.00000000000E+00 -0.14488152104E+02  0.14543708309E+02  0.12700000000E+01 0.  1.
         25    2    1    2    0    0  0.00000000000E+00  0.00000000000E+00  0.25477467617E+03  0.28380953160E+03  0.12505084808E+03 0.  0.
    9000005    1    3    3    0    0  0.52385961429E+02 -0.25691308829E+02  0.76431129015E+02  0.96161581657E+02  0.10000000000E+01 0.  0.
    9000005    1    3    3    0    0 -0.52385961429E+02  0.25691308829E+02  0.17834354716E+03  0.18764794994E+03  0.10000000000E+01 0.  0.
<mgrwt>
<rscale>  0 0.12505085E+03</rscale>
<asrwt>0</asrwt>
<pdfrwt beam="1">  1        4 0.41429553E-01 0.12505085E+03</pdfrwt>
<pdfrwt beam="2">  1       -4 0.22334505E-02 0.12505085E+03</pdfrwt>
<totfact> 0.77587979E+03</totfact>
</mgrwt>
</event>
<event>
 5    1  0.3309811E-002  0.1250049E+03  0.7818608E-02  0.1235062E+00
         -4   -1    0    0    0  501 -0.00000000000E+00  0.00000000000E+00  0.28171433791E+03  0.28171720055E+03  0.12700000000E+01 0.  1.
          4   -1    0    0  501    0  0.00000000000E+00 -0.00000000000E+00 -0.13835055563E+02  0.13893223615E+02  0.12700000000E+01 0.  1.
         25    2    1    2    0    0  0.00000000000E+00  0.00000000000E+00  0.26787928235E+03  0.29561042417E+03  0.12500485176E+03 0.  0.
    9000005    1    3    3    0    0  0.54563651966E+02  0.99175054691E+01  0.65810482980E+02  0.86067233607E+02  0.10000000000E+01 0.  0.
    9000005    1    3    3    0    0 -0.54563651966E+02 -0.99175054691E+01  0.20206879937E+03  0.20954319056E+03  0.10000000000E+01 0.  0.
<mgrwt>
<rscale>  0 0.12500485E+03</rscale>
<asrwt>0</asrwt>
<pdfrwt beam="2">  1        4 0.21331646E-02 0.12500485E+03</pdfrwt>
<pdfrwt beam="1">  1       -4 0.43345364E-01 0.12500485E+03</pdfrwt>
<totfact> 0.76144572E+03</totfact>
</mgrwt>
</event>
<event>
 5    1  0.3309811E-002  0.1250008E+03  0.7818608E-02  0.1235068E+00
         -4   -1    0    0    0  501 -0.00000000000E+00  0.00000000000E+00  0.76417473942E+01  0.77465607360E+01  0.12700000000E+01 0.  1.
          4   -1    0    0  501    0  0.00000000000E+00 -0.00000000000E+00 -0.50759142098E+03  0.50759300976E+03  0.12700000000E+01 0.  1.
         25    2    1    2    0    0  0.00000000000E+00  0.00000000000E+00 -0.49994967359E+03  0.51533957050E+03  0.12500078718E+03 0.  0.
    9000005    1    3    3    0    0 -0.17125902301E+02 -0.54928777236E+02 -0.35052387993E+03  0.35521607156E+03  0.10000000000E+01 0.  0.
    9000005    1    3    3    0    0  0.17125902301E+02  0.54928777236E+02 -0.14942579366E+03  0.16012349893E+03  0.10000000000E+01 0.  0.
<mgrwt>
<rscale>  0 0.12500079E+03</rscale>
<asrwt>0</asrwt>
<pdfrwt beam="2">  1        4 0.78099147E-01 0.12500079E+03</pdfrwt>
<pdfrwt beam="1">  1       -4 0.11838386E-02 0.12500079E+03</pdfrwt>
<totfact> 0.54692607E+03</totfact>
</mgrwt>
</event>
<event>
 5    1  0.3309811E-002  0.1249992E+03  0.7818608E-02  0.1235071E+00
          4   -1    0    0  501    0  0.00000000000E+00  0.00000000000E+00  0.47078423701E+03  0.47078595000E+03  0.12700000000E+01 0. -1.
         -4   -1    0    0    0  501 -0.00000000000E+00 -0.00000000000E+00 -0.82468815175E+01  0.83440970011E+01  0.12700000000E+01 0. -1.
         25    2    1    2    0    0  0.00000000000E+00  0.00000000000E+00  0.46253735549E+03  0.47913004700E+03  0.12499918685E+03 0.  0.
    9000005    1    3    3    0    0  0.13337426784E+02  0.56791075408E+02  0.14538012871E+03  0.15665086985E+03  0.10000000000E+01 0.  0.
    9000005    1    3    3    0    0 -0.13337426784E+02 -0.56791075408E+02  0.31715722678E+03  0.32247917715E+03  0.10000000000E+01 0.  0.
<mgrwt>
<rscale>  0 0.12499919E+03</rscale>
<asrwt>0</asrwt>
<pdfrwt beam="1">  1        4 0.72435965E-01 0.12499919E+03</pdfrwt>
<pdfrwt beam="2">  1       -4 0.12763607E-02 0.12499919E+03</pdfrwt>
<totfact> 0.57521795E+03</totfact>
</mgrwt>
</event>
<event>
 5    1  0.3309811E-002  0.1249967E+03  0.7818608E-02  0.1235074E+00
         -4   -1    0    0    0  501 -0.00000000000E+00  0.00000000000E+00  0.46801063715E+02  0.46818291990E+02  0.12700000000E+01 0. -1.
          4   -1    0    0  501    0  0.00000000000E+00 -0.00000000000E+00 -0.83423156077E+02  0.83432822497E+02  0.12700000000E+01 0. -1.
         25    2    1    2    0    0  0.00000000000E+00  0.00000000000E+00 -0.36622092362E+02  0.13025111449E+03  0.12499670066E+03 0.  0.
    9000005    1    3    3    0    0  0.29939458567E+02  0.21365994338E+02 -0.70953658717E+02  0.79926832657E+02  0.10000000000E+01 0.  0.
    9000005    1    3    3    0    0 -0.29939458567E+02 -0.21365994338E+02  0.34331566355E+02  0.50324281830E+02  0.10000000000E+01 0.  0.
<mgrwt>
<rscale>  0 0.12499670E+03</rscale>
<asrwt>0</asrwt>
<pdfrwt beam="2">  1        4 0.12836400E-01 0.12499670E+03</pdfrwt>
<pdfrwt beam="1">  1       -4 0.72022325E-02 0.12499670E+03</pdfrwt>
<totfact> 0.10339909E+04</totfact>
</mgrwt>
</event>
<event>
 5    1  0.3309811E-002  0.1250034E+03  0.7818608E-02  0.1235064E+00
         -4   -1    0    0    0  501 -0.00000000000E+00  0.00000000000E+00  0.14881935060E+03  0.14882476949E+03  0.12700000000E+01 0.  1.
          4   -1    0    0  501    0  0.00000000000E+00 -0.00000000000E+00 -0.26228433923E+02  0.26259163088E+02  0.12700000000E+01 0.  1.
         25    2    1    2    0    0  0.00000000000E+00  0.00000000000E+00  0.12259091668E+03  0.17508393258E+03  0.12500340233E+03 0.  0.
    9000005    1    3    3    0    0 -0.43370432471E+02 -0.21125124250E+02  0.56531529529E+01  0.48582130723E+02  0.10000000000E+01 0.  0.
    9000005    1    3    3    0    0  0.43370432471E+02  0.21125124250E+02  0.11693776373E+03  0.12650180186E+03  0.10000000000E+01 0.  0.
<mgrwt>
<rscale>  0 0.12500340E+03</rscale>
<asrwt>0</asrwt>
<pdfrwt beam="2">  1        4 0.40379242E-02 0.12500340E+03</pdfrwt>
<pdfrwt beam="1">  1       -4 0.22898066E-01 0.12500340E+03</pdfrwt>
<totfact> 0.94502257E+03</totfact>
</mgrwt>
</event>
<event>
 5    1  0.3309811E-002  0.1250003E+03  0.7818608E-02  0.1235069E+00
         -4   -1    0    0    0  501 -0.00000000000E+00  0.00000000000E+00  0.83203653200E+01  0.84167320890E+01  0.12700000000E+01 0.  1.
          4   -1    0    0  501    0  0.00000000000E+00 -0.00000000000E+00 -0.46668279440E+03  0.46668452245E+03  0.12700000000E+01 0.  1.
         25    2    1    2    0    0  0.00000000000E+00  0.00000000000E+00 -0.45836242908E+03  0.47510125454E+03  0.12500034267E+03 0.  0.
    9000005    1    3    3    0    0  0.24780478809E+02 -0.50605469792E+02 -0.33189325953E+03  0.33664390894E+03  0.10000000000E+01 0.  0.
    9000005    1    3    3    0    0 -0.24780478809E+02  0.50605469792E+02 -0.12646916955E+03  0.13845734560E+03  0.10000000000E+01 0.  0.
<mgrwt>
<rscale>  0 0.12500034E+03</rscale>
<asrwt>0</asrwt>
<pdfrwt beam="2">  1        4 0.71804879E-01 0.12500034E+03</pdfrwt>
<pdfrwt beam="1">  1       -4 0.12876023E-02 0.12500034E+03</pdfrwt>
<totfact> 0.57848887E+03</totfact>
</mgrwt>
</event>
<event>
 5    1  0.3309811E-002  0.1249983E+03  0.7818608E-02  0.1235072E+00
         -4   -1    0    0    0  501 -0.00000000000E+00  0.00000000000E+00  0.19973546357E+01  0.23669232224E+01  0.12700000000E+01 0.  1.
          4   -1    0    0  501    0  0.00000000000E+00 -0.00000000000E+00 -0.17896834360E+04  0.17896838866E+04  0.12700000000E+01 0.  1.
         25    2    1    2    0    0  0.00000000000E+00  0.00000000000E+00 -0.17876860813E+04  0.17920508098E+04  0.12499831806E+03 0.  0.
    9000005    1    3    3    0    0  0.53618564257E+02  0.13562117382E+02 -0.13109034199E+04  0.13120699896E+04  0.10000000000E+01 0.  0.
    9000005    1    3    3    0    0 -0.53618564257E+02 -0.13562117382E+02 -0.47678266147E+03  0.47998082018E+03  0.10000000000E+01 0.  0.
<mgrwt>
<rscale>  0 0.12499832E+03</rscale>
<asrwt>0</asrwt>
<pdfrwt beam="2">  1        4 0.27536320E+00 0.12499832E+03</pdfrwt>
<pdfrwt beam="1">  1       -4 0.33574978E-03 0.12499832E+03</pdfrwt>
<totfact> 0.12826945E+03</totfact>
</mgrwt>
</event>
<event>
 5    1  0.3309811E-002  0.1250018E+03  0.7818608E-02  0.1235066E+00
         -4   -1    0    0    0  501 -0.00000000000E+00  0.00000000000E+00  0.18886855888E+03  0.18887282874E+03  0.12700000000E+01 0. -1.
          4   -1    0    0  501    0  0.00000000000E+00 -0.00000000000E+00 -0.20658969640E+02  0.20697969142E+02  0.12700000000E+01 0. -1.
         25    2    1    2    0    0  0.00000000000E+00  0.00000000000E+00  0.16820958924E+03  0.20957079788E+03  0.12500181363E+03 0.  0.
    9000005    1    3    3    0    0 -0.42661730233E+02 -0.27234750692E+01  0.76809014087E+01  0.43444640513E+02  0.10000000000E+01 0.  0.
    9000005    1    3    3    0    0  0.42661730233E+02  0.27234750692E+01  0.16052868783E+03  0.16612615736E+03  0.10000000000E+01 0.  0.
<mgrwt>
<rscale>  0 0.12500181E+03</rscale>
<asrwt>0</asrwt>
<pdfrwt beam="2">  1        4 0.31816312E-02 0.12500181E+03</pdfrwt>
<pdfrwt beam="1">  1       -4 0.29060032E-01 0.12500181E+03</pdfrwt>
<totfact> 0.88542431E+03</totfact>
</mgrwt>
</event>
<event>
 5    1  0.3309811E-002  0.1249989E+03  0.7818608E-02  0.1235071E+00
         -4   -1    0    0    0  501 -0.00000000000E+00  0.00000000000E+00  0.11087329547E+03  0.11088056885E+03  0.12700000000E+01 0.  1.
          4   -1    0    0  501    0  0.00000000000E+00 -0.00000000000E+00 -0.35211166895E+02  0.35234062697E+02  0.12700000000E+01 0.  1.
         25    2    1    2    0    0  0.00000000000E+00  0.00000000000E+00  0.75662128576E+02  0.14611463155E+03  0.12499891140E+03 0.  0.
    9000005    1    3    3    0    0  0.51802982111E+02 -0.16001852806E+02  0.74153937406E+02  0.91866286970E+02  0.10000000000E+01 0.  0.
    9000005    1    3    3    0    0 -0.51802982111E+02  0.16001852806E+02  0.15081911700E+01  0.54248344577E+02  0.10000000000E+01 0.  0.
<mgrwt>
<rscale>  0 0.12499891E+03</rscale>
<asrwt>0</asrwt>
<pdfrwt beam="2">  1        4 0.54194233E-02 0.12499891E+03</pdfrwt>
<pdfrwt beam="1">  1       -4 0.17059751E-01 0.12499891E+03</pdfrwt>
<totfact> 0.10008636E+04</totfact>
</mgrwt>
</event>
<event>
 5    1  0.3309811E-002  0.1249937E+03  0.7818608E-02  0.1235079E+00
         -4   -1    0    0    0  501 -0.00000000000E+00  0.00000000000E+00  0.40224854433E+03  0.40225054918E+03  0.12700000000E+01 0. -1.
          4   -1    0    0  501    0  0.00000000000E+00 -0.00000000000E+00 -0.96664990336E+01  0.97495694041E+01  0.12700000000E+01 0. -1.
         25    2    1    2    0    0  0.00000000000E+00  0.00000000000E+00  0.39258204530E+03  0.41200011859E+03  0.12499374154E+03 0.  0.
    9000005    1    3    3    0    0  0.39104583500E+02  0.43468019641E+02  0.26897291561E+03  0.27525636507E+03  0.10000000000E+01 0.  0.
    9000005    1    3    3    0    0 -0.39104583500E+02 -0.43468019641E+02  0.12360912969E+03  0.13674375351E+03  0.10000000000E+01 0.  0.
<mgrwt>
<rscale>  0 0.12499374E+03</rscale>
<asrwt>0</asrwt>
<pdfrwt beam="2">  1        4 0.14936979E-02 0.12499374E+03</pdfrwt>
<pdfrwt beam="1">  1       -4 0.61890936E-01 0.12499374E+03</pdfrwt>
<totfact> 0.63410923E+03</totfact>
</mgrwt>
</event>
<event>
 4    1  0.3309811E-002  0.1249104E+03  0.7818608E-02  0.1235209E+00
          4   -1    0    0  501    0  0.00000000000E+00  0.00000000000E+00  0.25992221067E+02  0.26023229162E+02  0.12700000000E+01 0. -1.
         -4   -1    0    0    0  501 -0.00000000000E+00 -0.00000000000E+00 -0.14994679180E+03  0.14995216995E+03  0.12700000000E+01 0. -1.
    9000005    1    1    2    0    0  0.18647640660E+02  0.17936296948E+02  0.18092472098E+02  0.31587700090E+02  0.10000000000E+01 0.  0.
    9000005    1    1    2    0    0 -0.18647640660E+02 -0.17936296948E+02 -0.14204704283E+03  0.14438769902E+03  0.10000000000E+01 0.  0.
<mgrwt>
<rscale>  0 0.12491039E+03</rscale>
<asrwt>0</asrwt>
<pdfrwt beam="1">  1        4 0.40016023E-02 0.12491039E+03</pdfrwt>
<pdfrwt beam="2">  1       -4 0.23071536E-01 0.12491039E+03</pdfrwt>
<totfact> 0.94536394E+03</totfact>
</mgrwt>
</event>
<event>
 5    1  0.3309811E-002  0.1249991E+03  0.7818608E-02  0.1235071E+00
          4   -1    0    0  501    0  0.00000000000E+00  0.00000000000E+00  0.16451090186E+02  0.16500038433E+02  0.12700000000E+01 0. -1.
         -4   -1    0    0    0  501 -0.00000000000E+00 -0.00000000000E+00 -0.23703943959E+03  0.23704284174E+03  0.12700000000E+01 0. -1.
         25    2    1    2    0    0  0.00000000000E+00  0.00000000000E+00 -0.22058834940E+03  0.25354288017E+03  0.12499908877E+03 0.  0.
    9000005    1    3    3    0    0 -0.17871852970E+02 -0.11802357004E+01 -0.23173162013E+03  0.23242491229E+03  0.10000000000E+01 0.  0.
    9000005    1    3    3    0    0  0.17871852970E+02  0.11802357004E+01  0.11143270730E+02  0.21117967881E+02  0.10000000000E+01 0.  0.
<mgrwt>
<rscale>  0 0.12499909E+03</rscale>
<asrwt>0</asrwt>
<pdfrwt beam="1">  1        4 0.25349641E-02 0.12499909E+03</pdfrwt>
<pdfrwt beam="2">  1       -4 0.36471631E-01 0.12499909E+03</pdfrwt>
<totfact> 0.81822514E+03</totfact>
</mgrwt>
</event>
<event>
 5    1  0.3309811E-002  0.1249994E+03  0.7818608E-02  0.1235070E+00
          4   -1    0    0  501    0  0.00000000000E+00  0.00000000000E+00  0.92172080978E+01  0.93042906832E+01  0.12700000000E+01 0.  1.
         -4   -1    0    0    0  501 -0.00000000000E+00 -0.00000000000E+00 -0.42171519819E+03  0.42171711049E+03  0.12700000000E+01 0.  1.
         25    2    1    2    0    0  0.00000000000E+00  0.00000000000E+00 -0.41249799009E+03  0.43102140117E+03  0.12499942577E+03 0.  0.
    9000005    1    3    3    0    0  0.56484074184E+02 -0.72838820567E+01 -0.29494911051E+03  0.30039887378E+03  0.10000000000E+01 0.  0.
    9000005    1    3    3    0    0 -0.56484074184E+02  0.72838820567E+01 -0.11754887958E+03  0.13062252740E+03  0.10000000000E+01 0.  0.
<mgrwt>
<rscale>  0 0.12499943E+03</rscale>
<asrwt>0</asrwt>
<pdfrwt beam="1">  1        4 0.14248781E-02 0.12499943E+03</pdfrwt>
<pdfrwt beam="2">  1       -4 0.64886092E-01 0.12499943E+03</pdfrwt>
<totfact> 0.61644304E+03</totfact>
</mgrwt>
</event>
<event>
 5    1  0.3309811E-002  0.1250105E+03  0.7818608E-02  0.1235053E+00
          4   -1    0    0  501    0  0.00000000000E+00  0.00000000000E+00  0.70587564481E+02  0.70598988373E+02  0.12700000000E+01 0.  1.
         -4   -1    0    0    0  501 -0.00000000000E+00 -0.00000000000E+00 -0.55325177184E+02  0.55339751811E+02  0.12700000000E+01 0.  1.
         25    2    1    2    0    0  0.00000000000E+00  0.00000000000E+00  0.15262387296E+02  0.12593874018E+03  0.12501050281E+03 0.  0.
    9000005    1    3    3    0    0  0.13546002220E+02 -0.58315756446E+02  0.25699944571E+02  0.65159103562E+02  0.10000000000E+01 0.  0.
    9000005    1    3    3    0    0 -0.13546002220E+02  0.58315756446E+02 -0.10437557275E+02  0.60779636622E+02  0.10000000000E+01 0.  0.
<mgrwt>
<rscale>  0 0.12501050E+03</rscale>
<asrwt>0</asrwt>
<pdfrwt beam="1">  1        4 0.10861625E-01 0.12501050E+03</pdfrwt>
<pdfrwt beam="2">  1       -4 0.85135657E-02 0.12501050E+03</pdfrwt>
<totfact> 0.10429828E+04</totfact>
</mgrwt>
</event>
<event>
 5    1  0.3309811E-002  0.1249672E+03  0.7818608E-02  0.1235121E+00
          4   -1    0    0  501    0  0.00000000000E+00  0.00000000000E+00  0.75300265752E+02  0.75310974780E+02  0.12700000000E+01 0.  1.
         -4   -1    0    0    0  501 -0.00000000000E+00 -0.00000000000E+00 -0.51826234922E+02  0.51841793238E+02  0.12700000000E+01 0.  1.
         25    2    1    2    0    0  0.00000000000E+00  0.00000000000E+00  0.23474030831E+02  0.12715276802E+03  0.12496718086E+03 0.  0.
    9000005    1    3    3    0    0  0.44738418849E+02 -0.26446593423E+02 -0.23542885452E+02  0.57063262089E+02  0.10000000000E+01 0.  0.
    9000005    1    3    3    0    0 -0.44738418849E+02  0.26446593423E+02  0.47016916283E+02  0.70089505930E+02  0.10000000000E+01 0.  0.
<mgrwt>
<rscale>  0 0.12496718E+03</rscale>
<asrwt>0</asrwt>
<pdfrwt beam="1">  1        4 0.11586677E-01 0.12496718E+03</pdfrwt>
<pdfrwt beam="2">  1       -4 0.79752875E-02 0.12496718E+03</pdfrwt>
<totfact> 0.10413541E+04</totfact>
</mgrwt>
</event>
<event>
 4    1  0.3309811E-002  0.1253786E+03  0.7818608E-02  0.1234479E+00
          4   -1    0    0  501    0  0.00000000000E+00  0.00000000000E+00  0.19087156784E+02  0.19129361047E+02  0.12700000000E+01 0. -1.
         -4   -1    0    0    0  501 -0.00000000000E+00 -0.00000000000E+00 -0.20562325551E+03  0.20562717745E+03  0.12700000000E+01 0. -1.
    9000005    1    1    2    0    0  0.44870094315E+02  0.17162069134E+02 -0.21092210712E+02  0.52476121555E+02  0.10000000000E+01 0.  0.
    9000005    1    1    2    0    0 -0.44870094315E+02 -0.17162069134E+02 -0.16544388802E+03  0.17228041695E+03  0.10000000000E+01 0.  0.
<mgrwt>
<rscale>  0 0.12537857E+03</rscale>
<asrwt>0</asrwt>
<pdfrwt beam="1">  1        4 0.29400340E-02 0.12537857E+03</pdfrwt>
<pdfrwt beam="2">  1       -4 0.31637894E-01 0.12537857E+03</pdfrwt>
<totfact> 0.85397339E+03</totfact>
</mgrwt>
</event>
<event>
 5    1  0.3309811E-002  0.1249996E+03  0.7818608E-02  0.1235070E+00
         -4   -1    0    0    0  501 -0.00000000000E+00  0.00000000000E+00  0.53844839499E+01  0.55322298765E+01  0.12700000000E+01 0.  1.
          4   -1    0    0  501    0  0.00000000000E+00 -0.00000000000E+00 -0.71549283869E+03  0.71549396581E+03  0.12700000000E+01 0.  1.
         25    2    1    2    0    0  0.00000000000E+00  0.00000000000E+00 -0.71010835474E+03  0.72102619569E+03  0.12499959760E+03 0.  0.
    9000005    1    3    3    0    0 -0.17624177088E+02  0.36701704641E+02 -0.62851918198E+03  0.62983727173E+03  0.10000000000E+01 0.  0.
    9000005    1    3    3    0    0  0.17624177088E+02 -0.36701704641E+02 -0.81589172752E+02  0.91188923954E+02  0.10000000000E+01 0.  0.
<mgrwt>
<rscale>  0 0.12499960E+03</rscale>
<asrwt>0</asrwt>
<pdfrwt beam="2">  1        4 0.11008720E+00 0.12499960E+03</pdfrwt>
<pdfrwt beam="1">  1       -4 0.83983449E-03 0.12499960E+03</pdfrwt>
<totfact> 0.42000116E+03</totfact>
</mgrwt>
</event>
<event>
 5    1  0.3309811E-002  0.1249993E+03  0.7818608E-02  0.1235070E+00
          4   -1    0    0  501    0  0.00000000000E+00  0.00000000000E+00  0.73676923045E+02  0.73687867993E+02  0.12700000000E+01 0. -1.
         -4   -1    0    0    0  501 -0.00000000000E+00 -0.00000000000E+00 -0.52995586433E+02  0.53010801554E+02  0.12700000000E+01 0. -1.
         25    2    1    2    0    0  0.00000000000E+00  0.00000000000E+00  0.20681336611E+02  0.12669866955E+03  0.12499934072E+03 0.  0.
    9000005    1    3    3    0    0 -0.41676863649E+02 -0.30012882799E+02 -0.25744935882E+02  0.57458992517E+02  0.10000000000E+01 0.  0.
    9000005    1    3    3    0    0  0.41676863649E+02  0.30012882799E+02  0.46426272493E+02  0.69239677030E+02  0.10000000000E+01 0.  0.
<mgrwt>
<rscale>  0 0.12499934E+03</rscale>
<asrwt>0</asrwt>
<pdfrwt beam="1">  1        4 0.11336923E-01 0.12499934E+03</pdfrwt>
<pdfrwt beam="2">  1       -4 0.81551795E-02 0.12499934E+03</pdfrwt>
<totfact> 0.10415854E+04</totfact>
</mgrwt>
</event>
<event>
 5    1  0.3309811E-002  0.1250055E+03  0.7818608E-02  0.1235061E+00
         -4   -1    0    0    0  501 -0.00000000000E+00  0.00000000000E+00  0.40970914966E+02  0.40990593716E+02  0.12700000000E+01 0. -1.
          4   -1    0    0  501    0  0.00000000000E+00 -0.00000000000E+00 -0.95303570870E+02  0.95312032402E+02  0.12700000000E+01 0. -1.
         25    2    1    2    0    0  0.00000000000E+00  0.00000000000E+00 -0.54332655903E+02  0.13630262612E+03  0.12500547344E+03 0.  0.
    9000005    1    3    3    0    0  0.18891871012E+02 -0.53815990290E+02 -0.55019517534E+02  0.79254090815E+02  0.10000000000E+01 0.  0.
    9000005    1    3    3    0    0 -0.18891871012E+02  0.53815990290E+02  0.68686163050E+00  0.57048535302E+02  0.10000000000E+01 0.  0.
<mgrwt>
<rscale>  0 0.12500547E+03</rscale>
<asrwt>0</asrwt>
<pdfrwt beam="2">  1        4 0.14664252E-01 0.12500547E+03</pdfrwt>
<pdfrwt beam="1">  1       -4 0.63053824E-02 0.12500547E+03</pdfrwt>
<totfact> 0.10209427E+04</totfact>
</mgrwt>
</event>
<event>
 5    1  0.3309811E-002  0.1250003E+03  0.7818608E-02  0.1235069E+00
          4   -1    0    0  501    0  0.00000000000E+00  0.00000000000E+00  0.15140692159E+02  0.15193862545E+02  0.12700000000E+01 0. -1.
         -4   -1    0    0    0  501 -0.00000000000E+00 -0.00000000000E+00 -0.25749094009E+03  0.25749407203E+03  0.12700000000E+01 0. -1.
         25    2    1    2    0    0  0.00000000000E+00  0.00000000000E+00 -0.24235024794E+03  0.27268793458E+03  0.12500026795E+03 0.  0.
    9000005    1    3    3    0    0  0.54589262188E+02  0.34272980667E+01 -0.55239964954E+02  0.77744373728E+02  0.10000000000E+01 0.  0.
    9000005    1    3    3    0    0 -0.54589262188E+02 -0.34272980667E+01 -0.18711028298E+03  0.19494356085E+03  0.10000000000E+01 0.  0.
<mgrwt>
<rscale>  0 0.12500027E+03</rscale>
<asrwt>0</asrwt>
<pdfrwt beam="1">  1        4 0.23336684E-02 0.12500027E+03</pdfrwt>
<pdfrwt beam="2">  1       -4 0.39618318E-01 0.12500027E+03</pdfrwt>
<totfact> 0.79157259E+03</totfact>
</mgrwt>
</event>
<event>
 5    1  0.3309811E-002  0.1250002E+03  0.7818608E-02  0.1235069E+00
         -4   -1    0    0    0  501 -0.00000000000E+00  0.00000000000E+00  0.61925426218E+02  0.61938447771E+02  0.12700000000E+01 0. -1.
          4   -1    0    0  501    0  0.00000000000E+00 -0.00000000000E+00 -0.63054102532E+02  0.63066891046E+02  0.12700000000E+01 0. -1.
         25    2    1    2    0    0  0.00000000000E+00  0.00000000000E+00 -0.11286763143E+01  0.12500533882E+03  0.12500024329E+03 0.  0.
    9000005    1    3    3    0    0 -0.13639329922E+02  0.83642486593E+01  0.59847339143E+02  0.61957210871E+02  0.10000000000E+01 0.  0.
    9000005    1    3    3    0    0  0.13639329922E+02 -0.83642486593E+01 -0.60976015458E+02  0.63048127946E+02  0.10000000000E+01 0.  0.
<mgrwt>
<rscale>  0 0.12500024E+03</rscale>
<asrwt>0</asrwt>
<pdfrwt beam="2">  1        4 0.97026166E-02 0.12500024E+03</pdfrwt>
<pdfrwt beam="1">  1       -4 0.95289740E-02 0.12500024E+03</pdfrwt>
<totfact> 0.10452689E+04</totfact>
</mgrwt>
</event>
<event>
 5    1  0.3309811E-002  0.1249949E+03  0.7818608E-02  0.1235077E+00
         -4   -1    0    0    0  501 -0.00000000000E+00  0.00000000000E+00  0.16203131725E+03  0.16203629430E+03  0.12700000000E+01 0. -1.
          4   -1    0    0  501    0  0.00000000000E+00 -0.00000000000E+00 -0.24083960685E+02  0.24117422380E+02  0.12700000000E+01 0. -1.
         25    2    1    2    0    0  0.00000000000E+00  0.00000000000E+00  0.13794735657E+03  0.18615371668E+03  0.12499493210E+03 0.  0.
    9000005    1    3    3    0    0 -0.27603538388E+02  0.13615215771E+01 -0.14494677841E+02  0.31223464866E+02  0.10000000000E+01 0.  0.
    9000005    1    3    3    0    0  0.27603538388E+02 -0.13615215771E+01  0.15244203441E+03  0.15493025181E+03  0.10000000000E+01 0.  0.
<mgrwt>
<rscale>  0 0.12499493E+03</rscale>
<asrwt>0</asrwt>
<pdfrwt beam="2">  1        4 0.37081815E-02 0.12499493E+03</pdfrwt>
<pdfrwt beam="1">  1       -4 0.24930852E-01 0.12499493E+03</pdfrwt>
<totfact> 0.92531402E+03</totfact>
</mgrwt>
</event>
<event>
 5    1  0.3309811E-002  0.1249814E+03  0.7818608E-02  0.1235098E+00
          4   -1    0    0  501    0  0.00000000000E+00  0.00000000000E+00  0.45860225819E+02  0.45877807403E+02  0.12700000000E+01 0.  1.
         -4   -1    0    0    0  501 -0.00000000000E+00 -0.00000000000E+00 -0.85113248846E+02  0.85122723342E+02  0.12700000000E+01 0.  1.
         25    2    1    2    0    0  0.00000000000E+00  0.00000000000E+00 -0.39253023028E+02  0.13100053075E+03  0.12498135556E+03 0.  0.
    9000005    1    3    3    0    0 -0.27993109714E+02 -0.42816024983E+02  0.17979799138E+02  0.54231903561E+02  0.10000000000E+01 0.  0.
    9000005    1    3    3    0    0  0.27993109714E+02  0.42816024983E+02 -0.57232822165E+02  0.76768627185E+02  0.10000000000E+01 0.  0.
<mgrwt>
<rscale>  0 0.12498136E+03</rscale>
<asrwt>0</asrwt>
<pdfrwt beam="1">  1        4 0.70575006E-02 0.12498136E+03</pdfrwt>
<pdfrwt beam="2">  1       -4 0.13096427E-01 0.12498136E+03</pdfrwt>
<totfact> 0.10327421E+04</totfact>
</mgrwt>
</event>
<event>
 5    1  0.3309811E-002  0.1250017E+03  0.7818608E-02  0.1235067E+00
         -4   -1    0    0    0  501 -0.00000000000E+00  0.00000000000E+00  0.72469999254E+03  0.72470110534E+03  0.12700000000E+01 0.  1.
          4   -1    0    0  501    0  0.00000000000E+00 -0.00000000000E+00 -0.53143667240E+01  0.54640089382E+01  0.12700000000E+01 0.  1.
         25    2    1    2    0    0  0.00000000000E+00  0.00000000000E+00  0.71938562581E+03  0.73016511428E+03  0.12500166193E+03 0.  0.
    9000005    1    3    3    0    0 -0.11742480208E+02  0.16192620912E+02  0.13860277963E+02  0.24355576747E+02  0.10000000000E+01 0.  0.
    9000005    1    3    3    0    0  0.11742480208E+02 -0.16192620912E+02  0.70552534785E+03  0.70580953753E+03  0.10000000000E+01 0.  0.
<mgrwt>
<rscale>  0 0.12500166E+03</rscale>
<asrwt>0</asrwt>
<pdfrwt beam="2">  1        4 0.82919143E-03 0.12500166E+03</pdfrwt>
<pdfrwt beam="1">  1       -4 0.11150390E+00 0.12500166E+03</pdfrwt>
<totfact> 0.41539769E+03</totfact>
</mgrwt>
</event>
<event>
 5    1  0.3309811E-002  0.1250000E+03  0.7818608E-02  0.1235069E+00
         -4   -1    0    0    0  501 -0.00000000000E+00  0.00000000000E+00  0.66174436899E+01  0.67382090342E+01  0.12700000000E+01 0.  1.
          4   -1    0    0  501    0  0.00000000000E+00 -0.00000000000E+00 -0.58483654532E+03  0.58483792425E+03  0.12700000000E+01 0.  1.
         25    2    1    2    0    0  0.00000000000E+00  0.00000000000E+00 -0.57821910163E+03  0.59157613328E+03  0.12499996793E+03 0.  0.
    9000005    1    3    3    0    0  0.57089768667E+02 -0.25306481511E+02 -0.27792185357E+03  0.28485297328E+03  0.10000000000E+01 0.  0.
    9000005    1    3    3    0    0 -0.57089768667E+02  0.25306481511E+02 -0.30029724806E+03  0.30672316000E+03  0.10000000000E+01 0.  0.
<mgrwt>
<rscale>  0 0.12499997E+03</rscale>
<asrwt>0</asrwt>
<pdfrwt beam="2">  1        4 0.89984208E-01 0.12499997E+03</pdfrwt>
<pdfrwt beam="1">  1       -4 0.10274644E-02 0.12499997E+03</pdfrwt>
<totfact> 0.49403754E+03</totfact>
</mgrwt>
</event>
<event>
 5    1  0.3309811E-002  0.1250280E+03  0.7818608E-02  0.1235026E+00
          4   -1    0    0  501    0  0.00000000000E+00  0.00000000000E+00  0.90680083928E+01  0.91565100454E+01  0.12700000000E+01 0.  1.
         -4   -1    0    0    0  501 -0.00000000000E+00 -0.00000000000E+00 -0.42878339247E+03  0.42878527325E+03  0.12700000000E+01 0.  1.
         25    2    1    2    0    0  0.00000000000E+00  0.00000000000E+00 -0.41971538407E+03  0.43794178329E+03  0.12502800457E+03 0.  0.
    9000005    1    3    3    0    0 -0.31247388882E+01  0.48251142565E+02 -0.34860653629E+03  0.35194524275E+03  0.10000000000E+01 0.  0.
    9000005    1    3    3    0    0  0.31247388882E+01 -0.48251142565E+02 -0.71108847782E+02  0.85996540540E+02  0.10000000000E+01 0.  0.
<mgrwt>
<rscale>  0 0.12502800E+03</rscale>
<asrwt>0</asrwt>
<pdfrwt beam="1">  1        4 0.14020310E-02 0.12502800E+03</pdfrwt>
<pdfrwt beam="2">  1       -4 0.65973613E-01 0.12502800E+03</pdfrwt>
<totfact> 0.60985012E+03</totfact>
</mgrwt>
</event>
<event>
 5    1  0.3309811E-002  0.1250011E+03  0.7818608E-02  0.1235068E+00
          4   -1    0    0  501    0  0.00000000000E+00  0.00000000000E+00  0.12286209590E+03  0.12286865959E+03  0.12700000000E+01 0. -1.
         -4   -1    0    0    0  501 -0.00000000000E+00 -0.00000000000E+00 -0.31774221128E+02  0.31799591637E+02  0.12700000000E+01 0. -1.
         25    2    1    2    0    0  0.00000000000E+00  0.00000000000E+00  0.91087874777E+02  0.15466825123E+03  0.12500106802E+03 0.  0.
    9000005    1    3    3    0    0  0.96322329509E+01  0.48873079477E+02  0.92235260958E+02  0.10483177559E+03  0.10000000000E+01 0.  0.
    9000005    1    3    3    0    0 -0.96322329509E+01 -0.48873079477E+02 -0.11473861811E+01  0.49836475640E+02  0.10000000000E+01 0.  0.
<mgrwt>
<rscale>  0 0.12500107E+03</rscale>
<asrwt>0</asrwt>
<pdfrwt beam="1">  1        4 0.18904318E-01 0.12500107E+03</pdfrwt>
<pdfrwt beam="2">  1       -4 0.48907981E-02 0.12500107E+03</pdfrwt>
<totfact> 0.98378301E+03</totfact>
</mgrwt>
</event>
<event>
 5    1  0.3309811E-002  0.1249949E+03  0.7818608E-02  0.1235077E+00
         -4   -1    0    0    0  501 -0.00000000000E+00  0.00000000000E+00  0.19183815688E+04  0.19183819892E+04  0.12700000000E+01 0. -1.
          4   -1    0    0  501    0  0.00000000000E+00 -0.00000000000E+00 -0.18375517423E+01  0.22337180676E+01  0.12700000000E+01 0. -1.
         25    2    1    2    0    0  0.00000000000E+00  0.00000000000E+00  0.19165440171E+04  0.19206157073E+04  0.12499490233E+03 0.  0.
    9000005    1    3    3    0    0 -0.55763952094E+02 -0.27811640767E+02  0.10300567489E+04  0.10319404109E+04  0.10000000000E+01 0.  0.
    9000005    1    3    3    0    0  0.55763952094E+02  0.27811640767E+02  0.88648726816E+03  0.88867529634E+03  0.10000000000E+01 0.  0.
<mgrwt>
<rscale>  0 0.12499490E+03</rscale>
<asrwt>0</asrwt>
<pdfrwt beam="2">  1        4 0.31320707E-03 0.12499490E+03</pdfrwt>
<pdfrwt beam="1">  1       -4 0.29516601E+00 0.12499490E+03</pdfrwt>
<totfact> 0.10934407E+03</totfact>
</mgrwt>
</event>
<event>
 5    1  0.3309811E-002  0.1249988E+03  0.7818608E-02  0.1235071E+00
          4   -1    0    0  501    0  0.00000000000E+00  0.00000000000E+00  0.16973126518E+02  0.17020573545E+02  0.12700000000E+01 0. -1.
         -4   -1    0    0    0  501 -0.00000000000E+00 -0.00000000000E+00 -0.22976820568E+03  0.22977171550E+03  0.12700000000E+01 0. -1.
         25    2    1    2    0    0  0.00000000000E+00  0.00000000000E+00 -0.21279507916E+03  0.24679228904E+03  0.12499875285E+03 0.  0.
    9000005    1    3    3    0    0  0.18735476312E+02  0.38975348085E+02 -0.17330658153E+02  0.46598793364E+02  0.10000000000E+01 0.  0.
    9000005    1    3    3    0    0 -0.18735476312E+02 -0.38975348085E+02 -0.19546442101E+03  0.20019349568E+03  0.10000000000E+01 0.  0.
<mgrwt>
<rscale>  0 0.12499875E+03</rscale>
<asrwt>0</asrwt>
<pdfrwt beam="1">  1        4 0.26151702E-02 0.12499875E+03</pdfrwt>
<pdfrwt beam="2">  1       -4 0.35352872E-01 0.12499875E+03</pdfrwt>
<totfact> 0.82798365E+03</totfact>
</mgrwt>
</event>
<event>
 5    1  0.3309811E-002  0.1250142E+03  0.7818608E-02  0.1235047E+00
         -4   -1    0    0    0  501 -0.00000000000E+00  0.00000000000E+00  0.51809902378E+03  0.51810058033E+03  0.12700000000E+01 0.  1.
          4   -1    0    0  501    0  0.00000000000E+00 -0.00000000000E+00 -0.74862530013E+01  0.75932130221E+01  0.12700000000E+01 0.  1.
         25    2    1    2    0    0  0.00000000000E+00  0.00000000000E+00  0.51061277078E+03  0.52569379336E+03  0.12501424995E+03 0.  0.
    9000005    1    3    3    0    0  0.29317758108E+02 -0.29244859318E+02  0.58459295183E+02  0.71646925477E+02  0.10000000000E+01 0.  0.
    9000005    1    3    3    0    0 -0.29317758108E+02  0.29244859318E+02  0.45215347560E+03  0.45404686788E+03  0.10000000000E+01 0.  0.
<mgrwt>
<rscale>  0 0.12501425E+03</rscale>
<asrwt>0</asrwt>
<pdfrwt beam="2">  1        4 0.11600786E-02 0.12501425E+03</pdfrwt>
<pdfrwt beam="1">  1       -4 0.79715891E-01 0.12501425E+03</pdfrwt>
<totfact> 0.53907654E+03</totfact>
</mgrwt>
</event>
<event>
 5    1  0.3309811E-002  0.1249972E+03  0.7818608E-02  0.1235074E+00
          4   -1    0    0  501    0  0.00000000000E+00  0.00000000000E+00  0.11269835584E+03  0.11270551144E+03  0.12700000000E+01 0. -1.
         -4   -1    0    0    0  501 -0.00000000000E+00 -0.00000000000E+00 -0.34639645481E+02  0.34662918790E+02  0.12700000000E+01 0. -1.
         25    2    1    2    0    0  0.00000000000E+00  0.00000000000E+00  0.78058710358E+02  0.14736843023E+03  0.12499716783E+03 0.  0.
    9000005    1    3    3    0    0 -0.34265314887E+02 -0.39163732494E+02 -0.17632058314E+01  0.52077045250E+02  0.10000000000E+01 0.  0.
    9000005    1    3    3    0    0  0.34265314887E+02  0.39163732494E+02  0.79821916189E+02  0.95291384979E+02  0.10000000000E+01 0.  0.
<mgrwt>
<rscale>  0 0.12499717E+03</rscale>
<asrwt>0</asrwt>
<pdfrwt beam="1">  1        4 0.17340549E-01 0.12499717E+03</pdfrwt>
<pdfrwt beam="2">  1       -4 0.53315169E-02 0.12499717E+03</pdfrwt>
<totfact> 0.99837237E+03</totfact>
</mgrwt>
</event>
<event>
 5    1  0.3309811E-002  0.1249983E+03  0.7818608E-02  0.1235072E+00
          4   -1    0    0  501    0  0.00000000000E+00  0.00000000000E+00  0.15090711781E+04  0.15090717125E+04  0.12700000000E+01 0. -1.
         -4   -1    0    0    0  501 -0.00000000000E+00 -0.00000000000E+00 -0.24320977926E+01  0.27437200427E+01  0.12700000000E+01 0. -1.
         25    2    1    2    0    0  0.00000000000E+00  0.00000000000E+00  0.15066390803E+04  0.15118154325E+04  0.12499833506E+03 0.  0.
    9000005    1    3    3    0    0  0.46066264271E+02  0.41239289215E+02  0.86308589139E+03  0.86529823505E+03  0.10000000000E+01 0.  0.
    9000005    1    3    3    0    0 -0.46066264271E+02 -0.41239289215E+02  0.64355318890E+03  0.64651719747E+03  0.10000000000E+01 0.  0.
<mgrwt>
<rscale>  0 0.12499834E+03</rscale>
<asrwt>0</asrwt>
<pdfrwt beam="1">  1        4 0.23218918E+00 0.12499834E+03</pdfrwt>
<pdfrwt beam="2">  1       -4 0.39818030E-03 0.12499834E+03</pdfrwt>
<totfact> 0.17699908E+03</totfact>
</mgrwt>
</event>
<event>
 5    1  0.3309811E-002  0.1250022E+03  0.7818608E-02  0.1235066E+00
          4   -1    0    0  501    0  0.00000000000E+00  0.00000000000E+00  0.10298282458E+02  0.10376296140E+02  0.12700000000E+01 0. -1.
         -4   -1    0    0    0  501 -0.00000000000E+00 -0.00000000000E+00 -0.37781379958E+03  0.37781593409E+03  0.12700000000E+01 0. -1.
         25    2    1    2    0    0  0.00000000000E+00  0.00000000000E+00 -0.36751551712E+03  0.38819223023E+03  0.12500220913E+03 0.  0.
    9000005    1    3    3    0    0 -0.79591768363E+01 -0.41567791607E+02 -0.32654779329E+03  0.32928056593E+03  0.10000000000E+01 0.  0.
    9000005    1    3    3    0    0  0.79591768363E+01  0.41567791607E+02 -0.40967723831E+02  0.58911664302E+02  0.10000000000E+01 0.  0.
<mgrwt>
<rscale>  0 0.12500221E+03</rscale>
<asrwt>0</asrwt>
<pdfrwt beam="1">  1        4 0.15905167E-02 0.12500221E+03</pdfrwt>
<pdfrwt beam="2">  1       -4 0.58131355E-01 0.12500221E+03</pdfrwt>
<totfact> 0.65714429E+03</totfact>
</mgrwt>
</event>
<event>
 5    1  0.3309811E-002  0.1249992E+03  0.7818608E-02  0.1235071E+00
          4   -1    0    0  501    0  0.00000000000E+00  0.00000000000E+00  0.87387700359E+02  0.87396928287E+02  0.12700000000E+01 0. -1.
         -4   -1    0    0    0  501 -0.00000000000E+00 -0.00000000000E+00 -0.44679023484E+02  0.44697069697E+02  0.12700000000E+01 0. -1.
         25    2    1    2    0    0  0.00000000000E+00  0.00000000000E+00  0.42708676875E+02  0.13209399798E+03  0.12499917289E+03 0.  0.
    9000005    1    3    3    0    0 -0.33569136634E+02  0.19293453966E+02 -0.30481536820E+02  0.49287405970E+02  0.10000000000E+01 0.  0.
    9000005    1    3    3    0    0  0.33569136634E+02 -0.19293453966E+02  0.73190213695E+02  0.82806592014E+02  0.10000000000E+01 0.  0.
<mgrwt>
<rscale>  0 0.12499917E+03</rscale>
<asrwt>0</asrwt>
<pdfrwt beam="1">  1        4 0.13446360E-01 0.12499917E+03</pdfrwt>
<pdfrwt beam="2">  1       -4 0.68757939E-02 0.12499917E+03</pdfrwt>
<totfact> 0.10299885E+04</totfact>
</mgrwt>
</event>
<event>
 5    1  0.3309811E-002  0.1249925E+03  0.7818608E-02  0.1235081E+00
          4   -1    0    0  501    0  0.00000000000E+00  0.00000000000E+00  0.13791560218E+03  0.13792144947E+03  0.12700000000E+01 0.  1.
         -4   -1    0    0    0  501 -0.00000000000E+00 -0.00000000000E+00 -0.28299384441E+02  0.28327867194E+02  0.12700000000E+01 0.  1.
         25    2    1    2    0    0  0.00000000000E+00  0.00000000000E+00  0.10961621774E+03  0.16624931667E+03  0.12499248018E+03 0.  0.
    9000005    1    3    3    0    0 -0.39102221325E+02 -0.43157074769E+01 -0.97679485243E+01  0.40546539457E+02  0.10000000000E+01 0.  0.
    9000005    1    3    3    0    0  0.39102221325E+02  0.43157074769E+01  0.11938416626E+03  0.12570277721E+03  0.10000000000E+01 0.  0.
<mgrwt>
<rscale>  0 0.12499248E+03</rscale>
<asrwt>0</asrwt>
<pdfrwt beam="1">  1        4 0.21220425E-01 0.12499248E+03</pdfrwt>
<pdfrwt beam="2">  1       -4 0.43563923E-02 0.12499248E+03</pdfrwt>
<totfact> 0.96167556E+03</totfact>
</mgrwt>
</event>
<event>
 5    1  0.3309811E-002  0.1250151E+03  0.7818608E-02  0.1235046E+00
         -4   -1    0    0    0  501 -0.00000000000E+00  0.00000000000E+00  0.11904019361E+03  0.11904696802E+03  0.12700000000E+01 0. -1.
          4   -1    0    0  501    0  0.00000000000E+00 -0.00000000000E+00 -0.32802471621E+02  0.32827047453E+02  0.12700000000E+01 0. -1.
         25    2    1    2    0    0  0.00000000000E+00  0.00000000000E+00  0.86237721989E+02  0.15187401547E+03  0.12501508662E+03 0.  0.
    9000005    1    3    3    0    0 -0.36626845518E+02 -0.23041324242E+02 -0.11667364970E+02  0.44828069787E+02  0.10000000000E+01 0.  0.
    9000005    1    3    3    0    0  0.36626845518E+02  0.23041324242E+02  0.97905086959E+02  0.10704594569E+03  0.10000000000E+01 0.  0.
<mgrwt>
<rscale>  0 0.12501509E+03</rscale>
<asrwt>0</asrwt>
<pdfrwt beam="2">  1        4 0.50489457E-02 0.12501509E+03</pdfrwt>
<pdfrwt beam="1">  1       -4 0.18316287E-01 0.12501509E+03</pdfrwt>
<totfact> 0.98897869E+03</totfact>
</mgrwt>
</event>
<event>
 5    1  0.3309811E-002  0.1250017E+03  0.7818608E-02  0.1235067E+00
         -4   -1    0    0    0  501 -0.00000000000E+00  0.00000000000E+00  0.35608910824E+01  0.37805879570E+01  0.12700000000E+01 0.  1.
          4   -1    0    0  501    0  0.00000000000E+00 -0.00000000000E+00 -0.10639669742E+04  0.10639677322E+04  0.12700000000E+01 0.  1.
         25    2    1    2    0    0  0.00000000000E+00  0.00000000000E+00 -0.10604060831E+04  0.10677483201E+04  0.12500165603E+03 0.  0.
    9000005    1    3    3    0    0 -0.61239196298E+02 -0.11359439803E+02 -0.48658302452E+03  0.49055409059E+03  0.10000000000E+01 0.  0.
    9000005    1    3    3    0    0  0.61239196298E+02  0.11359439803E+02 -0.57382305860E+03  0.57719422954E+03  0.10000000000E+01 0.  0.
<mgrwt>
<rscale>  0 0.12500166E+03</rscale>
<asrwt>0</asrwt>
<pdfrwt beam="2">  1        4 0.16370394E+00 0.12500166E+03</pdfrwt>
<pdfrwt beam="1">  1       -4 0.56478831E-03 0.12500166E+03</pdfrwt>
<totfact> 0.28446028E+03</totfact>
</mgrwt>
</event>
<event>
 5    1  0.3309811E-002  0.1249935E+03  0.7818608E-02  0.1235079E+00
          4   -1    0    0  501    0  0.00000000000E+00  0.00000000000E+00  0.15579227793E+02  0.15630906520E+02  0.12700000000E+01 0. -1.
         -4   -1    0    0    0  501 -0.00000000000E+00 -0.00000000000E+00 -0.25024019210E+03  0.25024341478E+03  0.12700000000E+01 0. -1.
         25    2    1    2    0    0  0.00000000000E+00  0.00000000000E+00 -0.23466096431E+03  0.26587432130E+03  0.12499354607E+03 0.  0.
    9000005    1    3    3    0    0 -0.54030992831E+02  0.31351241810E+02 -0.12075907508E+03  0.13596324049E+03  0.10000000000E+01 0.  0.
    9000005    1    3    3    0    0  0.54030992831E+02 -0.31351241810E+02 -0.11390188922E+03  0.12991108081E+03  0.10000000000E+01 0.  0.
<mgrwt>
<rscale>  0 0.12499355E+03</rscale>
<asrwt>0</asrwt>
<pdfrwt beam="1">  1        4 0.24010276E-02 0.12499355E+03</pdfrwt>
<pdfrwt beam="2">  1       -4 0.38502711E-01 0.12499355E+03</pdfrwt>
<totfact> 0.80100190E+03</totfact>
</mgrwt>
</event>
<event>
 5    1  0.3309811E-002  0.1249666E+03  0.7818608E-02  0.1235121E+00
         -4   -1    0    0    0  501 -0.00000000000E+00  0.00000000000E+00  0.89562458579E+01  0.90458410259E+01  0.12700000000E+01 0. -1.
          4   -1    0    0  501    0  0.00000000000E+00 -0.00000000000E+00 -0.43365528538E+03  0.43365714503E+03  0.12700000000E+01 0. -1.
         25    2    1    2    0    0  0.00000000000E+00  0.00000000000E+00 -0.42469903952E+03  0.44270298606E+03  0.12496663432E+03 0.  0.
    9000005    1    3    3    0    0  0.29590249500E+02 -0.13639320852E+01 -0.17484955181E+02  0.34411725239E+02  0.10000000000E+01 0.  0.
    9000005    1    3    3    0    0 -0.29590249500E+02  0.13639320852E+01 -0.40721408434E+03  0.40829126082E+03  0.10000000000E+01 0.  0.
<mgrwt>
<rscale>  0 0.12496663E+03</rscale>
<asrwt>0</asrwt>
<pdfrwt beam="2">  1        4 0.66723216E-01 0.12496663E+03</pdfrwt>
<pdfrwt beam="1">  1       -4 0.13849193E-02 0.12496663E+03</pdfrwt>
<totfact> 0.60645770E+03</totfact>
</mgrwt>
</event>
<event>
 5    1  0.3309811E-002  0.1249979E+03  0.7818608E-02  0.1235073E+00
         -4   -1    0    0    0  501 -0.00000000000E+00  0.00000000000E+00  0.74232886007E+01  0.75311429179E+01  0.12700000000E+01 0. -1.
          4   -1    0    0  501    0  0.00000000000E+00 -0.00000000000E+00 -0.52229439209E+03  0.52229593614E+03  0.12700000000E+01 0. -1.
         25    2    1    2    0    0  0.00000000000E+00  0.00000000000E+00 -0.51487110349E+03  0.52982707906E+03  0.12499792196E+03 0.  0.
    9000005    1    3    3    0    0 -0.96383552961E+01 -0.57024801464E+02 -0.35777649811E+03  0.36242205848E+03  0.10000000000E+01 0.  0.
    9000005    1    3    3    0    0  0.96383552961E+01  0.57024801464E+02 -0.15709460538E+03  0.16740502058E+03  0.10000000000E+01 0.  0.
<mgrwt>
<rscale>  0 0.12499792E+03</rscale>
<asrwt>0</asrwt>
<pdfrwt beam="2">  1        4 0.80361370E-01 0.12499792E+03</pdfrwt>
<pdfrwt beam="1">  1       -4 0.11504601E-02 0.12499792E+03</pdfrwt>
<totfact> 0.53624668E+03</totfact>
</mgrwt>
</event>
<event>
 5    1  0.3309811E-002  0.1250020E+03  0.7818608E-02  0.1235066E+00
         -4   -1    0    0    0  501 -0.00000000000E+00  0.00000000000E+00  0.35954637967E+02  0.35977060626E+02  0.12700000000E+01 0.  1.
          4   -1    0    0  501    0  0.00000000000E+00 -0.00000000000E+00 -0.10858729632E+03  0.10859472281E+03  0.12700000000E+01 0.  1.
         25    2    1    2    0    0  0.00000000000E+00  0.00000000000E+00 -0.72632658353E+02  0.14457178344E+03  0.12500199001E+03 0.  0.
    9000005    1    3    3    0    0 -0.28064599967E+02  0.25855749265E+02  0.20921301507E+02  0.43529787480E+02  0.10000000000E+01 0.  0.
    9000005    1    3    3    0    0  0.28064599967E+02 -0.25855749265E+02 -0.93553959859E+02  0.10104199596E+03  0.10000000000E+01 0.  0.
<mgrwt>
<rscale>  0 0.12500199E+03</rscale>
<asrwt>0</asrwt>
<pdfrwt beam="2">  1        4 0.16708034E-01 0.12500199E+03</pdfrwt>
<pdfrwt beam="1">  1       -4 0.55337789E-02 0.12500199E+03</pdfrwt>
<totfact> 0.10039246E+04</totfact>
</mgrwt>
</event>
<event>
 5    1  0.3309811E-002  0.1250065E+03  0.7818608E-02  0.1235059E+00
         -4   -1    0    0    0  501 -0.00000000000E+00  0.00000000000E+00  0.10201876721E+04  0.10201884626E+04  0.12700000000E+01 0. -1.
          4   -1    0    0  501    0  0.00000000000E+00 -0.00000000000E+00 -0.37232366272E+01  0.39338773471E+01  0.12700000000E+01 0. -1.
         25    2    1    2    0    0  0.00000000000E+00  0.00000000000E+00  0.10164644354E+04  0.10241223399E+04  0.12500647415E+03 0.  0.
    9000005    1    3    3    0    0  0.60612643604E+02  0.13759920848E+02  0.56159503482E+03  0.56502496504E+03  0.10000000000E+01 0.  0.
    9000005    1    3    3    0    0 -0.60612643604E+02 -0.13759920848E+02  0.45486940062E+03  0.45909737486E+03  0.10000000000E+01 0.  0.
<mgrwt>
<rscale>  0 0.12500647E+03</rscale>
<asrwt>0</asrwt>
<pdfrwt beam="2">  1        4 0.58906839E-03 0.12500647E+03</pdfrwt>
<pdfrwt beam="1">  1       -4 0.15696853E+00 0.12500647E+03</pdfrwt>
<totfact> 0.29812439E+03</totfact>
</mgrwt>
</event>
<event>
 5    1  0.3309811E-002  0.1250046E+03  0.7818608E-02  0.1235062E+00
         -4   -1    0    0    0  501 -0.00000000000E+00  0.00000000000E+00  0.12759773761E+01  0.18002828290E+01  0.12700000000E+01 0. -1.
          4   -1    0    0  501    0  0.00000000000E+00 -0.00000000000E+00 -0.25392710236E+04  0.25392713412E+04  0.12700000000E+01 0. -1.
         25    2    1    2    0    0  0.00000000000E+00  0.00000000000E+00 -0.25379950462E+04  0.25410716240E+04  0.12500457489E+03 0.  0.
    9000005    1    3    3    0    0 -0.12329031865E+02 -0.20344261978E+02 -0.24437353421E+04  0.24438513286E+04  0.10000000000E+01 0.  0.
    9000005    1    3    3    0    0  0.12329031865E+02  0.20344261978E+02 -0.94259704153E+02  0.97220295459E+02  0.10000000000E+01 0.  0.
<mgrwt>
<rscale>  0 0.12500457E+03</rscale>
<asrwt>0</asrwt>
<pdfrwt beam="2">  1        4 0.39069408E+00 0.12500457E+03</pdfrwt>
<pdfrwt beam="1">  1       -4 0.23666186E-03 0.12500457E+03</pdfrwt>
<totfact> 0.43543618E+02</totfact>
</mgrwt>
</event>
<event>
 5    1  0.3309811E-002  0.1250003E+03  0.7818608E-02  0.1235069E+00
         -4   -1    0    0    0  501 -0.00000000000E+00  0.00000000000E+00  0.13174277300E+02  0.13235349726E+02  0.12700000000E+01 0. -1.
          4   -1    0    0  501    0  0.00000000000E+00 -0.00000000000E+00 -0.29575934996E+03  0.29576207666E+03  0.12700000000E+01 0. -1.
         25    2    1    2    0    0  0.00000000000E+00  0.00000000000E+00 -0.28258507266E+03  0.30899742638E+03  0.12500034489E+03 0.  0.
    9000005    1    3    3    0    0  0.10483084202E+02  0.10504791869E+02 -0.29135218326E+03  0.29173162392E+03  0.10000000000E+01 0.  0.
    9000005    1    3    3    0    0 -0.10483084202E+02 -0.10504791869E+02  0.87671105952E+01  0.17265802466E+02  0.10000000000E+01 0.  0.
<mgrwt>
<rscale>  0 0.12500034E+03</rscale>
<asrwt>0</asrwt>
<pdfrwt beam="2">  1        4 0.45506341E-01 0.12500034E+03</pdfrwt>
<pdfrwt beam="1">  1       -4 0.20317197E-02 0.12500034E+03</pdfrwt>
<totfact> 0.74483335E+03</totfact>
</mgrwt>
</event>
<event>
 5    1  0.3309811E-002  0.1250010E+03  0.7818608E-02  0.1235068E+00
          4   -1    0    0  501    0  0.00000000000E+00  0.00000000000E+00  0.11300321926E+03  0.11301035556E+03  0.12700000000E+01 0. -1.
         -4   -1    0    0    0  501 -0.00000000000E+00 -0.00000000000E+00 -0.34548267666E+02  0.34571602490E+02  0.12700000000E+01 0. -1.
         25    2    1    2    0    0  0.00000000000E+00  0.00000000000E+00  0.78454951598E+02  0.14758195805E+03  0.12500101964E+03 0.  0.
    9000005    1    3    3    0    0  0.34728384660E+02 -0.51426457774E+02  0.30505668065E+02  0.69154443418E+02  0.10000000000E+01 0.  0.
    9000005    1    3    3    0    0 -0.34728384660E+02  0.51426457774E+02  0.47949283534E+02  0.78427514634E+02  0.10000000000E+01 0.  0.
<mgrwt>
<rscale>  0 0.12500102E+03</rscale>
<asrwt>0</asrwt>
<pdfrwt beam="1">  1        4 0.17387455E-01 0.12500102E+03</pdfrwt>
<pdfrwt beam="2">  1       -4 0.53174621E-02 0.12500102E+03</pdfrwt>
<totfact> 0.99785610E+03</totfact>
</mgrwt>
</event>
<event>
 5    1  0.3309811E-002  0.1250064E+03  0.7818608E-02  0.1235059E+00
         -4   -1    0    0    0  501 -0.00000000000E+00  0.00000000000E+00  0.29756304794E+03  0.29756575811E+03  0.12700000000E+01 0. -1.
          4   -1    0    0  501    0  0.00000000000E+00 -0.00000000000E+00 -0.13095314329E+02  0.13156753299E+02  0.12700000000E+01 0. -1.
         25    2    1    2    0    0  0.00000000000E+00  0.00000000000E+00  0.28446773361E+03  0.31072251140E+03  0.12500635036E+03 0.  0.
    9000005    1    3    3    0    0 -0.14451759666E+02  0.45794962056E+02  0.24164805640E+03  0.24637535402E+03  0.10000000000E+01 0.  0.
    9000005    1    3    3    0    0  0.14451759666E+02 -0.45794962056E+02  0.42819677205E+02  0.64347157381E+02  0.10000000000E+01 0.  0.
<mgrwt>
<rscale>  0 0.12500635E+03</rscale>
<asrwt>0</asrwt>
<pdfrwt beam="2">  1        4 0.20195984E-02 0.12500635E+03</pdfrwt>
<pdfrwt beam="1">  1       -4 0.45783863E-01 0.12500635E+03</pdfrwt>
<totfact> 0.74262752E+03</totfact>
</mgrwt>
</event>
<event>
 5    1  0.3309811E-002  0.1250024E+03  0.7818608E-02  0.1235065E+00
          4   -1    0    0  501    0  0.00000000000E+00  0.00000000000E+00  0.78796995560E+02  0.78807229422E+02  0.12700000000E+01 0.  1.
         -4   -1    0    0    0  501 -0.00000000000E+00 -0.00000000000E+00 -0.49553938496E+02  0.49570210010E+02  0.12700000000E+01 0.  1.
         25    2    1    2    0    0  0.00000000000E+00  0.00000000000E+00  0.29243057064E+02  0.12837743943E+03  0.12500244225E+03 0.  0.
    9000005    1    3    3    0    0 -0.50379765097E+02 -0.18746397281E+01  0.52547821984E+02  0.72827938325E+02  0.10000000000E+01 0.  0.
    9000005    1    3    3    0    0  0.50379765097E+02  0.18746397281E+01 -0.23304764920E+02  0.55549501108E+02  0.10000000000E+01 0.  0.
<mgrwt>
<rscale>  0 0.12500244E+03</rscale>
<asrwt>0</asrwt>
<pdfrwt beam="1">  1        4 0.12124653E-01 0.12500244E+03</pdfrwt>
<pdfrwt beam="2">  1       -4 0.76257218E-02 0.12500244E+03</pdfrwt>
<totfact> 0.10378772E+04</totfact>
</mgrwt>
</event>
<event>
 5    1  0.3309811E-002  0.1249992E+03  0.7818608E-02  0.1235070E+00
          4   -1    0    0  501    0  0.00000000000E+00  0.00000000000E+00  0.15446167859E+02  0.15498290277E+02  0.12700000000E+01 0.  1.
         -4   -1    0    0    0  501 -0.00000000000E+00 -0.00000000000E+00 -0.25241160822E+03  0.25241480318E+03  0.12700000000E+01 0.  1.
         25    2    1    2    0    0  0.00000000000E+00  0.00000000000E+00 -0.23696544036E+03  0.26791309346E+03  0.12499922288E+03 0.  0.
    9000005    1    3    3    0    0  0.59745668950E+02  0.18296631429E+02 -0.11646100176E+03  0.13216836463E+03  0.10000000000E+01 0.  0.
    9000005    1    3    3    0    0 -0.59745668950E+02 -0.18296631429E+02 -0.12050443861E+03  0.13574472883E+03  0.10000000000E+01 0.  0.
<mgrwt>
<rscale>  0 0.12499922E+03</rscale>
<asrwt>0</asrwt>
<pdfrwt beam="1">  1        4 0.23805889E-02 0.12499922E+03</pdfrwt>
<pdfrwt beam="2">  1       -4 0.38836807E-01 0.12499922E+03</pdfrwt>
<totfact> 0.79809619E+03</totfact>
</mgrwt>
</event>
<event>
 4    1  0.3309811E-002  0.1250719E+03  0.7818608E-02  0.1234957E+00
         -4   -1    0    0    0  501 -0.00000000000E+00  0.00000000000E+00  0.67948933192E+01  0.69125592380E+01  0.12700000000E+01 0.  1.
          4   -1    0    0  501    0  0.00000000000E+00 -0.00000000000E+00 -0.57048258546E+03  0.57048399908E+03  0.12700000000E+01 0.  1.
    9000005    1    1    2    0    0 -0.35165993743E+02 -0.49668793818E+02 -0.34812049565E+03  0.35340135213E+03  0.10000000000E+01 0.  0.
    9000005    1    1    2    0    0  0.35165993743E+02  0.49668793818E+02 -0.21556719649E+03  0.22399520619E+03  0.10000000000E+01 0.  0.
<mgrwt>
<rscale>  0 0.12507186E+03</rscale>
<asrwt>0</asrwt>
<pdfrwt beam="2">  1        4 0.87775674E-01 0.12507186E+03</pdfrwt>
<pdfrwt beam="1">  1       -4 0.10545286E-02 0.12507186E+03</pdfrwt>
<totfact> 0.50246963E+03</totfact>
</mgrwt>
</event>
<event>
 5    1  0.3309811E-002  0.1249991E+03  0.7818608E-02  0.1235071E+00
         -4   -1    0    0    0  501 -0.00000000000E+00  0.00000000000E+00  0.89657583000E+02  0.89666577327E+02  0.12700000000E+01 0. -1.
          4   -1    0    0  501    0  0.00000000000E+00 -0.00000000000E+00 -0.43547500672E+02  0.43566015595E+02  0.12700000000E+01 0. -1.
         25    2    1    2    0    0  0.00000000000E+00  0.00000000000E+00  0.46110082328E+02  0.13323259292E+03  0.12499913649E+03 0.  0.
    9000005    1    3    3    0    0 -0.15997119536E+02  0.42558278797E+02  0.68751842577E+02  0.82431370153E+02  0.10000000000E+01 0.  0.
    9000005    1    3    3    0    0  0.15997119536E+02 -0.42558278797E+02 -0.22641760249E+02  0.50801222768E+02  0.10000000000E+01 0.  0.
<mgrwt>
<rscale>  0 0.12499914E+03</rscale>
<asrwt>0</asrwt>
<pdfrwt beam="2">  1        4 0.67017317E-02 0.12499914E+03</pdfrwt>
<pdfrwt beam="1">  1       -4 0.13795590E-01 0.12499914E+03</pdfrwt>
<totfact> 0.10275659E+04</totfact>
</mgrwt>
</event>
<event>
 5    1  0.3309811E-002  0.1249994E+03  0.7818608E-02  0.1235070E+00
          4   -1    0    0  501    0  0.00000000000E+00  0.00000000000E+00  0.12268032920E+03  0.12268690261E+03  0.12700000000E+01 0.  1.
         -4   -1    0    0    0  501 -0.00000000000E+00 -0.00000000000E+00 -0.31820464948E+02  0.31845798616E+02  0.12700000000E+01 0.  1.
         25    2    1    2    0    0  0.00000000000E+00  0.00000000000E+00  0.90859864249E+02  0.15453270123E+03  0.12499936327E+03 0.  0.
    9000005    1    3    3    0    0 -0.40463469070E+02 -0.44469001496E+02  0.66498265327E+02  0.89653799221E+02  0.10000000000E+01 0.  0.
    9000005    1    3    3    0    0  0.40463469070E+02  0.44469001496E+02  0.24361598923E+02  0.64878902005E+02  0.10000000000E+01 0.  0.
<mgrwt>
<rscale>  0 0.12499936E+03</rscale>
<asrwt>0</asrwt>
<pdfrwt beam="1">  1        4 0.18876352E-01 0.12499936E+03</pdfrwt>
<pdfrwt beam="2">  1       -4 0.48979104E-02 0.12499936E+03</pdfrwt>
<totfact> 0.98408722E+03</totfact>
</mgrwt>
</event>
<event>
 5    1  0.3309811E-002  0.1249993E+03  0.7818608E-02  0.1235070E+00
          4   -1    0    0  501    0  0.00000000000E+00  0.00000000000E+00  0.11278906874E+04  0.11278914024E+04  0.12700000000E+01 0.  1.
         -4   -1    0    0    0  501 -0.00000000000E+00 -0.00000000000E+00 -0.33461152935E+01  0.35790204745E+01  0.12700000000E+01 0.  1.
         25    2    1    2    0    0  0.00000000000E+00  0.00000000000E+00  0.11245445721E+04  0.11314704229E+04  0.12499929281E+03 0.  0.
    9000005    1    3    3    0    0 -0.18069571348E+02  0.48081536040E+02  0.24009096848E+03  0.24552599997E+03  0.10000000000E+01 0.  0.
    9000005    1    3    3    0    0  0.18069571348E+02 -0.48081536040E+02  0.88445360366E+03  0.88594442294E+03  0.10000000000E+01 0.  0.
<mgrwt>
<rscale>  0 0.12499929E+03</rscale>
<asrwt>0</asrwt>
<pdfrwt beam="1">  1        4 0.17353984E+00 0.12499929E+03</pdfrwt>
<pdfrwt beam="2">  1       -4 0.53275706E-03 0.12499929E+03</pdfrwt>
<totfact> 0.26580371E+03</totfact>
</mgrwt>
</event>
<event>
 5    1  0.3309811E-002  0.1249992E+03  0.7818608E-02  0.1235070E+00
          4   -1    0    0  501    0  0.00000000000E+00  0.00000000000E+00  0.20878433916E+03  0.20878820172E+03  0.12700000000E+01 0.  1.
         -4   -1    0    0    0  501 -0.00000000000E+00 -0.00000000000E+00 -0.18683673657E+02  0.18726787266E+02  0.12700000000E+01 0.  1.
         25    2    1    2    0    0  0.00000000000E+00  0.00000000000E+00  0.19010066550E+03  0.22751498898E+03  0.12499922875E+03 0.  0.
    9000005    1    3    3    0    0 -0.20202176583E+02  0.13452107838E+02  0.19986388724E+03  0.20133469787E+03  0.10000000000E+01 0.  0.
    9000005    1    3    3    0    0  0.20202176583E+02 -0.13452107838E+02 -0.97632217418E+01  0.26180291113E+02  0.10000000000E+01 0.  0.
<mgrwt>
<rscale>  0 0.12499923E+03</rscale>
<asrwt>0</asrwt>
<pdfrwt beam="1">  1        4 0.32124281E-01 0.12499923E+03</pdfrwt>
<pdfrwt beam="2">  1       -4 0.28780249E-02 0.12499923E+03</pdfrwt>
<totfact> 0.85694113E+03</totfact>
</mgrwt>
</event>
<event>
 5    1  0.3309811E-002  0.1250026E+03  0.7818608E-02  0.1235065E+00
          4   -1    0    0  501    0  0.00000000000E+00  0.00000000000E+00  0.26662163307E+02  0.26692393153E+02  0.12700000000E+01 0.  1.
         -4   -1    0    0    0  501 -0.00000000000E+00 -0.00000000000E+00 -0.14639916950E+03  0.14640467797E+03  0.12700000000E+01 0.  1.
         25    2    1    2    0    0  0.00000000000E+00  0.00000000000E+00 -0.11973700620E+03  0.17309707112E+03  0.12500258149E+03 0.  0.
    9000005    1    3    3    0    0  0.47122967753E+02 -0.38273372598E+02 -0.39330015451E+02  0.72341379965E+02  0.10000000000E+01 0.  0.
    9000005    1    3    3    0    0 -0.47122967753E+02  0.38273372598E+02 -0.80406990744E+02  0.10075569116E+03  0.10000000000E+01 0.  0.
<mgrwt>
<rscale>  0 0.12500258E+03</rscale>
<asrwt>0</asrwt>
<pdfrwt beam="1">  1        4 0.41046205E-02 0.12500258E+03</pdfrwt>
<pdfrwt beam="2">  1       -4 0.22525698E-01 0.12500258E+03</pdfrwt>
<totfact> 0.94869022E+03</totfact>
</mgrwt>
</event>
<event>
 5    1  0.3309811E-002  0.1249958E+03  0.7818608E-02  0.1235076E+00
          4   -1    0    0  501    0  0.00000000000E+00  0.00000000000E+00  0.18163023931E+03  0.18163467932E+03  0.12700000000E+01 0. -1.
         -4   -1    0    0    0  501 -0.00000000000E+00 -0.00000000000E+00 -0.21481692465E+02  0.21519200988E+02  0.12700000000E+01 0. -1.
         25    2    1    2    0    0  0.00000000000E+00  0.00000000000E+00  0.16014854684E+03  0.20315388031E+03  0.12499576804E+03 0.  0.
    9000005    1    3    3    0    0 -0.30382803856E+02 -0.40292373845E+02  0.20172055176E+02  0.54355330652E+02  0.10000000000E+01 0.  0.
    9000005    1    3    3    0    0  0.30382803856E+02  0.40292373845E+02  0.13997649167E+03  0.14879854966E+03  0.10000000000E+01 0.  0.
<mgrwt>
<rscale>  0 0.12499577E+03</rscale>
<asrwt>0</asrwt>
<pdfrwt beam="1">  1        4 0.27946340E-01 0.12499577E+03</pdfrwt>
<pdfrwt beam="2">  1       -4 0.33081026E-02 0.12499577E+03</pdfrwt>
<totfact> 0.89614775E+03</totfact>
</mgrwt>
</event>
<event>
 5    1  0.3309811E-002  0.1249981E+03  0.7818608E-02  0.1235072E+00
          4   -1    0    0  501    0  0.00000000000E+00  0.00000000000E+00  0.21364980055E+02  0.21402693119E+02  0.12700000000E+01 0.  1.
         -4   -1    0    0    0  501 -0.00000000000E+00 -0.00000000000E+00 -0.18262768466E+03  0.18263210042E+03  0.12700000000E+01 0.  1.
         25    2    1    2    0    0  0.00000000000E+00  0.00000000000E+00 -0.16126270461E+03  0.20403479354E+03  0.12499814830E+03 0.  0.
    9000005    1    3    3    0    0  0.11478828922E+02 -0.56472174460E+02 -0.12008664930E+03  0.13320162665E+03  0.10000000000E+01 0.  0.
    9000005    1    3    3    0    0 -0.11478828922E+02  0.56472174460E+02 -0.41176055307E+02  0.70833166894E+02  0.10000000000E+01 0.  0.
<mgrwt>
<rscale>  0 0.12499815E+03</rscale>
<asrwt>0</asrwt>
<pdfrwt beam="1">  1        4 0.32901608E-02 0.12499815E+03</pdfrwt>
<pdfrwt beam="2">  1       -4 0.28099806E-01 0.12499815E+03</pdfrwt>
<totfact> 0.89463145E+03</totfact>
</mgrwt>
</event>
<event>
 5    1  0.3309811E-002  0.1249799E+03  0.7818608E-02  0.1235101E+00
          4   -1    0    0  501    0  0.00000000000E+00  0.00000000000E+00  0.47063495494E+02  0.47080627737E+02  0.12700000000E+01 0.  1.
         -4   -1    0    0    0  501 -0.00000000000E+00 -0.00000000000E+00 -0.82935831647E+02  0.82945554860E+02  0.12700000000E+01 0.  1.
         25    2    1    2    0    0  0.00000000000E+00  0.00000000000E+00 -0.35872336154E+02  0.13002618260E+03  0.12497993303E+03 0.  0.
    9000005    1    3    3    0    0  0.35663078107E+02  0.42712968392E+02  0.11632186315E+02  0.56855611573E+02  0.10000000000E+01 0.  0.
    9000005    1    3    3    0    0 -0.35663078107E+02 -0.42712968392E+02 -0.47504522468E+02  0.73170571023E+02  0.10000000000E+01 0.  0.
<mgrwt>
<rscale>  0 0.12497993E+03</rscale>
<asrwt>0</asrwt>
<pdfrwt beam="1">  1        4 0.72426036E-02 0.12497993E+03</pdfrwt>
<pdfrwt beam="2">  1       -4 0.12761425E-01 0.12497993E+03</pdfrwt>
<totfact> 0.10348634E+04</totfact>
</mgrwt>
</event>
<event>
 5    1  0.3309811E-002  0.1250057E+03  0.7818608E-02  0.1235060E+00
          4   -1    0    0  501    0  0.00000000000E+00  0.00000000000E+00  0.67417499058E+01  0.68603273823E+01  0.12700000000E+01 0.  1.
         -4   -1    0    0    0  501 -0.00000000000E+00 -0.00000000000E+00 -0.57429423195E+03  0.57429563619E+03  0.12700000000E+01 0.  1.
         25    2    1    2    0    0  0.00000000000E+00  0.00000000000E+00 -0.56755248204E+03  0.58115596357E+03  0.12500573637E+03 0.  0.
    9000005    1    3    3    0    0  0.14159164437E+02 -0.11087360620E+02 -0.56202772589E+03  0.56231625992E+03  0.10000000000E+01 0.  0.
    9000005    1    3    3    0    0 -0.14159164437E+02  0.11087360620E+02 -0.55247561488E+01  0.18839703649E+02  0.10000000000E+01 0.  0.
<mgrwt>
<rscale>  0 0.12500574E+03</rscale>
<asrwt>0</asrwt>
<pdfrwt beam="1">  1        4 0.10464221E-02 0.12500574E+03</pdfrwt>
<pdfrwt beam="2">  1       -4 0.88362150E-01 0.12500574E+03</pdfrwt>
<totfact> 0.50072836E+03</totfact>
</mgrwt>
</event>
<event>
 5    1  0.3309811E-002  0.1249933E+03  0.7818608E-02  0.1235080E+00
          4   -1    0    0  501    0  0.00000000000E+00  0.00000000000E+00  0.61554964283E+03  0.61555095296E+03  0.12700000000E+01 0.  1.
         -4   -1    0    0    0  501 -0.00000000000E+00 -0.00000000000E+00 -0.62803962204E+01  0.64075172013E+01  0.12700000000E+01 0.  1.
         25    2    1    2    0    0  0.00000000000E+00  0.00000000000E+00  0.60926924661E+03  0.62195847016E+03  0.12499329478E+03 0.  0.
    9000005    1    3    3    0    0  0.27281567280E+02 -0.28334178793E+01  0.58401989692E+03  0.58466447829E+03  0.10000000000E+01 0.  0.
    9000005    1    3    3    0    0 -0.27281567280E+02  0.28334178793E+01  0.25249349687E+02  0.37293991872E+02  0.10000000000E+01 0.  0.
<mgrwt>
<rscale>  0 0.12499329E+03</rscale>
<asrwt>0</asrwt>
<pdfrwt beam="1">  1        4 0.94709810E-01 0.12499329E+03</pdfrwt>
<pdfrwt beam="2">  1       -4 0.97609427E-03 0.12499329E+03</pdfrwt>
<totfact> 0.47517217E+03</totfact>
</mgrwt>
</event>
<event>
 5    1  0.3309811E-002  0.1249912E+03  0.7818608E-02  0.1235083E+00
          4   -1    0    0  501    0  0.00000000000E+00  0.00000000000E+00  0.40703822955E+02  0.40723630771E+02  0.12700000000E+01 0. -1.
         -4   -1    0    0    0  501 -0.00000000000E+00 -0.00000000000E+00 -0.95906795031E+02  0.95915203348E+02  0.12700000000E+01 0. -1.
         25    2    1    2    0    0  0.00000000000E+00  0.00000000000E+00 -0.55202972076E+02  0.13663883412E+03  0.12499121114E+03 0.  0.
    9000005    1    3    3    0    0  0.35153355947E+02  0.48247014968E+02 -0.74095153643E+01  0.60161730407E+02  0.10000000000E+01 0.  0.
    9000005    1    3    3    0    0 -0.35153355947E+02 -0.48247014968E+02 -0.47793456712E+02  0.76477103712E+02  0.10000000000E+01 0.  0.
<mgrwt>
<rscale>  0 0.12499121E+03</rscale>
<asrwt>0</asrwt>
<pdfrwt beam="1">  1        4 0.62642971E-02 0.12499121E+03</pdfrwt>
<pdfrwt beam="2">  1       -4 0.14757062E-01 0.12499121E+03</pdfrwt>
<totfact> 0.10205665E+04</totfact>
</mgrwt>
</event>
<event>
 5    1  0.3309811E-002  0.1250041E+03  0.7818608E-02  0.1235063E+00
          4   -1    0    0  501    0  0.00000000000E+00  0.00000000000E+00  0.59175382677E+01  0.60522854485E+01  0.12700000000E+01 0.  1.
         -4   -1    0    0    0  501 -0.00000000000E+00 -0.00000000000E+00 -0.65259041022E+03  0.65259164598E+03  0.12700000000E+01 0.  1.
         25    2    1    2    0    0  0.00000000000E+00  0.00000000000E+00 -0.64667287195E+03  0.65864393143E+03  0.12500410032E+03 0.  0.
    9000005    1    3    3    0    0 -0.58407037504E+02  0.13693636907E+02 -0.23107534870E+03  0.23873775257E+03  0.10000000000E+01 0.  0.
    9000005    1    3    3    0    0  0.58407037504E+02 -0.13693636907E+02 -0.41559752324E+03  0.41990617886E+03  0.10000000000E+01 0.  0.
<mgrwt>
<rscale>  0 0.12500410E+03</rscale>
<asrwt>0</asrwt>
<pdfrwt beam="1">  1        4 0.92085125E-03 0.12500410E+03</pdfrwt>
<pdfrwt beam="2">  1       -4 0.10040893E+00 0.12500410E+03</pdfrwt>
<totfact> 0.45357326E+03</totfact>
</mgrwt>
</event>
<event>
 5    1  0.3309811E-002  0.1249999E+03  0.7818608E-02  0.1235069E+00
         -4   -1    0    0    0  501 -0.00000000000E+00  0.00000000000E+00  0.43351187054E+03  0.43351373081E+03  0.12700000000E+01 0.  1.
          4   -1    0    0  501    0  0.00000000000E+00 -0.00000000000E+00 -0.89640530527E+01  0.90535709602E+01  0.12700000000E+01 0.  1.
         25    2    1    2    0    0  0.00000000000E+00  0.00000000000E+00  0.42454781749E+03  0.44256730177E+03  0.12499986905E+03 0.  0.
    9000005    1    3    3    0    0 -0.21011903018E+02 -0.34817629649E+01  0.42028246318E+03  0.42082296942E+03  0.10000000000E+01 0.  0.
    9000005    1    3    3    0    0  0.21011903018E+02  0.34817629649E+01  0.42653543145E+01  0.21744332347E+02  0.10000000000E+01 0.  0.
<mgrwt>
<rscale>  0 0.12499987E+03</rscale>
<asrwt>0</asrwt>
<pdfrwt beam="2">  1        4 0.13861142E-02 0.12499987E+03</pdfrwt>
<pdfrwt beam="1">  1       -4 0.66701160E-01 0.12499987E+03</pdfrwt>
<totfact> 0.60613304E+03</totfact>
</mgrwt>
</event>
<event>
 5    1  0.3309811E-002  0.1250051E+03  0.7818608E-02  0.1235061E+00
          4   -1    0    0  501    0  0.00000000000E+00  0.00000000000E+00  0.12306568699E+02  0.12371925200E+02  0.12700000000E+01 0. -1.
         -4   -1    0    0    0  501 -0.00000000000E+00 -0.00000000000E+00 -0.31653050965E+03  0.31653305742E+03  0.12700000000E+01 0. -1.
         25    2    1    2    0    0  0.00000000000E+00  0.00000000000E+00 -0.30422394095E+03  0.32890498262E+03  0.12500512527E+03 0.  0.
    9000005    1    3    3    0    0 -0.19071919188E+02  0.16041135727E+02 -0.30290393696E+03  0.30392902323E+03  0.10000000000E+01 0.  0.
    9000005    1    3    3    0    0  0.19071919188E+02 -0.16041135727E+02 -0.13200039934E+01  0.24975959390E+02  0.10000000000E+01 0.  0.
<mgrwt>
<rscale>  0 0.12500513E+03</rscale>
<asrwt>0</asrwt>
<pdfrwt beam="1">  1        4 0.18985419E-02 0.12500513E+03</pdfrwt>
<pdfrwt beam="2">  1       -4 0.48702219E-01 0.12500513E+03</pdfrwt>
<totfact> 0.72101180E+03</totfact>
</mgrwt>
</event>
<event>
 5    1  0.3309811E-002  0.1249992E+03  0.7818608E-02  0.1235071E+00
          4   -1    0    0  501    0  0.00000000000E+00  0.00000000000E+00  0.51480508078E+02  0.51496170847E+02  0.12700000000E+01 0. -1.
         -4   -1    0    0    0  501 -0.00000000000E+00 -0.00000000000E+00 -0.75844732807E+02  0.75855364969E+02  0.12700000000E+01 0. -1.
         25    2    1    2    0    0  0.00000000000E+00  0.00000000000E+00 -0.24364224729E+02  0.12735153582E+03  0.12499919291E+03 0.  0.
    9000005    1    3    3    0    0 -0.41355654988E+02 -0.42595883567E+02  0.76913869000E+01  0.59873674756E+02  0.10000000000E+01 0.  0.
    9000005    1    3    3    0    0  0.41355654988E+02  0.42595883567E+02 -0.32055611629E+02  0.67477861060E+02  0.10000000000E+01 0.  0.
<mgrwt>
<rscale>  0 0.12499919E+03</rscale>
<asrwt>0</asrwt>
<pdfrwt beam="1">  1        4 0.79221009E-02 0.12499919E+03</pdfrwt>
<pdfrwt beam="2">  1       -4 0.11670443E-01 0.12499919E+03</pdfrwt>
<totfact> 0.10401707E+04</totfact>
</mgrwt>
</event>
<event>
 5    1  0.3309811E-002  0.1249998E+03  0.7818608E-02  0.1235070E+00
         -4   -1    0    0    0  501 -0.00000000000E+00  0.00000000000E+00  0.34535671049E+02  0.34559014378E+02  0.12700000000E+01 0. -1.
          4   -1    0    0  501    0  0.00000000000E+00 -0.00000000000E+00 -0.11304229433E+03  0.11304942816E+03  0.12700000000E+01 0. -1.
         25    2    1    2    0    0  0.00000000000E+00  0.00000000000E+00 -0.78506623284E+02  0.14760844254E+03  0.12499984964E+03 0.  0.
    9000005    1    3    3    0    0 -0.25817953700E+01  0.24041705643E+02  0.28793552160E+02  0.37613002054E+02  0.10000000000E+01 0.  0.
    9000005    1    3    3    0    0  0.25817953700E+01 -0.24041705643E+02 -0.10730017544E+03  0.10999544049E+03  0.10000000000E+01 0.  0.
<mgrwt>
<rscale>  0 0.12499985E+03</rscale>
<asrwt>0</asrwt>
<pdfrwt beam="2">  1        4 0.17393466E-01 0.12499985E+03</pdfrwt>
<pdfrwt beam="1">  1       -4 0.53155246E-02 0.12499985E+03</pdfrwt>
<totfact> 0.99782911E+03</totfact>
</mgrwt>
</event>
<event>
 5    1  0.3309811E-002  0.1249621E+03  0.7818608E-02  0.1235129E+00
         -4   -1    0    0    0  501 -0.00000000000E+00  0.00000000000E+00  0.73380617977E+02  0.73391607114E+02  0.12700000000E+01 0.  1.
          4   -1    0    0  501    0  0.00000000000E+00 -0.00000000000E+00 -0.53177856534E+02  0.53193019519E+02  0.12700000000E+01 0.  1.
         25    2    1    2    0    0  0.00000000000E+00  0.00000000000E+00  0.20202761443E+02  0.12658462663E+03  0.12496205876E+03 0.  0.
    9000005    1    3    3    0    0  0.19900107678E+02 -0.36408975680E+02 -0.37208912377E+02  0.55741644719E+02  0.10000000000E+01 0.  0.
    9000005    1    3    3    0    0 -0.19900107678E+02  0.36408975680E+02  0.57411673820E+02  0.70842981914E+02  0.10000000000E+01 0.  0.
<mgrwt>
<rscale>  0 0.12496206E+03</rscale>
<asrwt>0</asrwt>
<pdfrwt beam="2">  1        4 0.81832204E-02 0.12496206E+03</pdfrwt>
<pdfrwt beam="1">  1       -4 0.11291338E-01 0.12496206E+03</pdfrwt>
<totfact> 0.10427110E+04</totfact>
</mgrwt>
</event>
<event>
 5    1  0.3309811E-002  0.1250021E+03  0.7818608E-02  0.1235066E+00
         -4   -1    0    0    0  501 -0.00000000000E+00  0.00000000000E+00  0.13206110384E+02  0.13267036273E+02  0.12700000000E+01 0. -1.
          4   -1    0    0  501    0  0.00000000000E+00 -0.00000000000E+00 -0.29505790719E+03  0.29506064036E+03  0.12700000000E+01 0. -1.
         25    2    1    2    0    0  0.00000000000E+00  0.00000000000E+00 -0.28185179680E+03  0.30832767664E+03  0.12500208327E+03 0.  0.
    9000005    1    3    3    0    0 -0.18663061802E+01 -0.44348936985E+02 -0.32422466378E+02  0.54977519374E+02  0.10000000000E+01 0.  0.
    9000005    1    3    3    0    0  0.18663061802E+01  0.44348936985E+02 -0.24942933042E+03  0.25335015726E+03  0.10000000000E+01 0.  0.
<mgrwt>
<rscale>  0 0.12500208E+03</rscale>
<asrwt>0</asrwt>
<pdfrwt beam="2">  1        4 0.45398416E-01 0.12500208E+03</pdfrwt>
<pdfrwt beam="1">  1       -4 0.20366064E-02 0.12500208E+03</pdfrwt>
<totfact> 0.74562520E+03</totfact>
</mgrwt>
</event>
<event>
 5    1  0.3309811E-002  0.1249992E+03  0.7818608E-02  0.1235071E+00
          4   -1    0    0  501    0  0.00000000000E+00  0.00000000000E+00  0.77666745897E+02  0.77677128669E+02  0.12700000000E+01 0. -1.
         -4   -1    0    0    0  501 -0.00000000000E+00 -0.00000000000E+00 -0.50272569967E+02  0.50288608960E+02  0.12700000000E+01 0. -1.
         25    2    1    2    0    0  0.00000000000E+00  0.00000000000E+00  0.27394175930E+02  0.12796573763E+03  0.12499915653E+03 0.  0.
    9000005    1    3    3    0    0  0.15221554874E+02  0.28308834243E+01 -0.48283044801E+02  0.50714515171E+02  0.10000000000E+01 0.  0.
    9000005    1    3    3    0    0 -0.15221554874E+02 -0.28308834243E+01  0.75677220731E+02  0.77251222458E+02  0.10000000000E+01 0.  0.
<mgrwt>
<rscale>  0 0.12499916E+03</rscale>
<asrwt>0</asrwt>
<pdfrwt beam="1">  1        4 0.11950763E-01 0.12499916E+03</pdfrwt>
<pdfrwt beam="2">  1       -4 0.77362740E-02 0.12499916E+03</pdfrwt>
<totfact> 0.10388425E+04</totfact>
</mgrwt>
</event>
<event>
 5    1  0.3309811E-002  0.1250034E+03  0.7818608E-02  0.1235064E+00
         -4   -1    0    0    0  501 -0.00000000000E+00  0.00000000000E+00  0.15618465753E+03  0.15618982088E+03  0.12700000000E+01 0.  1.
          4   -1    0    0  501    0  0.00000000000E+00 -0.00000000000E+00 -0.24990129719E+02  0.25022379651E+02  0.12700000000E+01 0.  1.
         25    2    1    2    0    0  0.00000000000E+00  0.00000000000E+00  0.13119452781E+03  0.18121220053E+03  0.12500342993E+03 0.  0.
    9000005    1    3    3    0    0 -0.18242405938E+02  0.10192630989E+02  0.15097693222E+03  0.15241951700E+03  0.10000000000E+01 0.  0.
    9000005    1    3    3    0    0  0.18242405938E+02 -0.10192630989E+02 -0.19782404408E+02  0.28792683533E+02  0.10000000000E+01 0.  0.
<mgrwt>
<rscale>  0 0.12500343E+03</rscale>
<asrwt>0</asrwt>
<pdfrwt beam="2">  1        4 0.38475134E-02 0.12500343E+03</pdfrwt>
<pdfrwt beam="1">  1       -4 0.24031286E-01 0.12500343E+03</pdfrwt>
<totfact> 0.93392076E+03</totfact>
</mgrwt>
</event>
<event>
 5    1  0.3309811E-002  0.1250001E+03  0.7818608E-02  0.1235069E+00
          4   -1    0    0  501    0  0.00000000000E+00  0.00000000000E+00  0.12065593412E+03  0.12066261782E+03  0.12700000000E+01 0. -1.
         -4   -1    0    0    0  501 -0.00000000000E+00 -0.00000000000E+00 -0.32355106679E+02  0.32380022054E+02  0.12700000000E+01 0. -1.
         25    2    1    2    0    0  0.00000000000E+00  0.00000000000E+00  0.88300827441E+02  0.15304263987E+03  0.12500005397E+03 0.  0.
    9000005    1    3    3    0    0  0.26133472295E+02  0.50506935031E+02  0.75873466190E+02  0.94824531279E+02  0.10000000000E+01 0.  0.
    9000005    1    3    3    0    0 -0.26133472295E+02 -0.50506935031E+02  0.12427361250E+02  0.58218108593E+02  0.10000000000E+01 0.  0.
<mgrwt>
<rscale>  0 0.12500005E+03</rscale>
<asrwt>0</asrwt>
<pdfrwt beam="1">  1        4 0.18564882E-01 0.12500005E+03</pdfrwt>
<pdfrwt beam="2">  1       -4 0.49801395E-02 0.12500005E+03</pdfrwt>
<totfact> 0.98700495E+03</totfact>
</mgrwt>
</event>
<event>
 5    1  0.3309811E-002  0.1249947E+03  0.7818608E-02  0.1235078E+00
          4   -1    0    0  501    0  0.00000000000E+00  0.00000000000E+00  0.24396236173E+02  0.24429270137E+02  0.12700000000E+01 0. -1.
         -4   -1    0    0    0  501 -0.00000000000E+00 -0.00000000000E+00 -0.15995933971E+03  0.15996438122E+03  0.12700000000E+01 0. -1.
         25    2    1    2    0    0  0.00000000000E+00  0.00000000000E+00 -0.13556310354E+03  0.18439365136E+03  0.12499465437E+03 0.  0.
    9000005    1    3    3    0    0  0.52977327661E+02 -0.17161380929E+02 -0.10960598412E+03  0.12294544317E+03  0.10000000000E+01 0.  0.
    9000005    1    3    3    0    0 -0.52977327661E+02  0.17161380929E+02 -0.25957119419E+02  0.61448208193E+02  0.10000000000E+01 0.  0.
<mgrwt>
<rscale>  0 0.12499465E+03</rscale>
<asrwt>0</asrwt>
<pdfrwt beam="1">  1        4 0.37561961E-02 0.12499465E+03</pdfrwt>
<pdfrwt beam="2">  1       -4 0.24612057E-01 0.12499465E+03</pdfrwt>
<totfact> 0.92843180E+03</totfact>
</mgrwt>
</event>
<event>
 5    1  0.3309811E-002  0.1250020E+03  0.7818608E-02  0.1235066E+00
         -4   -1    0    0    0  501 -0.00000000000E+00  0.00000000000E+00  0.16160933937E+03  0.16161432941E+03  0.12700000000E+01 0.  1.
          4   -1    0    0  501    0  0.00000000000E+00 -0.00000000000E+00 -0.24149669555E+02  0.24183040330E+02  0.12700000000E+01 0.  1.
         25    2    1    2    0    0  0.00000000000E+00  0.00000000000E+00  0.13745966981E+03  0.18579736974E+03  0.12500200709E+03 0.  0.
    9000005    1    3    3    0    0 -0.47249681201E+02 -0.40401395059E+02  0.78197152403E+02  0.99902951609E+02  0.10000000000E+01 0.  0.
    9000005    1    3    3    0    0  0.47249681201E+02  0.40401395059E+02  0.59262517409E+02  0.85894418130E+02  0.10000000000E+01 0.  0.
<mgrwt>
<rscale>  0 0.12500201E+03</rscale>
<asrwt>0</asrwt>
<pdfrwt beam="2">  1        4 0.37182845E-02 0.12500201E+03</pdfrwt>
<pdfrwt beam="1">  1       -4 0.24865927E-01 0.12500201E+03</pdfrwt>
<totfact> 0.92579579E+03</totfact>
</mgrwt>
</event>
<event>
 5    1  0.3309811E-002  0.1250081E+03  0.7818608E-02  0.1235057E+00
          4   -1    0    0  501    0  0.00000000000E+00  0.00000000000E+00  0.34050032860E+01  0.36341364005E+01  0.12700000000E+01 0. -1.
         -4   -1    0    0    0  501 -0.00000000000E+00 -0.00000000000E+00 -0.11097793146E+04  0.11097800413E+04  0.12700000000E+01 0. -1.
         25    2    1    2    0    0  0.00000000000E+00  0.00000000000E+00 -0.11063743113E+04  0.11134141777E+04  0.12500805700E+03 0.  0.
    9000005    1    3    3    0    0 -0.10562567716E+02  0.18747345484E+02 -0.10757875928E+04  0.10760032414E+04  0.10000000000E+01 0.  0.
    9000005    1    3    3    0    0  0.10562567716E+02 -0.18747345484E+02 -0.30586718511E+02  0.37410936218E+02  0.10000000000E+01 0.  0.
<mgrwt>
<rscale>  0 0.12500806E+03</rscale>
<asrwt>0</asrwt>
<pdfrwt beam="1">  1        4 0.54152907E-03 0.12500806E+03</pdfrwt>
<pdfrwt beam="2">  1       -4 0.17075268E+00 0.12500806E+03</pdfrwt>
<totfact> 0.27089373E+03</totfact>
</mgrwt>
</event>
<event>
 5    1  0.3309811E-002  0.1249879E+03  0.7818608E-02  0.1235088E+00
          4   -1    0    0  501    0  0.00000000000E+00  0.00000000000E+00  0.73416606702E+01  0.74506967054E+01  0.12700000000E+01 0. -1.
         -4   -1    0    0    0  501 -0.00000000000E+00 -0.00000000000E+00 -0.52793258944E+03  0.52793411700E+03  0.12700000000E+01 0. -1.
         25    2    1    2    0    0  0.00000000000E+00  0.00000000000E+00 -0.52059092877E+03  0.53538481370E+03  0.12498793393E+03 0.  0.
    9000005    1    3    3    0    0 -0.46307939993E+02  0.40502025518E+02 -0.30715156685E+03  0.31325376996E+03  0.10000000000E+01 0.  0.
    9000005    1    3    3    0    0  0.46307939993E+02 -0.40502025518E+02 -0.21343936191E+03  0.22213104374E+03  0.10000000000E+01 0.  0.
<mgrwt>
<rscale>  0 0.12498793E+03</rscale>
<asrwt>0</asrwt>
<pdfrwt beam="1">  1        4 0.11379916E-02 0.12498793E+03</pdfrwt>
<pdfrwt beam="2">  1       -4 0.81228874E-01 0.12498793E+03</pdfrwt>
<totfact> 0.53233912E+03</totfact>
</mgrwt>
</event>
<event>
 5    1  0.3309811E-002  0.1249995E+03  0.7818608E-02  0.1235070E+00
         -4   -1    0    0    0  501 -0.00000000000E+00  0.00000000000E+00  0.22746733538E+02  0.22782159394E+02  0.12700000000E+01 0. -1.
          4   -1    0    0  501    0  0.00000000000E+00 -0.00000000000E+00 -0.17155504739E+03  0.17155974815E+03  0.12700000000E+01 0. -1.
         25    2    1    2    0    0  0.00000000000E+00  0.00000000000E+00 -0.14880831385E+03  0.19434190755E+03  0.12499945102E+03 0.  0.
    9000005    1    3    3    0    0 -0.16899848368E+02  0.57236192383E+02 -0.45583536872E+02  0.75102898926E+02  0.10000000000E+01 0.  0.
    9000005    1    3    3    0    0  0.16899848368E+02 -0.57236192383E+02 -0.10322477698E+03  0.11923900862E+03  0.10000000000E+01 0.  0.
<mgrwt>
<rscale>  0 0.12499945E+03</rscale>
<asrwt>0</asrwt>
<pdfrwt beam="2">  1        4 0.26396170E-01 0.12499945E+03</pdfrwt>
<pdfrwt beam="1">  1       -4 0.35025842E-02 0.12499945E+03</pdfrwt>
<totfact> 0.91098398E+03</totfact>
</mgrwt>
</event>
<event>
 5    1  0.3309811E-002  0.1249972E+03  0.7818608E-02  0.1235074E+00
         -4   -1    0    0    0  501 -0.00000000000E+00  0.00000000000E+00  0.41832973496E+03  0.41833166274E+03  0.12700000000E+01 0. -1.
          4   -1    0    0  501    0  0.00000000000E+00 -0.00000000000E+00 -0.92921742956E+01  0.93785608245E+01  0.12700000000E+01 0. -1.
         25    2    1    2    0    0  0.00000000000E+00  0.00000000000E+00  0.40903756067E+03  0.42771022357E+03  0.12499723720E+03 0.  0.
    9000005    1    3    3    0    0  0.12252334190E+01 -0.59501455717E+02  0.26972574346E+03  0.27621531658E+03  0.10000000000E+01 0.  0.
    9000005    1    3    3    0    0 -0.12252334190E+01  0.59501455717E+02  0.13931181721E+03  0.15149490699E+03  0.10000000000E+01 0.  0.
<mgrwt>
<rscale>  0 0.12499724E+03</rscale>
<asrwt>0</asrwt>
<pdfrwt beam="2">  1        4 0.14363586E-02 0.12499724E+03</pdfrwt>
<pdfrwt beam="1">  1       -4 0.64365217E-01 0.12499724E+03</pdfrwt>
<totfact> 0.61947866E+03</totfact>
</mgrwt>
</event>
<event>
 5    1  0.3309811E-002  0.1249936E+03  0.7818608E-02  0.1235079E+00
          4   -1    0    0  501    0  0.00000000000E+00  0.00000000000E+00  0.88119775986E+01  0.89030247219E+01  0.12700000000E+01 0. -1.
         -4   -1    0    0    0  501 -0.00000000000E+00 -0.00000000000E+00 -0.44087338709E+03  0.44087521630E+03  0.12700000000E+01 0. -1.
         25    2    1    2    0    0  0.00000000000E+00  0.00000000000E+00 -0.43206140949E+03  0.44977824102E+03  0.12499361792E+03 0.  0.
    9000005    1    3    3    0    0 -0.21242045407E+02 -0.53254276985E+02 -0.30545741967E+03  0.31079330389E+03  0.10000000000E+01 0.  0.
    9000005    1    3    3    0    0  0.21242045407E+02  0.53254276985E+02 -0.12660398982E+03  0.13898493713E+03  0.10000000000E+01 0.  0.
<mgrwt>
<rscale>  0 0.12499362E+03</rscale>
<asrwt>0</asrwt>
<pdfrwt beam="1">  1        4 0.13628335E-02 0.12499362E+03</pdfrwt>
<pdfrwt beam="2">  1       -4 0.67833802E-01 0.12499362E+03</pdfrwt>
<totfact> 0.59991451E+03</totfact>
</mgrwt>
</event>
<event>
 5    1  0.3309811E-002  0.1249914E+03  0.7818608E-02  0.1235083E+00
          4   -1    0    0  501    0  0.00000000000E+00  0.00000000000E+00  0.45371454825E+02  0.45389225736E+02  0.12700000000E+01 0.  1.
         -4   -1    0    0    0  501 -0.00000000000E+00 -0.00000000000E+00 -0.86043790383E+02  0.86053162426E+02  0.12700000000E+01 0.  1.
         25    2    1    2    0    0  0.00000000000E+00  0.00000000000E+00 -0.40672335558E+02  0.13144238816E+03  0.12499144981E+03 0.  0.
    9000005    1    3    3    0    0  0.58731712874E+02 -0.16139363366E+02 -0.56579044640E+01  0.61179285954E+02  0.10000000000E+01 0.  0.
    9000005    1    3    3    0    0 -0.58731712874E+02  0.16139363366E+02 -0.35014431094E+02  0.70263102208E+02  0.10000000000E+01 0.  0.
<mgrwt>
<rscale>  0 0.12499145E+03</rscale>
<asrwt>0</asrwt>
<pdfrwt beam="1">  1        4 0.69823118E-02 0.12499145E+03</pdfrwt>
<pdfrwt beam="2">  1       -4 0.13239594E-01 0.12499145E+03</pdfrwt>
<totfact> 0.10315604E+04</totfact>
</mgrwt>
</event>
<event>
 5    1  0.3309811E-002  0.1249959E+03  0.7818608E-02  0.1235076E+00
          4   -1    0    0  501    0  0.00000000000E+00  0.00000000000E+00  0.28676942807E+01  0.31363307363E+01  0.12700000000E+01 0. -1.
         -4   -1    0    0    0  501 -0.00000000000E+00 -0.00000000000E+00 -0.13008551587E+04  0.13008557786E+04  0.12700000000E+01 0. -1.
         25    2    1    2    0    0  0.00000000000E+00  0.00000000000E+00 -0.12979874644E+04  0.13039921094E+04  0.12499585402E+03 0.  0.
    9000005    1    3    3    0    0  0.36991587747E+02  0.14913434016E+02 -0.11508508208E+04  0.11515421833E+04  0.10000000000E+01 0.  0.
    9000005    1    3    3    0    0 -0.36991587747E+02 -0.14913434016E+02 -0.14713664359E+03  0.15244992609E+03  0.10000000000E+01 0.  0.
<mgrwt>
<rscale>  0 0.12499585E+03</rscale>
<asrwt>0</asrwt>
<pdfrwt beam="1">  1        4 0.46189680E-03 0.12499585E+03</pdfrwt>
<pdfrwt beam="2">  1       -4 0.20015182E+00 0.12499585E+03</pdfrwt>
<totfact> 0.22136561E+03</totfact>
</mgrwt>
</event>
<event>
 5    1  0.3309811E-002  0.1250003E+03  0.7818608E-02  0.1235069E+00
          4   -1    0    0  501    0  0.00000000000E+00  0.00000000000E+00  0.57251492321E+02  0.57265576684E+02  0.12700000000E+01 0. -1.
         -4   -1    0    0    0  501 -0.00000000000E+00 -0.00000000000E+00 -0.68201601091E+02  0.68213424568E+02  0.12700000000E+01 0. -1.
         25    2    1    2    0    0  0.00000000000E+00  0.00000000000E+00 -0.10950108770E+02  0.12547900125E+03  0.12500029949E+03 0.  0.
    9000005    1    3    3    0    0  0.19439788558E+02 -0.31458330495E+02 -0.56043928786E+02  0.67152467493E+02  0.10000000000E+01 0.  0.
    9000005    1    3    3    0    0 -0.19439788558E+02  0.31458330495E+02  0.45093820016E+02  0.58326533759E+02  0.10000000000E+01 0.  0.
<mgrwt>
<rscale>  0 0.12500030E+03</rscale>
<asrwt>0</asrwt>
<pdfrwt beam="1">  1        4 0.88099149E-02 0.12500030E+03</pdfrwt>
<pdfrwt beam="2">  1       -4 0.10494547E-01 0.12500030E+03</pdfrwt>
<totfact> 0.10442348E+04</totfact>
</mgrwt>
</event>
<event>
 5    1  0.3309811E-002  0.1250011E+03  0.7818608E-02  0.1235068E+00
         -4   -1    0    0    0  501 -0.00000000000E+00  0.00000000000E+00  0.10893216489E+02  0.10966998928E+02  0.12700000000E+01 0. -1.
          4   -1    0    0  501    0  0.00000000000E+00 -0.00000000000E+00 -0.35731560179E+03  0.35731785875E+03  0.12700000000E+01 0. -1.
         25    2    1    2    0    0  0.00000000000E+00  0.00000000000E+00 -0.34642238530E+03  0.36828485768E+03  0.12500106943E+03 0.  0.
    9000005    1    3    3    0    0 -0.25268162711E+02 -0.54897551839E+02 -0.12633930678E+03  0.14005299598E+03  0.10000000000E+01 0.  0.
    9000005    1    3    3    0    0  0.25268162711E+02  0.54897551839E+02 -0.22008307852E+03  0.22823186170E+03  0.10000000000E+01 0.  0.
<mgrwt>
<rscale>  0 0.12500107E+03</rscale>
<asrwt>0</asrwt>
<pdfrwt beam="2">  1        4 0.54977471E-01 0.12500107E+03</pdfrwt>
<pdfrwt beam="1">  1       -4 0.16817289E-02 0.12500107E+03</pdfrwt>
<totfact> 0.67757157E+03</totfact>
</mgrwt>
</event>
<event>
 5    1  0.3309811E-002  0.1249990E+03  0.7818608E-02  0.1235071E+00
          4   -1    0    0  501    0  0.00000000000E+00  0.00000000000E+00  0.59074701588E+03  0.59074838102E+03  0.12700000000E+01 0. -1.
         -4   -1    0    0    0  501 -0.00000000000E+00 -0.00000000000E+00 -0.65499160748E+01  0.66719038202E+01  0.12700000000E+01 0. -1.
         25    2    1    2    0    0  0.00000000000E+00  0.00000000000E+00  0.58419709981E+03  0.59742028484E+03  0.12499898124E+03 0.  0.
    9000005    1    3    3    0    0 -0.10078422556E+02  0.36114273527E+02  0.53103854590E+03  0.53236148676E+03  0.10000000000E+01 0.  0.
    9000005    1    3    3    0    0  0.10078422556E+02 -0.36114273527E+02  0.53158553904E+02  0.65058798073E+02  0.10000000000E+01 0.  0.
<mgrwt>
<rscale>  0 0.12499898E+03</rscale>
<asrwt>0</asrwt>
<pdfrwt beam="1">  1        4 0.90893678E-01 0.12499898E+03</pdfrwt>
<pdfrwt beam="2">  1       -4 0.10171677E-02 0.12499898E+03</pdfrwt>
<totfact> 0.49031937E+03</totfact>
</mgrwt>
</event>
<event>
 5    1  0.3309811E-002  0.1250003E+03  0.7818608E-02  0.1235069E+00
         -4   -1    0    0    0  501 -0.00000000000E+00  0.00000000000E+00  0.18279088192E+02  0.18323153799E+02  0.12700000000E+01 0. -1.
          4   -1    0    0  501    0  0.00000000000E+00 -0.00000000000E+00 -0.21339843794E+03  0.21340221699E+03  0.12700000000E+01 0. -1.
         25    2    1    2    0    0  0.00000000000E+00  0.00000000000E+00 -0.19511934975E+03  0.23172537079E+03  0.12500034728E+03 0.  0.
    9000005    1    3    3    0    0 -0.37092380248E+02 -0.13538683163E+02 -0.18735185238E+03  0.19147025149E+03  0.10000000000E+01 0.  0.
    9000005    1    3    3    0    0  0.37092380248E+02  0.13538683163E+02 -0.77674973644E+01  0.40255119296E+02  0.10000000000E+01 0.  0.
<mgrwt>
<rscale>  0 0.12500035E+03</rscale>
<asrwt>0</asrwt>
<pdfrwt beam="2">  1        4 0.32834207E-01 0.12500035E+03</pdfrwt>
<pdfrwt beam="1">  1       -4 0.28158479E-02 0.12500035E+03</pdfrwt>
<totfact> 0.85044709E+03</totfact>
</mgrwt>
</event>
<event>
 5    1  0.3309811E-002  0.1250001E+03  0.7818608E-02  0.1235069E+00
         -4   -1    0    0    0  501 -0.00000000000E+00  0.00000000000E+00  0.23842529229E+02  0.23876329284E+02  0.12700000000E+01 0. -1.
          4   -1    0    0  501    0  0.00000000000E+00 -0.00000000000E+00 -0.16368332276E+03  0.16368824958E+03  0.12700000000E+01 0. -1.
         25    2    1    2    0    0  0.00000000000E+00  0.00000000000E+00 -0.13984079353E+03  0.18756457886E+03  0.12500009483E+03 0.  0.
    9000005    1    3    3    0    0 -0.52379641486E+02 -0.98892135522E+01 -0.20978914450E+02  0.57293439750E+02  0.10000000000E+01 0.  0.
    9000005    1    3    3    0    0  0.52379641486E+02  0.98892135522E+01 -0.11886187908E+03  0.13027113911E+03  0.10000000000E+01 0.  0.
<mgrwt>
<rscale>  0 0.12500009E+03</rscale>
<asrwt>0</asrwt>
<pdfrwt beam="2">  1        4 0.25185028E-01 0.12500009E+03</pdfrwt>
<pdfrwt beam="1">  1       -4 0.36710605E-02 0.12500009E+03</pdfrwt>
<totfact> 0.92272609E+03</totfact>
</mgrwt>
</event>
<event>
 5    1  0.3309811E-002  0.1250064E+03  0.7818608E-02  0.1235059E+00
          4   -1    0    0  501    0  0.00000000000E+00  0.00000000000E+00  0.68396407548E+01  0.69565498384E+01  0.12700000000E+01 0.  1.
         -4   -1    0    0    0  501 -0.00000000000E+00 -0.00000000000E+00 -0.56622026500E+03  0.56622168927E+03  0.12700000000E+01 0.  1.
         25    2    1    2    0    0  0.00000000000E+00  0.00000000000E+00 -0.55938062425E+03  0.57317823911E+03  0.12500644385E+03 0.  0.
    9000005    1    3    3    0    0  0.28170552901E+02 -0.60821035991E+01 -0.53395470922E+03  0.53473283379E+03  0.10000000000E+01 0.  0.
    9000005    1    3    3    0    0 -0.28170552901E+02  0.60821035991E+01 -0.25425915024E+02  0.38445405314E+02  0.10000000000E+01 0.  0.
<mgrwt>
<rscale>  0 0.12500644E+03</rscale>
<asrwt>0</asrwt>
<pdfrwt beam="1">  1        4 0.10613554E-02 0.12500644E+03</pdfrwt>
<pdfrwt beam="2">  1       -4 0.87119876E-01 0.12500644E+03</pdfrwt>
<totfact> 0.50598521E+03</totfact>
</mgrwt>
</event>
<event>
 5    1  0.3309811E-002  0.1250011E+03  0.7818608E-02  0.1235068E+00
         -4   -1    0    0    0  501 -0.00000000000E+00  0.00000000000E+00  0.32972216895E+02  0.32996666301E+02  0.12700000000E+01 0. -1.
          4   -1    0    0  501    0  0.00000000000E+00 -0.00000000000E+00 -0.11840126467E+03  0.11840807564E+03  0.12700000000E+01 0. -1.
         25    2    1    2    0    0  0.00000000000E+00  0.00000000000E+00 -0.85429047778E+02  0.15140474194E+03  0.12500109471E+03 0.  0.
    9000005    1    3    3    0    0 -0.11426517724E+02 -0.68496453533E+01 -0.11666722295E+03  0.11742965494E+03  0.10000000000E+01 0.  0.
    9000005    1    3    3    0    0  0.11426517724E+02  0.68496453533E+01  0.31238175170E+02  0.33975087000E+02  0.10000000000E+01 0.  0.
<mgrwt>
<rscale>  0 0.12500109E+03</rscale>
<asrwt>0</asrwt>
<pdfrwt beam="2">  1        4 0.18217984E-01 0.12500109E+03</pdfrwt>
<pdfrwt beam="1">  1       -4 0.50750535E-02 0.12500109E+03</pdfrwt>
<totfact> 0.99021979E+03</totfact>
</mgrwt>
</event>
<event>
 5    1  0.3309811E-002  0.1249981E+03  0.7818608E-02  0.1235072E+00
          4   -1    0    0  501    0  0.00000000000E+00  0.00000000000E+00  0.75334975158E+02  0.75345679252E+02  0.12700000000E+01 0. -1.
         -4   -1    0    0    0  501 -0.00000000000E+00 -0.00000000000E+00 -0.51828041715E+02  0.51843599489E+02  0.12700000000E+01 0. -1.
         25    2    1    2    0    0  0.00000000000E+00  0.00000000000E+00  0.23506933443E+02  0.12718927874E+03  0.12499814681E+03 0.  0.
    9000005    1    3    3    0    0 -0.11480591248E+02 -0.47984704137E+02  0.50776722471E+02  0.70806859494E+02  0.10000000000E+01 0.  0.
    9000005    1    3    3    0    0  0.11480591248E+02  0.47984704137E+02 -0.27269789029E+02  0.56382419247E+02  0.10000000000E+01 0.  0.
<mgrwt>
<rscale>  0 0.12499815E+03</rscale>
<asrwt>0</asrwt>
<pdfrwt beam="1">  1        4 0.11592016E-01 0.12499815E+03</pdfrwt>
<pdfrwt beam="2">  1       -4 0.79755650E-02 0.12499815E+03</pdfrwt>
<totfact> 0.10405471E+04</totfact>
</mgrwt>
</event>
<event>
 5    1  0.3309811E-002  0.1249981E+03  0.7818608E-02  0.1235072E+00
          4   -1    0    0  501    0  0.00000000000E+00  0.00000000000E+00  0.14482927251E+02  0.14538503423E+02  0.12700000000E+01 0.  1.
         -4   -1    0    0    0  501 -0.00000000000E+00 -0.00000000000E+00 -0.26913222180E+03  0.26913521827E+03  0.12700000000E+01 0.  1.
         25    2    1    2    0    0  0.00000000000E+00  0.00000000000E+00 -0.25464929455E+03  0.28367372169E+03  0.12499806864E+03 0.  0.
    9000005    1    3    3    0    0  0.44982077636E+02  0.22606065476E+02 -0.43303570373E+02  0.66412504183E+02  0.10000000000E+01 0.  0.
    9000005    1    3    3    0    0 -0.44982077636E+02 -0.22606065476E+02 -0.21134572418E+03  0.21726121751E+03  0.10000000000E+01 0.  0.
<mgrwt>
<rscale>  0 0.12499807E+03</rscale>
<asrwt>0</asrwt>
<pdfrwt beam="1">  1        4 0.22326484E-02 0.12499807E+03</pdfrwt>
<pdfrwt beam="2">  1       -4 0.41409459E-01 0.12499807E+03</pdfrwt>
<totfact> 0.77696841E+03</totfact>
</mgrwt>
</event>
<event>
 5    1  0.3309811E-002  0.1249905E+03  0.7818608E-02  0.1235084E+00
          4   -1    0    0  501    0  0.00000000000E+00  0.00000000000E+00  0.23608490584E+03  0.23608832175E+03  0.12700000000E+01 0.  1.
         -4   -1    0    0    0  501 -0.00000000000E+00 -0.00000000000E+00 -0.16515536702E+02  0.16564294508E+02  0.12700000000E+01 0.  1.
         25    2    1    2    0    0  0.00000000000E+00  0.00000000000E+00  0.21956936914E+03  0.25265261626E+03  0.12499054619E+03 0.  0.
    9000005    1    3    3    0    0 -0.92758431017E+01 -0.38315422997E+02  0.11783565524E+02  0.41157809965E+02  0.10000000000E+01 0.  0.
    9000005    1    3    3    0    0  0.92758431017E+01  0.38315422997E+02  0.20778580362E+03  0.21149480629E+03  0.10000000000E+01 0.  0.
<mgrwt>
<rscale>  0 0.12499055E+03</rscale>
<asrwt>0</asrwt>
<pdfrwt beam="1">  1        4 0.36324767E-01 0.12499055E+03</pdfrwt>
<pdfrwt beam="2">  1       -4 0.25448652E-02 0.12499055E+03</pdfrwt>
<totfact> 0.81965604E+03</totfact>
</mgrwt>
</event>
<event>
 5    1  0.3309811E-002  0.1249966E+03  0.7818608E-02  0.1235075E+00
         -4   -1    0    0    0  501 -0.00000000000E+00  0.00000000000E+00  0.72009782134E+03  0.72009894125E+03  0.12700000000E+01 0.  1.
          4   -1    0    0  501    0  0.00000000000E+00 -0.00000000000E+00 -0.53488347968E+01  0.54975388751E+01  0.12700000000E+01 0.  1.
         25    2    1    2    0    0  0.00000000000E+00  0.00000000000E+00  0.71474898654E+03  0.72559648013E+03  0.12499655281E+03 0.  0.
    9000005    1    3    3    0    0  0.30320388308E+02  0.23644846797E+02  0.71418701711E+02  0.81117419099E+02  0.10000000000E+01 0.  0.
    9000005    1    3    3    0    0 -0.30320388308E+02 -0.23644846797E+02  0.64333028483E+03  0.64447906103E+03  0.10000000000E+01 0.  0.
<mgrwt>
<rscale>  0 0.12499655E+03</rscale>
<asrwt>0</asrwt>
<pdfrwt beam="2">  1        4 0.83442261E-03 0.12499655E+03</pdfrwt>
<pdfrwt beam="1">  1       -4 0.11079580E+00 0.12499655E+03</pdfrwt>
<totfact> 0.41772572E+03</totfact>
</mgrwt>
</event>
<event>
 5    1  0.3309811E-002  0.1249469E+03  0.7818608E-02  0.1235152E+00
         -4   -1    0    0    0  501 -0.00000000000E+00  0.00000000000E+00  0.18874537394E+01  0.22749465089E+01  0.12700000000E+01 0. -1.
          4   -1    0    0  501    0  0.00000000000E+00 -0.00000000000E+00 -0.18749397897E+04  0.18749402198E+04  0.12700000000E+01 0. -1.
         25    2    1    2    0    0  0.00000000000E+00  0.00000000000E+00 -0.18730523359E+04  0.18772151663E+04  0.12494689852E+03 0.  0.
    9000005    1    3    3    0    0 -0.28787952550E+02  0.50081870330E+02 -0.57940985398E+03  0.58228319471E+03  0.10000000000E+01 0.  0.
    9000005    1    3    3    0    0  0.28787952550E+02 -0.50081870330E+02 -0.12936424819E+04  0.12949319716E+04  0.10000000000E+01 0.  0.
<mgrwt>
<rscale>  0 0.12494690E+03</rscale>
<asrwt>0</asrwt>
<pdfrwt beam="2">  1        4 0.28848076E+00 0.12494690E+03</pdfrwt>
<pdfrwt beam="1">  1       -4 0.32021922E-03 0.12494690E+03</pdfrwt>
<totfact> 0.11563833E+03</totfact>
</mgrwt>
</event>
<event>
 5    1  0.3309811E-002  0.1249995E+03  0.7818608E-02  0.1235070E+00
         -4   -1    0    0    0  501 -0.00000000000E+00  0.00000000000E+00  0.24277515758E+01  0.27398681927E+01  0.12700000000E+01 0. -1.
          4   -1    0    0  501    0  0.00000000000E+00 -0.00000000000E+00 -0.15114945404E+04  0.15114950740E+04  0.12700000000E+01 0. -1.
         25    2    1    2    0    0  0.00000000000E+00  0.00000000000E+00 -0.15090667888E+04  0.15142349422E+04  0.12499954743E+03 0.  0.
    9000005    1    3    3    0    0  0.62063599059E+02 -0.73019135798E+01 -0.75593799878E+03  0.75851728146E+03  0.10000000000E+01 0.  0.
    9000005    1    3    3    0    0 -0.62063599059E+02  0.73019135798E+01 -0.75312879006E+03  0.75571766070E+03  0.10000000000E+01 0.  0.
<mgrwt>
<rscale>  0 0.12499955E+03</rscale>
<asrwt>0</asrwt>
<pdfrwt beam="2">  1        4 0.23256096E+00 0.12499955E+03</pdfrwt>
<pdfrwt beam="1">  1       -4 0.39755146E-03 0.12499955E+03</pdfrwt>
<totfact> 0.17652536E+03</totfact>
</mgrwt>
</event>
<event>
 5    1  0.3309811E-002  0.1250226E+03  0.7818608E-02  0.1235034E+00
          4   -1    0    0  501    0  0.00000000000E+00  0.00000000000E+00  0.36969361207E+02  0.36991168784E+02  0.12700000000E+01 0.  1.
         -4   -1    0    0    0  501 -0.00000000000E+00 -0.00000000000E+00 -0.10564322969E+03  0.10565086312E+03  0.12700000000E+01 0.  1.
         25    2    1    2    0    0  0.00000000000E+00  0.00000000000E+00 -0.68673868482E+02  0.14264203191E+03  0.12502259418E+03 0.  0.
    9000005    1    3    3    0    0  0.26224295041E+02 -0.41596002058E+01 -0.98894283391E+02  0.10240163676E+03  0.10000000000E+01 0.  0.
    9000005    1    3    3    0    0 -0.26224295041E+02  0.41596002058E+01  0.30220414909E+02  0.40240395147E+02  0.10000000000E+01 0.  0.
<mgrwt>
<rscale>  0 0.12502259E+03</rscale>
<asrwt>0</asrwt>
<pdfrwt beam="1">  1        4 0.56898587E-02 0.12502259E+03</pdfrwt>
<pdfrwt beam="2">  1       -4 0.16255069E-01 0.12502259E+03</pdfrwt>
<totfact> 0.10073991E+04</totfact>
</mgrwt>
</event>
<event>
 5    1  0.3309811E-002  0.1250010E+03  0.7818608E-02  0.1235068E+00
          4   -1    0    0  501    0  0.00000000000E+00  0.00000000000E+00  0.39264574459E+02  0.39285107960E+02  0.12700000000E+01 0. -1.
         -4   -1    0    0    0  501 -0.00000000000E+00 -0.00000000000E+00 -0.99436286052E+02  0.99444395940E+02  0.12700000000E+01 0. -1.
         25    2    1    2    0    0  0.00000000000E+00  0.00000000000E+00 -0.60171711593E+02  0.13872950390E+03  0.12500096150E+03 0.  0.
    9000005    1    3    3    0    0 -0.11510073687E+02  0.17625599991E+02  0.35216591293E+02  0.41040856151E+02  0.10000000000E+01 0.  0.
    9000005    1    3    3    0    0  0.11510073687E+02 -0.17625599991E+02 -0.95388302887E+02  0.97688647748E+02  0.10000000000E+01 0.  0.
<mgrwt>
<rscale>  0 0.12500096E+03</rscale>
<asrwt>0</asrwt>
<pdfrwt beam="1">  1        4 0.60429072E-02 0.12500096E+03</pdfrwt>
<pdfrwt beam="2">  1       -4 0.15300093E-01 0.12500096E+03</pdfrwt>
<totfact> 0.10159765E+04</totfact>
</mgrwt>
</event>
<event>
 5    1  0.3309811E-002  0.1250025E+03  0.7818608E-02  0.1235065E+00
          4   -1    0    0  501    0  0.00000000000E+00  0.00000000000E+00  0.20316503852E+02  0.20356159480E+02  0.12700000000E+01 0.  1.
         -4   -1    0    0    0  501 -0.00000000000E+00 -0.00000000000E+00 -0.19204821900E+03  0.19205241816E+03  0.12700000000E+01 0.  1.
         25    2    1    2    0    0  0.00000000000E+00  0.00000000000E+00 -0.17173171515E+03  0.21240857764E+03  0.12500248744E+03 0.  0.
    9000005    1    3    3    0    0 -0.29292930244E+02  0.54411353810E+02 -0.10169104227E+03  0.11899890446E+03  0.10000000000E+01 0.  0.
    9000005    1    3    3    0    0  0.29292930244E+02 -0.54411353810E+02 -0.70040672880E+02  0.93409673178E+02  0.10000000000E+01 0.  0.
<mgrwt>
<rscale>  0 0.12500249E+03</rscale>
<asrwt>0</asrwt>
<pdfrwt beam="1">  1        4 0.31289896E-02 0.12500249E+03</pdfrwt>
<pdfrwt beam="2">  1       -4 0.29549252E-01 0.12500249E+03</pdfrwt>
<totfact> 0.88079137E+03</totfact>
</mgrwt>
</event>
<event>
 5    1  0.3309811E-002  0.1249993E+03  0.7818608E-02  0.1235070E+00
         -4   -1    0    0    0  501 -0.00000000000E+00  0.00000000000E+00  0.19719410180E+02  0.19760264113E+02  0.12700000000E+01 0. -1.
          4   -1    0    0  501    0  0.00000000000E+00 -0.00000000000E+00 -0.19784146955E+03  0.19784554575E+03  0.12700000000E+01 0. -1.
         25    2    1    2    0    0  0.00000000000E+00  0.00000000000E+00 -0.17812205937E+03  0.21760580986E+03  0.12499928181E+03 0.  0.
    9000005    1    3    3    0    0  0.58931536260E+02 -0.20729968299E+02 -0.91839624970E+02  0.11107733462E+03  0.10000000000E+01 0.  0.
    9000005    1    3    3    0    0 -0.58931536260E+02  0.20729968299E+02 -0.86282434395E+02  0.10652847524E+03  0.10000000000E+01 0.  0.
<mgrwt>
<rscale>  0 0.12499928E+03</rscale>
<asrwt>0</asrwt>
<pdfrwt beam="2">  1        4 0.30440604E-01 0.12499928E+03</pdfrwt>
<pdfrwt beam="1">  1       -4 0.30372117E-02 0.12499928E+03</pdfrwt>
<totfact> 0.87250023E+03</totfact>
</mgrwt>
</event>
<event>
 5    1  0.3309811E-002  0.1249999E+03  0.7818608E-02  0.1235069E+00
         -4   -1    0    0    0  501 -0.00000000000E+00  0.00000000000E+00  0.96175281419E+01  0.97010178621E+01  0.12700000000E+01 0. -1.
          4   -1    0    0  501    0  0.00000000000E+00 -0.00000000000E+00 -0.40431898204E+03  0.40432097662E+03  0.12700000000E+01 0. -1.
         25    2    1    2    0    0  0.00000000000E+00  0.00000000000E+00 -0.39470145390E+03  0.41402199448E+03  0.12499989683E+03 0.  0.
    9000005    1    3    3    0    0 -0.27272892502E+02  0.39364822492E+02 -0.33032732346E+03  0.33378217529E+03  0.10000000000E+01 0.  0.
    9000005    1    3    3    0    0  0.27272892502E+02 -0.39364822492E+02 -0.64374130433E+02  0.80239819194E+02  0.10000000000E+01 0.  0.
<mgrwt>
<rscale>  0 0.12499990E+03</rscale>
<asrwt>0</asrwt>
<pdfrwt beam="2">  1        4 0.62209483E-01 0.12499990E+03</pdfrwt>
<pdfrwt beam="1">  1       -4 0.14861957E-02 0.12499990E+03</pdfrwt>
<totfact> 0.63211648E+03</totfact>
</mgrwt>
</event>
<event>
 5    1  0.3309811E-002  0.1250019E+03  0.7818608E-02  0.1235066E+00
         -4   -1    0    0    0  501 -0.00000000000E+00  0.00000000000E+00  0.26325466466E+02  0.26356082498E+02  0.12700000000E+01 0. -1.
          4   -1    0    0  501    0  0.00000000000E+00 -0.00000000000E+00 -0.14826795520E+03  0.14827339424E+03  0.12700000000E+01 0. -1.
         25    2    1    2    0    0  0.00000000000E+00  0.00000000000E+00 -0.12194248873E+03  0.17462947674E+03  0.12500193433E+03 0.  0.
    9000005    1    3    3    0    0  0.56520042233E+02  0.21664380891E+02 -0.82681686542E+02  0.10247498164E+03  0.10000000000E+01 0.  0.
    9000005    1    3    3    0    0 -0.56520042233E+02 -0.21664380891E+02 -0.39260802192E+02  0.72154495093E+02  0.10000000000E+01 0.  0.
<mgrwt>
<rscale>  0 0.12500193E+03</rscale>
<asrwt>0</asrwt>
<pdfrwt beam="2">  1        4 0.22813228E-01 0.12500193E+03</pdfrwt>
<pdfrwt beam="1">  1       -4 0.40528453E-02 0.12500193E+03</pdfrwt>
<totfact> 0.94588640E+03</totfact>
</mgrwt>
</event>
<event>
 5    1  0.3309811E-002  0.1250020E+03  0.7818608E-02  0.1235066E+00
         -4   -1    0    0    0  501 -0.00000000000E+00  0.00000000000E+00  0.20556689286E+02  0.20595882463E+02  0.12700000000E+01 0.  1.
          4   -1    0    0  501    0  0.00000000000E+00 -0.00000000000E+00 -0.18980699806E+03  0.18981124681E+03  0.12700000000E+01 0.  1.
         25    2    1    2    0    0  0.00000000000E+00  0.00000000000E+00 -0.16925030878E+03  0.21040712927E+03  0.12500197209E+03 0.  0.
    9000005    1    3    3    0    0 -0.95603386967E+01  0.26022177484E+02  0.96480671206E+01  0.29370716644E+02  0.10000000000E+01 0.  0.
    9000005    1    3    3    0    0  0.95603386967E+01 -0.26022177484E+02 -0.17889837590E+03  0.18103641262E+03  0.10000000000E+01 0.  0.
<mgrwt>
<rscale>  0 0.12500197E+03</rscale>
<asrwt>0</asrwt>
<pdfrwt beam="2">  1        4 0.29204417E-01 0.12500197E+03</pdfrwt>
<pdfrwt beam="1">  1       -4 0.31659094E-02 0.12500197E+03</pdfrwt>
<totfact> 0.88405537E+03</totfact>
</mgrwt>
</event>
<event>
 5    1  0.3309811E-002  0.1249947E+03  0.7818608E-02  0.1235078E+00
         -4   -1    0    0    0  501 -0.00000000000E+00  0.00000000000E+00  0.88571744939E+01  0.89477617322E+01  0.12700000000E+01 0. -1.
          4   -1    0    0  501    0  0.00000000000E+00 -0.00000000000E+00 -0.43865404057E+03  0.43865587903E+03  0.12700000000E+01 0. -1.
         25    2    1    2    0    0  0.00000000000E+00  0.00000000000E+00 -0.42979686608E+03  0.44760364077E+03  0.12499469243E+03 0.  0.
    9000005    1    3    3    0    0 -0.23131354438E+02  0.38286692021E+02 -0.37115350914E+03  0.37384068491E+03  0.10000000000E+01 0.  0.
    9000005    1    3    3    0    0  0.23131354438E+02 -0.38286692021E+02 -0.58643356935E+02  0.73762955856E+02  0.10000000000E+01 0.  0.
<mgrwt>
<rscale>  0 0.12499469E+03</rscale>
<asrwt>0</asrwt>
<pdfrwt beam="2">  1        4 0.67492330E-01 0.12499469E+03</pdfrwt>
<pdfrwt beam="1">  1       -4 0.13697522E-02 0.12499469E+03</pdfrwt>
<totfact> 0.60178998E+03</totfact>
</mgrwt>
</event>
<event>
 5    1  0.3309811E-002  0.1249905E+03  0.7818608E-02  0.1235084E+00
          4   -1    0    0  501    0  0.00000000000E+00  0.00000000000E+00  0.84463947728E+02  0.84473495049E+02  0.12700000000E+01 0. -1.
         -4   -1    0    0    0  501 -0.00000000000E+00 -0.00000000000E+00 -0.46219614766E+02  0.46237059694E+02  0.12700000000E+01 0. -1.
         25    2    1    2    0    0  0.00000000000E+00  0.00000000000E+00  0.38244332961E+02  0.13071055474E+03  0.12499048011E+03 0.  0.
    9000005    1    3    3    0    0 -0.30238317964E+02 -0.52159621852E+02  0.19489178209E+01  0.60330591790E+02  0.10000000000E+01 0.  0.
    9000005    1    3    3    0    0  0.30238317964E+02  0.52159621852E+02  0.36295415140E+02  0.70379962953E+02  0.10000000000E+01 0.  0.
<mgrwt>
<rscale>  0 0.12499048E+03</rscale>
<asrwt>0</asrwt>
<pdfrwt beam="1">  1        4 0.12996530E-01 0.12499048E+03</pdfrwt>
<pdfrwt beam="2">  1       -4 0.71127863E-02 0.12499048E+03</pdfrwt>
<totfact> 0.10331517E+04</totfact>
</mgrwt>
</event>
<event>
 5    1  0.3309811E-002  0.1249987E+03  0.7818608E-02  0.1235071E+00
          4   -1    0    0  501    0  0.00000000000E+00  0.00000000000E+00  0.39446138342E+03  0.39446342785E+03  0.12700000000E+01 0.  1.
         -4   -1    0    0    0  501 -0.00000000000E+00 -0.00000000000E+00 -0.98597372359E+01  0.99411930049E+01  0.12700000000E+01 0.  1.
         25    2    1    2    0    0  0.00000000000E+00  0.00000000000E+00  0.38460164619E+03  0.40440462086E+03  0.12499868447E+03 0.  0.
    9000005    1    3    3    0    0 -0.42022935848E+02 -0.11433821832E+02  0.47307671808E+02  0.64309215754E+02  0.10000000000E+01 0.  0.
    9000005    1    3    3    0    0  0.42022935848E+02  0.11433821832E+02  0.33729397438E+03  0.34009540510E+03  0.10000000000E+01 0.  0.
<mgrwt>
<rscale>  0 0.12499868E+03</rscale>
<asrwt>0</asrwt>
<pdfrwt beam="1">  1        4 0.60692789E-01 0.12499868E+03</pdfrwt>
<pdfrwt beam="2">  1       -4 0.15233058E-02 0.12499868E+03</pdfrwt>
<totfact> 0.64128505E+03</totfact>
</mgrwt>
</event>
<event>
 5    1  0.3309811E-002  0.1249802E+03  0.7818608E-02  0.1235100E+00
         -4   -1    0    0    0  501 -0.00000000000E+00  0.00000000000E+00  0.13912236045E+03  0.13912815702E+03  0.12700000000E+01 0.  1.
          4   -1    0    0  501    0  0.00000000000E+00 -0.00000000000E+00 -0.28048143319E+02  0.28076880946E+02  0.12700000000E+01 0.  1.
         25    2    1    2    0    0  0.00000000000E+00  0.00000000000E+00  0.11107421713E+03  0.16720503797E+03  0.12498017047E+03 0.  0.
    9000005    1    3    3    0    0 -0.23807826769E+02  0.36273720072E+02 -0.46129463038E+01  0.43644869766E+02  0.10000000000E+01 0.  0.
    9000005    1    3    3    0    0  0.23807826769E+02 -0.36273720072E+02  0.11568716343E+03  0.12356016820E+03  0.10000000000E+01 0.  0.
<mgrwt>
<rscale>  0 0.12498017E+03</rscale>
<asrwt>0</asrwt>
<pdfrwt beam="2">  1        4 0.43177555E-02 0.12498017E+03</pdfrwt>
<pdfrwt beam="1">  1       -4 0.21406096E-01 0.12498017E+03</pdfrwt>
<totfact> 0.96014170E+03</totfact>
</mgrwt>
</event>
<event>
 5    1  0.3309811E-002  0.1249972E+03  0.7818608E-02  0.1235074E+00
          4   -1    0    0  501    0  0.00000000000E+00  0.00000000000E+00  0.49058287765E+03  0.49058452151E+03  0.12700000000E+01 0. -1.
         -4   -1    0    0    0  501 -0.00000000000E+00 -0.00000000000E+00 -0.79097990716E+01  0.80111061255E+01  0.12700000000E+01 0. -1.
         25    2    1    2    0    0  0.00000000000E+00  0.00000000000E+00  0.48267307858E+03  0.49859562763E+03  0.12499719641E+03 0.  0.
    9000005    1    3    3    0    0 -0.47331950562E+02  0.96621758655E+01  0.39945845383E+03  0.40237013746E+03  0.10000000000E+01 0.  0.
    9000005    1    3    3    0    0  0.47331950562E+02 -0.96621758655E+01  0.83214624749E+02  0.96225490170E+02  0.10000000000E+01 0.  0.
<mgrwt>
<rscale>  0 0.12499720E+03</rscale>
<asrwt>0</asrwt>
<pdfrwt beam="1">  1        4 0.75482226E-01 0.12499720E+03</pdfrwt>
<pdfrwt beam="2">  1       -4 0.12248112E-02 0.12499720E+03</pdfrwt>
<totfact> 0.55976934E+03</totfact>
</mgrwt>
</event>
<event>
 5    1  0.3309811E-002  0.1249977E+03  0.7818608E-02  0.1235073E+00
         -4   -1    0    0    0  501 -0.00000000000E+00  0.00000000000E+00  0.26649132209E+03  0.26649434825E+03  0.12700000000E+01 0.  1.
          4   -1    0    0  501    0  0.00000000000E+00 -0.00000000000E+00 -0.14626921989E+02  0.14681953102E+02  0.12700000000E+01 0.  1.
         25    2    1    2    0    0  0.00000000000E+00  0.00000000000E+00  0.25186440010E+03  0.28117630135E+03  0.12499774560E+03 0.  0.
    9000005    1    3    3    0    0  0.14990511007E+02  0.57812783709E+02  0.16729248524E+03  0.17763673325E+03  0.10000000000E+01 0.  0.
    9000005    1    3    3    0    0 -0.14990511007E+02 -0.57812783709E+02  0.84571914860E+02  0.10353956811E+03  0.10000000000E+01 0.  0.
<mgrwt>
<rscale>  0 0.12499775E+03</rscale>
<asrwt>0</asrwt>
<pdfrwt beam="2">  1        4 0.22547618E-02 0.12499775E+03</pdfrwt>
<pdfrwt beam="1">  1       -4 0.41003127E-01 0.12499775E+03</pdfrwt>
<totfact> 0.78026306E+03</totfact>
</mgrwt>
</event>
<event>
 5    1  0.3309811E-002  0.1249999E+03  0.7818608E-02  0.1235069E+00
         -4   -1    0    0    0  501 -0.00000000000E+00  0.00000000000E+00  0.19938012810E+03  0.19938417285E+03  0.12700000000E+01 0.  1.
          4   -1    0    0  501    0  0.00000000000E+00 -0.00000000000E+00 -0.19567125176E+02  0.19608296398E+02  0.12700000000E+01 0.  1.
         25    2    1    2    0    0  0.00000000000E+00  0.00000000000E+00  0.17981300292E+03  0.21899246924E+03  0.12499994226E+03 0.  0.
    9000005    1    3    3    0    0  0.87703273318E+01 -0.21405228855E+02  0.19161180314E+03  0.19300566201E+03  0.10000000000E+01 0.  0.
    9000005    1    3    3    0    0 -0.87703273318E+01  0.21405228855E+02 -0.11798800216E+02  0.25986807237E+02  0.10000000000E+01 0.  0.
<mgrwt>
<rscale>  0 0.12499994E+03</rscale>
<asrwt>0</asrwt>
<pdfrwt beam="2">  1        4 0.30138050E-02 0.12499994E+03</pdfrwt>
<pdfrwt beam="1">  1       -4 0.30677345E-01 0.12499994E+03</pdfrwt>
<totfact> 0.87028140E+03</totfact>
</mgrwt>
</event>
<event>
 5    1  0.3309811E-002  0.1250001E+03  0.7818608E-02  0.1235069E+00
          4   -1    0    0  501    0  0.00000000000E+00  0.00000000000E+00  0.47333359001E+03  0.47333529377E+03  0.12700000000E+01 0.  1.
         -4   -1    0    0    0  501 -0.00000000000E+00 -0.00000000000E+00 -0.82020596947E+01  0.82998001925E+01  0.12700000000E+01 0.  1.
         25    2    1    2    0    0  0.00000000000E+00  0.00000000000E+00  0.46513153031E+03  0.48163509396E+03  0.12500009298E+03 0.  0.
    9000005    1    3    3    0    0  0.27147520554E+02 -0.12289548626E+01  0.15737847382E+02  0.31419389594E+02  0.10000000000E+01 0.  0.
    9000005    1    3    3    0    0 -0.27147520554E+02  0.12289548626E+01  0.44939368293E+03  0.45021570437E+03  0.10000000000E+01 0.  0.
<mgrwt>
<rscale>  0 0.12500009E+03</rscale>
<asrwt>0</asrwt>
<pdfrwt beam="1">  1        4 0.72828227E-01 0.12500009E+03</pdfrwt>
<pdfrwt beam="2">  1       -4 0.12695045E-02 0.12500009E+03</pdfrwt>
<totfact> 0.57317821E+03</totfact>
</mgrwt>
</event>
<event>
 5    1  0.3309811E-002  0.1249922E+03  0.7818608E-02  0.1235082E+00
         -4   -1    0    0    0  501 -0.00000000000E+00  0.00000000000E+00  0.59048925361E+01  0.60399218425E+01  0.12700000000E+01 0. -1.
          4   -1    0    0  501    0  0.00000000000E+00 -0.00000000000E+00 -0.65383200464E+03  0.65383323806E+03  0.12700000000E+01 0. -1.
         25    2    1    2    0    0  0.00000000000E+00  0.00000000000E+00 -0.64792711210E+03  0.65987315990E+03  0.12499217800E+03 0.  0.
    9000005    1    3    3    0    0  0.24808847221E+02 -0.40052728532E+02 -0.10725030637E+03  0.11714660976E+03  0.10000000000E+01 0.  0.
    9000005    1    3    3    0    0 -0.24808847221E+02  0.40052728532E+02 -0.54067680574E+03  0.54272655014E+03  0.10000000000E+01 0.  0.
<mgrwt>
<rscale>  0 0.12499218E+03</rscale>
<asrwt>0</asrwt>
<pdfrwt beam="2">  1        4 0.10059996E+00 0.12499218E+03</pdfrwt>
<pdfrwt beam="1">  1       -4 0.91892727E-03 0.12499218E+03</pdfrwt>
<totfact> 0.45298874E+03</totfact>
</mgrwt>
</event>
<event>
 5    1  0.3309811E-002  0.1250007E+03  0.7818608E-02  0.1235068E+00
          4   -1    0    0  501    0  0.00000000000E+00  0.00000000000E+00  0.47741756514E+02  0.47758645448E+02  0.12700000000E+01 0.  1.
         -4   -1    0    0    0  501 -0.00000000000E+00 -0.00000000000E+00 -0.81785055726E+02  0.81794915735E+02  0.12700000000E+01 0.  1.
         25    2    1    2    0    0  0.00000000000E+00  0.00000000000E+00 -0.34043299212E+02  0.12955356118E+03  0.12500071597E+03 0.  0.
    9000005    1    3    3    0    0 -0.42773484240E+02 -0.45461164770E+02 -0.20132003983E+02  0.65594100654E+02  0.10000000000E+01 0.  0.
    9000005    1    3    3    0    0  0.42773484240E+02  0.45461164770E+02 -0.13911295229E+02  0.63959460529E+02  0.10000000000E+01 0.  0.
<mgrwt>
<rscale>  0 0.12500072E+03</rscale>
<asrwt>0</asrwt>
<pdfrwt beam="1">  1        4 0.73469433E-02 0.12500072E+03</pdfrwt>
<pdfrwt beam="2">  1       -4 0.12584374E-01 0.12500072E+03</pdfrwt>
<totfact> 0.10353900E+04</totfact>
</mgrwt>
</event>
<event>
 5    1  0.3309811E-002  0.1249922E+03  0.7818608E-02  0.1235081E+00
         -4   -1    0    0    0  501 -0.00000000000E+00  0.00000000000E+00  0.21940329638E+03  0.21940697200E+03  0.12700000000E+01 0.  1.
          4   -1    0    0  501    0  0.00000000000E+00 -0.00000000000E+00 -0.17775281077E+02  0.17820592508E+02  0.12700000000E+01 0.  1.
         25    2    1    2    0    0  0.00000000000E+00  0.00000000000E+00  0.20162801531E+03  0.23722756451E+03  0.12499224299E+03 0.  0.
    9000005    1    3    3    0    0 -0.35790239195E+02 -0.22594823981E+01  0.36900177790E+01  0.36064701767E+02  0.10000000000E+01 0.  0.
    9000005    1    3    3    0    0  0.35790239195E+02  0.22594823981E+01  0.19793799753E+03  0.20116286274E+03  0.10000000000E+01 0.  0.
<mgrwt>
<rscale>  0 0.12499224E+03</rscale>
<asrwt>0</asrwt>
<pdfrwt beam="2">  1        4 0.27384267E-02 0.12499224E+03</pdfrwt>
<pdfrwt beam="1">  1       -4 0.33758123E-01 0.12499224E+03</pdfrwt>
<totfact> 0.84226578E+03</totfact>
</mgrwt>
</event>
<event>
 5    1  0.3309811E-002  0.1250021E+03  0.7818608E-02  0.1235066E+00
          4   -1    0    0  501    0  0.00000000000E+00  0.00000000000E+00  0.40210177521E+02  0.40230228390E+02  0.12700000000E+01 0. -1.
         -4   -1    0    0    0  501 -0.00000000000E+00 -0.00000000000E+00 -0.97100701567E+02  0.97109006507E+02  0.12700000000E+01 0. -1.
         25    2    1    2    0    0  0.00000000000E+00  0.00000000000E+00 -0.56890524045E+02  0.13733923490E+03  0.12500213485E+03 0.  0.
    9000005    1    3    3    0    0  0.62009053412E+02 -0.71807042515E+01 -0.25204910338E+02  0.67327354944E+02  0.10000000000E+01 0.  0.
    9000005    1    3    3    0    0 -0.62009053412E+02  0.71807042515E+01 -0.31685613707E+02  0.70011879953E+02  0.10000000000E+01 0.  0.
<mgrwt>
<rscale>  0 0.12500213E+03</rscale>
<asrwt>0</asrwt>
<pdfrwt beam="1">  1        4 0.61883624E-02 0.12500213E+03</pdfrwt>
<pdfrwt beam="2">  1       -4 0.14940751E-01 0.12500213E+03</pdfrwt>
<totfact> 0.10188507E+04</totfact>
</mgrwt>
</event>
<event>
 5    1  0.3309811E-002  0.1249971E+03  0.7818608E-02  0.1235074E+00
          4   -1    0    0  501    0  0.00000000000E+00  0.00000000000E+00  0.19016296208E+03  0.19016720287E+03  0.12700000000E+01 0. -1.
         -4   -1    0    0    0  501 -0.00000000000E+00 -0.00000000000E+00 -0.20516522400E+02  0.20555792162E+02  0.12700000000E+01 0. -1.
         25    2    1    2    0    0  0.00000000000E+00  0.00000000000E+00  0.16964643968E+03  0.21072299503E+03  0.12499706452E+03 0.  0.
    9000005    1    3    3    0    0 -0.13275443543E+02  0.11045580846E+02 -0.16422018820E+02  0.23852147904E+02  0.10000000000E+01 0.  0.
    9000005    1    3    3    0    0  0.13275443543E+02 -0.11045580846E+02  0.18606845850E+03  0.18687084713E+03  0.10000000000E+01 0.  0.
<mgrwt>
<rscale>  0 0.12499706E+03</rscale>
<asrwt>0</asrwt>
<pdfrwt beam="1">  1        4 0.29259188E-01 0.12499706E+03</pdfrwt>
<pdfrwt beam="2">  1       -4 0.31597349E-02 0.12499706E+03</pdfrwt>
<totfact> 0.88363739E+03</totfact>
</mgrwt>
</event>
<event>
 5    1  0.3309811E-002  0.1250036E+03  0.7818608E-02  0.1235064E+00
          4   -1    0    0  501    0  0.00000000000E+00  0.00000000000E+00  0.44311949338E+03  0.44312131331E+03  0.12700000000E+01 0. -1.
         -4   -1    0    0    0  501 -0.00000000000E+00 -0.00000000000E+00 -0.87682672835E+01  0.88597636060E+01  0.12700000000E+01 0. -1.
         25    2    1    2    0    0  0.00000000000E+00  0.00000000000E+00  0.43435122610E+03  0.45198107692E+03  0.12500362508E+03 0.  0.
    9000005    1    3    3    0    0  0.51739727206E+01 -0.60552207507E+02  0.16451261332E+03  0.17538169736E+03  0.10000000000E+01 0.  0.
    9000005    1    3    3    0    0 -0.51739727206E+01  0.60552207507E+02  0.26983861278E+03  0.27659937956E+03  0.10000000000E+01 0.  0.
<mgrwt>
<rscale>  0 0.12500363E+03</rscale>
<asrwt>0</asrwt>
<pdfrwt beam="1">  1        4 0.68179394E-01 0.12500363E+03</pdfrwt>
<pdfrwt beam="2">  1       -4 0.13561426E-02 0.12500363E+03</pdfrwt>
<totfact> 0.59787789E+03</totfact>
</mgrwt>
</event>
<event>
 5    1  0.3309811E-002  0.1249989E+03  0.7818608E-02  0.1235071E+00
          4   -1    0    0  501    0  0.00000000000E+00  0.00000000000E+00  0.60207407836E+01  0.61532283871E+01  0.12700000000E+01 0.  1.
         -4   -1    0    0    0  501 -0.00000000000E+00 -0.00000000000E+00 -0.64159357822E+03  0.64159483517E+03  0.12700000000E+01 0.  1.
         25    2    1    2    0    0  0.00000000000E+00  0.00000000000E+00 -0.63557283744E+03  0.64774806355E+03  0.12499888860E+03 0.  0.
    9000005    1    3    3    0    0 -0.21825406616E+02  0.31103398431E+02 -0.60692372126E+02  0.71612385816E+02  0.10000000000E+01 0.  0.
    9000005    1    3    3    0    0  0.21825406616E+02 -0.31103398431E+02 -0.57488046531E+03  0.57613567774E+03  0.10000000000E+01 0.  0.
<mgrwt>
<rscale>  0 0.12499889E+03</rscale>
<asrwt>0</asrwt>
<pdfrwt beam="1">  1        4 0.93655636E-03 0.12499889E+03</pdfrwt>
<pdfrwt beam="2">  1       -4 0.98716939E-01 0.12499889E+03</pdfrwt>
<totfact> 0.45986949E+03</totfact>
</mgrwt>
</event>
<event>
 5    1  0.3309811E-002  0.1249999E+03  0.7818608E-02  0.1235069E+00
          4   -1    0    0  501    0  0.00000000000E+00  0.00000000000E+00  0.91776734187E+03  0.91776822058E+03  0.12700000000E+01 0.  1.
         -4   -1    0    0    0  501 -0.00000000000E+00 -0.00000000000E+00 -0.41606088245E+01  0.43501225030E+01  0.12700000000E+01 0.  1.
         25    2    1    2    0    0  0.00000000000E+00  0.00000000000E+00  0.91360673304E+03  0.92211834308E+03  0.12499990392E+03 0.  0.
    9000005    1    3    3    0    0  0.15553145009E+02  0.58820294699E+02  0.35156431900E+03  0.35679153267E+03  0.10000000000E+01 0.  0.
    9000005    1    3    3    0    0 -0.15553145009E+02 -0.58820294699E+02  0.56204241404E+03  0.56532681041E+03  0.10000000000E+01 0.  0.
<mgrwt>
<rscale>  0 0.12499990E+03</rscale>
<asrwt>0</asrwt>
<pdfrwt beam="1">  1        4 0.14120956E+00 0.12499990E+03</pdfrwt>
<pdfrwt beam="2">  1       -4 0.65473953E-03 0.12499990E+03</pdfrwt>
<totfact> 0.33327087E+03</totfact>
</mgrwt>
</event>
<event>
 5    1  0.3309811E-002  0.1249994E+03  0.7818608E-02  0.1235070E+00
         -4   -1    0    0    0  501 -0.00000000000E+00  0.00000000000E+00  0.19314321158E+03  0.19314738694E+03  0.12700000000E+01 0. -1.
          4   -1    0    0  501    0  0.00000000000E+00 -0.00000000000E+00 -0.20200111736E+02  0.20239995409E+02  0.12700000000E+01 0. -1.
         25    2    1    2    0    0  0.00000000000E+00  0.00000000000E+00  0.17294309985E+03  0.21338738235E+03  0.12499943664E+03 0.  0.
    9000005    1    3    3    0    0  0.10607131435E+01  0.62096340931E+02  0.98315244548E+02  0.11629259641E+03  0.10000000000E+01 0.  0.
    9000005    1    3    3    0    0 -0.10607131435E+01 -0.62096340931E+02  0.74627855299E+02  0.97094785936E+02  0.10000000000E+01 0.  0.
<mgrwt>
<rscale>  0 0.12499944E+03</rscale>
<asrwt>0</asrwt>
<pdfrwt beam="2">  1        4 0.31110986E-02 0.12499944E+03</pdfrwt>
<pdfrwt beam="1">  1       -4 0.29717730E-01 0.12499944E+03</pdfrwt>
<totfact> 0.87926754E+03</totfact>
</mgrwt>
</event>
<event>
 5    1  0.3309811E-002  0.1250032E+03  0.7818608E-02  0.1235064E+00
          4   -1    0    0  501    0  0.00000000000E+00  0.00000000000E+00  0.20373800692E+03  0.20374196515E+03  0.12700000000E+01 0. -1.
         -4   -1    0    0    0  501 -0.00000000000E+00 -0.00000000000E+00 -0.19148701831E+02  0.19190770746E+02  0.12700000000E+01 0. -1.
         25    2    1    2    0    0  0.00000000000E+00  0.00000000000E+00  0.18458930509E+03  0.22293273590E+03  0.12500317269E+03 0.  0.
    9000005    1    3    3    0    0 -0.22750918097E+02 -0.46896528535E+02  0.30810484912E+02  0.60557201417E+02  0.10000000000E+01 0.  0.
    9000005    1    3    3    0    0  0.22750918097E+02  0.46896528535E+02  0.15377882018E+03  0.16237553448E+03  0.10000000000E+01 0.  0.
<mgrwt>
<rscale>  0 0.12500317E+03</rscale>
<asrwt>0</asrwt>
<pdfrwt beam="1">  1        4 0.31347847E-01 0.12500317E+03</pdfrwt>
<pdfrwt beam="2">  1       -4 0.29494949E-02 0.12500317E+03</pdfrwt>
<totfact> 0.86400279E+03</totfact>
</mgrwt>
</event>
<event>
 5    1  0.3309811E-002  0.1250008E+03  0.7818608E-02  0.1235068E+00
         -4   -1    0    0    0  501 -0.00000000000E+00  0.00000000000E+00  0.81747394470E+02  0.81757259021E+02  0.12700000000E+01 0.  1.
          4   -1    0    0  501    0  0.00000000000E+00 -0.00000000000E+00 -0.47763820523E+02  0.47780701659E+02  0.12700000000E+01 0.  1.
         25    2    1    2    0    0  0.00000000000E+00  0.00000000000E+00  0.33983573946E+02  0.12953796068E+03  0.12500079983E+03 0.  0.
    9000005    1    3    3    0    0  0.40514377161E+02  0.97675238920E+00 -0.32305150244E+02  0.51836199073E+02  0.10000000000E+01 0.  0.
    9000005    1    3    3    0    0 -0.40514377161E+02 -0.97675238920E+00  0.66288724191E+02  0.77701761607E+02  0.10000000000E+01 0.  0.
<mgrwt>
<rscale>  0 0.12500080E+03</rscale>
<asrwt>0</asrwt>
<pdfrwt beam="2">  1        4 0.73503375E-02 0.12500080E+03</pdfrwt>
<pdfrwt beam="1">  1       -4 0.12578580E-01 0.12500080E+03</pdfrwt>
<totfact> 0.10354214E+04</totfact>
</mgrwt>
</event>
<event>
 5    1  0.3309811E-002  0.1250008E+03  0.7818608E-02  0.1235068E+00
         -4   -1    0    0    0  501 -0.00000000000E+00  0.00000000000E+00  0.10359440452E+03  0.10360218891E+03  0.12700000000E+01 0.  1.
          4   -1    0    0  501    0  0.00000000000E+00 -0.00000000000E+00 -0.37687735738E+02  0.37709127875E+02  0.12700000000E+01 0.  1.
         25    2    1    2    0    0  0.00000000000E+00  0.00000000000E+00  0.65906668779E+02  0.14131131679E+03  0.12500079705E+03 0.  0.
    9000005    1    3    3    0    0  0.28537077957E+02 -0.39432949681E+02  0.77258726527E+02  0.91319401900E+02  0.10000000000E+01 0.  0.
    9000005    1    3    3    0    0 -0.28537077957E+02  0.39432949681E+02 -0.11352057748E+02  0.49991914886E+02  0.10000000000E+01 0.  0.
<mgrwt>
<rscale>  0 0.12500080E+03</rscale>
<asrwt>0</asrwt>
<pdfrwt beam="2">  1        4 0.58003576E-02 0.12500080E+03</pdfrwt>
<pdfrwt beam="1">  1       -4 0.15939845E-01 0.12500080E+03</pdfrwt>
<totfact> 0.10106299E+04</totfact>
</mgrwt>
</event>
<event>
 5    1  0.3309811E-002  0.1249997E+03  0.7818608E-02  0.1235070E+00
         -4   -1    0    0    0  501 -0.00000000000E+00  0.00000000000E+00  0.67016479213E+02  0.67028511740E+02  0.12700000000E+01 0.  1.
          4   -1    0    0  501    0  0.00000000000E+00 -0.00000000000E+00 -0.58263443294E+02  0.58277283091E+02  0.12700000000E+01 0.  1.
         25    2    1    2    0    0  0.00000000000E+00  0.00000000000E+00  0.87530359184E+01  0.12530579483E+03  0.12499970632E+03 0.  0.
    9000005    1    3    3    0    0  0.38795241585E+02  0.20530427605E+02 -0.40214564539E+02  0.59538058654E+02  0.10000000000E+01 0.  0.
    9000005    1    3    3    0    0 -0.38795241585E+02 -0.20530427605E+02  0.48967600457E+02  0.65767736177E+02  0.10000000000E+01 0.  0.
<mgrwt>
<rscale>  0 0.12499971E+03</rscale>
<asrwt>0</asrwt>
<pdfrwt beam="2">  1        4 0.89655968E-02 0.12499971E+03</pdfrwt>
<pdfrwt beam="1">  1       -4 0.10312218E-01 0.12499971E+03</pdfrwt>
<totfact> 0.10446294E+04</totfact>
</mgrwt>
</event>
<event>
 5    1  0.3309811E-002  0.1250013E+03  0.7818608E-02  0.1235067E+00
         -4   -1    0    0    0  501 -0.00000000000E+00  0.00000000000E+00  0.12388829200E+04  0.12388835709E+04  0.12700000000E+01 0.  1.
          4   -1    0    0  501    0  0.00000000000E+00 -0.00000000000E+00 -0.30245501044E+01  0.32803663414E+01  0.12700000000E+01 0.  1.
         25    2    1    2    0    0  0.00000000000E+00  0.00000000000E+00  0.12358583699E+04  0.12421639373E+04  0.12500134665E+03 0.  0.
    9000005    1    3    3    0    0 -0.12578604891E+02 -0.55351344226E+01  0.12237299836E+04  0.12238075551E+04  0.10000000000E+01 0.  0.
    9000005    1    3    3    0    0  0.12578604891E+02  0.55351344226E+01  0.12128386210E+02  0.18356382164E+02  0.10000000000E+01 0.  0.
<mgrwt>
<rscale>  0 0.12500135E+03</rscale>
<asrwt>0</asrwt>
<pdfrwt beam="2">  1        4 0.48504405E-03 0.12500135E+03</pdfrwt>
<pdfrwt beam="1">  1       -4 0.19061694E+00 0.12500135E+03</pdfrwt>
<totfact> 0.23634337E+03</totfact>
</mgrwt>
</event>
<event>
 5    1  0.3309811E-002  0.1250133E+03  0.7818608E-02  0.1235049E+00
         -4   -1    0    0    0  501 -0.00000000000E+00  0.00000000000E+00  0.17302842057E+03  0.17303308130E+03  0.12700000000E+01 0.  1.
          4   -1    0    0  501    0  0.00000000000E+00 -0.00000000000E+00 -0.22557737684E+02  0.22593459882E+02  0.12700000000E+01 0.  1.
         25    2    1    2    0    0  0.00000000000E+00  0.00000000000E+00  0.15047068288E+03  0.19562654118E+03  0.12501326812E+03 0.  0.
    9000005    1    3    3    0    0  0.50910870087E+01  0.59942212395E+02  0.48720948414E+02  0.77419111388E+02  0.10000000000E+01 0.  0.
    9000005    1    3    3    0    0 -0.50910870087E+01 -0.59942212395E+02  0.10174973447E+03  0.11820742979E+03  0.10000000000E+01 0.  0.
<mgrwt>
<rscale>  0 0.12501327E+03</rscale>
<asrwt>0</asrwt>
<pdfrwt beam="2">  1        4 0.34735274E-02 0.12501327E+03</pdfrwt>
<pdfrwt beam="1">  1       -4 0.26622864E-01 0.12501327E+03</pdfrwt>
<totfact> 0.90850436E+03</totfact>
</mgrwt>
</event>
<event>
 5    1  0.3309811E-002  0.1250004E+03  0.7818608E-02  0.1235069E+00
         -4   -1    0    0    0  501 -0.00000000000E+00  0.00000000000E+00  0.47097399799E+02  0.47114519714E+02  0.12700000000E+01 0. -1.
          4   -1    0    0  501    0  0.00000000000E+00 -0.00000000000E+00 -0.82903337468E+02  0.82913064492E+02  0.12700000000E+01 0. -1.
         25    2    1    2    0    0  0.00000000000E+00  0.00000000000E+00 -0.35805937669E+02  0.13002758421E+03  0.12500042993E+03 0.  0.
    9000005    1    3    3    0    0  0.26401209763E+02 -0.56492970881E+02 -0.22166239250E+02  0.66187776805E+02  0.10000000000E+01 0.  0.
    9000005    1    3    3    0    0 -0.26401209763E+02  0.56492970881E+02 -0.13639698419E+02  0.63839807400E+02  0.10000000000E+01 0.  0.
<mgrwt>
<rscale>  0 0.12500043E+03</rscale>
<asrwt>0</asrwt>
<pdfrwt beam="2">  1        4 0.12756425E-01 0.12500043E+03</pdfrwt>
<pdfrwt beam="1">  1       -4 0.72478190E-02 0.12500043E+03</pdfrwt>
<totfact> 0.10343817E+04</totfact>
</mgrwt>
</event>
<event>
 5    1  0.3309811E-002  0.1249996E+03  0.7818608E-02  0.1235070E+00
          4   -1    0    0  501    0  0.00000000000E+00  0.00000000000E+00  0.29089120280E+02  0.29116830506E+02  0.12700000000E+01 0.  1.
         -4   -1    0    0    0  501 -0.00000000000E+00 -0.00000000000E+00 -0.13419014929E+03  0.13419615891E+03  0.12700000000E+01 0.  1.
         25    2    1    2    0    0  0.00000000000E+00  0.00000000000E+00 -0.10510102901E+03  0.16331298941E+03  0.12499962485E+03 0.  0.
    9000005    1    3    3    0    0 -0.11653639736E+02  0.26547046516E+02  0.19777097984E+02  0.35109636889E+02  0.10000000000E+01 0.  0.
    9000005    1    3    3    0    0  0.11653639736E+02 -0.26547046516E+02 -0.12487812699E+03  0.12820335253E+03  0.10000000000E+01 0.  0.
<mgrwt>
<rscale>  0 0.12499962E+03</rscale>
<asrwt>0</asrwt>
<pdfrwt beam="1">  1        4 0.44778432E-02 0.12499962E+03</pdfrwt>
<pdfrwt beam="2">  1       -4 0.20647232E-01 0.12499962E+03</pdfrwt>
<totfact> 0.96708658E+03</totfact>
</mgrwt>
</event>
<event>
 5    1  0.3309811E-002  0.1250012E+03  0.7818608E-02  0.1235067E+00
         -4   -1    0    0    0  501 -0.00000000000E+00  0.00000000000E+00  0.29890693470E+02  0.29917661274E+02  0.12700000000E+01 0.  1.
          4   -1    0    0  501    0  0.00000000000E+00 -0.00000000000E+00 -0.13059791809E+03  0.13060409300E+03  0.12700000000E+01 0.  1.
         25    2    1    2    0    0  0.00000000000E+00  0.00000000000E+00 -0.10070722462E+03  0.16052175427E+03  0.12500115402E+03 0.  0.
    9000005    1    3    3    0    0  0.59509798052E+02 -0.15918113370E+02 -0.36853425430E+02  0.71791206728E+02  0.10000000000E+01 0.  0.
    9000005    1    3    3    0    0 -0.59509798052E+02  0.15918113370E+02 -0.63853799187E+02  0.88730547547E+02  0.10000000000E+01 0.  0.
<mgrwt>
<rscale>  0 0.12500115E+03</rscale>
<asrwt>0</asrwt>
<pdfrwt beam="2">  1        4 0.20094537E-01 0.12500115E+03</pdfrwt>
<pdfrwt beam="1">  1       -4 0.46011177E-02 0.12500115E+03</pdfrwt>
<totfact> 0.97239767E+03</totfact>
</mgrwt>
</event>
<event>
 5    1  0.3309811E-002  0.1250049E+03  0.7818608E-02  0.1235062E+00
          4   -1    0    0  501    0  0.00000000000E+00  0.00000000000E+00  0.55751876534E+02  0.55766339642E+02  0.12700000000E+01 0. -1.
         -4   -1    0    0    0  501 -0.00000000000E+00 -0.00000000000E+00 -0.70041105796E+02  0.70052618802E+02  0.12700000000E+01 0. -1.
         25    2    1    2    0    0  0.00000000000E+00  0.00000000000E+00 -0.14289229261E+02  0.12581895844E+03  0.12500491283E+03 0.  0.
    9000005    1    3    3    0    0 -0.16290614924E+02  0.51764421274E+02 -0.38340281702E+02  0.66452363731E+02  0.10000000000E+01 0.  0.
    9000005    1    3    3    0    0  0.16290614924E+02 -0.51764421274E+02  0.24051052441E+02  0.59366594714E+02  0.10000000000E+01 0.  0.
<mgrwt>
<rscale>  0 0.12500491E+03</rscale>
<asrwt>0</asrwt>
<pdfrwt beam="1">  1        4 0.85792099E-02 0.12500491E+03</pdfrwt>
<pdfrwt beam="2">  1       -4 0.10777553E-01 0.12500491E+03</pdfrwt>
<totfact> 0.10433772E+04</totfact>
</mgrwt>
</event>
<event>
 5    1  0.3309811E-002  0.1249997E+03  0.7818608E-02  0.1235070E+00
         -4   -1    0    0    0  501 -0.00000000000E+00  0.00000000000E+00  0.46220569835E+02  0.46238014402E+02  0.12700000000E+01 0. -1.
          4   -1    0    0  501    0  0.00000000000E+00 -0.00000000000E+00 -0.84474655451E+02  0.84484201562E+02  0.12700000000E+01 0. -1.
         25    2    1    2    0    0  0.00000000000E+00  0.00000000000E+00 -0.38254085616E+02  0.13072221596E+03  0.12499969072E+03 0.  0.
    9000005    1    3    3    0    0  0.45288646875E+02  0.31944167565E+02 -0.49323472565E+02  0.74197684082E+02  0.10000000000E+01 0.  0.
    9000005    1    3    3    0    0 -0.45288646875E+02 -0.31944167565E+02  0.11069386949E+02  0.56524531883E+02  0.10000000000E+01 0.  0.
<mgrwt>
<rscale>  0 0.12499969E+03</rscale>
<asrwt>0</asrwt>
<pdfrwt beam="2">  1        4 0.12998177E-01 0.12499969E+03</pdfrwt>
<pdfrwt beam="1">  1       -4 0.71129331E-02 0.12499969E+03</pdfrwt>
<totfact> 0.10329120E+04</totfact>
</mgrwt>
</event>
<event>
 5    1  0.3309811E-002  0.1250006E+03  0.7818608E-02  0.1235068E+00
          4   -1    0    0  501    0  0.00000000000E+00  0.00000000000E+00  0.71268979010E+01  0.72391694061E+01  0.12700000000E+01 0. -1.
         -4   -1    0    0    0  501 -0.00000000000E+00 -0.00000000000E+00 -0.54370816839E+03  0.54370965162E+03  0.12700000000E+01 0. -1.
         25    2    1    2    0    0  0.00000000000E+00  0.00000000000E+00 -0.53658127049E+03  0.55094882103E+03  0.12500057424E+03 0.  0.
    9000005    1    3    3    0    0  0.31100445222E+02 -0.54203558419E+02 -0.26763021033E+03  0.27483120806E+03  0.10000000000E+01 0.  0.
    9000005    1    3    3    0    0 -0.31100445222E+02  0.54203558419E+02 -0.26895106015E+03  0.27611761298E+03  0.10000000000E+01 0.  0.
<mgrwt>
<rscale>  0 0.12500057E+03</rscale>
<asrwt>0</asrwt>
<pdfrwt beam="1">  1        4 0.11051966E-02 0.12500057E+03</pdfrwt>
<pdfrwt beam="2">  1       -4 0.83656128E-01 0.12500057E+03</pdfrwt>
<totfact> 0.52117217E+03</totfact>
</mgrwt>
</event>
<event>
 5    1  0.3309811E-002  0.1249967E+03  0.7818608E-02  0.1235074E+00
         -4   -1    0    0    0  501 -0.00000000000E+00  0.00000000000E+00  0.26691962319E+01  0.29559276927E+01  0.12700000000E+01 0.  1.
          4   -1    0    0  501    0  0.00000000000E+00 -0.00000000000E+00 -0.13884970695E+04  0.13884976503E+04  0.12700000000E+01 0.  1.
         25    2    1    2    0    0  0.00000000000E+00  0.00000000000E+00 -0.13858278732E+04  0.13914535780E+04  0.12499666157E+03 0.  0.
    9000005    1    3    3    0    0  0.53727775292E+00 -0.18052722085E+02 -0.13588647778E+04  0.13589851632E+04  0.10000000000E+01 0.  0.
    9000005    1    3    3    0    0 -0.53727775292E+00  0.18052722085E+02 -0.26963095412E+02  0.32468414748E+02  0.10000000000E+01 0.  0.
<mgrwt>
<rscale>  0 0.12499666E+03</rscale>
<asrwt>0</asrwt>
<pdfrwt beam="2">  1        4 0.21363649E+00 0.12499666E+03</pdfrwt>
<pdfrwt beam="1">  1       -4 0.43274763E-03 0.12499666E+03</pdfrwt>
<totfact> 0.20166618E+03</totfact>
</mgrwt>
</event>
<event>
 5    1  0.3309811E-002  0.1249972E+03  0.7818608E-02  0.1235074E+00
          4   -1    0    0  501    0  0.00000000000E+00  0.00000000000E+00  0.87715590534E+02  0.87724783971E+02  0.12700000000E+01 0. -1.
         -4   -1    0    0    0  501 -0.00000000000E+00 -0.00000000000E+00 -0.44510539070E+02  0.44528653565E+02  0.12700000000E+01 0. -1.
         25    2    1    2    0    0  0.00000000000E+00  0.00000000000E+00  0.43205051464E+02  0.13225343754E+03  0.12499718104E+03 0.  0.
    9000005    1    3    3    0    0 -0.86935498385E+01 -0.52746564722E+02  0.55843132784E+02  0.77312569339E+02  0.10000000000E+01 0.  0.
    9000005    1    3    3    0    0  0.86935498385E+01  0.52746564722E+02 -0.12638081319E+02  0.54940868197E+02  0.10000000000E+01 0.  0.
<mgrwt>
<rscale>  0 0.12499718E+03</rscale>
<asrwt>0</asrwt>
<pdfrwt beam="1">  1        4 0.13496806E-01 0.12499718E+03</pdfrwt>
<pdfrwt beam="2">  1       -4 0.68498760E-02 0.12499718E+03</pdfrwt>
<totfact> 0.10296947E+04</totfact>
</mgrwt>
</event>
<event>
 5    1  0.3309811E-002  0.1250011E+03  0.7818608E-02  0.1235068E+00
          4   -1    0    0  501    0  0.00000000000E+00  0.00000000000E+00  0.11157296219E+03  0.11158018996E+03  0.12700000000E+01 0. -1.
         -4   -1    0    0    0  501 -0.00000000000E+00 -0.00000000000E+00 -0.34991461523E+02  0.35014500990E+02  0.12700000000E+01 0. -1.
         25    2    1    2    0    0  0.00000000000E+00  0.00000000000E+00  0.76581500664E+02  0.14659469095E+03  0.12500110868E+03 0.  0.
    9000005    1    3    3    0    0 -0.43419215785E+02  0.44881130735E+02  0.41109029590E+02  0.74769622905E+02  0.10000000000E+01 0.  0.
    9000005    1    3    3    0    0  0.43419215785E+02 -0.44881130735E+02  0.35472471075E+02  0.71825068044E+02  0.10000000000E+01 0.  0.
<mgrwt>
<rscale>  0 0.12500111E+03</rscale>
<asrwt>0</asrwt>
<pdfrwt beam="1">  1        4 0.17167399E-01 0.12500111E+03</pdfrwt>
<pdfrwt beam="2">  1       -4 0.53856301E-02 0.12500111E+03</pdfrwt>
<totfact> 0.99984384E+03</totfact>
</mgrwt>
</event>
<event>
 5    1  0.3309811E-002  0.1250067E+03  0.7818608E-02  0.1235059E+00
         -4   -1    0    0    0  501 -0.00000000000E+00  0.00000000000E+00  0.92508617911E+03  0.92508705087E+03  0.12700000000E+01 0.  1.
          4   -1    0    0  501    0  0.00000000000E+00 -0.00000000000E+00 -0.41266583204E+01  0.43176624339E+01  0.12700000000E+01 0.  1.
         25    2    1    2    0    0  0.00000000000E+00  0.00000000000E+00  0.92095952079E+03  0.92940471330E+03  0.12500672850E+03 0.  0.
    9000005    1    3    3    0    0 -0.34268831314E+02  0.23367727799E+02  0.11292460192E+03  0.12030531668E+03  0.10000000000E+01 0.  0.
    9000005    1    3    3    0    0  0.34268831314E+02 -0.23367727799E+02  0.80803491887E+03  0.80909939663E+03  0.10000000000E+01 0.  0.
<mgrwt>
<rscale>  0 0.12500673E+03</rscale>
<asrwt>0</asrwt>
<pdfrwt beam="2">  1        4 0.64962935E-03 0.12500673E+03</pdfrwt>
<pdfrwt beam="1">  1       -4 0.14233589E+00 0.12500673E+03</pdfrwt>
<totfact> 0.33053757E+03</totfact>
</mgrwt>
</event>
<event>
 5    1  0.3309811E-002  0.1249998E+03  0.7818608E-02  0.1235070E+00
         -4   -1    0    0    0  501 -0.00000000000E+00  0.00000000000E+00  0.86385155727E+01  0.87313716734E+01  0.12700000000E+01 0. -1.
          4   -1    0    0  501    0  0.00000000000E+00 -0.00000000000E+00 -0.44967744778E+03  0.44967924117E+03  0.12700000000E+01 0. -1.
         25    2    1    2    0    0  0.00000000000E+00  0.00000000000E+00 -0.44103893221E+03  0.45841061285E+03  0.12499980099E+03 0.  0.
    9000005    1    3    3    0    0 -0.58616412170E+02 -0.76248515940E+01 -0.14615250412E+03  0.15765651460E+03  0.10000000000E+01 0.  0.
    9000005    1    3    3    0    0  0.58616412170E+02  0.76248515940E+01 -0.29488642809E+03  0.30075409824E+03  0.10000000000E+01 0.  0.
<mgrwt>
<rscale>  0 0.12499980E+03</rscale>
<asrwt>0</asrwt>
<pdfrwt beam="2">  1        4 0.69188408E-01 0.12499980E+03</pdfrwt>
<pdfrwt beam="1">  1       -4 0.13362835E-02 0.12499980E+03</pdfrwt>
<totfact> 0.59242315E+03</totfact>
</mgrwt>
</event>
<event>
 5    1  0.3309811E-002  0.1250035E+03  0.7818608E-02  0.1235064E+00
          4   -1    0    0  501    0  0.00000000000E+00  0.00000000000E+00  0.71787134532E+02  0.71798367560E+02  0.12700000000E+01 0.  1.
         -4   -1    0    0    0  501 -0.00000000000E+00 -0.00000000000E+00 -0.54394468507E+02  0.54409292444E+02  0.12700000000E+01 0.  1.
         25    2    1    2    0    0  0.00000000000E+00  0.00000000000E+00  0.17392666024E+02  0.12620766000E+03  0.12500347440E+03 0.  0.
    9000005    1    3    3    0    0  0.48124727231E+02 -0.35878989160E+01  0.48785316815E+02  0.68628489175E+02  0.10000000000E+01 0.  0.
    9000005    1    3    3    0    0 -0.48124727231E+02  0.35878989160E+01 -0.31392650791E+02  0.57579170829E+02  0.10000000000E+01 0.  0.
<mgrwt>
<rscale>  0 0.12500347E+03</rscale>
<asrwt>0</asrwt>
<pdfrwt beam="1">  1        4 0.11046179E-01 0.12500347E+03</pdfrwt>
<pdfrwt beam="2">  1       -4 0.83703842E-02 0.12500347E+03</pdfrwt>
<totfact> 0.10425594E+04</totfact>
</mgrwt>
</event>
<event>
 5    1  0.3309811E-002  0.1249990E+03  0.7818608E-02  0.1235071E+00
          4   -1    0    0  501    0  0.00000000000E+00  0.00000000000E+00  0.51417594314E+03  0.51417751157E+03  0.12700000000E+01 0.  1.
         -4   -1    0    0    0  501 -0.00000000000E+00 -0.00000000000E+00 -0.75423128636E+01  0.76484889575E+01  0.12700000000E+01 0.  1.
         25    2    1    2    0    0  0.00000000000E+00  0.00000000000E+00  0.50663363028E+03  0.52182600053E+03  0.12499895799E+03 0.  0.
    9000005    1    3    3    0    0 -0.33638280835E+01 -0.69414475055E+01  0.51220141914E+03  0.51226047359E+03  0.10000000000E+01 0.  0.
    9000005    1    3    3    0    0  0.33638280835E+01  0.69414475055E+01 -0.55677888610E+01  0.95655269404E+01  0.10000000000E+01 0.  0.
<mgrwt>
<rscale>  0 0.12499896E+03</rscale>
<asrwt>0</asrwt>
<pdfrwt beam="1">  1        4 0.79112277E-01 0.12499896E+03</pdfrwt>
<pdfrwt beam="2">  1       -4 0.11686439E-02 0.12499896E+03</pdfrwt>
<totfact> 0.54211072E+03</totfact>
</mgrwt>
</event>
<event>
 5    1  0.3309811E-002  0.1250005E+03  0.7818608E-02  0.1235068E+00
         -4   -1    0    0    0  501 -0.00000000000E+00  0.00000000000E+00  0.14800033448E+03  0.14800578335E+03  0.12700000000E+01 0.  1.
          4   -1    0    0  501    0  0.00000000000E+00 -0.00000000000E+00 -0.26372526558E+02  0.26403088021E+02  0.12700000000E+01 0.  1.
         25    2    1    2    0    0  0.00000000000E+00  0.00000000000E+00  0.12162780792E+03  0.17440887137E+03  0.12500052301E+03 0.  0.
    9000005    1    3    3    0    0 -0.31254607049E+02 -0.24429117672E+01 -0.14613881473E+02  0.34603234118E+02  0.10000000000E+01 0.  0.
    9000005    1    3    3    0    0  0.31254607049E+02  0.24429117672E+01  0.13624168939E+03  0.13980563725E+03  0.10000000000E+01 0.  0.
<mgrwt>
<rscale>  0 0.12500052E+03</rscale>
<asrwt>0</asrwt>
<pdfrwt beam="2">  1        4 0.40600818E-02 0.12500052E+03</pdfrwt>
<pdfrwt beam="1">  1       -4 0.22772052E-01 0.12500052E+03</pdfrwt>
<totfact> 0.94632105E+03</totfact>
</mgrwt>
</event>
<event>
 5    1  0.3309811E-002  0.1250005E+03  0.7818608E-02  0.1235068E+00
         -4   -1    0    0    0  501 -0.00000000000E+00  0.00000000000E+00  0.26925934601E+02  0.26955868640E+02  0.12700000000E+01 0.  1.
          4   -1    0    0  501    0  0.00000000000E+00 -0.00000000000E+00 -0.14496175910E+03  0.14496732218E+03  0.12700000000E+01 0.  1.
         25    2    1    2    0    0  0.00000000000E+00  0.00000000000E+00 -0.11803582450E+03  0.17192319082E+03  0.12500051071E+03 0.  0.
    9000005    1    3    3    0    0  0.13822029857E+02  0.50088353868E+02 -0.10676935598E+03  0.11874589289E+03  0.10000000000E+01 0.  0.
    9000005    1    3    3    0    0 -0.13822029857E+02 -0.50088353868E+02 -0.11266468520E+02  0.53177297933E+02  0.10000000000E+01 0.  0.
<mgrwt>
<rscale>  0 0.12500051E+03</rscale>
<asrwt>0</asrwt>
<pdfrwt beam="2">  1        4 0.22304539E-01 0.12500051E+03</pdfrwt>
<pdfrwt beam="1">  1       -4 0.41451821E-02 0.12500051E+03</pdfrwt>
<totfact> 0.95090301E+03</totfact>
</mgrwt>
</event>
<event>
 5    1  0.3309811E-002  0.1250492E+03  0.7818608E-02  0.1234992E+00
          4   -1    0    0  501    0  0.00000000000E+00  0.00000000000E+00  0.35621137599E+03  0.35621363995E+03  0.12700000000E+01 0. -1.
         -4   -1    0    0    0  501 -0.00000000000E+00 -0.00000000000E+00 -0.10935693161E+02  0.11009190929E+02  0.12700000000E+01 0. -1.
         25    2    1    2    0    0  0.00000000000E+00  0.00000000000E+00  0.34527568283E+03  0.36722283087E+03  0.12504923176E+03 0.  0.
    9000005    1    3    3    0    0  0.12605607111E+02  0.55951275824E+02  0.99582458909E+02  0.11492220290E+03  0.10000000000E+01 0.  0.
    9000005    1    3    3    0    0 -0.12605607111E+02 -0.55951275824E+02  0.24569322392E+03  0.25230062797E+03  0.10000000000E+01 0.  0.
<mgrwt>
<rscale>  0 0.12504923E+03</rscale>
<asrwt>0</asrwt>
<pdfrwt beam="1">  1        4 0.54807569E-01 0.12504923E+03</pdfrwt>
<pdfrwt beam="2">  1       -4 0.16882424E-02 0.12504923E+03</pdfrwt>
<totfact> 0.67796661E+03</totfact>
</mgrwt>
</event>
<event>
 5    1  0.3309811E-002  0.1249994E+03  0.7818608E-02  0.1235070E+00
          4   -1    0    0  501    0  0.00000000000E+00  0.00000000000E+00  0.14551717758E+02  0.14607032200E+02  0.12700000000E+01 0. -1.
         -4   -1    0    0    0  501 -0.00000000000E+00 -0.00000000000E+00 -0.26787046955E+03  0.26787348013E+03  0.12700000000E+01 0. -1.
         25    2    1    2    0    0  0.00000000000E+00  0.00000000000E+00 -0.25331875179E+03  0.28248051233E+03  0.12499939934E+03 0.  0.
    9000005    1    3    3    0    0  0.58614525986E+02  0.20641892197E+02 -0.11176110506E+03  0.12788000224E+03  0.10000000000E+01 0.  0.
    9000005    1    3    3    0    0 -0.58614525986E+02 -0.20641892197E+02 -0.14155764673E+03  0.15460051009E+03  0.10000000000E+01 0.  0.
<mgrwt>
<rscale>  0 0.12499940E+03</rscale>
<asrwt>0</asrwt>
<pdfrwt beam="1">  1        4 0.22432125E-02 0.12499940E+03</pdfrwt>
<pdfrwt beam="2">  1       -4 0.41215324E-01 0.12499940E+03</pdfrwt>
<totfact> 0.77851394E+03</totfact>
</mgrwt>
</event>
<event>
 5    1  0.3309811E-002  0.1249991E+03  0.7818608E-02  0.1235071E+00
         -4   -1    0    0    0  501 -0.00000000000E+00  0.00000000000E+00  0.42316717128E+03  0.42316907703E+03  0.12700000000E+01 0. -1.
          4   -1    0    0  501    0  0.00000000000E+00 -0.00000000000E+00 -0.91852355887E+01  0.92726184446E+01  0.12700000000E+01 0. -1.
         25    2    1    2    0    0  0.00000000000E+00  0.00000000000E+00  0.41398193569E+03  0.43244169547E+03  0.12499910760E+03 0.  0.
    9000005    1    3    3    0    0 -0.13514728232E+02  0.60463932890E+02  0.23523655358E+03  0.24326070623E+03  0.10000000000E+01 0.  0.
    9000005    1    3    3    0    0  0.13514728232E+02 -0.60463932890E+02  0.17874538212E+03  0.18918098924E+03  0.10000000000E+01 0.  0.
<mgrwt>
<rscale>  0 0.12499911E+03</rscale>
<asrwt>0</asrwt>
<pdfrwt beam="2">  1        4 0.14199814E-02 0.12499911E+03</pdfrwt>
<pdfrwt beam="1">  1       -4 0.65109515E-01 0.12499911E+03</pdfrwt>
<totfact> 0.61516495E+03</totfact>
</mgrwt>
</event>
<event>
 5    1  0.3309811E-002  0.1250011E+03  0.7818608E-02  0.1235068E+00
          4   -1    0    0  501    0  0.00000000000E+00  0.00000000000E+00  0.20730472738E+03  0.20730861751E+03  0.12700000000E+01 0. -1.
         -4   -1    0    0    0  501 -0.00000000000E+00 -0.00000000000E+00 -0.18817880825E+02  0.18860687653E+02  0.12700000000E+01 0. -1.
         25    2    1    2    0    0  0.00000000000E+00  0.00000000000E+00  0.18848684656E+03  0.22616930516E+03  0.12500105309E+03 0.  0.
    9000005    1    3    3    0    0 -0.37038535960E+02 -0.48586190561E+02  0.11803088486E+03  0.13290884410E+03  0.10000000000E+01 0.  0.
    9000005    1    3    3    0    0  0.37038535960E+02  0.48586190561E+02  0.70455961695E+02  0.93260461063E+02  0.10000000000E+01 0.  0.
<mgrwt>
<rscale>  0 0.12500105E+03</rscale>
<asrwt>0</asrwt>
<pdfrwt beam="1">  1        4 0.31896627E-01 0.12500105E+03</pdfrwt>
<pdfrwt beam="2">  1       -4 0.28986507E-02 0.12500105E+03</pdfrwt>
<totfact> 0.85899276E+03</totfact>
</mgrwt>
</event>
<event>
 5    1  0.3309811E-002  0.1250016E+03  0.7818608E-02  0.1235067E+00
         -4   -1    0    0    0  501 -0.00000000000E+00  0.00000000000E+00  0.70371639356E+03  0.70371753955E+03  0.12700000000E+01 0.  1.
          4   -1    0    0  501    0  0.00000000000E+00 -0.00000000000E+00 -0.54772219711E+01  0.56225315047E+01  0.12700000000E+01 0.  1.
         25    2    1    2    0    0  0.00000000000E+00  0.00000000000E+00  0.69823917159E+03  0.70934007105E+03  0.12500158262E+03 0.  0.
    9000005    1    3    3    0    0 -0.26591684972E+02 -0.51018560812E+02  0.21066075509E+03  0.21837803230E+03  0.10000000000E+01 0.  0.
    9000005    1    3    3    0    0  0.26591684972E+02  0.51018560812E+02  0.48757841650E+03  0.49096203875E+03  0.10000000000E+01 0.  0.
<mgrwt>
<rscale>  0 0.12500158E+03</rscale>
<asrwt>0</asrwt>
<pdfrwt beam="2">  1        4 0.85391534E-03 0.12500158E+03</pdfrwt>
<pdfrwt beam="1">  1       -4 0.10827533E+00 0.12500158E+03</pdfrwt>
<totfact> 0.42596738E+03</totfact>
</mgrwt>
</event>
<event>
 5    1  0.3309811E-002  0.1249955E+03  0.7818608E-02  0.1235076E+00
         -4   -1    0    0    0  501 -0.00000000000E+00  0.00000000000E+00  0.92290821834E+01  0.93160537755E+01  0.12700000000E+01 0. -1.
          4   -1    0    0  501    0  0.00000000000E+00 -0.00000000000E+00 -0.42115138632E+03  0.42115330119E+03  0.12700000000E+01 0. -1.
         25    2    1    2    0    0  0.00000000000E+00  0.00000000000E+00 -0.41192230414E+03  0.43046935496E+03  0.12499552358E+03 0.  0.
    9000005    1    3    3    0    0 -0.26131551473E+02 -0.24780769618E+02 -0.30086312964E+02  0.46937519673E+02  0.10000000000E+01 0.  0.
    9000005    1    3    3    0    0  0.26131551473E+02  0.24780769618E+02 -0.38183599117E+03  0.38353183529E+03  0.10000000000E+01 0.  0.
<mgrwt>
<rscale>  0 0.12499552E+03</rscale>
<asrwt>0</asrwt>
<pdfrwt beam="2">  1        4 0.64799344E-01 0.12499552E+03</pdfrwt>
<pdfrwt beam="1">  1       -4 0.14266965E-02 0.12499552E+03</pdfrwt>
<totfact> 0.61699566E+03</totfact>
</mgrwt>
</event>
<event>
 5    1  0.3309811E-002  0.1249966E+03  0.7818608E-02  0.1235075E+00
          4   -1    0    0  501    0  0.00000000000E+00  0.00000000000E+00  0.19977215381E+03  0.19977619062E+03  0.12700000000E+01 0. -1.
         -4   -1    0    0    0  501 -0.00000000000E+00 -0.00000000000E+00 -0.19527612553E+02  0.19568866906E+02  0.12700000000E+01 0. -1.
         25    2    1    2    0    0  0.00000000000E+00  0.00000000000E+00  0.18024454126E+03  0.21934505752E+03  0.12499663838E+03 0.  0.
    9000005    1    3    3    0    0  0.61598864952E+02  0.71275435439E+01  0.76550235942E+02  0.98519849082E+02  0.10000000000E+01 0.  0.
    9000005    1    3    3    0    0 -0.61598864952E+02 -0.71275435439E+01  0.10369430532E+03  0.12082520844E+03  0.10000000000E+01 0.  0.
<mgrwt>
<rscale>  0 0.12499664E+03</rscale>
<asrwt>0</asrwt>
<pdfrwt beam="1">  1        4 0.30737661E-01 0.12499664E+03</pdfrwt>
<pdfrwt beam="2">  1       -4 0.30077321E-02 0.12499664E+03</pdfrwt>
<totfact> 0.86978623E+03</totfact>
</mgrwt>
</event>
<event>
 5    1  0.3309811E-002  0.1250034E+03  0.7818608E-02  0.1235064E+00
          4   -1    0    0  501    0  0.00000000000E+00  0.00000000000E+00  0.53131443159E+03  0.53131594943E+03  0.12700000000E+01 0. -1.
         -4   -1    0    0    0  501 -0.00000000000E+00 -0.00000000000E+00 -0.72960625823E+01  0.74057699941E+01  0.12700000000E+01 0. -1.
         25    2    1    2    0    0  0.00000000000E+00  0.00000000000E+00  0.52401836901E+03  0.53872171942E+03  0.12500335963E+03 0.  0.
    9000005    1    3    3    0    0  0.10146747364E+02 -0.61291303062E+02  0.23281791878E+03  0.24096631220E+03  0.10000000000E+01 0.  0.
    9000005    1    3    3    0    0 -0.10146747364E+02  0.61291303062E+02  0.29120045023E+03  0.29775540722E+03  0.10000000000E+01 0.  0.
<mgrwt>
<rscale>  0 0.12500336E+03</rscale>
<asrwt>0</asrwt>
<pdfrwt beam="1">  1        4 0.81749250E-01 0.12500336E+03</pdfrwt>
<pdfrwt beam="2">  1       -4 0.11310268E-02 0.12500336E+03</pdfrwt>
<totfact> 0.52976495E+03</totfact>
</mgrwt>
</event>
<event>
 5    1  0.3309811E-002  0.1250009E+03  0.7818608E-02  0.1235068E+00
         -4   -1    0    0    0  501 -0.00000000000E+00  0.00000000000E+00  0.65681784442E+03  0.65681907224E+03  0.12700000000E+01 0. -1.
          4   -1    0    0  501    0  0.00000000000E+00 -0.00000000000E+00 -0.58782737731E+01  0.60139007767E+01  0.12700000000E+01 0. -1.
         25    2    1    2    0    0  0.00000000000E+00  0.00000000000E+00  0.65093957065E+03  0.66283297301E+03  0.12500090189E+03 0.  0.
    9000005    1    3    3    0    0 -0.67049241975E+01 -0.49877482147E+02  0.52192380527E+03  0.52434547556E+03  0.10000000000E+01 0.  0.
    9000005    1    3    3    0    0  0.67049241975E+01  0.49877482147E+02  0.12901576539E+03  0.13848749746E+03  0.10000000000E+01 0.  0.
<mgrwt>
<rscale>  0 0.12500090E+03</rscale>
<asrwt>0</asrwt>
<pdfrwt beam="2">  1        4 0.91487753E-03 0.12500090E+03</pdfrwt>
<pdfrwt beam="1">  1       -4 0.10105938E+00 0.12500090E+03</pdfrwt>
<totfact> 0.45121669E+03</totfact>
</mgrwt>
</event>
<event>
 5    1  0.3309811E-002  0.1249976E+03  0.7818608E-02  0.1235073E+00
          4   -1    0    0  501    0  0.00000000000E+00  0.00000000000E+00  0.17004120192E+02  0.17051480977E+02  0.12700000000E+01 0. -1.
         -4   -1    0    0    0  501 -0.00000000000E+00 -0.00000000000E+00 -0.22934635896E+03  0.22934987523E+03  0.12700000000E+01 0. -1.
         25    2    1    2    0    0  0.00000000000E+00  0.00000000000E+00 -0.21234223877E+03  0.24640135621E+03  0.12499760788E+03 0.  0.
    9000005    1    3    3    0    0 -0.13972458408E+02  0.38690601449E+02 -0.13440513602E+02  0.43287869436E+02  0.10000000000E+01 0.  0.
    9000005    1    3    3    0    0  0.13972458408E+02 -0.38690601449E+02 -0.19890172517E+03  0.20311348678E+03  0.10000000000E+01 0.  0.
<mgrwt>
<rscale>  0 0.12499761E+03</rscale>
<asrwt>0</asrwt>
<pdfrwt beam="1">  1        4 0.26199323E-02 0.12499761E+03</pdfrwt>
<pdfrwt beam="2">  1       -4 0.35287967E-01 0.12499761E+03</pdfrwt>
<totfact> 0.82857559E+03</totfact>
</mgrwt>
</event>
<event>
 5    1  0.3309811E-002  0.1249940E+03  0.7818608E-02  0.1235079E+00
          4   -1    0    0  501    0  0.00000000000E+00  0.00000000000E+00  0.23698016839E+03  0.23698357139E+03  0.12700000000E+01 0.  1.
         -4   -1    0    0    0  501 -0.00000000000E+00 -0.00000000000E+00 -0.16453870933E+02  0.16502810933E+02  0.12700000000E+01 0.  1.
         25    2    1    2    0    0  0.00000000000E+00  0.00000000000E+00  0.22052629745E+03  0.25348638232E+03  0.12499399247E+03 0.  0.
    9000005    1    3    3    0    0  0.26527084682E+02 -0.41177135688E+02  0.31572181323E+02  0.58284177602E+02  0.10000000000E+01 0.  0.
    9000005    1    3    3    0    0 -0.26527084682E+02  0.41177135688E+02  0.18895411613E+03  0.19520220472E+03  0.10000000000E+01 0.  0.
<mgrwt>
<rscale>  0 0.12499399E+03</rscale>
<asrwt>0</asrwt>
<pdfrwt beam="1">  1        4 0.36462510E-01 0.12499399E+03</pdfrwt>
<pdfrwt beam="2">  1       -4 0.25353914E-02 0.12499399E+03</pdfrwt>
<totfact> 0.81839885E+03</totfact>
</mgrwt>
</event>
<event>
 4    1  0.3309811E-002  0.1249240E+03  0.7818608E-02  0.1235188E+00
          4   -1    0    0  501    0  0.00000000000E+00  0.00000000000E+00  0.14444166426E+02  0.14499891163E+02  0.12700000000E+01 0. -1.
         -4   -1    0    0    0  501 -0.00000000000E+00 -0.00000000000E+00 -0.26953185298E+03  0.26953484500E+03  0.12700000000E+01 0. -1.
    9000005    1    1    2    0    0 -0.61538699428E+02  0.10560298084E+02 -0.12435304895E+03  0.13915175962E+03  0.10000000000E+01 0.  0.
    9000005    1    1    2    0    0  0.61538699428E+02 -0.10560298084E+02 -0.13073463761E+03  0.14488297655E+03  0.10000000000E+01 0.  0.
<mgrwt>
<rscale>  0 0.12492399E+03</rscale>
<asrwt>0</asrwt>
<pdfrwt beam="1">  1        4 0.22266963E-02 0.12492399E+03</pdfrwt>
<pdfrwt beam="2">  1       -4 0.41470952E-01 0.12492399E+03</pdfrwt>
<totfact> 0.77777452E+03</totfact>
</mgrwt>
</event>
<event>
 5    1  0.3309811E-002  0.1250002E+03  0.7818608E-02  0.1235069E+00
         -4   -1    0    0    0  501 -0.00000000000E+00  0.00000000000E+00  0.11955670630E+04  0.11955677375E+04  0.12700000000E+01 0. -1.
          4   -1    0    0  501    0  0.00000000000E+00 -0.00000000000E+00 -0.31431763238E+01  0.33900527138E+01  0.12700000000E+01 0. -1.
         25    2    1    2    0    0  0.00000000000E+00  0.00000000000E+00  0.11924238866E+04  0.11989577902E+04  0.12500022911E+03 0.  0.
    9000005    1    3    3    0    0 -0.22071582470E+02 -0.19598472844E+02  0.67886473512E+02  0.74032615626E+02  0.10000000000E+01 0.  0.
    9000005    1    3    3    0    0  0.22071582470E+02  0.19598472844E+02  0.11245374131E+04  0.11249251746E+04  0.10000000000E+01 0.  0.
<mgrwt>
<rscale>  0 0.12500023E+03</rscale>
<asrwt>0</asrwt>
<pdfrwt beam="2">  1        4 0.50260770E-03 0.12500023E+03</pdfrwt>
<pdfrwt beam="1">  1       -4 0.18395253E+00 0.12500023E+03</pdfrwt>
<totfact> 0.24739902E+03</totfact>
</mgrwt>
</event>
<event>
 5    1  0.3309811E-002  0.1249999E+03  0.7818608E-02  0.1235069E+00
          4   -1    0    0  501    0  0.00000000000E+00  0.00000000000E+00  0.31802987108E+02  0.31828334688E+02  0.12700000000E+01 0.  1.
         -4   -1    0    0    0  501 -0.00000000000E+00 -0.00000000000E+00 -0.12274883434E+03  0.12275540408E+03  0.12700000000E+01 0.  1.
         25    2    1    2    0    0  0.00000000000E+00  0.00000000000E+00 -0.90945847229E+02  0.15458373877E+03  0.12499994065E+03 0.  0.
    9000005    1    3    3    0    0 -0.39788809825E+02 -0.10112377137E+02  0.12792984133E+02  0.43012440080E+02  0.10000000000E+01 0.  0.
    9000005    1    3    3    0    0  0.39788809825E+02  0.10112377137E+02 -0.10373883136E+03  0.11157129869E+03  0.10000000000E+01 0.  0.
<mgrwt>
<rscale>  0 0.12499994E+03</rscale>
<asrwt>0</asrwt>
<pdfrwt beam="1">  1        4 0.48952225E-02 0.12499994E+03</pdfrwt>
<pdfrwt beam="2">  1       -4 0.18886891E-01 0.12499994E+03</pdfrwt>
<totfact> 0.98397409E+03</totfact>
</mgrwt>
</event>
<event>
 5    1  0.3309811E-002  0.1250002E+03  0.7818608E-02  0.1235069E+00
          4   -1    0    0  501    0  0.00000000000E+00  0.00000000000E+00  0.18079685694E+03  0.18080131741E+03  0.12700000000E+01 0. -1.
         -4   -1    0    0    0  501 -0.00000000000E+00 -0.00000000000E+00 -0.21582431707E+02  0.21619765456E+02  0.12700000000E+01 0. -1.
         25    2    1    2    0    0  0.00000000000E+00  0.00000000000E+00  0.15921442523E+03  0.20242108287E+03  0.12500024635E+03 0.  0.
    9000005    1    3    3    0    0 -0.59832980688E+02 -0.16226997976E+02  0.66859981947E+02  0.91184199438E+02  0.10000000000E+01 0.  0.
    9000005    1    3    3    0    0  0.59832980688E+02  0.16226997976E+02  0.92354443283E+02  0.11123688343E+03  0.10000000000E+01 0.  0.
<mgrwt>
<rscale>  0 0.12500025E+03</rscale>
<asrwt>0</asrwt>
<pdfrwt beam="1">  1        4 0.27818117E-01 0.12500025E+03</pdfrwt>
<pdfrwt beam="2">  1       -4 0.33235889E-02 0.12500025E+03</pdfrwt>
<totfact> 0.89728276E+03</totfact>
</mgrwt>
</event>
<event>
 5    1  0.3309811E-002  0.1250033E+03  0.7818608E-02  0.1235064E+00
          4   -1    0    0  501    0  0.00000000000E+00  0.00000000000E+00  0.18148600391E+02  0.18192982058E+02  0.12700000000E+01 0.  1.
         -4   -1    0    0    0  501 -0.00000000000E+00 -0.00000000000E+00 -0.21493936587E+03  0.21494311783E+03  0.12700000000E+01 0.  1.
         25    2    1    2    0    0  0.00000000000E+00  0.00000000000E+00 -0.19679076548E+03  0.23313609988E+03  0.12500334272E+03 0.  0.
    9000005    1    3    3    0    0 -0.31593388908E+02  0.12855137179E+02 -0.73317286980E+00  0.34131134130E+02  0.10000000000E+01 0.  0.
    9000005    1    3    3    0    0  0.31593388908E+02 -0.12855137179E+02 -0.19605759261E+03  0.19900496575E+03  0.10000000000E+01 0.  0.
<mgrwt>
<rscale>  0 0.12500334E+03</rscale>
<asrwt>0</asrwt>
<pdfrwt beam="1">  1        4 0.27957951E-02 0.12500334E+03</pdfrwt>
<pdfrwt beam="2">  1       -4 0.33071296E-01 0.12500334E+03</pdfrwt>
<totfact> 0.84824037E+03</totfact>
</mgrwt>
</event>
<event>
 5    1  0.3309811E-002  0.1250003E+03  0.7818608E-02  0.1235069E+00
          4   -1    0    0  501    0  0.00000000000E+00  0.00000000000E+00  0.27300985132E+01  0.30110360164E+01  0.12700000000E+01 0. -1.
         -4   -1    0    0    0  501 -0.00000000000E+00 -0.00000000000E+00 -0.13605191478E+04  0.13605197406E+04  0.12700000000E+01 0. -1.
         25    2    1    2    0    0  0.00000000000E+00  0.00000000000E+00 -0.13577890493E+04  0.13635307766E+04  0.12500030514E+03 0.  0.
    9000005    1    3    3    0    0 -0.42201352517E+02  0.26178512609E+02 -0.26510039205E+03  0.26971371218E+03  0.10000000000E+01 0.  0.
    9000005    1    3    3    0    0  0.42201352517E+02 -0.26178512609E+02 -0.10926886573E+04  0.10938170644E+04  0.10000000000E+01 0.  0.
<mgrwt>
<rscale>  0 0.12500031E+03</rscale>
<asrwt>0</asrwt>
<pdfrwt beam="1">  1        4 0.44167242E-03 0.12500031E+03</pdfrwt>
<pdfrwt beam="2">  1       -4 0.20933178E+00 0.12500031E+03</pdfrwt>
<totfact> 0.20776717E+03</totfact>
</mgrwt>
</event>
<event>
 5    1  0.3309811E-002  0.1250545E+03  0.7818608E-02  0.1234984E+00
          4   -1    0    0  501    0  0.00000000000E+00  0.00000000000E+00  0.30652109213E+03  0.30652372309E+03  0.12700000000E+01 0.  1.
         -4   -1    0    0    0  501 -0.00000000000E+00 -0.00000000000E+00 -0.12720636688E+02  0.12783876475E+02  0.12700000000E+01 0.  1.
         25    2    1    2    0    0  0.00000000000E+00  0.00000000000E+00  0.29380045544E+03  0.31930759957E+03  0.12505453021E+03 0.  0.
    9000005    1    3    3    0    0 -0.29498430550E+02  0.54694516057E+02  0.16440721317E+03  0.17576228047E+03  0.10000000000E+01 0.  0.
    9000005    1    3    3    0    0  0.29498430550E+02 -0.54694516057E+02  0.12939324227E+03  0.14354531910E+03  0.10000000000E+01 0.  0.
<mgrwt>
<rscale>  0 0.12505453E+03</rscale>
<asrwt>0</asrwt>
<pdfrwt beam="1">  1        4 0.47162156E-01 0.12505453E+03</pdfrwt>
<pdfrwt beam="2">  1       -4 0.19620881E-02 0.12505453E+03</pdfrwt>
<totfact> 0.73150090E+03</totfact>
</mgrwt>
</event>
<event>
 5    1  0.3309811E-002  0.1250022E+03  0.7818608E-02  0.1235066E+00
          4   -1    0    0  501    0  0.00000000000E+00  0.00000000000E+00  0.13010863957E+03  0.13011483771E+03  0.12700000000E+01 0.  1.
         -4   -1    0    0    0  501 -0.00000000000E+00 -0.00000000000E+00 -0.30003720063E+02  0.30030586368E+02  0.12700000000E+01 0.  1.
         25    2    1    2    0    0  0.00000000000E+00  0.00000000000E+00  0.10010491951E+03  0.16014542407E+03  0.12500224775E+03 0.  0.
    9000005    1    3    3    0    0 -0.36707960993E+02 -0.38374864853E+02  0.92257933387E+02  0.10645483045E+03  0.10000000000E+01 0.  0.
    9000005    1    3    3    0    0  0.36707960993E+02  0.38374864853E+02  0.78469861223E+01  0.53690593627E+02  0.10000000000E+01 0.  0.
<mgrwt>
<rscale>  0 0.12500225E+03</rscale>
<asrwt>0</asrwt>
<pdfrwt beam="1">  1        4 0.20019257E-01 0.12500225E+03</pdfrwt>
<pdfrwt beam="2">  1       -4 0.46185004E-02 0.12500225E+03</pdfrwt>
<totfact> 0.97309839E+03</totfact>
</mgrwt>
</event>
<event>
 5    1  0.3309811E-002  0.1249984E+03  0.7818608E-02  0.1235072E+00
         -4   -1    0    0    0  501 -0.00000000000E+00  0.00000000000E+00  0.51786956783E+01  0.53321467467E+01  0.12700000000E+01 0.  1.
          4   -1    0    0  501    0  0.00000000000E+00 -0.00000000000E+00 -0.74310660462E+03  0.74310768987E+03  0.12700000000E+01 0.  1.
         25    2    1    2    0    0  0.00000000000E+00  0.00000000000E+00 -0.73792790895E+03  0.74843983661E+03  0.12499836089E+03 0.  0.
    9000005    1    3    3    0    0  0.35384394033E+02 -0.34172228421E+02 -0.59972745940E+03  0.60174232201E+03  0.10000000000E+01 0.  0.
    9000005    1    3    3    0    0 -0.35384394033E+02  0.34172228421E+02 -0.13820044955E+03  0.14669751461E+03  0.10000000000E+01 0.  0.
<mgrwt>
<rscale>  0 0.12499836E+03</rscale>
<asrwt>0</asrwt>
<pdfrwt beam="2">  1        4 0.11433590E+00 0.12499836E+03</pdfrwt>
<pdfrwt beam="1">  1       -4 0.80861041E-03 0.12499836E+03</pdfrwt>
<totfact> 0.40650350E+03</totfact>
</mgrwt>
</event>
<event>
 5    1  0.3309811E-002  0.1250011E+03  0.7818608E-02  0.1235068E+00
         -4   -1    0    0    0  501 -0.00000000000E+00  0.00000000000E+00  0.11921179514E+02  0.11988637162E+02  0.12700000000E+01 0.  1.
          4   -1    0    0  501    0  0.00000000000E+00 -0.00000000000E+00 -0.32668581251E+03  0.32668828108E+03  0.12700000000E+01 0.  1.
         25    2    1    2    0    0  0.00000000000E+00  0.00000000000E+00 -0.31476463299E+03  0.33867691824E+03  0.12500112305E+03 0.  0.
    9000005    1    3    3    0    0 -0.29365191066E+02 -0.43421854028E+02 -0.65201351079E+02  0.83665931155E+02  0.10000000000E+01 0.  0.
    9000005    1    3    3    0    0  0.29365191066E+02  0.43421854028E+02 -0.24956328191E+03  0.25501098708E+03  0.10000000000E+01 0.  0.
<mgrwt>
<rscale>  0 0.12500112E+03</rscale>
<asrwt>0</asrwt>
<pdfrwt beam="2">  1        4 0.50264728E-01 0.12500112E+03</pdfrwt>
<pdfrwt beam="1">  1       -4 0.18394068E-02 0.12500112E+03</pdfrwt>
<totfact> 0.70986701E+03</totfact>
</mgrwt>
</event>
<event>
 5    1  0.3309811E-002  0.1250000E+03  0.7818608E-02  0.1235069E+00
         -4   -1    0    0    0  501 -0.00000000000E+00  0.00000000000E+00  0.49071858257E+02  0.49088289569E+02  0.12700000000E+01 0. -1.
          4   -1    0    0  501    0  0.00000000000E+00 -0.00000000000E+00 -0.79567873268E+02  0.79578007994E+02  0.12700000000E+01 0. -1.
         25    2    1    2    0    0  0.00000000000E+00  0.00000000000E+00 -0.30496015011E+02  0.12866629756E+03  0.12500003679E+03 0.  0.
    9000005    1    3    3    0    0  0.57448711431E+01 -0.61769387857E+02 -0.23005051442E+02  0.66171694950E+02  0.10000000000E+01 0.  0.
    9000005    1    3    3    0    0 -0.57448711431E+01  0.61769387857E+02 -0.74909635686E+01  0.62494602614E+02  0.10000000000E+01 0.  0.
<mgrwt>
<rscale>  0 0.12500004E+03</rscale>
<asrwt>0</asrwt>
<pdfrwt beam="2">  1        4 0.12243255E-01 0.12500004E+03</pdfrwt>
<pdfrwt beam="1">  1       -4 0.75515602E-02 0.12500004E+03</pdfrwt>
<totfact> 0.10373114E+04</totfact>
</mgrwt>
</event>
<event>
 5    1  0.3309811E-002  0.1249995E+03  0.7818608E-02  0.1235070E+00
         -4   -1    0    0    0  501 -0.00000000000E+00  0.00000000000E+00  0.51449099924E+01  0.52993394711E+01  0.12700000000E+01 0.  1.
          4   -1    0    0  501    0  0.00000000000E+00 -0.00000000000E+00 -0.74785879701E+03  0.74785987536E+03  0.12700000000E+01 0.  1.
         25    2    1    2    0    0  0.00000000000E+00  0.00000000000E+00 -0.74271388702E+03  0.75315921483E+03  0.12499953963E+03 0.  0.
    9000005    1    3    3    0    0  0.15393044133E+02 -0.59696883081E+02 -0.43296764033E+03  0.43733584489E+03  0.10000000000E+01 0.  0.
    9000005    1    3    3    0    0 -0.15393044133E+02  0.59696883081E+02 -0.30974624670E+03  0.31582336994E+03  0.10000000000E+01 0.  0.
<mgrwt>
<rscale>  0 0.12499954E+03</rscale>
<asrwt>0</asrwt>
<pdfrwt beam="2">  1        4 0.11506708E+00 0.12499954E+03</pdfrwt>
<pdfrwt beam="1">  1       -4 0.80348735E-03 0.12499954E+03</pdfrwt>
<totfact> 0.40423917E+03</totfact>
</mgrwt>
</event>
<event>
 5    1  0.3309811E-002  0.1249947E+03  0.7818608E-02  0.1235078E+00
         -4   -1    0    0    0  501 -0.00000000000E+00  0.00000000000E+00  0.65586368394E+02  0.65598663242E+02  0.12700000000E+01 0. -1.
          4   -1    0    0  501    0  0.00000000000E+00 -0.00000000000E+00 -0.59529169222E+02  0.59542714821E+02  0.12700000000E+01 0. -1.
         25    2    1    2    0    0  0.00000000000E+00  0.00000000000E+00  0.60571991719E+01  0.12514137806E+03  0.12499469925E+03 0.  0.
    9000005    1    3    3    0    0 -0.23155682789E+02  0.50355626226E+02  0.31924970305E+02  0.63969355687E+02  0.10000000000E+01 0.  0.
    9000005    1    3    3    0    0  0.23155682789E+02 -0.50355626226E+02 -0.25867771133E+02  0.61172022375E+02  0.10000000000E+01 0.  0.
<mgrwt>
<rscale>  0 0.12499470E+03</rscale>
<asrwt>0</asrwt>
<pdfrwt beam="2">  1        4 0.91603214E-02 0.12499470E+03</pdfrwt>
<pdfrwt beam="1">  1       -4 0.10092198E-01 0.12499470E+03</pdfrwt>
<totfact> 0.10451045E+04</totfact>
</mgrwt>
</event>
<event>
 5    1  0.3309811E-002  0.1249987E+03  0.7818608E-02  0.1235071E+00
         -4   -1    0    0    0  501 -0.00000000000E+00  0.00000000000E+00  0.26024116883E+02  0.26055087019E+02  0.12700000000E+01 0. -1.
          4   -1    0    0  501    0  0.00000000000E+00 -0.00000000000E+00 -0.14997503875E+03  0.14998041588E+03  0.12700000000E+01 0. -1.
         25    2    1    2    0    0  0.00000000000E+00  0.00000000000E+00 -0.12395092187E+03  0.17603550290E+03  0.12499866899E+03 0.  0.
    9000005    1    3    3    0    0  0.56951399392E+02  0.71495792097E+01 -0.27176268590E+02  0.63514785287E+02  0.10000000000E+01 0.  0.
    9000005    1    3    3    0    0 -0.56951399392E+02 -0.71495792097E+01 -0.96774653278E+02  0.11252071762E+03  0.10000000000E+01 0.  0.
<mgrwt>
<rscale>  0 0.12499867E+03</rscale>
<asrwt>0</asrwt>
<pdfrwt beam="2">  1        4 0.23075878E-01 0.12499867E+03</pdfrwt>
<pdfrwt beam="1">  1       -4 0.40065063E-02 0.12499867E+03</pdfrwt>
<totfact> 0.94338349E+03</totfact>
</mgrwt>
</event>
<event>
 5    1  0.3309811E-002  0.1249729E+03  0.7818608E-02  0.1235112E+00
         -4   -1    0    0    0  501 -0.00000000000E+00  0.00000000000E+00  0.19788475240E+03  0.19788882771E+03  0.12700000000E+01 0. -1.
          4   -1    0    0  501    0  0.00000000000E+00 -0.00000000000E+00 -0.19706736419E+02  0.19747616572E+02  0.12700000000E+01 0. -1.
         25    2    1    2    0    0  0.00000000000E+00  0.00000000000E+00  0.17817801598E+03  0.21763644429E+03  0.12497286306E+03 0.  0.
    9000005    1    3    3    0    0 -0.21248508914E+02  0.41530407186E+02  0.16712552747E+02  0.49563931154E+02  0.10000000000E+01 0.  0.
    9000005    1    3    3    0    0  0.21248508914E+02 -0.41530407186E+02  0.16146546324E+03  0.16807251313E+03  0.10000000000E+01 0.  0.
<mgrwt>
<rscale>  0 0.12497286E+03</rscale>
<asrwt>0</asrwt>
<pdfrwt beam="2">  1        4 0.30352636E-02 0.12497286E+03</pdfrwt>
<pdfrwt beam="1">  1       -4 0.30447268E-01 0.12497286E+03</pdfrwt>
<totfact> 0.87296651E+03</totfact>
</mgrwt>
</event>
<event>
 5    1  0.3309811E-002  0.1250045E+03  0.7818608E-02  0.1235062E+00
         -4   -1    0    0    0  501 -0.00000000000E+00  0.00000000000E+00  0.10599592339E+04  0.10599599947E+04  0.12700000000E+01 0. -1.
          4   -1    0    0  501    0  0.00000000000E+00 -0.00000000000E+00 -0.35753584584E+01  0.37942177199E+01  0.12700000000E+01 0. -1.
         25    2    1    2    0    0  0.00000000000E+00  0.00000000000E+00  0.10563838754E+04  0.10637542124E+04  0.12500452877E+03 0.  0.
    9000005    1    3    3    0    0 -0.13895998553E+02 -0.13776399328E+02  0.23123777668E+02  0.30308365972E+02  0.10000000000E+01 0.  0.
    9000005    1    3    3    0    0  0.13895998553E+02  0.13776399328E+02  0.10332600978E+04  0.10334458465E+04  0.10000000000E+01 0.  0.
<mgrwt>
<rscale>  0 0.12500453E+03</rscale>
<asrwt>0</asrwt>
<pdfrwt beam="2">  1        4 0.56694930E-03 0.12500453E+03</pdfrwt>
<pdfrwt beam="1">  1       -4 0.16308746E+00 0.12500453E+03</pdfrwt>
<totfact> 0.28566362E+03</totfact>
</mgrwt>
</event>
<event>
 5    1  0.3309811E-002  0.1249991E+03  0.7818608E-02  0.1235071E+00
          4   -1    0    0  501    0  0.00000000000E+00  0.00000000000E+00  0.17123756608E+03  0.17124227555E+03  0.12700000000E+01 0.  1.
         -4   -1    0    0    0  501 -0.00000000000E+00 -0.00000000000E+00 -0.22788852473E+02  0.22824212955E+02  0.12700000000E+01 0.  1.
         25    2    1    2    0    0  0.00000000000E+00  0.00000000000E+00  0.14844871361E+03  0.19406648851E+03  0.12499912556E+03 0.  0.
    9000005    1    3    3    0    0 -0.39077156947E+02  0.38892331062E+02  0.11990072806E+03  0.13197280856E+03  0.10000000000E+01 0.  0.
    9000005    1    3    3    0    0  0.39077156947E+02 -0.38892331062E+02  0.28547985546E+02  0.62093679947E+02  0.10000000000E+01 0.  0.
<mgrwt>
<rscale>  0 0.12499913E+03</rscale>
<asrwt>0</asrwt>
<pdfrwt beam="1">  1        4 0.26347323E-01 0.12499913E+03</pdfrwt>
<pdfrwt beam="2">  1       -4 0.35090596E-02 0.12499913E+03</pdfrwt>
<totfact> 0.91146318E+03</totfact>
</mgrwt>
</event>
<event>
 5    1  0.3309811E-002  0.1250002E+03  0.7818608E-02  0.1235069E+00
         -4   -1    0    0    0  501 -0.00000000000E+00  0.00000000000E+00  0.90962947205E+02  0.90971812471E+02  0.12700000000E+01 0.  1.
          4   -1    0    0  501    0  0.00000000000E+00 -0.00000000000E+00 -0.42923118311E+02  0.42941902444E+02  0.12700000000E+01 0.  1.
         25    2    1    2    0    0  0.00000000000E+00  0.00000000000E+00  0.48039828894E+02  0.13391371491E+03  0.12500023153E+03 0.  0.
    9000005    1    3    3    0    0  0.58286246551E+02 -0.20613950443E+02  0.14257309736E+02  0.63454648142E+02  0.10000000000E+01 0.  0.
    9000005    1    3    3    0    0 -0.58286246551E+02  0.20613950443E+02  0.33782519158E+02  0.70459066773E+02  0.10000000000E+01 0.  0.
<mgrwt>
<rscale>  0 0.12500023E+03</rscale>
<asrwt>0</asrwt>
<pdfrwt beam="2">  1        4 0.66056836E-02 0.12500023E+03</pdfrwt>
<pdfrwt beam="1">  1       -4 0.13996426E-01 0.12500023E+03</pdfrwt>
<totfact> 0.10260964E+04</totfact>
</mgrwt>
</event>
<event>
 5    1  0.3309811E-002  0.1250212E+03  0.7818608E-02  0.1235036E+00
         -4   -1    0    0    0  501 -0.00000000000E+00  0.00000000000E+00  0.74909009213E+03  0.74909116871E+03  0.12700000000E+01 0.  1.
          4   -1    0    0  501    0  0.00000000000E+00 -0.00000000000E+00 -0.51380341379E+01  0.52926642443E+01  0.12700000000E+01 0.  1.
         25    2    1    2    0    0  0.00000000000E+00  0.00000000000E+00  0.74395205800E+03  0.75438383295E+03  0.12502120948E+03 0.  0.
    9000005    1    3    3    0    0 -0.14048214758E+02 -0.25656550285E+02  0.38682198486E+02  0.48506941669E+02  0.10000000000E+01 0.  0.
    9000005    1    3    3    0    0  0.14048214758E+02  0.25656550285E+02  0.70526985951E+03  0.70587689128E+03  0.10000000000E+01 0.  0.
<mgrwt>
<rscale>  0 0.12502121E+03</rscale>
<asrwt>0</asrwt>
<pdfrwt beam="2">  1        4 0.80244439E-03 0.12502121E+03</pdfrwt>
<pdfrwt beam="1">  1       -4 0.11525658E+00 0.12502121E+03</pdfrwt>
<totfact> 0.40346626E+03</totfact>
</mgrwt>
</event>
<event>
 4    1  0.3309811E-002  0.1252037E+03  0.7818608E-02  0.1234751E+00
         -4   -1    0    0    0  501 -0.00000000000E+00  0.00000000000E+00  0.67600899836E+02  0.67612828359E+02  0.12700000000E+01 0. -1.
          4   -1    0    0  501    0  0.00000000000E+00 -0.00000000000E+00 -0.57948503515E+02  0.57962418511E+02  0.12700000000E+01 0. -1.
    9000005    1    1    2    0    0  0.49121950945E+02  0.38573558282E+02  0.89746538497E+01  0.63106496297E+02  0.10000000000E+01 0.  0.
    9000005    1    1    2    0    0 -0.49121950945E+02 -0.38573558282E+02  0.67774247086E+00  0.62468750572E+02  0.10000000000E+01 0.  0.
<mgrwt>
<rscale>  0 0.12520373E+03</rscale>
<asrwt>0</asrwt>
<pdfrwt beam="2">  1        4 0.89171424E-02 0.12520373E+03</pdfrwt>
<pdfrwt beam="1">  1       -4 0.10402126E-01 0.12520373E+03</pdfrwt>
<totfact> 0.10392459E+04</totfact>
</mgrwt>
</event>
<event>
 5    1  0.3309811E-002  0.1249980E+03  0.7818608E-02  0.1235072E+00
          4   -1    0    0  501    0  0.00000000000E+00  0.00000000000E+00  0.66440004365E+02  0.66452141275E+02  0.12700000000E+01 0. -1.
         -4   -1    0    0    0  501 -0.00000000000E+00 -0.00000000000E+00 -0.58767418121E+02  0.58781139259E+02  0.12700000000E+01 0. -1.
         25    2    1    2    0    0  0.00000000000E+00  0.00000000000E+00  0.76725862443E+01  0.12523328053E+03  0.12499802388E+03 0.  0.
    9000005    1    3    3    0    0  0.30201103480E+02 -0.44986914388E+02  0.35026820993E+02  0.64527570126E+02  0.10000000000E+01 0.  0.
    9000005    1    3    3    0    0 -0.30201103480E+02  0.44986914388E+02 -0.27354234748E+02  0.60705710408E+02  0.10000000000E+01 0.  0.
<mgrwt>
<rscale>  0 0.12499802E+03</rscale>
<asrwt>0</asrwt>
<pdfrwt beam="1">  1        4 0.10223528E-01 0.12499802E+03</pdfrwt>
<pdfrwt beam="2">  1       -4 0.90431304E-02 0.12499802E+03</pdfrwt>
<totfact> 0.10448264E+04</totfact>
</mgrwt>
</event>
<event>
 5    1  0.3309811E-002  0.1250004E+03  0.7818608E-02  0.1235069E+00
          4   -1    0    0  501    0  0.00000000000E+00  0.00000000000E+00  0.26806469860E+02  0.26836537153E+02  0.12700000000E+01 0.  1.
         -4   -1    0    0    0  501 -0.00000000000E+00 -0.00000000000E+00 -0.14560690724E+03  0.14561244568E+03  0.12700000000E+01 0.  1.
         25    2    1    2    0    0  0.00000000000E+00  0.00000000000E+00 -0.11880043738E+03  0.17244898283E+03  0.12500043103E+03 0.  0.
    9000005    1    3    3    0    0 -0.23513196839E+02  0.49645107796E+02 -0.10050565920E+03  0.11454210878E+03  0.10000000000E+01 0.  0.
    9000005    1    3    3    0    0  0.23513196839E+02 -0.49645107796E+02 -0.18294778188E+02  0.57906874053E+02  0.10000000000E+01 0.  0.
<mgrwt>
<rscale>  0 0.12500043E+03</rscale>
<asrwt>0</asrwt>
<pdfrwt beam="1">  1        4 0.41268113E-02 0.12500043E+03</pdfrwt>
<pdfrwt beam="2">  1       -4 0.22403801E-01 0.12500043E+03</pdfrwt>
<totfact> 0.94993222E+03</totfact>
</mgrwt>
</event>
<event>
 5    1  0.3309811E-002  0.1249994E+03  0.7818608E-02  0.1235070E+00
         -4   -1    0    0    0  501 -0.00000000000E+00  0.00000000000E+00  0.11188218979E+02  0.11260068557E+02  0.12700000000E+01 0. -1.
          4   -1    0    0  501    0  0.00000000000E+00 -0.00000000000E+00 -0.34794566642E+03  0.34794798416E+03  0.12700000000E+01 0. -1.
         25    2    1    2    0    0  0.00000000000E+00  0.00000000000E+00 -0.33675744744E+03  0.35920805272E+03  0.12499938691E+03 0.  0.
    9000005    1    3    3    0    0  0.55987863272E+02  0.25265926123E+02 -0.13533719043E+03  0.14862759828E+03  0.10000000000E+01 0.  0.
    9000005    1    3    3    0    0 -0.55987863272E+02 -0.25265926123E+02 -0.20142025701E+03  0.21058045444E+03  0.10000000000E+01 0.  0.
<mgrwt>
<rscale>  0 0.12499939E+03</rscale>
<asrwt>0</asrwt>
<pdfrwt beam="2">  1        4 0.53535799E-01 0.12499939E+03</pdfrwt>
<pdfrwt beam="1">  1       -4 0.17269699E-02 0.12499939E+03</pdfrwt>
<totfact> 0.68724232E+03</totfact>
</mgrwt>
</event>
<event>
 5    1  0.3309811E-002  0.1250053E+03  0.7818608E-02  0.1235061E+00
         -4   -1    0    0    0  501 -0.00000000000E+00  0.00000000000E+00  0.16040978448E+02  0.16091174276E+02  0.12700000000E+01 0.  1.
          4   -1    0    0  501    0  0.00000000000E+00 -0.00000000000E+00 -0.24310548199E+03  0.24310879925E+03  0.12700000000E+01 0.  1.
         25    2    1    2    0    0  0.00000000000E+00  0.00000000000E+00 -0.22706450354E+03  0.25919997352E+03  0.12500534992E+03 0.  0.
    9000005    1    3    3    0    0  0.60130972317E+02  0.42031731356E+01 -0.79323474319E+02  0.99632394703E+02  0.10000000000E+01 0.  0.
    9000005    1    3    3    0    0 -0.60130972317E+02 -0.42031731356E+01 -0.14774102922E+03  0.15956757882E+03  0.10000000000E+01 0.  0.
<mgrwt>
<rscale>  0 0.12500535E+03</rscale>
<asrwt>0</asrwt>
<pdfrwt beam="2">  1        4 0.37404957E-01 0.12500535E+03</pdfrwt>
<pdfrwt beam="1">  1       -4 0.24719594E-02 0.12500535E+03</pdfrwt>
<totfact> 0.81008817E+03</totfact>
</mgrwt>
</event>
<event>
 5    1  0.3309811E-002  0.1250004E+03  0.7818608E-02  0.1235069E+00
         -4   -1    0    0    0  501 -0.00000000000E+00  0.00000000000E+00  0.46490442439E+03  0.46490615905E+03  0.12700000000E+01 0. -1.
          4   -1    0    0  501    0  0.00000000000E+00 -0.00000000000E+00 -0.83525719109E+01  0.84485713305E+01  0.12700000000E+01 0. -1.
         25    2    1    2    0    0  0.00000000000E+00  0.00000000000E+00  0.45655185248E+03  0.47335473038E+03  0.12500042706E+03 0.  0.
    9000005    1    3    3    0    0 -0.46128195490E+02  0.59012000572E+01  0.70195052773E+02  0.84207956959E+02  0.10000000000E+01 0.  0.
    9000005    1    3    3    0    0  0.46128195490E+02 -0.59012000572E+01  0.38635679971E+03  0.38914677342E+03  0.10000000000E+01 0.  0.
<mgrwt>
<rscale>  0 0.12500043E+03</rscale>
<asrwt>0</asrwt>
<pdfrwt beam="2">  1        4 0.12925292E-02 0.12500043E+03</pdfrwt>
<pdfrwt beam="1">  1       -4 0.71531267E-01 0.12500043E+03</pdfrwt>
<totfact> 0.57992106E+03</totfact>
</mgrwt>
</event>
<event>
 5    1  0.3309811E-002  0.1250028E+03  0.7818608E-02  0.1235065E+00
         -4   -1    0    0    0  501 -0.00000000000E+00  0.00000000000E+00  0.17377055641E+02  0.17423402732E+02  0.12700000000E+01 0. -1.
          4   -1    0    0  501    0  0.00000000000E+00 -0.00000000000E+00 -0.22445604017E+03  0.22445963305E+03  0.12700000000E+01 0. -1.
         25    2    1    2    0    0  0.00000000000E+00  0.00000000000E+00 -0.20707898452E+03  0.24188303578E+03  0.12500278863E+03 0.  0.
    9000005    1    3    3    0    0 -0.10118874817E+02 -0.47039113250E+02 -0.18070668094E+03  0.18700527890E+03  0.10000000000E+01 0.  0.
    9000005    1    3    3    0    0  0.10118874817E+02  0.47039113250E+02 -0.26372303589E+02  0.54877756873E+02  0.10000000000E+01 0.  0.
<mgrwt>
<rscale>  0 0.12500279E+03</rscale>
<asrwt>0</asrwt>
<pdfrwt beam="2">  1        4 0.34535538E-01 0.12500279E+03</pdfrwt>
<pdfrwt beam="1">  1       -4 0.26772349E-02 0.12500279E+03</pdfrwt>
<totfact> 0.83512529E+03</totfact>
</mgrwt>
</event>
<event>
 5    1  0.3309811E-002  0.1250019E+03  0.7818608E-02  0.1235066E+00
          4   -1    0    0  501    0  0.00000000000E+00  0.00000000000E+00  0.70734032377E+03  0.70734146389E+03  0.12700000000E+01 0. -1.
         -4   -1    0    0    0  501 -0.00000000000E+00 -0.00000000000E+00 -0.54484438214E+01  0.55945008781E+01  0.12700000000E+01 0. -1.
         25    2    1    2    0    0  0.00000000000E+00  0.00000000000E+00  0.70189187995E+03  0.71293596476E+03  0.12500191485E+03 0.  0.
    9000005    1    3    3    0    0  0.20084991062E+02  0.47244577731E+02  0.14770051006E+03  0.15637102565E+03  0.10000000000E+01 0.  0.
    9000005    1    3    3    0    0 -0.20084991062E+02 -0.47244577731E+02  0.55419136989E+03  0.55656493911E+03  0.10000000000E+01 0.  0.
<mgrwt>
<rscale>  0 0.12500191E+03</rscale>
<asrwt>0</asrwt>
<pdfrwt beam="1">  1        4 0.10883297E+00 0.12500191E+03</pdfrwt>
<pdfrwt beam="2">  1       -4 0.84954455E-03 0.12500191E+03</pdfrwt>
<totfact> 0.42410771E+03</totfact>
</mgrwt>
</event>
<event>
 5    1  0.3309811E-002  0.1250007E+03  0.7818608E-02  0.1235068E+00
         -4   -1    0    0    0  501 -0.00000000000E+00  0.00000000000E+00  0.84851824870E+02  0.84861328552E+02  0.12700000000E+01 0. -1.
          4   -1    0    0  501    0  0.00000000000E+00 -0.00000000000E+00 -0.46015815899E+02  0.46033338059E+02  0.12700000000E+01 0. -1.
         25    2    1    2    0    0  0.00000000000E+00  0.00000000000E+00  0.38836008970E+02  0.13089466661E+03  0.12500071262E+03 0.  0.
    9000005    1    3    3    0    0 -0.32169359950E+02  0.48483250712E+02 -0.44561560278E+01  0.58363949881E+02  0.10000000000E+01 0.  0.
    9000005    1    3    3    0    0  0.32169359950E+02 -0.48483250712E+02  0.43292164998E+02  0.72530716730E+02  0.10000000000E+01 0.  0.
<mgrwt>
<rscale>  0 0.12500071E+03</rscale>
<asrwt>0</asrwt>
<pdfrwt beam="2">  1        4 0.70814352E-02 0.12500071E+03</pdfrwt>
<pdfrwt beam="1">  1       -4 0.13056206E-01 0.12500071E+03</pdfrwt>
<totfact> 0.10325182E+04</totfact>
</mgrwt>
</event>
<event>
 5    1  0.3309811E-002  0.1250007E+03  0.7818608E-02  0.1235068E+00
          4   -1    0    0  501    0  0.00000000000E+00  0.00000000000E+00  0.19042685568E+03  0.19043109059E+03  0.12700000000E+01 0. -1.
         -4   -1    0    0    0  501 -0.00000000000E+00 -0.00000000000E+00 -0.20489216182E+02  0.20528538178E+02  0.12700000000E+01 0. -1.
         25    2    1    2    0    0  0.00000000000E+00  0.00000000000E+00  0.16993763950E+03  0.21095962877E+03  0.12500065461E+03 0.  0.
    9000005    1    3    3    0    0 -0.33072905124E+02  0.46091326709E+02  0.12920580192E+03  0.14111472886E+03  0.10000000000E+01 0.  0.
    9000005    1    3    3    0    0  0.33072905124E+02 -0.46091326709E+02  0.40731837578E+02  0.69844899911E+02  0.10000000000E+01 0.  0.
<mgrwt>
<rscale>  0 0.12500065E+03</rscale>
<asrwt>0</asrwt>
<pdfrwt beam="1">  1        4 0.29299789E-01 0.12500065E+03</pdfrwt>
<pdfrwt beam="2">  1       -4 0.31555377E-02 0.12500065E+03</pdfrwt>
<totfact> 0.88318108E+03</totfact>
</mgrwt>
</event>
<event>
 5    1  0.3309811E-002  0.1249992E+03  0.7818608E-02  0.1235071E+00
         -4   -1    0    0    0  501 -0.00000000000E+00  0.00000000000E+00  0.51321489156E+01  0.52869511528E+01  0.12700000000E+01 0. -1.
          4   -1    0    0  501    0  0.00000000000E+00 -0.00000000000E+00 -0.74965948971E+03  0.74966056547E+03  0.12700000000E+01 0. -1.
         25    2    1    2    0    0  0.00000000000E+00  0.00000000000E+00 -0.74452734080E+03  0.75494751662E+03  0.12499916662E+03 0.  0.
    9000005    1    3    3    0    0  0.58074825306E+02  0.90303556073E+01 -0.24400663839E+03  0.25098699615E+03  0.10000000000E+01 0.  0.
    9000005    1    3    3    0    0 -0.58074825306E+02 -0.90303556073E+01 -0.50052070241E+03  0.50396052048E+03  0.10000000000E+01 0.  0.
<mgrwt>
<rscale>  0 0.12499917E+03</rscale>
<asrwt>0</asrwt>
<pdfrwt beam="2">  1        4 0.11534413E+00 0.12499917E+03</pdfrwt>
<pdfrwt beam="1">  1       -4 0.80155258E-03 0.12499917E+03</pdfrwt>
<totfact> 0.40339368E+03</totfact>
</mgrwt>
</event>
<event>
 5    1  0.3309811E-002  0.1250017E+03  0.7818608E-02  0.1235067E+00
          4   -1    0    0  501    0  0.00000000000E+00  0.00000000000E+00  0.17609761016E+02  0.17655497247E+02  0.12700000000E+01 0.  1.
         -4   -1    0    0    0  501 -0.00000000000E+00 -0.00000000000E+00 -0.22149381765E+03  0.22149745858E+03  0.12700000000E+01 0.  1.
         25    2    1    2    0    0  0.00000000000E+00  0.00000000000E+00 -0.20388405663E+03  0.23915295582E+03  0.12500171091E+03 0.  0.
    9000005    1    3    3    0    0 -0.56931183462E+02 -0.36176075676E+01 -0.15076082206E+03  0.16119575740E+03  0.10000000000E+01 0.  0.
    9000005    1    3    3    0    0  0.56931183462E+02  0.36176075676E+01 -0.53123234567E+02  0.77957198422E+02  0.10000000000E+01 0.  0.
<mgrwt>
<rscale>  0 0.12500171E+03</rscale>
<asrwt>0</asrwt>
<pdfrwt beam="1">  1        4 0.27129924E-02 0.12500171E+03</pdfrwt>
<pdfrwt beam="2">  1       -4 0.34079768E-01 0.12500171E+03</pdfrwt>
<totfact> 0.83920481E+03</totfact>
</mgrwt>
</event>
<event>
 5    1  0.3309811E-002  0.1249993E+03  0.7818608E-02  0.1235070E+00
          4   -1    0    0  501    0  0.00000000000E+00  0.00000000000E+00  0.75370708808E+03  0.75370815806E+03  0.12700000000E+01 0.  1.
         -4   -1    0    0    0  501 -0.00000000000E+00 -0.00000000000E+00 -0.51037621370E+01  0.52593999611E+01  0.12700000000E+01 0.  1.
         25    2    1    2    0    0  0.00000000000E+00  0.00000000000E+00  0.74860332594E+03  0.75896755802E+03  0.12499925804E+03 0.  0.
    9000005    1    3    3    0    0 -0.57132407818E+02 -0.21647090690E+01  0.52747486350E+03  0.53056529250E+03  0.10000000000E+01 0.  0.
    9000005    1    3    3    0    0  0.57132407818E+02  0.21647090690E+01  0.22112846245E+03  0.22840226552E+03  0.10000000000E+01 0.  0.
<mgrwt>
<rscale>  0 0.12499926E+03</rscale>
<asrwt>0</asrwt>
<pdfrwt beam="1">  1        4 0.11596696E+00 0.12499926E+03</pdfrwt>
<pdfrwt beam="2">  1       -4 0.79724882E-03 0.12499926E+03</pdfrwt>
<totfact> 0.40149509E+03</totfact>
</mgrwt>
</event>
<event>
 5    1  0.3309811E-002  0.1249665E+03  0.7818608E-02  0.1235122E+00
         -4   -1    0    0    0  501 -0.00000000000E+00  0.00000000000E+00  0.22034276318E+03  0.22034642313E+03  0.12700000000E+01 0. -1.
          4   -1    0    0  501    0  0.00000000000E+00 -0.00000000000E+00 -0.17691982372E+02  0.17737506596E+02  0.12700000000E+01 0. -1.
         25    2    1    2    0    0  0.00000000000E+00  0.00000000000E+00  0.20265078081E+03  0.23808392973E+03  0.12496647003E+03 0.  0.
    9000005    1    3    3    0    0 -0.54137468612E+02  0.15512645154E+02  0.49792159086E+02  0.75178233378E+02  0.10000000000E+01 0.  0.
    9000005    1    3    3    0    0  0.54137468612E+02 -0.15512645154E+02  0.15285862172E+03  0.16290569635E+03  0.10000000000E+01 0.  0.
<mgrwt>
<rscale>  0 0.12496647E+03</rscale>
<asrwt>0</asrwt>
<pdfrwt beam="2">  1        4 0.27256267E-02 0.12496647E+03</pdfrwt>
<pdfrwt beam="1">  1       -4 0.33902672E-01 0.12496647E+03</pdfrwt>
<totfact> 0.84146453E+03</totfact>
</mgrwt>
</event>
<event>
 5    1  0.3309811E-002  0.1249927E+03  0.7818608E-02  0.1235081E+00
         -4   -1    0    0    0  501 -0.00000000000E+00  0.00000000000E+00  0.84037441056E+02  0.84047036826E+02  0.12700000000E+01 0.  1.
          4   -1    0    0  501    0  0.00000000000E+00 -0.00000000000E+00 -0.46455899127E+02  0.46473255360E+02  0.12700000000E+01 0.  1.
         25    2    1    2    0    0  0.00000000000E+00  0.00000000000E+00  0.37581541929E+02  0.13052029219E+03  0.12499269730E+03 0.  0.
    9000005    1    3    3    0    0 -0.19825745239E+02 -0.50950973683E+02  0.50390075307E+02  0.74358735754E+02  0.10000000000E+01 0.  0.
    9000005    1    3    3    0    0  0.19825745239E+02  0.50950973683E+02 -0.12808533378E+02  0.56161556432E+02  0.10000000000E+01 0.  0.
<mgrwt>
<rscale>  0 0.12499270E+03</rscale>
<asrwt>0</asrwt>
<pdfrwt beam="2">  1        4 0.71491346E-02 0.12499270E+03</pdfrwt>
<pdfrwt beam="1">  1       -4 0.12930910E-01 0.12499270E+03</pdfrwt>
<totfact> 0.10335087E+04</totfact>
</mgrwt>
</event>
<event>
 5    1  0.3309811E-002  0.1250022E+03  0.7818608E-02  0.1235066E+00
         -4   -1    0    0    0  501 -0.00000000000E+00  0.00000000000E+00  0.19956306288E+03  0.19956710392E+03  0.12700000000E+01 0.  1.
          4   -1    0    0  501    0  0.00000000000E+00 -0.00000000000E+00 -0.19549865371E+02  0.19591072865E+02  0.12700000000E+01 0.  1.
         25    2    1    2    0    0  0.00000000000E+00  0.00000000000E+00  0.18001319751E+03  0.21915817679E+03  0.12500222067E+03 0.  0.
    9000005    1    3    3    0    0  0.14847140216E+02  0.58878405461E+02  0.11590968373E+03  0.13085548894E+03  0.10000000000E+01 0.  0.
    9000005    1    3    3    0    0 -0.14847140216E+02 -0.58878405461E+02  0.64103513781E+02  0.88302687848E+02  0.10000000000E+01 0.  0.
<mgrwt>
<rscale>  0 0.12500222E+03</rscale>
<asrwt>0</asrwt>
<pdfrwt beam="2">  1        4 0.30111522E-02 0.12500222E+03</pdfrwt>
<pdfrwt beam="1">  1       -4 0.30705491E-01 0.12500222E+03</pdfrwt>
<totfact> 0.86997416E+03</totfact>
</mgrwt>
</event>
<event>
 5    1  0.3309811E-002  0.1250118E+03  0.7818608E-02  0.1235051E+00
         -4   -1    0    0    0  501 -0.00000000000E+00  0.00000000000E+00  0.12608750781E+02  0.12672548925E+02  0.12700000000E+01 0. -1.
          4   -1    0    0  501    0  0.00000000000E+00 -0.00000000000E+00 -0.30901621167E+03  0.30901882139E+03  0.12700000000E+01 0. -1.
         25    2    1    2    0    0  0.00000000000E+00  0.00000000000E+00 -0.29640746089E+03  0.32169137032E+03  0.12501181891E+03 0.  0.
    9000005    1    3    3    0    0  0.60809568943E+01  0.38275940259E+02 -0.22034854751E+02  0.44593278230E+02  0.10000000000E+01 0.  0.
    9000005    1    3    3    0    0 -0.60809568943E+01 -0.38275940259E+02 -0.27437260614E+03  0.27709809209E+03  0.10000000000E+01 0.  0.
<mgrwt>
<rscale>  0 0.12501182E+03</rscale>
<asrwt>0</asrwt>
<pdfrwt beam="2">  1        4 0.47546058E-01 0.12501182E+03</pdfrwt>
<pdfrwt beam="1">  1       -4 0.19449163E-02 0.12501182E+03</pdfrwt>
<totfact> 0.72936303E+03</totfact>
</mgrwt>
</event>
<event>
 5    1  0.3309811E-002  0.1249867E+03  0.7818608E-02  0.1235090E+00
          4   -1    0    0  501    0  0.00000000000E+00  0.00000000000E+00  0.24100575579E+03  0.24100910196E+03  0.12700000000E+01 0.  1.
         -4   -1    0    0    0  501 -0.00000000000E+00 -0.00000000000E+00 -0.16176328418E+02  0.16226105542E+02  0.12700000000E+01 0.  1.
         25    2    1    2    0    0  0.00000000000E+00  0.00000000000E+00  0.22482942738E+03  0.25723520750E+03  0.12498672154E+03 0.  0.
    9000005    1    3    3    0    0  0.43911094359E+02  0.43768276388E+02  0.96396674394E+02  0.11461747275E+03  0.10000000000E+01 0.  0.
    9000005    1    3    3    0    0 -0.43911094359E+02 -0.43768276388E+02  0.12843275298E+03  0.14261773475E+03  0.10000000000E+01 0.  0.
<mgrwt>
<rscale>  0 0.12498672E+03</rscale>
<asrwt>0</asrwt>
<pdfrwt beam="1">  1        4 0.37081894E-01 0.12498672E+03</pdfrwt>
<pdfrwt beam="2">  1       -4 0.24927524E-02 0.12498672E+03</pdfrwt>
<totfact> 0.81319671E+03</totfact>
</mgrwt>
</event>
<event>
 5    1  0.3309811E-002  0.1250012E+03  0.7818608E-02  0.1235067E+00
         -4   -1    0    0    0  501 -0.00000000000E+00  0.00000000000E+00  0.15392619221E+03  0.15393143132E+03  0.12700000000E+01 0.  1.
          4   -1    0    0  501    0  0.00000000000E+00 -0.00000000000E+00 -0.25356357723E+02  0.25388142448E+02  0.12700000000E+01 0.  1.
         25    2    1    2    0    0  0.00000000000E+00  0.00000000000E+00  0.12856983449E+03  0.17931957377E+03  0.12500122878E+03 0.  0.
    9000005    1    3    3    0    0 -0.30597661569E+02  0.49747974025E+02  0.96177251655E+02  0.11252618162E+03  0.10000000000E+01 0.  0.
    9000005    1    3    3    0    0  0.30597661569E+02 -0.49747974025E+02  0.32392582836E+02  0.66793392157E+02  0.10000000000E+01 0.  0.
<mgrwt>
<rscale>  0 0.12500123E+03</rscale>
<asrwt>0</asrwt>
<pdfrwt beam="2">  1        4 0.39038262E-02 0.12500123E+03</pdfrwt>
<pdfrwt beam="1">  1       -4 0.23683800E-01 0.12500123E+03</pdfrwt>
<totfact> 0.93737043E+03</totfact>
</mgrwt>
</event>
<event>
 5    1  0.3309811E-002  0.1249989E+03  0.7818608E-02  0.1235071E+00
          4   -1    0    0  501    0  0.00000000000E+00  0.00000000000E+00  0.14475294322E+02  0.14530899687E+02  0.12700000000E+01 0.  1.
         -4   -1    0    0    0  501 -0.00000000000E+00 -0.00000000000E+00 -0.26927718859E+03  0.26928018344E+03  0.12700000000E+01 0.  1.
         25    2    1    2    0    0  0.00000000000E+00  0.00000000000E+00 -0.25480189427E+03  0.28381108313E+03  0.12499890234E+03 0.  0.
    9000005    1    3    3    0    0  0.58467844132E+02  0.21999745839E+02 -0.12366750881E+03  0.13855370926E+03  0.10000000000E+01 0.  0.
    9000005    1    3    3    0    0 -0.58467844132E+02 -0.21999745839E+02 -0.13113438546E+03  0.14525737388E+03  0.10000000000E+01 0.  0.
<mgrwt>
<rscale>  0 0.12499890E+03</rscale>
<asrwt>0</asrwt>
<pdfrwt beam="1">  1        4 0.22314763E-02 0.12499890E+03</pdfrwt>
<pdfrwt beam="2">  1       -4 0.41431764E-01 0.12499890E+03</pdfrwt>
<totfact> 0.77677378E+03</totfact>
</mgrwt>
</event>
<event>
 5    1  0.3309811E-002  0.1249969E+03  0.7818608E-02  0.1235074E+00
         -4   -1    0    0    0  501 -0.00000000000E+00  0.00000000000E+00  0.95632775257E+02  0.95641207664E+02  0.12700000000E+01 0.  1.
          4   -1    0    0  501    0  0.00000000000E+00 -0.00000000000E+00 -0.40824246928E+02  0.40843996343E+02  0.12700000000E+01 0.  1.
         25    2    1    2    0    0  0.00000000000E+00  0.00000000000E+00  0.54808528329E+02  0.13648520401E+03  0.12499694450E+03 0.  0.
    9000005    1    3    3    0    0 -0.10982678330E+02  0.22133943222E+02 -0.35269070371E+02  0.43074795307E+02  0.10000000000E+01 0.  0.
    9000005    1    3    3    0    0  0.10982678330E+02 -0.22133943222E+02  0.90077598700E+02  0.93410408700E+02  0.10000000000E+01 0.  0.
<mgrwt>
<rscale>  0 0.12499694E+03</rscale>
<asrwt>0</asrwt>
<pdfrwt beam="2">  1        4 0.62828213E-02 0.12499694E+03</pdfrwt>
<pdfrwt beam="1">  1       -4 0.14714902E-01 0.12499694E+03</pdfrwt>
<totfact> 0.10207564E+04</totfact>
</mgrwt>
</event>
<event>
 5    1  0.3309811E-002  0.1250428E+03  0.7818608E-02  0.1235002E+00
          4   -1    0    0  501    0  0.00000000000E+00  0.00000000000E+00  0.56868250202E+02  0.56882429458E+02  0.12700000000E+01 0.  1.
         -4   -1    0    0    0  501 -0.00000000000E+00 -0.00000000000E+00 -0.68707881086E+02  0.68719617457E+02  0.12700000000E+01 0.  1.
         25    2    1    2    0    0  0.00000000000E+00  0.00000000000E+00 -0.11839630885E+02  0.12560204691E+03  0.12504278200E+03 0.  0.
    9000005    1    3    3    0    0 -0.47962738891E+02  0.39739617272E+02 -0.57975823970E+00  0.62297653427E+02  0.10000000000E+01 0.  0.
    9000005    1    3    3    0    0  0.47962738891E+02 -0.39739617272E+02 -0.11259872645E+02  0.63304393488E+02  0.10000000000E+01 0.  0.
<mgrwt>
<rscale>  0 0.12504278E+03</rscale>
<asrwt>0</asrwt>
<pdfrwt beam="1">  1        4 0.87509551E-02 0.12504278E+03</pdfrwt>
<pdfrwt beam="2">  1       -4 0.10572437E-01 0.12504278E+03</pdfrwt>
<totfact> 0.10429633E+04</totfact>
</mgrwt>
</event>
<event>
 5    1  0.3309811E-002  0.1250007E+03  0.7818608E-02  0.1235068E+00
          4   -1    0    0  501    0  0.00000000000E+00  0.00000000000E+00  0.12120970921E+03  0.12121636237E+03  0.12700000000E+01 0. -1.
         -4   -1    0    0    0  501 -0.00000000000E+00 -0.00000000000E+00 -0.32207497429E+02  0.32232526904E+02  0.12700000000E+01 0. -1.
         25    2    1    2    0    0  0.00000000000E+00  0.00000000000E+00  0.89002211778E+02  0.15344888927E+03  0.12500067167E+03 0.  0.
    9000005    1    3    3    0    0  0.41636946528E+02 -0.46236108964E+02  0.51646332332E+02  0.80868762397E+02  0.10000000000E+01 0.  0.
    9000005    1    3    3    0    0 -0.41636946528E+02  0.46236108964E+02  0.37355879446E+02  0.72580126877E+02  0.10000000000E+01 0.  0.
<mgrwt>
<rscale>  0 0.12500067E+03</rscale>
<asrwt>0</asrwt>
<pdfrwt beam="1">  1        4 0.18650085E-01 0.12500067E+03</pdfrwt>
<pdfrwt beam="2">  1       -4 0.49574367E-02 0.12500067E+03</pdfrwt>
<totfact> 0.98619113E+03</totfact>
</mgrwt>
</event>
<event>
 5    1  0.3309811E-002  0.1250025E+03  0.7818608E-02  0.1235065E+00
          4   -1    0    0  501    0  0.00000000000E+00  0.00000000000E+00  0.87407219570E+02  0.87416445438E+02  0.12700000000E+01 0. -1.
         -4   -1    0    0    0  501 -0.00000000000E+00 -0.00000000000E+00 -0.44671402028E+02  0.44689451318E+02  0.12700000000E+01 0. -1.
         25    2    1    2    0    0  0.00000000000E+00  0.00000000000E+00  0.42735817542E+02  0.13210589676E+03  0.12500247140E+03 0.  0.
    9000005    1    3    3    0    0 -0.42157047478E+02 -0.23517689561E+02 -0.20574996476E+02  0.52484558247E+02  0.10000000000E+01 0.  0.
    9000005    1    3    3    0    0  0.42157047478E+02  0.23517689561E+02  0.63310814018E+02  0.79621338510E+02  0.10000000000E+01 0.  0.
<mgrwt>
<rscale>  0 0.12500247E+03</rscale>
<asrwt>0</asrwt>
<pdfrwt beam="1">  1        4 0.13449363E-01 0.12500247E+03</pdfrwt>
<pdfrwt beam="2">  1       -4 0.68746215E-02 0.12500247E+03</pdfrwt>
<totfact> 0.10298864E+04</totfact>
</mgrwt>
</event>
<event>
 5    1  0.3309811E-002  0.1249998E+03  0.7818608E-02  0.1235070E+00
         -4   -1    0    0    0  501 -0.00000000000E+00  0.00000000000E+00  0.33985602488E+03  0.33985839779E+03  0.12700000000E+01 0. -1.
          4   -1    0    0  501    0  0.00000000000E+00 -0.00000000000E+00 -0.11456300954E+02  0.11526479582E+02  0.12700000000E+01 0. -1.
         25    2    1    2    0    0  0.00000000000E+00  0.00000000000E+00  0.32839972393E+03  0.35138487737E+03  0.12499981348E+03 0.  0.
    9000005    1    3    3    0    0  0.51031236144E+02 -0.10294226555E+02  0.26137881674E+03  0.26651462250E+03  0.10000000000E+01 0.  0.
    9000005    1    3    3    0    0 -0.51031236144E+02  0.10294226555E+02  0.67020907187E+02  0.84870254877E+02  0.10000000000E+01 0.  0.
<mgrwt>
<rscale>  0 0.12499981E+03</rscale>
<asrwt>0</asrwt>
<pdfrwt beam="2">  1        4 0.17680891E-02 0.12499981E+03</pdfrwt>
<pdfrwt beam="1">  1       -4 0.52291112E-01 0.12499981E+03</pdfrwt>
<totfact> 0.69572764E+03</totfact>
</mgrwt>
</event>
<event>
 5    1  0.3309811E-002  0.1250041E+03  0.7818608E-02  0.1235063E+00
          4   -1    0    0  501    0  0.00000000000E+00  0.00000000000E+00  0.46800207248E+03  0.46800379565E+03  0.12700000000E+01 0.  1.
         -4   -1    0    0    0  501 -0.00000000000E+00 -0.00000000000E+00 -0.82971462113E+01  0.83937795570E+01  0.12700000000E+01 0.  1.
         25    2    1    2    0    0  0.00000000000E+00  0.00000000000E+00  0.45970492626E+03  0.47639757520E+03  0.12500412165E+03 0.  0.
    9000005    1    3    3    0    0  0.35217629451E+01  0.49533876331E+01  0.46689177013E+03  0.46693239755E+03  0.10000000000E+01 0.  0.
    9000005    1    3    3    0    0 -0.35217629451E+01 -0.49533876331E+01 -0.71868438682E+01  0.94651776566E+01  0.10000000000E+01 0.  0.
<mgrwt>
<rscale>  0 0.12500412E+03</rscale>
<asrwt>0</asrwt>
<pdfrwt beam="1">  1        4 0.72007885E-01 0.12500412E+03</pdfrwt>
<pdfrwt beam="2">  1       -4 0.12840499E-02 0.12500412E+03</pdfrwt>
<totfact> 0.57738045E+03</totfact>
</mgrwt>
</event>
<event>
 5    1  0.3309811E-002  0.1250028E+03  0.7818608E-02  0.1235065E+00
         -4   -1    0    0    0  501 -0.00000000000E+00  0.00000000000E+00  0.18863915541E+02  0.18906618141E+02  0.12700000000E+01 0. -1.
          4   -1    0    0  501    0  0.00000000000E+00 -0.00000000000E+00 -0.20680574609E+03  0.20680964561E+03  0.12700000000E+01 0. -1.
         25    2    1    2    0    0  0.00000000000E+00  0.00000000000E+00 -0.18794183055E+03  0.22571626375E+03  0.12500280017E+03 0.  0.
    9000005    1    3    3    0    0  0.57151992702E+02 -0.24931454407E+02 -0.10152407948E+03  0.11914724673E+03  0.10000000000E+01 0.  0.
    9000005    1    3    3    0    0 -0.57151992702E+02  0.24931454407E+02 -0.86417751072E+02  0.10656901702E+03  0.10000000000E+01 0.  0.
<mgrwt>
<rscale>  0 0.12500280E+03</rscale>
<asrwt>0</asrwt>
<pdfrwt beam="2">  1        4 0.31819852E-01 0.12500280E+03</pdfrwt>
<pdfrwt beam="1">  1       -4 0.29057258E-02 0.12500280E+03</pdfrwt>
<totfact> 0.85966367E+03</totfact>
</mgrwt>
</event>
<event>
 5    1  0.3309811E-002  0.1250028E+03  0.7818608E-02  0.1235065E+00
         -4   -1    0    0    0  501 -0.00000000000E+00  0.00000000000E+00  0.12274424987E+03  0.12275081986E+03  0.12700000000E+01 0. -1.
          4   -1    0    0  501    0  0.00000000000E+00 -0.00000000000E+00 -0.31805640091E+02  0.31830985558E+02  0.12700000000E+01 0. -1.
         25    2    1    2    0    0  0.00000000000E+00  0.00000000000E+00  0.90938609783E+02  0.15458180542E+03  0.12500281524E+03 0.  0.
    9000005    1    3    3    0    0  0.28309546938E+02  0.17903948135E+02  0.11071169111E+03  0.11567221082E+03  0.10000000000E+01 0.  0.
    9000005    1    3    3    0    0 -0.28309546938E+02 -0.17903948135E+02 -0.19773081332E+02  0.38909594600E+02  0.10000000000E+01 0.  0.
<mgrwt>
<rscale>  0 0.12500282E+03</rscale>
<asrwt>0</asrwt>
<pdfrwt beam="2">  1        4 0.48956304E-02 0.12500282E+03</pdfrwt>
<pdfrwt beam="1">  1       -4 0.18886186E-01 0.12500282E+03</pdfrwt>
<totfact> 0.98391428E+03</totfact>
</mgrwt>
</event>
<event>
 5    1  0.3309811E-002  0.1249971E+03  0.7818608E-02  0.1235074E+00
          4   -1    0    0  501    0  0.00000000000E+00  0.00000000000E+00  0.34868063259E+02  0.34891184208E+02  0.12700000000E+01 0. -1.
         -4   -1    0    0    0  501 -0.00000000000E+00 -0.00000000000E+00 -0.11196045531E+03  0.11196765806E+03  0.12700000000E+01 0. -1.
         25    2    1    2    0    0  0.00000000000E+00  0.00000000000E+00 -0.77092392047E+02  0.14685884227E+03  0.12499713054E+03 0.  0.
    9000005    1    3    3    0    0  0.18949799665E+02  0.59141437615E+02 -0.30383733386E+02  0.69144600693E+02  0.10000000000E+01 0.  0.
    9000005    1    3    3    0    0 -0.18949799665E+02 -0.59141437615E+02 -0.46708658662E+02  0.77714241581E+02  0.10000000000E+01 0.  0.
<mgrwt>
<rscale>  0 0.12499713E+03</rscale>
<asrwt>0</asrwt>
<pdfrwt beam="1">  1        4 0.53666501E-02 0.12499713E+03</pdfrwt>
<pdfrwt beam="2">  1       -4 0.17227018E-01 0.12499713E+03</pdfrwt>
<totfact> 0.99940023E+03</totfact>
</mgrwt>
</event>
<event>
 5    1  0.3309811E-002  0.1249912E+03  0.7818608E-02  0.1235083E+00
          4   -1    0    0  501    0  0.00000000000E+00  0.00000000000E+00  0.20962153734E+03  0.20962538447E+03  0.12700000000E+01 0.  1.
         -4   -1    0    0    0  501 -0.00000000000E+00 -0.00000000000E+00 -0.18606480743E+02  0.18649772803E+02  0.12700000000E+01 0.  1.
         25    2    1    2    0    0  0.00000000000E+00  0.00000000000E+00  0.19101505660E+03  0.22827515728E+03  0.12499118202E+03 0.  0.
    9000005    1    3    3    0    0 -0.62100198452E+02 -0.41224107763E+01  0.10572028675E+03  0.12268336460E+03  0.10000000000E+01 0.  0.
    9000005    1    3    3    0    0  0.62100198452E+02  0.41224107763E+01  0.85294769846E+02  0.10559179268E+03  0.10000000000E+01 0.  0.
<mgrwt>
<rscale>  0 0.12499118E+03</rscale>
<asrwt>0</asrwt>
<pdfrwt beam="1">  1        4 0.32253094E-01 0.12499118E+03</pdfrwt>
<pdfrwt beam="2">  1       -4 0.28661616E-02 0.12499118E+03</pdfrwt>
<totfact> 0.85591993E+03</totfact>
</mgrwt>
</event>
<event>
 5    1  0.3309811E-002  0.1249942E+03  0.7818608E-02  0.1235078E+00
          4   -1    0    0  501    0  0.00000000000E+00  0.00000000000E+00  0.10943608365E+03  0.10944345254E+03  0.12700000000E+01 0.  1.
         -4   -1    0    0    0  501 -0.00000000000E+00 -0.00000000000E+00 -0.35671186174E+02  0.35693786897E+02  0.12700000000E+01 0.  1.
         25    2    1    2    0    0  0.00000000000E+00  0.00000000000E+00  0.73764897471E+02  0.14513723944E+03  0.12499423256E+03 0.  0.
    9000005    1    3    3    0    0  0.15866486109E+02  0.60440151087E+02  0.36460105096E+02  0.72353966777E+02  0.10000000000E+01 0.  0.
    9000005    1    3    3    0    0 -0.15866486109E+02 -0.60440151087E+02  0.37304792376E+02  0.72783272659E+02  0.10000000000E+01 0.  0.
<mgrwt>
<rscale>  0 0.12499423E+03</rscale>
<asrwt>0</asrwt>
<pdfrwt beam="1">  1        4 0.16838626E-01 0.12499423E+03</pdfrwt>
<pdfrwt beam="2">  1       -4 0.54901802E-02 0.12499423E+03</pdfrwt>
<totfact> 0.10029503E+04</totfact>
</mgrwt>
</event>
<event>
 5    1  0.3309811E-002  0.1249996E+03  0.7818608E-02  0.1235070E+00
          4   -1    0    0  501    0  0.00000000000E+00  0.00000000000E+00  0.13017294438E+02  0.13079099912E+02  0.12700000000E+01 0.  1.
         -4   -1    0    0    0  501 -0.00000000000E+00 -0.00000000000E+00 -0.29930577773E+03  0.29930847212E+03  0.12700000000E+01 0.  1.
         25    2    1    2    0    0  0.00000000000E+00  0.00000000000E+00 -0.28628848329E+03  0.31238757203E+03  0.12499959798E+03 0.  0.
    9000005    1    3    3    0    0 -0.40287777278E+02  0.46940697020E+02 -0.12097518471E+03  0.13587689042E+03  0.10000000000E+01 0.  0.
    9000005    1    3    3    0    0  0.40287777278E+02 -0.46940697020E+02 -0.16531329859E+03  0.17651068162E+03  0.10000000000E+01 0.  0.
<mgrwt>
<rscale>  0 0.12499960E+03</rscale>
<asrwt>0</asrwt>
<pdfrwt beam="1">  1        4 0.20076224E-02 0.12499960E+03</pdfrwt>
<pdfrwt beam="2">  1       -4 0.46051999E-01 0.12499960E+03</pdfrwt>
<totfact> 0.74071428E+03</totfact>
</mgrwt>
</event>
<event>
 5    1  0.3309811E-002  0.1249990E+03  0.7818608E-02  0.1235071E+00
         -4   -1    0    0    0  501 -0.00000000000E+00  0.00000000000E+00  0.76493723021E+01  0.77540825774E+01  0.12700000000E+01 0.  1.
          4   -1    0    0  501    0  0.00000000000E+00 -0.00000000000E+00 -0.50707787034E+03  0.50707946073E+03  0.12700000000E+01 0.  1.
         25    2    1    2    0    0  0.00000000000E+00  0.00000000000E+00 -0.49942849804E+03  0.51483354331E+03  0.12499901062E+03 0.  0.
    9000005    1    3    3    0    0 -0.70832751915E+00  0.82269910825E+01 -0.50484119595E+03  0.50490971296E+03  0.10000000000E+01 0.  0.
    9000005    1    3    3    0    0  0.70832751915E+00 -0.82269910825E+01  0.54126979081E+01  0.99238303487E+01  0.10000000000E+01 0.  0.
<mgrwt>
<rscale>  0 0.12499901E+03</rscale>
<asrwt>0</asrwt>
<pdfrwt beam="2">  1        4 0.78020131E-01 0.12499901E+03</pdfrwt>
<pdfrwt beam="1">  1       -4 0.11850039E-02 0.12499901E+03</pdfrwt>
<totfact> 0.54732759E+03</totfact>
</mgrwt>
</event>
<event>
 5    1  0.3309811E-002  0.1250054E+03  0.7818608E-02  0.1235061E+00
         -4   -1    0    0    0  501 -0.00000000000E+00  0.00000000000E+00  0.17945719399E+03  0.17946168777E+03  0.12700000000E+01 0. -1.
          4   -1    0    0  501    0  0.00000000000E+00 -0.00000000000E+00 -0.21745624080E+02  0.21782678133E+02  0.12700000000E+01 0. -1.
         25    2    1    2    0    0  0.00000000000E+00  0.00000000000E+00  0.15771156991E+03  0.20124436590E+03  0.12500542197E+03 0.  0.
    9000005    1    3    3    0    0 -0.18941505750E+02  0.54119391660E+02  0.11887364561E+03  0.13198345659E+03  0.10000000000E+01 0.  0.
    9000005    1    3    3    0    0  0.18941505750E+02 -0.54119391660E+02  0.38837924304E+02  0.69260909307E+02  0.10000000000E+01 0.  0.
<mgrwt>
<rscale>  0 0.12500542E+03</rscale>
<asrwt>0</asrwt>
<pdfrwt beam="2">  1        4 0.33486766E-02 0.12500542E+03</pdfrwt>
<pdfrwt beam="1">  1       -4 0.27611995E-01 0.12500542E+03</pdfrwt>
<totfact> 0.89915149E+03</totfact>
</mgrwt>
</event>
<event>
 5    1  0.3309811E-002  0.1249994E+03  0.7818608E-02  0.1235070E+00
          4   -1    0    0  501    0  0.00000000000E+00  0.00000000000E+00  0.26015927698E+03  0.26016237680E+03  0.12700000000E+01 0. -1.
         -4   -1    0    0    0  501 -0.00000000000E+00 -0.00000000000E+00 -0.14984652103E+02  0.15038374202E+02  0.12700000000E+01 0. -1.
         25    2    1    2    0    0  0.00000000000E+00  0.00000000000E+00  0.24517462488E+03  0.27520075100E+03  0.12499942666E+03 0.  0.
    9000005    1    3    3    0    0  0.39386863363E+01  0.21824456414E+01 -0.14637811370E+02  0.15347372438E+02  0.10000000000E+01 0.  0.
    9000005    1    3    3    0    0 -0.39386863363E+01 -0.21824456414E+01  0.25981243625E+03  0.25985337856E+03  0.10000000000E+01 0.  0.
<mgrwt>
<rscale>  0 0.12499943E+03</rscale>
<asrwt>0</asrwt>
<pdfrwt beam="1">  1        4 0.40028870E-01 0.12499943E+03</pdfrwt>
<pdfrwt beam="2">  1       -4 0.23097023E-02 0.12499943E+03</pdfrwt>
<totfact> 0.78819792E+03</totfact>
</mgrwt>
</event>
<event>
 5    1  0.3309811E-002  0.1249994E+03  0.7818608E-02  0.1235070E+00
         -4   -1    0    0    0  501 -0.00000000000E+00  0.00000000000E+00  0.11456068232E+03  0.11456772161E+03  0.12700000000E+01 0.  1.
          4   -1    0    0  501    0  0.00000000000E+00 -0.00000000000E+00 -0.34077414866E+02  0.34101071889E+02  0.12700000000E+01 0.  1.
         25    2    1    2    0    0  0.00000000000E+00  0.00000000000E+00  0.80483267457E+02  0.14866879350E+03  0.12499941528E+03 0.  0.
    9000005    1    3    3    0    0  0.34575777341E+02  0.50179387257E+02  0.56711450758E+02  0.83250489075E+02  0.10000000000E+01 0.  0.
    9000005    1    3    3    0    0 -0.34575777341E+02 -0.50179387257E+02  0.23771816699E+02  0.65418304421E+02  0.10000000000E+01 0.  0.
<mgrwt>
<rscale>  0 0.12499942E+03</rscale>
<asrwt>0</asrwt>
<pdfrwt beam="2">  1        4 0.52450404E-02 0.12499942E+03</pdfrwt>
<pdfrwt beam="1">  1       -4 0.17627082E-01 0.12499942E+03</pdfrwt>
<totfact> 0.99571029E+03</totfact>
</mgrwt>
</event>
<event>
 5    1  0.3309811E-002  0.1249850E+03  0.7818608E-02  0.1235093E+00
         -4   -1    0    0    0  501 -0.00000000000E+00  0.00000000000E+00  0.51508606130E+02  0.51524260358E+02  0.12700000000E+01 0.  1.
          4   -1    0    0  501    0  0.00000000000E+00 -0.00000000000E+00 -0.75786120889E+02  0.75796761273E+02  0.12700000000E+01 0.  1.
         25    2    1    2    0    0  0.00000000000E+00  0.00000000000E+00 -0.24277514759E+02  0.12732102163E+03  0.12498497840E+03 0.  0.
    9000005    1    3    3    0    0  0.38179886627E+02  0.49420440966E+02 -0.10044244674E+02  0.63261130081E+02  0.10000000000E+01 0.  0.
    9000005    1    3    3    0    0 -0.38179886627E+02 -0.49420440966E+02 -0.14233270085E+02  0.64059891550E+02  0.10000000000E+01 0.  0.
<mgrwt>
<rscale>  0 0.12498498E+03</rscale>
<asrwt>0</asrwt>
<pdfrwt beam="2">  1        4 0.11661426E-01 0.12498498E+03</pdfrwt>
<pdfrwt beam="1">  1       -4 0.79264236E-02 0.12498498E+03</pdfrwt>
<totfact> 0.10405707E+04</totfact>
</mgrwt>
</event>
<event>
 5    1  0.3309811E-002  0.1250007E+03  0.7818608E-02  0.1235068E+00
          4   -1    0    0  501    0  0.00000000000E+00  0.00000000000E+00  0.47648033549E+02  0.47664955692E+02  0.12700000000E+01 0.  1.
         -4   -1    0    0    0  501 -0.00000000000E+00 -0.00000000000E+00 -0.81945911127E+02  0.81955751784E+02  0.12700000000E+01 0.  1.
         25    2    1    2    0    0  0.00000000000E+00  0.00000000000E+00 -0.34297877578E+02  0.12962070748E+03  0.12500073360E+03 0.  0.
    9000005    1    3    3    0    0  0.19626581953E+02  0.33996797210E+02  0.33272370511E+02  0.51468782569E+02  0.10000000000E+01 0.  0.
    9000005    1    3    3    0    0 -0.19626581953E+02 -0.33996797210E+02 -0.67570248089E+02  0.78151924906E+02  0.10000000000E+01 0.  0.
<mgrwt>
<rscale>  0 0.12500073E+03</rscale>
<asrwt>0</asrwt>
<pdfrwt beam="1">  1        4 0.73325254E-02 0.12500073E+03</pdfrwt>
<pdfrwt beam="2">  1       -4 0.12609122E-01 0.12500073E+03</pdfrwt>
<totfact> 0.10352457E+04</totfact>
</mgrwt>
</event>
<event>
 5    1  0.3309811E-002  0.1250004E+03  0.7818608E-02  0.1235069E+00
          4   -1    0    0  501    0  0.00000000000E+00  0.00000000000E+00  0.13929390648E+03  0.13929969592E+03  0.12700000000E+01 0. -1.
         -4   -1    0    0    0  501 -0.00000000000E+00 -0.00000000000E+00 -0.28022640573E+02  0.28051404327E+02  0.12700000000E+01 0. -1.
         25    2    1    2    0    0  0.00000000000E+00  0.00000000000E+00  0.11127126591E+03  0.16735110024E+03  0.12500038454E+03 0.  0.
    9000005    1    3    3    0    0 -0.30775012135E+02 -0.53066252761E+02  0.71597502245E+02  0.94288551169E+02  0.10000000000E+01 0.  0.
    9000005    1    3    3    0    0  0.30775012135E+02  0.53066252761E+02  0.39673763660E+02  0.73062549072E+02  0.10000000000E+01 0.  0.
<mgrwt>
<rscale>  0 0.12500038E+03</rscale>
<asrwt>0</asrwt>
<pdfrwt beam="1">  1        4 0.21432490E-01 0.12500038E+03</pdfrwt>
<pdfrwt beam="2">  1       -4 0.43138334E-02 0.12500038E+03</pdfrwt>
<totfact> 0.95943146E+03</totfact>
</mgrwt>
</event>
<event>
 5    1  0.3309811E-002  0.1250011E+03  0.7818608E-02  0.1235068E+00
         -4   -1    0    0    0  501 -0.00000000000E+00  0.00000000000E+00  0.20729154085E+02  0.20768021791E+02  0.12700000000E+01 0. -1.
          4   -1    0    0  501    0  0.00000000000E+00 -0.00000000000E+00 -0.18822813703E+03  0.18823242141E+03  0.12700000000E+01 0. -1.
         25    2    1    2    0    0  0.00000000000E+00  0.00000000000E+00 -0.16749898294E+03  0.20900044320E+03  0.12500110388E+03 0.  0.
    9000005    1    3    3    0    0  0.59449072184E+02  0.36896982945E+01 -0.52135506768E+02  0.79163862482E+02  0.10000000000E+01 0.  0.
    9000005    1    3    3    0    0 -0.59449072184E+02 -0.36896982945E+01 -0.11536347617E+03  0.12983658072E+03  0.10000000000E+01 0.  0.
<mgrwt>
<rscale>  0 0.12500110E+03</rscale>
<asrwt>0</asrwt>
<pdfrwt beam="2">  1        4 0.28961493E-01 0.12500110E+03</pdfrwt>
<pdfrwt beam="1">  1       -4 0.31924201E-02 0.12500110E+03</pdfrwt>
<totfact> 0.88637195E+03</totfact>
</mgrwt>
</event>
<event>
 5    1  0.3309811E-002  0.1250001E+03  0.7818608E-02  0.1235069E+00
         -4   -1    0    0    0  501 -0.00000000000E+00  0.00000000000E+00  0.63223482430E+02  0.63236236689E+02  0.12700000000E+01 0.  1.
          4   -1    0    0  501    0  0.00000000000E+00 -0.00000000000E+00 -0.61759367983E+02  0.61772424541E+02  0.12700000000E+01 0.  1.
         25    2    1    2    0    0  0.00000000000E+00  0.00000000000E+00  0.14641144470E+01  0.12500866123E+03  0.12500008701E+03 0.  0.
    9000005    1    3    3    0    0 -0.53272398130E+02  0.51243990601E+01 -0.31535424755E+02  0.62126410509E+02  0.10000000000E+01 0.  0.
    9000005    1    3    3    0    0  0.53272398130E+02 -0.51243990601E+01  0.32999539202E+02  0.62882250721E+02  0.10000000000E+01 0.  0.
<mgrwt>
<rscale>  0 0.12500009E+03</rscale>
<asrwt>0</asrwt>
<pdfrwt beam="2">  1        4 0.95034268E-02 0.12500009E+03</pdfrwt>
<pdfrwt beam="1">  1       -4 0.97286749E-02 0.12500009E+03</pdfrwt>
<totfact> 0.10452654E+04</totfact>
</mgrwt>
</event>
<event>
 5    1  0.3309811E-002  0.1249970E+03  0.7818608E-02  0.1235074E+00
         -4   -1    0    0    0  501 -0.00000000000E+00  0.00000000000E+00  0.90668482235E+01  0.91553610911E+01  0.12700000000E+01 0. -1.
          4   -1    0    0  501    0  0.00000000000E+00 -0.00000000000E+00 -0.42862522158E+03  0.42862710305E+03  0.12700000000E+01 0. -1.
         25    2    1    2    0    0  0.00000000000E+00  0.00000000000E+00 -0.41955837335E+03  0.43778246415E+03  0.12499702901E+03 0.  0.
    9000005    1    3    3    0    0  0.49674570042E+02  0.33794875298E+02 -0.14958290615E+03  0.16120081364E+03  0.10000000000E+01 0.  0.
    9000005    1    3    3    0    0 -0.49674570042E+02 -0.33794875298E+02 -0.26997546720E+03  0.27658165051E+03  0.10000000000E+01 0.  0.
<mgrwt>
<rscale>  0 0.12499703E+03</rscale>
<asrwt>0</asrwt>
<pdfrwt beam="2">  1        4 0.65949279E-01 0.12499703E+03</pdfrwt>
<pdfrwt beam="1">  1       -4 0.14018535E-02 0.12499703E+03</pdfrwt>
<totfact> 0.61040843E+03</totfact>
</mgrwt>
</event>
<event>
 4    1  0.3309811E-002  0.1266134E+03  0.7818608E-02  0.1232569E+00
          4   -1    0    0  501    0  0.00000000000E+00  0.00000000000E+00  0.12158308626E+02  0.12224457806E+02  0.12700000000E+01 0.  1.
         -4   -1    0    0    0  501 -0.00000000000E+00 -0.00000000000E+00 -0.32866783445E+03  0.32867028813E+03  0.12700000000E+01 0.  1.
    9000005    1    1    2    0    0  0.36694055273E+02  0.64783653983E+01 -0.20485740911E+02  0.42533380906E+02  0.10000000000E+01 0.  0.
    9000005    1    1    2    0    0 -0.36694055273E+02 -0.64783653983E+01 -0.29602378491E+03  0.29836136503E+03  0.10000000000E+01 0.  0.
<mgrwt>
<rscale>  0 0.12661338E+03</rscale>
<asrwt>0</asrwt>
<pdfrwt beam="1">  1        4 0.18757864E-02 0.12661338E+03</pdfrwt>
<pdfrwt beam="2">  1       -4 0.50569553E-01 0.12661338E+03</pdfrwt>
<totfact> 0.68269509E+03</totfact>
</mgrwt>
</event>
<event>
 5    1  0.3309811E-002  0.1249962E+03  0.7818608E-02  0.1235075E+00
          4   -1    0    0  501    0  0.00000000000E+00  0.00000000000E+00  0.31046570876E+02  0.31072535513E+02  0.12700000000E+01 0. -1.
         -4   -1    0    0    0  501 -0.00000000000E+00 -0.00000000000E+00 -0.12572957321E+03  0.12573598721E+03  0.12700000000E+01 0. -1.
         25    2    1    2    0    0  0.00000000000E+00  0.00000000000E+00 -0.94683002331E+02  0.15680852272E+03  0.12499616741E+03 0.  0.
    9000005    1    3    3    0    0  0.65356053116E+01  0.55441776235E+01 -0.12499493991E+03  0.12529240618E+03  0.10000000000E+01 0.  0.
    9000005    1    3    3    0    0 -0.65356053116E+01 -0.55441776235E+01  0.30311937578E+02  0.31516116544E+02  0.10000000000E+01 0.  0.
<mgrwt>
<rscale>  0 0.12499617E+03</rscale>
<asrwt>0</asrwt>
<pdfrwt beam="1">  1        4 0.47788863E-02 0.12499617E+03</pdfrwt>
<pdfrwt beam="2">  1       -4 0.19345502E-01 0.12499617E+03</pdfrwt>
<totfact> 0.97970071E+03</totfact>
</mgrwt>
</event>
<event>
 5    1  0.3309811E-002  0.1249974E+03  0.7818608E-02  0.1235073E+00
         -4   -1    0    0    0  501 -0.00000000000E+00  0.00000000000E+00  0.54905739730E+03  0.54905886609E+03  0.12700000000E+01 0. -1.
          4   -1    0    0  501    0  0.00000000000E+00 -0.00000000000E+00 -0.70559968208E+01  0.71693787133E+01  0.12700000000E+01 0. -1.
         25    2    1    2    0    0  0.00000000000E+00  0.00000000000E+00  0.54200140048E+03  0.55622824481E+03  0.12499736875E+03 0.  0.
    9000005    1    3    3    0    0  0.58983667605E+02  0.13149813046E+02  0.34179428144E+03  0.34709699141E+03  0.10000000000E+01 0.  0.
    9000005    1    3    3    0    0 -0.58983667605E+02 -0.13149813046E+02  0.20020711905E+03  0.20913125339E+03  0.10000000000E+01 0.  0.
<mgrwt>
<rscale>  0 0.12499737E+03</rscale>
<asrwt>0</asrwt>
<pdfrwt beam="2">  1        4 0.10943725E-02 0.12499737E+03</pdfrwt>
<pdfrwt beam="1">  1       -4 0.84479211E-01 0.12499737E+03</pdfrwt>
<totfact> 0.51755543E+03</totfact>
</mgrwt>
</event>
<event>
 4    1  0.3309811E-002  0.1250688E+03  0.7818608E-02  0.1234962E+00
          4   -1    0    0  501    0  0.00000000000E+00  0.00000000000E+00  0.32502598939E+03  0.32502847057E+03  0.12700000000E+01 0.  1.
         -4   -1    0    0    0  501 -0.00000000000E+00 -0.00000000000E+00 -0.11995451674E+02  0.12062493974E+02  0.12700000000E+01 0.  1.
    9000005    1    1    2    0    0  0.68996632918E+01 -0.62144540478E+02  0.15643249022E+03  0.16846861210E+03  0.10000000000E+01 0.  0.
    9000005    1    1    2    0    0 -0.68996632918E+01  0.62144540478E+02  0.15659804749E+03  0.16862235244E+03  0.10000000000E+01 0.  0.
<mgrwt>
<rscale>  0 0.12506878E+03</rscale>
<asrwt>0</asrwt>
<pdfrwt beam="1">  1        4 0.50009344E-01 0.12506878E+03</pdfrwt>
<pdfrwt beam="2">  1       -4 0.18508022E-02 0.12506878E+03</pdfrwt>
<totfact> 0.71060151E+03</totfact>
</mgrwt>
</event>
<event>
 5    1  0.3309811E-002  0.1249991E+03  0.7818608E-02  0.1235071E+00
         -4   -1    0    0    0  501 -0.00000000000E+00  0.00000000000E+00  0.19213614225E+03  0.19214033949E+03  0.12700000000E+01 0. -1.
          4   -1    0    0  501    0  0.00000000000E+00 -0.00000000000E+00 -0.20306080013E+02  0.20345755958E+02  0.12700000000E+01 0. -1.
         25    2    1    2    0    0  0.00000000000E+00  0.00000000000E+00  0.17183006223E+03  0.21248609544E+03  0.12499908187E+03 0.  0.
    9000005    1    3    3    0    0 -0.57540032690E+02 -0.15945830923E+02  0.11726278334E+03  0.13159287686E+03  0.10000000000E+01 0.  0.
    9000005    1    3    3    0    0  0.57540032690E+02  0.15945830923E+02  0.54567278899E+02  0.80893218580E+02  0.10000000000E+01 0.  0.
<mgrwt>
<rscale>  0 0.12499908E+03</rscale>
<asrwt>0</asrwt>
<pdfrwt beam="2">  1        4 0.31273873E-02 0.12499908E+03</pdfrwt>
<pdfrwt beam="1">  1       -4 0.29562780E-01 0.12499908E+03</pdfrwt>
<totfact> 0.88073280E+03</totfact>
</mgrwt>
</event>
<event>
 5    1  0.3309811E-002  0.1250032E+03  0.7818608E-02  0.1235064E+00
          4   -1    0    0  501    0  0.00000000000E+00  0.00000000000E+00  0.26384575053E+03  0.26384880703E+03  0.12700000000E+01 0.  1.
         -4   -1    0    0    0  501 -0.00000000000E+00 -0.00000000000E+00 -0.14775417047E+02  0.14829897131E+02  0.12700000000E+01 0.  1.
         25    2    1    2    0    0  0.00000000000E+00  0.00000000000E+00  0.24907033348E+03  0.27867870416E+03  0.12500315649E+03 0.  0.
    9000005    1    3    3    0    0 -0.37907913744E+02 -0.12795054313E+02  0.17508435981E+02  0.43683734614E+02  0.10000000000E+01 0.  0.
    9000005    1    3    3    0    0  0.37907913744E+02  0.12795054313E+02  0.23156189750E+03  0.23499496955E+03  0.10000000000E+01 0.  0.
<mgrwt>
<rscale>  0 0.12500316E+03</rscale>
<asrwt>0</asrwt>
<pdfrwt beam="1">  1        4 0.40596082E-01 0.12500316E+03</pdfrwt>
<pdfrwt beam="2">  1       -4 0.22775669E-02 0.12500316E+03</pdfrwt>
<totfact> 0.78348126E+03</totfact>
</mgrwt>
</event>
<event>
 5    1  0.3309811E-002  0.1249981E+03  0.7818608E-02  0.1235072E+00
         -4   -1    0    0    0  501 -0.00000000000E+00  0.00000000000E+00  0.16011147213E+03  0.16011650885E+03  0.12700000000E+01 0.  1.
          4   -1    0    0  501    0  0.00000000000E+00 -0.00000000000E+00 -0.24374376620E+02  0.24407440169E+02  0.12700000000E+01 0.  1.
         25    2    1    2    0    0  0.00000000000E+00  0.00000000000E+00  0.13573709551E+03  0.18452394902E+03  0.12499811465E+03 0.  0.
    9000005    1    3    3    0    0 -0.12376920775E+02 -0.57986134360E+02  0.38732400728E+02  0.70829222868E+02  0.10000000000E+01 0.  0.
    9000005    1    3    3    0    0  0.12376920775E+02  0.57986134360E+02  0.97004694783E+02  0.11369472616E+03  0.10000000000E+01 0.  0.
<mgrwt>
<rscale>  0 0.12499811E+03</rscale>
<asrwt>0</asrwt>
<pdfrwt beam="2">  1        4 0.37528348E-02 0.12499811E+03</pdfrwt>
<pdfrwt beam="1">  1       -4 0.24635466E-01 0.12499811E+03</pdfrwt>
<totfact> 0.92812878E+03</totfact>
</mgrwt>
</event>
<event>
 5    1  0.3309811E-002  0.1250021E+03  0.7818608E-02  0.1235066E+00
         -4   -1    0    0    0  501 -0.00000000000E+00  0.00000000000E+00  0.79521028070E+03  0.79521129483E+03  0.12700000000E+01 0.  1.
          4   -1    0    0  501    0  0.00000000000E+00 -0.00000000000E+00 -0.48292697724E+01  0.49934703899E+01  0.12700000000E+01 0.  1.
         25    2    1    2    0    0  0.00000000000E+00  0.00000000000E+00  0.79038101092E+03  0.80020476522E+03  0.12500209539E+03 0.  0.
    9000005    1    3    3    0    0  0.57485316542E+02  0.12749978016E+02  0.26117702948E+03  0.26773412985E+03  0.10000000000E+01 0.  0.
    9000005    1    3    3    0    0 -0.57485316542E+02 -0.12749978016E+02  0.52920398144E+03  0.53247063537E+03  0.10000000000E+01 0.  0.
<mgrwt>
<rscale>  0 0.12500210E+03</rscale>
<asrwt>0</asrwt>
<pdfrwt beam="2">  1        4 0.75567356E-03 0.12500210E+03</pdfrwt>
<pdfrwt beam="1">  1       -4 0.12235273E+00 0.12500210E+03</pdfrwt>
<totfact> 0.38253839E+03</totfact>
</mgrwt>
</event>
<event>
 5    1  0.3309811E-002  0.1250009E+03  0.7818608E-02  0.1235068E+00
          4   -1    0    0  501    0  0.00000000000E+00  0.00000000000E+00  0.22285042856E+03  0.22285404733E+03  0.12700000000E+01 0.  1.
         -4   -1    0    0    0  501 -0.00000000000E+00 -0.00000000000E+00 -0.17502051608E+02  0.17548068569E+02  0.12700000000E+01 0.  1.
         25    2    1    2    0    0  0.00000000000E+00  0.00000000000E+00  0.20534837695E+03  0.24040211590E+03  0.12500088564E+03 0.  0.
    9000005    1    3    3    0    0  0.29023782572E+02  0.45826074465E+02  0.16235228383E+03  0.17117731485E+03  0.10000000000E+01 0.  0.
    9000005    1    3    3    0    0 -0.29023782572E+02 -0.45826074465E+02  0.42996093126E+02  0.69224801045E+02  0.10000000000E+01 0.  0.
<mgrwt>
<rscale>  0 0.12500089E+03</rscale>
<asrwt>0</asrwt>
<pdfrwt beam="1">  1        4 0.34288500E-01 0.12500089E+03</pdfrwt>
<pdfrwt beam="2">  1       -4 0.26964415E-02 0.12500089E+03</pdfrwt>
<totfact> 0.83735862E+03</totfact>
</mgrwt>
</event>
<event>
 5    1  0.3309811E-002  0.1249990E+03  0.7818608E-02  0.1235071E+00
          4   -1    0    0  501    0  0.00000000000E+00  0.00000000000E+00  0.23023903331E+03  0.23024253594E+03  0.12700000000E+01 0.  1.
         -4   -1    0    0    0  501 -0.00000000000E+00 -0.00000000000E+00 -0.16938390788E+02  0.16985934843E+02  0.12700000000E+01 0.  1.
         25    2    1    2    0    0  0.00000000000E+00  0.00000000000E+00  0.21330064252E+03  0.24722847079E+03  0.12499901067E+03 0.  0.
    9000005    1    3    3    0    0  0.46196992213E+02  0.18608860564E+02  0.31995275708E+02  0.59204302619E+02  0.10000000000E+01 0.  0.
    9000005    1    3    3    0    0 -0.46196992213E+02 -0.18608860564E+02  0.18130536681E+03  0.18802416817E+03  0.10000000000E+01 0.  0.
<mgrwt>
<rscale>  0 0.12499901E+03</rscale>
<asrwt>0</asrwt>
<pdfrwt beam="1">  1        4 0.35425317E-01 0.12499901E+03</pdfrwt>
<pdfrwt beam="2">  1       -4 0.26098329E-02 0.12499901E+03</pdfrwt>
<totfact> 0.82734280E+03</totfact>
</mgrwt>
</event>
<event>
 5    1  0.3309811E-002  0.1249991E+03  0.7818608E-02  0.1235071E+00
          4   -1    0    0  501    0  0.00000000000E+00  0.00000000000E+00  0.26694245044E+02  0.26724438600E+02  0.12700000000E+01 0. -1.
         -4   -1    0    0    0  501 -0.00000000000E+00 -0.00000000000E+00 -0.14621529392E+03  0.14622080931E+03  0.12700000000E+01 0. -1.
         25    2    1    2    0    0  0.00000000000E+00  0.00000000000E+00 -0.11952104888E+03  0.17294524791E+03  0.12499911060E+03 0.  0.
    9000005    1    3    3    0    0  0.37867410119E+02 -0.23618554330E+02 -0.12028159301E+03  0.12829824034E+03  0.10000000000E+01 0.  0.
    9000005    1    3    3    0    0 -0.37867410119E+02  0.23618554330E+02  0.76054413268E+00  0.44647007572E+02  0.10000000000E+01 0.  0.
<mgrwt>
<rscale>  0 0.12499911E+03</rscale>
<asrwt>0</asrwt>
<pdfrwt beam="1">  1        4 0.41095539E-02 0.12499911E+03</pdfrwt>
<pdfrwt beam="2">  1       -4 0.22497407E-01 0.12499911E+03</pdfrwt>
<totfact> 0.94904411E+03</totfact>
</mgrwt>
</event>
<event>
 5    1  0.3309811E-002  0.1250021E+03  0.7818608E-02  0.1235066E+00
         -4   -1    0    0    0  501 -0.00000000000E+00  0.00000000000E+00  0.76195854190E+02  0.76206437364E+02  0.12700000000E+01 0. -1.
          4   -1    0    0  501    0  0.00000000000E+00 -0.00000000000E+00 -0.51245619724E+02  0.51261354263E+02  0.12700000000E+01 0. -1.
         25    2    1    2    0    0  0.00000000000E+00  0.00000000000E+00  0.24950234466E+02  0.12746779163E+03  0.12500209479E+03 0.  0.
    9000005    1    3    3    0    0 -0.25406886403E+02 -0.34614032503E+02 -0.33826919841E+02  0.54670848070E+02  0.10000000000E+01 0.  0.
    9000005    1    3    3    0    0  0.25406886403E+02  0.34614032503E+02  0.58777154307E+02  0.72796943557E+02  0.10000000000E+01 0.  0.
<mgrwt>
<rscale>  0 0.12500209E+03</rscale>
<asrwt>0</asrwt>
<pdfrwt beam="2">  1        4 0.78859659E-02 0.12500209E+03</pdfrwt>
<pdfrwt beam="1">  1       -4 0.11724464E-01 0.12500209E+03</pdfrwt>
<totfact> 0.10398506E+04</totfact>
</mgrwt>
</event>
<event>
 5    1  0.3309811E-002  0.1250003E+03  0.7818608E-02  0.1235069E+00
          4   -1    0    0  501    0  0.00000000000E+00  0.00000000000E+00  0.12308382881E+03  0.12309038067E+03  0.12700000000E+01 0.  1.
         -4   -1    0    0    0  501 -0.00000000000E+00 -0.00000000000E+00 -0.31716542706E+02  0.31741959316E+02  0.12700000000E+01 0.  1.
         25    2    1    2    0    0  0.00000000000E+00  0.00000000000E+00  0.91367286104E+02  0.15483233999E+03  0.12500029015E+03 0.  0.
    9000005    1    3    3    0    0 -0.33628048509E+01  0.83714222136E+01  0.12227904951E+03  0.12261547666E+03  0.10000000000E+01 0.  0.
    9000005    1    3    3    0    0  0.33628048509E+01 -0.83714222136E+01 -0.30911763405E+02  0.32216863335E+02  0.10000000000E+01 0.  0.
<mgrwt>
<rscale>  0 0.12500029E+03</rscale>
<asrwt>0</asrwt>
<pdfrwt beam="1">  1        4 0.18938433E-01 0.12500029E+03</pdfrwt>
<pdfrwt beam="2">  1       -4 0.48819272E-02 0.12500029E+03</pdfrwt>
<totfact> 0.98347781E+03</totfact>
</mgrwt>
</event>
<event>
 5    1  0.3309811E-002  0.1250003E+03  0.7818608E-02  0.1235069E+00
          4   -1    0    0  501    0  0.00000000000E+00  0.00000000000E+00  0.15536295082E+02  0.15588116142E+02  0.12700000000E+01 0. -1.
         -4   -1    0    0    0  501 -0.00000000000E+00 -0.00000000000E+00 -0.25095641368E+03  0.25095962717E+03  0.12700000000E+01 0. -1.
         25    2    1    2    0    0  0.00000000000E+00  0.00000000000E+00 -0.23542011860E+03  0.26654774331E+03  0.12500026889E+03 0.  0.
    9000005    1    3    3    0    0  0.24764045413E+02  0.55251984722E+02 -0.15069146792E+03  0.16240368920E+03  0.10000000000E+01 0.  0.
    9000005    1    3    3    0    0 -0.24764045413E+02 -0.55251984722E+02 -0.84728650678E+02  0.10414405411E+03  0.10000000000E+01 0.  0.
<mgrwt>
<rscale>  0 0.12500027E+03</rscale>
<asrwt>0</asrwt>
<pdfrwt beam="1">  1        4 0.23944328E-02 0.12500027E+03</pdfrwt>
<pdfrwt beam="2">  1       -4 0.38612910E-01 0.12500027E+03</pdfrwt>
<totfact> 0.79995392E+03</totfact>
</mgrwt>
</event>
<event>
 5    1  0.3309811E-002  0.1250011E+03  0.7818608E-02  0.1235068E+00
          4   -1    0    0  501    0  0.00000000000E+00  0.00000000000E+00  0.17462241755E+03  0.17462703574E+03  0.12700000000E+01 0. -1.
         -4   -1    0    0    0  501 -0.00000000000E+00 -0.00000000000E+00 -0.22347131989E+02  0.22383190303E+02  0.12700000000E+01 0. -1.
         25    2    1    2    0    0  0.00000000000E+00  0.00000000000E+00  0.15227528556E+03  0.19701022604E+03  0.12500106629E+03 0.  0.
    9000005    1    3    3    0    0 -0.46657658620E+01 -0.93496206193E+01 -0.20968274874E+02  0.23448951533E+02  0.10000000000E+01 0.  0.
    9000005    1    3    3    0    0  0.46657658620E+01  0.93496206193E+01  0.17324356044E+03  0.17356127451E+03  0.10000000000E+01 0.  0.
<mgrwt>
<rscale>  0 0.12500107E+03</rscale>
<asrwt>0</asrwt>
<pdfrwt beam="1">  1        4 0.26868118E-01 0.12500107E+03</pdfrwt>
<pdfrwt beam="2">  1       -4 0.34411491E-02 0.12500107E+03</pdfrwt>
<totfact> 0.90639497E+03</totfact>
</mgrwt>
</event>
<event>
 5    1  0.3309811E-002  0.1249980E+03  0.7818608E-02  0.1235072E+00
         -4   -1    0    0    0  501 -0.00000000000E+00  0.00000000000E+00  0.12754713959E+04  0.12754720282E+04  0.12700000000E+01 0.  1.
          4   -1    0    0  501    0  0.00000000000E+00 -0.00000000000E+00 -0.29301674330E+01  0.31935530660E+01  0.12700000000E+01 0.  1.
         25    2    1    2    0    0  0.00000000000E+00  0.00000000000E+00  0.12725412285E+04  0.12786655813E+04  0.12499796200E+03 0.  0.
    9000005    1    3    3    0    0 -0.19460911225E+02  0.32525908501E+02  0.11445086496E+04  0.11451365468E+04  0.10000000000E+01 0.  0.
    9000005    1    3    3    0    0  0.19460911225E+02 -0.32525908501E+02  0.12803257884E+03  0.13352903443E+03  0.10000000000E+01 0.  0.
<mgrwt>
<rscale>  0 0.12499796E+03</rscale>
<asrwt>0</asrwt>
<pdfrwt beam="2">  1        4 0.47110450E-03 0.12499796E+03</pdfrwt>
<pdfrwt beam="1">  1       -4 0.19624649E+00 0.12499796E+03</pdfrwt>
<totfact> 0.22738754E+03</totfact>
</mgrwt>
</event>
<event>
 5    1  0.3309811E-002  0.1250031E+03  0.7818608E-02  0.1235064E+00
          4   -1    0    0  501    0  0.00000000000E+00  0.00000000000E+00  0.69391119077E+02  0.69402739908E+02  0.12700000000E+01 0. -1.
         -4   -1    0    0    0  501 -0.00000000000E+00 -0.00000000000E+00 -0.56272563669E+02  0.56286892985E+02  0.12700000000E+01 0. -1.
         25    2    1    2    0    0  0.00000000000E+00  0.00000000000E+00  0.13118555408E+02  0.12568963289E+03  0.12500314924E+03 0.  0.
    9000005    1    3    3    0    0  0.40090140393E+02  0.44555426167E+02  0.24349420832E+02  0.64701620169E+02  0.10000000000E+01 0.  0.
    9000005    1    3    3    0    0 -0.40090140393E+02 -0.44555426167E+02 -0.11230865424E+02  0.60988012723E+02  0.10000000000E+01 0.  0.
<mgrwt>
<rscale>  0 0.12500315E+03</rscale>
<asrwt>0</asrwt>
<pdfrwt beam="1">  1        4 0.10677553E-01 0.12500315E+03</pdfrwt>
<pdfrwt beam="2">  1       -4 0.86593136E-02 0.12500315E+03</pdfrwt>
<totfact> 0.10437031E+04</totfact>
</mgrwt>
</event>
<event>
 5    1  0.3309811E-002  0.1249991E+03  0.7818608E-02  0.1235071E+00
         -4   -1    0    0    0  501 -0.00000000000E+00  0.00000000000E+00  0.21031755963E+03  0.21032139403E+03  0.12700000000E+01 0. -1.
          4   -1    0    0  501    0  0.00000000000E+00 -0.00000000000E+00 -0.18547128250E+02  0.18590558526E+02  0.12700000000E+01 0. -1.
         25    2    1    2    0    0  0.00000000000E+00  0.00000000000E+00  0.19177043138E+03  0.22891195256E+03  0.12499913469E+03 0.  0.
    9000005    1    3    3    0    0  0.55965960915E+01 -0.60114270354E+01  0.20933379328E+03  0.20949724617E+03  0.10000000000E+01 0.  0.
    9000005    1    3    3    0    0 -0.55965960915E+01  0.60114270354E+01 -0.17563361904E+02  0.19414706389E+02  0.10000000000E+01 0.  0.
<mgrwt>
<rscale>  0 0.12499913E+03</rscale>
<asrwt>0</asrwt>
<pdfrwt beam="2">  1        4 0.28570403E-02 0.12499913E+03</pdfrwt>
<pdfrwt beam="1">  1       -4 0.32360181E-01 0.12499913E+03</pdfrwt>
<totfact> 0.85478599E+03</totfact>
</mgrwt>
</event>
<event>
 5    1  0.3309811E-002  0.1250009E+03  0.7818608E-02  0.1235068E+00
         -4   -1    0    0    0  501 -0.00000000000E+00  0.00000000000E+00  0.13468191313E+02  0.13527936917E+02  0.12700000000E+01 0.  1.
          4   -1    0    0  501    0  0.00000000000E+00 -0.00000000000E+00 -0.28933635568E+03  0.28933914291E+03  0.12700000000E+01 0.  1.
         25    2    1    2    0    0  0.00000000000E+00  0.00000000000E+00 -0.27586816437E+03  0.30286707982E+03  0.12500089572E+03 0.  0.
    9000005    1    3    3    0    0  0.18981705836E+02  0.58158704023E+02 -0.16882663290E+03  0.17957219157E+03  0.10000000000E+01 0.  0.
    9000005    1    3    3    0    0 -0.18981705836E+02 -0.58158704023E+02 -0.10704153147E+03  0.12329488826E+03  0.10000000000E+01 0.  0.
<mgrwt>
<rscale>  0 0.12500090E+03</rscale>
<asrwt>0</asrwt>
<pdfrwt beam="2">  1        4 0.44518091E-01 0.12500090E+03</pdfrwt>
<pdfrwt beam="1">  1       -4 0.20768399E-02 0.12500090E+03</pdfrwt>
<totfact> 0.75239106E+03</totfact>
</mgrwt>
</event>
<event>
 5    1  0.3309811E-002  0.1250039E+03  0.7818608E-02  0.1235063E+00
         -4   -1    0    0    0  501 -0.00000000000E+00  0.00000000000E+00  0.23476001084E+02  0.23510328090E+02  0.12700000000E+01 0.  1.
          4   -1    0    0  501    0  0.00000000000E+00 -0.00000000000E+00 -0.16624529578E+03  0.16625014667E+03  0.12700000000E+01 0.  1.
         25    2    1    2    0    0  0.00000000000E+00  0.00000000000E+00 -0.14276929469E+03  0.18976047476E+03  0.12500386504E+03 0.  0.
    9000005    1    3    3    0    0 -0.26815886818E+02 -0.29961971801E+02  0.12384649518E+01  0.40241090138E+02  0.10000000000E+01 0.  0.
    9000005    1    3    3    0    0  0.26815886818E+02  0.29961971801E+02 -0.14400775964E+03  0.14951938462E+03  0.10000000000E+01 0.  0.
<mgrwt>
<rscale>  0 0.12500387E+03</rscale>
<asrwt>0</asrwt>
<pdfrwt beam="2">  1        4 0.25579212E-01 0.12500387E+03</pdfrwt>
<pdfrwt beam="1">  1       -4 0.36147063E-02 0.12500387E+03</pdfrwt>
<totfact> 0.91881053E+03</totfact>
</mgrwt>
</event>
<event>
 5    1  0.3309811E-002  0.1249751E+03  0.7818608E-02  0.1235108E+00
         -4   -1    0    0    0  501 -0.00000000000E+00  0.00000000000E+00  0.32228865899E+02  0.32253878793E+02  0.12700000000E+01 0. -1.
          4   -1    0    0  501    0  0.00000000000E+00 -0.00000000000E+00 -0.12107987433E+03  0.12108653463E+03  0.12700000000E+01 0. -1.
         25    2    1    2    0    0  0.00000000000E+00  0.00000000000E+00 -0.88851008433E+02  0.15334041342E+03  0.12497512028E+03 0.  0.
    9000005    1    3    3    0    0  0.39595054927E+02 -0.24119192628E+02  0.69636592728E+01  0.46893457733E+02  0.10000000000E+01 0.  0.
    9000005    1    3    3    0    0 -0.39595054927E+02  0.24119192628E+02 -0.95814667706E+02  0.10644695569E+03  0.10000000000E+01 0.  0.
<mgrwt>
<rscale>  0 0.12497512E+03</rscale>
<asrwt>0</asrwt>
<pdfrwt beam="2">  1        4 0.18630109E-01 0.12497512E+03</pdfrwt>
<pdfrwt beam="1">  1       -4 0.49607235E-02 0.12497512E+03</pdfrwt>
<totfact> 0.98697189E+03</totfact>
</mgrwt>
</event>
<event>
 5    1  0.3309811E-002  0.1249996E+03  0.7818608E-02  0.1235070E+00
          4   -1    0    0  501    0  0.00000000000E+00  0.00000000000E+00  0.38590716498E+03  0.38590925473E+03  0.12700000000E+01 0.  1.
         -4   -1    0    0    0  501 -0.00000000000E+00 -0.00000000000E+00 -0.10080223729E+02  0.10159911930E+02  0.12700000000E+01 0.  1.
         25    2    1    2    0    0  0.00000000000E+00  0.00000000000E+00  0.37582694125E+03  0.39606916666E+03  0.12499958002E+03 0.  0.
    9000005    1    3    3    0    0 -0.22438707051E+02 -0.75069112900E+01  0.46462264848E+01  0.24133725610E+02  0.10000000000E+01 0.  0.
    9000005    1    3    3    0    0  0.22438707051E+02  0.75069112900E+01  0.37118071477E+03  0.37193544105E+03  0.10000000000E+01 0.  0.
<mgrwt>
<rscale>  0 0.12499958E+03</rscale>
<asrwt>0</asrwt>
<pdfrwt beam="1">  1        4 0.59376602E-01 0.12499958E+03</pdfrwt>
<pdfrwt beam="2">  1       -4 0.15570948E-02 0.12499958E+03</pdfrwt>
<totfact> 0.64937515E+03</totfact>
</mgrwt>
</event>
<event>
 5    1  0.3309811E-002  0.1249973E+03  0.7818608E-02  0.1235074E+00
         -4   -1    0    0    0  501 -0.00000000000E+00  0.00000000000E+00  0.10000914230E+03  0.10001720573E+03  0.12700000000E+01 0.  1.
          4   -1    0    0  501    0  0.00000000000E+00 -0.00000000000E+00 -0.39037258139E+02  0.39057911145E+02  0.12700000000E+01 0.  1.
         25    2    1    2    0    0  0.00000000000E+00  0.00000000000E+00  0.60971884157E+02  0.13907511688E+03  0.12499726988E+03 0.  0.
    9000005    1    3    3    0    0 -0.59216364718E+02  0.13708935484E+02  0.46631150485E+02  0.76615774865E+02  0.10000000000E+01 0.  0.
    9000005    1    3    3    0    0  0.59216364718E+02 -0.13708935484E+02  0.14340733671E+02  0.62459342014E+02  0.10000000000E+01 0.  0.
<mgrwt>
<rscale>  0 0.12499727E+03</rscale>
<asrwt>0</asrwt>
<pdfrwt beam="2">  1        4 0.60079410E-02 0.12499727E+03</pdfrwt>
<pdfrwt beam="1">  1       -4 0.15388231E-01 0.12499727E+03</pdfrwt>
<totfact> 0.10153415E+04</totfact>
</mgrwt>
</event>
<event>
 5    1  0.3309811E-002  0.1249992E+03  0.7818608E-02  0.1235071E+00
         -4   -1    0    0    0  501 -0.00000000000E+00  0.00000000000E+00  0.27389644020E+02  0.27419071822E+02  0.12700000000E+01 0. -1.
          4   -1    0    0  501    0  0.00000000000E+00 -0.00000000000E+00 -0.14250710448E+03  0.14251276339E+03  0.12700000000E+01 0. -1.
         25    2    1    2    0    0  0.00000000000E+00  0.00000000000E+00 -0.11511746046E+03  0.16993183521E+03  0.12499919565E+03 0.  0.
    9000005    1    3    3    0    0 -0.55301636001E+01  0.28382945876E+02  0.17753892297E+02  0.33946649580E+02  0.10000000000E+01 0.  0.
    9000005    1    3    3    0    0  0.55301636001E+01 -0.28382945876E+02 -0.13287135276E+03  0.13598518563E+03  0.10000000000E+01 0.  0.
<mgrwt>
<rscale>  0 0.12499920E+03</rscale>
<asrwt>0</asrwt>
<pdfrwt beam="2">  1        4 0.21926868E-01 0.12499920E+03</pdfrwt>
<pdfrwt beam="1">  1       -4 0.42164904E-02 0.12499920E+03</pdfrwt>
<totfact> 0.95463067E+03</totfact>
</mgrwt>
</event>
<event>
 5    1  0.3309811E-002  0.1249991E+03  0.7818608E-02  0.1235071E+00
          4   -1    0    0  501    0  0.00000000000E+00  0.00000000000E+00  0.33219048901E+01  0.35563959424E+01  0.12700000000E+01 0. -1.
         -4   -1    0    0    0  501 -0.00000000000E+00 -0.00000000000E+00 -0.11355674813E+04  0.11355681914E+04  0.12700000000E+01 0. -1.
         25    2    1    2    0    0  0.00000000000E+00  0.00000000000E+00 -0.11322455764E+04  0.11391245874E+04  0.12499912142E+03 0.  0.
    9000005    1    3    3    0    0 -0.98789066843E+00  0.23970413775E+02 -0.10919739077E+04  0.10922378732E+04  0.10000000000E+01 0.  0.
    9000005    1    3    3    0    0  0.98789066843E+00 -0.23970413775E+02 -0.40271668709E+02  0.46886714165E+02  0.10000000000E+01 0.  0.
<mgrwt>
<rscale>  0 0.12499912E+03</rscale>
<asrwt>0</asrwt>
<pdfrwt beam="1">  1        4 0.52915560E-03 0.12499912E+03</pdfrwt>
<pdfrwt beam="2">  1       -4 0.17472048E+00 0.12499912E+03</pdfrwt>
<totfact> 0.26364481E+03</totfact>
</mgrwt>
</event>
<event>
 5    1  0.3309811E-002  0.1249993E+03  0.7818608E-02  0.1235070E+00
         -4   -1    0    0    0  501 -0.00000000000E+00  0.00000000000E+00  0.12857656345E+03  0.12858283544E+03  0.12700000000E+01 0.  1.
          4   -1    0    0  501    0  0.00000000000E+00 -0.00000000000E+00 -0.30360101705E+02  0.30386652918E+02  0.12700000000E+01 0.  1.
         25    2    1    2    0    0  0.00000000000E+00  0.00000000000E+00  0.98216461745E+02  0.15896948835E+03  0.12499929948E+03 0.  0.
    9000005    1    3    3    0    0 -0.36171372051E+02  0.21630712683E+02 -0.95716146546E+01  0.43230448694E+02  0.10000000000E+01 0.  0.
    9000005    1    3    3    0    0  0.36171372051E+02 -0.21630712683E+02  0.10778807640E+03  0.11573903966E+03  0.10000000000E+01 0.  0.
<mgrwt>
<rscale>  0 0.12499930E+03</rscale>
<asrwt>0</asrwt>
<pdfrwt beam="2">  1        4 0.46733098E-02 0.12499930E+03</pdfrwt>
<pdfrwt beam="1">  1       -4 0.19783535E-01 0.12499930E+03</pdfrwt>
<totfact> 0.97543364E+03</totfact>
</mgrwt>
</event>
<event>
 5    1  0.3309811E-002  0.1249975E+03  0.7818608E-02  0.1235073E+00
         -4   -1    0    0    0  501 -0.00000000000E+00  0.00000000000E+00  0.35559397790E+02  0.35582069518E+02  0.12700000000E+01 0.  1.
          4   -1    0    0  501    0  0.00000000000E+00 -0.00000000000E+00 -0.10978558209E+03  0.10979292752E+03  0.12700000000E+01 0.  1.
         25    2    1    2    0    0  0.00000000000E+00  0.00000000000E+00 -0.74226184298E+02  0.14537499704E+03  0.12499745329E+03 0.  0.
    9000005    1    3    3    0    0  0.60694798290E+02  0.11882288797E+02 -0.26707864041E+02  0.67374752898E+02  0.10000000000E+01 0.  0.
    9000005    1    3    3    0    0 -0.60694798290E+02 -0.11882288797E+02 -0.47518320257E+02  0.78000244144E+02  0.10000000000E+01 0.  0.
<mgrwt>
<rscale>  0 0.12499745E+03</rscale>
<asrwt>0</asrwt>
<pdfrwt beam="2">  1        4 0.16892398E-01 0.12499745E+03</pdfrwt>
<pdfrwt beam="1">  1       -4 0.54729857E-02 0.12499745E+03</pdfrwt>
<totfact> 0.10023950E+04</totfact>
</mgrwt>
</event>
<event>
 5    1  0.3309811E-002  0.1250063E+03  0.7818608E-02  0.1235059E+00
         -4   -1    0    0    0  501 -0.00000000000E+00  0.00000000000E+00  0.13576504883E+03  0.13577098874E+03  0.12700000000E+01 0.  1.
          4   -1    0    0  501    0  0.00000000000E+00 -0.00000000000E+00 -0.28754455669E+02  0.28782488093E+02  0.12700000000E+01 0.  1.
         25    2    1    2    0    0  0.00000000000E+00  0.00000000000E+00  0.10701059316E+03  0.16455347683E+03  0.12500631860E+03 0.  0.
    9000005    1    3    3    0    0  0.97296301872E+01 -0.56618519752E+02  0.85892129761E+02  0.10333818480E+03  0.10000000000E+01 0.  0.
    9000005    1    3    3    0    0 -0.97296301872E+01  0.56618519752E+02  0.21118463396E+02  0.61215292033E+02  0.10000000000E+01 0.  0.
<mgrwt>
<rscale>  0 0.12500632E+03</rscale>
<asrwt>0</asrwt>
<pdfrwt beam="2">  1        4 0.44263756E-02 0.12500632E+03</pdfrwt>
<pdfrwt beam="1">  1       -4 0.20889544E-01 0.12500632E+03</pdfrwt>
<totfact> 0.96458330E+03</totfact>
</mgrwt>
</event>
<event>
 5    1  0.3309811E-002  0.1250016E+03  0.7818608E-02  0.1235067E+00
          4   -1    0    0  501    0  0.00000000000E+00  0.00000000000E+00  0.37881133234E+02  0.37902416217E+02  0.12700000000E+01 0. -1.
         -4   -1    0    0    0  501 -0.00000000000E+00 -0.00000000000E+00 -0.10306707829E+03  0.10307490251E+03  0.12700000000E+01 0. -1.
         25    2    1    2    0    0  0.00000000000E+00  0.00000000000E+00 -0.65185945058E+02  0.14097731873E+03  0.12500158784E+03 0.  0.
    9000005    1    3    3    0    0  0.11502201125E+02  0.24914875226E+02 -0.95913908036E+02  0.99767376396E+02  0.10000000000E+01 0.  0.
    9000005    1    3    3    0    0 -0.11502201125E+02 -0.24914875226E+02  0.30727962978E+02  0.41209942332E+02  0.10000000000E+01 0.  0.
<mgrwt>
<rscale>  0 0.12500159E+03</rscale>
<asrwt>0</asrwt>
<pdfrwt beam="1">  1        4 0.58301057E-02 0.12500159E+03</pdfrwt>
<pdfrwt beam="2">  1       -4 0.15858713E-01 0.12500159E+03</pdfrwt>
<totfact> 0.10113009E+04</totfact>
</mgrwt>
</event>
<event>
 4    1  0.3309811E-002  0.9538414E+02  0.7818608E-02  0.1290313E+00
          4   -1    0    0  501    0  0.00000000000E+00  0.00000000000E+00  0.20448025481E+02  0.20487426536E+02  0.12700000000E+01 0. -1.
         -4   -1    0    0    0  501 -0.00000000000E+00 -0.00000000000E+00 -0.11108477144E+03  0.11109203097E+03  0.12700000000E+01 0. -1.
    9000005    1    1    2    0    0  0.42197200161E+01  0.89866402299E+01  0.19015298771E+02  0.21474341130E+02  0.10000000000E+01 0.  0.
    9000005    1    1    2    0    0 -0.42197200161E+01 -0.89866402299E+01 -0.10965204473E+03  0.11010511638E+03  0.10000000000E+01 0.  0.
<mgrwt>
<rscale>  0 0.95384139E+02</rscale>
<asrwt>0</asrwt>
<pdfrwt beam="1">  1        4 0.31494394E-02 0.95384139E+02</pdfrwt>
<pdfrwt beam="2">  1       -4 0.17093554E-01 0.95384139E+02</pdfrwt>
<totfact> 0.21797431E+04</totfact>
</mgrwt>
</event>
<event>
 5    1  0.3309811E-002  0.1250005E+03  0.7818608E-02  0.1235069E+00
          4   -1    0    0  501    0  0.00000000000E+00  0.00000000000E+00  0.81063305456E+03  0.81063404940E+03  0.12700000000E+01 0.  1.
         -4   -1    0    0    0  501 -0.00000000000E+00 -0.00000000000E+00 -0.47341100391E+01  0.49014995524E+01  0.12700000000E+01 0.  1.
         25    2    1    2    0    0  0.00000000000E+00  0.00000000000E+00  0.80589894452E+03  0.81553554895E+03  0.12500049129E+03 0.  0.
    9000005    1    3    3    0    0  0.42749950848E+02  0.45562629665E+02  0.39427150552E+03  0.39919234910E+03  0.10000000000E+01 0.  0.
    9000005    1    3    3    0    0 -0.42749950848E+02 -0.45562629665E+02  0.41162743901E+03  0.41634319985E+03  0.10000000000E+01 0.  0.
<mgrwt>
<rscale>  0 0.12500049E+03</rscale>
<asrwt>0</asrwt>
<pdfrwt beam="1">  1        4 0.12472567E+00 0.12500049E+03</pdfrwt>
<pdfrwt beam="2">  1       -4 0.74127761E-03 0.12500049E+03</pdfrwt>
<totfact> 0.37580133E+03</totfact>
</mgrwt>
</event>
<event>
 5    1  0.3309811E-002  0.1249987E+03  0.7818608E-02  0.1235071E+00
          4   -1    0    0  501    0  0.00000000000E+00  0.00000000000E+00  0.37613995729E+03  0.37614210130E+03  0.12700000000E+01 0. -1.
         -4   -1    0    0    0  501 -0.00000000000E+00 -0.00000000000E+00 -0.10343871121E+02  0.10421543541E+02  0.12700000000E+01 0. -1.
         25    2    1    2    0    0  0.00000000000E+00  0.00000000000E+00  0.36579608617E+03  0.38656364484E+03  0.12499869942E+03 0.  0.
    9000005    1    3    3    0    0  0.56087001703E+02 -0.22881110146E+02  0.23039365420E+03  0.23822580225E+03  0.10000000000E+01 0.  0.
    9000005    1    3    3    0    0 -0.56087001703E+02  0.22881110146E+02  0.13540243197E+03  0.14833784259E+03  0.10000000000E+01 0.  0.
<mgrwt>
<rscale>  0 0.12499870E+03</rscale>
<asrwt>0</asrwt>
<pdfrwt beam="1">  1        4 0.57873830E-01 0.12499870E+03</pdfrwt>
<pdfrwt beam="2">  1       -4 0.15975044E-02 0.12499870E+03</pdfrwt>
<totfact> 0.65882801E+03</totfact>
</mgrwt>
</event>
<event>
 5    1  0.3309811E-002  0.1249901E+03  0.7818608E-02  0.1235085E+00
          4   -1    0    0  501    0  0.00000000000E+00  0.00000000000E+00  0.47347753394E+01  0.49021421353E+01  0.12700000000E+01 0.  1.
         -4   -1    0    0    0  501 -0.00000000000E+00 -0.00000000000E+00 -0.81038857762E+03  0.81038957276E+03  0.12700000000E+01 0.  1.
         25    2    1    2    0    0  0.00000000000E+00  0.00000000000E+00 -0.80565380228E+03  0.81529171490E+03  0.12499012460E+03 0.  0.
    9000005    1    3    3    0    0 -0.28734089850E+02  0.50092422867E+02 -0.55852145486E+03  0.56149987915E+03  0.10000000000E+01 0.  0.
    9000005    1    3    3    0    0  0.28734089850E+02 -0.50092422867E+02 -0.24713234742E+03  0.25379183575E+03  0.10000000000E+01 0.  0.
<mgrwt>
<rscale>  0 0.12499012E+03</rscale>
<asrwt>0</asrwt>
<pdfrwt beam="1">  1        4 0.74137854E-03 0.12499012E+03</pdfrwt>
<pdfrwt beam="2">  1       -4 0.12468801E+00 0.12499012E+03</pdfrwt>
<totfact> 0.37599256E+03</totfact>
</mgrwt>
</event>
<event>
 5    1  0.3309811E-002  0.1249990E+03  0.7818608E-02  0.1235071E+00
         -4   -1    0    0    0  501 -0.00000000000E+00  0.00000000000E+00  0.24534843983E+03  0.24535172676E+03  0.12700000000E+01 0.  1.
          4   -1    0    0  501    0  0.00000000000E+00 -0.00000000000E+00 -0.15892249060E+02  0.15942913165E+02  0.12700000000E+01 0.  1.
         25    2    1    2    0    0  0.00000000000E+00  0.00000000000E+00  0.22945619077E+03  0.26129463993E+03  0.12499898149E+03 0.  0.
    9000005    1    3    3    0    0 -0.27318810669E+02 -0.55488409641E+02  0.13341390335E+03  0.14705628388E+03  0.10000000000E+01 0.  0.
    9000005    1    3    3    0    0  0.27318810669E+02  0.55488409641E+02  0.96042287419E+02  0.11423835605E+03  0.10000000000E+01 0.  0.
<mgrwt>
<rscale>  0 0.12499898E+03</rscale>
<asrwt>0</asrwt>
<pdfrwt beam="2">  1        4 0.24491116E-02 0.12499898E+03</pdfrwt>
<pdfrwt beam="1">  1       -4 0.37750062E-01 0.12499898E+03</pdfrwt>
<totfact> 0.80726550E+03</totfact>
</mgrwt>
</event>
<event>
 5    1  0.3309811E-002  0.1250005E+03  0.7818608E-02  0.1235069E+00
         -4   -1    0    0    0  501 -0.00000000000E+00  0.00000000000E+00  0.33755384687E+03  0.33755623596E+03  0.12700000000E+01 0.  1.
          4   -1    0    0  501    0  0.00000000000E+00 -0.00000000000E+00 -0.11535035823E+02  0.11604738318E+02  0.12700000000E+01 0.  1.
         25    2    1    2    0    0  0.00000000000E+00  0.00000000000E+00  0.32601881105E+03  0.34916097428E+03  0.12500048321E+03 0.  0.
    9000005    1    3    3    0    0  0.25206764429E+02  0.18297659735E+02  0.31433942115E+03  0.31588044735E+03  0.10000000000E+01 0.  0.
    9000005    1    3    3    0    0 -0.25206764429E+02 -0.18297659735E+02  0.11679389895E+02  0.33280526935E+02  0.10000000000E+01 0.  0.
<mgrwt>
<rscale>  0 0.12500048E+03</rscale>
<asrwt>0</asrwt>
<pdfrwt beam="2">  1        4 0.17801666E-02 0.12500048E+03</pdfrwt>
<pdfrwt beam="1">  1       -4 0.51936900E-01 0.12500048E+03</pdfrwt>
<totfact> 0.69816214E+03</totfact>
</mgrwt>
</event>
<event>
 5    1  0.3309811E-002  0.1250048E+03  0.7818608E-02  0.1235062E+00
         -4   -1    0    0    0  501 -0.00000000000E+00  0.00000000000E+00  0.12795103243E+03  0.12795733507E+03  0.12700000000E+01 0.  1.
          4   -1    0    0  501    0  0.00000000000E+00 -0.00000000000E+00 -0.30511348782E+02  0.30537768492E+02  0.12700000000E+01 0.  1.
         25    2    1    2    0    0  0.00000000000E+00  0.00000000000E+00  0.97439683646E+02  0.15849510357E+03  0.12500482353E+03 0.  0.
    9000005    1    3    3    0    0 -0.29424831128E+02 -0.28817011051E+02 -0.10876207788E+02  0.42609068385E+02  0.10000000000E+01 0.  0.
    9000005    1    3    3    0    0  0.29424831128E+02  0.28817011051E+02  0.10831589143E+03  0.11588603518E+03  0.10000000000E+01 0.  0.
<mgrwt>
<rscale>  0 0.12500482E+03</rscale>
<asrwt>0</asrwt>
<pdfrwt beam="2">  1        4 0.46965708E-02 0.12500482E+03</pdfrwt>
<pdfrwt beam="1">  1       -4 0.19687291E-01 0.12500482E+03</pdfrwt>
<totfact> 0.97623117E+03</totfact>
</mgrwt>
</event>
<event>
 5    1  0.3309811E-002  0.1250001E+03  0.7818608E-02  0.1235069E+00
          4   -1    0    0  501    0  0.00000000000E+00  0.00000000000E+00  0.72091227644E+02  0.72102413297E+02  0.12700000000E+01 0.  1.
         -4   -1    0    0    0  501 -0.00000000000E+00 -0.00000000000E+00 -0.54162055025E+02  0.54176942555E+02  0.12700000000E+01 0.  1.
         25    2    1    2    0    0  0.00000000000E+00  0.00000000000E+00  0.17929172619E+02  0.12627935585E+03  0.12500008193E+03 0.  0.
    9000005    1    3    3    0    0 -0.53975070291E+02 -0.30286479864E+02  0.23461702314E+00  0.61900194835E+02  0.10000000000E+01 0.  0.
    9000005    1    3    3    0    0  0.53975070291E+02  0.30286479864E+02  0.17694555595E+02  0.64379161016E+02  0.10000000000E+01 0.  0.
<mgrwt>
<rscale>  0 0.12500008E+03</rscale>
<asrwt>0</asrwt>
<pdfrwt beam="1">  1        4 0.11092964E-01 0.12500008E+03</pdfrwt>
<pdfrwt beam="2">  1       -4 0.83346295E-02 0.12500008E+03</pdfrwt>
<totfact> 0.10424825E+04</totfact>
</mgrwt>
</event>
<event>
 5    1  0.3309811E-002  0.1250083E+03  0.7818608E-02  0.1235056E+00
         -4   -1    0    0    0  501 -0.00000000000E+00  0.00000000000E+00  0.99853755888E+03  0.99853836651E+03  0.12700000000E+01 0.  1.
          4   -1    0    0  501    0  0.00000000000E+00 -0.00000000000E+00 -0.38086017566E+01  0.40147661626E+01  0.12700000000E+01 0.  1.
         25    2    1    2    0    0  0.00000000000E+00  0.00000000000E+00  0.99472895712E+03  0.10025531327E+04  0.12500834250E+03 0.  0.
    9000005    1    3    3    0    0 -0.30497641649E+02  0.33090692552E+02  0.84516069656E+03  0.84635849561E+03  0.10000000000E+01 0.  0.
    9000005    1    3    3    0    0  0.30497641649E+02 -0.33090692552E+02  0.14956826057E+03  0.15619463707E+03  0.10000000000E+01 0.  0.
<mgrwt>
<rscale>  0 0.12500834E+03</rscale>
<asrwt>0</asrwt>
<pdfrwt beam="2">  1        4 0.60185863E-03 0.12500834E+03</pdfrwt>
<pdfrwt beam="1">  1       -4 0.15363735E+00 0.12500834E+03</pdfrwt>
<totfact> 0.30514721E+03</totfact>
</mgrwt>
</event>
<event>
 5    1  0.3309811E-002  0.1250129E+03  0.7818608E-02  0.1235049E+00
         -4   -1    0    0    0  501 -0.00000000000E+00  0.00000000000E+00  0.38510830983E+02  0.38531766154E+02  0.12700000000E+01 0.  1.
          4   -1    0    0  501    0  0.00000000000E+00 -0.00000000000E+00 -0.10140101093E+03  0.10140896370E+03  0.12700000000E+01 0.  1.
         25    2    1    2    0    0  0.00000000000E+00  0.00000000000E+00 -0.62890179951E+02  0.13994072985E+03  0.12501293188E+03 0.  0.
    9000005    1    3    3    0    0  0.31991032492E+02  0.47869186446E+02 -0.58662483401E+02  0.82202020229E+02  0.10000000000E+01 0.  0.
    9000005    1    3    3    0    0 -0.31991032492E+02 -0.47869186446E+02 -0.42276965501E+01  0.57738709624E+02  0.10000000000E+01 0.  0.
<mgrwt>
<rscale>  0 0.12501293E+03</rscale>
<asrwt>0</asrwt>
<pdfrwt beam="2">  1        4 0.15602378E-01 0.12501293E+03</pdfrwt>
<pdfrwt beam="1">  1       -4 0.59269654E-02 0.12501293E+03</pdfrwt>
<totfact> 0.10131862E+04</totfact>
</mgrwt>
</event>
<event>
 5    1  0.3309811E-002  0.1249972E+03  0.7818608E-02  0.1235074E+00
          4   -1    0    0  501    0  0.00000000000E+00  0.00000000000E+00  0.19178780977E+02  0.19220784057E+02  0.12700000000E+01 0. -1.
         -4   -1    0    0    0  501 -0.00000000000E+00 -0.00000000000E+00 -0.20339964134E+03  0.20340360615E+03  0.12700000000E+01 0. -1.
         25    2    1    2    0    0  0.00000000000E+00  0.00000000000E+00 -0.18422086036E+03  0.22262439021E+03  0.12499717487E+03 0.  0.
    9000005    1    3    3    0    0 -0.90024679388E+01  0.31034217080E+02  0.31525948186E+01  0.32482393891E+02  0.10000000000E+01 0.  0.
    9000005    1    3    3    0    0  0.90024679388E+01 -0.31034217080E+02 -0.18737345518E+03  0.19014199632E+03  0.10000000000E+01 0.  0.
<mgrwt>
<rscale>  0 0.12499717E+03</rscale>
<asrwt>0</asrwt>
<pdfrwt beam="1">  1        4 0.29541178E-02 0.12499717E+03</pdfrwt>
<pdfrwt beam="2">  1       -4 0.31295787E-01 0.12499717E+03</pdfrwt>
<totfact> 0.86460225E+03</totfact>
</mgrwt>
</event>
<event>
 5    1  0.3309811E-002  0.1250022E+03  0.7818608E-02  0.1235066E+00
         -4   -1    0    0    0  501 -0.00000000000E+00  0.00000000000E+00  0.40149094054E+03  0.40149294918E+03  0.12700000000E+01 0.  1.
          4   -1    0    0  501    0  0.00000000000E+00 -0.00000000000E+00 -0.96862206905E+01  0.97691233621E+01  0.12700000000E+01 0.  1.
         25    2    1    2    0    0  0.00000000000E+00  0.00000000000E+00  0.39180471985E+03  0.41126207254E+03  0.12500221522E+03 0.  0.
    9000005    1    3    3    0    0  0.21648908639E+02 -0.35555112294E+02  0.34925298847E+03  0.35172644371E+03  0.10000000000E+01 0.  0.
    9000005    1    3    3    0    0 -0.21648908639E+02  0.35555112294E+02  0.42551731386E+02  0.59535628824E+02  0.10000000000E+01 0.  0.
<mgrwt>
<rscale>  0 0.12500222E+03</rscale>
<asrwt>0</asrwt>
<pdfrwt beam="2">  1        4 0.14967194E-02 0.12500222E+03</pdfrwt>
<pdfrwt beam="1">  1       -4 0.61774369E-01 0.12500222E+03</pdfrwt>
<totfact> 0.63468892E+03</totfact>
</mgrwt>
</event>
<event>
 5    1  0.3309811E-002  0.1249997E+03  0.7818608E-02  0.1235070E+00
         -4   -1    0    0    0  501 -0.00000000000E+00  0.00000000000E+00  0.16621525895E+03  0.16622011072E+03  0.12700000000E+01 0.  1.
          4   -1    0    0  501    0  0.00000000000E+00 -0.00000000000E+00 -0.23478690672E+02  0.23513013751E+02  0.12700000000E+01 0.  1.
         25    2    1    2    0    0  0.00000000000E+00  0.00000000000E+00  0.14273656828E+03  0.18973312447E+03  0.12499972239E+03 0.  0.
    9000005    1    3    3    0    0  0.13352468847E+02 -0.27249820398E+02 -0.11552234213E+02  0.32485308238E+02  0.10000000000E+01 0.  0.
    9000005    1    3    3    0    0 -0.13352468847E+02  0.27249820398E+02  0.15428880249E+03  0.15724781624E+03  0.10000000000E+01 0.  0.
<mgrwt>
<rscale>  0 0.12499972E+03</rscale>
<asrwt>0</asrwt>
<pdfrwt beam="2">  1        4 0.36151197E-02 0.12499972E+03</pdfrwt>
<pdfrwt beam="1">  1       -4 0.25574591E-01 0.12499972E+03</pdfrwt>
<totfact> 0.91894342E+03</totfact>
</mgrwt>
</event>
<event>
 5    1  0.3309811E-002  0.1250028E+03  0.7818608E-02  0.1235065E+00
          4   -1    0    0  501    0  0.00000000000E+00  0.00000000000E+00  0.60028196956E+02  0.60041629973E+02  0.12700000000E+01 0. -1.
         -4   -1    0    0    0  501 -0.00000000000E+00 -0.00000000000E+00 -0.65049568266E+02  0.65061964554E+02  0.12700000000E+01 0. -1.
         25    2    1    2    0    0  0.00000000000E+00  0.00000000000E+00 -0.50213713096E+01  0.12510359453E+03  0.12500278074E+03 0.  0.
    9000005    1    3    3    0    0  0.60935709326E+02 -0.32376111633E+01 -0.16004177773E+02  0.63093395084E+02  0.10000000000E+01 0.  0.
    9000005    1    3    3    0    0 -0.60935709326E+02  0.32376111633E+01  0.10982806464E+02  0.62010199442E+02  0.10000000000E+01 0.  0.
<mgrwt>
<rscale>  0 0.12500278E+03</rscale>
<asrwt>0</asrwt>
<pdfrwt beam="1">  1        4 0.92370941E-02 0.12500278E+03</pdfrwt>
<pdfrwt beam="2">  1       -4 0.10009613E-01 0.12500278E+03</pdfrwt>
<totfact> 0.10449956E+04</totfact>
</mgrwt>
</event>
<event>
 5    1  0.3309811E-002  0.1250004E+03  0.7818608E-02  0.1235069E+00
          4   -1    0    0  501    0  0.00000000000E+00  0.00000000000E+00  0.14511504085E+02  0.14566971230E+02  0.12700000000E+01 0.  1.
         -4   -1    0    0    0  501 -0.00000000000E+00 -0.00000000000E+00 -0.26861437848E+03  0.26861738073E+03  0.12700000000E+01 0.  1.
         25    2    1    2    0    0  0.00000000000E+00  0.00000000000E+00 -0.25410287440E+03  0.28318435196E+03  0.12500042566E+03 0.  0.
    9000005    1    3    3    0    0 -0.18367331995E+02  0.34971437967E+02 -0.23675517563E+03  0.24002994302E+03  0.10000000000E+01 0.  0.
    9000005    1    3    3    0    0  0.18367331995E+02 -0.34971437967E+02 -0.17347698766E+02  0.43154408935E+02  0.10000000000E+01 0.  0.
<mgrwt>
<rscale>  0 0.12500043E+03</rscale>
<asrwt>0</asrwt>
<pdfrwt beam="1">  1        4 0.22370369E-02 0.12500043E+03</pdfrwt>
<pdfrwt beam="2">  1       -4 0.41329783E-01 0.12500043E+03</pdfrwt>
<totfact> 0.77757035E+03</totfact>
</mgrwt>
</event>
<event>
 5    1  0.3309811E-002  0.1249978E+03  0.7818608E-02  0.1235073E+00
          4   -1    0    0  501    0  0.00000000000E+00  0.00000000000E+00  0.25182537192E+02  0.25214541031E+02  0.12700000000E+01 0.  1.
         -4   -1    0    0    0  501 -0.00000000000E+00 -0.00000000000E+00 -0.15497892911E+03  0.15498413263E+03  0.12700000000E+01 0.  1.
         25    2    1    2    0    0  0.00000000000E+00  0.00000000000E+00 -0.12979639192E+03  0.18019867366E+03  0.12499783452E+03 0.  0.
    9000005    1    3    3    0    0  0.48711531766E+02  0.20011315022E+02 -0.11339836701E+03  0.12503381821E+03  0.10000000000E+01 0.  0.
    9000005    1    3    3    0    0 -0.48711531766E+02 -0.20011315022E+02 -0.16398024902E+02  0.55164855448E+02  0.10000000000E+01 0.  0.
<mgrwt>
<rscale>  0 0.12499783E+03</rscale>
<asrwt>0</asrwt>
<pdfrwt beam="1">  1        4 0.38770987E-02 0.12499783E+03</pdfrwt>
<pdfrwt beam="2">  1       -4 0.23845774E-01 0.12499783E+03</pdfrwt>
<totfact> 0.93585797E+03</totfact>
</mgrwt>
</event>
<event>
 5    1  0.3309811E-002  0.1250020E+03  0.7818608E-02  0.1235066E+00
         -4   -1    0    0    0  501 -0.00000000000E+00  0.00000000000E+00  0.45778756522E+03  0.45778932684E+03  0.12700000000E+01 0. -1.
          4   -1    0    0  501    0  0.00000000000E+00 -0.00000000000E+00 -0.84841150234E+01  0.85786425342E+01  0.12700000000E+01 0. -1.
         25    2    1    2    0    0  0.00000000000E+00  0.00000000000E+00  0.44930345019E+03  0.46636796937E+03  0.12500196999E+03 0.  0.
    9000005    1    3    3    0    0 -0.53372120641E+01 -0.23622241398E+01  0.45678675118E+03  0.45682513284E+03  0.10000000000E+01 0.  0.
    9000005    1    3    3    0    0  0.53372120641E+01  0.23622241398E+01 -0.74833009877E+01  0.95428365372E+01  0.10000000000E+01 0.  0.
<mgrwt>
<rscale>  0 0.12500197E+03</rscale>
<asrwt>0</asrwt>
<pdfrwt beam="2">  1        4 0.13126551E-02 0.12500197E+03</pdfrwt>
<pdfrwt beam="1">  1       -4 0.70436275E-01 0.12500197E+03</pdfrwt>
<totfact> 0.58569060E+03</totfact>
</mgrwt>
</event>
<event>
 5    1  0.3309811E-002  0.1250026E+03  0.7818608E-02  0.1235065E+00
          4   -1    0    0  501    0  0.00000000000E+00  0.00000000000E+00  0.23445939285E+02  0.23480310240E+02  0.12700000000E+01 0. -1.
         -4   -1    0    0    0  501 -0.00000000000E+00 -0.00000000000E+00 -0.16645467752E+03  0.16645952231E+03  0.12700000000E+01 0. -1.
         25    2    1    2    0    0  0.00000000000E+00  0.00000000000E+00 -0.14300873823E+03  0.18993983255E+03  0.12500256309E+03 0.  0.
    9000005    1    3    3    0    0 -0.49676128272E+02  0.33177112765E+02 -0.99397278985E+02  0.11597093429E+03  0.10000000000E+01 0.  0.
    9000005    1    3    3    0    0  0.49676128272E+02 -0.33177112765E+02 -0.43611459249E+02  0.73968898257E+02  0.10000000000E+01 0.  0.
<mgrwt>
<rscale>  0 0.12500256E+03</rscale>
<asrwt>0</asrwt>
<pdfrwt beam="1">  1        4 0.36100843E-02 0.12500256E+03</pdfrwt>
<pdfrwt beam="2">  1       -4 0.25611428E-01 0.12500256E+03</pdfrwt>
<totfact> 0.91852511E+03</totfact>
</mgrwt>
</event>
<event>
 5    1  0.3309811E-002  0.1249699E+03  0.7818608E-02  0.1235116E+00
          4   -1    0    0  501    0  0.00000000000E+00  0.00000000000E+00  0.43634578049E+02  0.43653056039E+02  0.12700000000E+01 0. -1.
         -4   -1    0    0    0  501 -0.00000000000E+00 -0.00000000000E+00 -0.89436803339E+02  0.89445819866E+02  0.12700000000E+01 0. -1.
         25    2    1    2    0    0  0.00000000000E+00  0.00000000000E+00 -0.45802225290E+02  0.13309887590E+03  0.12496986407E+03 0.  0.
    9000005    1    3    3    0    0  0.32629555762E+02 -0.49482743942E+02 -0.18644137793E+01  0.59310251188E+02  0.10000000000E+01 0.  0.
    9000005    1    3    3    0    0 -0.32629555762E+02  0.49482743942E+02 -0.43937811511E+02  0.73788624717E+02  0.10000000000E+01 0.  0.
<mgrwt>
<rscale>  0 0.12496986E+03</rscale>
<asrwt>0</asrwt>
<pdfrwt beam="1">  1        4 0.67151270E-02 0.12496986E+03</pdfrwt>
<pdfrwt beam="2">  1       -4 0.13761623E-01 0.12496986E+03</pdfrwt>
<totfact> 0.10285289E+04</totfact>
</mgrwt>
</event>
<event>
 5    1  0.3309811E-002  0.1249957E+03  0.7818608E-02  0.1235076E+00
          4   -1    0    0  501    0  0.00000000000E+00  0.00000000000E+00  0.25849706098E+02  0.25880884942E+02  0.12700000000E+01 0. -1.
         -4   -1    0    0    0  501 -0.00000000000E+00 -0.00000000000E+00 -0.15097862093E+03  0.15098396232E+03  0.12700000000E+01 0. -1.
         25    2    1    2    0    0  0.00000000000E+00  0.00000000000E+00 -0.12512891483E+03  0.17686484726E+03  0.12499571541E+03 0.  0.
    9000005    1    3    3    0    0  0.22607225607E+02  0.46221087184E+02 -0.11274109383E+03  0.12393155283E+03  0.10000000000E+01 0.  0.
    9000005    1    3    3    0    0 -0.22607225607E+02 -0.46221087184E+02 -0.12387821007E+02  0.52933294432E+02  0.10000000000E+01 0.  0.
<mgrwt>
<rscale>  0 0.12499572E+03</rscale>
<asrwt>0</asrwt>
<pdfrwt beam="1">  1        4 0.39796872E-02 0.12499572E+03</pdfrwt>
<pdfrwt beam="2">  1       -4 0.23230289E-01 0.12499572E+03</pdfrwt>
<totfact> 0.94193456E+03</totfact>
</mgrwt>
</event>
<event>
 5    1  0.3309811E-002  0.1250036E+03  0.7818608E-02  0.1235064E+00
          4   -1    0    0  501    0  0.00000000000E+00  0.00000000000E+00  0.39063455360E+03  0.39063661806E+03  0.12700000000E+01 0. -1.
         -4   -1    0    0    0  501 -0.00000000000E+00 -0.00000000000E+00 -0.99579130584E+01  0.10038572233E+02  0.12700000000E+01 0. -1.
         25    2    1    2    0    0  0.00000000000E+00  0.00000000000E+00  0.38067664054E+03  0.40067519029E+03  0.12500361378E+03 0.  0.
    9000005    1    3    3    0    0  0.42992584942E+01  0.58783559703E+02  0.25691971844E+03  0.26359577432E+03  0.10000000000E+01 0.  0.
    9000005    1    3    3    0    0 -0.42992584942E+01 -0.58783559703E+02  0.12375692210E+03  0.13707941597E+03  0.10000000000E+01 0.  0.
<mgrwt>
<rscale>  0 0.12500361E+03</rscale>
<asrwt>0</asrwt>
<pdfrwt beam="1">  1        4 0.60103993E-01 0.12500361E+03</pdfrwt>
<pdfrwt beam="2">  1       -4 0.15383498E-02 0.12500361E+03</pdfrwt>
<totfact> 0.64482024E+03</totfact>
</mgrwt>
</event>
<event>
 5    1  0.3309811E-002  0.1250000E+03  0.7818608E-02  0.1235069E+00
          4   -1    0    0  501    0  0.00000000000E+00  0.00000000000E+00  0.32226706974E+03  0.32226957216E+03  0.12700000000E+01 0. -1.
         -4   -1    0    0    0  501 -0.00000000000E+00 -0.00000000000E+00 -0.12085343463E+02  0.12151889837E+02  0.12700000000E+01 0. -1.
         25    2    1    2    0    0  0.00000000000E+00  0.00000000000E+00  0.31018172628E+03  0.33442146200E+03  0.12500004371E+03 0.  0.
    9000005    1    3    3    0    0 -0.59404188574E+02 -0.18142368416E+02  0.13670081139E+03  0.15015363794E+03  0.10000000000E+01 0.  0.
    9000005    1    3    3    0    0  0.59404188574E+02  0.18142368416E+02  0.17348091489E+03  0.18426782406E+03  0.10000000000E+01 0.  0.
<mgrwt>
<rscale>  0 0.12500004E+03</rscale>
<asrwt>0</asrwt>
<pdfrwt beam="1">  1        4 0.49584853E-01 0.12500004E+03</pdfrwt>
<pdfrwt beam="2">  1       -4 0.18645953E-02 0.12500004E+03</pdfrwt>
<totfact> 0.71473022E+03</totfact>
</mgrwt>
</event>
<event>
 5    1  0.3309811E-002  0.1249998E+03  0.7818608E-02  0.1235070E+00
         -4   -1    0    0    0  501 -0.00000000000E+00  0.00000000000E+00  0.16398940457E+01  0.20741630797E+01  0.12700000000E+01 0.  1.
          4   -1    0    0  501    0  0.00000000000E+00 -0.00000000000E+00 -0.21030520694E+04  0.21030524529E+04  0.12700000000E+01 0.  1.
         25    2    1    2    0    0  0.00000000000E+00  0.00000000000E+00 -0.21014121754E+04  0.21051266160E+04  0.12499975375E+03 0.  0.
    9000005    1    3    3    0    0 -0.14723158870E+02  0.68766809088E+01 -0.20669309335E+04  0.20669950518E+04  0.10000000000E+01 0.  0.
    9000005    1    3    3    0    0  0.14723158870E+02 -0.68766809088E+01 -0.34481241865E+02  0.38131564195E+02  0.10000000000E+01 0.  0.
<mgrwt>
<rscale>  0 0.12499975E+03</rscale>
<asrwt>0</asrwt>
<pdfrwt beam="2">  1        4 0.32357800E+00 0.12499975E+03</pdfrwt>
<pdfrwt beam="1">  1       -4 0.28572788E-03 0.12499975E+03</pdfrwt>
<totfact> 0.85509995E+02</totfact>
</mgrwt>
</event>
<event>
 5    1  0.3309811E-002  0.1250018E+03  0.7818608E-02  0.1235067E+00
         -4   -1    0    0    0  501 -0.00000000000E+00  0.00000000000E+00  0.26553379439E+03  0.26553683146E+03  0.12700000000E+01 0. -1.
          4   -1    0    0  501    0  0.00000000000E+00 -0.00000000000E+00 -0.14680814870E+02  0.14735644718E+02  0.12700000000E+01 0. -1.
         25    2    1    2    0    0  0.00000000000E+00  0.00000000000E+00  0.25085297952E+03  0.28027247618E+03  0.12500177427E+03 0.  0.
    9000005    1    3    3    0    0 -0.40067697094E+02  0.37021675647E+02  0.19377840229E+03  0.20131342233E+03  0.10000000000E+01 0.  0.
    9000005    1    3    3    0    0  0.40067697094E+02 -0.37021675647E+02  0.57074577229E+02  0.78959053844E+02  0.10000000000E+01 0.  0.
<mgrwt>
<rscale>  0 0.12500177E+03</rscale>
<asrwt>0</asrwt>
<pdfrwt beam="2">  1        4 0.22630379E-02 0.12500177E+03</pdfrwt>
<pdfrwt beam="1">  1       -4 0.40855809E-01 0.12500177E+03</pdfrwt>
<totfact> 0.78138904E+03</totfact>
</mgrwt>
</event>
<event>
 5    1  0.3309811E-002  0.1249900E+03  0.7818608E-02  0.1235085E+00
          4   -1    0    0  501    0  0.00000000000E+00  0.00000000000E+00  0.59118872026E+02  0.59132511612E+02  0.12700000000E+01 0. -1.
         -4   -1    0    0    0  501 -0.00000000000E+00 -0.00000000000E+00 -0.66036529857E+02  0.66048740908E+02  0.12700000000E+01 0. -1.
         25    2    1    2    0    0  0.00000000000E+00  0.00000000000E+00 -0.69176578310E+01  0.12518125252E+03  0.12498996757E+03 0.  0.
    9000005    1    3    3    0    0  0.55127932140E+02  0.12408429376E+02 -0.30174827955E+02  0.64066982633E+02  0.10000000000E+01 0.  0.
    9000005    1    3    3    0    0 -0.55127932140E+02 -0.12408429376E+02  0.23257170124E+02  0.61114269887E+02  0.10000000000E+01 0.  0.
<mgrwt>
<rscale>  0 0.12498997E+03</rscale>
<asrwt>0</asrwt>
<pdfrwt beam="1">  1        4 0.90971996E-02 0.12498997E+03</pdfrwt>
<pdfrwt beam="2">  1       -4 0.10161455E-01 0.12498997E+03</pdfrwt>
<totfact> 0.10451297E+04</totfact>
</mgrwt>
</event>
<event>
 5    1  0.3309811E-002  0.1249952E+03  0.7818608E-02  0.1235077E+00
          4   -1    0    0  501    0  0.00000000000E+00  0.00000000000E+00  0.15379007859E+02  0.15431357125E+02  0.12700000000E+01 0. -1.
         -4   -1    0    0    0  501 -0.00000000000E+00 -0.00000000000E+00 -0.25349373968E+03  0.25349692100E+03  0.12700000000E+01 0. -1.
         25    2    1    2    0    0  0.00000000000E+00  0.00000000000E+00 -0.23811473182E+03  0.26892827812E+03  0.12499517297E+03 0.  0.
    9000005    1    3    3    0    0 -0.69922787575E+01 -0.21793356603E+02 -0.24416177620E+03  0.24523420502E+03  0.10000000000E+01 0.  0.
    9000005    1    3    3    0    0  0.69922787575E+01  0.21793356603E+02  0.60470443855E+01  0.23694073100E+02  0.10000000000E+01 0.  0.
<mgrwt>
<rscale>  0 0.12499517E+03</rscale>
<asrwt>0</asrwt>
<pdfrwt beam="1">  1        4 0.23702730E-02 0.12499517E+03</pdfrwt>
<pdfrwt beam="2">  1       -4 0.39003305E-01 0.12499517E+03</pdfrwt>
<totfact> 0.79677761E+03</totfact>
</mgrwt>
</event>
<event>
 5    1  0.3309811E-002  0.1250008E+03  0.7818608E-02  0.1235068E+00
         -4   -1    0    0    0  501 -0.00000000000E+00  0.00000000000E+00  0.17389574446E+02  0.17435888260E+02  0.12700000000E+01 0. -1.
          4   -1    0    0  501    0  0.00000000000E+00 -0.00000000000E+00 -0.22428792031E+03  0.22429151588E+03  0.12700000000E+01 0. -1.
         25    2    1    2    0    0  0.00000000000E+00  0.00000000000E+00 -0.20689834586E+03  0.24172740414E+03  0.12500084957E+03 0.  0.
    9000005    1    3    3    0    0 -0.28560607726E+02  0.55539390133E+02 -0.10776070541E+03  0.12455401158E+03  0.10000000000E+01 0.  0.
    9000005    1    3    3    0    0  0.28560607726E+02 -0.55539390133E+02 -0.99137640455E+02  0.11717339256E+03  0.10000000000E+01 0.  0.
<mgrwt>
<rscale>  0 0.12500085E+03</rscale>
<asrwt>0</asrwt>
<pdfrwt beam="2">  1        4 0.34509671E-01 0.12500085E+03</pdfrwt>
<pdfrwt beam="1">  1       -4 0.26791585E-02 0.12500085E+03</pdfrwt>
<totfact> 0.83539191E+03</totfact>
</mgrwt>
</event>
<event>
 5    1  0.3309811E-002  0.1249996E+03  0.7818608E-02  0.1235070E+00
          4   -1    0    0  501    0  0.00000000000E+00  0.00000000000E+00  0.51788743511E+02  0.51804313088E+02  0.12700000000E+01 0. -1.
         -4   -1    0    0    0  501 -0.00000000000E+00 -0.00000000000E+00 -0.75393862661E+02  0.75404558396E+02  0.12700000000E+01 0. -1.
         25    2    1    2    0    0  0.00000000000E+00  0.00000000000E+00 -0.23605119149E+02  0.12720887148E+03  0.12499958134E+03 0.  0.
    9000005    1    3    3    0    0  0.49738455641E+02  0.10417905149E+02  0.25210260665E+02  0.56736266709E+02  0.10000000000E+01 0.  0.
    9000005    1    3    3    0    0 -0.49738455641E+02 -0.10417905149E+02 -0.48815379814E+02  0.70472604774E+02  0.10000000000E+01 0.  0.
<mgrwt>
<rscale>  0 0.12499958E+03</rscale>
<asrwt>0</asrwt>
<pdfrwt beam="1">  1        4 0.79695194E-02 0.12499958E+03</pdfrwt>
<pdfrwt beam="2">  1       -4 0.11601076E-01 0.12499958E+03</pdfrwt>
<totfact> 0.10404709E+04</totfact>
</mgrwt>
</event>
<event>
 5    1  0.3309811E-002  0.1250036E+03  0.7818608E-02  0.1235064E+00
          4   -1    0    0  501    0  0.00000000000E+00  0.00000000000E+00  0.93192486476E+02  0.93201139669E+02  0.12700000000E+01 0.  1.
         -4   -1    0    0    0  501 -0.00000000000E+00 -0.00000000000E+00 -0.41898102301E+02  0.41917345770E+02  0.12700000000E+01 0.  1.
         25    2    1    2    0    0  0.00000000000E+00  0.00000000000E+00  0.51294384175E+02  0.13511848544E+03  0.12500356499E+03 0.  0.
    9000005    1    3    3    0    0 -0.32972289373E+02 -0.49405884700E+02  0.46644809418E+02  0.75530467727E+02  0.10000000000E+01 0.  0.
    9000005    1    3    3    0    0  0.32972289373E+02  0.49405884700E+02  0.46495747574E+01  0.59588017712E+02  0.10000000000E+01 0.  0.
<mgrwt>
<rscale>  0 0.12500356E+03</rscale>
<asrwt>0</asrwt>
<pdfrwt beam="1">  1        4 0.14339451E-01 0.12500356E+03</pdfrwt>
<pdfrwt beam="2">  1       -4 0.64480079E-02 0.12500356E+03</pdfrwt>
<totfact> 0.10234751E+04</totfact>
</mgrwt>
</event>
<event>
 5    1  0.3309811E-002  0.1249988E+03  0.7818608E-02  0.1235071E+00
         -4   -1    0    0    0  501 -0.00000000000E+00  0.00000000000E+00  0.36581588278E+03  0.36581808730E+03  0.12700000000E+01 0. -1.
          4   -1    0    0  501    0  0.00000000000E+00 -0.00000000000E+00 -0.10637972933E+02  0.10713513341E+02  0.12700000000E+01 0. -1.
         25    2    1    2    0    0  0.00000000000E+00  0.00000000000E+00  0.35517790985E+03  0.37653160064E+03  0.12499879454E+03 0.  0.
    9000005    1    3    3    0    0 -0.27564373081E+02 -0.55690152477E+02  0.15761070938E+03  0.16942055205E+03  0.10000000000E+01 0.  0.
    9000005    1    3    3    0    0  0.27564373081E+02  0.55690152477E+02  0.19756720047E+03  0.20711104859E+03  0.10000000000E+01 0.  0.
<mgrwt>
<rscale>  0 0.12499879E+03</rscale>
<asrwt>0</asrwt>
<pdfrwt beam="2">  1        4 0.16425918E-02 0.12499879E+03</pdfrwt>
<pdfrwt beam="1">  1       -4 0.56285339E-01 0.12499879E+03</pdfrwt>
<totfact> 0.66902886E+03</totfact>
</mgrwt>
</event>
<event>
 5    1  0.3309811E-002  0.1249995E+03  0.7818608E-02  0.1235070E+00
         -4   -1    0    0    0  501 -0.00000000000E+00  0.00000000000E+00  0.21263406176E+03  0.21263785440E+03  0.12700000000E+01 0. -1.
          4   -1    0    0  501    0  0.00000000000E+00 -0.00000000000E+00 -0.18344716262E+02  0.18388624602E+02  0.12700000000E+01 0. -1.
         25    2    1    2    0    0  0.00000000000E+00  0.00000000000E+00  0.19428934550E+03  0.23102647900E+03  0.12499953689E+03 0.  0.
    9000005    1    3    3    0    0  0.13552075321E+02  0.16707546853E+01 -0.15562892088E+02  0.20728091491E+02  0.10000000000E+01 0.  0.
    9000005    1    3    3    0    0 -0.13552075321E+02 -0.16707546853E+01  0.20985223759E+03  0.21029838751E+03  0.10000000000E+01 0.  0.
<mgrwt>
<rscale>  0 0.12499954E+03</rscale>
<asrwt>0</asrwt>
<pdfrwt beam="2">  1        4 0.28259334E-02 0.12499954E+03</pdfrwt>
<pdfrwt beam="1">  1       -4 0.32716602E-01 0.12499954E+03</pdfrwt>
<totfact> 0.85153108E+03</totfact>
</mgrwt>
</event>
<event>
 5    1  0.3309811E-002  0.1250069E+03  0.7818608E-02  0.1235058E+00
          4   -1    0    0  501    0  0.00000000000E+00  0.00000000000E+00  0.30911245954E+03  0.30911506845E+03  0.12700000000E+01 0.  1.
         -4   -1    0    0    0  501 -0.00000000000E+00 -0.00000000000E+00 -0.12603812967E+02  0.12667635980E+02  0.12700000000E+01 0.  1.
         25    2    1    2    0    0  0.00000000000E+00  0.00000000000E+00  0.29650864657E+03  0.32178270443E+03  0.12500692532E+03 0.  0.
    9000005    1    3    3    0    0 -0.37366267219E+02 -0.36966450358E+02  0.61230578290E+02  0.80702788649E+02  0.10000000000E+01 0.  0.
    9000005    1    3    3    0    0  0.37366267219E+02  0.36966450358E+02  0.23527806828E+03  0.24107991578E+03  0.10000000000E+01 0.  0.
<mgrwt>
<rscale>  0 0.12500693E+03</rscale>
<asrwt>0</asrwt>
<pdfrwt beam="1">  1        4 0.47560874E-01 0.12500693E+03</pdfrwt>
<pdfrwt beam="2">  1       -4 0.19441583E-02 0.12500693E+03</pdfrwt>
<totfact> 0.72933398E+03</totfact>
</mgrwt>
</event>
<event>
 5    1  0.3309811E-002  0.1249926E+03  0.7818608E-02  0.1235081E+00
          4   -1    0    0  501    0  0.00000000000E+00  0.00000000000E+00  0.13102886275E+02  0.13164289906E+02  0.12700000000E+01 0. -1.
         -4   -1    0    0    0  501 -0.00000000000E+00 -0.00000000000E+00 -0.29732641878E+03  0.29732913110E+03  0.12700000000E+01 0. -1.
         25    2    1    2    0    0  0.00000000000E+00  0.00000000000E+00 -0.28422353250E+03  0.31049342101E+03  0.12499259203E+03 0.  0.
    9000005    1    3    3    0    0  0.50912491297E+02  0.19337644459E+02 -0.21822244417E+03  0.22491789925E+03  0.10000000000E+01 0.  0.
    9000005    1    3    3    0    0 -0.50912491297E+02 -0.19337644459E+02 -0.66001088331E+02  0.85575521758E+02  0.10000000000E+01 0.  0.
<mgrwt>
<rscale>  0 0.12499259E+03</rscale>
<asrwt>0</asrwt>
<pdfrwt beam="1">  1        4 0.20207609E-02 0.12499259E+03</pdfrwt>
<pdfrwt beam="2">  1       -4 0.45747453E-01 0.12499259E+03</pdfrwt>
<totfact> 0.74313352E+03</totfact>
</mgrwt>
</event>
<event>
 5    1  0.3309811E-002  0.1250136E+03  0.7818608E-02  0.1235048E+00
         -4   -1    0    0    0  501 -0.00000000000E+00  0.00000000000E+00  0.37349811813E+03  0.37350027731E+03  0.12700000000E+01 0.  1.
          4   -1    0    0  501    0  0.00000000000E+00 -0.00000000000E+00 -0.10420089557E+02  0.10497198025E+02  0.12700000000E+01 0.  1.
         25    2    1    2    0    0  0.00000000000E+00  0.00000000000E+00  0.36307802858E+03  0.38399747533E+03  0.12501362417E+03 0.  0.
    9000005    1    3    3    0    0  0.61809615901E+02  0.71423235881E+01  0.16345535736E+03  0.17490024372E+03  0.10000000000E+01 0.  0.
    9000005    1    3    3    0    0 -0.61809615901E+02 -0.71423235881E+01  0.19962267122E+03  0.20909723161E+03  0.10000000000E+01 0.  0.
<mgrwt>
<rscale>  0 0.12501362E+03</rscale>
<asrwt>0</asrwt>
<pdfrwt beam="2">  1        4 0.16091883E-02 0.12501362E+03</pdfrwt>
<pdfrwt beam="1">  1       -4 0.57467343E-01 0.12501362E+03</pdfrwt>
<totfact> 0.66119609E+03</totfact>
</mgrwt>
</event>
<event>
 5    1  0.3309811E-002  0.1249970E+03  0.7818608E-02  0.1235074E+00
         -4   -1    0    0    0  501 -0.00000000000E+00  0.00000000000E+00  0.28033513409E+02  0.28062266018E+02  0.12700000000E+01 0.  1.
          4   -1    0    0  501    0  0.00000000000E+00 -0.00000000000E+00 -0.13923243484E+03  0.13923822683E+03  0.12700000000E+01 0.  1.
         25    2    1    2    0    0  0.00000000000E+00  0.00000000000E+00 -0.11119892143E+03  0.16730049285E+03  0.12499701909E+03 0.  0.
    9000005    1    3    3    0    0  0.62270464683E+02 -0.50385691979E+01 -0.57523153798E+02  0.84928859490E+02  0.10000000000E+01 0.  0.
    9000005    1    3    3    0    0 -0.62270464683E+02  0.50385691979E+01 -0.53675767632E+02  0.82371633359E+02  0.10000000000E+01 0.  0.
<mgrwt>
<rscale>  0 0.12499702E+03</rscale>
<asrwt>0</asrwt>
<pdfrwt beam="2">  1        4 0.21423031E-01 0.12499702E+03</pdfrwt>
<pdfrwt beam="1">  1       -4 0.43155056E-02 0.12499702E+03</pdfrwt>
<totfact> 0.95959905E+03</totfact>
</mgrwt>
</event>
<event>
 5    1  0.3309811E-002  0.1250042E+03  0.7818608E-02  0.1235063E+00
         -4   -1    0    0    0  501 -0.00000000000E+00  0.00000000000E+00  0.18778081739E+03  0.18778511198E+03  0.12700000000E+01 0. -1.
          4   -1    0    0  501    0  0.00000000000E+00 -0.00000000000E+00 -0.20779666556E+02  0.20818439955E+02  0.12700000000E+01 0. -1.
         25    2    1    2    0    0  0.00000000000E+00  0.00000000000E+00  0.16700115083E+03  0.20860355193E+03  0.12500422992E+03 0.  0.
    9000005    1    3    3    0    0  0.16476379816E+02  0.11020785198E+02 -0.15402648135E+02  0.25123104262E+02  0.10000000000E+01 0.  0.
    9000005    1    3    3    0    0 -0.16476379816E+02 -0.11020785198E+02  0.18240379897E+03  0.18348044767E+03  0.10000000000E+01 0.  0.
<mgrwt>
<rscale>  0 0.12500423E+03</rscale>
<asrwt>0</asrwt>
<pdfrwt beam="2">  1        4 0.32001846E-02 0.12500423E+03</pdfrwt>
<pdfrwt beam="1">  1       -4 0.28892670E-01 0.12500423E+03</pdfrwt>
<totfact> 0.88696058E+03</totfact>
</mgrwt>
</event>
<event>
 5    1  0.3309811E-002  0.1250104E+03  0.7818608E-02  0.1235053E+00
         -4   -1    0    0    0  501 -0.00000000000E+00  0.00000000000E+00  0.11457927898E+02  0.11528096621E+02  0.12700000000E+01 0. -1.
          4   -1    0    0  501    0  0.00000000000E+00 -0.00000000000E+00 -0.33986537706E+03  0.33986774990E+03  0.12700000000E+01 0. -1.
         25    2    1    2    0    0  0.00000000000E+00  0.00000000000E+00 -0.32840744916E+03  0.35139584653E+03  0.12501035273E+03 0.  0.
    9000005    1    3    3    0    0 -0.12454904739E+02 -0.21669797726E+02 -0.32521877941E+03  0.32617933606E+03  0.10000000000E+01 0.  0.
    9000005    1    3    3    0    0  0.12454904739E+02  0.21669797726E+02 -0.31886697487E+01  0.25216510470E+02  0.10000000000E+01 0.  0.
<mgrwt>
<rscale>  0 0.12501035E+03</rscale>
<asrwt>0</asrwt>
<pdfrwt beam="2">  1        4 0.52292554E-01 0.12501035E+03</pdfrwt>
<pdfrwt beam="1">  1       -4 0.17683385E-02 0.12501035E+03</pdfrwt>
<totfact> 0.69555336E+03</totfact>
</mgrwt>
</event>
<event>
 5    1  0.3309811E-002  0.1249997E+03  0.7818608E-02  0.1235070E+00
          4   -1    0    0  501    0  0.00000000000E+00  0.00000000000E+00  0.60480347375E+01  0.61799372315E+01  0.12700000000E+01 0.  1.
         -4   -1    0    0    0  501 -0.00000000000E+00 -0.00000000000E+00 -0.63876831335E+03  0.63876957585E+03  0.12700000000E+01 0.  1.
         25    2    1    2    0    0  0.00000000000E+00  0.00000000000E+00 -0.63272027861E+03  0.64494951308E+03  0.12499969386E+03 0.  0.
    9000005    1    3    3    0    0  0.34547390691E+02  0.26592682686E+02 -0.54736648219E+03  0.54910086396E+03  0.10000000000E+01 0.  0.
    9000005    1    3    3    0    0 -0.34547390691E+02 -0.26592682686E+02 -0.85353796421E+02  0.95848649127E+02  0.10000000000E+01 0.  0.
<mgrwt>
<rscale>  0 0.12499969E+03</rscale>
<asrwt>0</asrwt>
<pdfrwt beam="1">  1        4 0.94071085E-03 0.12499969E+03</pdfrwt>
<pdfrwt beam="2">  1       -4 0.98282239E-01 0.12499969E+03</pdfrwt>
<totfact> 0.46148082E+03</totfact>
</mgrwt>
</event>
<event>
 5    1  0.3309811E-002  0.1249992E+03  0.7818608E-02  0.1235071E+00
         -4   -1    0    0    0  501 -0.00000000000E+00  0.00000000000E+00  0.13905131247E+03  0.13905711201E+03  0.12700000000E+01 0. -1.
          4   -1    0    0  501    0  0.00000000000E+00 -0.00000000000E+00 -0.28071032764E+02  0.28099746982E+02  0.12700000000E+01 0. -1.
         25    2    1    2    0    0  0.00000000000E+00  0.00000000000E+00  0.11098027971E+03  0.16715685899E+03  0.12499917209E+03 0.  0.
    9000005    1    3    3    0    0  0.42911343773E+02  0.59137090553E+01 -0.47438002158E+01  0.43587372250E+02  0.10000000000E+01 0.  0.
    9000005    1    3    3    0    0 -0.42911343773E+02 -0.59137090553E+01  0.11572407992E+03  0.12356948674E+03  0.10000000000E+01 0.  0.
<mgrwt>
<rscale>  0 0.12499917E+03</rscale>
<asrwt>0</asrwt>
<pdfrwt beam="2">  1        4 0.43212753E-02 0.12499917E+03</pdfrwt>
<pdfrwt beam="1">  1       -4 0.21395165E-01 0.12499917E+03</pdfrwt>
<totfact> 0.95982254E+03</totfact>
</mgrwt>
</event>
<event>
 5    1  0.3309811E-002  0.1249946E+03  0.7818608E-02  0.1235078E+00
          4   -1    0    0  501    0  0.00000000000E+00  0.00000000000E+00  0.58630596575E+02  0.58644349726E+02  0.12700000000E+01 0. -1.
         -4   -1    0    0    0  501 -0.00000000000E+00 -0.00000000000E+00 -0.66591367445E+02  0.66603476773E+02  0.12700000000E+01 0. -1.
         25    2    1    2    0    0  0.00000000000E+00  0.00000000000E+00 -0.79607708697E+01  0.12524782650E+03  0.12499457656E+03 0.  0.
    9000005    1    3    3    0    0  0.23171628901E+02  0.13709756794E+01 -0.62116096960E+02  0.66319027901E+02  0.10000000000E+01 0.  0.
    9000005    1    3    3    0    0 -0.23171628901E+02 -0.13709756794E+01  0.54155326090E+02  0.58928798598E+02  0.10000000000E+01 0.  0.
<mgrwt>
<rscale>  0 0.12499458E+03</rscale>
<asrwt>0</asrwt>
<pdfrwt beam="1">  1        4 0.90220812E-02 0.12499458E+03</pdfrwt>
<pdfrwt beam="2">  1       -4 0.10246815E-01 0.12499458E+03</pdfrwt>
<totfact> 0.10448763E+04</totfact>
</mgrwt>
</event>
<event>
 5    1  0.3309811E-002  0.1250013E+03  0.7818608E-02  0.1235067E+00
         -4   -1    0    0    0  501 -0.00000000000E+00  0.00000000000E+00  0.33006451561E+02  0.33030875627E+02  0.12700000000E+01 0. -1.
          4   -1    0    0  501    0  0.00000000000E+00 -0.00000000000E+00 -0.11827898235E+03  0.11828580035E+03  0.12700000000E+01 0. -1.
         25    2    1    2    0    0  0.00000000000E+00  0.00000000000E+00 -0.85272530788E+02  0.15131667598E+03  0.12500132769E+03 0.  0.
    9000005    1    3    3    0    0 -0.14656603036E+02  0.23892367992E+02  0.24976175475E+02  0.37556232534E+02  0.10000000000E+01 0.  0.
    9000005    1    3    3    0    0  0.14656603036E+02 -0.23892367992E+02 -0.11024870626E+03  0.11376044345E+03  0.10000000000E+01 0.  0.
<mgrwt>
<rscale>  0 0.12500133E+03</rscale>
<asrwt>0</asrwt>
<pdfrwt beam="2">  1        4 0.18199170E-01 0.12500133E+03</pdfrwt>
<pdfrwt beam="1">  1       -4 0.50803189E-02 0.12500133E+03</pdfrwt>
<totfact> 0.99038925E+03</totfact>
</mgrwt>
</event>
<event>
 5    1  0.3309811E-002  0.1250000E+03  0.7818608E-02  0.1235069E+00
         -4   -1    0    0    0  501 -0.00000000000E+00  0.00000000000E+00  0.81720299656E+01  0.82701253774E+01  0.12700000000E+01 0. -1.
          4   -1    0    0  501    0  0.00000000000E+00 -0.00000000000E+00 -0.47505181077E+03  0.47505350837E+03  0.12700000000E+01 0. -1.
         25    2    1    2    0    0  0.00000000000E+00  0.00000000000E+00 -0.46687978081E+03  0.48332363375E+03  0.12500002086E+03 0.  0.
    9000005    1    3    3    0    0  0.47075892936E+02  0.19197218351E+01 -0.39217859310E+03  0.39499984040E+03  0.10000000000E+01 0.  0.
    9000005    1    3    3    0    0 -0.47075892936E+02 -0.19197218351E+01 -0.74701187703E+02  0.88323793351E+02  0.10000000000E+01 0.  0.
<mgrwt>
<rscale>  0 0.12500002E+03</rscale>
<asrwt>0</asrwt>
<pdfrwt beam="2">  1        4 0.73092549E-01 0.12500002E+03</pdfrwt>
<pdfrwt beam="1">  1       -4 0.12649121E-02 0.12500002E+03</pdfrwt>
<totfact> 0.57181850E+03</totfact>
</mgrwt>
</event>
<event>
 5    1  0.3309811E-002  0.1250033E+03  0.7818608E-02  0.1235064E+00
          4   -1    0    0  501    0  0.00000000000E+00  0.00000000000E+00  0.22185630841E+02  0.22221951216E+02  0.12700000000E+01 0. -1.
         -4   -1    0    0    0  501 -0.00000000000E+00 -0.00000000000E+00 -0.17589792813E+03  0.17590251283E+03  0.12700000000E+01 0. -1.
         25    2    1    2    0    0  0.00000000000E+00  0.00000000000E+00 -0.15371229729E+03  0.19812446404E+03  0.12500333162E+03 0.  0.
    9000005    1    3    3    0    0  0.26195709224E+02 -0.24313730601E+02 -0.15810856138E+03  0.16210086323E+03  0.10000000000E+01 0.  0.
    9000005    1    3    3    0    0 -0.26195709224E+02  0.24313730601E+02  0.43962640983E+01  0.36023600813E+02  0.10000000000E+01 0.  0.
<mgrwt>
<rscale>  0 0.12500333E+03</rscale>
<asrwt>0</asrwt>
<pdfrwt beam="1">  1        4 0.34163206E-02 0.12500333E+03</pdfrwt>
<pdfrwt beam="2">  1       -4 0.27064365E-01 0.12500333E+03</pdfrwt>
<totfact> 0.90445841E+03</totfact>
</mgrwt>
</event>
<event>
 5    1  0.3309811E-002  0.1250005E+03  0.7818608E-02  0.1235068E+00
          4   -1    0    0  501    0  0.00000000000E+00  0.00000000000E+00  0.35039776500E+02  0.35062784218E+02  0.12700000000E+01 0.  1.
         -4   -1    0    0    0  501 -0.00000000000E+00 -0.00000000000E+00 -0.11141816033E+03  0.11142539814E+03  0.12700000000E+01 0.  1.
         25    2    1    2    0    0  0.00000000000E+00  0.00000000000E+00 -0.76378383831E+02  0.14648818236E+03  0.12500052022E+03 0.  0.
    9000005    1    3    3    0    0 -0.43463423668E+02  0.41267250308E+02 -0.17448625098E+02  0.62430038144E+02  0.10000000000E+01 0.  0.
    9000005    1    3    3    0    0  0.43463423668E+02 -0.41267250308E+02 -0.58929758733E+02  0.84058144217E+02  0.10000000000E+01 0.  0.
<mgrwt>
<rscale>  0 0.12500052E+03</rscale>
<asrwt>0</asrwt>
<pdfrwt beam="1">  1        4 0.53930615E-02 0.12500052E+03</pdfrwt>
<pdfrwt beam="2">  1       -4 0.17143582E-01 0.12500052E+03</pdfrwt>
<totfact> 0.10000722E+04</totfact>
</mgrwt>
</event>
<event>
 5    1  0.3309811E-002  0.1250079E+03  0.7818608E-02  0.1235057E+00
         -4   -1    0    0    0  501 -0.00000000000E+00  0.00000000000E+00  0.12388828858E+02  0.12453753670E+02  0.12700000000E+01 0. -1.
          4   -1    0    0  501    0  0.00000000000E+00 -0.00000000000E+00 -0.31445350468E+03  0.31445606928E+03  0.12700000000E+01 0. -1.
         25    2    1    2    0    0  0.00000000000E+00  0.00000000000E+00 -0.30206467582E+03  0.32690982295E+03  0.12500785560E+03 0.  0.
    9000005    1    3    3    0    0  0.51113602673E+02  0.35526340239E+02 -0.16559731781E+03  0.17691295288E+03  0.10000000000E+01 0.  0.
    9000005    1    3    3    0    0 -0.51113602673E+02 -0.35526340239E+02 -0.13646735801E+03  0.14999687007E+03  0.10000000000E+01 0.  0.
<mgrwt>
<rscale>  0 0.12500786E+03</rscale>
<asrwt>0</asrwt>
<pdfrwt beam="2">  1        4 0.48382648E-01 0.12500786E+03</pdfrwt>
<pdfrwt beam="1">  1       -4 0.19111654E-02 0.12500786E+03</pdfrwt>
<totfact> 0.72329173E+03</totfact>
</mgrwt>
</event>
<event>
 5    1  0.3309811E-002  0.1250013E+03  0.7818608E-02  0.1235067E+00
          4   -1    0    0  501    0  0.00000000000E+00  0.00000000000E+00  0.23658436018E+03  0.23658776887E+03  0.12700000000E+01 0. -1.
         -4   -1    0    0    0  501 -0.00000000000E+00 -0.00000000000E+00 -0.16483405180E+02  0.16532257751E+02  0.12700000000E+01 0. -1.
         25    2    1    2    0    0  0.00000000000E+00  0.00000000000E+00  0.22010095500E+03  0.25312002662E+03  0.12500126994E+03 0.  0.
    9000005    1    3    3    0    0 -0.17965695204E+02  0.53439389197E+02  0.16464109450E+03  0.17402937833E+03  0.10000000000E+01 0.  0.
    9000005    1    3    3    0    0  0.17965695204E+02 -0.53439389197E+02  0.55459860494E+02  0.79090648296E+02  0.10000000000E+01 0.  0.
<mgrwt>
<rscale>  0 0.12500127E+03</rscale>
<asrwt>0</asrwt>
<pdfrwt beam="1">  1        4 0.36401614E-01 0.12500127E+03</pdfrwt>
<pdfrwt beam="2">  1       -4 0.25399286E-02 0.12500127E+03</pdfrwt>
<totfact> 0.81879051E+03</totfact>
</mgrwt>
</event>
<event>
 5    1  0.3309811E-002  0.1249997E+03  0.7818608E-02  0.1235070E+00
          4   -1    0    0  501    0  0.00000000000E+00  0.00000000000E+00  0.11304576925E+03  0.11305290286E+03  0.12700000000E+01 0.  1.
         -4   -1    0    0    0  501 -0.00000000000E+00 -0.00000000000E+00 -0.34534513638E+02  0.34557857749E+02  0.12700000000E+01 0.  1.
         25    2    1    2    0    0  0.00000000000E+00  0.00000000000E+00  0.78511255614E+02  0.14761076061E+03  0.12499967756E+03 0.  0.
    9000005    1    3    3    0    0  0.22002526999E+02 -0.43915209886E+02 -0.63666447799E+01  0.49539792283E+02  0.10000000000E+01 0.  0.
    9000005    1    3    3    0    0 -0.22002526999E+02  0.43915209886E+02  0.84877900394E+02  0.98070968329E+02  0.10000000000E+01 0.  0.
<mgrwt>
<rscale>  0 0.12499968E+03</rscale>
<asrwt>0</asrwt>
<pdfrwt beam="1">  1        4 0.17394001E-01 0.12499968E+03</pdfrwt>
<pdfrwt beam="2">  1       -4 0.53153465E-02 0.12499968E+03</pdfrwt>
<totfact> 0.99782831E+03</totfact>
</mgrwt>
</event>
<event>
 5    1  0.3309811E-002  0.1249943E+03  0.7818608E-02  0.1235078E+00
         -4   -1    0    0    0  501 -0.00000000000E+00  0.00000000000E+00  0.40104316037E+04  0.40104318048E+04  0.12700000000E+01 0. -1.
          4   -1    0    0  501    0  0.00000000000E+00 -0.00000000000E+00 -0.55963062739E+00  0.13878351628E+01  0.12700000000E+01 0. -1.
         25    2    1    2    0    0  0.00000000000E+00  0.00000000000E+00  0.40098719731E+04  0.40118196400E+04  0.12499433212E+03 0.  0.
    9000005    1    3    3    0    0  0.51512600271E+02 -0.34680594157E+02  0.17811732134E+04  0.17822556797E+04  0.10000000000E+01 0.  0.
    9000005    1    3    3    0    0 -0.51512600271E+02  0.34680594157E+02  0.22286987597E+04  0.22295639603E+04  0.10000000000E+01 0.  0.
<mgrwt>
<rscale>  0 0.12499433E+03</rscale>
<asrwt>0</asrwt>
<pdfrwt beam="2">  1        4 0.14981773E-03 0.12499433E+03</pdfrwt>
<pdfrwt beam="1">  1       -4 0.61706472E+00 0.12499433E+03</pdfrwt>
<totfact> 0.14916266E+01</totfact>
</mgrwt>
</event>
<event>
 5    1  0.3309811E-002  0.1250044E+03  0.7818608E-02  0.1235062E+00
          4   -1    0    0  501    0  0.00000000000E+00  0.00000000000E+00  0.53610986452E+03  0.53611136878E+03  0.12700000000E+01 0. -1.
         -4   -1    0    0    0  501 -0.00000000000E+00 -0.00000000000E+00 -0.72299356086E+01  0.73406313696E+01  0.12700000000E+01 0. -1.
         25    2    1    2    0    0  0.00000000000E+00  0.00000000000E+00  0.52887992891E+03  0.54345200015E+03  0.12500438897E+03 0.  0.
    9000005    1    3    3    0    0 -0.46030665598E+02 -0.40199106384E+00  0.44819631968E+03  0.45055512953E+03  0.10000000000E+01 0.  0.
    9000005    1    3    3    0    0  0.46030665598E+02  0.40199106384E+00  0.80683609235E+02  0.92896870622E+02  0.10000000000E+01 0.  0.
<mgrwt>
<rscale>  0 0.12500439E+03</rscale>
<asrwt>0</asrwt>
<pdfrwt beam="1">  1        4 0.82487112E-01 0.12500439E+03</pdfrwt>
<pdfrwt beam="2">  1       -4 0.11209280E-02 0.12500439E+03</pdfrwt>
<totfact> 0.52638810E+03</totfact>
</mgrwt>
</event>
<event>
 5    1  0.3309811E-002  0.1249954E+03  0.7818608E-02  0.1235077E+00
         -4   -1    0    0    0  501 -0.00000000000E+00  0.00000000000E+00  0.49358577263E+03  0.49358740649E+03  0.12700000000E+01 0.  1.
          4   -1    0    0  501    0  0.00000000000E+00 -0.00000000000E+00 -0.78608274804E+01  0.79627576050E+01  0.12700000000E+01 0.  1.
         25    2    1    2    0    0  0.00000000000E+00  0.00000000000E+00  0.48572494515E+03  0.50155016410E+03  0.12499537896E+03 0.  0.
    9000005    1    3    3    0    0  0.39409642358E+02 -0.48278115785E+02  0.22444630533E+03  0.23293999303E+03  0.10000000000E+01 0.  0.
    9000005    1    3    3    0    0 -0.39409642358E+02  0.48278115785E+02  0.26127863982E+03  0.26861017107E+03  0.10000000000E+01 0.  0.
<mgrwt>
<rscale>  0 0.12499538E+03</rscale>
<asrwt>0</asrwt>
<pdfrwt beam="2">  1        4 0.12173243E-02 0.12499538E+03</pdfrwt>
<pdfrwt beam="1">  1       -4 0.75944251E-01 0.12499538E+03</pdfrwt>
<totfact> 0.55749950E+03</totfact>
</mgrwt>
</event>
<event>
 5    1  0.3309811E-002  0.1249925E+03  0.7818608E-02  0.1235081E+00
          4   -1    0    0  501    0  0.00000000000E+00  0.00000000000E+00  0.12128913405E+02  0.12195222031E+02  0.12700000000E+01 0.  1.
         -4   -1    0    0    0  501 -0.00000000000E+00 -0.00000000000E+00 -0.32107707447E+03  0.32107958616E+03  0.12700000000E+01 0.  1.
         25    2    1    2    0    0  0.00000000000E+00  0.00000000000E+00 -0.30894816107E+03  0.33327480819E+03  0.12499252598E+03 0.  0.
    9000005    1    3    3    0    0  0.87841032887E+01 -0.30202398169E+02 -0.10504640740E+02  0.33176690655E+02  0.10000000000E+01 0.  0.
    9000005    1    3    3    0    0 -0.87841032887E+01  0.30202398169E+02 -0.29844352033E+03  0.30009811754E+03  0.10000000000E+01 0.  0.
<mgrwt>
<rscale>  0 0.12499253E+03</rscale>
<asrwt>0</asrwt>
<pdfrwt beam="1">  1        4 0.18712808E-02 0.12499253E+03</pdfrwt>
<pdfrwt beam="2">  1       -4 0.49401761E-01 0.12499253E+03</pdfrwt>
<totfact> 0.71616449E+03</totfact>
</mgrwt>
</event>
<event>
 5    1  0.3309811E-002  0.1249996E+03  0.7818608E-02  0.1235070E+00
          4   -1    0    0  501    0  0.00000000000E+00  0.00000000000E+00  0.85421314491E+02  0.85430754821E+02  0.12700000000E+01 0. -1.
         -4   -1    0    0    0  501 -0.00000000000E+00 -0.00000000000E+00 -0.45708154254E+02  0.45725794311E+02  0.12700000000E+01 0. -1.
         25    2    1    2    0    0  0.00000000000E+00  0.00000000000E+00  0.39713160237E+02  0.13115654913E+03  0.12499962114E+03 0.  0.
    9000005    1    3    3    0    0  0.21852974523E+02 -0.50222331422E+02  0.51428386568E+02  0.75137966528E+02  0.10000000000E+01 0.  0.
    9000005    1    3    3    0    0 -0.21852974523E+02  0.50222331422E+02 -0.11715226332E+02  0.56018582604E+02  0.10000000000E+01 0.  0.
<mgrwt>
<rscale>  0 0.12499962E+03</rscale>
<asrwt>0</asrwt>
<pdfrwt beam="1">  1        4 0.13143824E-01 0.12499962E+03</pdfrwt>
<pdfrwt beam="2">  1       -4 0.70341069E-02 0.12499962E+03</pdfrwt>
<totfact> 0.10319823E+04</totfact>
</mgrwt>
</event>
<event>
 5    1  0.3309811E-002  0.1250004E+03  0.7818608E-02  0.1235069E+00
          4   -1    0    0  501    0  0.00000000000E+00  0.00000000000E+00  0.96066194688E+02  0.96074589054E+02  0.12700000000E+01 0.  1.
         -4   -1    0    0    0  501 -0.00000000000E+00 -0.00000000000E+00 -0.40642254982E+02  0.40662092789E+02  0.12700000000E+01 0.  1.
         25    2    1    2    0    0  0.00000000000E+00  0.00000000000E+00  0.55423939706E+02  0.13673668184E+03  0.12500042827E+03 0.  0.
    9000005    1    3    3    0    0  0.80770082782E+01 -0.69720818750E+01 -0.39643828317E+02  0.41066788431E+02  0.10000000000E+01 0.  0.
    9000005    1    3    3    0    0 -0.80770082782E+01  0.69720818750E+01  0.95067768024E+02  0.95669893412E+02  0.10000000000E+01 0.  0.
<mgrwt>
<rscale>  0 0.12500043E+03</rscale>
<asrwt>0</asrwt>
<pdfrwt beam="1">  1        4 0.14781586E-01 0.12500043E+03</pdfrwt>
<pdfrwt beam="2">  1       -4 0.62548263E-02 0.12500043E+03</pdfrwt>
<totfact> 0.10201496E+04</totfact>
</mgrwt>
</event>
<event>
 5    1  0.3309811E-002  0.1250149E+03  0.7818608E-02  0.1235046E+00
          4   -1    0    0  501    0  0.00000000000E+00  0.00000000000E+00  0.26156496397E+02  0.26187309976E+02  0.12700000000E+01 0. -1.
         -4   -1    0    0    0  501 -0.00000000000E+00 -0.00000000000E+00 -0.14925567740E+03  0.14926108045E+03  0.12700000000E+01 0. -1.
         25    2    1    2    0    0  0.00000000000E+00  0.00000000000E+00 -0.12309918100E+03  0.17544839042E+03  0.12501491646E+03 0.  0.
    9000005    1    3    3    0    0 -0.25626379995E+02  0.33488900484E+02  0.31899697872E+01  0.42301225922E+02  0.10000000000E+01 0.  0.
    9000005    1    3    3    0    0  0.25626379995E+02 -0.33488900484E+02 -0.12628915079E+03  0.13314716450E+03  0.10000000000E+01 0.  0.
<mgrwt>
<rscale>  0 0.12501492E+03</rscale>
<asrwt>0</asrwt>
<pdfrwt beam="1">  1        4 0.40268623E-02 0.12501492E+03</pdfrwt>
<pdfrwt beam="2">  1       -4 0.22965197E-01 0.12501492E+03</pdfrwt>
<totfact> 0.94411189E+03</totfact>
</mgrwt>
</event>
<event>
 5    1  0.3309811E-002  0.1249987E+03  0.7818608E-02  0.1235071E+00
         -4   -1    0    0    0  501 -0.00000000000E+00  0.00000000000E+00  0.12100781851E+03  0.12101448277E+03  0.12700000000E+01 0.  1.
          4   -1    0    0  501    0  0.00000000000E+00 -0.00000000000E+00 -0.32260237923E+02  0.32285226511E+02  0.12700000000E+01 0.  1.
         25    2    1    2    0    0  0.00000000000E+00  0.00000000000E+00  0.88747580588E+02  0.15329970928E+03  0.12499867122E+03 0.  0.
    9000005    1    3    3    0    0  0.50935520254E+02 -0.59816302347E+01  0.58285858873E+00  0.51298604736E+02  0.10000000000E+01 0.  0.
    9000005    1    3    3    0    0 -0.50935520254E+02  0.59816302347E+01  0.88164721999E+02  0.10200110455E+03  0.10000000000E+01 0.  0.
<mgrwt>
<rscale>  0 0.12499867E+03</rscale>
<asrwt>0</asrwt>
<pdfrwt beam="2">  1        4 0.49655485E-02 0.12499867E+03</pdfrwt>
<pdfrwt beam="1">  1       -4 0.18619022E-01 0.12499867E+03</pdfrwt>
<totfact> 0.98652920E+03</totfact>
</mgrwt>
</event>
<event>
 5    1  0.3309811E-002  0.1250015E+03  0.7818608E-02  0.1235067E+00
          4   -1    0    0  501    0  0.00000000000E+00  0.00000000000E+00  0.10003915924E+03  0.10004722026E+03  0.12700000000E+01 0. -1.
         -4   -1    0    0    0  501 -0.00000000000E+00 -0.00000000000E+00 -0.39028152975E+02  0.39048810797E+02  0.12700000000E+01 0. -1.
         25    2    1    2    0    0  0.00000000000E+00  0.00000000000E+00  0.61011006264E+02  0.13909603106E+03  0.12500145187E+03 0.  0.
    9000005    1    3    3    0    0  0.57950896940E+02  0.68185203527E+01  0.56100536403E+01  0.58628247268E+02  0.10000000000E+01 0.  0.
    9000005    1    3    3    0    0 -0.57950896940E+02 -0.68185203527E+01  0.55400952624E+02  0.80467783787E+02  0.10000000000E+01 0.  0.
<mgrwt>
<rscale>  0 0.12500145E+03</rscale>
<asrwt>0</asrwt>
<pdfrwt beam="1">  1        4 0.15392849E-01 0.12500145E+03</pdfrwt>
<pdfrwt beam="2">  1       -4 0.60065404E-02 0.12500145E+03</pdfrwt>
<totfact> 0.10152023E+04</totfact>
</mgrwt>
</event>
<event>
 5    1  0.3309811E-002  0.1249981E+03  0.7818608E-02  0.1235072E+00
          4   -1    0    0  501    0  0.00000000000E+00  0.00000000000E+00  0.16113838942E+02  0.16163808507E+02  0.12700000000E+01 0. -1.
         -4   -1    0    0    0  501 -0.00000000000E+00 -0.00000000000E+00 -0.24198145261E+03  0.24198478528E+03  0.12700000000E+01 0. -1.
         25    2    1    2    0    0  0.00000000000E+00  0.00000000000E+00 -0.22586761367E+03  0.25814859379E+03  0.12499807027E+03 0.  0.
    9000005    1    3    3    0    0  0.48874540426E+02  0.63786262946E+01 -0.19226951529E+03  0.19848922915E+03  0.10000000000E+01 0.  0.
    9000005    1    3    3    0    0 -0.48874540426E+02 -0.63786262946E+01 -0.33598098377E+02  0.59659364644E+02  0.10000000000E+01 0.  0.
<mgrwt>
<rscale>  0 0.12499807E+03</rscale>
<asrwt>0</asrwt>
<pdfrwt beam="1">  1        4 0.24831525E-02 0.12499807E+03</pdfrwt>
<pdfrwt beam="2">  1       -4 0.37232013E-01 0.12499807E+03</pdfrwt>
<totfact> 0.81170072E+03</totfact>
</mgrwt>
</event>
<event>
 5    1  0.3309811E-002  0.1249958E+03  0.7818608E-02  0.1235076E+00
          4   -1    0    0  501    0  0.00000000000E+00  0.00000000000E+00  0.30715367743E+01  0.33237385812E+01  0.12700000000E+01 0. -1.
         -4   -1    0    0    0  501 -0.00000000000E+00 -0.00000000000E+00 -0.12212710886E+04  0.12212717489E+04  0.12700000000E+01 0. -1.
         25    2    1    2    0    0  0.00000000000E+00  0.00000000000E+00 -0.12181995518E+04  0.12245954875E+04  0.12499583985E+03 0.  0.
    9000005    1    3    3    0    0 -0.25730351657E+02 -0.51483597014E+02 -0.37065015116E+03  0.37509351676E+03  0.10000000000E+01 0.  0.
    9000005    1    3    3    0    0  0.25730351657E+02  0.51483597014E+02 -0.84754940063E+03  0.84950197073E+03  0.10000000000E+01 0.  0.
<mgrwt>
<rscale>  0 0.12499584E+03</rscale>
<asrwt>0</asrwt>
<pdfrwt beam="1">  1        4 0.49199603E-03 0.12499584E+03</pdfrwt>
<pdfrwt beam="2">  1       -4 0.18790694E+00 0.12499584E+03</pdfrwt>
<totfact> 0.24080143E+03</totfact>
</mgrwt>
</event>
<event>
 5    1  0.3309811E-002  0.1250015E+03  0.7818608E-02  0.1235067E+00
         -4   -1    0    0    0  501 -0.00000000000E+00  0.00000000000E+00  0.17916753798E+01  0.21961331168E+01  0.12700000000E+01 0.  1.
          4   -1    0    0  501    0  0.00000000000E+00 -0.00000000000E+00 -0.19587395848E+04  0.19587399966E+04  0.12700000000E+01 0.  1.
         25    2    1    2    0    0  0.00000000000E+00  0.00000000000E+00 -0.19569479095E+04  0.19609361297E+04  0.12500153730E+03 0.  0.
    9000005    1    3    3    0    0  0.30411152930E+02 -0.52727861617E+02 -0.75646658400E+03  0.75891222043E+03  0.10000000000E+01 0.  0.
    9000005    1    3    3    0    0 -0.30411152930E+02  0.52727861617E+02 -0.12004813255E+04  0.12020239092E+04  0.10000000000E+01 0.  0.
<mgrwt>
<rscale>  0 0.12500154E+03</rscale>
<asrwt>0</asrwt>
<pdfrwt beam="2">  1        4 0.30137416E+00 0.12500154E+03</pdfrwt>
<pdfrwt beam="1">  1       -4 0.30678774E-03 0.12500154E+03</pdfrwt>
<totfact> 0.10379610E+03</totfact>
</mgrwt>
</event>
<event>
 5    1  0.3309811E-002  0.1249990E+03  0.7818608E-02  0.1235071E+00
         -4   -1    0    0    0  501 -0.00000000000E+00  0.00000000000E+00  0.32963306489E+02  0.32987762499E+02  0.12700000000E+01 0. -1.
          4   -1    0    0  501    0  0.00000000000E+00 -0.00000000000E+00 -0.11842922531E+03  0.11843603467E+03  0.12700000000E+01 0. -1.
         25    2    1    2    0    0  0.00000000000E+00  0.00000000000E+00 -0.85465918823E+02  0.15142379717E+03  0.12499897227E+03 0.  0.
    9000005    1    3    3    0    0 -0.53828595272E+02 -0.25158384655E+02 -0.66182984801E+02  0.88947453390E+02  0.10000000000E+01 0.  0.
    9000005    1    3    3    0    0  0.53828595272E+02  0.25158384655E+02 -0.19282934022E+02  0.62476343779E+02  0.10000000000E+01 0.  0.
<mgrwt>
<rscale>  0 0.12499897E+03</rscale>
<asrwt>0</asrwt>
<pdfrwt beam="2">  1        4 0.18222286E-01 0.12499897E+03</pdfrwt>
<pdfrwt beam="1">  1       -4 0.50736830E-02 0.12499897E+03</pdfrwt>
<totfact> 0.99022929E+03</totfact>
</mgrwt>
</event>
<event>
 5    1  0.3309811E-002  0.1250017E+03  0.7818608E-02  0.1235067E+00
         -4   -1    0    0    0  501 -0.00000000000E+00  0.00000000000E+00  0.33587410318E+02  0.33611412227E+02  0.12700000000E+01 0. -1.
          4   -1    0    0  501    0  0.00000000000E+00 -0.00000000000E+00 -0.11623525228E+03  0.11624219016E+03  0.12700000000E+01 0. -1.
         25    2    1    2    0    0  0.00000000000E+00  0.00000000000E+00 -0.82647841966E+02  0.14985360239E+03  0.12500174546E+03 0.  0.
    9000005    1    3    3    0    0  0.23850173479E+02  0.32845450720E+02 -0.98285848556E+02  0.10634266516E+03  0.10000000000E+01 0.  0.
    9000005    1    3    3    0    0 -0.23850173479E+02 -0.32845450720E+02  0.15638006590E+02  0.43510937223E+02  0.10000000000E+01 0.  0.
<mgrwt>
<rscale>  0 0.12500175E+03</rscale>
<asrwt>0</asrwt>
<pdfrwt beam="2">  1        4 0.17884726E-01 0.12500175E+03</pdfrwt>
<pdfrwt beam="1">  1       -4 0.51696739E-02 0.12500175E+03</pdfrwt>
<totfact> 0.99328986E+03</totfact>
</mgrwt>
</event>
<event>
 5    1  0.3309811E-002  0.1250132E+03  0.7818608E-02  0.1235049E+00
         -4   -1    0    0    0  501 -0.00000000000E+00  0.00000000000E+00  0.27534358672E+03  0.27534651559E+03  0.12700000000E+01 0. -1.
          4   -1    0    0  501    0  0.00000000000E+00 -0.00000000000E+00 -0.14158396925E+02  0.14215241942E+02  0.12700000000E+01 0. -1.
         25    2    1    2    0    0  0.00000000000E+00  0.00000000000E+00  0.26118518980E+03  0.28956175753E+03  0.12501323153E+03 0.  0.
    9000005    1    3    3    0    0 -0.14619035461E+02  0.47384377930E+02  0.42481271394E+02  0.65304317536E+02  0.10000000000E+01 0.  0.
    9000005    1    3    3    0    0  0.14619035461E+02 -0.47384377930E+02  0.21870391840E+03  0.22425744000E+03  0.10000000000E+01 0.  0.
<mgrwt>
<rscale>  0 0.12501323E+03</rscale>
<asrwt>0</asrwt>
<pdfrwt beam="2">  1        4 0.21828129E-02 0.12501323E+03</pdfrwt>
<pdfrwt beam="1">  1       -4 0.42365149E-01 0.12501323E+03</pdfrwt>
<totfact> 0.76904522E+03</totfact>
</mgrwt>
</event>
<event>
 5    1  0.3309811E-002  0.1250017E+03  0.7818608E-02  0.1235067E+00
          4   -1    0    0  501    0  0.00000000000E+00  0.00000000000E+00  0.62595319128E+02  0.62608201354E+02  0.12700000000E+01 0.  1.
         -4   -1    0    0    0  501 -0.00000000000E+00 -0.00000000000E+00 -0.62380780791E+02  0.62393707312E+02  0.12700000000E+01 0.  1.
         25    2    1    2    0    0  0.00000000000E+00  0.00000000000E+00  0.21453833749E+00  0.12500190867E+03  0.12500172456E+03 0.  0.
    9000005    1    3    3    0    0  0.28757936236E+02 -0.40566587751E+02 -0.37743689442E+02  0.62435991471E+02  0.10000000000E+01 0.  0.
    9000005    1    3    3    0    0 -0.28757936236E+02  0.40566587751E+02  0.37958227779E+02  0.62565917195E+02  0.10000000000E+01 0.  0.
<mgrwt>
<rscale>  0 0.12500172E+03</rscale>
<asrwt>0</asrwt>
<pdfrwt beam="1">  1        4 0.96320344E-02 0.12500172E+03</pdfrwt>
<pdfrwt beam="2">  1       -4 0.95990285E-02 0.12500172E+03</pdfrwt>
<totfact> 0.10452414E+04</totfact>
</mgrwt>
</event>
<event>
 5    1  0.3309811E-002  0.1250019E+03  0.7818608E-02  0.1235066E+00
         -4   -1    0    0    0  501 -0.00000000000E+00  0.00000000000E+00  0.12154434701E+02  0.12220604850E+02  0.12700000000E+01 0. -1.
          4   -1    0    0  501    0  0.00000000000E+00 -0.00000000000E+00 -0.32045465163E+03  0.32045716820E+03  0.12700000000E+01 0. -1.
         25    2    1    2    0    0  0.00000000000E+00  0.00000000000E+00 -0.30830021693E+03  0.33267777305E+03  0.12500190768E+03 0.  0.
    9000005    1    3    3    0    0  0.32277084019E+01 -0.47706579716E+02 -0.26123668783E+03  0.26557850613E+03  0.10000000000E+01 0.  0.
    9000005    1    3    3    0    0 -0.32277084019E+01  0.47706579716E+02 -0.47063529092E+02  0.67099266913E+02  0.10000000000E+01 0.  0.
<mgrwt>
<rscale>  0 0.12500191E+03</rscale>
<asrwt>0</asrwt>
<pdfrwt beam="2">  1        4 0.49305993E-01 0.12500191E+03</pdfrwt>
<pdfrwt beam="1">  1       -4 0.18751969E-02 0.12500191E+03</pdfrwt>
<totfact> 0.71670192E+03</totfact>
</mgrwt>
</event>
<event>
 4    1  0.3309811E-002  0.1251457E+03  0.7818608E-02  0.1234842E+00
         -4   -1    0    0    0  501 -0.00000000000E+00  0.00000000000E+00  0.76974203164E+02  0.76984679338E+02  0.12700000000E+01 0.  1.
          4   -1    0    0  501    0  0.00000000000E+00 -0.00000000000E+00 -0.50843988803E+02  0.50859847595E+02  0.12700000000E+01 0.  1.
    9000005    1    1    2    0    0 -0.41636603923E+02  0.30112138822E+02  0.49528154602E+02  0.71374966122E+02  0.10000000000E+01 0.  0.
    9000005    1    1    2    0    0  0.41636603923E+02 -0.30112138822E+02 -0.23397940240E+02  0.56469560811E+02  0.10000000000E+01 0.  0.
<mgrwt>
<rscale>  0 0.12514565E+03</rscale>
<asrwt>0</asrwt>
<pdfrwt beam="2">  1        4 0.78241780E-02 0.12514565E+03</pdfrwt>
<pdfrwt beam="1">  1       -4 0.11844211E-01 0.12514565E+03</pdfrwt>
<totfact> 0.10356754E+04</totfact>
</mgrwt>
</event>
<event>
 5    1  0.3309811E-002  0.1250006E+03  0.7818608E-02  0.1235068E+00
         -4   -1    0    0    0  501 -0.00000000000E+00  0.00000000000E+00  0.21573318627E+03  0.21573692442E+03  0.12700000000E+01 0.  1.
          4   -1    0    0  501    0  0.00000000000E+00 -0.00000000000E+00 -0.18080864896E+02  0.18125412420E+02  0.12700000000E+01 0.  1.
         25    2    1    2    0    0  0.00000000000E+00  0.00000000000E+00  0.19765232137E+03  0.23386233684E+03  0.12500060979E+03 0.  0.
    9000005    1    3    3    0    0  0.20557075796E+02 -0.52756620978E+02  0.14830521916E+03  0.15874914945E+03  0.10000000000E+01 0.  0.
    9000005    1    3    3    0    0 -0.20557075796E+02  0.52756620978E+02  0.49347102214E+02  0.75113187386E+02  0.10000000000E+01 0.  0.
<mgrwt>
<rscale>  0 0.12500061E+03</rscale>
<asrwt>0</asrwt>
<pdfrwt beam="2">  1        4 0.27853858E-02 0.12500061E+03</pdfrwt>
<pdfrwt beam="1">  1       -4 0.33193436E-01 0.12500061E+03</pdfrwt>
<totfact> 0.84718885E+03</totfact>
</mgrwt>
</event>
<event>
 5    1  0.3309811E-002  0.1250020E+03  0.7818608E-02  0.1235066E+00
          4   -1    0    0  501    0  0.00000000000E+00  0.00000000000E+00  0.39852516468E+02  0.39872747194E+02  0.12700000000E+01 0. -1.
         -4   -1    0    0    0  501 -0.00000000000E+00 -0.00000000000E+00 -0.97971528398E+02  0.97979759526E+02  0.12700000000E+01 0. -1.
         25    2    1    2    0    0  0.00000000000E+00  0.00000000000E+00 -0.58119011931E+02  0.13785250672E+03  0.12500197623E+03 0.  0.
    9000005    1    3    3    0    0 -0.37783677901E+02 -0.37206424908E+02 -0.65526257952E+02  0.84300740514E+02  0.10000000000E+01 0.  0.
    9000005    1    3    3    0    0  0.37783677901E+02  0.37206424908E+02  0.74072460209E+01  0.53551766205E+02  0.10000000000E+01 0.  0.
<mgrwt>
<rscale>  0 0.12500198E+03</rscale>
<asrwt>0</asrwt>
<pdfrwt beam="1">  1        4 0.61333458E-02 0.12500198E+03</pdfrwt>
<pdfrwt beam="2">  1       -4 0.15074732E-01 0.12500198E+03</pdfrwt>
<totfact> 0.10177836E+04</totfact>
</mgrwt>
</event>
<event>
 5    1  0.3309811E-002  0.1249922E+03  0.7818608E-02  0.1235081E+00
          4   -1    0    0  501    0  0.00000000000E+00  0.00000000000E+00  0.15789152604E+03  0.15789663358E+03  0.12700000000E+01 0.  1.
         -4   -1    0    0    0  501 -0.00000000000E+00 -0.00000000000E+00 -0.24715184343E+02  0.24747792571E+02  0.12700000000E+01 0.  1.
         25    2    1    2    0    0  0.00000000000E+00  0.00000000000E+00  0.13317634170E+03  0.18264442615E+03  0.12499219342E+03 0.  0.
    9000005    1    3    3    0    0  0.62111208390E+02 -0.43201219263E+01  0.74361184933E+02  0.96989955592E+02  0.10000000000E+01 0.  0.
    9000005    1    3    3    0    0 -0.62111208390E+02  0.43201219263E+01  0.58815156763E+02  0.85654470555E+02  0.10000000000E+01 0.  0.
<mgrwt>
<rscale>  0 0.12499219E+03</rscale>
<asrwt>0</asrwt>
<pdfrwt beam="1">  1        4 0.24293905E-01 0.12499219E+03</pdfrwt>
<pdfrwt beam="2">  1       -4 0.38052373E-02 0.12499219E+03</pdfrwt>
<totfact> 0.93159453E+03</totfact>
</mgrwt>
</event>
<event>
 5    1  0.3309811E-002  0.1250416E+03  0.7818608E-02  0.1235004E+00
          4   -1    0    0  501    0  0.00000000000E+00  0.00000000000E+00  0.36618197820E+03  0.36618418052E+03  0.12700000000E+01 0.  1.
         -4   -1    0    0    0  501 -0.00000000000E+00 -0.00000000000E+00 -0.10634589409E+02  0.10710153682E+02  0.12700000000E+01 0.  1.
         25    2    1    2    0    0  0.00000000000E+00  0.00000000000E+00  0.35554738879E+03  0.37689433420E+03  0.12504156698E+03 0.  0.
    9000005    1    3    3    0    0 -0.45665366219E+02 -0.27257708222E+02  0.27680775320E+03  0.28187202870E+03  0.10000000000E+01 0.  0.
    9000005    1    3    3    0    0  0.45665366219E+02  0.27257708222E+02  0.78739635592E+02  0.95022305500E+02  0.10000000000E+01 0.  0.
<mgrwt>
<rscale>  0 0.12504157E+03</rscale>
<asrwt>0</asrwt>
<pdfrwt beam="1">  1        4 0.56341673E-01 0.12504157E+03</pdfrwt>
<pdfrwt beam="2">  1       -4 0.16420727E-02 0.12504157E+03</pdfrwt>
<totfact> 0.66802386E+03</totfact>
</mgrwt>
</event>
<event>
 5    1  0.3309811E-002  0.1250010E+03  0.7818608E-02  0.1235068E+00
          4   -1    0    0  501    0  0.00000000000E+00  0.00000000000E+00  0.30745096155E+03  0.30745358456E+03  0.12700000000E+01 0.  1.
         -4   -1    0    0    0  501 -0.00000000000E+00 -0.00000000000E+00 -0.12671052992E+02  0.12734539015E+02  0.12700000000E+01 0.  1.
         25    2    1    2    0    0  0.00000000000E+00  0.00000000000E+00  0.29477990856E+03  0.32018812358E+03  0.12500095995E+03 0.  0.
    9000005    1    3    3    0    0 -0.72755957138E+01 -0.15693278033E+02  0.30120915728E+03  0.30170709256E+03  0.10000000000E+01 0.  0.
    9000005    1    3    3    0    0  0.72755957138E+01  0.15693278033E+02 -0.64292487223E+01  0.18481031020E+02  0.10000000000E+01 0.  0.
<mgrwt>
<rscale>  0 0.12500096E+03</rscale>
<asrwt>0</asrwt>
<pdfrwt beam="1">  1        4 0.47305234E-01 0.12500096E+03</pdfrwt>
<pdfrwt beam="2">  1       -4 0.19544780E-02 0.12500096E+03</pdfrwt>
<totfact> 0.73132197E+03</totfact>
</mgrwt>
</event>
<event>
 5    1  0.3309811E-002  0.1250011E+03  0.7818608E-02  0.1235068E+00
          4   -1    0    0  501    0  0.00000000000E+00  0.00000000000E+00  0.68250969420E+01  0.69422509511E+01  0.12700000000E+01 0. -1.
         -4   -1    0    0    0  501 -0.00000000000E+00 -0.00000000000E+00 -0.56735826196E+03  0.56735968337E+03  0.12700000000E+01 0. -1.
         25    2    1    2    0    0  0.00000000000E+00  0.00000000000E+00 -0.56053316501E+03  0.57430193432E+03  0.12500113072E+03 0.  0.
    9000005    1    3    3    0    0  0.17273067010E+02  0.42346060840E+02 -0.84599486815E+02  0.96174949348E+02  0.10000000000E+01 0.  0.
    9000005    1    3    3    0    0 -0.17273067010E+02 -0.42346060840E+02 -0.47593367820E+03  0.47812698497E+03  0.10000000000E+01 0.  0.
<mgrwt>
<rscale>  0 0.12500113E+03</rscale>
<asrwt>0</asrwt>
<pdfrwt beam="1">  1        4 0.10591365E-02 0.12500113E+03</pdfrwt>
<pdfrwt beam="2">  1       -4 0.87294971E-01 0.12500113E+03</pdfrwt>
<totfact> 0.50529753E+03</totfact>
</mgrwt>
</event>
<event>
 5    1  0.3309811E-002  0.1250032E+03  0.7818608E-02  0.1235064E+00
         -4   -1    0    0    0  501 -0.00000000000E+00  0.00000000000E+00  0.14509717793E+04  0.14509723351E+04  0.12700000000E+01 0. -1.
          4   -1    0    0  501    0  0.00000000000E+00 -0.00000000000E+00 -0.25419418085E+01  0.28415432704E+01  0.12700000000E+01 0. -1.
         25    2    1    2    0    0  0.00000000000E+00  0.00000000000E+00  0.14484298375E+04  0.14538138784E+04  0.12500319518E+03 0.  0.
    9000005    1    3    3    0    0  0.45178720045E+02 -0.11990433262E+02  0.24179756873E+03  0.24627616912E+03  0.10000000000E+01 0.  0.
    9000005    1    3    3    0    0 -0.45178720045E+02  0.11990433262E+02  0.12066322688E+04  0.12075377092E+04  0.10000000000E+01 0.  0.
<mgrwt>
<rscale>  0 0.12500320E+03</rscale>
<asrwt>0</asrwt>
<pdfrwt beam="2">  1        4 0.41415745E-03 0.12500320E+03</pdfrwt>
<pdfrwt beam="1">  1       -4 0.22324927E+00 0.12500320E+03</pdfrwt>
<totfact> 0.18853468E+03</totfact>
</mgrwt>
</event>
<event>
 5    1  0.3309811E-002  0.1249900E+03  0.7818608E-02  0.1235085E+00
         -4   -1    0    0    0  501 -0.00000000000E+00  0.00000000000E+00  0.20038828198E+03  0.20039230638E+03  0.12700000000E+01 0.  1.
          4   -1    0    0  501    0  0.00000000000E+00 -0.00000000000E+00 -0.19465377486E+02  0.19506763459E+02  0.12700000000E+01 0.  1.
         25    2    1    2    0    0  0.00000000000E+00  0.00000000000E+00  0.18092290450E+03  0.21989906984E+03  0.12499001378E+03 0.  0.
    9000005    1    3    3    0    0 -0.17199520168E+01 -0.11148655014E+02  0.19859068849E+03  0.19891332861E+03  0.10000000000E+01 0.  0.
    9000005    1    3    3    0    0  0.17199520168E+01  0.11148655014E+02 -0.17667783995E+02  0.20985741227E+02  0.10000000000E+01 0.  0.
<mgrwt>
<rscale>  0 0.12499001E+03</rscale>
<asrwt>0</asrwt>
<pdfrwt beam="2">  1        4 0.29981666E-02 0.12499001E+03</pdfrwt>
<pdfrwt beam="1">  1       -4 0.30832460E-01 0.12499001E+03</pdfrwt>
<totfact> 0.86903705E+03</totfact>
</mgrwt>
</event>
<event>
 5    1  0.3309811E-002  0.1249991E+03  0.7818608E-02  0.1235071E+00
         -4   -1    0    0    0  501 -0.00000000000E+00  0.00000000000E+00  0.24898347842E+04  0.24898351081E+04  0.12700000000E+01 0.  1.
          4   -1    0    0  501    0  0.00000000000E+00 -0.00000000000E+00 -0.13114604814E+01  0.18256036246E+01  0.12700000000E+01 0.  1.
         25    2    1    2    0    0  0.00000000000E+00  0.00000000000E+00  0.24885233238E+04  0.24916607118E+04  0.12499907858E+03 0.  0.
    9000005    1    3    3    0    0 -0.41370133543E+02  0.15930541996E+02  0.21222207115E+04  0.21226839186E+04  0.10000000000E+01 0.  0.
    9000005    1    3    3    0    0  0.41370133543E+02 -0.15930541996E+02  0.36630261228E+03  0.36897679315E+03  0.10000000000E+01 0.  0.
<mgrwt>
<rscale>  0 0.12499908E+03</rscale>
<asrwt>0</asrwt>
<pdfrwt beam="2">  1        4 0.24133686E-03 0.12499908E+03</pdfrwt>
<pdfrwt beam="1">  1       -4 0.38309215E+00 0.12499908E+03</pdfrwt>
<totfact> 0.47352401E+02</totfact>
</mgrwt>
</event>
<event>
 5    1  0.3309811E-002  0.1250009E+03  0.7818608E-02  0.1235068E+00
         -4   -1    0    0    0  501 -0.00000000000E+00  0.00000000000E+00  0.23484863572E+02  0.23519177642E+02  0.12700000000E+01 0. -1.
          4   -1    0    0  501    0  0.00000000000E+00 -0.00000000000E+00 -0.16617466773E+03  0.16617952068E+03  0.12700000000E+01 0. -1.
         25    2    1    2    0    0  0.00000000000E+00  0.00000000000E+00 -0.14268980416E+03  0.18969869833E+03  0.12500086374E+03 0.  0.
    9000005    1    3    3    0    0  0.19059918270E+02 -0.57116356016E+02 -0.96727308546E+02  0.11394178701E+03  0.10000000000E+01 0.  0.
    9000005    1    3    3    0    0 -0.19059918270E+02  0.57116356016E+02 -0.45962495610E+02  0.75756911313E+02  0.10000000000E+01 0.  0.
<mgrwt>
<rscale>  0 0.12500086E+03</rscale>
<asrwt>0</asrwt>
<pdfrwt beam="2">  1        4 0.25568346E-01 0.12500086E+03</pdfrwt>
<pdfrwt beam="1">  1       -4 0.36160689E-02 0.12500086E+03</pdfrwt>
<totfact> 0.91897989E+03</totfact>
</mgrwt>
</event>
<event>
 5    1  0.3309811E-002  0.1249996E+03  0.7818608E-02  0.1235070E+00
          4   -1    0    0  501    0  0.00000000000E+00  0.00000000000E+00  0.69059765424E+03  0.69059882199E+03  0.12700000000E+01 0. -1.
         -4   -1    0    0    0  501 -0.00000000000E+00 -0.00000000000E+00 -0.55838195424E+01  0.57264247731E+01  0.12700000000E+01 0. -1.
         25    2    1    2    0    0  0.00000000000E+00  0.00000000000E+00  0.68501383470E+03  0.69632524677E+03  0.12499958224E+03 0.  0.
    9000005    1    3    3    0    0  0.60971604855E+02  0.85890097058E+01  0.28305082917E+03  0.28967236592E+03  0.10000000000E+01 0.  0.
    9000005    1    3    3    0    0 -0.60971604855E+02 -0.85890097058E+01  0.40196300553E+03  0.40665288084E+03  0.10000000000E+01 0.  0.
<mgrwt>
<rscale>  0 0.12499958E+03</rscale>
<asrwt>0</asrwt>
<pdfrwt beam="1">  1        4 0.10625680E+00 0.12499958E+03</pdfrwt>
<pdfrwt beam="2">  1       -4 0.87010902E-03 0.12499958E+03</pdfrwt>
<totfact> 0.43281796E+03</totfact>
</mgrwt>
</event>
<event>
 5    1  0.3309811E-002  0.1249960E+03  0.7818608E-02  0.1235075E+00
          4   -1    0    0  501    0  0.00000000000E+00  0.00000000000E+00  0.57731472022E+03  0.57731611711E+03  0.12700000000E+01 0. -1.
         -4   -1    0    0    0  501 -0.00000000000E+00 -0.00000000000E+00 -0.67047948590E+01  0.68240145151E+01  0.12700000000E+01 0. -1.
         25    2    1    2    0    0  0.00000000000E+00  0.00000000000E+00  0.57060992536E+03  0.58414013163E+03  0.12499602579E+03 0.  0.
    9000005    1    3    3    0    0  0.19179762113E+02 -0.52086577548E+02  0.41946335728E+03  0.42312100271E+03  0.10000000000E+01 0.  0.
    9000005    1    3    3    0    0 -0.19179762113E+02  0.52086577548E+02  0.15114656808E+03  0.16101912892E+03  0.10000000000E+01 0.  0.
<mgrwt>
<rscale>  0 0.12499603E+03</rscale>
<asrwt>0</asrwt>
<pdfrwt beam="1">  1        4 0.88826936E-01 0.12499603E+03</pdfrwt>
<pdfrwt beam="2">  1       -4 0.10407850E-02 0.12499603E+03</pdfrwt>
<totfact> 0.49888628E+03</totfact>
</mgrwt>
</event>
<event>
 5    1  0.3309811E-002  0.1250022E+03  0.7818608E-02  0.1235066E+00
         -4   -1    0    0    0  501 -0.00000000000E+00  0.00000000000E+00  0.92106727780E+02  0.92115482967E+02  0.12700000000E+01 0.  1.
          4   -1    0    0  501    0  0.00000000000E+00 -0.00000000000E+00 -0.42391261459E+02  0.42410281160E+02  0.12700000000E+01 0.  1.
         25    2    1    2    0    0  0.00000000000E+00  0.00000000000E+00  0.49715466321E+02  0.13452576413E+03  0.12500221447E+03 0.  0.
    9000005    1    3    3    0    0 -0.60901777050E+02  0.10293419975E+02  0.14625041168E+02  0.63481278908E+02  0.10000000000E+01 0.  0.
    9000005    1    3    3    0    0  0.60901777050E+02 -0.10293419975E+02  0.35090425153E+02  0.71044485219E+02  0.10000000000E+01 0.  0.
<mgrwt>
<rscale>  0 0.12500221E+03</rscale>
<asrwt>0</asrwt>
<pdfrwt beam="2">  1        4 0.65238691E-02 0.12500221E+03</pdfrwt>
<pdfrwt beam="1">  1       -4 0.14172402E-01 0.12500221E+03</pdfrwt>
<totfact> 0.10247564E+04</totfact>
</mgrwt>
</event>
<event>
 5    1  0.3309811E-002  0.1249919E+03  0.7818608E-02  0.1235082E+00
          4   -1    0    0  501    0  0.00000000000E+00  0.00000000000E+00  0.24999117856E+02  0.25031356207E+02  0.12700000000E+01 0.  1.
         -4   -1    0    0    0  501 -0.00000000000E+00 -0.00000000000E+00 -0.15609981623E+03  0.15610498239E+03  0.12700000000E+01 0.  1.
         25    2    1    2    0    0  0.00000000000E+00  0.00000000000E+00 -0.13110069837E+03  0.18113633860E+03  0.12499191992E+03 0.  0.
    9000005    1    3    3    0    0  0.29797511557E+02 -0.45445632221E+02 -0.20847113710E+02  0.58213394790E+02  0.10000000000E+01 0.  0.
    9000005    1    3    3    0    0 -0.29797511557E+02  0.45445632221E+02 -0.11025358466E+03  0.12292294381E+03  0.10000000000E+01 0.  0.
<mgrwt>
<rscale>  0 0.12499192E+03</rscale>
<asrwt>0</asrwt>
<pdfrwt beam="1">  1        4 0.38488955E-02 0.12499192E+03</pdfrwt>
<pdfrwt beam="2">  1       -4 0.24018233E-01 0.12499192E+03</pdfrwt>
<totfact> 0.93429781E+03</totfact>
</mgrwt>
</event>
<event>
 5    1  0.3309811E-002  0.1249984E+03  0.7818608E-02  0.1235072E+00
          4   -1    0    0  501    0  0.00000000000E+00  0.00000000000E+00  0.19339878784E+02  0.19381532741E+02  0.12700000000E+01 0.  1.
         -4   -1    0    0    0  501 -0.00000000000E+00 -0.00000000000E+00 -0.20171277510E+03  0.20171677307E+03  0.12700000000E+01 0.  1.
         25    2    1    2    0    0  0.00000000000E+00  0.00000000000E+00 -0.18237289631E+03  0.22109830581E+03  0.12499835008E+03 0.  0.
    9000005    1    3    3    0    0 -0.52320231254E+02 -0.23265405507E+02 -0.46914542194E+02  0.74031479528E+02  0.10000000000E+01 0.  0.
    9000005    1    3    3    0    0  0.52320231254E+02  0.23265405507E+02 -0.13545835412E+03  0.14706682628E+03  0.10000000000E+01 0.  0.
<mgrwt>
<rscale>  0 0.12499835E+03</rscale>
<asrwt>0</asrwt>
<pdfrwt beam="1">  1        4 0.29788778E-02 0.12499835E+03</pdfrwt>
<pdfrwt beam="2">  1       -4 0.31036245E-01 0.12499835E+03</pdfrwt>
<totfact> 0.86698050E+03</totfact>
</mgrwt>
</event>
<event>
 5    1  0.3309811E-002  0.1250005E+03  0.7818608E-02  0.1235069E+00
         -4   -1    0    0    0  501 -0.00000000000E+00  0.00000000000E+00  0.37515213635E+03  0.37515428601E+03  0.12700000000E+01 0.  1.
          4   -1    0    0  501    0  0.00000000000E+00 -0.00000000000E+00 -0.10371610678E+02  0.10449076899E+02  0.12700000000E+01 0.  1.
         25    2    1    2    0    0  0.00000000000E+00  0.00000000000E+00  0.36478052567E+03  0.38560336291E+03  0.12500048629E+03 0.  0.
    9000005    1    3    3    0    0 -0.39361511055E+02 -0.47590915797E+02  0.15295385819E+03  0.16495486217E+03  0.10000000000E+01 0.  0.
    9000005    1    3    3    0    0  0.39361511055E+02  0.47590915797E+02  0.21182666749E+03  0.22064850074E+03  0.10000000000E+01 0.  0.
<mgrwt>
<rscale>  0 0.12500049E+03</rscale>
<asrwt>0</asrwt>
<pdfrwt beam="2">  1        4 0.16017568E-02 0.12500049E+03</pdfrwt>
<pdfrwt beam="1">  1       -4 0.57721835E-01 0.12500049E+03</pdfrwt>
<totfact> 0.65976785E+03</totfact>
</mgrwt>
</event>
<event>
 5    1  0.3309811E-002  0.1250001E+03  0.7818608E-02  0.1235069E+00
         -4   -1    0    0    0  501 -0.00000000000E+00  0.00000000000E+00  0.87656015947E+02  0.87665215631E+02  0.12700000000E+01 0.  1.
          4   -1    0    0  501    0  0.00000000000E+00 -0.00000000000E+00 -0.44542873169E+02  0.44560974520E+02  0.12700000000E+01 0.  1.
         25    2    1    2    0    0  0.00000000000E+00  0.00000000000E+00  0.43113142778E+02  0.13222619015E+03  0.12500008913E+03 0.  0.
    9000005    1    3    3    0    0  0.21859518021E+01 -0.20273409822E+02 -0.40929993424E+02  0.45738975641E+02  0.10000000000E+01 0.  0.
    9000005    1    3    3    0    0 -0.21859518021E+01  0.20273409822E+02  0.84043136201E+02  0.86487214509E+02  0.10000000000E+01 0.  0.
<mgrwt>
<rscale>  0 0.12500009E+03</rscale>
<asrwt>0</asrwt>
<pdfrwt beam="2">  1        4 0.68548498E-02 0.12500009E+03</pdfrwt>
<pdfrwt beam="1">  1       -4 0.13487641E-01 0.12500009E+03</pdfrwt>
<totfact> 0.10296852E+04</totfact>
</mgrwt>
</event>
<event>
 5    1  0.3309811E-002  0.1249768E+03  0.7818608E-02  0.1235106E+00
         -4   -1    0    0    0  501 -0.00000000000E+00  0.00000000000E+00  0.14212313185E+03  0.14212880604E+03  0.12700000000E+01 0. -1.
          4   -1    0    0  501    0  0.00000000000E+00 -0.00000000000E+00 -0.27453864528E+02  0.27483223565E+02  0.12700000000E+01 0. -1.
         25    2    1    2    0    0  0.00000000000E+00  0.00000000000E+00  0.11466926732E+03  0.16961202961E+03  0.12497679672E+03 0.  0.
    9000005    1    3    3    0    0  0.61861663667E+02  0.23016580667E+01  0.45847926283E+02  0.77040219405E+02  0.10000000000E+01 0.  0.
    9000005    1    3    3    0    0 -0.61861663667E+02 -0.23016580667E+01  0.68821341037E+02  0.92571810200E+02  0.10000000000E+01 0.  0.
<mgrwt>
<rscale>  0 0.12497680E+03</rscale>
<asrwt>0</asrwt>
<pdfrwt beam="2">  1        4 0.42263663E-02 0.12497680E+03</pdfrwt>
<pdfrwt beam="1">  1       -4 0.21867792E-01 0.12497680E+03</pdfrwt>
<totfact> 0.95570764E+03</totfact>
</mgrwt>
</event>
<event>
 5    1  0.3309811E-002  0.1250032E+03  0.7818608E-02  0.1235064E+00
          4   -1    0    0  501    0  0.00000000000E+00  0.00000000000E+00  0.25722978462E+03  0.25723291973E+03  0.12700000000E+01 0.  1.
         -4   -1    0    0    0  501 -0.00000000000E+00 -0.00000000000E+00 -0.15156822397E+02  0.15209936396E+02  0.12700000000E+01 0.  1.
         25    2    1    2    0    0  0.00000000000E+00  0.00000000000E+00  0.24207296222E+03  0.27244285613E+03  0.12500316323E+03 0.  0.
    9000005    1    3    3    0    0 -0.23749031634E+02  0.48574849560E+02  0.52741087723E+02  0.75539094829E+02  0.10000000000E+01 0.  0.
    9000005    1    3    3    0    0  0.23749031634E+02 -0.48574849560E+02  0.18933187450E+03  0.19690376130E+03  0.10000000000E+01 0.  0.
<mgrwt>
<rscale>  0 0.12500316E+03</rscale>
<asrwt>0</asrwt>
<pdfrwt beam="1">  1        4 0.39578138E-01 0.12500316E+03</pdfrwt>
<pdfrwt beam="2">  1       -4 0.23361458E-02 0.12500316E+03</pdfrwt>
<totfact> 0.79185347E+03</totfact>
</mgrwt>
</event>
<event>
 5    1  0.3309811E-002  0.1250019E+03  0.7818608E-02  0.1235066E+00
         -4   -1    0    0    0  501 -0.00000000000E+00  0.00000000000E+00  0.41281675807E+02  0.41301206489E+02  0.12700000000E+01 0.  1.
          4   -1    0    0  501    0  0.00000000000E+00 -0.00000000000E+00 -0.94580997407E+02  0.94589523577E+02  0.12700000000E+01 0.  1.
         25    2    1    2    0    0  0.00000000000E+00  0.00000000000E+00 -0.53299321600E+02  0.13589073007E+03  0.12500189132E+03 0.  0.
    9000005    1    3    3    0    0 -0.22711756990E+02 -0.54042353906E+02 -0.31075724246E+01  0.58711642182E+02  0.10000000000E+01 0.  0.
    9000005    1    3    3    0    0  0.22711756990E+02  0.54042353906E+02 -0.50191749176E+02  0.77179087884E+02  0.10000000000E+01 0.  0.
<mgrwt>
<rscale>  0 0.12500189E+03</rscale>
<asrwt>0</asrwt>
<pdfrwt beam="2">  1        4 0.14553081E-01 0.12500189E+03</pdfrwt>
<pdfrwt beam="1">  1       -4 0.63531853E-02 0.12500189E+03</pdfrwt>
<totfact> 0.10218895E+04</totfact>
</mgrwt>
</event>
<event>
 5    1  0.3309811E-002  0.1250069E+03  0.7818608E-02  0.1235058E+00
          4   -1    0    0  501    0  0.00000000000E+00  0.00000000000E+00  0.11763196210E+03  0.11763881761E+03  0.12700000000E+01 0.  1.
         -4   -1    0    0    0  501 -0.00000000000E+00 -0.00000000000E+00 -0.33191091138E+02  0.33215379434E+02  0.12700000000E+01 0.  1.
         25    2    1    2    0    0  0.00000000000E+00  0.00000000000E+00  0.84440870964E+02  0.15085419704E+03  0.12500691211E+03 0.  0.
    9000005    1    3    3    0    0  0.21429533513E+02 -0.58490832462E+02  0.48287920724E+02  0.78823382803E+02  0.10000000000E+01 0.  0.
    9000005    1    3    3    0    0 -0.21429533513E+02  0.58490832462E+02  0.36152950240E+02  0.72030814238E+02  0.10000000000E+01 0.  0.
<mgrwt>
<rscale>  0 0.12500691E+03</rscale>
<asrwt>0</asrwt>
<pdfrwt beam="1">  1        4 0.18099621E-01 0.12500691E+03</pdfrwt>
<pdfrwt beam="2">  1       -4 0.51087174E-02 0.12500691E+03</pdfrwt>
<totfact> 0.99118280E+03</totfact>
</mgrwt>
</event>
<event>
 5    1  0.3309811E-002  0.1250011E+03  0.7818608E-02  0.1235067E+00
         -4   -1    0    0    0  501 -0.00000000000E+00  0.00000000000E+00  0.45256410192E+03  0.45256588388E+03  0.12700000000E+01 0. -1.
          4   -1    0    0  501    0  0.00000000000E+00 -0.00000000000E+00 -0.85830082788E+01  0.86764584431E+01  0.12700000000E+01 0. -1.
         25    2    1    2    0    0  0.00000000000E+00  0.00000000000E+00  0.44398109365E+03  0.46124234232E+03  0.12500114734E+03 0.  0.
    9000005    1    3    3    0    0  0.31337416286E+02  0.29589567959E+02  0.55014889556E+02  0.69894307811E+02  0.10000000000E+01 0.  0.
    9000005    1    3    3    0    0 -0.31337416286E+02 -0.29589567959E+02  0.38896620409E+03  0.39134803451E+03  0.10000000000E+01 0.  0.
<mgrwt>
<rscale>  0 0.12500115E+03</rscale>
<asrwt>0</asrwt>
<pdfrwt beam="2">  1        4 0.13277881E-02 0.12500115E+03</pdfrwt>
<pdfrwt beam="1">  1       -4 0.69632586E-01 0.12500115E+03</pdfrwt>
<totfact> 0.59000596E+03</totfact>
</mgrwt>
</event>
<event>
 5    1  0.3309811E-002  0.1249995E+03  0.7818608E-02  0.1235070E+00
          4   -1    0    0  501    0  0.00000000000E+00  0.00000000000E+00  0.72296677619E+02  0.72307831490E+02  0.12700000000E+01 0. -1.
         -4   -1    0    0    0  501 -0.00000000000E+00 -0.00000000000E+00 -0.54007580363E+02  0.54022510462E+02  0.12700000000E+01 0. -1.
         25    2    1    2    0    0  0.00000000000E+00  0.00000000000E+00  0.18289097256E+02  0.12633034195E+03  0.12499945688E+03 0.  0.
    9000005    1    3    3    0    0 -0.10033844795E+02  0.55428048597E+02  0.36493142460E+02  0.67124481817E+02  0.10000000000E+01 0.  0.
    9000005    1    3    3    0    0  0.10033844795E+02 -0.55428048597E+02 -0.18204045203E+02  0.59205860135E+02  0.10000000000E+01 0.  0.
<mgrwt>
<rscale>  0 0.12499946E+03</rscale>
<asrwt>0</asrwt>
<pdfrwt beam="1">  1        4 0.11124572E-01 0.12499946E+03</pdfrwt>
<pdfrwt beam="2">  1       -4 0.83108650E-02 0.12499946E+03</pdfrwt>
<totfact> 0.10423858E+04</totfact>
</mgrwt>
</event>
<event>
 5    1  0.3309811E-002  0.1250028E+03  0.7818608E-02  0.1235065E+00
         -4   -1    0    0    0  501 -0.00000000000E+00  0.00000000000E+00  0.40262737499E+02  0.40282762205E+02  0.12700000000E+01 0. -1.
          4   -1    0    0  501    0  0.00000000000E+00 -0.00000000000E+00 -0.96975065065E+02  0.96983380764E+02  0.12700000000E+01 0. -1.
         25    2    1    2    0    0  0.00000000000E+00  0.00000000000E+00 -0.56712327566E+02  0.13726614297E+03  0.12500282360E+03 0.  0.
    9000005    1    3    3    0    0 -0.14120163300E+02  0.44472460324E+02 -0.74006775993E+02  0.87493894825E+02  0.10000000000E+01 0.  0.
    9000005    1    3    3    0    0  0.14120163300E+02 -0.44472460324E+02  0.17294448426E+02  0.49772248144E+02  0.10000000000E+01 0.  0.
<mgrwt>
<rscale>  0 0.12500282E+03</rscale>
<asrwt>0</asrwt>
<pdfrwt beam="2">  1        4 0.14921421E-01 0.12500282E+03</pdfrwt>
<pdfrwt beam="1">  1       -4 0.61964474E-02 0.12500282E+03</pdfrwt>
<totfact> 0.10189875E+04</totfact>
</mgrwt>
</event>
<event>
 5    1  0.3309811E-002  0.1250068E+03  0.7818608E-02  0.1235059E+00
          4   -1    0    0  501    0  0.00000000000E+00  0.00000000000E+00  0.22040900102E+02  0.22077458579E+02  0.12700000000E+01 0.  1.
         -4   -1    0    0    0  501 -0.00000000000E+00 -0.00000000000E+00 -0.17706093292E+03  0.17706548751E+03  0.12700000000E+01 0.  1.
         25    2    1    2    0    0  0.00000000000E+00  0.00000000000E+00 -0.15502003282E+03  0.19914294609E+03  0.12500680942E+03 0.  0.
    9000005    1    3    3    0    0 -0.42564583531E+01  0.54470024373E+00  0.21813739403E+02  0.22254288638E+02  0.10000000000E+01 0.  0.
    9000005    1    3    3    0    0  0.42564583531E+01 -0.54470024373E+00 -0.17683377222E+03  0.17688865745E+03  0.10000000000E+01 0.  0.
<mgrwt>
<rscale>  0 0.12500681E+03</rscale>
<asrwt>0</asrwt>
<pdfrwt beam="1">  1        4 0.33940704E-02 0.12500681E+03</pdfrwt>
<pdfrwt beam="2">  1       -4 0.27243305E-01 0.12500681E+03</pdfrwt>
<totfact> 0.90266501E+03</totfact>
</mgrwt>
</event>
<event>
 5    1  0.3309811E-002  0.1250053E+03  0.7818608E-02  0.1235061E+00
          4   -1    0    0  501    0  0.00000000000E+00  0.00000000000E+00  0.59029251297E+01  0.60379984338E+01  0.12700000000E+01 0. -1.
         -4   -1    0    0    0  501 -0.00000000000E+00 -0.00000000000E+00 -0.65418287943E+03  0.65418411219E+03  0.12700000000E+01 0. -1.
         25    2    1    2    0    0  0.00000000000E+00  0.00000000000E+00 -0.64827995430E+03  0.66022211062E+03  0.12500534471E+03 0.  0.
    9000005    1    3    3    0    0 -0.20749850605E+02  0.33701157616E+02 -0.68693037191E+02  0.79284662346E+02  0.10000000000E+01 0.  0.
    9000005    1    3    3    0    0  0.20749850605E+02 -0.33701157616E+02 -0.57958691711E+03  0.58093744827E+03  0.10000000000E+01 0.  0.
<mgrwt>
<rscale>  0 0.12500534E+03</rscale>
<asrwt>0</asrwt>
<pdfrwt beam="1">  1        4 0.91862793E-03 0.12500534E+03</pdfrwt>
<pdfrwt beam="2">  1       -4 0.10065395E+00 0.12500534E+03</pdfrwt>
<totfact> 0.45265898E+03</totfact>
</mgrwt>
</event>
<event>
 5    1  0.3309811E-002  0.1250017E+03  0.7818608E-02  0.1235067E+00
          4   -1    0    0  501    0  0.00000000000E+00  0.00000000000E+00  0.26177058927E+03  0.26177367000E+03  0.12700000000E+01 0.  1.
         -4   -1    0    0    0  501 -0.00000000000E+00 -0.00000000000E+00 -0.14892631902E+02  0.14946684748E+02  0.12700000000E+01 0.  1.
         25    2    1    2    0    0  0.00000000000E+00  0.00000000000E+00  0.24687795736E+03  0.27672035475E+03  0.12500171559E+03 0.  0.
    9000005    1    3    3    0    0  0.20797263907E+02  0.43726429173E+02  0.21089767393E+03  0.21638705059E+03  0.10000000000E+01 0.  0.
    9000005    1    3    3    0    0 -0.20797263907E+02 -0.43726429173E+02  0.35980283429E+02  0.60333304152E+02  0.10000000000E+01 0.  0.
<mgrwt>
<rscale>  0 0.12500172E+03</rscale>
<asrwt>0</asrwt>
<pdfrwt beam="1">  1        4 0.40276791E-01 0.12500172E+03</pdfrwt>
<pdfrwt beam="2">  1       -4 0.22955691E-02 0.12500172E+03</pdfrwt>
<totfact> 0.78611983E+03</totfact>
</mgrwt>
</event>
<event>
 5    1  0.3309811E-002  0.1250096E+03  0.7818608E-02  0.1235054E+00
          4   -1    0    0  501    0  0.00000000000E+00  0.00000000000E+00  0.19679190778E+02  0.19720128034E+02  0.12700000000E+01 0. -1.
         -4   -1    0    0    0  501 -0.00000000000E+00 -0.00000000000E+00 -0.19827766695E+03  0.19828173419E+03  0.12700000000E+01 0. -1.
         25    2    1    2    0    0  0.00000000000E+00  0.00000000000E+00 -0.17859847618E+03  0.21800186222E+03  0.12500958459E+03 0.  0.
    9000005    1    3    3    0    0 -0.62417286825E+02  0.18206360190E+01 -0.93784997417E+02  0.11267589871E+03  0.10000000000E+01 0.  0.
    9000005    1    3    3    0    0  0.62417286825E+02 -0.18206360190E+01 -0.84813478759E+02  0.10532596351E+03  0.10000000000E+01 0.  0.
<mgrwt>
<rscale>  0 0.12500958E+03</rscale>
<asrwt>0</asrwt>
<pdfrwt beam="1">  1        4 0.30310298E-02 0.12500958E+03</pdfrwt>
<pdfrwt beam="2">  1       -4 0.30507717E-01 0.12500958E+03</pdfrwt>
<totfact> 0.87166854E+03</totfact>
</mgrwt>
</event>
<event>
 5    1  0.3309811E-002  0.1249990E+03  0.7818608E-02  0.1235071E+00
          4   -1    0    0  501    0  0.00000000000E+00  0.00000000000E+00  0.17190524846E+01  0.21372976968E+01  0.12700000000E+01 0.  1.
         -4   -1    0    0    0  501 -0.00000000000E+00 -0.00000000000E+00 -0.20254291090E+04  0.20254295072E+04  0.12700000000E+01 0.  1.
         25    2    1    2    0    0  0.00000000000E+00  0.00000000000E+00 -0.20237100565E+04  0.20275668049E+04  0.12499902130E+03 0.  0.
    9000005    1    3    3    0    0 -0.31547025984E+02 -0.53044450707E+02 -0.85271038962E+03  0.85494148172E+03  0.10000000000E+01 0.  0.
    9000005    1    3    3    0    0  0.31547025984E+02  0.53044450707E+02 -0.11709996669E+04  0.11726253231E+04  0.10000000000E+01 0.  0.
<mgrwt>
<rscale>  0 0.12499902E+03</rscale>
<asrwt>0</asrwt>
<pdfrwt beam="1">  1        4 0.29667457E-03 0.12499902E+03</pdfrwt>
<pdfrwt beam="2">  1       -4 0.31163498E+00 0.12499902E+03</pdfrwt>
<totfact> 0.95060014E+02</totfact>
</mgrwt>
</event>
<event>
 5    1  0.3309811E-002  0.1249997E+03  0.7818608E-02  0.1235070E+00
          4   -1    0    0  501    0  0.00000000000E+00  0.00000000000E+00  0.24298837466E+02  0.24332003662E+02  0.12700000000E+01 0.  1.
         -4   -1    0    0    0  501 -0.00000000000E+00 -0.00000000000E+00 -0.16061252460E+03  0.16061754561E+03  0.12700000000E+01 0.  1.
         25    2    1    2    0    0  0.00000000000E+00  0.00000000000E+00 -0.13631368713E+03  0.18494954927E+03  0.12499965790E+03 0.  0.
    9000005    1    3    3    0    0  0.59797811268E+02 -0.17995916916E+02 -0.64656294979E+02  0.89894759239E+02  0.10000000000E+01 0.  0.
    9000005    1    3    3    0    0 -0.59797811268E+02  0.17995916916E+02 -0.71657392151E+02  0.95054790032E+02  0.10000000000E+01 0.  0.
<mgrwt>
<rscale>  0 0.12499966E+03</rscale>
<asrwt>0</asrwt>
<pdfrwt beam="1">  1        4 0.37412203E-02 0.12499966E+03</pdfrwt>
<pdfrwt beam="2">  1       -4 0.24712556E-01 0.12499966E+03</pdfrwt>
<totfact> 0.92734290E+03</totfact>
</mgrwt>
</event>
<event>
 5    1  0.3309811E-002  0.1249946E+03  0.7818608E-02  0.1235078E+00
         -4   -1    0    0    0  501 -0.00000000000E+00  0.00000000000E+00  0.22207924484E+02  0.22244208457E+02  0.12700000000E+01 0. -1.
          4   -1    0    0  501    0  0.00000000000E+00 -0.00000000000E+00 -0.17569705595E+03  0.17570164589E+03  0.12700000000E+01 0. -1.
         25    2    1    2    0    0  0.00000000000E+00  0.00000000000E+00 -0.15348913146E+03  0.19794585435E+03  0.12499459099E+03 0.  0.
    9000005    1    3    3    0    0 -0.45564027466E+02  0.40998850316E+02 -0.96005479493E+02  0.11390802614E+03  0.10000000000E+01 0.  0.
    9000005    1    3    3    0    0  0.45564027466E+02 -0.40998850316E+02 -0.57483651968E+02  0.84037828207E+02  0.10000000000E+01 0.  0.
<mgrwt>
<rscale>  0 0.12499459E+03</rscale>
<asrwt>0</asrwt>
<pdfrwt beam="2">  1        4 0.27033460E-01 0.12499459E+03</pdfrwt>
<pdfrwt beam="1">  1       -4 0.34197480E-02 0.12499459E+03</pdfrwt>
<totfact> 0.90493803E+03</totfact>
</mgrwt>
</event>
<event>
 5    1  0.3309811E-002  0.1249979E+03  0.7818608E-02  0.1235073E+00
          4   -1    0    0  501    0  0.00000000000E+00  0.00000000000E+00  0.45508487188E+02  0.45526204610E+02  0.12700000000E+01 0.  1.
         -4   -1    0    0    0  501 -0.00000000000E+00 -0.00000000000E+00 -0.85793651766E+02  0.85803051131E+02  0.12700000000E+01 0.  1.
         25    2    1    2    0    0  0.00000000000E+00  0.00000000000E+00 -0.40285164577E+02  0.13132925574E+03  0.12499791570E+03 0.  0.
    9000005    1    3    3    0    0  0.46194610452E+02  0.38796604501E+02 -0.37278228636E+02  0.70920976346E+02  0.10000000000E+01 0.  0.
    9000005    1    3    3    0    0 -0.46194610452E+02 -0.38796604501E+02 -0.30069359415E+01  0.60408279394E+02  0.10000000000E+01 0.  0.
<mgrwt>
<rscale>  0 0.12499792E+03</rscale>
<asrwt>0</asrwt>
<pdfrwt beam="1">  1        4 0.70033917E-02 0.12499792E+03</pdfrwt>
<pdfrwt beam="2">  1       -4 0.13201109E-01 0.12499792E+03</pdfrwt>
<totfact> 0.10316521E+04</totfact>
</mgrwt>
</event>
<event>
 5    1  0.3309811E-002  0.1249969E+03  0.7818608E-02  0.1235074E+00
         -4   -1    0    0    0  501 -0.00000000000E+00  0.00000000000E+00  0.14302880946E+02  0.14359153991E+02  0.12700000000E+01 0.  1.
          4   -1    0    0  501    0  0.00000000000E+00 -0.00000000000E+00 -0.27250172636E+03  0.27250468577E+03  0.12700000000E+01 0.  1.
         25    2    1    2    0    0  0.00000000000E+00  0.00000000000E+00 -0.25819884541E+03  0.28686383976E+03  0.12499687513E+03 0.  0.
    9000005    1    3    3    0    0 -0.95116378580E+01  0.34230181792E+02 -0.11117568506E+02  0.37239453940E+02  0.10000000000E+01 0.  0.
    9000005    1    3    3    0    0  0.95116378580E+01 -0.34230181792E+02 -0.24708127691E+03  0.24962438582E+03  0.10000000000E+01 0.  0.
<mgrwt>
<rscale>  0 0.12499688E+03</rscale>
<asrwt>0</asrwt>
<pdfrwt beam="2">  1        4 0.41927895E-01 0.12499688E+03</pdfrwt>
<pdfrwt beam="1">  1       -4 0.22049998E-02 0.12499688E+03</pdfrwt>
<totfact> 0.77282091E+03</totfact>
</mgrwt>
</event>
<event>
 5    1  0.3309811E-002  0.1250079E+03  0.7818608E-02  0.1235057E+00
          4   -1    0    0  501    0  0.00000000000E+00  0.00000000000E+00  0.25799669113E+03  0.25799981693E+03  0.12700000000E+01 0. -1.
         -4   -1    0    0    0  501 -0.00000000000E+00 -0.00000000000E+00 -0.15112757386E+02  0.15166025709E+02  0.12700000000E+01 0. -1.
         25    2    1    2    0    0  0.00000000000E+00  0.00000000000E+00  0.24288393375E+03  0.27316584264E+03  0.12500788900E+03 0.  0.
    9000005    1    3    3    0    0  0.12470094557E+02 -0.60799313387E+02  0.10543132955E+03  0.12234714961E+03  0.10000000000E+01 0.  0.
    9000005    1    3    3    0    0 -0.12470094557E+02  0.60799313387E+02  0.13745260419E+03  0.15081869303E+03  0.10000000000E+01 0.  0.
<mgrwt>
<rscale>  0 0.12500789E+03</rscale>
<asrwt>0</asrwt>
<pdfrwt beam="1">  1        4 0.39696136E-01 0.12500789E+03</pdfrwt>
<pdfrwt beam="2">  1       -4 0.23293776E-02 0.12500789E+03</pdfrwt>
<totfact> 0.79079204E+03</totfact>
</mgrwt>
</event>
<event>
 5    1  0.3309811E-002  0.1250004E+03  0.7818608E-02  0.1235069E+00
          4   -1    0    0  501    0  0.00000000000E+00  0.00000000000E+00  0.69920118765E+02  0.69931651690E+02  0.12700000000E+01 0.  1.
         -4   -1    0    0    0  501 -0.00000000000E+00 -0.00000000000E+00 -0.55844361418E+02  0.55858800580E+02  0.12700000000E+01 0.  1.
         25    2    1    2    0    0  0.00000000000E+00  0.00000000000E+00  0.14075757347E+02  0.12579045227E+03  0.12500044375E+03 0.  0.
    9000005    1    3    3    0    0 -0.22893605774E+02 -0.39054245536E+02 -0.36314856719E+02  0.58044121996E+02  0.10000000000E+01 0.  0.
    9000005    1    3    3    0    0  0.22893605774E+02  0.39054245536E+02  0.50390614066E+02  0.67746330275E+02  0.10000000000E+01 0.  0.
<mgrwt>
<rscale>  0 0.12500044E+03</rscale>
<asrwt>0</asrwt>
<pdfrwt beam="1">  1        4 0.10758939E-01 0.12500044E+03</pdfrwt>
<pdfrwt beam="2">  1       -4 0.85934381E-02 0.12500044E+03</pdfrwt>
<totfact> 0.10435451E+04</totfact>
</mgrwt>
</event>
<event>
 5    1  0.3309811E-002  0.1249976E+03  0.7818608E-02  0.1235073E+00
         -4   -1    0    0    0  501 -0.00000000000E+00  0.00000000000E+00  0.43959153090E+03  0.43959336544E+03  0.12700000000E+01 0. -1.
          4   -1    0    0  501    0  0.00000000000E+00 -0.00000000000E+00 -0.88385085938E+01  0.89292851989E+01  0.12700000000E+01 0. -1.
         25    2    1    2    0    0  0.00000000000E+00  0.00000000000E+00  0.43075302231E+03  0.44852265064E+03  0.12499760762E+03 0.  0.
    9000005    1    3    3    0    0  0.24647701886E+02 -0.24357279324E+02  0.40197634575E+03  0.40346842356E+03  0.10000000000E+01 0.  0.
    9000005    1    3    3    0    0 -0.24647701886E+02  0.24357279324E+02  0.28776676553E+02  0.45054227079E+02  0.10000000000E+01 0.  0.
<mgrwt>
<rscale>  0 0.12499761E+03</rscale>
<asrwt>0</asrwt>
<pdfrwt beam="2">  1        4 0.13668947E-02 0.12499761E+03</pdfrwt>
<pdfrwt beam="1">  1       -4 0.67636578E-01 0.12499761E+03</pdfrwt>
<totfact> 0.60095163E+03</totfact>
</mgrwt>
</event>
<event>
 4    1  0.3309811E-002  0.1249093E+03  0.7818608E-02  0.1235211E+00
         -4   -1    0    0    0  501 -0.00000000000E+00  0.00000000000E+00  0.48494946554E+02  0.48511573272E+02  0.12700000000E+01 0. -1.
          4   -1    0    0  501    0  0.00000000000E+00 -0.00000000000E+00 -0.80397317126E+02  0.80407347307E+02  0.12700000000E+01 0. -1.
    9000005    1    1    2    0    0 -0.58747531993E+02  0.20775280824E+02 -0.11733832805E+02  0.63415831154E+02  0.10000000000E+01 0.  0.
    9000005    1    1    2    0    0  0.58747531993E+02 -0.20775280824E+02 -0.20168537767E+02  0.65503089425E+02  0.10000000000E+01 0.  0.
<mgrwt>
<rscale>  0 0.12490927E+03</rscale>
<asrwt>0</asrwt>
<pdfrwt beam="2">  1        4 0.12370869E-01 0.12490927E+03</pdfrwt>
<pdfrwt beam="1">  1       -4 0.74628115E-02 0.12490927E+03</pdfrwt>
<totfact> 0.10388952E+04</totfact>
</mgrwt>
</event>
<event>
 5    1  0.3309811E-002  0.1250020E+03  0.7818608E-02  0.1235066E+00
         -4   -1    0    0    0  501 -0.00000000000E+00  0.00000000000E+00  0.70634277405E+01  0.71766922356E+01  0.12700000000E+01 0.  1.
          4   -1    0    0  501    0  0.00000000000E+00 -0.00000000000E+00 -0.54852981458E+03  0.54853128478E+03  0.12700000000E+01 0.  1.
         25    2    1    2    0    0  0.00000000000E+00  0.00000000000E+00 -0.54146638684E+03  0.55570797702E+03  0.12500203055E+03 0.  0.
    9000005    1    3    3    0    0 -0.43040272582E+02 -0.28766851909E+02 -0.11511335113E+03  0.12622234525E+03  0.10000000000E+01 0.  0.
    9000005    1    3    3    0    0  0.43040272582E+02  0.28766851909E+02 -0.42635303571E+03  0.42948563177E+03  0.10000000000E+01 0.  0.
<mgrwt>
<rscale>  0 0.12500203E+03</rscale>
<asrwt>0</asrwt>
<pdfrwt beam="2">  1        4 0.84397994E-01 0.12500203E+03</pdfrwt>
<pdfrwt beam="1">  1       -4 0.10955074E-02 0.12500203E+03</pdfrwt>
<totfact> 0.51786089E+03</totfact>
</mgrwt>
</event>
<event>
 5    1  0.3309811E-002  0.1249946E+03  0.7818608E-02  0.1235078E+00
         -4   -1    0    0    0  501 -0.00000000000E+00  0.00000000000E+00  0.12072730905E+02  0.12139346420E+02  0.12700000000E+01 0. -1.
          4   -1    0    0  501    0  0.00000000000E+00 -0.00000000000E+00 -0.32257371812E+03  0.32257621816E+03  0.12700000000E+01 0. -1.
         25    2    1    2    0    0  0.00000000000E+00  0.00000000000E+00 -0.31050098722E+03  0.33471556458E+03  0.12499458432E+03 0.  0.
    9000005    1    3    3    0    0  0.25254712837E+02 -0.43954305259E+02 -0.25309726448E+03  0.25812595135E+03  0.10000000000E+01 0.  0.
    9000005    1    3    3    0    0 -0.25254712837E+02  0.43954305259E+02 -0.57403722736E+02  0.76589613234E+02  0.10000000000E+01 0.  0.
<mgrwt>
<rscale>  0 0.12499458E+03</rscale>
<asrwt>0</asrwt>
<pdfrwt beam="2">  1        4 0.49632036E-01 0.12499458E+03</pdfrwt>
<pdfrwt beam="1">  1       -4 0.18626600E-02 0.12499458E+03</pdfrwt>
<totfact> 0.71447994E+03</totfact>
</mgrwt>
</event>
<event>
 4    1  0.3309811E-002  0.1256131E+03  0.7818608E-02  0.1234114E+00
         -4   -1    0    0    0  501 -0.00000000000E+00  0.00000000000E+00  0.17307870920E+02  0.17354402778E+02  0.12700000000E+01 0.  1.
          4   -1    0    0  501    0  0.00000000000E+00 -0.00000000000E+00 -0.22755731901E+03  0.22756086292E+03  0.12700000000E+01 0.  1.
    9000005    1    1    2    0    0 -0.18487616588E+02 -0.35046554021E+02 -0.20011641992E+03  0.20400400593E+03  0.10000000000E+01 0.  0.
    9000005    1    1    2    0    0  0.18487616588E+02  0.35046554021E+02 -0.10133028169E+02  0.40911259767E+02  0.10000000000E+01 0.  0.
<mgrwt>
<rscale>  0 0.12561312E+03</rscale>
<asrwt>0</asrwt>
<pdfrwt beam="2">  1        4 0.35012668E-01 0.12561312E+03</pdfrwt>
<pdfrwt beam="1">  1       -4 0.26666015E-02 0.12561312E+03</pdfrwt>
<totfact> 0.81945829E+03</totfact>
</mgrwt>
</event>
<event>
 5    1  0.3309811E-002  0.1250020E+03  0.7818608E-02  0.1235066E+00
         -4   -1    0    0    0  501 -0.00000000000E+00  0.00000000000E+00  0.32254766031E+03  0.32255016055E+03  0.12700000000E+01 0.  1.
          4   -1    0    0  501    0  0.00000000000E+00 -0.00000000000E+00 -0.12075160565E+02  0.12141762750E+02  0.12700000000E+01 0.  1.
         25    2    1    2    0    0  0.00000000000E+00  0.00000000000E+00  0.31047249974E+03  0.33469192330E+03  0.12500204168E+03 0.  0.
    9000005    1    3    3    0    0 -0.28250236026E+02 -0.51200244919E+02  0.96219772851E+02  0.11260011369E+03  0.10000000000E+01 0.  0.
    9000005    1    3    3    0    0  0.28250236026E+02  0.51200244919E+02  0.21425272689E+03  0.22209180961E+03  0.10000000000E+01 0.  0.
<mgrwt>
<rscale>  0 0.12500204E+03</rscale>
<asrwt>0</asrwt>
<pdfrwt beam="2">  1        4 0.18630323E-02 0.12500204E+03</pdfrwt>
<pdfrwt beam="1">  1       -4 0.49628039E-01 0.12500204E+03</pdfrwt>
<totfact> 0.71438890E+03</totfact>
</mgrwt>
</event>
<event>
 5    1  0.3309811E-002  0.1249999E+03  0.7818608E-02  0.1235070E+00
         -4   -1    0    0    0  501 -0.00000000000E+00  0.00000000000E+00  0.88811293823E+02  0.88820373848E+02  0.12700000000E+01 0.  1.
          4   -1    0    0  501    0  0.00000000000E+00 -0.00000000000E+00 -0.43963104935E+02  0.43981444901E+02  0.12700000000E+01 0.  1.
         25    2    1    2    0    0  0.00000000000E+00  0.00000000000E+00  0.44848188887E+02  0.13280181875E+03  0.12499985207E+03 0.  0.
    9000005    1    3    3    0    0  0.39120282526E+02 -0.30644985157E+02  0.62680109365E+02  0.79995673197E+02  0.10000000000E+01 0.  0.
    9000005    1    3    3    0    0 -0.39120282526E+02  0.30644985157E+02 -0.17831920478E+02  0.52806145552E+02  0.10000000000E+01 0.  0.
<mgrwt>
<rscale>  0 0.12499985E+03</rscale>
<asrwt>0</asrwt>
<pdfrwt beam="2">  1        4 0.67656639E-02 0.12499985E+03</pdfrwt>
<pdfrwt beam="1">  1       -4 0.13665385E-01 0.12499985E+03</pdfrwt>
<totfact> 0.10284648E+04</totfact>
</mgrwt>
</event>
<event>
 5    1  0.3309811E-002  0.1249973E+03  0.7818608E-02  0.1235074E+00
          4   -1    0    0  501    0  0.00000000000E+00  0.00000000000E+00  0.13195976390E+03  0.13196587509E+03  0.12700000000E+01 0. -1.
         -4   -1    0    0    0  501 -0.00000000000E+00 -0.00000000000E+00 -0.29580104576E+02  0.29607355281E+02  0.12700000000E+01 0. -1.
         25    2    1    2    0    0  0.00000000000E+00  0.00000000000E+00  0.10237965933E+03  0.16157323038E+03  0.12499725649E+03 0.  0.
    9000005    1    3    3    0    0 -0.21571028053E+02 -0.58174196625E+02  0.60822375549E+02  0.86890205268E+02  0.10000000000E+01 0.  0.
    9000005    1    3    3    0    0  0.21571028053E+02  0.58174196625E+02  0.41557283779E+02  0.74683025108E+02  0.10000000000E+01 0.  0.
<mgrwt>
<rscale>  0 0.12499726E+03</rscale>
<asrwt>0</asrwt>
<pdfrwt beam="1">  1        4 0.20304068E-01 0.12499726E+03</pdfrwt>
<pdfrwt beam="2">  1       -4 0.45533516E-02 0.12499726E+03</pdfrwt>
<totfact> 0.97046317E+03</totfact>
</mgrwt>
</event>
<event>
 5    1  0.3309811E-002  0.1249986E+03  0.7818608E-02  0.1235071E+00
          4   -1    0    0  501    0  0.00000000000E+00  0.00000000000E+00  0.54149936368E+03  0.54150085297E+03  0.12700000000E+01 0.  1.
         -4   -1    0    0    0  501 -0.00000000000E+00 -0.00000000000E+00 -0.71562013548E+01  0.72680202139E+01  0.12700000000E+01 0.  1.
         25    2    1    2    0    0  0.00000000000E+00  0.00000000000E+00  0.53434316232E+03  0.54876887318E+03  0.12499864419E+03 0.  0.
    9000005    1    3    3    0    0  0.82736910687E+01  0.61753480673E+02  0.24601696219E+03  0.25378591770E+03  0.10000000000E+01 0.  0.
    9000005    1    3    3    0    0 -0.82736910687E+01 -0.61753480673E+02  0.28832620014E+03  0.29498295548E+03  0.10000000000E+01 0.  0.
<mgrwt>
<rscale>  0 0.12499864E+03</rscale>
<asrwt>0</asrwt>
<pdfrwt beam="1">  1        4 0.83316347E-01 0.12499864E+03</pdfrwt>
<pdfrwt beam="2">  1       -4 0.11096696E-02 0.12499864E+03</pdfrwt>
<totfact> 0.52271386E+03</totfact>
</mgrwt>
</event>
<event>
 4    1  0.3309811E-002  0.1249383E+03  0.7818608E-02  0.1235166E+00
         -4   -1    0    0    0  501 -0.00000000000E+00  0.00000000000E+00  0.18618824755E+02  0.18662088180E+02  0.12700000000E+01 0. -1.
          4   -1    0    0  501    0  0.00000000000E+00 -0.00000000000E+00 -0.20930565972E+03  0.20930951266E+03  0.12700000000E+01 0. -1.
    9000005    1    1    2    0    0  0.45033199009E+02 -0.16103728064E+02 -0.22036129126E+02  0.52667922471E+02  0.10000000000E+01 0.  0.
    9000005    1    1    2    0    0 -0.45033199009E+02  0.16103728064E+02 -0.16865070584E+03  0.17530367837E+03  0.10000000000E+01 0.  0.
<mgrwt>
<rscale>  0 0.12493831E+03</rscale>
<asrwt>0</asrwt>
<pdfrwt beam="2">  1        4 0.32204493E-01 0.12493831E+03</pdfrwt>
<pdfrwt beam="1">  1       -4 0.28680591E-02 0.12493831E+03</pdfrwt>
<totfact> 0.85740010E+03</totfact>
</mgrwt>
</event>
<event>
 5    1  0.3309811E-002  0.1249955E+03  0.7818608E-02  0.1235076E+00
          4   -1    0    0  501    0  0.00000000000E+00  0.00000000000E+00  0.21178177779E+01  0.24694234429E+01  0.12700000000E+01 0. -1.
         -4   -1    0    0    0  501 -0.00000000000E+00 -0.00000000000E+00 -0.17026182619E+04  0.17026187356E+04  0.12700000000E+01 0. -1.
         25    2    1    2    0    0  0.00000000000E+00  0.00000000000E+00 -0.17005004441E+04  0.17050881590E+04  0.12499547787E+03 0.  0.
    9000005    1    3    3    0    0  0.51748902887E+02  0.30663892081E+02 -0.61925669183E+03  0.62217206110E+03  0.10000000000E+01 0.  0.
    9000005    1    3    3    0    0 -0.51748902887E+02 -0.30663892081E+02 -0.10812437523E+04  0.10829160979E+04  0.10000000000E+01 0.  0.
<mgrwt>
<rscale>  0 0.12499548E+03</rscale>
<asrwt>0</asrwt>
<pdfrwt beam="1">  1        4 0.35290251E-03 0.12499548E+03</pdfrwt>
<pdfrwt beam="2">  1       -4 0.26196734E+00 0.12499548E+03</pdfrwt>
<totfact> 0.14224719E+03</totfact>
</mgrwt>
</event>
<event>
 5    1  0.3309811E-002  0.1250229E+03  0.7818608E-02  0.1235034E+00
         -4   -1    0    0    0  501 -0.00000000000E+00  0.00000000000E+00  0.23729922745E+04  0.23729926143E+04  0.12700000000E+01 0. -1.
          4   -1    0    0  501    0  0.00000000000E+00 -0.00000000000E+00 -0.14014765965E+01  0.18913055413E+01  0.12700000000E+01 0. -1.
         25    2    1    2    0    0  0.00000000000E+00  0.00000000000E+00  0.23715907979E+04  0.23748839199E+04  0.12502287885E+03 0.  0.
    9000005    1    3    3    0    0  0.41200450246E+01  0.57446115161E+02  0.16470595754E+04  0.16480665265E+04  0.10000000000E+01 0.  0.
    9000005    1    3    3    0    0 -0.41200450246E+01 -0.57446115161E+02  0.72453122251E+03  0.72681739338E+03  0.10000000000E+01 0.  0.
<mgrwt>
<rscale>  0 0.12502288E+03</rscale>
<asrwt>0</asrwt>
<pdfrwt beam="2">  1        4 0.25331694E-03 0.12502288E+03</pdfrwt>
<pdfrwt beam="1">  1       -4 0.36511363E+00 0.12502288E+03</pdfrwt>
<totfact> 0.57252534E+02</totfact>
</mgrwt>
</event>
<event>
 5    1  0.3309811E-002  0.1249989E+03  0.7818608E-02  0.1235071E+00
         -4   -1    0    0    0  501 -0.00000000000E+00  0.00000000000E+00  0.46195259781E+02  0.46212713903E+02  0.12700000000E+01 0. -1.
          4   -1    0    0  501    0  0.00000000000E+00 -0.00000000000E+00 -0.84519860121E+02  0.84529401127E+02  0.12700000000E+01 0. -1.
         25    2    1    2    0    0  0.00000000000E+00  0.00000000000E+00 -0.38324600340E+02  0.13074211503E+03  0.12499890260E+03 0.  0.
    9000005    1    3    3    0    0 -0.66182659680E+01 -0.15959678771E+02  0.43652564265E+02  0.46958057432E+02  0.10000000000E+01 0.  0.
    9000005    1    3    3    0    0  0.66182659680E+01  0.15959678771E+02 -0.81977164605E+02  0.83784057598E+02  0.10000000000E+01 0.  0.
<mgrwt>
<rscale>  0 0.12499890E+03</rscale>
<asrwt>0</asrwt>
<pdfrwt beam="2">  1        4 0.13005132E-01 0.12499890E+03</pdfrwt>
<pdfrwt beam="1">  1       -4 0.71090396E-02 0.12499890E+03</pdfrwt>
<totfact> 0.10328877E+04</totfact>
</mgrwt>
</event>
<event>
 5    1  0.3309811E-002  0.1250003E+03  0.7818608E-02  0.1235069E+00
          4   -1    0    0  501    0  0.00000000000E+00  0.00000000000E+00  0.34947809642E+02  0.34970877867E+02  0.12700000000E+01 0.  1.
         -4   -1    0    0    0  501 -0.00000000000E+00 -0.00000000000E+00 -0.11171080645E+03  0.11171802531E+03  0.12700000000E+01 0.  1.
         25    2    1    2    0    0  0.00000000000E+00  0.00000000000E+00 -0.76762996812E+02  0.14668890317E+03  0.12500030654E+03 0.  0.
    9000005    1    3    3    0    0 -0.43215004550E+02  0.44710177827E+02 -0.31078113870E+02  0.69522555917E+02  0.10000000000E+01 0.  0.
    9000005    1    3    3    0    0  0.43215004550E+02 -0.44710177827E+02 -0.45684882942E+02  0.77166347257E+02  0.10000000000E+01 0.  0.
<mgrwt>
<rscale>  0 0.12500031E+03</rscale>
<asrwt>0</asrwt>
<pdfrwt beam="1">  1        4 0.53789159E-02 0.12500031E+03</pdfrwt>
<pdfrwt beam="2">  1       -4 0.17188607E-01 0.12500031E+03</pdfrwt>
<totfact> 0.99967169E+03</totfact>
</mgrwt>
</event>
<event>
 5    1  0.3309811E-002  0.1250002E+03  0.7818608E-02  0.1235069E+00
         -4   -1    0    0    0  501 -0.00000000000E+00  0.00000000000E+00  0.93215811798E+03  0.93215898312E+03  0.12700000000E+01 0.  1.
          4   -1    0    0  501    0  0.00000000000E+00 -0.00000000000E+00 -0.40934490470E+01  0.42859333990E+01  0.12700000000E+01 0.  1.
         25    2    1    2    0    0  0.00000000000E+00  0.00000000000E+00  0.92806466894E+03  0.93644491652E+03  0.12500020783E+03 0.  0.
    9000005    1    3    3    0    0  0.23797568925E+01 -0.46551873552E+02  0.15220729744E+03  0.15918794417E+03  0.10000000000E+01 0.  0.
    9000005    1    3    3    0    0 -0.23797568925E+01  0.46551873552E+02  0.77585737150E+03  0.77725697236E+03  0.10000000000E+01 0.  0.
<mgrwt>
<rscale>  0 0.12500021E+03</rscale>
<asrwt>0</asrwt>
<pdfrwt beam="2">  1        4 0.64463401E-03 0.12500021E+03</pdfrwt>
<pdfrwt beam="1">  1       -4 0.14342391E+00 0.12500021E+03</pdfrwt>
<totfact> 0.32802003E+03</totfact>
</mgrwt>
</event>
<event>
 5    1  0.3309811E-002  0.1250270E+03  0.7818608E-02  0.1235027E+00
         -4   -1    0    0    0  501 -0.00000000000E+00  0.00000000000E+00  0.10221172300E+03  0.10221961269E+03  0.12700000000E+01 0.  1.
          4   -1    0    0  501    0  0.00000000000E+00 -0.00000000000E+00 -0.38213833850E+02  0.38234931640E+02  0.12700000000E+01 0.  1.
         25    2    1    2    0    0  0.00000000000E+00  0.00000000000E+00  0.63997889145E+02  0.14045454433E+03  0.12502699391E+03 0.  0.
    9000005    1    3    3    0    0  0.49997917353E+02  0.32271064238E+02  0.10515262268E+02  0.60438266580E+02  0.10000000000E+01 0.  0.
    9000005    1    3    3    0    0 -0.49997917353E+02 -0.32271064238E+02  0.53482626877E+02  0.80016277746E+02  0.10000000000E+01 0.  0.
<mgrwt>
<rscale>  0 0.12502699E+03</rscale>
<asrwt>0</asrwt>
<pdfrwt beam="2">  1        4 0.58812813E-02 0.12502699E+03</pdfrwt>
<pdfrwt beam="1">  1       -4 0.15727110E-01 0.12502699E+03</pdfrwt>
<totfact> 0.10118020E+04</totfact>
</mgrwt>
</event>
<event>
 5    1  0.3309811E-002  0.1249996E+03  0.7818608E-02  0.1235070E+00
         -4   -1    0    0    0  501 -0.00000000000E+00  0.00000000000E+00  0.10324033300E+02  0.10401853853E+02  0.12700000000E+01 0. -1.
          4   -1    0    0  501    0  0.00000000000E+00 -0.00000000000E+00 -0.37686255862E+03  0.37686469852E+03  0.12700000000E+01 0. -1.
         25    2    1    2    0    0  0.00000000000E+00  0.00000000000E+00 -0.36653852532E+03  0.38726655237E+03  0.12499956817E+03 0.  0.
    9000005    1    3    3    0    0  0.22558160663E+02 -0.58174751730E+02 -0.19402417519E+03  0.20381254355E+03  0.10000000000E+01 0.  0.
    9000005    1    3    3    0    0 -0.22558160663E+02  0.58174751730E+02 -0.17251435014E+03  0.18345400883E+03  0.10000000000E+01 0.  0.
<mgrwt>
<rscale>  0 0.12499957E+03</rscale>
<asrwt>0</asrwt>
<pdfrwt beam="2">  1        4 0.57984995E-01 0.12499957E+03</pdfrwt>
<pdfrwt beam="1">  1       -4 0.15944639E-02 0.12499957E+03</pdfrwt>
<totfact> 0.65810993E+03</totfact>
</mgrwt>
</event>
<event>
 5    1  0.3309811E-002  0.1250012E+03  0.7818608E-02  0.1235067E+00
         -4   -1    0    0    0  501 -0.00000000000E+00  0.00000000000E+00  0.75317554768E+02  0.75328261338E+02  0.12700000000E+01 0. -1.
          4   -1    0    0  501    0  0.00000000000E+00 -0.00000000000E+00 -0.51842557106E+02  0.51858110526E+02  0.12700000000E+01 0. -1.
         25    2    1    2    0    0  0.00000000000E+00  0.00000000000E+00  0.23474997661E+02  0.12718637186E+03  0.12500119069E+03 0.  0.
    9000005    1    3    3    0    0  0.28087557980E+02 -0.51115507920E+02  0.34571246842E+02  0.67807648325E+02  0.10000000000E+01 0.  0.
    9000005    1    3    3    0    0 -0.28087557980E+02  0.51115507920E+02 -0.11096249181E+02  0.59378723539E+02  0.10000000000E+01 0.  0.
<mgrwt>
<rscale>  0 0.12500119E+03</rscale>
<asrwt>0</asrwt>
<pdfrwt beam="2">  1        4 0.79777980E-02 0.12500119E+03</pdfrwt>
<pdfrwt beam="1">  1       -4 0.11589336E-01 0.12500119E+03</pdfrwt>
<totfact> 0.10404819E+04</totfact>
</mgrwt>
</event>
<event>
 5    1  0.3309811E-002  0.1250075E+03  0.7818608E-02  0.1235058E+00
         -4   -1    0    0    0  501 -0.00000000000E+00  0.00000000000E+00  0.29517407746E+03  0.29517680956E+03  0.12700000000E+01 0.  1.
          4   -1    0    0  501    0  0.00000000000E+00 -0.00000000000E+00 -0.13202028601E+02  0.13262973240E+02  0.12700000000E+01 0.  1.
         25    2    1    2    0    0  0.00000000000E+00  0.00000000000E+00  0.28197204886E+03  0.30843978280E+03  0.12500745289E+03 0.  0.
    9000005    1    3    3    0    0 -0.11088024254E+02  0.12070915395E+02  0.28978844166E+03  0.29025332419E+03  0.10000000000E+01 0.  0.
    9000005    1    3    3    0    0  0.11088024254E+02 -0.12070915395E+02 -0.78163928079E+01  0.18186458613E+02  0.10000000000E+01 0.  0.
<mgrwt>
<rscale>  0 0.12500745E+03</rscale>
<asrwt>0</asrwt>
<pdfrwt beam="2">  1        4 0.20359795E-02 0.12500745E+03</pdfrwt>
<pdfrwt beam="1">  1       -4 0.45416296E-01 0.12500745E+03</pdfrwt>
<totfact> 0.74539889E+03</totfact>
</mgrwt>
</event>
<event>
 5    1  0.3309811E-002  0.1250041E+03  0.7818608E-02  0.1235063E+00
         -4   -1    0    0    0  501 -0.00000000000E+00  0.00000000000E+00  0.10092305008E+02  0.10171898563E+02  0.12700000000E+01 0. -1.
          4   -1    0    0  501    0  0.00000000000E+00 -0.00000000000E+00 -0.38547671823E+03  0.38547881031E+03  0.12700000000E+01 0. -1.
         25    2    1    2    0    0  0.00000000000E+00  0.00000000000E+00 -0.37538441323E+03  0.39565070888E+03  0.12500410289E+03 0.  0.
    9000005    1    3    3    0    0 -0.47795972801E+02  0.37625876005E+02 -0.14233674270E+03  0.15479311962E+03  0.10000000000E+01 0.  0.
    9000005    1    3    3    0    0  0.47795972801E+02 -0.37625876005E+02 -0.23304767053E+03  0.24085758925E+03  0.10000000000E+01 0.  0.
<mgrwt>
<rscale>  0 0.12500410E+03</rscale>
<asrwt>0</asrwt>
<pdfrwt beam="2">  1        4 0.59310383E-01 0.12500410E+03</pdfrwt>
<pdfrwt beam="1">  1       -4 0.15589461E-02 0.12500410E+03</pdfrwt>
<totfact> 0.64972124E+03</totfact>
</mgrwt>
</event>
<event>
 5    1  0.3309811E-002  0.1250004E+03  0.7818608E-02  0.1235069E+00
          4   -1    0    0  501    0  0.00000000000E+00  0.00000000000E+00  0.10120726057E+03  0.10121522856E+03  0.12700000000E+01 0.  1.
         -4   -1    0    0    0  501 -0.00000000000E+00 -0.00000000000E+00 -0.38576836315E+02  0.38597735686E+02  0.12700000000E+01 0.  1.
         25    2    1    2    0    0  0.00000000000E+00  0.00000000000E+00  0.62630424255E+02  0.13981296425E+03  0.12500037971E+03 0.  0.
    9000005    1    3    3    0    0  0.59240316265E+02 -0.17570010657E+02  0.41757081235E+02  0.74584007527E+02  0.10000000000E+01 0.  0.
    9000005    1    3    3    0    0 -0.59240316265E+02  0.17570010657E+02  0.20873343021E+02  0.65228956718E+02  0.10000000000E+01 0.  0.
<mgrwt>
<rscale>  0 0.12500038E+03</rscale>
<asrwt>0</asrwt>
<pdfrwt beam="1">  1        4 0.15572568E-01 0.12500038E+03</pdfrwt>
<pdfrwt beam="2">  1       -4 0.59371185E-02 0.12500038E+03</pdfrwt>
<totfact> 0.10137377E+04</totfact>
</mgrwt>
</event>
<event>
 5    1  0.3309811E-002  0.1249973E+03  0.7818608E-02  0.1235073E+00
         -4   -1    0    0    0  501 -0.00000000000E+00  0.00000000000E+00  0.26185051109E+01  0.29102352166E+01  0.12700000000E+01 0.  1.
          4   -1    0    0  501    0  0.00000000000E+00 -0.00000000000E+00 -0.14127176643E+04  0.14127182351E+04  0.12700000000E+01 0.  1.
         25    2    1    2    0    0  0.00000000000E+00  0.00000000000E+00 -0.14100991592E+04  0.14156284703E+04  0.12499730944E+03 0.  0.
    9000005    1    3    3    0    0  0.38636402012E+02  0.14718330548E+02 -0.17436893499E+03  0.17920637908E+03  0.10000000000E+01 0.  0.
    9000005    1    3    3    0    0 -0.38636402012E+02 -0.14718330548E+02 -0.12357302242E+04  0.12364220913E+04  0.10000000000E+01 0.  0.
<mgrwt>
<rscale>  0 0.12499731E+03</rscale>
<asrwt>0</asrwt>
<pdfrwt beam="2">  1        4 0.21736309E+00 0.12499731E+03</pdfrwt>
<pdfrwt beam="1">  1       -4 0.42533276E-03 0.12499731E+03</pdfrwt>
<totfact> 0.19649244E+03</totfact>
</mgrwt>
</event>
<event>
 5    1  0.3309811E-002  0.1249995E+03  0.7818608E-02  0.1235070E+00
         -4   -1    0    0    0  501 -0.00000000000E+00  0.00000000000E+00  0.12669020052E+02  0.12732516212E+02  0.12700000000E+01 0. -1.
          4   -1    0    0  501    0  0.00000000000E+00 -0.00000000000E+00 -0.30749277331E+03  0.30749539596E+03  0.12700000000E+01 0. -1.
         25    2    1    2    0    0  0.00000000000E+00  0.00000000000E+00 -0.29482375326E+03  0.32022791218E+03  0.12499948100E+03 0.  0.
    9000005    1    3    3    0    0 -0.29574082829E+02 -0.40972879386E+02 -0.24160289642E+03  0.24683266149E+03  0.10000000000E+01 0.  0.
    9000005    1    3    3    0    0  0.29574082829E+02  0.40972879386E+02 -0.53220856843E+02  0.73395250688E+02  0.10000000000E+01 0.  0.
<mgrwt>
<rscale>  0 0.12499948E+03</rscale>
<asrwt>0</asrwt>
<pdfrwt beam="2">  1        4 0.47311661E-01 0.12499948E+03</pdfrwt>
<pdfrwt beam="1">  1       -4 0.19541663E-02 0.12499948E+03</pdfrwt>
<totfact> 0.73129870E+03</totfact>
</mgrwt>
</event>
<event>
 4    1  0.3309811E-002  0.1250782E+03  0.7818608E-02  0.1234947E+00
          4   -1    0    0  501    0  0.00000000000E+00  0.00000000000E+00  0.83917560623E+02  0.83927170100E+02  0.12700000000E+01 0.  1.
         -4   -1    0    0    0  501 -0.00000000000E+00 -0.00000000000E+00 -0.46585982743E+02  0.46603290529E+02  0.12700000000E+01 0.  1.
    9000005    1    1    2    0    0  0.20530191056E+02 -0.57419124380E+02  0.42168965790E+01  0.61132861917E+02  0.10000000000E+01 0.  0.
    9000005    1    1    2    0    0 -0.20530191056E+02  0.57419124380E+02  0.33114681301E+02  0.69397598712E+02  0.10000000000E+01 0.  0.
<mgrwt>
<rscale>  0 0.12507819E+03</rscale>
<asrwt>0</asrwt>
<pdfrwt beam="1">  1        4 0.12912464E-01 0.12507819E+03</pdfrwt>
<pdfrwt beam="2">  1       -4 0.71691449E-02 0.12507819E+03</pdfrwt>
<totfact> 0.10314957E+04</totfact>
</mgrwt>
</event>
<event>
 5    1  0.3309811E-002  0.1249937E+03  0.7818608E-02  0.1235079E+00
         -4   -1    0    0    0  501 -0.00000000000E+00  0.00000000000E+00  0.87232373879E+02  0.87241618237E+02  0.12700000000E+01 0. -1.
          4   -1    0    0  501    0  0.00000000000E+00 -0.00000000000E+00 -0.44754648821E+02  0.44772664552E+02  0.12700000000E+01 0. -1.
         25    2    1    2    0    0  0.00000000000E+00  0.00000000000E+00  0.42477725058E+02  0.13201428279E+03  0.12499365478E+03 0.  0.
    9000005    1    3    3    0    0  0.42115344319E+01 -0.27297026875E+02 -0.37962985744E+02  0.46957991706E+02  0.10000000000E+01 0.  0.
    9000005    1    3    3    0    0 -0.42115344319E+01  0.27297026875E+02  0.80440710802E+02  0.85056291083E+02  0.10000000000E+01 0.  0.
<mgrwt>
<rscale>  0 0.12499365E+03</rscale>
<asrwt>0</asrwt>
<pdfrwt beam="2">  1        4 0.68874275E-02 0.12499365E+03</pdfrwt>
<pdfrwt beam="1">  1       -4 0.13422462E-01 0.12499365E+03</pdfrwt>
<totfact> 0.10302868E+04</totfact>
</mgrwt>
</event>
<event>
 5    1  0.3309811E-002  0.1249991E+03  0.7818608E-02  0.1235071E+00
          4   -1    0    0  501    0  0.00000000000E+00  0.00000000000E+00  0.88963473367E+02  0.88972537862E+02  0.12700000000E+01 0. -1.
         -4   -1    0    0    0  501 -0.00000000000E+00 -0.00000000000E+00 -0.43887368652E+02  0.43905740254E+02  0.12700000000E+01 0. -1.
         25    2    1    2    0    0  0.00000000000E+00  0.00000000000E+00  0.45076104715E+02  0.13287827812E+03  0.12499912631E+03 0.  0.
    9000005    1    3    3    0    0 -0.56165693402E+02 -0.27266567764E+02  0.19696636435E+02  0.65475249674E+02  0.10000000000E+01 0.  0.
    9000005    1    3    3    0    0  0.56165693402E+02  0.27266567764E+02  0.25379468280E+02  0.67403028442E+02  0.10000000000E+01 0.  0.
<mgrwt>
<rscale>  0 0.12499913E+03</rscale>
<asrwt>0</asrwt>
<pdfrwt beam="1">  1        4 0.13688799E-01 0.12499913E+03</pdfrwt>
<pdfrwt beam="2">  1       -4 0.67540134E-02 0.12499913E+03</pdfrwt>
<totfact> 0.10283190E+04</totfact>
</mgrwt>
</event>
<event>
 5    1  0.3309811E-002  0.1250015E+03  0.7818608E-02  0.1235067E+00
          4   -1    0    0  501    0  0.00000000000E+00  0.00000000000E+00  0.60997930052E+01  0.62305998673E+01  0.12700000000E+01 0.  1.
         -4   -1    0    0    0  501 -0.00000000000E+00 -0.00000000000E+00 -0.63348030745E+03  0.63348158050E+03  0.12700000000E+01 0.  1.
         25    2    1    2    0    0  0.00000000000E+00  0.00000000000E+00 -0.62738051445E+03  0.63971218036E+03  0.12500145519E+03 0.  0.
    9000005    1    3    3    0    0  0.51963278885E+01 -0.45337799925E+02 -0.95195105899E+02  0.10557284742E+03  0.10000000000E+01 0.  0.
    9000005    1    3    3    0    0 -0.51963278885E+01  0.45337799925E+02 -0.53218540855E+03  0.53413933294E+03  0.10000000000E+01 0.  0.
<mgrwt>
<rscale>  0 0.12500146E+03</rscale>
<asrwt>0</asrwt>
<pdfrwt beam="1">  1        4 0.94859019E-03 0.12500146E+03</pdfrwt>
<pdfrwt beam="2">  1       -4 0.97468617E-01 0.12500146E+03</pdfrwt>
<totfact> 0.46451611E+03</totfact>
</mgrwt>
</event>
<event>
 5    1  0.3309811E-002  0.1250010E+03  0.7818608E-02  0.1235068E+00
          4   -1    0    0  501    0  0.00000000000E+00  0.00000000000E+00  0.27260306235E+02  0.27289873507E+02  0.12700000000E+01 0. -1.
         -4   -1    0    0    0  501 -0.00000000000E+00 -0.00000000000E+00 -0.14318668417E+03  0.14319231622E+03  0.12700000000E+01 0. -1.
         25    2    1    2    0    0  0.00000000000E+00  0.00000000000E+00 -0.11592637794E+03  0.17048218973E+03  0.12500100764E+03 0.  0.
    9000005    1    3    3    0    0 -0.61227088079E+02 -0.42135565248E+01 -0.74031280949E+02  0.96167254989E+02  0.10000000000E+01 0.  0.
    9000005    1    3    3    0    0  0.61227088079E+02  0.42135565248E+01 -0.41895096990E+02  0.74314934738E+02  0.10000000000E+01 0.  0.
<mgrwt>
<rscale>  0 0.12500101E+03</rscale>
<asrwt>0</asrwt>
<pdfrwt beam="1">  1        4 0.41966010E-02 0.12500101E+03</pdfrwt>
<pdfrwt beam="2">  1       -4 0.22031428E-01 0.12500101E+03</pdfrwt>
<totfact> 0.95356683E+03</totfact>
</mgrwt>
</event>
<event>
 5    1  0.3309811E-002  0.1249998E+03  0.7818608E-02  0.1235070E+00
          4   -1    0    0  501    0  0.00000000000E+00  0.00000000000E+00  0.23877390943E+03  0.23877728687E+03  0.12700000000E+01 0. -1.
         -4   -1    0    0    0  501 -0.00000000000E+00 -0.00000000000E+00 -0.16331421727E+02  0.16380727567E+02  0.12700000000E+01 0. -1.
         25    2    1    2    0    0  0.00000000000E+00  0.00000000000E+00  0.22244248770E+03  0.25515801444E+03  0.12499980798E+03 0.  0.
    9000005    1    3    3    0    0 -0.88574475971E+01 -0.53193900870E+02  0.17568110662E+03  0.18377403705E+03  0.10000000000E+01 0.  0.
    9000005    1    3    3    0    0  0.88574475971E+01  0.53193900870E+02  0.46761381081E+02  0.71383977393E+02  0.10000000000E+01 0.  0.
<mgrwt>
<rscale>  0 0.12499981E+03</rscale>
<asrwt>0</asrwt>
<pdfrwt beam="1">  1        4 0.36738498E-01 0.12499981E+03</pdfrwt>
<pdfrwt beam="2">  1       -4 0.25165791E-02 0.12499981E+03</pdfrwt>
<totfact> 0.81590753E+03</totfact>
</mgrwt>
</event>
<event>
 5    1  0.3309811E-002  0.1250006E+03  0.7818608E-02  0.1235068E+00
          4   -1    0    0  501    0  0.00000000000E+00  0.00000000000E+00  0.10047490647E+02  0.10127436413E+02  0.12700000000E+01 0.  1.
         -4   -1    0    0    0  501 -0.00000000000E+00 -0.00000000000E+00 -0.38716072223E+03  0.38716280521E+03  0.12700000000E+01 0.  1.
         25    2    1    2    0    0  0.00000000000E+00  0.00000000000E+00 -0.37711323158E+03  0.39729024162E+03  0.12500058661E+03 0.  0.
    9000005    1    3    3    0    0  0.30097610872E+02  0.40353299590E+02 -0.70872026986E+02  0.86937329019E+02  0.10000000000E+01 0.  0.
    9000005    1    3    3    0    0 -0.30097610872E+02 -0.40353299590E+02 -0.30624120459E+03  0.31035291260E+03  0.10000000000E+01 0.  0.
<mgrwt>
<rscale>  0 0.12500059E+03</rscale>
<asrwt>0</asrwt>
<pdfrwt beam="1">  1        4 0.15520780E-02 0.12500059E+03</pdfrwt>
<pdfrwt beam="2">  1       -4 0.59569487E-01 0.12500059E+03</pdfrwt>
<totfact> 0.64816359E+03</totfact>
</mgrwt>
</event>
<event>
 5    1  0.3309811E-002  0.1249985E+03  0.7818608E-02  0.1235072E+00
          4   -1    0    0  501    0  0.00000000000E+00  0.00000000000E+00  0.19976046289E+03  0.19976449994E+03  0.12700000000E+01 0.  1.
         -4   -1    0    0    0  501 -0.00000000000E+00 -0.00000000000E+00 -0.19529326962E+02  0.19570577702E+02  0.12700000000E+01 0.  1.
         25    2    1    2    0    0  0.00000000000E+00  0.00000000000E+00  0.18023113593E+03  0.21933507764E+03  0.12499845569E+03 0.  0.
    9000005    1    3    3    0    0 -0.35519072234E+02  0.22038216579E+02  0.17162646661E+03  0.17664634591E+03  0.10000000000E+01 0.  0.
    9000005    1    3    3    0    0  0.35519072234E+02 -0.22038216579E+02  0.86046693173E+01  0.42688731726E+02  0.10000000000E+01 0.  0.
<mgrwt>
<rscale>  0 0.12499846E+03</rscale>
<asrwt>0</asrwt>
<pdfrwt beam="1">  1        4 0.30735863E-01 0.12499846E+03</pdfrwt>
<pdfrwt beam="2">  1       -4 0.30079955E-02 0.12499846E+03</pdfrwt>
<totfact> 0.86976674E+03</totfact>
</mgrwt>
</event>
<event>
 5    1  0.3309811E-002  0.1250005E+03  0.7818608E-02  0.1235068E+00
         -4   -1    0    0    0  501 -0.00000000000E+00  0.00000000000E+00  0.21260073880E+03  0.21260453203E+03  0.12700000000E+01 0.  1.
          4   -1    0    0  501    0  0.00000000000E+00 -0.00000000000E+00 -0.18347888142E+02  0.18391788909E+02  0.12700000000E+01 0.  1.
         25    2    1    2    0    0  0.00000000000E+00  0.00000000000E+00  0.19425285066E+03  0.23099632093E+03  0.12500052119E+03 0.  0.
    9000005    1    3    3    0    0 -0.10318351781E+02  0.19375436641E+01 -0.16715588327E+02  0.19764446667E+02  0.10000000000E+01 0.  0.
    9000005    1    3    3    0    0  0.10318351781E+02 -0.19375436641E+01  0.21096843898E+03  0.21123187427E+03  0.10000000000E+01 0.  0.
<mgrwt>
<rscale>  0 0.12500052E+03</rscale>
<asrwt>0</asrwt>
<pdfrwt beam="2">  1        4 0.28264206E-02 0.12500052E+03</pdfrwt>
<pdfrwt beam="1">  1       -4 0.32711477E-01 0.12500052E+03</pdfrwt>
<totfact> 0.85155852E+03</totfact>
</mgrwt>
</event>
<event>
 5    1  0.3309811E-002  0.1249991E+03  0.7818608E-02  0.1235071E+00
          4   -1    0    0  501    0  0.00000000000E+00  0.00000000000E+00  0.37529635296E+03  0.37529850178E+03  0.12700000000E+01 0.  1.
         -4   -1    0    0    0  501 -0.00000000000E+00 -0.00000000000E+00 -0.10367355686E+02  0.10444853466E+02  0.12700000000E+01 0.  1.
         25    2    1    2    0    0  0.00000000000E+00  0.00000000000E+00  0.36492899727E+03  0.38574335525E+03  0.12499905228E+03 0.  0.
    9000005    1    3    3    0    0 -0.24032551820E+02  0.56192481687E+02  0.22270444096E+03  0.23094030954E+03  0.10000000000E+01 0.  0.
    9000005    1    3    3    0    0  0.24032551820E+02 -0.56192481687E+02  0.14222455631E+03  0.15480304571E+03  0.10000000000E+01 0.  0.
<mgrwt>
<rscale>  0 0.12499905E+03</rscale>
<asrwt>0</asrwt>
<pdfrwt beam="1">  1        4 0.57744027E-01 0.12499905E+03</pdfrwt>
<pdfrwt beam="2">  1       -4 0.16011044E-02 0.12499905E+03</pdfrwt>
<totfact> 0.65964779E+03</totfact>
</mgrwt>
</event>
<event>
 5    1  0.3309811E-002  0.1249980E+03  0.7818608E-02  0.1235072E+00
         -4   -1    0    0    0  501 -0.00000000000E+00  0.00000000000E+00  0.61640636971E+03  0.61640767802E+03  0.12700000000E+01 0. -1.
          4   -1    0    0  501    0  0.00000000000E+00 -0.00000000000E+00 -0.62719706033E+01  0.63992589609E+01  0.12700000000E+01 0. -1.
         25    2    1    2    0    0  0.00000000000E+00  0.00000000000E+00  0.61013439911E+03  0.62280693698E+03  0.12499798308E+03 0.  0.
    9000005    1    3    3    0    0  0.42982168661E+02 -0.45235423819E+02  0.28823422510E+03  0.29491300227E+03  0.10000000000E+01 0.  0.
    9000005    1    3    3    0    0 -0.42982168661E+02  0.45235423819E+02  0.32190017401E+03  0.32789393471E+03  0.10000000000E+01 0.  0.
<mgrwt>
<rscale>  0 0.12499798E+03</rscale>
<asrwt>0</asrwt>
<pdfrwt beam="2">  1        4 0.97481097E-03 0.12499798E+03</pdfrwt>
<pdfrwt beam="1">  1       -4 0.94841606E-01 0.12499798E+03</pdfrwt>
<totfact> 0.47461018E+03</totfact>
</mgrwt>
</event>
<event>
 5    1  0.3309811E-002  0.1250011E+03  0.7818608E-02  0.1235068E+00
         -4   -1    0    0    0  501 -0.00000000000E+00  0.00000000000E+00  0.20671037980E+03  0.20671428112E+03  0.12700000000E+01 0.  1.
          4   -1    0    0  501    0  0.00000000000E+00 -0.00000000000E+00 -0.18872113552E+02  0.18914797644E+02  0.12700000000E+01 0.  1.
         25    2    1    2    0    0  0.00000000000E+00  0.00000000000E+00  0.18783826625E+03  0.22562907876E+03  0.12500106765E+03 0.  0.
    9000005    1    3    3    0    0  0.57529815255E+02  0.13677090045E+02  0.57433921731E+02  0.82440268078E+02  0.10000000000E+01 0.  0.
    9000005    1    3    3    0    0 -0.57529815255E+02 -0.13677090045E+02  0.13040434452E+03  0.14318881068E+03  0.10000000000E+01 0.  0.
<mgrwt>
<rscale>  0 0.12500107E+03</rscale>
<asrwt>0</asrwt>
<pdfrwt beam="2">  1        4 0.29069856E-02 0.12500107E+03</pdfrwt>
<pdfrwt beam="1">  1       -4 0.31805180E-01 0.12500107E+03</pdfrwt>
<totfact> 0.85983257E+03</totfact>
</mgrwt>
</event>
<event>
 5    1  0.3309811E-002  0.1249993E+03  0.7818608E-02  0.1235070E+00
         -4   -1    0    0    0  501 -0.00000000000E+00  0.00000000000E+00  0.24413197483E+02  0.24446208527E+02  0.12700000000E+01 0. -1.
          4   -1    0    0  501    0  0.00000000000E+00 -0.00000000000E+00 -0.15986015329E+03  0.15986519794E+03  0.12700000000E+01 0. -1.
         25    2    1    2    0    0  0.00000000000E+00  0.00000000000E+00 -0.13544695581E+03  0.18431140646E+03  0.12499926686E+03 0.  0.
    9000005    1    3    3    0    0 -0.36885094585E+02  0.45759564606E+02 -0.36418340595E+02  0.69150151751E+02  0.10000000000E+01 0.  0.
    9000005    1    3    3    0    0  0.36885094585E+02 -0.45759564606E+02 -0.99028615216E+02  0.11516125471E+03  0.10000000000E+01 0.  0.
<mgrwt>
<rscale>  0 0.12499927E+03</rscale>
<asrwt>0</asrwt>
<pdfrwt beam="2">  1        4 0.24596796E-01 0.12499927E+03</pdfrwt>
<pdfrwt beam="1">  1       -4 0.37588040E-02 0.12499927E+03</pdfrwt>
<totfact> 0.92848168E+03</totfact>
</mgrwt>
</event>
<event>
 5    1  0.3309811E-002  0.1249986E+03  0.7818608E-02  0.1235071E+00
         -4   -1    0    0    0  501 -0.00000000000E+00  0.00000000000E+00  0.28203062422E+03  0.28203348364E+03  0.12700000000E+01 0. -1.
          4   -1    0    0  501    0  0.00000000000E+00 -0.00000000000E+00 -0.13818095422E+02  0.13876334570E+02  0.12700000000E+01 0. -1.
         25    2    1    2    0    0  0.00000000000E+00  0.00000000000E+00  0.26821252880E+03  0.29590981821E+03  0.12499863964E+03 0.  0.
    9000005    1    3    3    0    0  0.57330044685E+02  0.81698577071E+01  0.18970941909E+03  0.19835358401E+03  0.10000000000E+01 0.  0.
    9000005    1    3    3    0    0 -0.57330044685E+02 -0.81698577071E+01  0.78503109708E+02  0.97556234206E+02  0.10000000000E+01 0.  0.
<mgrwt>
<rscale>  0 0.12499864E+03</rscale>
<asrwt>0</asrwt>
<pdfrwt beam="2">  1        4 0.21305610E-02 0.12499864E+03</pdfrwt>
<pdfrwt beam="1">  1       -4 0.43394022E-01 0.12499864E+03</pdfrwt>
<totfact> 0.76117086E+03</totfact>
</mgrwt>
</event>
<event>
 5    1  0.3309811E-002  0.1249705E+03  0.7818608E-02  0.1235115E+00
         -4   -1    0    0    0  501 -0.00000000000E+00  0.00000000000E+00  0.25842401204E+01  0.28794438699E+01  0.12700000000E+01 0.  1.
          4   -1    0    0  501    0  0.00000000000E+00 -0.00000000000E+00 -0.14289266295E+04  0.14289271938E+04  0.12700000000E+01 0.  1.
         25    2    1    2    0    0  0.00000000000E+00  0.00000000000E+00 -0.14263423893E+04  0.14318066377E+04  0.12497054112E+03 0.  0.
    9000005    1    3    3    0    0 -0.14763392044E+02  0.12070472181E+02 -0.13948241511E+04  0.13949548619E+04  0.10000000000E+01 0.  0.
    9000005    1    3    3    0    0  0.14763392044E+02 -0.12070472181E+02 -0.31518238215E+02  0.36851775853E+02  0.10000000000E+01 0.  0.
<mgrwt>
<rscale>  0 0.12497054E+03</rscale>
<asrwt>0</asrwt>
<pdfrwt beam="2">  1        4 0.21985702E+00 0.12497054E+03</pdfrwt>
<pdfrwt beam="1">  1       -4 0.42032794E-03 0.12497054E+03</pdfrwt>
<totfact> 0.19321007E+03</totfact>
</mgrwt>
</event>
<event>
 5    1  0.3309811E-002  0.1250009E+03  0.7818608E-02  0.1235068E+00
          4   -1    0    0  501    0  0.00000000000E+00  0.00000000000E+00  0.21206996454E+03  0.21207376726E+03  0.12700000000E+01 0.  1.
         -4   -1    0    0    0  501 -0.00000000000E+00 -0.00000000000E+00 -0.18394036106E+02  0.18437826994E+02  0.12700000000E+01 0.  1.
         25    2    1    2    0    0  0.00000000000E+00  0.00000000000E+00  0.19367592843E+03  0.23051159425E+03  0.12500091932E+03 0.  0.
    9000005    1    3    3    0    0 -0.41627051071E+02 -0.16263189481E+02  0.16287269104E+02  0.47577072712E+02  0.10000000000E+01 0.  0.
    9000005    1    3    3    0    0  0.41627051071E+02  0.16263189481E+02  0.17738865933E+03  0.18293452154E+03  0.10000000000E+01 0.  0.
<mgrwt>
<rscale>  0 0.12500092E+03</rscale>
<asrwt>0</asrwt>
<pdfrwt beam="1">  1        4 0.32629808E-01 0.12500092E+03</pdfrwt>
<pdfrwt beam="2">  1       -4 0.28335129E-02 0.12500092E+03</pdfrwt>
<totfact> 0.85229356E+03</totfact>
</mgrwt>
</event>
<event>
 5    1  0.3309811E-002  0.1249999E+03  0.7818608E-02  0.1235069E+00
         -4   -1    0    0    0  501 -0.00000000000E+00  0.00000000000E+00  0.32624310586E+01  0.35009079411E+01  0.12700000000E+01 0.  1.
          4   -1    0    0  501    0  0.00000000000E+00 -0.00000000000E+00 -0.11548836560E+04  0.11548843543E+04  0.12700000000E+01 0.  1.
         25    2    1    2    0    0  0.00000000000E+00  0.00000000000E+00 -0.11516212250E+04  0.11583852623E+04  0.12499988013E+03 0.  0.
    9000005    1    3    3    0    0  0.26687908124E+02  0.48273395088E+02 -0.84799777362E+03  0.84979043839E+03  0.10000000000E+01 0.  0.
    9000005    1    3    3    0    0 -0.26687908124E+02 -0.48273395088E+02 -0.30362345137E+03  0.30859482390E+03  0.10000000000E+01 0.  0.
<mgrwt>
<rscale>  0 0.12499988E+03</rscale>
<asrwt>0</asrwt>
<pdfrwt beam="2">  1        4 0.17769249E+00 0.12499988E+03</pdfrwt>
<pdfrwt beam="1">  1       -4 0.52031148E-03 0.12499988E+03</pdfrwt>
<totfact> 0.25828838E+03</totfact>
</mgrwt>
</event>
<event>
 5    1  0.3309811E-002  0.1250002E+03  0.7818608E-02  0.1235069E+00
          4   -1    0    0  501    0  0.00000000000E+00  0.00000000000E+00  0.26258150084E+03  0.26258457206E+03  0.12700000000E+01 0. -1.
         -4   -1    0    0    0  501 -0.00000000000E+00 -0.00000000000E+00 -0.14846121033E+02  0.14900342605E+02  0.12700000000E+01 0. -1.
         25    2    1    2    0    0  0.00000000000E+00  0.00000000000E+00  0.24773537981E+03  0.27748491466E+03  0.12500023783E+03 0.  0.
    9000005    1    3    3    0    0 -0.29522033777E+02  0.53971633289E+02  0.99471556901E+02  0.11696186691E+03  0.10000000000E+01 0.  0.
    9000005    1    3    3    0    0  0.29522033777E+02 -0.53971633289E+02  0.14826382290E+03  0.16052304776E+03  0.10000000000E+01 0.  0.
<mgrwt>
<rscale>  0 0.12500024E+03</rscale>
<asrwt>0</asrwt>
<pdfrwt beam="1">  1        4 0.40401554E-01 0.12500024E+03</pdfrwt>
<pdfrwt beam="2">  1       -4 0.22884262E-02 0.12500024E+03</pdfrwt>
<totfact> 0.78512363E+03</totfact>
</mgrwt>
</event>
<event>
 5    1  0.3309811E-002  0.1249971E+03  0.7818608E-02  0.1235074E+00
         -4   -1    0    0    0  501 -0.00000000000E+00  0.00000000000E+00  0.24204864313E+02  0.24238159097E+02  0.12700000000E+01 0. -1.
          4   -1    0    0  501    0  0.00000000000E+00 -0.00000000000E+00 -0.16122866102E+03  0.16123366285E+03  0.12700000000E+01 0. -1.
         25    2    1    2    0    0  0.00000000000E+00  0.00000000000E+00 -0.13702379671E+03  0.18547182194E+03  0.12499710345E+03 0.  0.
    9000005    1    3    3    0    0 -0.10899540497E+02 -0.39923463496E+02 -0.13798816986E+03  0.14406393699E+03  0.10000000000E+01 0.  0.
    9000005    1    3    3    0    0  0.10899540497E+02  0.39923463496E+02  0.96437314929E+00  0.41407884952E+02  0.10000000000E+01 0.  0.
<mgrwt>
<rscale>  0 0.12499710E+03</rscale>
<asrwt>0</asrwt>
<pdfrwt beam="2">  1        4 0.24807355E-01 0.12499710E+03</pdfrwt>
<pdfrwt beam="1">  1       -4 0.37267713E-02 0.12499710E+03</pdfrwt>
<totfact> 0.92647241E+03</totfact>
</mgrwt>
</event>
<event>
 5    1  0.3309811E-002  0.1250003E+03  0.7818608E-02  0.1235069E+00
          4   -1    0    0  501    0  0.00000000000E+00  0.00000000000E+00  0.32344598560E+02  0.32369522023E+02  0.12700000000E+01 0. -1.
         -4   -1    0    0    0  501 -0.00000000000E+00 -0.00000000000E+00 -0.12069564699E+03  0.12070232849E+03  0.12700000000E+01 0. -1.
         25    2    1    2    0    0  0.00000000000E+00  0.00000000000E+00 -0.88351048431E+02  0.15307185051E+03  0.12500033464E+03 0.  0.
    9000005    1    3    3    0    0  0.56356334820E+02 -0.22382310402E+02 -0.25674091417E+02  0.65857142843E+02  0.10000000000E+01 0.  0.
    9000005    1    3    3    0    0 -0.56356334820E+02  0.22382310402E+02 -0.62676957014E+02  0.87214707670E+02  0.10000000000E+01 0.  0.
<mgrwt>
<rscale>  0 0.12500033E+03</rscale>
<asrwt>0</asrwt>
<pdfrwt beam="1">  1        4 0.49785233E-02 0.12500033E+03</pdfrwt>
<pdfrwt beam="2">  1       -4 0.18570992E-01 0.12500033E+03</pdfrwt>
<totfact> 0.98694115E+03</totfact>
</mgrwt>
</event>
<event>
 5    1  0.3309811E-002  0.1249994E+03  0.7818608E-02  0.1235070E+00
          4   -1    0    0  501    0  0.00000000000E+00  0.00000000000E+00  0.19027288744E+03  0.19027712578E+03  0.12700000000E+01 0. -1.
         -4   -1    0    0    0  501 -0.00000000000E+00 -0.00000000000E+00 -0.20505421692E+02  0.20544712671E+02  0.12700000000E+01 0. -1.
         25    2    1    2    0    0  0.00000000000E+00  0.00000000000E+00  0.16976746575E+03  0.21082183845E+03  0.12499942056E+03 0.  0.
    9000005    1    3    3    0    0 -0.16360529708E+02  0.19757134510E+02  0.18099233974E+03  0.18280382474E+03  0.10000000000E+01 0.  0.
    9000005    1    3    3    0    0  0.16360529708E+02 -0.19757134510E+02 -0.11224873986E+02  0.28018013712E+02  0.10000000000E+01 0.  0.
<mgrwt>
<rscale>  0 0.12499942E+03</rscale>
<asrwt>0</asrwt>
<pdfrwt beam="1">  1        4 0.29276100E-01 0.12499942E+03</pdfrwt>
<pdfrwt beam="2">  1       -4 0.31580287E-02 0.12499942E+03</pdfrwt>
<totfact> 0.88342984E+03</totfact>
</mgrwt>
</event>
<event>
 5    1  0.3309811E-002  0.1249996E+03  0.7818608E-02  0.1235070E+00
         -4   -1    0    0    0  501 -0.00000000000E+00  0.00000000000E+00  0.61073730462E+03  0.61073862507E+03  0.12700000000E+01 0.  1.
          4   -1    0    0  501    0  0.00000000000E+00 -0.00000000000E+00 -0.63315353675E+01  0.64576497358E+01  0.12700000000E+01 0.  1.
         25    2    1    2    0    0  0.00000000000E+00  0.00000000000E+00  0.60440576925E+03  0.61719627481E+03  0.12499963092E+03 0.  0.
    9000005    1    3    3    0    0 -0.24537526713E+02 -0.57418205597E+02  0.31458272173E+03  0.32072142018E+03  0.10000000000E+01 0.  0.
    9000005    1    3    3    0    0  0.24537526713E+02  0.57418205597E+02  0.28982304752E+03  0.29647485462E+03  0.10000000000E+01 0.  0.
<mgrwt>
<rscale>  0 0.12499963E+03</rscale>
<asrwt>0</asrwt>
<pdfrwt beam="2">  1        4 0.98388488E-03 0.12499963E+03</pdfrwt>
<pdfrwt beam="1">  1       -4 0.93969403E-01 0.12499963E+03</pdfrwt>
<totfact> 0.47800197E+03</totfact>
</mgrwt>
</event>
<event>
 5    1  0.3309811E-002  0.1249978E+03  0.7818608E-02  0.1235073E+00
          4   -1    0    0  501    0  0.00000000000E+00  0.00000000000E+00  0.25060855964E+01  0.28095133059E+01  0.12700000000E+01 0.  1.
         -4   -1    0    0    0  501 -0.00000000000E+00 -0.00000000000E+00 -0.14693765680E+04  0.14693771169E+04  0.12700000000E+01 0.  1.
         25    2    1    2    0    0  0.00000000000E+00  0.00000000000E+00 -0.14668704824E+04  0.14721866302E+04  0.12499784729E+03 0.  0.
    9000005    1    3    3    0    0  0.38722860098E+02  0.10123200797E+02 -0.16820689504E+03  0.17290603988E+03  0.10000000000E+01 0.  0.
    9000005    1    3    3    0    0 -0.38722860098E+02 -0.10123200797E+02 -0.12986635874E+04  0.12992805903E+04  0.10000000000E+01 0.  0.
<mgrwt>
<rscale>  0 0.12499785E+03</rscale>
<asrwt>0</asrwt>
<pdfrwt beam="1">  1        4 0.40893562E-03 0.12499785E+03</pdfrwt>
<pdfrwt beam="2">  1       -4 0.22608067E+00 0.12499785E+03</pdfrwt>
<totfact> 0.18483800E+03</totfact>
</mgrwt>
</event>
<event>
 5    1  0.3309811E-002  0.1249977E+03  0.7818608E-02  0.1235073E+00
         -4   -1    0    0    0  501 -0.00000000000E+00  0.00000000000E+00  0.58608898285E+01  0.59969100028E+01  0.12700000000E+01 0.  1.
          4   -1    0    0  501    0  0.00000000000E+00 -0.00000000000E+00 -0.65868835465E+03  0.65868957897E+03  0.12700000000E+01 0.  1.
         25    2    1    2    0    0  0.00000000000E+00  0.00000000000E+00 -0.65282746482E+03  0.66468648898E+03  0.12499771920E+03 0.  0.
    9000005    1    3    3    0    0  0.45984909171E+02  0.12434985877E+01 -0.55132632802E+03  0.55324305520E+03  0.10000000000E+01 0.  0.
    9000005    1    3    3    0    0 -0.45984909171E+02 -0.12434985877E+01 -0.10150113680E+03  0.11144343378E+03  0.10000000000E+01 0.  0.
<mgrwt>
<rscale>  0 0.12499772E+03</rscale>
<asrwt>0</asrwt>
<pdfrwt beam="2">  1        4 0.10134717E+00 0.12499772E+03</pdfrwt>
<pdfrwt beam="1">  1       -4 0.91223315E-03 0.12499772E+03</pdfrwt>
<totfact> 0.45019745E+03</totfact>
</mgrwt>
</event>
<event>
 5    1  0.3309811E-002  0.1250014E+03  0.7818608E-02  0.1235067E+00
         -4   -1    0    0    0  501 -0.00000000000E+00  0.00000000000E+00  0.74634736700E+01  0.75707555253E+01  0.12700000000E+01 0.  1.
          4   -1    0    0  501    0  0.00000000000E+00 -0.00000000000E+00 -0.51955076215E+03  0.51955231435E+03  0.12700000000E+01 0.  1.
         25    2    1    2    0    0  0.00000000000E+00  0.00000000000E+00 -0.51208728848E+03  0.52712306988E+03  0.12500135910E+03 0.  0.
    9000005    1    3    3    0    0  0.47726931637E+02 -0.40168196806E+02 -0.24027042983E+03  0.24823823938E+03  0.10000000000E+01 0.  0.
    9000005    1    3    3    0    0 -0.47726931637E+02  0.40168196806E+02 -0.27181685864E+03  0.27888483050E+03  0.10000000000E+01 0.  0.
<mgrwt>
<rscale>  0 0.12500136E+03</rscale>
<asrwt>0</asrwt>
<pdfrwt beam="2">  1        4 0.79939230E-01 0.12500136E+03</pdfrwt>
<pdfrwt beam="1">  1       -4 0.11565990E-02 0.12500136E+03</pdfrwt>
<totfact> 0.53818099E+03</totfact>
</mgrwt>
</event>
<event>
 5    1  0.3309811E-002  0.1250013E+03  0.7818608E-02  0.1235067E+00
         -4   -1    0    0    0  501 -0.00000000000E+00  0.00000000000E+00  0.23571291667E+02  0.23605480103E+02  0.12700000000E+01 0.  1.
          4   -1    0    0  501    0  0.00000000000E+00 -0.00000000000E+00 -0.16556749414E+03  0.16557236489E+03  0.12700000000E+01 0.  1.
         25    2    1    2    0    0  0.00000000000E+00  0.00000000000E+00 -0.14199620248E+03  0.18917784500E+03  0.12500134207E+03 0.  0.
    9000005    1    3    3    0    0 -0.40652434124E+02 -0.43407787335E+02 -0.41947102166E+02  0.72783348245E+02  0.10000000000E+01 0.  0.
    9000005    1    3    3    0    0  0.40652434124E+02  0.43407787335E+02 -0.10004910031E+03  0.11639449675E+03  0.10000000000E+01 0.  0.
<mgrwt>
<rscale>  0 0.12500134E+03</rscale>
<asrwt>0</asrwt>
<pdfrwt beam="2">  1        4 0.25474926E-01 0.12500134E+03</pdfrwt>
<pdfrwt beam="1">  1       -4 0.36293572E-02 0.12500134E+03</pdfrwt>
<totfact> 0.91987798E+03</totfact>
</mgrwt>
</event>
<event>
 5    1  0.3309811E-002  0.1250003E+03  0.7818608E-02  0.1235069E+00
          4   -1    0    0  501    0  0.00000000000E+00  0.00000000000E+00  0.16949546766E+02  0.16997059616E+02  0.12700000000E+01 0.  1.
         -4   -1    0    0    0  501 -0.00000000000E+00 -0.00000000000E+00 -0.23009256861E+03  0.23009607348E+03  0.12700000000E+01 0.  1.
         25    2    1    2    0    0  0.00000000000E+00  0.00000000000E+00 -0.21314302184E+03  0.24709313309E+03  0.12500027464E+03 0.  0.
    9000005    1    3    3    0    0  0.59409785803E+02 -0.17642002110E+02 -0.12244761608E+03  0.13724132603E+03  0.10000000000E+01 0.  0.
    9000005    1    3    3    0    0 -0.59409785803E+02  0.17642002110E+02 -0.90695405769E+02  0.10985180706E+03  0.10000000000E+01 0.  0.
<mgrwt>
<rscale>  0 0.12500027E+03</rscale>
<asrwt>0</asrwt>
<pdfrwt beam="1">  1        4 0.26115472E-02 0.12500027E+03</pdfrwt>
<pdfrwt beam="2">  1       -4 0.35402779E-01 0.12500027E+03</pdfrwt>
<totfact> 0.82751678E+03</totfact>
</mgrwt>
</event>
<event>
 5    1  0.3309811E-002  0.1249996E+03  0.7818608E-02  0.1235070E+00
         -4   -1    0    0    0  501 -0.00000000000E+00  0.00000000000E+00  0.15152010644E+02  0.15205141451E+02  0.12700000000E+01 0. -1.
          4   -1    0    0  501    0  0.00000000000E+00 -0.00000000000E+00 -0.25729642317E+03  0.25729955747E+03  0.12700000000E+01 0. -1.
         25    2    1    2    0    0  0.00000000000E+00  0.00000000000E+00 -0.24214441252E+03  0.27250469892E+03  0.12499957767E+03 0.  0.
    9000005    1    3    3    0    0  0.53268155460E+02 -0.92777404601E+01 -0.18937586241E+03  0.19694616046E+03  0.10000000000E+01 0.  0.
    9000005    1    3    3    0    0 -0.53268155460E+02  0.92777404601E+01 -0.52768550110E+02  0.75558538465E+02  0.10000000000E+01 0.  0.
<mgrwt>
<rscale>  0 0.12499958E+03</rscale>
<asrwt>0</asrwt>
<pdfrwt beam="2">  1        4 0.39588390E-01 0.12499958E+03</pdfrwt>
<pdfrwt beam="1">  1       -4 0.23354068E-02 0.12499958E+03</pdfrwt>
<totfact> 0.79183286E+03</totfact>
</mgrwt>
</event>
<event>
 5    1  0.3309811E-002  0.1250028E+03  0.7818608E-02  0.1235065E+00
         -4   -1    0    0    0  501 -0.00000000000E+00  0.00000000000E+00  0.58621922513E+03  0.58622060081E+03  0.12700000000E+01 0.  1.
          4   -1    0    0  501    0  0.00000000000E+00 -0.00000000000E+00 -0.66018527552E+01  0.67228981698E+01  0.12700000000E+01 0.  1.
         25    2    1    2    0    0  0.00000000000E+00  0.00000000000E+00  0.57961737237E+03  0.59294349898E+03  0.12500277846E+03 0.  0.
    9000005    1    3    3    0    0 -0.55428476140E+02 -0.27951009539E+02  0.25565301629E+03  0.26308371223E+03  0.10000000000E+01 0.  0.
    9000005    1    3    3    0    0  0.55428476140E+02  0.27951009539E+02  0.32396435608E+03  0.32985978675E+03  0.10000000000E+01 0.  0.
<mgrwt>
<rscale>  0 0.12500278E+03</rscale>
<asrwt>0</asrwt>
<pdfrwt beam="2">  1        4 0.10250868E-02 0.12500278E+03</pdfrwt>
<pdfrwt beam="1">  1       -4 0.90196981E-01 0.12500278E+03</pdfrwt>
<totfact> 0.49313086E+03</totfact>
</mgrwt>
</event>
<event>
 4    1  0.3309811E-002  0.1248915E+03  0.7818608E-02  0.1235239E+00
         -4   -1    0    0    0  501 -0.00000000000E+00  0.00000000000E+00  0.57615035237E+02  0.57629030751E+02  0.12700000000E+01 0. -1.
          4   -1    0    0  501    0  0.00000000000E+00 -0.00000000000E+00 -0.67653304758E+02  0.67665224043E+02  0.12700000000E+01 0. -1.
    9000005    1    1    2    0    0  0.18393002702E+02  0.39773412997E+02  0.39601756731E+02  0.59072210607E+02  0.10000000000E+01 0.  0.
    9000005    1    1    2    0    0 -0.18393002702E+02 -0.39773412997E+02 -0.49640026253E+02  0.66222044187E+02  0.10000000000E+01 0.  0.
<mgrwt>
<rscale>  0 0.12489149E+03</rscale>
<asrwt>0</asrwt>
<pdfrwt beam="2">  1        4 0.10410194E-01 0.12489149E+03</pdfrwt>
<pdfrwt beam="1">  1       -4 0.88658450E-02 0.12489149E+03</pdfrwt>
<totfact> 0.10472114E+04</totfact>
</mgrwt>
</event>
<event>
 5    1  0.3309811E-002  0.1249961E+03  0.7818608E-02  0.1235075E+00
          4   -1    0    0  501    0  0.00000000000E+00  0.00000000000E+00  0.45130917491E+02  0.45148783079E+02  0.12700000000E+01 0. -1.
         -4   -1    0    0    0  501 -0.00000000000E+00 -0.00000000000E+00 -0.86508734372E+02  0.86518056050E+02  0.12700000000E+01 0. -1.
         25    2    1    2    0    0  0.00000000000E+00  0.00000000000E+00 -0.41377816881E+02  0.13166683913E+03  0.12499613113E+03 0.  0.
    9000005    1    3    3    0    0  0.60249979648E+02  0.16406904580E+02 -0.18160468421E+02  0.65038828240E+02  0.10000000000E+01 0.  0.
    9000005    1    3    3    0    0 -0.60249979648E+02 -0.16406904580E+02 -0.23217348460E+02  0.66628010889E+02  0.10000000000E+01 0.  0.
<mgrwt>
<rscale>  0 0.12499613E+03</rscale>
<asrwt>0</asrwt>
<pdfrwt beam="1">  1        4 0.69453094E-02 0.12499613E+03</pdfrwt>
<pdfrwt beam="2">  1       -4 0.13311127E-01 0.12499613E+03</pdfrwt>
<totfact> 0.10309714E+04</totfact>
</mgrwt>
</event>
<event>
 5    1  0.3309811E-002  0.1249980E+03  0.7818608E-02  0.1235072E+00
         -4   -1    0    0    0  501 -0.00000000000E+00  0.00000000000E+00  0.60111227567E+03  0.60111361727E+03  0.12700000000E+01 0.  1.
          4   -1    0    0  501    0  0.00000000000E+00 -0.00000000000E+00 -0.64347508234E+01  0.65588808618E+01  0.12700000000E+01 0.  1.
         25    2    1    2    0    0  0.00000000000E+00  0.00000000000E+00  0.59467752485E+03  0.60767249813E+03  0.12499802567E+03 0.  0.
    9000005    1    3    3    0    0 -0.33727746232E+02  0.32486885981E+02  0.49849782980E+03  0.50069356391E+03  0.10000000000E+01 0.  0.
    9000005    1    3    3    0    0  0.33727746232E+02 -0.32486885981E+02  0.96179695047E+02  0.10697893422E+03  0.10000000000E+01 0.  0.
<mgrwt>
<rscale>  0 0.12499803E+03</rscale>
<asrwt>0</asrwt>
<pdfrwt beam="2">  1        4 0.99961349E-03 0.12499803E+03</pdfrwt>
<pdfrwt beam="1">  1       -4 0.92488448E-01 0.12499803E+03</pdfrwt>
<totfact> 0.48388954E+03</totfact>
</mgrwt>
</event>
<event>
 5    1  0.3309811E-002  0.1250048E+03  0.7818608E-02  0.1235062E+00
         -4   -1    0    0    0  501 -0.00000000000E+00  0.00000000000E+00  0.45602760783E+02  0.45620441592E+02  0.12700000000E+01 0. -1.
          4   -1    0    0  501    0  0.00000000000E+00 -0.00000000000E+00 -0.85625734784E+02  0.85635152580E+02  0.12700000000E+01 0. -1.
         25    2    1    2    0    0  0.00000000000E+00  0.00000000000E+00 -0.40022974001E+02  0.13125559417E+03  0.12500477012E+03 0.  0.
    9000005    1    3    3    0    0 -0.26879968265E+02  0.32725456289E+02 -0.68266713415E+02  0.80341971247E+02  0.10000000000E+01 0.  0.
    9000005    1    3    3    0    0  0.26879968265E+02 -0.32725456289E+02  0.28243739415E+02  0.50913622925E+02  0.10000000000E+01 0.  0.
<mgrwt>
<rscale>  0 0.12500477E+03</rscale>
<asrwt>0</asrwt>
<pdfrwt beam="2">  1        4 0.13175274E-01 0.12500477E+03</pdfrwt>
<pdfrwt beam="1">  1       -4 0.70178939E-02 0.12500477E+03</pdfrwt>
<totfact> 0.10316503E+04</totfact>
</mgrwt>
</event>
<event>
 5    1  0.3309811E-002  0.1250005E+03  0.7818608E-02  0.1235069E+00
          4   -1    0    0  501    0  0.00000000000E+00  0.00000000000E+00  0.77372278360E+01  0.78407649235E+01  0.12700000000E+01 0.  1.
         -4   -1    0    0    0  501 -0.00000000000E+00 -0.00000000000E+00 -0.50140835477E+03  0.50140996313E+03  0.12700000000E+01 0.  1.
         25    2    1    2    0    0  0.00000000000E+00  0.00000000000E+00 -0.49367112693E+03  0.50925072806E+03  0.12500048985E+03 0.  0.
    9000005    1    3    3    0    0 -0.51669358799E-02 -0.22399578527E+02 -0.48451156869E+03  0.48503010354E+03  0.10000000000E+01 0.  0.
    9000005    1    3    3    0    0  0.51669358799E-02  0.22399578527E+02 -0.91595582412E+01  0.24220624519E+02  0.10000000000E+01 0.  0.
<mgrwt>
<rscale>  0 0.12500049E+03</rscale>
<asrwt>0</asrwt>
<pdfrwt beam="1">  1        4 0.11984312E-02 0.12500049E+03</pdfrwt>
<pdfrwt beam="2">  1       -4 0.77147810E-01 0.12500049E+03</pdfrwt>
<totfact> 0.55153117E+03</totfact>
</mgrwt>
</event>
<event>
 5    1  0.3309811E-002  0.1249970E+03  0.7818608E-02  0.1235074E+00
          4   -1    0    0  501    0  0.00000000000E+00  0.00000000000E+00  0.96366392214E+02  0.96374760432E+02  0.12700000000E+01 0. -1.
         -4   -1    0    0    0  501 -0.00000000000E+00 -0.00000000000E+00 -0.40513355115E+02  0.40533256009E+02  0.12700000000E+01 0. -1.
         25    2    1    2    0    0  0.00000000000E+00  0.00000000000E+00  0.55853037099E+02  0.13690801644E+03  0.12499697281E+03 0.  0.
    9000005    1    3    3    0    0  0.59628368458E+02  0.17342324207E+02  0.35574931660E+02  0.71574257219E+02  0.10000000000E+01 0.  0.
    9000005    1    3    3    0    0 -0.59628368458E+02 -0.17342324207E+02  0.20278105439E+02  0.65333759221E+02  0.10000000000E+01 0.  0.
<mgrwt>
<rscale>  0 0.12499697E+03</rscale>
<asrwt>0</asrwt>
<pdfrwt beam="1">  1        4 0.14827773E-01 0.12499697E+03</pdfrwt>
<pdfrwt beam="2">  1       -4 0.62349985E-02 0.12499697E+03</pdfrwt>
<totfact> 0.10198706E+04</totfact>
</mgrwt>
</event>
<event>
 5    1  0.3309811E-002  0.1249941E+03  0.7818608E-02  0.1235079E+00
          4   -1    0    0  501    0  0.00000000000E+00  0.00000000000E+00  0.25847016383E+03  0.25847328390E+03  0.12700000000E+01 0.  1.
         -4   -1    0    0    0  501 -0.00000000000E+00 -0.00000000000E+00 -0.15081635935E+02  0.15135013791E+02  0.12700000000E+01 0.  1.
         25    2    1    2    0    0  0.00000000000E+00  0.00000000000E+00  0.24338852789E+03  0.27360829769E+03  0.12499410008E+03 0.  0.
    9000005    1    3    3    0    0  0.11744929926E+02  0.58945273200E+02  0.84263992458E+02  0.10350801436E+03  0.10000000000E+01 0.  0.
    9000005    1    3    3    0    0 -0.11744929926E+02 -0.58945273200E+02  0.15912453543E+03  0.17010028333E+03  0.10000000000E+01 0.  0.
<mgrwt>
<rscale>  0 0.12499410E+03</rscale>
<asrwt>0</asrwt>
<pdfrwt beam="1">  1        4 0.39768985E-01 0.12499410E+03</pdfrwt>
<pdfrwt beam="2">  1       -4 0.23245978E-02 0.12499410E+03</pdfrwt>
<totfact> 0.79043674E+03</totfact>
</mgrwt>
</event>
<event>
 5    1  0.3309811E-002  0.1249991E+03  0.7818608E-02  0.1235071E+00
         -4   -1    0    0    0  501 -0.00000000000E+00  0.00000000000E+00  0.18391333908E+02  0.18435131215E+02  0.12700000000E+01 0. -1.
          4   -1    0    0  501    0  0.00000000000E+00 -0.00000000000E+00 -0.21209471676E+03  0.21209851904E+03  0.12700000000E+01 0. -1.
         25    2    1    2    0    0  0.00000000000E+00  0.00000000000E+00 -0.19370338285E+03  0.23053365025E+03  0.12499905347E+03 0.  0.
    9000005    1    3    3    0    0  0.60588605933E+01  0.36416737387E+02 -0.18984275110E+03  0.19340154782E+03  0.10000000000E+01 0.  0.
    9000005    1    3    3    0    0 -0.60588605933E+01 -0.36416737387E+02 -0.38606317541E+01  0.37132102434E+02  0.10000000000E+01 0.  0.
<mgrwt>
<rscale>  0 0.12499905E+03</rscale>
<asrwt>0</asrwt>
<pdfrwt beam="2">  1        4 0.32633616E-01 0.12499905E+03</pdfrwt>
<pdfrwt beam="1">  1       -4 0.28330976E-02 0.12499905E+03</pdfrwt>
<totfact> 0.85229522E+03</totfact>
</mgrwt>
</event>
<event>
 5    1  0.3309811E-002  0.1250034E+03  0.7818608E-02  0.1235064E+00
         -4   -1    0    0    0  501 -0.00000000000E+00  0.00000000000E+00  0.21686541265E+02  0.21723696095E+02  0.12700000000E+01 0.  1.
          4   -1    0    0  501    0  0.00000000000E+00 -0.00000000000E+00 -0.17993943326E+03  0.17994391499E+03  0.12700000000E+01 0.  1.
         25    2    1    2    0    0  0.00000000000E+00  0.00000000000E+00 -0.15825289200E+03  0.20166761109E+03  0.12500339010E+03 0.  0.
    9000005    1    3    3    0    0 -0.17923587063E+02  0.27130448635E+02  0.69720294042E+01  0.33270488580E+02  0.10000000000E+01 0.  0.
    9000005    1    3    3    0    0  0.17923587063E+02 -0.27130448635E+02 -0.16522492140E+03  0.16839712251E+03  0.10000000000E+01 0.  0.
<mgrwt>
<rscale>  0 0.12500339E+03</rscale>
<asrwt>0</asrwt>
<pdfrwt beam="2">  1        4 0.27686192E-01 0.12500339E+03</pdfrwt>
<pdfrwt beam="1">  1       -4 0.33395939E-02 0.12500339E+03</pdfrwt>
<totfact> 0.89848196E+03</totfact>
</mgrwt>
</event>
<event>
 5    1  0.3309811E-002  0.1249981E+03  0.7818608E-02  0.1235072E+00
         -4   -1    0    0    0  501 -0.00000000000E+00  0.00000000000E+00  0.13322816550E+02  0.13383211156E+02  0.12700000000E+01 0.  1.
          4   -1    0    0  501    0  0.00000000000E+00 -0.00000000000E+00 -0.29246628886E+03  0.29246904625E+03  0.12700000000E+01 0.  1.
         25    2    1    2    0    0  0.00000000000E+00  0.00000000000E+00 -0.27914347231E+03  0.30585225741E+03  0.12499810091E+03 0.  0.
    9000005    1    3    3    0    0  0.49979063294E+02  0.84818135292E+01 -0.22898356890E+03  0.23453000395E+03  0.10000000000E+01 0.  0.
    9000005    1    3    3    0    0 -0.49979063294E+02 -0.84818135292E+01 -0.50159903408E+02  0.71322253459E+02  0.10000000000E+01 0.  0.
<mgrwt>
<rscale>  0 0.12499810E+03</rscale>
<asrwt>0</asrwt>
<pdfrwt beam="2">  1        4 0.44999667E-01 0.12499810E+03</pdfrwt>
<pdfrwt beam="1">  1       -4 0.20545221E-02 0.12499810E+03</pdfrwt>
<totfact> 0.74873715E+03</totfact>
</mgrwt>
</event>
<event>
 5    1  0.3309811E-002  0.1250008E+03  0.7818608E-02  0.1235068E+00
         -4   -1    0    0    0  501 -0.00000000000E+00  0.00000000000E+00  0.29904630111E+02  0.29931585358E+02  0.12700000000E+01 0. -1.
          4   -1    0    0  501    0  0.00000000000E+00 -0.00000000000E+00 -0.13053630382E+03  0.13054248165E+03  0.12700000000E+01 0. -1.
         25    2    1    2    0    0  0.00000000000E+00  0.00000000000E+00 -0.10063167371E+03  0.16047406701E+03  0.12500076971E+03 0.  0.
    9000005    1    3    3    0    0 -0.82289148840E+01  0.43610407639E+02 -0.10679820877E+03  0.11565656095E+03  0.10000000000E+01 0.  0.
    9000005    1    3    3    0    0  0.82289148840E+01 -0.43610407639E+02  0.61665350588E+01  0.44817506058E+02  0.10000000000E+01 0.  0.
<mgrwt>
<rscale>  0 0.12500077E+03</rscale>
<asrwt>0</asrwt>
<pdfrwt beam="2">  1        4 0.20085057E-01 0.12500077E+03</pdfrwt>
<pdfrwt beam="1">  1       -4 0.46032611E-02 0.12500077E+03</pdfrwt>
<totfact> 0.97249784E+03</totfact>
</mgrwt>
</event>
<event>
 5    1  0.3309811E-002  0.1249987E+03  0.7818608E-02  0.1235071E+00
          4   -1    0    0  501    0  0.00000000000E+00  0.00000000000E+00  0.24007320406E+02  0.24040888775E+02  0.12700000000E+01 0. -1.
         -4   -1    0    0    0  501 -0.00000000000E+00 -0.00000000000E+00 -0.16255770857E+03  0.16256266950E+03  0.12700000000E+01 0. -1.
         25    2    1    2    0    0  0.00000000000E+00  0.00000000000E+00 -0.13855038816E+03  0.18660355828E+03  0.12499871160E+03 0.  0.
    9000005    1    3    3    0    0 -0.45939636655E+02  0.30389400487E+02 -0.25212178680E+02  0.60585640475E+02  0.10000000000E+01 0.  0.
    9000005    1    3    3    0    0  0.45939636655E+02 -0.30389400487E+02 -0.11333820948E+03  0.12601791780E+03  0.10000000000E+01 0.  0.
<mgrwt>
<rscale>  0 0.12499871E+03</rscale>
<asrwt>0</asrwt>
<pdfrwt beam="1">  1        4 0.36963978E-02 0.12499871E+03</pdfrwt>
<pdfrwt beam="2">  1       -4 0.25011841E-01 0.12499871E+03</pdfrwt>
<totfact> 0.92444335E+03</totfact>
</mgrwt>
</event>
<event>
 5    1  0.3309811E-002  0.1249995E+03  0.7818608E-02  0.1235070E+00
          4   -1    0    0  501    0  0.00000000000E+00  0.00000000000E+00  0.46666140954E+03  0.46666313766E+03  0.12700000000E+01 0.  1.
         -4   -1    0    0    0  501 -0.00000000000E+00 -0.00000000000E+00 -0.83206367160E+01  0.84170003778E+01  0.12700000000E+01 0.  1.
         25    2    1    2    0    0  0.00000000000E+00  0.00000000000E+00  0.45834077282E+03  0.47508013804E+03  0.12499949411E+03 0.  0.
    9000005    1    3    3    0    0  0.41903012769E+02  0.44711090504E+02  0.27576127134E+03  0.28248933230E+03  0.10000000000E+01 0.  0.
    9000005    1    3    3    0    0 -0.41903012769E+02 -0.44711090504E+02  0.18257950148E+03  0.19259080574E+03  0.10000000000E+01 0.  0.
<mgrwt>
<rscale>  0 0.12499949E+03</rscale>
<asrwt>0</asrwt>
<pdfrwt beam="1">  1        4 0.71801618E-01 0.12499949E+03</pdfrwt>
<pdfrwt beam="2">  1       -4 0.12876433E-02 0.12499949E+03</pdfrwt>
<totfact> 0.57851681E+03</totfact>
</mgrwt>
</event>
<event>
 5    1  0.3309811E-002  0.1250025E+03  0.7818608E-02  0.1235065E+00
         -4   -1    0    0    0  501 -0.00000000000E+00  0.00000000000E+00  0.14958498437E+02  0.15012314128E+02  0.12700000000E+01 0. -1.
          4   -1    0    0  501    0  0.00000000000E+00 -0.00000000000E+00 -0.26062544163E+03  0.26062853590E+03  0.12700000000E+01 0. -1.
         25    2    1    2    0    0  0.00000000000E+00  0.00000000000E+00 -0.24566694319E+03  0.27564085003E+03  0.12500252488E+03 0.  0.
    9000005    1    3    3    0    0  0.11084697263E+02  0.32331470765E+01 -0.25826365795E+03  0.25852357875E+03  0.10000000000E+01 0.  0.
    9000005    1    3    3    0    0 -0.11084697263E+02 -0.32331470765E+01  0.12596714753E+02  0.17117271278E+02  0.10000000000E+01 0.  0.
<mgrwt>
<rscale>  0 0.12500252E+03</rscale>
<asrwt>0</asrwt>
<pdfrwt beam="2">  1        4 0.40100596E-01 0.12500252E+03</pdfrwt>
<pdfrwt beam="1">  1       -4 0.23056853E-02 0.12500252E+03</pdfrwt>
<totfact> 0.78755250E+03</totfact>
</mgrwt>
</event>
<event>
 5    1  0.3309811E-002  0.1250004E+03  0.7818608E-02  0.1235069E+00
          4   -1    0    0  501    0  0.00000000000E+00  0.00000000000E+00  0.70394500568E+01  0.71530942328E+01  0.12700000000E+01 0. -1.
         -4   -1    0    0    0  501 -0.00000000000E+00 -0.00000000000E+00 -0.55035455673E+03  0.55035602205E+03  0.12700000000E+01 0. -1.
         25    2    1    2    0    0  0.00000000000E+00  0.00000000000E+00 -0.54331510667E+03  0.55750911628E+03  0.12500043842E+03 0.  0.
    9000005    1    3    3    0    0  0.17453975662E+01  0.46210734525E+02 -0.84186590516E+02  0.96056548036E+02  0.10000000000E+01 0.  0.
    9000005    1    3    3    0    0 -0.17453975662E+01 -0.46210734525E+02 -0.45912851615E+03  0.46145256825E+03  0.10000000000E+01 0.  0.
<mgrwt>
<rscale>  0 0.12500044E+03</rscale>
<asrwt>0</asrwt>
<pdfrwt beam="1">  1        4 0.10918473E-02 0.12500044E+03</pdfrwt>
<pdfrwt beam="2">  1       -4 0.84678753E-01 0.12500044E+03</pdfrwt>
<totfact> 0.51664034E+03</totfact>
</mgrwt>
</event>
<event>
 5    1  0.3309811E-002  0.1249917E+03  0.7818608E-02  0.1235082E+00
          4   -1    0    0  501    0  0.00000000000E+00  0.00000000000E+00  0.51442484149E+03  0.51442640916E+03  0.12700000000E+01 0.  1.
         -4   -1    0    0    0  501 -0.00000000000E+00 -0.00000000000E+00 -0.75377236542E+01  0.76439634934E+01  0.12700000000E+01 0.  1.
         25    2    1    2    0    0  0.00000000000E+00  0.00000000000E+00  0.50688711784E+03  0.52207037266E+03  0.12499169483E+03 0.  0.
    9000005    1    3    3    0    0  0.62419992634E+02 -0.28937537533E+01  0.25477526107E+03  0.26232815889E+03  0.10000000000E+01 0.  0.
    9000005    1    3    3    0    0 -0.62419992634E+02  0.28937537533E+01  0.25211185676E+03  0.25974221377E+03  0.10000000000E+01 0.  0.
<mgrwt>
<rscale>  0 0.12499169E+03</rscale>
<asrwt>0</asrwt>
<pdfrwt beam="1">  1        4 0.79150586E-01 0.12499169E+03</pdfrwt>
<pdfrwt beam="2">  1       -4 0.11679425E-02 0.12499169E+03</pdfrwt>
<totfact> 0.54201621E+03</totfact>
</mgrwt>
</event>
<event>
 5    1  0.3309811E-002  0.1250009E+03  0.7818608E-02  0.1235068E+00
         -4   -1    0    0    0  501 -0.00000000000E+00  0.00000000000E+00  0.45639403764E+03  0.45639580464E+03  0.12700000000E+01 0.  1.
          4   -1    0    0  501    0  0.00000000000E+00 -0.00000000000E+00 -0.85101655935E+01  0.86044069191E+01  0.12700000000E+01 0.  1.
         25    2    1    2    0    0  0.00000000000E+00  0.00000000000E+00  0.44788387205E+03  0.46500021156E+03  0.12500093564E+03 0.  0.
    9000005    1    3    3    0    0 -0.47756522368E+02  0.38553603137E+02  0.18020372212E+03  0.19037186559E+03  0.10000000000E+01 0.  0.
    9000005    1    3    3    0    0  0.47756522368E+02 -0.38553603137E+02  0.26768014993E+03  0.27462834597E+03  0.10000000000E+01 0.  0.
<mgrwt>
<rscale>  0 0.12500094E+03</rscale>
<asrwt>0</asrwt>
<pdfrwt beam="2">  1        4 0.13166414E-02 0.12500094E+03</pdfrwt>
<pdfrwt beam="1">  1       -4 0.70221860E-01 0.12500094E+03</pdfrwt>
<totfact> 0.58684787E+03</totfact>
</mgrwt>
</event>
<event>
 5    1  0.3309811E-002  0.1250004E+03  0.7818608E-02  0.1235069E+00
         -4   -1    0    0    0  501 -0.00000000000E+00  0.00000000000E+00  0.31438142046E+02  0.31463783551E+02  0.12700000000E+01 0. -1.
          4   -1    0    0  501    0  0.00000000000E+00 -0.00000000000E+00 -0.12417325914E+03  0.12417975353E+03  0.12700000000E+01 0. -1.
         25    2    1    2    0    0  0.00000000000E+00  0.00000000000E+00 -0.92735117096E+02  0.15564353708E+03  0.12500043476E+03 0.  0.
    9000005    1    3    3    0    0 -0.44871553709E+00 -0.34428503346E+01  0.31324063123E+02  0.31531753751E+02  0.10000000000E+01 0.  0.
    9000005    1    3    3    0    0  0.44871553709E+00  0.34428503346E+01 -0.12405918022E+03  0.12411178333E+03  0.10000000000E+01 0.  0.
<mgrwt>
<rscale>  0 0.12500043E+03</rscale>
<asrwt>0</asrwt>
<pdfrwt beam="2">  1        4 0.19106050E-01 0.12500043E+03</pdfrwt>
<pdfrwt beam="1">  1       -4 0.48391093E-02 0.12500043E+03</pdfrwt>
<totfact> 0.98188352E+03</totfact>
</mgrwt>
</event>
<event>
 5    1  0.3309811E-002  0.1250005E+03  0.7818608E-02  0.1235069E+00
          4   -1    0    0  501    0  0.00000000000E+00  0.00000000000E+00  0.25212002736E+02  0.25243969220E+02  0.12700000000E+01 0. -1.
         -4   -1    0    0    0  501 -0.00000000000E+00 -0.00000000000E+00 -0.15480453474E+03  0.15480974413E+03  0.12700000000E+01 0. -1.
         25    2    1    2    0    0  0.00000000000E+00  0.00000000000E+00 -0.12959253200E+03  0.18005371334E+03  0.12500046135E+03 0.  0.
    9000005    1    3    3    0    0 -0.33916449575E+02  0.16606214434E+02  0.69245303294E+01  0.38406262899E+02  0.10000000000E+01 0.  0.
    9000005    1    3    3    0    0  0.33916449575E+02 -0.16606214434E+02 -0.13651706233E+03  0.14164745045E+03  0.10000000000E+01 0.  0.
<mgrwt>
<rscale>  0 0.12500046E+03</rscale>
<asrwt>0</asrwt>
<pdfrwt beam="1">  1        4 0.38816294E-02 0.12500046E+03</pdfrwt>
<pdfrwt beam="2">  1       -4 0.23818941E-01 0.12500046E+03</pdfrwt>
<totfact> 0.93606367E+03</totfact>
</mgrwt>
</event>
<event>
 5    1  0.3309811E-002  0.1249980E+03  0.7818608E-02  0.1235072E+00
          4   -1    0    0  501    0  0.00000000000E+00  0.00000000000E+00  0.19231786846E+02  0.19273674410E+02  0.12700000000E+01 0.  1.
         -4   -1    0    0    0  501 -0.00000000000E+00 -0.00000000000E+00 -0.20284292052E+03  0.20284689621E+03  0.12700000000E+01 0.  1.
         25    2    1    2    0    0  0.00000000000E+00  0.00000000000E+00 -0.18361113367E+03  0.22212057063E+03  0.12499799793E+03 0.  0.
    9000005    1    3    3    0    0 -0.32978139196E+02  0.14129401070E+02 -0.18272663072E+03  0.18621820323E+03  0.10000000000E+01 0.  0.
    9000005    1    3    3    0    0  0.32978139196E+02 -0.14129401070E+02 -0.88450295503E+00  0.35902367400E+02  0.10000000000E+01 0.  0.
<mgrwt>
<rscale>  0 0.12499800E+03</rscale>
<asrwt>0</asrwt>
<pdfrwt beam="1">  1        4 0.29622645E-02 0.12499800E+03</pdfrwt>
<pdfrwt beam="2">  1       -4 0.31210129E-01 0.12499800E+03</pdfrwt>
<totfact> 0.86537775E+03</totfact>
</mgrwt>
</event>
<event>
 4    1  0.3309811E-002  0.1257893E+03  0.7818608E-02  0.1233841E+00
          4   -1    0    0  501    0  0.00000000000E+00  0.00000000000E+00  0.84290974669E+01  0.85242351039E+01  0.12700000000E+01 0. -1.
         -4   -1    0    0    0  501 -0.00000000000E+00 -0.00000000000E+00 -0.46656594090E+03  0.46656766938E+03  0.12700000000E+01 0. -1.
    9000005    1    1    2    0    0  0.25558642411E+02  0.40584761586E+02 -0.75447527558E+02  0.89407474461E+02  0.10000000000E+01 0.  0.
    9000005    1    1    2    0    0 -0.25558642411E+02 -0.40584761586E+02 -0.38268931587E+03  0.38568443002E+03  0.10000000000E+01 0.  0.
<mgrwt>
<rscale>  0 0.12578931E+03</rscale>
<asrwt>0</asrwt>
<pdfrwt beam="1">  1        4 0.13042358E-02 0.12578931E+03</pdfrwt>
<pdfrwt beam="2">  1       -4 0.71786807E-01 0.12578931E+03</pdfrwt>
<totfact> 0.56856653E+03</totfact>
</mgrwt>
</event>
<event>
 5    1  0.3309811E-002  0.1250186E+03  0.7818608E-02  0.1235040E+00
         -4   -1    0    0    0  501 -0.00000000000E+00  0.00000000000E+00  0.57968810118E+03  0.57968949236E+03  0.12700000000E+01 0.  1.
          4   -1    0    0  501    0  0.00000000000E+00 -0.00000000000E+00 -0.66793112450E+01  0.67989777694E+01  0.12700000000E+01 0.  1.
         25    2    1    2    0    0  0.00000000000E+00  0.00000000000E+00  0.57300878994E+03  0.58648847013E+03  0.12501860761E+03 0.  0.
    9000005    1    3    3    0    0  0.12901298790E+01 -0.51651883614E+02  0.12152105252E+03  0.13205282171E+03  0.10000000000E+01 0.  0.
    9000005    1    3    3    0    0 -0.12901298790E+01  0.51651883614E+02  0.45148773742E+03  0.45443564842E+03  0.10000000000E+01 0.  0.
<mgrwt>
<rscale>  0 0.12501861E+03</rscale>
<asrwt>0</asrwt>
<pdfrwt beam="2">  1        4 0.10368981E-02 0.12501861E+03</pdfrwt>
<pdfrwt beam="1">  1       -4 0.89192128E-01 0.12501861E+03</pdfrwt>
<totfact> 0.49711452E+03</totfact>
</mgrwt>
</event>
<event>
 5    1  0.3309811E-002  0.1249993E+03  0.7818608E-02  0.1235070E+00
         -4   -1    0    0    0  501 -0.00000000000E+00  0.00000000000E+00  0.20793052886E+03  0.20793440728E+03  0.12700000000E+01 0. -1.
          4   -1    0    0  501    0  0.00000000000E+00 -0.00000000000E+00 -0.18760601359E+02  0.18803538586E+02  0.12700000000E+01 0. -1.
         25    2    1    2    0    0  0.00000000000E+00  0.00000000000E+00  0.18916992750E+03  0.22673794587E+03  0.12499933850E+03 0.  0.
    9000005    1    3    3    0    0  0.11442034093E+02 -0.40881607114E+02  0.11402008724E+02  0.43968531330E+02  0.10000000000E+01 0.  0.
    9000005    1    3    3    0    0 -0.11442034093E+02  0.40881607114E+02  0.17776791878E+03  0.18276941454E+03  0.10000000000E+01 0.  0.
<mgrwt>
<rscale>  0 0.12499934E+03</rscale>
<asrwt>0</asrwt>
<pdfrwt beam="2">  1        4 0.28898477E-02 0.12499934E+03</pdfrwt>
<pdfrwt beam="1">  1       -4 0.31992912E-01 0.12499934E+03</pdfrwt>
<totfact> 0.85814286E+03</totfact>
</mgrwt>
</event>
<event>
 5    1  0.3309811E-002  0.1249996E+03  0.7818608E-02  0.1235070E+00
         -4   -1    0    0    0  501 -0.00000000000E+00  0.00000000000E+00  0.58481269279E+01  0.59844371970E+01  0.12700000000E+01 0. -1.
          4   -1    0    0  501    0  0.00000000000E+00 -0.00000000000E+00 -0.66011274858E+03  0.66011397026E+03  0.12700000000E+01 0. -1.
         25    2    1    2    0    0  0.00000000000E+00  0.00000000000E+00 -0.65426462165E+03  0.66609840746E+03  0.12499957311E+03 0.  0.
    9000005    1    3    3    0    0 -0.45623525498E+02  0.41168205142E+02 -0.38763153388E+03  0.39247360835E+03  0.10000000000E+01 0.  0.
    9000005    1    3    3    0    0  0.45623525498E+02 -0.41168205142E+02 -0.26663308777E+03  0.27362479911E+03  0.10000000000E+01 0.  0.
<mgrwt>
<rscale>  0 0.12499957E+03</rscale>
<asrwt>0</asrwt>
<pdfrwt beam="2">  1        4 0.10156633E+00 0.12499957E+03</pdfrwt>
<pdfrwt beam="1">  1       -4 0.91029173E-03 0.12499957E+03</pdfrwt>
<totfact> 0.44938133E+03</totfact>
</mgrwt>
</event>
<event>
 5    1  0.3309811E-002  0.1250014E+03  0.7818608E-02  0.1235067E+00
         -4   -1    0    0    0  501 -0.00000000000E+00  0.00000000000E+00  0.99813262607E+02  0.99821341868E+02  0.12700000000E+01 0. -1.
          4   -1    0    0  501    0  0.00000000000E+00 -0.00000000000E+00 -0.39116460433E+02  0.39137071643E+02  0.12700000000E+01 0. -1.
         25    2    1    2    0    0  0.00000000000E+00  0.00000000000E+00  0.60696802174E+02  0.13895841351E+03  0.12500135556E+03 0.  0.
    9000005    1    3    3    0    0 -0.21201733421E+02 -0.28320897178E+02 -0.26918009780E+02  0.44465334448E+02  0.10000000000E+01 0.  0.
    9000005    1    3    3    0    0  0.21201733421E+02  0.28320897178E+02  0.87614811954E+02  0.94493079063E+02  0.10000000000E+01 0.  0.
<mgrwt>
<rscale>  0 0.12500136E+03</rscale>
<asrwt>0</asrwt>
<pdfrwt beam="2">  1        4 0.60201239E-02 0.12500136E+03</pdfrwt>
<pdfrwt beam="1">  1       -4 0.15358094E-01 0.12500136E+03</pdfrwt>
<totfact> 0.10154909E+04</totfact>
</mgrwt>
</event>
<event>
 5    1  0.3309811E-002  0.1250008E+03  0.7818608E-02  0.1235068E+00
          4   -1    0    0  501    0  0.00000000000E+00  0.00000000000E+00  0.24419208118E+01  0.27524311528E+01  0.12700000000E+01 0.  1.
         -4   -1    0    0    0  501 -0.00000000000E+00 -0.00000000000E+00 -0.15037458894E+04  0.15037464257E+04  0.12700000000E+01 0.  1.
         25    2    1    2    0    0  0.00000000000E+00  0.00000000000E+00 -0.15013039686E+04  0.15064988569E+04  0.12500079833E+03 0.  0.
    9000005    1    3    3    0    0 -0.31431401490E+02  0.21654693552E+02 -0.15430249161E+03  0.15895633888E+03  0.10000000000E+01 0.  0.
    9000005    1    3    3    0    0  0.31431401490E+02 -0.21654693552E+02 -0.13470014770E+04  0.13475425180E+04  0.10000000000E+01 0.  0.
<mgrwt>
<rscale>  0 0.12500080E+03</rscale>
<asrwt>0</asrwt>
<pdfrwt beam="1">  1        4 0.39960799E-03 0.12500080E+03</pdfrwt>
<pdfrwt beam="2">  1       -4 0.23136875E+00 0.12500080E+03</pdfrwt>
<totfact> 0.17802799E+03</totfact>
</mgrwt>
</event>
<event>
 4    1  0.3309811E-002  0.1247107E+03  0.7818608E-02  0.1235522E+00
          4   -1    0    0  501    0  0.00000000000E+00  0.00000000000E+00  0.17010512529E+03  0.17010986612E+03  0.12700000000E+01 0.  1.
         -4   -1    0    0    0  501 -0.00000000000E+00 -0.00000000000E+00 -0.22834863321E+02  0.22870152664E+02  0.12700000000E+01 0.  1.
    9000005    1    1    2    0    0  0.57658864420E+02 -0.23719778873E+02  0.73434317649E+02  0.96336761232E+02  0.10000000000E+01 0.  0.
    9000005    1    1    2    0    0 -0.57658864420E+02  0.23719778873E+02  0.73835944322E+02  0.96643257550E+02  0.10000000000E+01 0.  0.
<mgrwt>
<rscale>  0 0.12471070E+03</rscale>
<asrwt>0</asrwt>
<pdfrwt beam="1">  1        4 0.26173098E-01 0.12471070E+03</pdfrwt>
<pdfrwt beam="2">  1       -4 0.35161352E-02 0.12471070E+03</pdfrwt>
<totfact> 0.91925592E+03</totfact>
</mgrwt>
</event>
<event>
 5    1  0.3309811E-002  0.1249976E+03  0.7818608E-02  0.1235073E+00
          4   -1    0    0  501    0  0.00000000000E+00  0.00000000000E+00  0.26588965807E+02  0.26619278778E+02  0.12700000000E+01 0.  1.
         -4   -1    0    0    0  501 -0.00000000000E+00 -0.00000000000E+00 -0.14678997638E+03  0.14679547018E+03  0.12700000000E+01 0.  1.
         25    2    1    2    0    0  0.00000000000E+00  0.00000000000E+00 -0.12020101057E+03  0.17341474896E+03  0.12499756883E+03 0.  0.
    9000005    1    3    3    0    0  0.17777081536E+02 -0.43763137029E+02 -0.33402689881E+01  0.47364482341E+02  0.10000000000E+01 0.  0.
    9000005    1    3    3    0    0 -0.17777081536E+02  0.43763137029E+02 -0.11686074158E+03  0.12605026661E+03  0.10000000000E+01 0.  0.
<mgrwt>
<rscale>  0 0.12499757E+03</rscale>
<asrwt>0</asrwt>
<pdfrwt beam="1">  1        4 0.40933646E-02 0.12499757E+03</pdfrwt>
<pdfrwt beam="2">  1       -4 0.22585827E-01 0.12499757E+03</pdfrwt>
<totfact> 0.94821152E+03</totfact>
</mgrwt>
</event>
<event>
 5    1  0.3309811E-002  0.1249962E+03  0.7818608E-02  0.1235075E+00
         -4   -1    0    0    0  501 -0.00000000000E+00  0.00000000000E+00  0.25903497930E+03  0.25903809257E+03  0.12700000000E+01 0. -1.
          4   -1    0    0  501    0  0.00000000000E+00 -0.00000000000E+00 -0.15049136813E+02  0.15102629533E+02  0.12700000000E+01 0. -1.
         25    2    1    2    0    0  0.00000000000E+00  0.00000000000E+00  0.24398584249E+03  0.27414072210E+03  0.12499617666E+03 0.  0.
    9000005    1    3    3    0    0  0.56166593909E+02  0.27181809699E+02  0.12942198615E+03  0.14368224507E+03  0.10000000000E+01 0.  0.
    9000005    1    3    3    0    0 -0.56166593909E+02 -0.27181809699E+02  0.11456385634E+03  0.13045847703E+03  0.10000000000E+01 0.  0.
<mgrwt>
<rscale>  0 0.12499618E+03</rscale>
<asrwt>0</asrwt>
<pdfrwt beam="2">  1        4 0.23196063E-02 0.12499618E+03</pdfrwt>
<pdfrwt beam="1">  1       -4 0.39855887E-01 0.12499618E+03</pdfrwt>
<totfact> 0.78968187E+03</totfact>
</mgrwt>
</event>
