<event>
 5    1  0.1422067E-002  0.1250035E+03  0.7818608E-02  0.1235064E+00
          4   -1    0    0  501    0  0.00000000000E+00  0.00000000000E+00  0.10755521998E+03  0.10756271773E+03  0.12700000000E+01 0.  1.
         -4   -1    0    0    0  501 -0.00000000000E+00 -0.00000000000E+00 -0.36300736298E+02  0.36322945307E+02  0.12700000000E+01 0.  1.
         25    2    1    2    0    0  0.00000000000E+00  0.00000000000E+00  0.71254483684E+02  0.14388566304E+03  0.12500353028E+03 0.  0.
    9000005    1    3    3    0    0 -0.61126518304E+01  0.35386185306E+02  0.94499108624E+02  0.10109712238E+03  0.10000000000E+01 0.  0.
    9000005    1    3    3    0    0  0.61126518304E+01 -0.35386185306E+02 -0.23244624940E+02  0.42788540656E+02  0.10000000000E+01 0.  0.
<mgrwt>
<rscale>  0 0.12500353E+03</rscale>
<asrwt>0</asrwt>
<pdfrwt beam="1">  1        4 0.26892518E-01 0.12500353E+03</pdfrwt>
<pdfrwt beam="2">  1       -4 0.90788975E-02 0.12500353E+03</pdfrwt>
<totfact> 0.18841740E+03</totfact>
</mgrwt>
</event>
<event>
 5    1  0.1422067E-002  0.1250076E+03  0.7818608E-02  0.1235057E+00
         -4   -1    0    0    0  501 -0.00000000000E+00  0.00000000000E+00  0.26522661329E+02  0.26553049994E+02  0.12700000000E+01 0.  1.
          4   -1    0    0  501    0  0.00000000000E+00 -0.00000000000E+00 -0.14718021569E+03  0.14718569493E+03  0.12700000000E+01 0.  1.
         25    2    1    2    0    0  0.00000000000E+00  0.00000000000E+00 -0.12065755436E+03  0.17373874492E+03  0.12500762402E+03 0.  0.
    9000005    1    3    3    0    0  0.42390560039E+02 -0.12348638491E+02 -0.12180051226E+03  0.12956007580E+03  0.10000000000E+01 0.  0.
    9000005    1    3    3    0    0 -0.42390560039E+02  0.12348638491E+02  0.11429578971E+01  0.44178669126E+02  0.10000000000E+01 0.  0.
<mgrwt>
<rscale>  0 0.12500762E+03</rscale>
<asrwt>0</asrwt>
<pdfrwt beam="2">  1        4 0.36799535E-01 0.12500762E+03</pdfrwt>
<pdfrwt beam="1">  1       -4 0.66351492E-02 0.12500762E+03</pdfrwt>
<totfact> 0.17426638E+03</totfact>
</mgrwt>
</event>
<event>
 5    1  0.1422067E-002  0.1249870E+03  0.7818608E-02  0.1235090E+00
          4   -1    0    0  501    0  0.00000000000E+00  0.00000000000E+00  0.26519373343E+03  0.26519677439E+03  0.12700000000E+01 0.  1.
         -4   -1    0    0    0  501 -0.00000000000E+00 -0.00000000000E+00 -0.14696229096E+02  0.14751001649E+02  0.12700000000E+01 0.  1.
         25    2    1    2    0    0  0.00000000000E+00  0.00000000000E+00  0.25049750433E+03  0.27994777604E+03  0.12498702987E+03 0.  0.
    9000005    1    3    3    0    0 -0.47208820696E+02 -0.26546320340E+02  0.19504547025E+03  0.20242804979E+03  0.10000000000E+01 0.  0.
    9000005    1    3    3    0    0  0.47208820696E+02  0.26546320340E+02  0.55452034077E+02  0.77519726253E+02  0.10000000000E+01 0.  0.
<mgrwt>
<rscale>  0 0.12498703E+03</rscale>
<asrwt>0</asrwt>
<pdfrwt beam="1">  1        4 0.66305659E-01 0.12498703E+03</pdfrwt>
<pdfrwt beam="2">  1       -4 0.36812840E-02 0.12498703E+03</pdfrwt>
<totfact> 0.13556304E+03</totfact>
</mgrwt>
</event>
<event>
 5    1  0.1422067E-002  0.1250091E+03  0.7818608E-02  0.1235055E+00
         -4   -1    0    0    0  501 -0.00000000000E+00  0.00000000000E+00  0.18052495714E+03  0.18052942434E+03  0.12700000000E+01 0. -1.
          4   -1    0    0  501    0  0.00000000000E+00 -0.00000000000E+00 -0.21618063793E+02  0.21655336113E+02  0.12700000000E+01 0. -1.
         25    2    1    2    0    0  0.00000000000E+00  0.00000000000E+00  0.15890689335E+03  0.20218476045E+03  0.12500910608E+03 0.  0.
    9000005    1    3    3    0    0  0.44860091283E+02 -0.35709764053E+02  0.39239868964E+02  0.69486562406E+02  0.10000000000E+01 0.  0.
    9000005    1    3    3    0    0 -0.44860091283E+02  0.35709764053E+02  0.11966702439E+03  0.13269819804E+03  0.10000000000E+01 0.  0.
<mgrwt>
<rscale>  0 0.12500911E+03</rscale>
<asrwt>0</asrwt>
<pdfrwt beam="2">  1        4 0.54097334E-02 0.12500911E+03</pdfrwt>
<pdfrwt beam="1">  1       -4 0.45136456E-01 0.12500911E+03</pdfrwt>
<totfact> 0.16231515E+03</totfact>
</mgrwt>
</event>
<event>
 5    1  0.1422067E-002  0.1250124E+03  0.7818608E-02  0.1235050E+00
          4   -1    0    0  501    0  0.00000000000E+00  0.00000000000E+00  0.63037527980E+03  0.63037655912E+03  0.12700000000E+01 0. -1.
         -4   -1    0    0    0  501 -0.00000000000E+00 -0.00000000000E+00 -0.61315792023E+01  0.62617220886E+01  0.12700000000E+01 0. -1.
         25    2    1    2    0    0  0.00000000000E+00  0.00000000000E+00  0.62424370060E+03  0.63663828121E+03  0.12501241282E+03 0.  0.
    9000005    1    3    3    0    0  0.39330192659E+02  0.23593572066E+02  0.52833289144E+03  0.53032081316E+03  0.10000000000E+01 0.  0.
    9000005    1    3    3    0    0 -0.39330192659E+02 -0.23593572066E+02  0.95910809165E+02  0.10631746805E+03  0.10000000000E+01 0.  0.
<mgrwt>
<rscale>  0 0.12501241E+03</rscale>
<asrwt>0</asrwt>
<pdfrwt beam="1">  1        4 0.15761026E+00 0.12501241E+03</pdfrwt>
<pdfrwt beam="2">  1       -4 0.15493225E-02 0.12501241E+03</pdfrwt>
<totfact> 0.69041455E+02</totfact>
</mgrwt>
</event>
<event>
 5    1  0.1422067E-002  0.1250035E+03  0.7818608E-02  0.1235064E+00
          4   -1    0    0  501    0  0.00000000000E+00  0.00000000000E+00  0.69357344088E+02  0.69368970577E+02  0.12700000000E+01 0. -1.
         -4   -1    0    0    0  501 -0.00000000000E+00 -0.00000000000E+00 -0.56300298477E+02  0.56314620736E+02  0.12700000000E+01 0. -1.
         25    2    1    2    0    0  0.00000000000E+00  0.00000000000E+00  0.13057045611E+02  0.12568359131E+03  0.12500351469E+03 0.  0.
    9000005    1    3    3    0    0 -0.56116026327E+02  0.19970222203E+02 -0.12486041322E+02  0.60866406280E+02  0.10000000000E+01 0.  0.
    9000005    1    3    3    0    0  0.56116026327E+02 -0.19970222203E+02  0.25543086932E+02  0.64817185033E+02  0.10000000000E+01 0.  0.
<mgrwt>
<rscale>  0 0.12500351E+03</rscale>
<asrwt>0</asrwt>
<pdfrwt beam="1">  1        4 0.17342579E-01 0.12500351E+03</pdfrwt>
<pdfrwt beam="2">  1       -4 0.14078318E-01 0.12500351E+03</pdfrwt>
<totfact> 0.19796400E+03</totfact>
</mgrwt>
</event>
<event>
 5    1  0.1422067E-002  0.1249903E+03  0.7818608E-02  0.1235084E+00
          4   -1    0    0  501    0  0.00000000000E+00  0.00000000000E+00  0.28171607291E+03  0.28171893553E+03  0.12700000000E+01 0.  1.
         -4   -1    0    0    0  501 -0.00000000000E+00 -0.00000000000E+00 -0.13831729019E+02  0.13889911002E+02  0.12700000000E+01 0.  1.
         25    2    1    2    0    0  0.00000000000E+00  0.00000000000E+00  0.26788434389E+03  0.29560884653E+03  0.12499027340E+03 0.  0.
    9000005    1    3    3    0    0 -0.17710239011E+02 -0.59813723207E+02  0.14256994294E+03  0.15562301462E+03  0.10000000000E+01 0.  0.
    9000005    1    3    3    0    0  0.17710239011E+02  0.59813723207E+02  0.12531440095E+03  0.13998583191E+03  0.10000000000E+01 0.  0.
<mgrwt>
<rscale>  0 0.12499027E+03</rscale>
<asrwt>0</asrwt>
<pdfrwt beam="1">  1        4 0.70436649E-01 0.12499027E+03</pdfrwt>
<pdfrwt beam="2">  1       -4 0.34655628E-02 0.12499027E+03</pdfrwt>
<totfact> 0.13097944E+03</totfact>
</mgrwt>
</event>
<event>
 5    1  0.1422067E-002  0.1250187E+03  0.7818608E-02  0.1235040E+00
         -4   -1    0    0    0  501 -0.00000000000E+00  0.00000000000E+00  0.22952583668E+03  0.22952935020E+03  0.12700000000E+01 0. -1.
          4   -1    0    0  501    0  0.00000000000E+00 -0.00000000000E+00 -0.16996544753E+02  0.17043926588E+02  0.12700000000E+01 0. -1.
         25    2    1    2    0    0  0.00000000000E+00  0.00000000000E+00  0.21252929193E+03  0.24657327679E+03  0.12501872219E+03 0.  0.
    9000005    1    3    3    0    0  0.70741984580E+01 -0.29340714296E+02  0.21421038371E+03  0.21632847775E+03  0.10000000000E+01 0.  0.
    9000005    1    3    3    0    0 -0.70741984580E+01  0.29340714296E+02 -0.16810917777E+01  0.30244799037E+02  0.10000000000E+01 0.  0.
<mgrwt>
<rscale>  0 0.12501872E+03</rscale>
<asrwt>0</asrwt>
<pdfrwt beam="2">  1        4 0.42554981E-02 0.12501872E+03</pdfrwt>
<pdfrwt beam="1">  1       -4 0.57387821E-01 0.12501872E+03</pdfrwt>
<totfact> 0.14606354E+03</totfact>
</mgrwt>
</event>
<event>
 5    1  0.1422067E-002  0.1250011E+03  0.7818608E-02  0.1235068E+00
          4   -1    0    0  501    0  0.00000000000E+00  0.00000000000E+00  0.46548254612E+02  0.46565576421E+02  0.12700000000E+01 0.  1.
         -4   -1    0    0    0  501 -0.00000000000E+00 -0.00000000000E+00 -0.83882078127E+02  0.83891691668E+02  0.12700000000E+01 0.  1.
         25    2    1    2    0    0  0.00000000000E+00  0.00000000000E+00 -0.37333823515E+02  0.13045726809E+03  0.12500113767E+03 0.  0.
    9000005    1    3    3    0    0 -0.41879966154E+02 -0.27303869056E+02 -0.57798702135E+02  0.76427238593E+02  0.10000000000E+01 0.  0.
    9000005    1    3    3    0    0  0.41879966154E+02  0.27303869056E+02  0.20464878619E+02  0.54030029496E+02  0.10000000000E+01 0.  0.
<mgrwt>
<rscale>  0 0.12500114E+03</rscale>
<asrwt>0</asrwt>
<pdfrwt beam="1">  1        4 0.11640431E-01 0.12500114E+03</pdfrwt>
<pdfrwt beam="2">  1       -4 0.20973886E-01 0.12500114E+03</pdfrwt>
<totfact> 0.19539313E+03</totfact>
</mgrwt>
</event>
<event>
 5    1  0.1422067E-002  0.1249997E+03  0.7818608E-02  0.1235070E+00
          4   -1    0    0  501    0  0.00000000000E+00  0.00000000000E+00  0.18550918117E+03  0.18551352834E+03  0.12700000000E+01 0.  1.
         -4   -1    0    0    0  501 -0.00000000000E+00 -0.00000000000E+00 -0.21033065373E+02  0.21071372499E+02  0.12700000000E+01 0.  1.
         25    2    1    2    0    0  0.00000000000E+00  0.00000000000E+00  0.16447611579E+03  0.20658490084E+03  0.12499971435E+03 0.  0.
    9000005    1    3    3    0    0  0.56794131847E+02 -0.20219663249E+02  0.55040300737E+02  0.81638489081E+02  0.10000000000E+01 0.  0.
    9000005    1    3    3    0    0 -0.56794131847E+02  0.20219663249E+02  0.10943581506E+03  0.12494641176E+03  0.10000000000E+01 0.  0.
<mgrwt>
<rscale>  0 0.12499971E+03</rscale>
<asrwt>0</asrwt>
<pdfrwt beam="1">  1        4 0.46382626E-01 0.12499971E+03</pdfrwt>
<pdfrwt beam="2">  1       -4 0.52635983E-02 0.12499971E+03</pdfrwt>
<totfact> 0.16061830E+03</totfact>
</mgrwt>
</event>
<event>
 5    1  0.1422067E-002  0.1249972E+03  0.7818608E-02  0.1235074E+00
         -4   -1    0    0    0  501 -0.00000000000E+00  0.00000000000E+00  0.20187199140E+02  0.20227108274E+02  0.12700000000E+01 0.  1.
          4   -1    0    0  501    0  0.00000000000E+00 -0.00000000000E+00 -0.19325948451E+03  0.19326365735E+03  0.12700000000E+01 0.  1.
         25    2    1    2    0    0  0.00000000000E+00  0.00000000000E+00 -0.17307228537E+03  0.21349076563E+03  0.12499716414E+03 0.  0.
    9000005    1    3    3    0    0 -0.13301732438E+02 -0.60963389551E+02 -0.80718570212E+02  0.10202920429E+03  0.10000000000E+01 0.  0.
    9000005    1    3    3    0    0  0.13301732438E+02  0.60963389551E+02 -0.92353715158E+02  0.11146156133E+03  0.10000000000E+01 0.  0.
<mgrwt>
<rscale>  0 0.12499716E+03</rscale>
<asrwt>0</asrwt>
<pdfrwt beam="2">  1        4 0.48320376E-01 0.12499716E+03</pdfrwt>
<pdfrwt beam="1">  1       -4 0.50523106E-02 0.12499716E+03</pdfrwt>
<totfact> 0.15796768E+03</totfact>
</mgrwt>
</event>
<event>
 5    1  0.1422067E-002  0.1250006E+03  0.7818608E-02  0.1235068E+00
          4   -1    0    0  501    0  0.00000000000E+00  0.00000000000E+00  0.85154233627E+02  0.85163703563E+02  0.12700000000E+01 0.  1.
         -4   -1    0    0    0  501 -0.00000000000E+00 -0.00000000000E+00 -0.45852248086E+02  0.45869832729E+02  0.12700000000E+01 0.  1.
         25    2    1    2    0    0  0.00000000000E+00  0.00000000000E+00  0.39301985540E+02  0.13103353629E+03  0.12500056626E+03 0.  0.
    9000005    1    3    3    0    0  0.51146337297E+02  0.35734021449E+02  0.15957104276E+02  0.64408829245E+02  0.10000000000E+01 0.  0.
    9000005    1    3    3    0    0 -0.51146337297E+02 -0.35734021449E+02  0.23344881265E+02  0.66624707047E+02  0.10000000000E+01 0.  0.
<mgrwt>
<rscale>  0 0.12500057E+03</rscale>
<asrwt>0</asrwt>
<pdfrwt beam="1">  1        4 0.21291940E-01 0.12500057E+03</pdfrwt>
<pdfrwt beam="2">  1       -4 0.11466444E-01 0.12500057E+03</pdfrwt>
<totfact> 0.19508723E+03</totfact>
</mgrwt>
</event>
<event>
 5    1  0.1422067E-002  0.1249968E+03  0.7818608E-02  0.1235074E+00
          4   -1    0    0  501    0  0.00000000000E+00  0.00000000000E+00  0.18607188663E+03  0.18607622066E+03  0.12700000000E+01 0. -1.
         -4   -1    0    0    0  501 -0.00000000000E+00 -0.00000000000E+00 -0.20968353153E+02  0.21006778286E+02  0.12700000000E+01 0. -1.
         25    2    1    2    0    0  0.00000000000E+00  0.00000000000E+00  0.16510353348E+03  0.20708299895E+03  0.12499676670E+03 0.  0.
    9000005    1    3    3    0    0  0.11258961953E+02 -0.56182781076E+02  0.12386256855E+03  0.13647785535E+03  0.10000000000E+01 0.  0.
    9000005    1    3    3    0    0 -0.11258961953E+02  0.56182781076E+02  0.41240964934E+02  0.70605143597E+02  0.10000000000E+01 0.  0.
<mgrwt>
<rscale>  0 0.12499677E+03</rscale>
<asrwt>0</asrwt>
<pdfrwt beam="1">  1        4 0.46523316E-01 0.12499677E+03</pdfrwt>
<pdfrwt beam="2">  1       -4 0.52474333E-02 0.12499677E+03</pdfrwt>
<totfact> 0.16043501E+03</totfact>
</mgrwt>
</event>
<event>
 5    1  0.1422067E-002  0.1249477E+03  0.7818608E-02  0.1235151E+00
         -4   -1    0    0    0  501 -0.00000000000E+00  0.00000000000E+00  0.46798889454E+02  0.46816118529E+02  0.12700000000E+01 0.  1.
          4   -1    0    0  501    0  0.00000000000E+00 -0.00000000000E+00 -0.83361678867E+02  0.83371352415E+02  0.12700000000E+01 0.  1.
         25    2    1    2    0    0  0.00000000000E+00  0.00000000000E+00 -0.36562789413E+02  0.13018747094E+03  0.12494774916E+03 0.  0.
    9000005    1    3    3    0    0 -0.30939880763E+02 -0.21863849071E+02 -0.70029831793E+02  0.79627140215E+02  0.10000000000E+01 0.  0.
    9000005    1    3    3    0    0  0.30939880763E+02  0.21863849071E+02  0.33467042380E+02  0.50560330729E+02  0.10000000000E+01 0.  0.
<mgrwt>
<rscale>  0 0.12494775E+03</rscale>
<asrwt>0</asrwt>
<pdfrwt beam="2">  1        4 0.20843782E-01 0.12494775E+03</pdfrwt>
<pdfrwt beam="1">  1       -4 0.11703085E-01 0.12494775E+03</pdfrwt>
<totfact> 0.19578177E+03</totfact>
</mgrwt>
</event>
<event>
 5    1  0.1422067E-002  0.1249903E+03  0.7818608E-02  0.1235085E+00
          4   -1    0    0  501    0  0.00000000000E+00  0.00000000000E+00  0.75416375718E+01  0.76478230409E+01  0.12700000000E+01 0. -1.
         -4   -1    0    0    0  501 -0.00000000000E+00 -0.00000000000E+00 -0.51414972432E+03  0.51415129283E+03  0.12700000000E+01 0. -1.
         25    2    1    2    0    0  0.00000000000E+00  0.00000000000E+00 -0.50660808675E+03  0.52179911588E+03  0.12499025468E+03 0.  0.
    9000005    1    3    3    0    0  0.20030803347E+02  0.55582897470E+02 -0.33824180221E+03  0.34336454146E+03  0.10000000000E+01 0.  0.
    9000005    1    3    3    0    0 -0.20030803347E+02 -0.55582897470E+02 -0.16836628454E+03  0.17843457441E+03  0.10000000000E+01 0.  0.
<mgrwt>
<rscale>  0 0.12499025E+03</rscale>
<asrwt>0</asrwt>
<pdfrwt beam="1">  1        4 0.18988804E-02 0.12499025E+03</pdfrwt>
<pdfrwt beam="2">  1       -4 0.12855078E+00 0.12499025E+03</pdfrwt>
<totfact> 0.84259458E+02</totfact>
</mgrwt>
</event>
<event>
 5    1  0.1422067E-002  0.1249997E+03  0.7818608E-02  0.1235070E+00
          4   -1    0    0  501    0  0.00000000000E+00  0.00000000000E+00  0.29403573656E+02  0.29430987815E+02  0.12700000000E+01 0.  1.
         -4   -1    0    0    0  501 -0.00000000000E+00 -0.00000000000E+00 -0.13275649431E+03  0.13276256882E+03  0.12700000000E+01 0.  1.
         25    2    1    2    0    0  0.00000000000E+00  0.00000000000E+00 -0.10335292065E+03  0.16219355664E+03  0.12499969443E+03 0.  0.
    9000005    1    3    3    0    0  0.54672845996E+02  0.11634911154E+02 -0.15420637559E+02  0.57993855792E+02  0.10000000000E+01 0.  0.
    9000005    1    3    3    0    0 -0.54672845996E+02 -0.11634911154E+02 -0.87932283091E+02  0.10419970085E+03  0.10000000000E+01 0.  0.
<mgrwt>
<rscale>  0 0.12499969E+03</rscale>
<asrwt>0</asrwt>
<pdfrwt beam="1">  1        4 0.73550798E-02 0.12499969E+03</pdfrwt>
<pdfrwt beam="2">  1       -4 0.33193308E-01 0.12499969E+03</pdfrwt>
<totfact> 0.17955136E+03</totfact>
</mgrwt>
</event>
<event>
 5    1  0.1422067E-002  0.1250009E+03  0.7818608E-02  0.1235068E+00
          4   -1    0    0  501    0  0.00000000000E+00  0.00000000000E+00  0.14079305302E+03  0.14079878081E+03  0.12700000000E+01 0.  1.
         -4   -1    0    0    0  501 -0.00000000000E+00 -0.00000000000E+00 -0.27724203864E+02  0.27753276922E+02  0.12700000000E+01 0.  1.
         25    2    1    2    0    0  0.00000000000E+00  0.00000000000E+00  0.11306884916E+03  0.16855205773E+03  0.12500092607E+03 0.  0.
    9000005    1    3    3    0    0  0.47823679572E+02  0.39669077346E+02  0.65536272879E+02  0.90314689216E+02  0.10000000000E+01 0.  0.
    9000005    1    3    3    0    0 -0.47823679572E+02 -0.39669077346E+02  0.47532576276E+02  0.78237368519E+02  0.10000000000E+01 0.  0.
<mgrwt>
<rscale>  0 0.12500093E+03</rscale>
<asrwt>0</asrwt>
<pdfrwt beam="1">  1        4 0.35202613E-01 0.12500093E+03</pdfrwt>
<pdfrwt beam="2">  1       -4 0.69354011E-02 0.12500093E+03</pdfrwt>
<totfact> 0.17662174E+03</totfact>
</mgrwt>
</event>
<event>
 5    1  0.1422067E-002  0.1249939E+03  0.7818608E-02  0.1235079E+00
         -4   -1    0    0    0  501 -0.00000000000E+00  0.00000000000E+00  0.11615854783E+02  0.11685075196E+02  0.12700000000E+01 0. -1.
          4   -1    0    0  501    0  0.00000000000E+00 -0.00000000000E+00 -0.33518372564E+03  0.33518613163E+03  0.12700000000E+01 0. -1.
         25    2    1    2    0    0  0.00000000000E+00  0.00000000000E+00 -0.32356787086E+03  0.34687120682E+03  0.12499386813E+03 0.  0.
    9000005    1    3    3    0    0 -0.20428534542E+02 -0.36172787289E+02 -0.29132732425E+03  0.29427607008E+03  0.10000000000E+01 0.  0.
    9000005    1    3    3    0    0  0.20428534542E+02  0.36172787289E+02 -0.32240546605E+02  0.52595136744E+02  0.10000000000E+01 0.  0.
<mgrwt>
<rscale>  0 0.12499387E+03</rscale>
<asrwt>0</asrwt>
<pdfrwt beam="2">  1        4 0.83804853E-01 0.12499387E+03</pdfrwt>
<pdfrwt beam="1">  1       -4 0.29129181E-02 0.12499387E+03</pdfrwt>
<totfact> 0.11753954E+03</totfact>
</mgrwt>
</event>
<event>
 5    1  0.1422067E-002  0.1250088E+03  0.7818608E-02  0.1235056E+00
         -4   -1    0    0    0  501 -0.00000000000E+00  0.00000000000E+00  0.33001548714E+02  0.33025976405E+02  0.12700000000E+01 0.  1.
          4   -1    0    0  501    0  0.00000000000E+00 -0.00000000000E+00 -0.11831069681E+03  0.11831751299E+03  0.12700000000E+01 0.  1.
         25    2    1    2    0    0  0.00000000000E+00  0.00000000000E+00 -0.85309148100E+02  0.15134348940E+03  0.12500880382E+03 0.  0.
    9000005    1    3    3    0    0 -0.51750460155E+01  0.43328168746E+02 -0.96819909766E+02  0.10620360745E+03  0.10000000000E+01 0.  0.
    9000005    1    3    3    0    0  0.51750460155E+01 -0.43328168746E+02  0.11510761665E+02  0.45139881948E+02  0.10000000000E+01 0.  0.
<mgrwt>
<rscale>  0 0.12500880E+03</rscale>
<asrwt>0</asrwt>
<pdfrwt beam="2">  1        4 0.29581579E-01 0.12500880E+03</pdfrwt>
<pdfrwt beam="1">  1       -4 0.82542929E-02 0.12500880E+03</pdfrwt>
<totfact> 0.18469135E+03</totfact>
</mgrwt>
</event>
<event>
 5    1  0.1422067E-002  0.1250017E+03  0.7818608E-02  0.1235067E+00
         -4   -1    0    0    0  501 -0.00000000000E+00  0.00000000000E+00  0.49146294175E+02  0.49162700609E+02  0.12700000000E+01 0.  1.
          4   -1    0    0  501    0  0.00000000000E+00 -0.00000000000E+00 -0.79449522362E+02  0.79459672184E+02  0.12700000000E+01 0.  1.
         25    2    1    2    0    0  0.00000000000E+00  0.00000000000E+00 -0.30303228187E+02  0.12862237279E+03  0.12500171657E+03 0.  0.
    9000005    1    3    3    0    0 -0.46428620583E+01  0.61940875485E+02 -0.80877076420E+01  0.62646941177E+02  0.10000000000E+01 0.  0.
    9000005    1    3    3    0    0  0.46428620583E+01 -0.61940875485E+02 -0.22215520545E+02  0.65975431616E+02  0.10000000000E+01 0.  0.
<mgrwt>
<rscale>  0 0.12500172E+03</rscale>
<asrwt>0</asrwt>
<pdfrwt beam="2">  1        4 0.19865700E-01 0.12500172E+03</pdfrwt>
<pdfrwt beam="1">  1       -4 0.12289893E-01 0.12500172E+03</pdfrwt>
<totfact> 0.19637951E+03</totfact>
</mgrwt>
</event>
<event>
 5    1  0.1422067E-002  0.1249988E+03  0.7818608E-02  0.1235071E+00
          4   -1    0    0  501    0  0.00000000000E+00  0.00000000000E+00  0.22833218842E+02  0.22868510723E+02  0.12700000000E+01 0.  1.
         -4   -1    0    0    0  501 -0.00000000000E+00 -0.00000000000E+00 -0.17090439041E+03  0.17090910906E+03  0.12700000000E+01 0.  1.
         25    2    1    2    0    0  0.00000000000E+00  0.00000000000E+00 -0.14807117156E+03  0.19377761979E+03  0.12499877632E+03 0.  0.
    9000005    1    3    3    0    0  0.38534849251E+02  0.45509043163E+01  0.19026989483E+01  0.38862135816E+02  0.10000000000E+01 0.  0.
    9000005    1    3    3    0    0 -0.38534849251E+02 -0.45509043163E+01 -0.14997387051E+03  0.15491548397E+03  0.10000000000E+01 0.  0.
<mgrwt>
<rscale>  0 0.12499878E+03</rscale>
<asrwt>0</asrwt>
<pdfrwt beam="1">  1        4 0.57133065E-02 0.12499878E+03</pdfrwt>
<pdfrwt beam="2">  1       -4 0.42731095E-01 0.12499878E+03</pdfrwt>
<totfact> 0.16574734E+03</totfact>
</mgrwt>
</event>
<event>
 5    1  0.1422067E-002  0.1250011E+03  0.7818608E-02  0.1235068E+00
         -4   -1    0    0    0  501 -0.00000000000E+00  0.00000000000E+00  0.68602978334E+03  0.68603095887E+03  0.12700000000E+01 0. -1.
          4   -1    0    0  501    0  0.00000000000E+00 -0.00000000000E+00 -0.56220811530E+01  0.57637398008E+01  0.12700000000E+01 0. -1.
         25    2    1    2    0    0  0.00000000000E+00  0.00000000000E+00  0.68040770218E+03  0.69179469867E+03  0.12500105566E+03 0.  0.
    9000005    1    3    3    0    0 -0.51692869428E+02  0.23923685362E+02  0.19793648043E+03  0.20597171106E+03  0.10000000000E+01 0.  0.
    9000005    1    3    3    0    0  0.51692869428E+02 -0.23923685362E+02  0.48247122175E+03  0.48582298761E+03  0.10000000000E+01 0.  0.
<mgrwt>
<rscale>  0 0.12500106E+03</rscale>
<asrwt>0</asrwt>
<pdfrwt beam="2">  1        4 0.14233742E-02 0.12500106E+03</pdfrwt>
<pdfrwt beam="1">  1       -4 0.17152535E+00 0.12500106E+03</pdfrwt>
<totfact> 0.62922291E+02</totfact>
</mgrwt>
</event>
<event>
 5    1  0.1422067E-002  0.1249548E+03  0.7818608E-02  0.1235140E+00
         -4   -1    0    0    0  501 -0.00000000000E+00  0.00000000000E+00  0.41255194672E+02  0.41274737885E+02  0.12700000000E+01 0. -1.
          4   -1    0    0  501    0  0.00000000000E+00 -0.00000000000E+00 -0.94570334335E+02  0.94578861466E+02  0.12700000000E+01 0. -1.
         25    2    1    2    0    0  0.00000000000E+00  0.00000000000E+00 -0.53315139663E+02  0.13585359935E+03  0.12495477718E+03 0.  0.
    9000005    1    3    3    0    0  0.45325370491E+02  0.26539940609E+02 -0.63425397464E+02  0.82356169782E+02  0.10000000000E+01 0.  0.
    9000005    1    3    3    0    0 -0.45325370491E+02 -0.26539940609E+02  0.10110257801E+02  0.53497429569E+02  0.10000000000E+01 0.  0.
<mgrwt>
<rscale>  0 0.12495478E+03</rscale>
<asrwt>0</asrwt>
<pdfrwt beam="2">  1        4 0.23646092E-01 0.12495478E+03</pdfrwt>
<pdfrwt beam="1">  1       -4 0.10317308E-01 0.12495478E+03</pdfrwt>
<totfact> 0.19274848E+03</totfact>
</mgrwt>
</event>
<event>
 5    1  0.1422067E-002  0.1250011E+03  0.7818608E-02  0.1235067E+00
          4   -1    0    0  501    0  0.00000000000E+00  0.00000000000E+00  0.99143559006E+02  0.99151692836E+02  0.12700000000E+01 0.  1.
         -4   -1    0    0    0  501 -0.00000000000E+00 -0.00000000000E+00 -0.39380675052E+02  0.39401148049E+02  0.12700000000E+01 0.  1.
         25    2    1    2    0    0  0.00000000000E+00  0.00000000000E+00  0.59762883953E+02  0.13855284089E+03  0.12500114967E+03 0.  0.
    9000005    1    3    3    0    0 -0.51416132658E+02  0.21580674198E+02 -0.13902850650E+01  0.55787786198E+02  0.10000000000E+01 0.  0.
    9000005    1    3    3    0    0  0.51416132658E+02 -0.21580674198E+02  0.61153169018E+02  0.82765054687E+02  0.10000000000E+01 0.  0.
<mgrwt>
<rscale>  0 0.12500115E+03</rscale>
<asrwt>0</asrwt>
<pdfrwt beam="1">  1        4 0.24789465E-01 0.12500115E+03</pdfrwt>
<pdfrwt beam="2">  1       -4 0.98487447E-02 0.12500115E+03</pdfrwt>
<totfact> 0.19114110E+03</totfact>
</mgrwt>
</event>
<event>
 5    1  0.1422067E-002  0.1250017E+03  0.7818608E-02  0.1235067E+00
          4   -1    0    0  501    0  0.00000000000E+00  0.00000000000E+00  0.52237520727E+02  0.52252956583E+02  0.12700000000E+01 0. -1.
         -4   -1    0    0    0  501 -0.00000000000E+00 -0.00000000000E+00 -0.74748830457E+02  0.74759618476E+02  0.12700000000E+01 0. -1.
         25    2    1    2    0    0  0.00000000000E+00  0.00000000000E+00 -0.22511309730E+02  0.12701257506E+03  0.12500174062E+03 0.  0.
    9000005    1    3    3    0    0  0.26769105907E+01 -0.62385685523E+02 -0.13789600271E+02  0.63955396052E+02  0.10000000000E+01 0.  0.
    9000005    1    3    3    0    0 -0.26769105907E+01  0.62385685523E+02 -0.87217094589E+01  0.63057179007E+02  0.10000000000E+01 0.  0.
<mgrwt>
<rscale>  0 0.12500174E+03</rscale>
<asrwt>0</asrwt>
<pdfrwt beam="1">  1        4 0.13062658E-01 0.12500174E+03</pdfrwt>
<pdfrwt beam="2">  1       -4 0.18690485E-01 0.12500174E+03</pdfrwt>
<totfact> 0.19725498E+03</totfact>
</mgrwt>
</event>
<event>
 5    1  0.1422067E-002  0.1250005E+03  0.7818608E-02  0.1235068E+00
         -4   -1    0    0    0  501 -0.00000000000E+00  0.00000000000E+00  0.18588901824E+03  0.18589335653E+03  0.12700000000E+01 0. -1.
          4   -1    0    0  501    0  0.00000000000E+00 -0.00000000000E+00 -0.20990279113E+02  0.21028664181E+02  0.12700000000E+01 0. -1.
         25    2    1    2    0    0  0.00000000000E+00  0.00000000000E+00  0.16489873913E+03  0.20692202071E+03  0.12500051396E+03 0.  0.
    9000005    1    3    3    0    0  0.19030164774E+02  0.34487325466E+02  0.16276053714E+03  0.16746198147E+03  0.10000000000E+01 0.  0.
    9000005    1    3    3    0    0 -0.19030164774E+02 -0.34487325466E+02  0.21382019896E+01  0.39460039240E+02  0.10000000000E+01 0.  0.
<mgrwt>
<rscale>  0 0.12500051E+03</rscale>
<asrwt>0</asrwt>
<pdfrwt beam="2">  1        4 0.52529103E-02 0.12500051E+03</pdfrwt>
<pdfrwt beam="1">  1       -4 0.46477594E-01 0.12500051E+03</pdfrwt>
<totfact> 0.16048384E+03</totfact>
</mgrwt>
</event>
<event>
 5    1  0.1422067E-002  0.1249995E+03  0.7818608E-02  0.1235070E+00
         -4   -1    0    0    0  501 -0.00000000000E+00  0.00000000000E+00  0.21391337208E+04  0.21391340978E+04  0.12700000000E+01 0. -1.
          4   -1    0    0  501    0  0.00000000000E+00 -0.00000000000E+00 -0.16048356785E+01  0.20465574888E+01  0.12700000000E+01 0. -1.
         25    2    1    2    0    0  0.00000000000E+00  0.00000000000E+00  0.21375288851E+04  0.21411806553E+04  0.12499945539E+03 0.  0.
    9000005    1    3    3    0    0 -0.19420431093E+02 -0.16252707351E+02  0.20473852199E+04  0.20475420734E+04  0.10000000000E+01 0.  0.
    9000005    1    3    3    0    0  0.19420431093E+02  0.16252707351E+02  0.90143665228E+02  0.93638581903E+02  0.10000000000E+01 0.  0.
<mgrwt>
<rscale>  0 0.12499946E+03</rscale>
<asrwt>0</asrwt>
<pdfrwt beam="2">  1        4 0.45646899E-03 0.12499946E+03</pdfrwt>
<pdfrwt beam="1">  1       -4 0.53484137E+00 0.12499946E+03</pdfrwt>
<totfact> 0.14831571E+01</totfact>
</mgrwt>
</event>
<event>
 5    1  0.1422067E-002  0.1250021E+03  0.7818608E-02  0.1235066E+00
         -4   -1    0    0    0  501 -0.00000000000E+00  0.00000000000E+00  0.12750083670E+03  0.12750716160E+03  0.12700000000E+01 0. -1.
          4   -1    0    0  501    0  0.00000000000E+00 -0.00000000000E+00 -0.30617842602E+02  0.30644170500E+02  0.12700000000E+01 0. -1.
         25    2    1    2    0    0  0.00000000000E+00  0.00000000000E+00  0.96882994097E+02  0.15815133210E+03  0.12500211718E+03 0.  0.
    9000005    1    3    3    0    0  0.50830444705E+02 -0.10491214630E+02  0.92479945028E+02  0.10605347673E+03  0.10000000000E+01 0.  0.
    9000005    1    3    3    0    0 -0.50830444705E+02  0.10491214630E+02  0.44030490691E+01  0.52097855373E+02  0.10000000000E+01 0.  0.
<mgrwt>
<rscale>  0 0.12500212E+03</rscale>
<asrwt>0</asrwt>
<pdfrwt beam="2">  1        4 0.76585423E-02 0.12500212E+03</pdfrwt>
<pdfrwt beam="1">  1       -4 0.31879291E-01 0.12500212E+03</pdfrwt>
<totfact> 0.18144211E+03</totfact>
</mgrwt>
</event>
<event>
 5    1  0.1422067E-002  0.1250011E+03  0.7818608E-02  0.1235068E+00
          4   -1    0    0  501    0  0.00000000000E+00  0.00000000000E+00  0.25347397592E+02  0.25379193539E+02  0.12700000000E+01 0.  1.
         -4   -1    0    0    0  501 -0.00000000000E+00 -0.00000000000E+00 -0.15398019566E+03  0.15398543293E+03  0.12700000000E+01 0.  1.
         25    2    1    2    0    0  0.00000000000E+00  0.00000000000E+00 -0.12863279807E+03  0.17936462647E+03  0.12500108996E+03 0.  0.
    9000005    1    3    3    0    0  0.38340606472E+02 -0.11972342801E+02 -0.13301190349E+03  0.13894785197E+03  0.10000000000E+01 0.  0.
    9000005    1    3    3    0    0 -0.38340606472E+02  0.11972342801E+02  0.43791054223E+01  0.40416774502E+02  0.10000000000E+01 0.  0.
<mgrwt>
<rscale>  0 0.12500109E+03</rscale>
<asrwt>0</asrwt>
<pdfrwt beam="1">  1        4 0.63414790E-02 0.12500109E+03</pdfrwt>
<pdfrwt beam="2">  1       -4 0.38499675E-01 0.12500109E+03</pdfrwt>
<totfact> 0.17182317E+03</totfact>
</mgrwt>
</event>
<event>
 5    1  0.1422067E-002  0.1249960E+03  0.7818608E-02  0.1235076E+00
         -4   -1    0    0    0  501 -0.00000000000E+00  0.00000000000E+00  0.15693584525E+02  0.15744887908E+02  0.12700000000E+01 0. -1.
          4   -1    0    0  501    0  0.00000000000E+00 -0.00000000000E+00 -0.24843238957E+03  0.24843563570E+03  0.12700000000E+01 0. -1.
         25    2    1    2    0    0  0.00000000000E+00  0.00000000000E+00 -0.23273880505E+03  0.26418052361E+03  0.12499599066E+03 0.  0.
    9000005    1    3    3    0    0 -0.33353414009E+02 -0.19102379231E+02 -0.12234192164E+02  0.40348811337E+02  0.10000000000E+01 0.  0.
    9000005    1    3    3    0    0  0.33353414009E+02  0.19102379231E+02 -0.22050461288E+03  0.22383171228E+03  0.10000000000E+01 0.  0.
<mgrwt>
<rscale>  0 0.12499599E+03</rscale>
<asrwt>0</asrwt>
<pdfrwt beam="2">  1        4 0.62114903E-01 0.12499599E+03</pdfrwt>
<pdfrwt beam="1">  1       -4 0.39302156E-02 0.12499599E+03</pdfrwt>
<totfact> 0.14039181E+03</totfact>
</mgrwt>
</event>
<event>
 5    1  0.1422067E-002  0.1249989E+03  0.7818608E-02  0.1235071E+00
         -4   -1    0    0    0  501 -0.00000000000E+00  0.00000000000E+00  0.32986992408E+03  0.32987236882E+03  0.12700000000E+01 0. -1.
          4   -1    0    0  501    0  0.00000000000E+00 -0.00000000000E+00 -0.11805033763E+02  0.11873151314E+02  0.12700000000E+01 0. -1.
         25    2    1    2    0    0  0.00000000000E+00  0.00000000000E+00  0.31806489031E+03  0.34174552013E+03  0.12499890432E+03 0.  0.
    9000005    1    3    3    0    0  0.24142078413E+02  0.27807003862E+02  0.29706804021E+03  0.29934343141E+03  0.10000000000E+01 0.  0.
    9000005    1    3    3    0    0 -0.24142078413E+02 -0.27807003862E+02  0.20996850105E+02  0.42402088725E+02  0.10000000000E+01 0.  0.
<mgrwt>
<rscale>  0 0.12499890E+03</rscale>
<asrwt>0</asrwt>
<pdfrwt beam="2">  1        4 0.29600788E-02 0.12499890E+03</pdfrwt>
<pdfrwt beam="1">  1       -4 0.82476299E-01 0.12499890E+03</pdfrwt>
<totfact> 0.11877075E+03</totfact>
</mgrwt>
</event>
<event>
 5    1  0.1422067E-002  0.1249993E+03  0.7818608E-02  0.1235070E+00
         -4   -1    0    0    0  501 -0.00000000000E+00  0.00000000000E+00  0.31930152444E+02  0.31955399154E+02  0.12700000000E+01 0.  1.
          4   -1    0    0  501    0  0.00000000000E+00 -0.00000000000E+00 -0.12225898468E+03  0.12226558074E+03  0.12700000000E+01 0.  1.
         25    2    1    2    0    0  0.00000000000E+00  0.00000000000E+00 -0.90328832236E+02  0.15422097990E+03  0.12499925083E+03 0.  0.
    9000005    1    3    3    0    0 -0.33864049381E+02 -0.42107777431E+02 -0.64355764477E+01  0.54426605671E+02  0.10000000000E+01 0.  0.
    9000005    1    3    3    0    0  0.33864049381E+02  0.42107777431E+02 -0.83893255788E+02  0.99794374227E+02  0.10000000000E+01 0.  0.
<mgrwt>
<rscale>  0 0.12499925E+03</rscale>
<asrwt>0</asrwt>
<pdfrwt beam="2">  1        4 0.30568725E-01 0.12499925E+03</pdfrwt>
<pdfrwt beam="1">  1       -4 0.79865188E-02 0.12499925E+03</pdfrwt>
<totfact> 0.18333483E+03</totfact>
</mgrwt>
</event>
<event>
 5    1  0.1422067E-002  0.1249931E+03  0.7818608E-02  0.1235080E+00
         -4   -1    0    0    0  501 -0.00000000000E+00  0.00000000000E+00  0.20465656325E+03  0.20466050371E+03  0.12700000000E+01 0. -1.
          4   -1    0    0  501    0  0.00000000000E+00 -0.00000000000E+00 -0.19059486259E+02  0.19101751659E+02  0.12700000000E+01 0. -1.
         25    2    1    2    0    0  0.00000000000E+00  0.00000000000E+00  0.18559707699E+03  0.22376225537E+03  0.12499308758E+03 0.  0.
    9000005    1    3    3    0    0 -0.41836648022E+02  0.34505430865E+02  0.37219101148E+02  0.65781390736E+02  0.10000000000E+01 0.  0.
    9000005    1    3    3    0    0  0.41836648022E+02 -0.34505430865E+02  0.14837797584E+03  0.15798086464E+03  0.10000000000E+01 0.  0.
<mgrwt>
<rscale>  0 0.12499309E+03</rscale>
<asrwt>0</asrwt>
<pdfrwt beam="2">  1        4 0.47706473E-02 0.12499309E+03</pdfrwt>
<pdfrwt beam="1">  1       -4 0.51169916E-01 0.12499309E+03</pdfrwt>
<totfact> 0.15415249E+03</totfact>
</mgrwt>
</event>
<event>
 5    1  0.1422067E-002  0.1250028E+03  0.7818608E-02  0.1235065E+00
          4   -1    0    0  501    0  0.00000000000E+00  0.00000000000E+00  0.44876056504E+03  0.44876236210E+03  0.12700000000E+01 0. -1.
         -4   -1    0    0    0  501 -0.00000000000E+00 -0.00000000000E+00 -0.86567751478E+01  0.87494374653E+01  0.12700000000E+01 0. -1.
         25    2    1    2    0    0  0.00000000000E+00  0.00000000000E+00  0.44010378989E+03  0.45751179956E+03  0.12500280341E+03 0.  0.
    9000005    1    3    3    0    0  0.24151889364E+02 -0.54982874727E+02  0.28333888884E+03  0.28963486703E+03  0.10000000000E+01 0.  0.
    9000005    1    3    3    0    0 -0.24151889364E+02  0.54982874727E+02  0.15676490106E+03  0.16787693253E+03  0.10000000000E+01 0.  0.
<mgrwt>
<rscale>  0 0.12500280E+03</rscale>
<asrwt>0</asrwt>
<pdfrwt beam="1">  1        4 0.11220194E+00 0.12500280E+03</pdfrwt>
<pdfrwt beam="2">  1       -4 0.21760013E-02 0.12500280E+03</pdfrwt>
<totfact> 0.94677779E+02</totfact>
</mgrwt>
</event>
<event>
 5    1  0.1422067E-002  0.1250014E+03  0.7818608E-02  0.1235067E+00
         -4   -1    0    0    0  501 -0.00000000000E+00  0.00000000000E+00  0.28020795972E+02  0.28049561617E+02  0.12700000000E+01 0.  1.
          4   -1    0    0  501    0  0.00000000000E+00 -0.00000000000E+00 -0.13930532066E+03  0.13931110962E+03  0.12700000000E+01 0.  1.
         25    2    1    2    0    0  0.00000000000E+00  0.00000000000E+00 -0.11128452469E+03  0.16736067124E+03  0.12500139536E+03 0.  0.
    9000005    1    3    3    0    0 -0.57854044218E+02 -0.23085725782E+02 -0.62376134202E+02  0.88157945105E+02  0.10000000000E+01 0.  0.
    9000005    1    3    3    0    0  0.57854044218E+02  0.23085725782E+02 -0.48908390487E+02  0.79202726135E+02  0.10000000000E+01 0.  0.
<mgrwt>
<rscale>  0 0.12500140E+03</rscale>
<asrwt>0</asrwt>
<pdfrwt beam="2">  1        4 0.34830648E-01 0.12500140E+03</pdfrwt>
<pdfrwt beam="1">  1       -4 0.70095187E-02 0.12500140E+03</pdfrwt>
<totfact> 0.17716179E+03</totfact>
</mgrwt>
</event>
<event>
 5    1  0.1422067E-002  0.1250056E+03  0.7818608E-02  0.1235061E+00
          4   -1    0    0  501    0  0.00000000000E+00  0.00000000000E+00  0.11689370901E+03  0.11690060781E+03  0.12700000000E+01 0.  1.
         -4   -1    0    0    0  501 -0.00000000000E+00 -0.00000000000E+00 -0.33400161284E+02  0.33424297656E+02  0.12700000000E+01 0.  1.
         25    2    1    2    0    0  0.00000000000E+00  0.00000000000E+00  0.83493547726E+02  0.15032490546E+03  0.12500561864E+03 0.  0.
    9000005    1    3    3    0    0  0.38419745093E+01 -0.62026452810E+02  0.49683531708E+02  0.79570691460E+02  0.10000000000E+01 0.  0.
    9000005    1    3    3    0    0 -0.38419745093E+01  0.62026452810E+02  0.33810016017E+02  0.70754214005E+02  0.10000000000E+01 0.  0.
<mgrwt>
<rscale>  0 0.12500562E+03</rscale>
<asrwt>0</asrwt>
<pdfrwt beam="1">  1        4 0.29227306E-01 0.12500562E+03</pdfrwt>
<pdfrwt beam="2">  1       -4 0.83539198E-02 0.12500562E+03</pdfrwt>
<totfact> 0.18520395E+03</totfact>
</mgrwt>
</event>
<event>
 5    1  0.1422067E-002  0.1250014E+03  0.7818608E-02  0.1235067E+00
         -4   -1    0    0    0  501 -0.00000000000E+00  0.00000000000E+00  0.11944983743E+03  0.11945658861E+03  0.12700000000E+01 0.  1.
          4   -1    0    0  501    0  0.00000000000E+00 -0.00000000000E+00 -0.32682713017E+02  0.32707378834E+02  0.12700000000E+01 0.  1.
         25    2    1    2    0    0  0.00000000000E+00  0.00000000000E+00  0.86767124412E+02  0.15216396744E+03  0.12500135643E+03 0.  0.
    9000005    1    3    3    0    0 -0.12644637260E+02  0.91456053941E+01  0.11704577374E+03  0.11808574046E+03  0.10000000000E+01 0.  0.
    9000005    1    3    3    0    0  0.12644637260E+02 -0.91456053941E+01 -0.30278649325E+02  0.34078226985E+02  0.10000000000E+01 0.  0.
<mgrwt>
<rscale>  0 0.12500136E+03</rscale>
<asrwt>0</asrwt>
<pdfrwt beam="2">  1        4 0.81746054E-02 0.12500136E+03</pdfrwt>
<pdfrwt beam="1">  1       -4 0.29866386E-01 0.12500136E+03</pdfrwt>
<totfact> 0.18432306E+03</totfact>
</mgrwt>
</event>
<event>
 5    1  0.1422067E-002  0.1249995E+03  0.7818608E-02  0.1235070E+00
         -4   -1    0    0    0  501 -0.00000000000E+00  0.00000000000E+00  0.98997373489E+01  0.99808666747E+01  0.12700000000E+01 0.  1.
          4   -1    0    0  501    0  0.00000000000E+00 -0.00000000000E+00 -0.39288544106E+03  0.39288749368E+03  0.12700000000E+01 0.  1.
         25    2    1    2    0    0  0.00000000000E+00  0.00000000000E+00 -0.38298570371E+03  0.40286836036E+03  0.12499946614E+03 0.  0.
    9000005    1    3    3    0    0  0.56417221576E+02 -0.26207407400E+02 -0.17229375870E+03  0.18318261484E+03  0.10000000000E+01 0.  0.
    9000005    1    3    3    0    0 -0.56417221576E+02  0.26207407400E+02 -0.21069194501E+03  0.21968574552E+03  0.10000000000E+01 0.  0.
<mgrwt>
<rscale>  0 0.12499947E+03</rscale>
<asrwt>0</asrwt>
<pdfrwt beam="2">  1        4 0.98231706E-01 0.12499947E+03</pdfrwt>
<pdfrwt beam="1">  1       -4 0.24853334E-02 0.12499947E+03</pdfrwt>
<totfact> 0.10510486E+03</totfact>
</mgrwt>
</event>
<event>
 5    1  0.1422067E-002  0.1250051E+03  0.7818608E-02  0.1235061E+00
          4   -1    0    0  501    0  0.00000000000E+00  0.00000000000E+00  0.21551800772E+03  0.21552174960E+03  0.12700000000E+01 0.  1.
         -4   -1    0    0    0  501 -0.00000000000E+00 -0.00000000000E+00 -0.18100269350E+02  0.18144769233E+02  0.12700000000E+01 0.  1.
         25    2    1    2    0    0  0.00000000000E+00  0.00000000000E+00  0.19741773837E+03  0.23366651884E+03  0.12500511430E+03 0.  0.
    9000005    1    3    3    0    0  0.19718524202E+02  0.58221750228E+02  0.11977242425E+03  0.13462921676E+03  0.10000000000E+01 0.  0.
    9000005    1    3    3    0    0 -0.19718524202E+02 -0.58221750228E+02  0.77645314124E+02  0.99037302072E+02  0.10000000000E+01 0.  0.
<mgrwt>
<rscale>  0 0.12500511E+03</rscale>
<asrwt>0</asrwt>
<pdfrwt beam="1">  1        4 0.53885531E-01 0.12500511E+03</pdfrwt>
<pdfrwt beam="2">  1       -4 0.45310976E-02 0.12500511E+03</pdfrwt>
<totfact> 0.15055403E+03</totfact>
</mgrwt>
</event>
<event>
 5    1  0.1422067E-002  0.1250002E+03  0.7818608E-02  0.1235069E+00
         -4   -1    0    0    0  501 -0.00000000000E+00  0.00000000000E+00  0.51366753849E+02  0.51382451294E+02  0.12700000000E+01 0.  1.
          4   -1    0    0  501    0  0.00000000000E+00 -0.00000000000E+00 -0.76013944315E+02  0.76024552812E+02  0.12700000000E+01 0.  1.
         25    2    1    2    0    0  0.00000000000E+00  0.00000000000E+00 -0.24647190466E+02  0.12740700411E+03  0.12500024279E+03 0.  0.
    9000005    1    3    3    0    0  0.33481786088E+02  0.20326704369E+02 -0.61954677237E+02  0.73304753882E+02  0.10000000000E+01 0.  0.
    9000005    1    3    3    0    0 -0.33481786088E+02 -0.20326704369E+02  0.37307486771E+02  0.54102250224E+02  0.10000000000E+01 0.  0.
<mgrwt>
<rscale>  0 0.12500024E+03</rscale>
<asrwt>0</asrwt>
<pdfrwt beam="2">  1        4 0.19006774E-01 0.12500024E+03</pdfrwt>
<pdfrwt beam="1">  1       -4 0.12844977E-01 0.12500024E+03</pdfrwt>
<totfact> 0.19704751E+03</totfact>
</mgrwt>
</event>
<event>
 5    1  0.1422067E-002  0.1249976E+03  0.7818608E-02  0.1235073E+00
          4   -1    0    0  501    0  0.00000000000E+00  0.00000000000E+00  0.34805145837E+02  0.34828308554E+02  0.12700000000E+01 0. -1.
         -4   -1    0    0    0  501 -0.00000000000E+00 -0.00000000000E+00 -0.11216364422E+03  0.11217083393E+03  0.12700000000E+01 0. -1.
         25    2    1    2    0    0  0.00000000000E+00  0.00000000000E+00 -0.77358498387E+02  0.14699914249E+03  0.12499764246E+03 0.  0.
    9000005    1    3    3    0    0 -0.20883484353E+02  0.23612018764E+01  0.30530101289E+02  0.37078056553E+02  0.10000000000E+01 0.  0.
    9000005    1    3    3    0    0  0.20883484353E+02 -0.23612018764E+01 -0.10788859968E+03  0.10992108594E+03  0.10000000000E+01 0.  0.
<mgrwt>
<rscale>  0 0.12499764E+03</rscale>
<asrwt>0</asrwt>
<pdfrwt beam="1">  1        4 0.87050808E-02 0.12499764E+03</pdfrwt>
<pdfrwt beam="2">  1       -4 0.28044704E-01 0.12499764E+03</pdfrwt>
<totfact> 0.18688350E+03</totfact>
</mgrwt>
</event>
<event>
 5    1  0.1422067E-002  0.1249946E+03  0.7818608E-02  0.1235078E+00
          4   -1    0    0  501    0  0.00000000000E+00  0.00000000000E+00  0.15955069988E+02  0.16005535240E+02  0.12700000000E+01 0.  1.
         -4   -1    0    0    0  501 -0.00000000000E+00 -0.00000000000E+00 -0.24436844961E+03  0.24437174973E+03  0.12700000000E+01 0.  1.
         25    2    1    2    0    0  0.00000000000E+00  0.00000000000E+00 -0.22841337962E+03  0.26037728497E+03  0.12499463403E+03 0.  0.
    9000005    1    3    3    0    0  0.52764808094E+00  0.42582643860E+02 -0.20946997833E+03  0.21375741342E+03  0.10000000000E+01 0.  0.
    9000005    1    3    3    0    0 -0.52764808094E+00 -0.42582643860E+02 -0.18943401293E+02  0.46619871548E+02  0.10000000000E+01 0.  0.
<mgrwt>
<rscale>  0 0.12499463E+03</rscale>
<asrwt>0</asrwt>
<pdfrwt beam="1">  1        4 0.39954889E-02 0.12499463E+03</pdfrwt>
<pdfrwt beam="2">  1       -4 0.61098821E-01 0.12499463E+03</pdfrwt>
<totfact> 0.14160792E+03</totfact>
</mgrwt>
</event>
<event>
 5    1  0.1422067E-002  0.1249995E+03  0.7818608E-02  0.1235070E+00
         -4   -1    0    0    0  501 -0.00000000000E+00  0.00000000000E+00  0.19166350223E+03  0.19166770982E+03  0.12700000000E+01 0. -1.
          4   -1    0    0  501    0  0.00000000000E+00 -0.00000000000E+00 -0.20356378376E+02  0.20395956476E+02  0.12700000000E+01 0. -1.
         25    2    1    2    0    0  0.00000000000E+00  0.00000000000E+00  0.17130712385E+03  0.21206366630E+03  0.12499947152E+03 0.  0.
    9000005    1    3    3    0    0  0.45489750742E+02  0.24435581990E+02  0.14536520429E+03  0.15426748752E+03  0.10000000000E+01 0.  0.
    9000005    1    3    3    0    0 -0.45489750742E+02 -0.24435581990E+02  0.25941919568E+02  0.57796178771E+02  0.10000000000E+01 0.  0.
<mgrwt>
<rscale>  0 0.12499947E+03</rscale>
<asrwt>0</asrwt>
<pdfrwt beam="2">  1        4 0.50945678E-02 0.12499947E+03</pdfrwt>
<pdfrwt beam="1">  1       -4 0.47921349E-01 0.12499947E+03</pdfrwt>
<totfact> 0.15850319E+03</totfact>
</mgrwt>
</event>
<event>
 5    1  0.1422067E-002  0.1249928E+03  0.7818608E-02  0.1235080E+00
         -4   -1    0    0    0  501 -0.00000000000E+00  0.00000000000E+00  0.16481792057E+02  0.16530649394E+02  0.12700000000E+01 0. -1.
          4   -1    0    0  501    0  0.00000000000E+00 -0.00000000000E+00 -0.23657546728E+03  0.23657887611E+03  0.12700000000E+01 0. -1.
         25    2    1    2    0    0  0.00000000000E+00  0.00000000000E+00 -0.22009367523E+03  0.25310952550E+03  0.12499282389E+03 0.  0.
    9000005    1    3    3    0    0  0.10364260910E+02 -0.90503349210E+01 -0.23347963845E+03  0.23388687017E+03  0.10000000000E+01 0.  0.
    9000005    1    3    3    0    0 -0.10364260910E+02  0.90503349210E+01  0.13385963227E+02  0.19222655330E+02  0.10000000000E+01 0.  0.
<mgrwt>
<rscale>  0 0.12499282E+03</rscale>
<asrwt>0</asrwt>
<pdfrwt beam="2">  1        4 0.59150389E-01 0.12499282E+03</pdfrwt>
<pdfrwt beam="1">  1       -4 0.41269820E-02 0.12499282E+03</pdfrwt>
<totfact> 0.14397493E+03</totfact>
</mgrwt>
</event>
<event>
 5    1  0.1422067E-002  0.1249962E+03  0.7818608E-02  0.1235075E+00
          4   -1    0    0  501    0  0.00000000000E+00  0.00000000000E+00  0.37421462631E+02  0.37443006896E+02  0.12700000000E+01 0. -1.
         -4   -1    0    0    0  501 -0.00000000000E+00 -0.00000000000E+00 -0.10432352919E+03  0.10433125918E+03  0.12700000000E+01 0. -1.
         25    2    1    2    0    0  0.00000000000E+00  0.00000000000E+00 -0.66902066555E+02  0.14177426607E+03  0.12499622399E+03 0.  0.
    9000005    1    3    3    0    0  0.32830621781E+01  0.81933968397E+01  0.36716406772E+02  0.37775716740E+02  0.10000000000E+01 0.  0.
    9000005    1    3    3    0    0 -0.32830621781E+01 -0.81933968397E+01 -0.10361847333E+03  0.10399854933E+03  0.10000000000E+01 0.  0.
<mgrwt>
<rscale>  0 0.12499622E+03</rscale>
<asrwt>0</asrwt>
<pdfrwt beam="1">  1        4 0.93590251E-02 0.12499622E+03</pdfrwt>
<pdfrwt beam="2">  1       -4 0.26084541E-01 0.12499622E+03</pdfrwt>
<totfact> 0.18951607E+03</totfact>
</mgrwt>
</event>
<event>
 5    1  0.1422067E-002  0.1249974E+03  0.7818608E-02  0.1235073E+00
          4   -1    0    0  501    0  0.00000000000E+00  0.00000000000E+00  0.16351201994E+02  0.16400448367E+02  0.12700000000E+01 0.  1.
         -4   -1    0    0    0  501 -0.00000000000E+00 -0.00000000000E+00 -0.23847677304E+03  0.23848015469E+03  0.12700000000E+01 0.  1.
         25    2    1    2    0    0  0.00000000000E+00  0.00000000000E+00 -0.22212557105E+03  0.25488060306E+03  0.12499740998E+03 0.  0.
    9000005    1    3    3    0    0  0.21505184194E+02  0.78928554909E+01 -0.22961633233E+03  0.23075838053E+03  0.10000000000E+01 0.  0.
    9000005    1    3    3    0    0 -0.21505184194E+02 -0.78928554909E+01  0.74907612775E+01  0.24122222525E+02  0.10000000000E+01 0.  0.
<mgrwt>
<rscale>  0 0.12499741E+03</rscale>
<asrwt>0</asrwt>
<pdfrwt beam="1">  1        4 0.40943798E-02 0.12499741E+03</pdfrwt>
<pdfrwt beam="2">  1       -4 0.59625761E-01 0.12499741E+03</pdfrwt>
<totfact> 0.14337884E+03</totfact>
</mgrwt>
</event>
<event>
 5    1  0.1422067E-002  0.1250209E+03  0.7818608E-02  0.1235037E+00
          4   -1    0    0  501    0  0.00000000000E+00  0.00000000000E+00  0.31475059720E+03  0.31475315937E+03  0.12700000000E+01 0.  1.
         -4   -1    0    0    0  501 -0.00000000000E+00 -0.00000000000E+00 -0.12379667983E+02  0.12444640588E+02  0.12700000000E+01 0.  1.
         25    2    1    2    0    0  0.00000000000E+00  0.00000000000E+00  0.30237092921E+03  0.32719779996E+03  0.12502088412E+03 0.  0.
    9000005    1    3    3    0    0  0.17292623467E+02 -0.30556011044E+01 -0.58036295520E+01  0.18521707277E+02  0.10000000000E+01 0.  0.
    9000005    1    3    3    0    0 -0.17292623467E+02  0.30556011044E+01  0.30817455876E+03  0.30867609268E+03  0.10000000000E+01 0.  0.
<mgrwt>
<rscale>  0 0.12502088E+03</rscale>
<asrwt>0</asrwt>
<pdfrwt beam="1">  1        4 0.78696093E-01 0.12502088E+03</pdfrwt>
<pdfrwt beam="2">  1       -4 0.31033588E-02 0.12502088E+03</pdfrwt>
<totfact> 0.12235780E+03</totfact>
</mgrwt>
</event>
<event>
 5    1  0.1422067E-002  0.1249980E+03  0.7818608E-02  0.1235072E+00
         -4   -1    0    0    0  501 -0.00000000000E+00  0.00000000000E+00  0.43056632993E+02  0.43075358904E+02  0.12700000000E+01 0.  1.
          4   -1    0    0  501    0  0.00000000000E+00 -0.00000000000E+00 -0.90677673295E+02  0.90686566448E+02  0.12700000000E+01 0.  1.
         25    2    1    2    0    0  0.00000000000E+00  0.00000000000E+00 -0.47621040302E+02  0.13376192535E+03  0.12499795676E+03 0.  0.
    9000005    1    3    3    0    0 -0.12972494156E+02  0.54816985001E+02 -0.52761669525E+02  0.77187960332E+02  0.10000000000E+01 0.  0.
    9000005    1    3    3    0    0  0.12972494156E+02 -0.54816985001E+02  0.51406292232E+01  0.56573965019E+02  0.10000000000E+01 0.  0.
<mgrwt>
<rscale>  0 0.12499796E+03</rscale>
<asrwt>0</asrwt>
<pdfrwt beam="2">  1        4 0.22672870E-01 0.12499796E+03</pdfrwt>
<pdfrwt beam="1">  1       -4 0.10767611E-01 0.12499796E+03</pdfrwt>
<totfact> 0.19365107E+03</totfact>
</mgrwt>
</event>
<event>
 5    1  0.1422067E-002  0.1249949E+03  0.7818608E-02  0.1235077E+00
         -4   -1    0    0    0  501 -0.00000000000E+00  0.00000000000E+00  0.85360278709E+02  0.85369725789E+02  0.12700000000E+01 0. -1.
          4   -1    0    0  501    0  0.00000000000E+00 -0.00000000000E+00 -0.45737415691E+02  0.45755044466E+02  0.12700000000E+01 0. -1.
         25    2    1    2    0    0  0.00000000000E+00  0.00000000000E+00  0.39622863018E+02  0.13112477025E+03  0.12499493630E+03 0.  0.
    9000005    1    3    3    0    0  0.26394742986E+02  0.56139545582E+02  0.27703849682E+02  0.67947290768E+02  0.10000000000E+01 0.  0.
    9000005    1    3    3    0    0 -0.26394742986E+02 -0.56139545582E+02  0.11919013336E+02  0.63177479487E+02  0.10000000000E+01 0.  0.
<mgrwt>
<rscale>  0 0.12499494E+03</rscale>
<asrwt>0</asrwt>
<pdfrwt beam="2">  1        4 0.11437739E-01 0.12499494E+03</pdfrwt>
<pdfrwt beam="1">  1       -4 0.21343454E-01 0.12499494E+03</pdfrwt>
<totfact> 0.19506411E+03</totfact>
</mgrwt>
</event>
<event>
 5    1  0.1422067E-002  0.1249983E+03  0.7818608E-02  0.1235072E+00
          4   -1    0    0  501    0  0.00000000000E+00  0.00000000000E+00  0.96970248663E+03  0.96970331828E+03  0.12700000000E+01 0. -1.
         -4   -1    0    0    0  501 -0.00000000000E+00 -0.00000000000E+00 -0.39272331890E+01  0.41274762896E+01  0.12700000000E+01 0. -1.
         25    2    1    2    0    0  0.00000000000E+00  0.00000000000E+00  0.96577525344E+03  0.97383079457E+03  0.12499830513E+03 0.  0.
    9000005    1    3    3    0    0  0.26266545029E+02 -0.53433297041E+02  0.63072634780E+03  0.63353119452E+03  0.10000000000E+01 0.  0.
    9000005    1    3    3    0    0 -0.26266545029E+02  0.53433297041E+02  0.33504890564E+03  0.34029960004E+03  0.10000000000E+01 0.  0.
<mgrwt>
<rscale>  0 0.12499831E+03</rscale>
<asrwt>0</asrwt>
<pdfrwt beam="1">  1        4 0.24245073E+00 0.12499831E+03</pdfrwt>
<pdfrwt beam="2">  1       -4 0.10069427E-02 0.12499831E+03</pdfrwt>
<totfact> 0.38898552E+02</totfact>
</mgrwt>
</event>
<event>
 5    1  0.1422067E-002  0.1249881E+03  0.7818608E-02  0.1235088E+00
          4   -1    0    0  501    0  0.00000000000E+00  0.00000000000E+00  0.88030191377E+03  0.88030282988E+03  0.12700000000E+01 0.  1.
         -4   -1    0    0    0  501 -0.00000000000E+00 -0.00000000000E+00 -0.43447298301E+01  0.45265414276E+01  0.12700000000E+01 0.  1.
         25    2    1    2    0    0  0.00000000000E+00  0.00000000000E+00  0.87595718394E+03  0.88482937131E+03  0.12498811234E+03 0.  0.
    9000005    1    3    3    0    0  0.38433408878E+02  0.47022921491E+02  0.33388026090E+03  0.33936014893E+03  0.10000000000E+01 0.  0.
    9000005    1    3    3    0    0 -0.38433408878E+02 -0.47022921491E+02  0.54207692304E+03  0.54546922237E+03  0.10000000000E+01 0.  0.
<mgrwt>
<rscale>  0 0.12498811E+03</rscale>
<asrwt>0</asrwt>
<pdfrwt beam="1">  1        4 0.22009829E+00 0.12498811E+03</pdfrwt>
<pdfrwt beam="2">  1       -4 0.11090236E-02 0.12498811E+03</pdfrwt>
<totfact> 0.45457236E+02</totfact>
</mgrwt>
</event>
<event>
 5    1  0.1422067E-002  0.1249944E+03  0.7818608E-02  0.1235078E+00
          4   -1    0    0  501    0  0.00000000000E+00  0.00000000000E+00  0.27781239781E+02  0.27810253213E+02  0.12700000000E+01 0.  1.
         -4   -1    0    0    0  501 -0.00000000000E+00 -0.00000000000E+00 -0.14048969960E+03  0.14049543976E+03  0.12700000000E+01 0.  1.
         25    2    1    2    0    0  0.00000000000E+00  0.00000000000E+00 -0.11270845982E+03  0.16830569297E+03  0.12499443737E+03 0.  0.
    9000005    1    3    3    0    0 -0.44418460183E+02 -0.33519380260E+02 -0.18070972341E+02  0.58515882454E+02  0.10000000000E+01 0.  0.
    9000005    1    3    3    0    0  0.44418460183E+02  0.33519380260E+02 -0.94637487477E+02  0.10978981052E+03  0.10000000000E+01 0.  0.
<mgrwt>
<rscale>  0 0.12499444E+03</rscale>
<asrwt>0</asrwt>
<pdfrwt beam="1">  1        4 0.69496545E-02 0.12499444E+03</pdfrwt>
<pdfrwt beam="2">  1       -4 0.35126767E-01 0.12499444E+03</pdfrwt>
<totfact> 0.17676022E+03</totfact>
</mgrwt>
</event>
<event>
 5    1  0.1422067E-002  0.1250005E+03  0.7818608E-02  0.1235068E+00
         -4   -1    0    0    0  501 -0.00000000000E+00  0.00000000000E+00  0.36026145819E+03  0.36026369669E+03  0.12700000000E+01 0. -1.
          4   -1    0    0  501    0  0.00000000000E+00 -0.00000000000E+00 -0.10803441962E+02  0.10877833342E+02  0.12700000000E+01 0. -1.
         25    2    1    2    0    0  0.00000000000E+00  0.00000000000E+00  0.34945801623E+03  0.37114153004E+03  0.12500052085E+03 0.  0.
    9000005    1    3    3    0    0 -0.60226586364E+02  0.66162085939E+01  0.12928433873E+03  0.14278114778E+03  0.10000000000E+01 0.  0.
    9000005    1    3    3    0    0  0.60226586364E+02 -0.66162085939E+01  0.22017367750E+03  0.22836038226E+03  0.10000000000E+01 0.  0.
<mgrwt>
<rscale>  0 0.12500052E+03</rscale>
<asrwt>0</asrwt>
<pdfrwt beam="2">  1        4 0.27104391E-02 0.12500052E+03</pdfrwt>
<pdfrwt beam="1">  1       -4 0.90074947E-01 0.12500052E+03</pdfrwt>
<totfact> 0.11188703E+03</totfact>
</mgrwt>
</event>
<event>
 5    1  0.1422067E-002  0.1250316E+03  0.7818608E-02  0.1235020E+00
         -4   -1    0    0    0  501 -0.00000000000E+00  0.00000000000E+00  0.17860064898E+02  0.17905161774E+02  0.12700000000E+01 0. -1.
          4   -1    0    0  501    0  0.00000000000E+00 -0.00000000000E+00 -0.21850195617E+03  0.21850564696E+03  0.12700000000E+01 0. -1.
         25    2    1    2    0    0  0.00000000000E+00  0.00000000000E+00 -0.20064189128E+03  0.23641080873E+03  0.12503160380E+03 0.  0.
    9000005    1    3    3    0    0 -0.18429165403E+02 -0.21929315566E+02  0.47286752011E+01  0.29049774315E+02  0.10000000000E+01 0.  0.
    9000005    1    3    3    0    0  0.18429165403E+02  0.21929315566E+02 -0.20537056648E+03  0.20736103441E+03  0.10000000000E+01 0.  0.
<mgrwt>
<rscale>  0 0.12503160E+03</rscale>
<asrwt>0</asrwt>
<pdfrwt beam="2">  1        4 0.54631579E-01 0.12503160E+03</pdfrwt>
<pdfrwt beam="1">  1       -4 0.44711154E-02 0.12503160E+03</pdfrwt>
<totfact> 0.14950026E+03</totfact>
</mgrwt>
</event>
<event>
 5    1  0.1422067E-002  0.1249992E+03  0.7818608E-02  0.1235070E+00
          4   -1    0    0  501    0  0.00000000000E+00  0.00000000000E+00  0.30170925740E+02  0.30197643285E+02  0.12700000000E+01 0.  1.
         -4   -1    0    0    0  501 -0.00000000000E+00 -0.00000000000E+00 -0.12938192626E+03  0.12938815921E+03  0.12700000000E+01 0.  1.
         25    2    1    2    0    0  0.00000000000E+00  0.00000000000E+00 -0.99211000521E+02  0.15958580249E+03  0.12499922293E+03 0.  0.
    9000005    1    3    3    0    0  0.16508710498E+02  0.39944022874E+01  0.27173720793E+02  0.32060940000E+02  0.10000000000E+01 0.  0.
    9000005    1    3    3    0    0 -0.16508710498E+02 -0.39944022874E+01 -0.12638472131E+03  0.12752486249E+03  0.10000000000E+01 0.  0.
<mgrwt>
<rscale>  0 0.12499922E+03</rscale>
<asrwt>0</asrwt>
<pdfrwt beam="1">  1        4 0.75468506E-02 0.12499922E+03</pdfrwt>
<pdfrwt beam="2">  1       -4 0.32349599E-01 0.12499922E+03</pdfrwt>
<totfact> 0.18077591E+03</totfact>
</mgrwt>
</event>
<event>
 5    1  0.1422067E-002  0.1250000E+03  0.7818608E-02  0.1235069E+00
         -4   -1    0    0    0  501 -0.00000000000E+00  0.00000000000E+00  0.30838351797E+02  0.30864491598E+02  0.12700000000E+01 0. -1.
          4   -1    0    0  501    0  0.00000000000E+00 -0.00000000000E+00 -0.12658560274E+03  0.12659197337E+03  0.12700000000E+01 0. -1.
         25    2    1    2    0    0  0.00000000000E+00  0.00000000000E+00 -0.95747250941E+02  0.15745646496E+03  0.12500000918E+03 0.  0.
    9000005    1    3    3    0    0 -0.67256616725E+01 -0.56793623789E+02 -0.16143894954E+02  0.59433791502E+02  0.10000000000E+01 0.  0.
    9000005    1    3    3    0    0  0.67256616725E+01  0.56793623789E+02 -0.79603355987E+02  0.98022673461E+02  0.10000000000E+01 0.  0.
<mgrwt>
<rscale>  0 0.12500001E+03</rscale>
<asrwt>0</asrwt>
<pdfrwt beam="2">  1        4 0.31650463E-01 0.12500001E+03</pdfrwt>
<pdfrwt beam="1">  1       -4 0.77136521E-02 0.12500001E+03</pdfrwt>
<totfact> 0.18178114E+03</totfact>
</mgrwt>
</event>
<event>
 5    1  0.1422067E-002  0.1250047E+03  0.7818608E-02  0.1235062E+00
          4   -1    0    0  501    0  0.00000000000E+00  0.00000000000E+00  0.16298397276E+02  0.16347802719E+02  0.12700000000E+01 0.  1.
         -4   -1    0    0    0  501 -0.00000000000E+00 -0.00000000000E+00 -0.23927496144E+03  0.23927833180E+03  0.12700000000E+01 0.  1.
         25    2    1    2    0    0  0.00000000000E+00  0.00000000000E+00 -0.22297656416E+03  0.25562613452E+03  0.12500468986E+03 0.  0.
    9000005    1    3    3    0    0  0.35993798137E+02  0.48634969606E+02 -0.14347231511E+03  0.15571197442E+03  0.10000000000E+01 0.  0.
    9000005    1    3    3    0    0 -0.35993798137E+02 -0.48634969606E+02 -0.79504249048E+02  0.99914160106E+02  0.10000000000E+01 0.  0.
<mgrwt>
<rscale>  0 0.12500469E+03</rscale>
<asrwt>0</asrwt>
<pdfrwt beam="1">  1        4 0.40811971E-02 0.12500469E+03</pdfrwt>
<pdfrwt beam="2">  1       -4 0.59825326E-01 0.12500469E+03</pdfrwt>
<totfact> 0.14311144E+03</totfact>
</mgrwt>
</event>
<event>
 5    1  0.1422067E-002  0.1250013E+03  0.7818608E-02  0.1235067E+00
          4   -1    0    0  501    0  0.00000000000E+00  0.00000000000E+00  0.20762370510E+03  0.20762758926E+03  0.12700000000E+01 0.  1.
         -4   -1    0    0    0  501 -0.00000000000E+00 -0.00000000000E+00 -0.18788990152E+02  0.18831862652E+02  0.12700000000E+01 0.  1.
         25    2    1    2    0    0  0.00000000000E+00  0.00000000000E+00  0.18883471495E+03  0.22645945191E+03  0.12500133515E+03 0.  0.
    9000005    1    3    3    0    0  0.14311303177E+02  0.91849781233E+01  0.20336037303E+03  0.20407258155E+03  0.10000000000E+01 0.  0.
    9000005    1    3    3    0    0 -0.14311303177E+02 -0.91849781233E+01 -0.14525658080E+02  0.22386870358E+02  0.10000000000E+01 0.  0.
<mgrwt>
<rscale>  0 0.12500134E+03</rscale>
<asrwt>0</asrwt>
<pdfrwt beam="1">  1        4 0.51911770E-01 0.12500134E+03</pdfrwt>
<pdfrwt beam="2">  1       -4 0.47030922E-02 0.12500134E+03</pdfrwt>
<totfact> 0.15314182E+03</totfact>
</mgrwt>
</event>
<event>
 5    1  0.1422067E-002  0.1249949E+03  0.7818608E-02  0.1235077E+00
          4   -1    0    0  501    0  0.00000000000E+00  0.00000000000E+00  0.80419701228E+02  0.80429728618E+02  0.12700000000E+01 0.  1.
         -4   -1    0    0    0  501 -0.00000000000E+00 -0.00000000000E+00 -0.48547953260E+02  0.48564561830E+02  0.12700000000E+01 0.  1.
         25    2    1    2    0    0  0.00000000000E+00  0.00000000000E+00  0.31871747968E+02  0.12899429045E+03  0.12499487449E+03 0.  0.
    9000005    1    3    3    0    0 -0.54938679876E+02  0.17819670983E+02  0.40555655309E+02  0.70580170006E+02  0.10000000000E+01 0.  0.
    9000005    1    3    3    0    0  0.54938679876E+02 -0.17819670983E+02 -0.86839073417E+01  0.58414120443E+02  0.10000000000E+01 0.  0.
<mgrwt>
<rscale>  0 0.12499487E+03</rscale>
<asrwt>0</asrwt>
<pdfrwt beam="1">  1        4 0.20108255E-01 0.12499487E+03</pdfrwt>
<pdfrwt beam="2">  1       -4 0.12140318E-01 0.12499487E+03</pdfrwt>
<totfact> 0.19620952E+03</totfact>
</mgrwt>
</event>
<event>
 5    1  0.1422067E-002  0.1249945E+03  0.7818608E-02  0.1235078E+00
         -4   -1    0    0    0  501 -0.00000000000E+00  0.00000000000E+00  0.12063915863E+03  0.12064584326E+03  0.12700000000E+01 0.  1.
          4   -1    0    0  501    0  0.00000000000E+00 -0.00000000000E+00 -0.32356714143E+02  0.32381628281E+02  0.12700000000E+01 0.  1.
         25    2    1    2    0    0  0.00000000000E+00  0.00000000000E+00  0.88282444490E+02  0.15302747154E+03  0.12499446804E+03 0.  0.
    9000005    1    3    3    0    0 -0.15519756591E+02  0.54267969959E+02  0.11312667123E+02  0.57574750069E+02  0.10000000000E+01 0.  0.
    9000005    1    3    3    0    0  0.15519756591E+02 -0.54267969959E+02  0.76969777367E+02  0.95452721470E+02  0.10000000000E+01 0.  0.
<mgrwt>
<rscale>  0 0.12499447E+03</rscale>
<asrwt>0</asrwt>
<pdfrwt beam="2">  1        4 0.80931285E-02 0.12499447E+03</pdfrwt>
<pdfrwt beam="1">  1       -4 0.30163739E-01 0.12499447E+03</pdfrwt>
<totfact> 0.18393282E+03</totfact>
</mgrwt>
</event>
<event>
 5    1  0.1422067E-002  0.1249969E+03  0.7818608E-02  0.1235074E+00
         -4   -1    0    0    0  501 -0.00000000000E+00  0.00000000000E+00  0.47745067345E+02  0.47761955109E+02  0.12700000000E+01 0. -1.
          4   -1    0    0  501    0  0.00000000000E+00 -0.00000000000E+00 -0.81774363801E+02  0.81784225099E+02  0.12700000000E+01 0. -1.
         25    2    1    2    0    0  0.00000000000E+00  0.00000000000E+00 -0.34029296456E+02  0.12954618021E+03  0.12499687912E+03 0.  0.
    9000005    1    3    3    0    0  0.10567220420E+02  0.11104575403E+02  0.45771384527E+02  0.48280403724E+02  0.10000000000E+01 0.  0.
    9000005    1    3    3    0    0 -0.10567220420E+02 -0.11104575403E+02 -0.79800680982E+02  0.81265776484E+02  0.10000000000E+01 0.  0.
<mgrwt>
<rscale>  0 0.12499688E+03</rscale>
<asrwt>0</asrwt>
<pdfrwt beam="2">  1        4 0.20446934E-01 0.12499688E+03</pdfrwt>
<pdfrwt beam="1">  1       -4 0.11939611E-01 0.12499688E+03</pdfrwt>
<totfact> 0.19590238E+03</totfact>
</mgrwt>
</event>
<event>
 5    1  0.1422067E-002  0.1249766E+03  0.7818608E-02  0.1235106E+00
         -4   -1    0    0    0  501 -0.00000000000E+00  0.00000000000E+00  0.96958467999E+01  0.97786678627E+01  0.12700000000E+01 0.  1.
          4   -1    0    0  501    0  0.00000000000E+00 -0.00000000000E+00 -0.40093109082E+03  0.40093310226E+03  0.12700000000E+01 0.  1.
         25    2    1    2    0    0  0.00000000000E+00  0.00000000000E+00 -0.39123524402E+03  0.41071177012E+03  0.12497656561E+03 0.  0.
    9000005    1    3    3    0    0 -0.58889584581E+02  0.16898034041E+02 -0.15533400435E+03  0.16698257284E+03  0.10000000000E+01 0.  0.
    9000005    1    3    3    0    0  0.58889584581E+02 -0.16898034041E+02 -0.23590123967E+03  0.24372919728E+03  0.10000000000E+01 0.  0.
<mgrwt>
<rscale>  0 0.12497657E+03</rscale>
<asrwt>0</asrwt>
<pdfrwt beam="2">  1        4 0.10024332E+00 0.12497657E+03</pdfrwt>
<pdfrwt beam="1">  1       -4 0.24345671E-02 0.12497657E+03</pdfrwt>
<totfact> 0.10357117E+03</totfact>
</mgrwt>
</event>
<event>
 5    1  0.1422067E-002  0.1250007E+03  0.7818608E-02  0.1235068E+00
         -4   -1    0    0    0  501 -0.00000000000E+00  0.00000000000E+00  0.42574657186E+01  0.44428498000E+01  0.12700000000E+01 0. -1.
          4   -1    0    0  501    0  0.00000000000E+00 -0.00000000000E+00 -0.89778081287E+03  0.89778171114E+03  0.12700000000E+01 0. -1.
         25    2    1    2    0    0  0.00000000000E+00  0.00000000000E+00 -0.89352334715E+03  0.90222456094E+03  0.12500074583E+03 0.  0.
    9000005    1    3    3    0    0  0.31315691680E+02 -0.40830037327E+02 -0.19080787171E+03  0.19762694250E+03  0.10000000000E+01 0.  0.
    9000005    1    3    3    0    0 -0.31315691680E+02  0.40830037327E+02 -0.70271547544E+03  0.70459761844E+03  0.10000000000E+01 0.  0.
<mgrwt>
<rscale>  0 0.12500075E+03</rscale>
<asrwt>0</asrwt>
<pdfrwt beam="2">  1        4 0.22446785E+00 0.12500075E+03</pdfrwt>
<pdfrwt beam="1">  1       -4 0.10876548E-02 0.12500075E+03</pdfrwt>
<totfact> 0.44104617E+02</totfact>
</mgrwt>
</event>
<event>
 5    1  0.1422067E-002  0.1250010E+03  0.7818608E-02  0.1235068E+00
         -4   -1    0    0    0  501 -0.00000000000E+00  0.00000000000E+00  0.95022615104E+03  0.95022699973E+03  0.12700000000E+01 0.  1.
          4   -1    0    0  501    0  0.00000000000E+00 -0.00000000000E+00 -0.40119717277E+01  0.42081845425E+01  0.12700000000E+01 0.  1.
         25    2    1    2    0    0  0.00000000000E+00  0.00000000000E+00  0.94621417931E+03  0.95443518427E+03  0.12500099140E+03 0.  0.
    9000005    1    3    3    0    0  0.47379774735E+02 -0.40698214650E+02  0.45760091857E+03  0.46184498309E+03  0.10000000000E+01 0.  0.
    9000005    1    3    3    0    0 -0.47379774735E+02  0.40698214650E+02  0.48861326074E+03  0.49259020118E+03  0.10000000000E+01 0.  0.
<mgrwt>
<rscale>  0 0.12500099E+03</rscale>
<asrwt>0</asrwt>
<pdfrwt beam="2">  1        4 0.10276253E-02 0.12500099E+03</pdfrwt>
<pdfrwt beam="1">  1       -4 0.23758123E+00 0.12500099E+03</pdfrwt>
<totfact> 0.40259491E+02</totfact>
</mgrwt>
</event>
<event>
 5    1  0.1422067E-002  0.1250009E+03  0.7818608E-02  0.1235068E+00
         -4   -1    0    0    0  501 -0.00000000000E+00  0.00000000000E+00  0.12409145103E+03  0.12409794970E+03  0.12700000000E+01 0. -1.
          4   -1    0    0  501    0  0.00000000000E+00 -0.00000000000E+00 -0.31459113329E+02  0.31484737754E+02  0.12700000000E+01 0. -1.
         25    2    1    2    0    0  0.00000000000E+00  0.00000000000E+00  0.92632337704E+02  0.15558268745E+03  0.12500089058E+03 0.  0.
    9000005    1    3    3    0    0 -0.42197212923E+02  0.14657948331E+02 -0.80773646314E+01  0.45405991314E+02  0.10000000000E+01 0.  0.
    9000005    1    3    3    0    0  0.42197212923E+02 -0.14657948331E+02  0.10070970234E+03  0.11017669614E+03  0.10000000000E+01 0.  0.
<mgrwt>
<rscale>  0 0.12500089E+03</rscale>
<asrwt>0</asrwt>
<pdfrwt beam="2">  1        4 0.78687937E-02 0.12500089E+03</pdfrwt>
<pdfrwt beam="1">  1       -4 0.31026878E-01 0.12500089E+03</pdfrwt>
<totfact> 0.18267264E+03</totfact>
</mgrwt>
</event>
<event>
 5    1  0.1422067E-002  0.1249951E+03  0.7818608E-02  0.1235077E+00
          4   -1    0    0  501    0  0.00000000000E+00  0.00000000000E+00  0.55006920711E+02  0.55021579640E+02  0.12700000000E+01 0.  1.
         -4   -1    0    0    0  501 -0.00000000000E+00 -0.00000000000E+00 -0.70978377484E+02  0.70989738485E+02  0.12700000000E+01 0.  1.
         25    2    1    2    0    0  0.00000000000E+00  0.00000000000E+00 -0.15971456773E+02  0.12601131813E+03  0.12499505936E+03 0.  0.
    9000005    1    3    3    0    0  0.45101549080E+02  0.89756283636E+01 -0.50640838946E+02  0.68412032590E+02  0.10000000000E+01 0.  0.
    9000005    1    3    3    0    0 -0.45101549080E+02 -0.89756283636E+01  0.34669382173E+02  0.57599285536E+02  0.10000000000E+01 0.  0.
<mgrwt>
<rscale>  0 0.12499506E+03</rscale>
<asrwt>0</asrwt>
<pdfrwt beam="1">  1        4 0.13754983E-01 0.12499506E+03</pdfrwt>
<pdfrwt beam="2">  1       -4 0.17747847E-01 0.12499506E+03</pdfrwt>
<totfact> 0.19782595E+03</totfact>
</mgrwt>
</event>
<event>
 5    1  0.1422067E-002  0.1249990E+03  0.7818608E-02  0.1235071E+00
          4   -1    0    0  501    0  0.00000000000E+00  0.00000000000E+00  0.39592798794E+02  0.39613162161E+02  0.12700000000E+01 0. -1.
         -4   -1    0    0    0  501 -0.00000000000E+00 -0.00000000000E+00 -0.98609279961E+02  0.98617457858E+02  0.12700000000E+01 0. -1.
         25    2    1    2    0    0  0.00000000000E+00  0.00000000000E+00 -0.59016481167E+02  0.13823062002E+03  0.12499903704E+03 0.  0.
    9000005    1    3    3    0    0  0.13911067686E+02  0.32567646765E+01  0.37767885210E+02  0.40392294730E+02  0.10000000000E+01 0.  0.
    9000005    1    3    3    0    0 -0.13911067686E+02 -0.32567646765E+01 -0.96784366377E+02  0.97838325289E+02  0.10000000000E+01 0.  0.
<mgrwt>
<rscale>  0 0.12499904E+03</rscale>
<asrwt>0</asrwt>
<pdfrwt beam="1">  1        4 0.99017676E-02 0.12499904E+03</pdfrwt>
<pdfrwt beam="2">  1       -4 0.24655887E-01 0.12499904E+03</pdfrwt>
<totfact> 0.19131659E+03</totfact>
</mgrwt>
</event>
<event>
 5    1  0.1422067E-002  0.1250008E+03  0.7818608E-02  0.1235068E+00
         -4   -1    0    0    0  501 -0.00000000000E+00  0.00000000000E+00  0.85406865711E+01  0.86345947853E+01  0.12700000000E+01 0. -1.
          4   -1    0    0  501    0  0.00000000000E+00 -0.00000000000E+00 -0.45477951682E+03  0.45478129009E+03  0.12700000000E+01 0. -1.
         25    2    1    2    0    0  0.00000000000E+00  0.00000000000E+00 -0.44623883025E+03  0.46341588488E+03  0.12500075494E+03 0.  0.
    9000005    1    3    3    0    0 -0.64688184340E+00  0.43700991037E+02 -0.38871198435E+03  0.39116262840E+03  0.10000000000E+01 0.  0.
    9000005    1    3    3    0    0  0.64688184340E+00 -0.43700991037E+02 -0.57526845896E+02  0.72253256483E+02  0.10000000000E+01 0.  0.
<mgrwt>
<rscale>  0 0.12500075E+03</rscale>
<asrwt>0</asrwt>
<pdfrwt beam="2">  1        4 0.11370676E+00 0.12500075E+03</pdfrwt>
<pdfrwt beam="1">  1       -4 0.21471334E-02 0.12500075E+03</pdfrwt>
<totfact> 0.93655746E+02</totfact>
</mgrwt>
</event>
<event>
 5    1  0.1422067E-002  0.1250160E+03  0.7818608E-02  0.1235044E+00
         -4   -1    0    0    0  501 -0.00000000000E+00  0.00000000000E+00  0.80932252240E+02  0.80942216134E+02  0.12700000000E+01 0. -1.
          4   -1    0    0  501    0  0.00000000000E+00 -0.00000000000E+00 -0.48256727541E+02  0.48273436307E+02  0.12700000000E+01 0. -1.
         25    2    1    2    0    0  0.00000000000E+00  0.00000000000E+00  0.32675524699E+02  0.12921565244E+03  0.12501597866E+03 0.  0.
    9000005    1    3    3    0    0 -0.46414034057E+02 -0.36894403272E+02 -0.40947074262E+01  0.59440946990E+02  0.10000000000E+01 0.  0.
    9000005    1    3    3    0    0  0.46414034057E+02  0.36894403272E+02  0.36770232125E+02  0.69774705451E+02  0.10000000000E+01 0.  0.
<mgrwt>
<rscale>  0 0.12501598E+03</rscale>
<asrwt>0</asrwt>
<pdfrwt beam="2">  1        4 0.12067516E-01 0.12501598E+03</pdfrwt>
<pdfrwt beam="1">  1       -4 0.20236397E-01 0.12501598E+03</pdfrwt>
<totfact> 0.19599332E+03</totfact>
</mgrwt>
</event>
<event>
 5    1  0.1422067E-002  0.1250045E+03  0.7818608E-02  0.1235062E+00
         -4   -1    0    0    0  501 -0.00000000000E+00  0.00000000000E+00  0.53072332535E+03  0.53072484488E+03  0.12700000000E+01 0. -1.
          4   -1    0    0  501    0  0.00000000000E+00 -0.00000000000E+00 -0.73044413731E+01  0.74140248026E+01  0.12700000000E+01 0. -1.
         25    2    1    2    0    0  0.00000000000E+00  0.00000000000E+00  0.52341888398E+03  0.53813886968E+03  0.12500445975E+03 0.  0.
    9000005    1    3    3    0    0 -0.28291945360E+02 -0.55470766074E+02  0.28452517920E+03  0.29126108161E+03  0.10000000000E+01 0.  0.
    9000005    1    3    3    0    0  0.28291945360E+02  0.55470766074E+02  0.23889370477E+03  0.24687778807E+03  0.10000000000E+01 0.  0.
<mgrwt>
<rscale>  0 0.12500446E+03</rscale>
<asrwt>0</asrwt>
<pdfrwt beam="2">  1        4 0.18399981E-02 0.12500446E+03</pdfrwt>
<pdfrwt beam="1">  1       -4 0.13269473E+00 0.12500446E+03</pdfrwt>
<totfact> 0.81835761E+02</totfact>
</mgrwt>
</event>
<event>
 5    1  0.1422067E-002  0.1249986E+03  0.7818608E-02  0.1235071E+00
         -4   -1    0    0    0  501 -0.00000000000E+00  0.00000000000E+00  0.96418650719E+02  0.96427014402E+02  0.12700000000E+01 0. -1.
          4   -1    0    0  501    0  0.00000000000E+00 -0.00000000000E+00 -0.40492459339E+02  0.40512370498E+02  0.12700000000E+01 0. -1.
         25    2    1    2    0    0  0.00000000000E+00  0.00000000000E+00  0.55926191380E+02  0.13693938490E+03  0.12499862501E+03 0.  0.
    9000005    1    3    3    0    0 -0.47074835956E+02 -0.38449476915E+02  0.43867554254E+02  0.74965090352E+02  0.10000000000E+01 0.  0.
    9000005    1    3    3    0    0  0.47074835956E+02  0.38449476915E+02  0.12058637125E+02  0.61974294547E+02  0.10000000000E+01 0.  0.
<mgrwt>
<rscale>  0 0.12499863E+03</rscale>
<asrwt>0</asrwt>
<pdfrwt beam="2">  1        4 0.10126649E-01 0.12499863E+03</pdfrwt>
<pdfrwt beam="1">  1       -4 0.24108197E-01 0.12499863E+03</pdfrwt>
<totfact> 0.19198646E+03</totfact>
</mgrwt>
</event>
<event>
 5    1  0.1422067E-002  0.1249953E+03  0.7818608E-02  0.1235077E+00
         -4   -1    0    0    0  501 -0.00000000000E+00  0.00000000000E+00  0.10016223781E+04  0.10016231832E+04  0.12700000000E+01 0.  1.
          4   -1    0    0  501    0  0.00000000000E+00 -0.00000000000E+00 -0.37953990063E+01  0.40022435730E+01  0.12700000000E+01 0.  1.
         25    2    1    2    0    0  0.00000000000E+00  0.00000000000E+00  0.99782697905E+03  0.10056254268E+04  0.12499527532E+03 0.  0.
    9000005    1    3    3    0    0 -0.50416892496E+02 -0.34041154196E+02  0.38392144891E+03  0.38871241575E+03  0.10000000000E+01 0.  0.
    9000005    1    3    3    0    0  0.50416892496E+02  0.34041154196E+02  0.61390553014E+03  0.61691301102E+03  0.10000000000E+01 0.  0.
<mgrwt>
<rscale>  0 0.12499528E+03</rscale>
<asrwt>0</asrwt>
<pdfrwt beam="2">  1        4 0.97480563E-03 0.12499528E+03</pdfrwt>
<pdfrwt beam="1">  1       -4 0.25043164E+00 0.12499528E+03</pdfrwt>
<totfact> 0.36735979E+02</totfact>
</mgrwt>
</event>
<event>
 5    1  0.1422067E-002  0.1250065E+03  0.7818608E-02  0.1235059E+00
          4   -1    0    0  501    0  0.00000000000E+00  0.00000000000E+00  0.27221431735E+02  0.27251041186E+02  0.12700000000E+01 0.  1.
         -4   -1    0    0    0  501 -0.00000000000E+00 -0.00000000000E+00 -0.14340359183E+03  0.14340921536E+03  0.12700000000E+01 0.  1.
         25    2    1    2    0    0  0.00000000000E+00  0.00000000000E+00 -0.11618216009E+03  0.17066025654E+03  0.12500651519E+03 0.  0.
    9000005    1    3    3    0    0 -0.34776525677E+02 -0.27444553593E+02 -0.11826958483E+03  0.12629847567E+03  0.10000000000E+01 0.  0.
    9000005    1    3    3    0    0  0.34776525677E+02  0.27444553593E+02  0.20874247407E+01  0.44361780872E+02  0.10000000000E+01 0.  0.
<mgrwt>
<rscale>  0 0.12500652E+03</rscale>
<asrwt>0</asrwt>
<pdfrwt beam="1">  1        4 0.68097624E-02 0.12500652E+03</pdfrwt>
<pdfrwt beam="2">  1       -4 0.35855300E-01 0.12500652E+03</pdfrwt>
<totfact> 0.17564652E+03</totfact>
</mgrwt>
</event>
<event>
 5    1  0.1422067E-002  0.1250014E+03  0.7818608E-02  0.1235067E+00
          4   -1    0    0  501    0  0.00000000000E+00  0.00000000000E+00  0.92350890457E+01  0.93220045957E+01  0.12700000000E+01 0. -1.
         -4   -1    0    0    0  501 -0.00000000000E+00 -0.00000000000E+00 -0.42091938301E+03  0.42092129893E+03  0.12700000000E+01 0. -1.
         25    2    1    2    0    0  0.00000000000E+00  0.00000000000E+00 -0.41168429396E+03  0.43024330353E+03  0.12500136932E+03 0.  0.
    9000005    1    3    3    0    0  0.29561945922E+02  0.50226430615E+02 -0.28347474763E+03  0.28940548634E+03  0.10000000000E+01 0.  0.
    9000005    1    3    3    0    0 -0.29561945922E+02 -0.50226430615E+02 -0.12820954634E+03  0.14083781719E+03  0.10000000000E+01 0.  0.
<mgrwt>
<rscale>  0 0.12500137E+03</rscale>
<asrwt>0</asrwt>
<pdfrwt beam="1">  1        4 0.23198776E-02 0.12500137E+03</pdfrwt>
<pdfrwt beam="2">  1       -4 0.10524089E+00 0.12500137E+03</pdfrwt>
<totfact> 0.99672000E+02</totfact>
</mgrwt>
</event>
<event>
 5    1  0.1422067E-002  0.1250447E+03  0.7818608E-02  0.1234999E+00
          4   -1    0    0  501    0  0.00000000000E+00  0.00000000000E+00  0.15603135667E+03  0.15603652510E+03  0.12700000000E+01 0. -1.
         -4   -1    0    0    0  501 -0.00000000000E+00 -0.00000000000E+00 -0.25031246427E+02  0.25063443453E+02  0.12700000000E+01 0. -1.
         25    2    1    2    0    0  0.00000000000E+00  0.00000000000E+00  0.13100011024E+03  0.18109996855E+03  0.12504467092E+03 0.  0.
    9000005    1    3    3    0    0 -0.50709685289E+02  0.32633798718E+02  0.41631704367E+02  0.73284621916E+02  0.10000000000E+01 0.  0.
    9000005    1    3    3    0    0  0.50709685289E+02 -0.32633798718E+02  0.89368405876E+02  0.10781534663E+03  0.10000000000E+01 0.  0.
<mgrwt>
<rscale>  0 0.12504467E+03</rscale>
<asrwt>0</asrwt>
<pdfrwt beam="1">  1        4 0.39012509E-01 0.12504467E+03</pdfrwt>
<pdfrwt beam="2">  1       -4 0.62624824E-02 0.12504467E+03</pdfrwt>
<totfact> 0.17090005E+03</totfact>
</mgrwt>
</event>
<event>
 5    1  0.1422067E-002  0.1249870E+03  0.7818608E-02  0.1235090E+00
          4   -1    0    0  501    0  0.00000000000E+00  0.00000000000E+00  0.17647932778E+03  0.17648389738E+03  0.12700000000E+01 0.  1.
         -4   -1    0    0    0  501 -0.00000000000E+00 -0.00000000000E+00 -0.22106642793E+02  0.22143092728E+02  0.12700000000E+01 0.  1.
         25    2    1    2    0    0  0.00000000000E+00  0.00000000000E+00  0.15437268499E+03  0.19862699010E+03  0.12498702064E+03 0.  0.
    9000005    1    3    3    0    0 -0.42168948418E+02 -0.33875958386E+01  0.15026694597E+03  0.15611166217E+03  0.10000000000E+01 0.  0.
    9000005    1    3    3    0    0  0.42168948418E+02  0.33875958386E+01  0.41057390186E+01  0.42515327931E+02  0.10000000000E+01 0.  0.
<mgrwt>
<rscale>  0 0.12498702E+03</rscale>
<asrwt>0</asrwt>
<pdfrwt beam="1">  1        4 0.44124958E-01 0.12498702E+03</pdfrwt>
<pdfrwt beam="2">  1       -4 0.55317883E-02 0.12498702E+03</pdfrwt>
<totfact> 0.16382083E+03</totfact>
</mgrwt>
</event>
<event>
 5    1  0.1422067E-002  0.1249911E+03  0.7818608E-02  0.1235083E+00
         -4   -1    0    0    0  501 -0.00000000000E+00  0.00000000000E+00  0.17837698614E+03  0.17838150712E+03  0.12700000000E+01 0. -1.
          4   -1    0    0  501    0  0.00000000000E+00 -0.00000000000E+00 -0.21872498906E+02  0.21909338383E+02  0.12700000000E+01 0. -1.
         25    2    1    2    0    0  0.00000000000E+00  0.00000000000E+00  0.15650448723E+03  0.20029084551E+03  0.12499107276E+03 0.  0.
    9000005    1    3    3    0    0 -0.46447387830E+01 -0.34928501006E+02 -0.44423910267E+01  0.35528982802E+02  0.10000000000E+01 0.  0.
    9000005    1    3    3    0    0  0.46447387830E+01  0.34928501006E+02  0.16094687826E+03  0.16476186271E+03  0.10000000000E+01 0.  0.
<mgrwt>
<rscale>  0 0.12499107E+03</rscale>
<asrwt>0</asrwt>
<pdfrwt beam="2">  1        4 0.54732949E-02 0.12499107E+03</pdfrwt>
<pdfrwt beam="1">  1       -4 0.44599416E-01 0.12499107E+03</pdfrwt>
<totfact> 0.16313769E+03</totfact>
</mgrwt>
</event>
<event>
 5    1  0.1422067E-002  0.1249997E+03  0.7818608E-02  0.1235070E+00
         -4   -1    0    0    0  501 -0.00000000000E+00  0.00000000000E+00  0.72803488863E+01  0.73902895685E+01  0.12700000000E+01 0.  1.
          4   -1    0    0  501    0  0.00000000000E+00 -0.00000000000E+00 -0.53241333434E+03  0.53241484904E+03  0.12700000000E+01 0.  1.
         25    2    1    2    0    0  0.00000000000E+00  0.00000000000E+00 -0.52513298545E+03  0.53980513861E+03  0.12499974105E+03 0.  0.
    9000005    1    3    3    0    0  0.73633035589E+01 -0.56779596847E+02 -0.15442462574E+03  0.16470004825E+03  0.10000000000E+01 0.  0.
    9000005    1    3    3    0    0 -0.73633035589E+01  0.56779596847E+02 -0.37070835971E+03  0.37510509036E+03  0.10000000000E+01 0.  0.
<mgrwt>
<rscale>  0 0.12499974E+03</rscale>
<asrwt>0</asrwt>
<pdfrwt beam="2">  1        4 0.13311713E+00 0.12499974E+03</pdfrwt>
<pdfrwt beam="1">  1       -4 0.18340209E-02 0.12499974E+03</pdfrwt>
<totfact> 0.81605901E+02</totfact>
</mgrwt>
</event>
<event>
 5    1  0.1422067E-002  0.1249978E+03  0.7818608E-02  0.1235073E+00
          4   -1    0    0  501    0  0.00000000000E+00  0.00000000000E+00  0.69854907022E+02  0.69866450712E+02  0.12700000000E+01 0. -1.
         -4   -1    0    0    0  501 -0.00000000000E+00 -0.00000000000E+00 -0.55894109089E+02  0.55908535403E+02  0.12700000000E+01 0. -1.
         25    2    1    2    0    0  0.00000000000E+00  0.00000000000E+00  0.13960797933E+02  0.12577498612E+03  0.12499777299E+03 0.  0.
    9000005    1    3    3    0    0  0.43237128381E+02 -0.44732736275E+02  0.12902898910E+02  0.63544879932E+02  0.10000000000E+01 0.  0.
    9000005    1    3    3    0    0 -0.43237128381E+02  0.44732736275E+02  0.10578990230E+01  0.62230106183E+02  0.10000000000E+01 0.  0.
<mgrwt>
<rscale>  0 0.12499777E+03</rscale>
<asrwt>0</asrwt>
<pdfrwt beam="1">  1        4 0.17466973E-01 0.12499777E+03</pdfrwt>
<pdfrwt beam="2">  1       -4 0.13976774E-01 0.12499777E+03</pdfrwt>
<totfact> 0.19794116E+03</totfact>
</mgrwt>
</event>
<event>
 5    1  0.1422067E-002  0.1250030E+03  0.7818608E-02  0.1235065E+00
          4   -1    0    0  501    0  0.00000000000E+00  0.00000000000E+00  0.57389000690E+02  0.57403051315E+02  0.12700000000E+01 0.  1.
         -4   -1    0    0    0  501 -0.00000000000E+00 -0.00000000000E+00 -0.68041116073E+02  0.68052967434E+02  0.12700000000E+01 0.  1.
         25    2    1    2    0    0  0.00000000000E+00  0.00000000000E+00 -0.10652115383E+02  0.12545601875E+03  0.12500298028E+03 0.  0.
    9000005    1    3    3    0    0 -0.27509752046E+02 -0.39563909896E+02  0.34609445833E+02  0.59337198828E+02  0.10000000000E+01 0.  0.
    9000005    1    3    3    0    0  0.27509752046E+02  0.39563909896E+02 -0.45261561216E+02  0.66118819920E+02  0.10000000000E+01 0.  0.
<mgrwt>
<rscale>  0 0.12500298E+03</rscale>
<asrwt>0</asrwt>
<pdfrwt beam="1">  1        4 0.14350488E-01 0.12500298E+03</pdfrwt>
<pdfrwt beam="2">  1       -4 0.17013517E-01 0.12500298E+03</pdfrwt>
<totfact> 0.19808963E+03</totfact>
</mgrwt>
</event>
<event>
 5    1  0.1422067E-002  0.1249979E+03  0.7818608E-02  0.1235073E+00
         -4   -1    0    0    0  501 -0.00000000000E+00  0.00000000000E+00  0.20765337143E+03  0.20765725503E+03  0.12700000000E+01 0. -1.
          4   -1    0    0  501    0  0.00000000000E+00 -0.00000000000E+00 -0.18785258882E+02  0.18828139878E+02  0.12700000000E+01 0. -1.
         25    2    1    2    0    0  0.00000000000E+00  0.00000000000E+00  0.18886811255E+03  0.22648539491E+03  0.12499788066E+03 0.  0.
    9000005    1    3    3    0    0 -0.11071476698E+02  0.60593129688E+02  0.75343277242E+02  0.97322733147E+02  0.10000000000E+01 0.  0.
    9000005    1    3    3    0    0  0.11071476698E+02 -0.60593129688E+02  0.11352483531E+03  0.12916266176E+03  0.10000000000E+01 0.  0.
<mgrwt>
<rscale>  0 0.12499788E+03</rscale>
<asrwt>0</asrwt>
<pdfrwt beam="2">  1        4 0.47021604E-02 0.12499788E+03</pdfrwt>
<pdfrwt beam="1">  1       -4 0.51919188E-01 0.12499788E+03</pdfrwt>
<totfact> 0.15314463E+03</totfact>
</mgrwt>
</event>
<event>
 5    1  0.1422067E-002  0.1250040E+03  0.7818608E-02  0.1235063E+00
          4   -1    0    0  501    0  0.00000000000E+00  0.00000000000E+00  0.95207924912E+02  0.95216394944E+02  0.12700000000E+01 0. -1.
         -4   -1    0    0    0  501 -0.00000000000E+00 -0.00000000000E+00 -0.41011146167E+02  0.41030805621E+02  0.12700000000E+01 0. -1.
         25    2    1    2    0    0  0.00000000000E+00  0.00000000000E+00  0.54196778745E+02  0.13624720056E+03  0.12500403528E+03 0.  0.
    9000005    1    3    3    0    0 -0.22687981334E+02 -0.43496991495E+02  0.69294358892E+02  0.84908426792E+02  0.10000000000E+01 0.  0.
    9000005    1    3    3    0    0  0.22687981334E+02  0.43496991495E+02 -0.15097580146E+02  0.51338773772E+02  0.10000000000E+01 0.  0.
<mgrwt>
<rscale>  0 0.12500404E+03</rscale>
<asrwt>0</asrwt>
<pdfrwt beam="1">  1        4 0.23805497E-01 0.12500404E+03</pdfrwt>
<pdfrwt beam="2">  1       -4 0.10256303E-01 0.12500404E+03</pdfrwt>
<totfact> 0.19232198E+03</totfact>
</mgrwt>
</event>
<event>
 5    1  0.1422067E-002  0.1249996E+03  0.7818608E-02  0.1235070E+00
          4   -1    0    0  501    0  0.00000000000E+00  0.00000000000E+00  0.14792068030E+02  0.14846487012E+02  0.12700000000E+01 0.  1.
         -4   -1    0    0    0  501 -0.00000000000E+00 -0.00000000000E+00 -0.26353475641E+03  0.26353781652E+03  0.12700000000E+01 0.  1.
         25    2    1    2    0    0  0.00000000000E+00  0.00000000000E+00 -0.24874268838E+03  0.27838430353E+03  0.12499958172E+03 0.  0.
    9000005    1    3    3    0    0 -0.49031475068E+02 -0.60321516423E-02 -0.21065857541E+03  0.21629174968E+03  0.10000000000E+01 0.  0.
    9000005    1    3    3    0    0  0.49031475068E+02  0.60321516423E-02 -0.38084112967E+02  0.62092553854E+02  0.10000000000E+01 0.  0.
<mgrwt>
<rscale>  0 0.12499958E+03</rscale>
<asrwt>0</asrwt>
<pdfrwt beam="1">  1        4 0.37052027E-02 0.12499958E+03</pdfrwt>
<pdfrwt beam="2">  1       -4 0.65890859E-01 0.12499958E+03</pdfrwt>
<totfact> 0.13599391E+03</totfact>
</mgrwt>
</event>
<event>
 5    1  0.1422067E-002  0.1250037E+03  0.7818608E-02  0.1235064E+00
          4   -1    0    0  501    0  0.00000000000E+00  0.00000000000E+00  0.31048331928E+03  0.31048591667E+03  0.12700000000E+01 0. -1.
         -4   -1    0    0    0  501 -0.00000000000E+00 -0.00000000000E+00 -0.12547229966E+02  0.12611339335E+02  0.12700000000E+01 0. -1.
         25    2    1    2    0    0  0.00000000000E+00  0.00000000000E+00  0.29793608932E+03  0.32309725601E+03  0.12500369404E+03 0.  0.
    9000005    1    3    3    0    0 -0.16213784368E+02 -0.22618569837E+02  0.43403158591E+01  0.28183769208E+02  0.10000000000E+01 0.  0.
    9000005    1    3    3    0    0  0.16213784368E+02  0.22618569837E+02  0.29359577346E+03  0.29491348680E+03  0.10000000000E+01 0.  0.
<mgrwt>
<rscale>  0 0.12500369E+03</rscale>
<asrwt>0</asrwt>
<pdfrwt beam="1">  1        4 0.77629166E-01 0.12500369E+03</pdfrwt>
<pdfrwt beam="2">  1       -4 0.31451459E-02 0.12500369E+03</pdfrwt>
<totfact> 0.12346498E+03</totfact>
</mgrwt>
</event>
<event>
 5    1  0.1422067E-002  0.1249997E+03  0.7818608E-02  0.1235070E+00
          4   -1    0    0  501    0  0.00000000000E+00  0.00000000000E+00  0.23077662632E+03  0.23078012079E+03  0.12700000000E+01 0. -1.
         -4   -1    0    0    0  501 -0.00000000000E+00 -0.00000000000E+00 -0.16899004063E+02  0.16946658619E+02  0.12700000000E+01 0. -1.
         25    2    1    2    0    0  0.00000000000E+00  0.00000000000E+00  0.21387762225E+03  0.24772677941E+03  0.12499967975E+03 0.  0.
    9000005    1    3    3    0    0 -0.23956857746E+02 -0.50776924443E+02  0.16132171319E+03  0.17081546252E+03  0.10000000000E+01 0.  0.
    9000005    1    3    3    0    0  0.23956857746E+02  0.50776924443E+02  0.52555909060E+02  0.76911316892E+02  0.10000000000E+01 0.  0.
<mgrwt>
<rscale>  0 0.12499968E+03</rscale>
<asrwt>0</asrwt>
<pdfrwt beam="1">  1        4 0.57700549E-01 0.12499968E+03</pdfrwt>
<pdfrwt beam="2">  1       -4 0.42311447E-02 0.12499968E+03</pdfrwt>
<totfact> 0.14574020E+03</totfact>
</mgrwt>
</event>
<event>
 5    1  0.1422067E-002  0.1249878E+03  0.7818608E-02  0.1235088E+00
         -4   -1    0    0    0  501 -0.00000000000E+00  0.00000000000E+00  0.91642572475E+03  0.91642660475E+03  0.12700000000E+01 0.  1.
          4   -1    0    0  501    0  0.00000000000E+00 -0.00000000000E+00 -0.41661339047E+01  0.43554071810E+01  0.12700000000E+01 0.  1.
         25    2    1    2    0    0  0.00000000000E+00  0.00000000000E+00  0.91225959085E+03  0.92078201193E+03  0.12498780899E+03 0.  0.
    9000005    1    3    3    0    0 -0.14078889842E+02 -0.45399630894E+02  0.75493727000E+03  0.75643282799E+03  0.10000000000E+01 0.  0.
    9000005    1    3    3    0    0  0.14078889842E+02  0.45399630894E+02  0.15732232085E+03  0.16434918394E+03  0.10000000000E+01 0.  0.
<mgrwt>
<rscale>  0 0.12498781E+03</rscale>
<asrwt>0</asrwt>
<pdfrwt beam="2">  1        4 0.10653027E-02 0.12498781E+03</pdfrwt>
<pdfrwt beam="1">  1       -4 0.22913019E+00 0.12498781E+03</pdfrwt>
<totfact> 0.42722260E+02</totfact>
</mgrwt>
</event>
<event>
 5    1  0.1422067E-002  0.1250026E+03  0.7818608E-02  0.1235065E+00
          4   -1    0    0  501    0  0.00000000000E+00  0.00000000000E+00  0.50355517887E+03  0.50355678038E+03  0.12700000000E+01 0.  1.
         -4   -1    0    0    0  501 -0.00000000000E+00 -0.00000000000E+00 -0.77040566486E+01  0.78080336094E+01  0.12700000000E+01 0.  1.
         25    2    1    2    0    0  0.00000000000E+00  0.00000000000E+00  0.49585112222E+03  0.51136481399E+03  0.12500255029E+03 0.  0.
    9000005    1    3    3    0    0 -0.11266363348E+02  0.14522299707E+02  0.35831216885E+01  0.18752783604E+02  0.10000000000E+01 0.  0.
    9000005    1    3    3    0    0  0.11266363348E+02 -0.14522299707E+02  0.49226800053E+03  0.49261203038E+03  0.10000000000E+01 0.  0.
<mgrwt>
<rscale>  0 0.12500255E+03</rscale>
<asrwt>0</asrwt>
<pdfrwt beam="1">  1        4 0.12590199E+00 0.12500255E+03</pdfrwt>
<pdfrwt beam="2">  1       -4 0.19392115E-02 0.12500255E+03</pdfrwt>
<totfact> 0.85822178E+02</totfact>
</mgrwt>
</event>
<event>
 5    1  0.1422067E-002  0.1250013E+03  0.7818608E-02  0.1235067E+00
          4   -1    0    0  501    0  0.00000000000E+00  0.00000000000E+00  0.18264882090E+03  0.18265323615E+03  0.12700000000E+01 0.  1.
         -4   -1    0    0    0  501 -0.00000000000E+00 -0.00000000000E+00 -0.21363596762E+02  0.21401312264E+02  0.12700000000E+01 0.  1.
         25    2    1    2    0    0  0.00000000000E+00  0.00000000000E+00  0.16128522414E+03  0.20405454842E+03  0.12500134081E+03 0.  0.
    9000005    1    3    3    0    0  0.94200381346E+01 -0.60275153349E+02  0.10275586764E+03  0.11950564658E+03  0.10000000000E+01 0.  0.
    9000005    1    3    3    0    0 -0.94200381346E+01  0.60275153349E+02  0.58529356499E+02  0.84548901837E+02  0.10000000000E+01 0.  0.
<mgrwt>
<rscale>  0 0.12500134E+03</rscale>
<asrwt>0</asrwt>
<pdfrwt beam="1">  1        4 0.45667472E-01 0.12500134E+03</pdfrwt>
<pdfrwt beam="2">  1       -4 0.53461655E-02 0.12500134E+03</pdfrwt>
<totfact> 0.16160467E+03</totfact>
</mgrwt>
</event>
<event>
 5    1  0.1422067E-002  0.1250004E+03  0.7818608E-02  0.1235069E+00
          4   -1    0    0  501    0  0.00000000000E+00  0.00000000000E+00  0.48098399459E+02  0.48115163208E+02  0.12700000000E+01 0. -1.
         -4   -1    0    0    0  501 -0.00000000000E+00 -0.00000000000E+00 -0.81178348603E+02  0.81188282295E+02  0.12700000000E+01 0. -1.
         25    2    1    2    0    0  0.00000000000E+00  0.00000000000E+00 -0.33079949144E+02  0.12930344550E+03  0.12500039193E+03 0.  0.
    9000005    1    3    3    0    0  0.59798938488E+02 -0.16908037876E+02 -0.23360879965E+02  0.66396728096E+02  0.10000000000E+01 0.  0.
    9000005    1    3    3    0    0 -0.59798938488E+02  0.16908037876E+02 -0.97190691793E+01  0.62906717406E+02  0.10000000000E+01 0.  0.
<mgrwt>
<rscale>  0 0.12500039E+03</rscale>
<asrwt>0</asrwt>
<pdfrwt beam="1">  1        4 0.12027937E-01 0.12500039E+03</pdfrwt>
<pdfrwt beam="2">  1       -4 0.20297924E-01 0.12500039E+03</pdfrwt>
<totfact> 0.19601723E+03</totfact>
</mgrwt>
</event>
<event>
 5    1  0.1422067E-002  0.1250066E+03  0.7818608E-02  0.1235059E+00
         -4   -1    0    0    0  501 -0.00000000000E+00  0.00000000000E+00  0.29942661300E+02  0.29969582341E+02  0.12700000000E+01 0.  1.
          4   -1    0    0  501    0  0.00000000000E+00 -0.00000000000E+00 -0.13038280919E+03  0.13038899429E+03  0.12700000000E+01 0.  1.
         25    2    1    2    0    0  0.00000000000E+00  0.00000000000E+00 -0.10044014789E+03  0.16035857663E+03  0.12500659899E+03 0.  0.
    9000005    1    3    3    0    0  0.68246414702E+01 -0.39606224929E+02  0.11172820910E+02  0.41726019597E+02  0.10000000000E+01 0.  0.
    9000005    1    3    3    0    0 -0.68246414702E+01  0.39606224929E+02 -0.11161296880E+03  0.11863255703E+03  0.10000000000E+01 0.  0.
<mgrwt>
<rscale>  0 0.12500660E+03</rscale>
<asrwt>0</asrwt>
<pdfrwt beam="2">  1        4 0.32599839E-01 0.12500660E+03</pdfrwt>
<pdfrwt beam="1">  1       -4 0.74898039E-02 0.12500660E+03</pdfrwt>
<totfact> 0.18038126E+03</totfact>
</mgrwt>
</event>
<event>
 5    1  0.1422067E-002  0.1249990E+03  0.7818608E-02  0.1235071E+00
         -4   -1    0    0    0  501 -0.00000000000E+00  0.00000000000E+00  0.95334915936E+01  0.96177108485E+01  0.12700000000E+01 0.  1.
          4   -1    0    0  501    0  0.00000000000E+00 -0.00000000000E+00 -0.40784634613E+03  0.40784832346E+03  0.12700000000E+01 0.  1.
         25    2    1    2    0    0  0.00000000000E+00  0.00000000000E+00 -0.39831285454E+03  0.41746603431E+03  0.12499903886E+03 0.  0.
    9000005    1    3    3    0    0 -0.12131619949E+02 -0.31055780561E+02 -0.22636853642E+02  0.40312093119E+02  0.10000000000E+01 0.  0.
    9000005    1    3    3    0    0  0.12131619949E+02  0.31055780561E+02 -0.37567600089E+03  0.37715394119E+03  0.10000000000E+01 0.  0.
<mgrwt>
<rscale>  0 0.12499904E+03</rscale>
<asrwt>0</asrwt>
<pdfrwt beam="2">  1        4 0.10197230E+00 0.12499904E+03</pdfrwt>
<pdfrwt beam="1">  1       -4 0.23941488E-02 0.12499904E+03</pdfrwt>
<totfact> 0.10216444E+03</totfact>
</mgrwt>
</event>
<event>
 5    1  0.1422067E-002  0.1250002E+03  0.7818608E-02  0.1235069E+00
          4   -1    0    0  501    0  0.00000000000E+00  0.00000000000E+00  0.98705320937E+02  0.98713490878E+02  0.12700000000E+01 0.  1.
         -4   -1    0    0    0  501 -0.00000000000E+00 -0.00000000000E+00 -0.39554983899E+02  0.39575366723E+02  0.12700000000E+01 0.  1.
         25    2    1    2    0    0  0.00000000000E+00  0.00000000000E+00  0.59150337038E+02  0.13828885760E+03  0.12500018306E+03 0.  0.
    9000005    1    3    3    0    0  0.36779953391E+02 -0.49615027602E+02  0.40119723694E+02  0.73654654739E+02  0.10000000000E+01 0.  0.
    9000005    1    3    3    0    0 -0.36779953391E+02  0.49615027602E+02  0.19030613344E+02  0.64634202862E+02  0.10000000000E+01 0.  0.
<mgrwt>
<rscale>  0 0.12500018E+03</rscale>
<asrwt>0</asrwt>
<pdfrwt beam="1">  1        4 0.24679899E-01 0.12500018E+03</pdfrwt>
<pdfrwt beam="2">  1       -4 0.98923152E-02 0.12500018E+03</pdfrwt>
<totfact> 0.19128145E+03</totfact>
</mgrwt>
</event>
<event>
 5    1  0.1422067E-002  0.1249997E+03  0.7818608E-02  0.1235070E+00
         -4   -1    0    0    0  501 -0.00000000000E+00  0.00000000000E+00  0.11743522812E+02  0.11811995091E+02  0.12700000000E+01 0. -1.
          4   -1    0    0  501    0  0.00000000000E+00 -0.00000000000E+00 -0.33159218444E+03  0.33159461648E+03  0.12700000000E+01 0. -1.
         25    2    1    2    0    0  0.00000000000E+00  0.00000000000E+00 -0.31984866163E+03  0.34340661158E+03  0.12499973811E+03 0.  0.
    9000005    1    3    3    0    0  0.28314512884E+02  0.55660586263E+02 -0.15352780105E+03  0.16574558274E+03  0.10000000000E+01 0.  0.
    9000005    1    3    3    0    0 -0.28314512884E+02 -0.55660586263E+02 -0.16632086058E+03  0.17766102883E+03  0.10000000000E+01 0.  0.
<mgrwt>
<rscale>  0 0.12499974E+03</rscale>
<asrwt>0</asrwt>
<pdfrwt beam="2">  1        4 0.82906878E-01 0.12499974E+03</pdfrwt>
<pdfrwt beam="1">  1       -4 0.29447448E-02 0.12499974E+03</pdfrwt>
<totfact> 0.11836243E+03</totfact>
</mgrwt>
</event>
<event>
 4    1  0.1422067E-002  0.1249120E+03  0.7818608E-02  0.1235207E+00
          4   -1    0    0  501    0  0.00000000000E+00  0.00000000000E+00  0.49865356677E+01  0.51457203544E+01  0.12700000000E+01 0.  1.
         -4   -1    0    0    0  501 -0.00000000000E+00 -0.00000000000E+00 -0.76980766702E+03  0.76980871462E+03  0.12700000000E+01 0.  1.
    9000005    1    1    2    0    0  0.67377714101E+00 -0.28080422835E+01  0.46025301606E+01  0.55247046058E+01  0.10000000000E+01 0.  0.
    9000005    1    1    2    0    0 -0.67377714101E+00  0.28080422835E+01 -0.76942366151E+03  0.76942973037E+03  0.10000000000E+01 0.  0.
<mgrwt>
<rscale>  0 0.12491202E+03</rscale>
<asrwt>0</asrwt>
<pdfrwt beam="1">  1        4 0.12666656E-02 0.12491202E+03</pdfrwt>
<pdfrwt beam="2">  1       -4 0.19247155E+00 0.12491202E+03</pdfrwt>
<totfact> 0.54845244E+02</totfact>
</mgrwt>
</event>
<event>
 5    1  0.1422067E-002  0.1249777E+03  0.7818608E-02  0.1235104E+00
         -4   -1    0    0    0  501 -0.00000000000E+00  0.00000000000E+00  0.42717723222E+02  0.42736597633E+02  0.12700000000E+01 0.  1.
          4   -1    0    0  501    0  0.00000000000E+00 -0.00000000000E+00 -0.91367194875E+02  0.91376020921E+02  0.12700000000E+01 0.  1.
         25    2    1    2    0    0  0.00000000000E+00  0.00000000000E+00 -0.48649471653E+02  0.13411261855E+03  0.12497769146E+03 0.  0.
    9000005    1    3    3    0    0 -0.20447551401E+02  0.56283057987E+02 -0.51896326248E+01  0.60115033573E+02  0.10000000000E+01 0.  0.
    9000005    1    3    3    0    0  0.20447551401E+02 -0.56283057987E+02 -0.43459839028E+02  0.73997584981E+02  0.10000000000E+01 0.  0.
<mgrwt>
<rscale>  0 0.12497769E+03</rscale>
<asrwt>0</asrwt>
<pdfrwt beam="2">  1        4 0.22845261E-01 0.12497769E+03</pdfrwt>
<pdfrwt beam="1">  1       -4 0.10682894E-01 0.12497769E+03</pdfrwt>
<totfact> 0.19355792E+03</totfact>
</mgrwt>
</event>
<event>
 5    1  0.1422067E-002  0.1249993E+03  0.7818608E-02  0.1235070E+00
          4   -1    0    0  501    0  0.00000000000E+00  0.00000000000E+00  0.64581686643E+02  0.64594172722E+02  0.12700000000E+01 0.  1.
         -4   -1    0    0    0  501 -0.00000000000E+00 -0.00000000000E+00 -0.60459705357E+02  0.60473042522E+02  0.12700000000E+01 0.  1.
         25    2    1    2    0    0  0.00000000000E+00  0.00000000000E+00  0.41219812860E+01  0.12506721524E+03  0.12499927040E+03 0.  0.
    9000005    1    3    3    0    0  0.32838871427E+02 -0.42048227151E+02 -0.30495281139E+02  0.61460613850E+02  0.10000000000E+01 0.  0.
    9000005    1    3    3    0    0 -0.32838871427E+02  0.42048227151E+02  0.34617262425E+02  0.63606601394E+02  0.10000000000E+01 0.  0.
<mgrwt>
<rscale>  0 0.12499927E+03</rscale>
<asrwt>0</asrwt>
<pdfrwt beam="1">  1        4 0.16148650E-01 0.12499927E+03</pdfrwt>
<pdfrwt beam="2">  1       -4 0.15118154E-01 0.12499927E+03</pdfrwt>
<totfact> 0.19831749E+03</totfact>
</mgrwt>
</event>
<event>
 5    1  0.1422067E-002  0.1249994E+03  0.7818608E-02  0.1235070E+00
          4   -1    0    0  501    0  0.00000000000E+00  0.00000000000E+00  0.15948894647E+03  0.15949400285E+03  0.12700000000E+01 0.  1.
         -4   -1    0    0    0  501 -0.00000000000E+00 -0.00000000000E+00 -0.24470137904E+02  0.24503072236E+02  0.12700000000E+01 0.  1.
         25    2    1    2    0    0  0.00000000000E+00  0.00000000000E+00  0.13501880857E+03  0.18399707509E+03  0.12499937990E+03 0.  0.
    9000005    1    3    3    0    0  0.20141817516E+02  0.11142077761E+02 -0.18009852284E+02  0.29243691439E+02  0.10000000000E+01 0.  0.
    9000005    1    3    3    0    0 -0.20141817516E+02 -0.11142077761E+02  0.15302866085E+03  0.15475338365E+03  0.10000000000E+01 0.  0.
<mgrwt>
<rscale>  0 0.12499938E+03</rscale>
<asrwt>0</asrwt>
<pdfrwt beam="1">  1        4 0.39876985E-01 0.12499938E+03</pdfrwt>
<pdfrwt beam="2">  1       -4 0.61222834E-02 0.12499938E+03</pdfrwt>
<totfact> 0.16983779E+03</totfact>
</mgrwt>
</event>
<event>
 5    1  0.1422067E-002  0.1250263E+03  0.7818608E-02  0.1235028E+00
          4   -1    0    0  501    0  0.00000000000E+00  0.00000000000E+00  0.16044223303E+03  0.16044725937E+03  0.12700000000E+01 0.  1.
         -4   -1    0    0    0  501 -0.00000000000E+00 -0.00000000000E+00 -0.24335043181E+02  0.24368160100E+02  0.12700000000E+01 0.  1.
         25    2    1    2    0    0  0.00000000000E+00  0.00000000000E+00  0.13610718985E+03  0.18481541947E+03  0.12502628582E+03 0.  0.
    9000005    1    3    3    0    0  0.28986264259E+02  0.13225799050E+02 -0.11437518182E+02  0.33866533605E+02  0.10000000000E+01 0.  0.
    9000005    1    3    3    0    0 -0.28986264259E+02 -0.13225799050E+02  0.14754470803E+03  0.15094888587E+03  0.10000000000E+01 0.  0.
<mgrwt>
<rscale>  0 0.12502629E+03</rscale>
<asrwt>0</asrwt>
<pdfrwt beam="1">  1        4 0.40115325E-01 0.12502629E+03</pdfrwt>
<pdfrwt beam="2">  1       -4 0.60885288E-02 0.12502629E+03</pdfrwt>
<totfact> 0.16938357E+03</totfact>
</mgrwt>
</event>
<event>
 5    1  0.1422067E-002  0.1250010E+03  0.7818608E-02  0.1235068E+00
          4   -1    0    0  501    0  0.00000000000E+00  0.00000000000E+00  0.52528826227E+03  0.52528979752E+03  0.12700000000E+01 0. -1.
         -4   -1    0    0    0  501 -0.00000000000E+00 -0.00000000000E+00 -0.73807364959E+01  0.74892036441E+01  0.12700000000E+01 0. -1.
         25    2    1    2    0    0  0.00000000000E+00  0.00000000000E+00  0.51790752577E+03  0.53277900116E+03  0.12500103531E+03 0.  0.
    9000005    1    3    3    0    0  0.17194552346E+02 -0.42848541874E+02  0.79451788224E+02  0.91897969636E+02  0.10000000000E+01 0.  0.
    9000005    1    3    3    0    0 -0.17194552346E+02  0.42848541874E+02  0.43845573755E+03  0.44088103153E+03  0.10000000000E+01 0.  0.
<mgrwt>
<rscale>  0 0.12500104E+03</rscale>
<asrwt>0</asrwt>
<pdfrwt beam="1">  1        4 0.13133583E+00 0.12500104E+03</pdfrwt>
<pdfrwt beam="2">  1       -4 0.18589343E-02 0.12500104E+03</pdfrwt>
<totfact> 0.82616915E+02</totfact>
</mgrwt>
</event>
<event>
 5    1  0.1422067E-002  0.1250025E+03  0.7818608E-02  0.1235065E+00
          4   -1    0    0  501    0  0.00000000000E+00  0.00000000000E+00  0.59612496466E+02  0.59626023136E+02  0.12700000000E+01 0.  1.
         -4   -1    0    0    0  501 -0.00000000000E+00 -0.00000000000E+00 -0.65502824572E+02  0.65515135098E+02  0.12700000000E+01 0.  1.
         25    2    1    2    0    0  0.00000000000E+00  0.00000000000E+00 -0.58903281056E+01  0.12514115823E+03  0.12500245405E+03 0.  0.
    9000005    1    3    3    0    0  0.35827809077E+02  0.51002520907E+02 -0.74794654063E+01  0.62784006282E+02  0.10000000000E+01 0.  0.
    9000005    1    3    3    0    0 -0.35827809077E+02 -0.51002520907E+02  0.15891373006E+01  0.62357151951E+02  0.10000000000E+01 0.  0.
<mgrwt>
<rscale>  0 0.12500245E+03</rscale>
<asrwt>0</asrwt>
<pdfrwt beam="1">  1        4 0.14906354E-01 0.12500245E+03</pdfrwt>
<pdfrwt beam="2">  1       -4 0.16378936E-01 0.12500245E+03</pdfrwt>
<totfact> 0.19826264E+03</totfact>
</mgrwt>
</event>
<event>
 5    1  0.1422067E-002  0.1249933E+03  0.7818608E-02  0.1235080E+00
          4   -1    0    0  501    0  0.00000000000E+00  0.00000000000E+00  0.13973985288E+02  0.14031577418E+02  0.12700000000E+01 0. -1.
         -4   -1    0    0    0  501 -0.00000000000E+00 -0.00000000000E+00 -0.27887327987E+03  0.27887617167E+03  0.12700000000E+01 0. -1.
         25    2    1    2    0    0  0.00000000000E+00  0.00000000000E+00 -0.26489929458E+03  0.29290774909E+03  0.12499325264E+03 0.  0.
    9000005    1    3    3    0    0  0.29269343731E+02  0.17953358808E+01 -0.26175948419E+03  0.26339883310E+03  0.10000000000E+01 0.  0.
    9000005    1    3    3    0    0 -0.29269343731E+02 -0.17953358808E+01 -0.31398103861E+01  0.29508915985E+02  0.10000000000E+01 0.  0.
<mgrwt>
<rscale>  0 0.12499325E+03</rscale>
<asrwt>0</asrwt>
<pdfrwt beam="1">  1        4 0.35010577E-02 0.12499325E+03</pdfrwt>
<pdfrwt beam="2">  1       -4 0.69725862E-01 0.12499325E+03</pdfrwt>
<totfact> 0.13174223E+03</totfact>
</mgrwt>
</event>
<event>
 5    1  0.1422067E-002  0.1249909E+03  0.7818608E-02  0.1235083E+00
          4   -1    0    0  501    0  0.00000000000E+00  0.00000000000E+00  0.76321191606E+02  0.76331757403E+02  0.12700000000E+01 0. -1.
         -4   -1    0    0    0  501 -0.00000000000E+00 -0.00000000000E+00 -0.51152298056E+02  0.51168061292E+02  0.12700000000E+01 0. -1.
         25    2    1    2    0    0  0.00000000000E+00  0.00000000000E+00  0.25168893550E+02  0.12749981869E+03  0.12499092193E+03 0.  0.
    9000005    1    3    3    0    0  0.59895821313E+02 -0.17809064851E+02  0.12480222157E+02  0.63729335057E+02  0.10000000000E+01 0.  0.
    9000005    1    3    3    0    0 -0.59895821313E+02  0.17809064851E+02  0.12688671393E+02  0.63770483638E+02  0.10000000000E+01 0.  0.
<mgrwt>
<rscale>  0 0.12499092E+03</rscale>
<asrwt>0</asrwt>
<pdfrwt beam="1">  1        4 0.19083589E-01 0.12499092E+03</pdfrwt>
<pdfrwt beam="2">  1       -4 0.12791366E-01 0.12499092E+03</pdfrwt>
<totfact> 0.19703969E+03</totfact>
</mgrwt>
</event>
<event>
 5    1  0.1422067E-002  0.1249942E+03  0.7818608E-02  0.1235078E+00
          4   -1    0    0  501    0  0.00000000000E+00  0.00000000000E+00  0.33703723825E+03  0.33703963101E+03  0.12700000000E+01 0. -1.
         -4   -1    0    0    0  501 -0.00000000000E+00 -0.00000000000E+00 -0.11551645842E+02  0.11621248714E+02  0.12700000000E+01 0. -1.
         25    2    1    2    0    0  0.00000000000E+00  0.00000000000E+00  0.32548559241E+03  0.34866087972E+03  0.12499415259E+03 0.  0.
    9000005    1    3    3    0    0 -0.57106736540E+02  0.15639961238E+02  0.21846812602E+03  0.22635173919E+03  0.10000000000E+01 0.  0.
    9000005    1    3    3    0    0  0.57106736540E+02 -0.15639961238E+02  0.10701746639E+03  0.12230914054E+03  0.10000000000E+01 0.  0.
<mgrwt>
<rscale>  0 0.12499415E+03</rscale>
<asrwt>0</asrwt>
<pdfrwt beam="1">  1        4 0.84268313E-01 0.12499415E+03</pdfrwt>
<pdfrwt beam="2">  1       -4 0.28969108E-02 0.12499415E+03</pdfrwt>
<totfact> 0.11710888E+03</totfact>
</mgrwt>
</event>
<event>
 5    1  0.1422067E-002  0.1249976E+03  0.7818608E-02  0.1235073E+00
          4   -1    0    0  501    0  0.00000000000E+00  0.00000000000E+00  0.23226801572E+03  0.23227148776E+03  0.12700000000E+01 0.  1.
         -4   -1    0    0    0  501 -0.00000000000E+00 -0.00000000000E+00 -0.16789643195E+02  0.16837607271E+02  0.12700000000E+01 0.  1.
         25    2    1    2    0    0  0.00000000000E+00  0.00000000000E+00  0.21547837253E+03  0.24910909503E+03  0.12499764879E+03 0.  0.
    9000005    1    3    3    0    0  0.47639393602E+02  0.25201025490E+02  0.17077628071E+03  0.17908138251E+03  0.10000000000E+01 0.  0.
    9000005    1    3    3    0    0 -0.47639393602E+02 -0.25201025490E+02  0.44702091816E+02  0.70027712523E+02  0.10000000000E+01 0.  0.
<mgrwt>
<rscale>  0 0.12499765E+03</rscale>
<asrwt>0</asrwt>
<pdfrwt beam="1">  1        4 0.58073433E-01 0.12499765E+03</pdfrwt>
<pdfrwt beam="2">  1       -4 0.42038404E-02 0.12499765E+03</pdfrwt>
<totfact> 0.14528457E+03</totfact>
</mgrwt>
</event>
<event>
 5    1  0.1422067E-002  0.1249972E+03  0.7818608E-02  0.1235074E+00
          4   -1    0    0  501    0  0.00000000000E+00  0.00000000000E+00  0.10340534732E+03  0.10341314595E+03  0.12700000000E+01 0.  1.
         -4   -1    0    0    0  501 -0.00000000000E+00 -0.00000000000E+00 -0.37754470275E+02  0.37775824620E+02  0.12700000000E+01 0.  1.
         25    2    1    2    0    0  0.00000000000E+00  0.00000000000E+00  0.65650877047E+02  0.14118897057E+03  0.12499715098E+03 0.  0.
    9000005    1    3    3    0    0  0.47170568343E+02 -0.38480321009E+02  0.16880372557E+02  0.63180254830E+02  0.10000000000E+01 0.  0.
    9000005    1    3    3    0    0 -0.47170568343E+02  0.38480321009E+02  0.48770504489E+02  0.78008715737E+02  0.10000000000E+01 0.  0.
<mgrwt>
<rscale>  0 0.12499715E+03</rscale>
<asrwt>0</asrwt>
<pdfrwt beam="1">  1        4 0.25854981E-01 0.12499715E+03</pdfrwt>
<pdfrwt beam="2">  1       -4 0.94422617E-02 0.12499715E+03</pdfrwt>
<totfact> 0.18980942E+03</totfact>
</mgrwt>
</event>
<event>
 5    1  0.1422067E-002  0.1250047E+03  0.7818608E-02  0.1235062E+00
          4   -1    0    0  501    0  0.00000000000E+00  0.00000000000E+00  0.26994065046E+03  0.26994363795E+03  0.12700000000E+01 0.  1.
         -4   -1    0    0    0  501 -0.00000000000E+00 -0.00000000000E+00 -0.14440924378E+02  0.14496661577E+02  0.12700000000E+01 0.  1.
         25    2    1    2    0    0  0.00000000000E+00  0.00000000000E+00  0.25549972608E+03  0.28444029952E+03  0.12500469578E+03 0.  0.
    9000005    1    3    3    0    0  0.51964001535E+02 -0.25269573630E+02  0.73580379340E+02  0.93562177352E+02  0.10000000000E+01 0.  0.
    9000005    1    3    3    0    0 -0.51964001535E+02  0.25269573630E+02  0.18191934674E+03  0.19087812217E+03  0.10000000000E+01 0.  0.
<mgrwt>
<rscale>  0 0.12500470E+03</rscale>
<asrwt>0</asrwt>
<pdfrwt beam="1">  1        4 0.67492505E-01 0.12500470E+03</pdfrwt>
<pdfrwt beam="2">  1       -4 0.36175716E-02 0.12500470E+03</pdfrwt>
<totfact> 0.13417185E+03</totfact>
</mgrwt>
</event>
<event>
 5    1  0.1422067E-002  0.1250018E+03  0.7818608E-02  0.1235066E+00
         -4   -1    0    0    0  501 -0.00000000000E+00  0.00000000000E+00  0.55702848829E+02  0.55717324663E+02  0.12700000000E+01 0.  1.
          4   -1    0    0  501    0  0.00000000000E+00 -0.00000000000E+00 -0.70099260501E+02  0.70110763958E+02  0.12700000000E+01 0.  1.
         25    2    1    2    0    0  0.00000000000E+00  0.00000000000E+00 -0.14396411672E+02  0.12582808862E+03  0.12500180486E+03 0.  0.
    9000005    1    3    3    0    0 -0.53246386614E+02  0.28288923001E+02  0.93396963550E+01  0.61021887712E+02  0.10000000000E+01 0.  0.
    9000005    1    3    3    0    0  0.53246386614E+02 -0.28288923001E+02 -0.23736108027E+02  0.64806200909E+02  0.10000000000E+01 0.  0.
<mgrwt>
<rscale>  0 0.12500180E+03</rscale>
<asrwt>0</asrwt>
<pdfrwt beam="2">  1        4 0.17528063E-01 0.12500180E+03</pdfrwt>
<pdfrwt beam="1">  1       -4 0.13928960E-01 0.12500180E+03</pdfrwt>
<totfact> 0.19789377E+03</totfact>
</mgrwt>
</event>
<event>
 5    1  0.1422067E-002  0.1250086E+03  0.7818608E-02  0.1235056E+00
          4   -1    0    0  501    0  0.00000000000E+00  0.00000000000E+00  0.11805562684E+02  0.11873677202E+02  0.12700000000E+01 0.  1.
         -4   -1    0    0    0  501 -0.00000000000E+00 -0.00000000000E+00 -0.32990632077E+03  0.32990876525E+03  0.12700000000E+01 0.  1.
         25    2    1    2    0    0  0.00000000000E+00  0.00000000000E+00 -0.31810075809E+03  0.34178244245E+03  0.12500858238E+03 0.  0.
    9000005    1    3    3    0    0  0.51508051453E+02 -0.45540831182E+01 -0.25501464001E+03  0.26020623678E+03  0.10000000000E+01 0.  0.
    9000005    1    3    3    0    0 -0.51508051453E+02  0.45540831182E+01 -0.63086118079E+02  0.81576205672E+02  0.10000000000E+01 0.  0.
<mgrwt>
<rscale>  0 0.12500858E+03</rscale>
<asrwt>0</asrwt>
<pdfrwt beam="1">  1        4 0.29602116E-02 0.12500858E+03</pdfrwt>
<pdfrwt beam="2">  1       -4 0.82485370E-01 0.12500858E+03</pdfrwt>
<totfact> 0.11873547E+03</totfact>
</mgrwt>
</event>
<event>
 5    1  0.1422067E-002  0.1249998E+03  0.7818608E-02  0.1235070E+00
          4   -1    0    0  501    0  0.00000000000E+00  0.00000000000E+00  0.17977102352E+03  0.17977550945E+03  0.12700000000E+01 0. -1.
         -4   -1    0    0    0  501 -0.00000000000E+00 -0.00000000000E+00 -0.21705650088E+02  0.21742772264E+02  0.12700000000E+01 0. -1.
         25    2    1    2    0    0  0.00000000000E+00  0.00000000000E+00  0.15806537343E+03  0.20151828171E+03  0.12499982234E+03 0.  0.
    9000005    1    3    3    0    0 -0.49643572271E+02 -0.34587066662E+02  0.53824876760E+02  0.80986831068E+02  0.10000000000E+01 0.  0.
    9000005    1    3    3    0    0  0.49643572271E+02  0.34587066662E+02  0.10424049667E+03  0.12053145064E+03  0.10000000000E+01 0.  0.
<mgrwt>
<rscale>  0 0.12499982E+03</rscale>
<asrwt>0</asrwt>
<pdfrwt beam="1">  1        4 0.44947956E-01 0.12499982E+03</pdfrwt>
<pdfrwt beam="2">  1       -4 0.54316136E-02 0.12499982E+03</pdfrwt>
<totfact> 0.16261494E+03</totfact>
</mgrwt>
</event>
<event>
 5    1  0.1422067E-002  0.1250056E+03  0.7818608E-02  0.1235061E+00
         -4   -1    0    0    0  501 -0.00000000000E+00  0.00000000000E+00  0.14146230454E+03  0.14146800524E+03  0.12700000000E+01 0. -1.
          4   -1    0    0  501    0  0.00000000000E+00 -0.00000000000E+00 -0.27594958483E+02  0.27624167565E+02  0.12700000000E+01 0. -1.
         25    2    1    2    0    0  0.00000000000E+00  0.00000000000E+00  0.11386734606E+03  0.16909217281E+03  0.12500556150E+03 0.  0.
    9000005    1    3    3    0    0 -0.14593867332E+02 -0.51081618873E+02  0.12412612147E+02  0.54565425782E+02  0.10000000000E+01 0.  0.
    9000005    1    3    3    0    0  0.14593867332E+02  0.51081618873E+02  0.10145473392E+03  0.11452674703E+03  0.10000000000E+01 0.  0.
<mgrwt>
<rscale>  0 0.12500556E+03</rscale>
<asrwt>0</asrwt>
<pdfrwt beam="2">  1        4 0.69031034E-02 0.12500556E+03</pdfrwt>
<pdfrwt beam="1">  1       -4 0.35369939E-01 0.12500556E+03</pdfrwt>
<totfact> 0.17635795E+03</totfact>
</mgrwt>
</event>
<event>
 5    1  0.1422067E-002  0.1250020E+03  0.7818608E-02  0.1235066E+00
          4   -1    0    0  501    0  0.00000000000E+00  0.00000000000E+00  0.92931405548E+03  0.92931492327E+03  0.12700000000E+01 0. -1.
         -4   -1    0    0    0  501 -0.00000000000E+00 -0.00000000000E+00 -0.41066856551E+01  0.42985773309E+01  0.12700000000E+01 0. -1.
         25    2    1    2    0    0  0.00000000000E+00  0.00000000000E+00  0.92520736982E+03  0.93361350060E+03  0.12500196529E+03 0.  0.
    9000005    1    3    3    0    0  0.10419286613E+02 -0.33472226659E+02  0.84899514945E+03  0.84971919791E+03  0.10000000000E+01 0.  0.
    9000005    1    3    3    0    0 -0.10419286613E+02  0.33472226659E+02  0.76212220367E+02  0.83894302693E+02  0.10000000000E+01 0.  0.
<mgrwt>
<rscale>  0 0.12500197E+03</rscale>
<asrwt>0</asrwt>
<pdfrwt beam="1">  1        4 0.23235262E+00 0.12500197E+03</pdfrwt>
<pdfrwt beam="2">  1       -4 0.10507663E-02 0.12500197E+03</pdfrwt>
<totfact> 0.41761495E+02</totfact>
</mgrwt>
</event>
<event>
 5    1  0.1422067E-002  0.1249999E+03  0.7818608E-02  0.1235069E+00
         -4   -1    0    0    0  501 -0.00000000000E+00  0.00000000000E+00  0.40728511075E+02  0.40748306890E+02  0.12700000000E+01 0. -1.
          4   -1    0    0  501    0  0.00000000000E+00 -0.00000000000E+00 -0.95862041813E+02  0.95870454054E+02  0.12700000000E+01 0. -1.
         25    2    1    2    0    0  0.00000000000E+00  0.00000000000E+00 -0.55133530738E+02  0.13661876094E+03  0.12499991852E+03 0.  0.
    9000005    1    3    3    0    0  0.46117687408E+01  0.50825409645E+02 -0.66985096723E+02  0.84216945204E+02  0.10000000000E+01 0.  0.
    9000005    1    3    3    0    0 -0.46117687408E+01 -0.50825409645E+02  0.11851565985E+02  0.52401815740E+02  0.10000000000E+01 0.  0.
<mgrwt>
<rscale>  0 0.12499992E+03</rscale>
<asrwt>0</asrwt>
<pdfrwt beam="2">  1        4 0.23969036E-01 0.12499992E+03</pdfrwt>
<pdfrwt beam="1">  1       -4 0.10185654E-01 0.12499992E+03</pdfrwt>
<totfact> 0.19214717E+03</totfact>
</mgrwt>
</event>
<event>
 5    1  0.1422067E-002  0.1249965E+03  0.7818608E-02  0.1235075E+00
         -4   -1    0    0    0  501 -0.00000000000E+00  0.00000000000E+00  0.27889013565E+02  0.27917914995E+02  0.12700000000E+01 0.  1.
          4   -1    0    0  501    0  0.00000000000E+00 -0.00000000000E+00 -0.13995203056E+03  0.13995779278E+03  0.12700000000E+01 0.  1.
         25    2    1    2    0    0  0.00000000000E+00  0.00000000000E+00 -0.11206301700E+03  0.16787570777E+03  0.12499653388E+03 0.  0.
    9000005    1    3    3    0    0 -0.47742920964E+02  0.18338837154E+02 -0.78064691672E+01  0.51745921687E+02  0.10000000000E+01 0.  0.
    9000005    1    3    3    0    0  0.47742920964E+02 -0.18338837154E+02 -0.10425654783E+03  0.11612978609E+03  0.10000000000E+01 0.  0.
<mgrwt>
<rscale>  0 0.12499653E+03</rscale>
<asrwt>0</asrwt>
<pdfrwt beam="2">  1        4 0.34992339E-01 0.12499653E+03</pdfrwt>
<pdfrwt beam="1">  1       -4 0.69765867E-02 0.12499653E+03</pdfrwt>
<totfact> 0.17694714E+03</totfact>
</mgrwt>
</event>
<event>
 5    1  0.1422067E-002  0.1249971E+03  0.7818608E-02  0.1235074E+00
         -4   -1    0    0    0  501 -0.00000000000E+00  0.00000000000E+00  0.76176580748E+02  0.76187166599E+02  0.12700000000E+01 0. -1.
          4   -1    0    0  501    0  0.00000000000E+00 -0.00000000000E+00 -0.51254470662E+02  0.51270202485E+02  0.12700000000E+01 0. -1.
         25    2    1    2    0    0  0.00000000000E+00  0.00000000000E+00  0.24922110086E+02  0.12745736908E+03  0.12499707742E+03 0.  0.
    9000005    1    3    3    0    0  0.15384072836E+02  0.16288421243E+02  0.71945236236E+02  0.75359799500E+02  0.10000000000E+01 0.  0.
    9000005    1    3    3    0    0 -0.15384072836E+02 -0.16288421243E+02 -0.47023126151E+02  0.52097569584E+02  0.10000000000E+01 0.  0.
<mgrwt>
<rscale>  0 0.12499708E+03</rscale>
<asrwt>0</asrwt>
<pdfrwt beam="2">  1        4 0.12816907E-01 0.12499708E+03</pdfrwt>
<pdfrwt beam="1">  1       -4 0.19047435E-01 0.12499708E+03</pdfrwt>
<totfact> 0.19703456E+03</totfact>
</mgrwt>
</event>
<event>
 5    1  0.1422067E-002  0.1250038E+03  0.7818608E-02  0.1235063E+00
          4   -1    0    0  501    0  0.00000000000E+00  0.00000000000E+00  0.30875548065E+03  0.30875809258E+03  0.12700000000E+01 0. -1.
         -4   -1    0    0    0  501 -0.00000000000E+00 -0.00000000000E+00 -0.12617815833E+02  0.12681568373E+02  0.12700000000E+01 0. -1.
         25    2    1    2    0    0  0.00000000000E+00  0.00000000000E+00  0.29613766482E+03  0.32143966095E+03  0.12500375638E+03 0.  0.
    9000005    1    3    3    0    0  0.40631418575E+02 -0.36055052675E+02  0.22751783089E+03  0.23391503238E+03  0.10000000000E+01 0.  0.
    9000005    1    3    3    0    0 -0.40631418575E+02  0.36055052675E+02  0.68619833930E+02  0.87524628577E+02  0.10000000000E+01 0.  0.
<mgrwt>
<rscale>  0 0.12500376E+03</rscale>
<asrwt>0</asrwt>
<pdfrwt beam="1">  1        4 0.77197166E-01 0.12500376E+03</pdfrwt>
<pdfrwt beam="2">  1       -4 0.31627495E-02 0.12500376E+03</pdfrwt>
<totfact> 0.12389688E+03</totfact>
</mgrwt>
</event>
<event>
 5    1  0.1422067E-002  0.1249973E+03  0.7818608E-02  0.1235073E+00
          4   -1    0    0  501    0  0.00000000000E+00  0.00000000000E+00  0.31765670175E+02  0.31791047508E+02  0.12700000000E+01 0. -1.
         -4   -1    0    0    0  501 -0.00000000000E+00 -0.00000000000E+00 -0.12288782212E+03  0.12289438443E+03  0.12700000000E+01 0. -1.
         25    2    1    2    0    0  0.00000000000E+00  0.00000000000E+00 -0.91122151940E+02  0.15468543194E+03  0.12499734509E+03 0.  0.
    9000005    1    3    3    0    0 -0.36001771046E+02 -0.11260470423E+02  0.16093223589E+02  0.41023378189E+02  0.10000000000E+01 0.  0.
    9000005    1    3    3    0    0  0.36001771046E+02  0.11260470423E+02 -0.10721537553E+03  0.11366205375E+03  0.10000000000E+01 0.  0.
<mgrwt>
<rscale>  0 0.12499735E+03</rscale>
<asrwt>0</asrwt>
<pdfrwt beam="1">  1        4 0.79454103E-02 0.12499735E+03</pdfrwt>
<pdfrwt beam="2">  1       -4 0.30725947E-01 0.12499735E+03</pdfrwt>
<totfact> 0.18311903E+03</totfact>
</mgrwt>
</event>
<event>
 5    1  0.1422067E-002  0.1249898E+03  0.7818608E-02  0.1235085E+00
          4   -1    0    0  501    0  0.00000000000E+00  0.00000000000E+00  0.46228547273E+02  0.46245988831E+02  0.12700000000E+01 0.  1.
         -4   -1    0    0    0  501 -0.00000000000E+00 -0.00000000000E+00 -0.84446644965E+02  0.84456194242E+02  0.12700000000E+01 0.  1.
         25    2    1    2    0    0  0.00000000000E+00  0.00000000000E+00 -0.38218097692E+02  0.13070218307E+03  0.12498975026E+03 0.  0.
    9000005    1    3    3    0    0 -0.58653189361E+02 -0.10328682197E+02 -0.38887250557E+02  0.71134355652E+02  0.10000000000E+01 0.  0.
    9000005    1    3    3    0    0  0.58653189361E+02  0.10328682197E+02  0.66915286525E+00  0.59567827421E+02  0.10000000000E+01 0.  0.
<mgrwt>
<rscale>  0 0.12498975E+03</rscale>
<asrwt>0</asrwt>
<pdfrwt beam="1">  1        4 0.11560511E-01 0.12498975E+03</pdfrwt>
<pdfrwt beam="2">  1       -4 0.21115035E-01 0.12498975E+03</pdfrwt>
<totfact> 0.19531380E+03</totfact>
</mgrwt>
</event>
<event>
 5    1  0.1422067E-002  0.1250108E+03  0.7818608E-02  0.1235052E+00
          4   -1    0    0  501    0  0.00000000000E+00  0.00000000000E+00  0.17325415640E+02  0.17371900503E+02  0.12700000000E+01 0. -1.
         -4   -1    0    0    0  501 -0.00000000000E+00 -0.00000000000E+00 -0.22515199416E+03  0.22515557594E+03  0.12700000000E+01 0. -1.
         25    2    1    2    0    0  0.00000000000E+00  0.00000000000E+00 -0.20782657852E+03  0.24252747644E+03  0.12501075989E+03 0.  0.
    9000005    1    3    3    0    0  0.55302194910E+02 -0.28630276979E+02 -0.11416018472E+03  0.13004450507E+03  0.10000000000E+01 0.  0.
    9000005    1    3    3    0    0 -0.55302194910E+02  0.28630276979E+02 -0.93666393799E+02  0.11248297137E+03  0.10000000000E+01 0.  0.
<mgrwt>
<rscale>  0 0.12501076E+03</rscale>
<asrwt>0</asrwt>
<pdfrwt beam="1">  1        4 0.43376129E-02 0.12501076E+03</pdfrwt>
<pdfrwt beam="2">  1       -4 0.56294248E-01 0.12501076E+03</pdfrwt>
<totfact> 0.14746119E+03</totfact>
</mgrwt>
</event>
<event>
 5    1  0.1422067E-002  0.1249952E+03  0.7818608E-02  0.1235077E+00
          4   -1    0    0  501    0  0.00000000000E+00  0.00000000000E+00  0.39538741851E+03  0.39538945815E+03  0.12700000000E+01 0.  1.
         -4   -1    0    0    0  501 -0.00000000000E+00 -0.00000000000E+00 -0.98359047771E+01  0.99175562910E+01  0.12700000000E+01 0.  1.
         25    2    1    2    0    0  0.00000000000E+00  0.00000000000E+00  0.38555151373E+03  0.40530701444E+03  0.12499522476E+03 0.  0.
    9000005    1    3    3    0    0  0.45157154018E+02 -0.23030330934E+02  0.74282333715E+02  0.89935698163E+02  0.10000000000E+01 0.  0.
    9000005    1    3    3    0    0 -0.45157154018E+02  0.23030330934E+02  0.31126918002E+03  0.31537131628E+03  0.10000000000E+01 0.  0.
<mgrwt>
<rscale>  0 0.12499522E+03</rscale>
<asrwt>0</asrwt>
<pdfrwt beam="1">  1        4 0.98857313E-01 0.12499522E+03</pdfrwt>
<pdfrwt beam="2">  1       -4 0.24694377E-02 0.12499522E+03</pdfrwt>
<totfact> 0.10461832E+03</totfact>
</mgrwt>
</event>
<event>
 5    1  0.1422067E-002  0.1249991E+03  0.7818608E-02  0.1235071E+00
          4   -1    0    0  501    0  0.00000000000E+00  0.00000000000E+00  0.15273174917E+03  0.15273702925E+03  0.12700000000E+01 0.  1.
         -4   -1    0    0    0  501 -0.00000000000E+00 -0.00000000000E+00 -0.25554038105E+02  0.25585577255E+02  0.12700000000E+01 0.  1.
         25    2    1    2    0    0  0.00000000000E+00  0.00000000000E+00  0.12717771106E+03  0.17832260650E+03  0.12499912719E+03 0.  0.
    9000005    1    3    3    0    0 -0.60786560518E+02 -0.11521836691E+02  0.76142594449E+02  0.98114491028E+02  0.10000000000E+01 0.  0.
    9000005    1    3    3    0    0  0.60786560518E+02  0.11521836691E+02  0.51035116614E+02  0.80208115476E+02  0.10000000000E+01 0.  0.
<mgrwt>
<rscale>  0 0.12499913E+03</rscale>
<asrwt>0</asrwt>
<pdfrwt beam="1">  1        4 0.38187539E-01 0.12499913E+03</pdfrwt>
<pdfrwt beam="2">  1       -4 0.63931120E-02 0.12499913E+03</pdfrwt>
<totfact> 0.17228415E+03</totfact>
</mgrwt>
</event>
<event>
 5    1  0.1422067E-002  0.1249424E+03  0.7818608E-02  0.1235159E+00
         -4   -1    0    0    0  501 -0.00000000000E+00  0.00000000000E+00  0.74621057621E+02  0.74631864110E+02  0.12700000000E+01 0. -1.
          4   -1    0    0  501    0  0.00000000000E+00 -0.00000000000E+00 -0.52277307920E+02  0.52292732032E+02  0.12700000000E+01 0. -1.
         25    2    1    2    0    0  0.00000000000E+00  0.00000000000E+00  0.22343749701E+02  0.12692459614E+03  0.12494242656E+03 0.  0.
    9000005    1    3    3    0    0  0.39338782659E+02  0.43761893784E+02 -0.10113079547E+02  0.59715304124E+02  0.10000000000E+01 0.  0.
    9000005    1    3    3    0    0 -0.39338782659E+02 -0.43761893784E+02  0.32456829248E+02  0.67209292018E+02  0.10000000000E+01 0.  0.
<mgrwt>
<rscale>  0 0.12494243E+03</rscale>
<asrwt>0</asrwt>
<pdfrwt beam="2">  1        4 0.13072606E-01 0.12494243E+03</pdfrwt>
<pdfrwt beam="1">  1       -4 0.18658543E-01 0.12494243E+03</pdfrwt>
<totfact> 0.19757627E+03</totfact>
</mgrwt>
</event>
<event>
 5    1  0.1422067E-002  0.1249988E+03  0.7818608E-02  0.1235071E+00
         -4   -1    0    0    0  501 -0.00000000000E+00  0.00000000000E+00  0.28457579674E+02  0.28485904249E+02  0.12700000000E+01 0.  1.
          4   -1    0    0  501    0  0.00000000000E+00 -0.00000000000E+00 -0.13716350446E+03  0.13716938382E+03  0.12700000000E+01 0.  1.
         25    2    1    2    0    0  0.00000000000E+00  0.00000000000E+00 -0.10870592479E+03  0.16565528807E+03  0.12499878551E+03 0.  0.
    9000005    1    3    3    0    0  0.35657340276E+02 -0.21531313481E+02  0.73836020498E+01  0.42315020442E+02  0.10000000000E+01 0.  0.
    9000005    1    3    3    0    0 -0.35657340276E+02  0.21531313481E+02 -0.11608952684E+03  0.12334026762E+03  0.10000000000E+01 0.  0.
<mgrwt>
<rscale>  0 0.12499879E+03</rscale>
<asrwt>0</asrwt>
<pdfrwt beam="2">  1        4 0.34295150E-01 0.12499879E+03</pdfrwt>
<pdfrwt beam="1">  1       -4 0.71186708E-02 0.12499879E+03</pdfrwt>
<totfact> 0.17795313E+03</totfact>
</mgrwt>
</event>
<event>
 5    1  0.1422067E-002  0.1249998E+03  0.7818608E-02  0.1235070E+00
          4   -1    0    0  501    0  0.00000000000E+00  0.00000000000E+00  0.54559017296E+02  0.54573796535E+02  0.12700000000E+01 0.  1.
         -4   -1    0    0    0  501 -0.00000000000E+00 -0.00000000000E+00 -0.71566481181E+02  0.71577748837E+02  0.12700000000E+01 0.  1.
         25    2    1    2    0    0  0.00000000000E+00  0.00000000000E+00 -0.17007463886E+02  0.12615154537E+03  0.12499983429E+03 0.  0.
    9000005    1    3    3    0    0  0.46463274614E+02 -0.18710543596E+02 -0.46215379842E+02  0.68159971122E+02  0.10000000000E+01 0.  0.
    9000005    1    3    3    0    0 -0.46463274614E+02  0.18710543596E+02  0.29207915956E+02  0.57991574250E+02  0.10000000000E+01 0.  0.
<mgrwt>
<rscale>  0 0.12499983E+03</rscale>
<asrwt>0</asrwt>
<pdfrwt beam="1">  1        4 0.13643010E-01 0.12499983E+03</pdfrwt>
<pdfrwt beam="2">  1       -4 0.17894876E-01 0.12499983E+03</pdfrwt>
<totfact> 0.19772810E+03</totfact>
</mgrwt>
</event>
<event>
 5    1  0.1422067E-002  0.1249802E+03  0.7818608E-02  0.1235100E+00
          4   -1    0    0  501    0  0.00000000000E+00  0.00000000000E+00  0.72784546171E+03  0.72784656970E+03  0.12700000000E+01 0.  1.
         -4   -1    0    0    0  501 -0.00000000000E+00 -0.00000000000E+00 -0.52888830258E+01  0.54392263844E+01  0.12700000000E+01 0.  1.
         25    2    1    2    0    0  0.00000000000E+00  0.00000000000E+00  0.72255657868E+03  0.73328579609E+03  0.12498019582E+03 0.  0.
    9000005    1    3    3    0    0  0.34842782993E+02  0.26181374020E+02  0.98591528245E+02  0.10779969069E+03  0.10000000000E+01 0.  0.
    9000005    1    3    3    0    0 -0.34842782993E+02 -0.26181374020E+02  0.62396505044E+03  0.62548610539E+03  0.10000000000E+01 0.  0.
<mgrwt>
<rscale>  0 0.12498020E+03</rscale>
<asrwt>0</asrwt>
<pdfrwt beam="1">  1        4 0.18198027E+00 0.12498020E+03</pdfrwt>
<pdfrwt beam="2">  1       -4 0.13411524E-02 0.12498020E+03</pdfrwt>
<totfact> 0.58716743E+02</totfact>
</mgrwt>
</event>
<event>
 5    1  0.1422067E-002  0.1249999E+03  0.7818608E-02  0.1235069E+00
         -4   -1    0    0    0  501 -0.00000000000E+00  0.00000000000E+00  0.41901708160E+01  0.43784051282E+01  0.12700000000E+01 0. -1.
          4   -1    0    0  501    0  0.00000000000E+00 -0.00000000000E+00 -0.91157195105E+03  0.91157283573E+03  0.12700000000E+01 0. -1.
         25    2    1    2    0    0  0.00000000000E+00  0.00000000000E+00 -0.90738178024E+03  0.91595124086E+03  0.12499992212E+03 0.  0.
    9000005    1    3    3    0    0  0.63151041916E+01 -0.52569160416E+02 -0.21045735614E+03  0.21701773181E+03  0.10000000000E+01 0.  0.
    9000005    1    3    3    0    0 -0.63151041916E+01  0.52569160416E+02 -0.69692442410E+03  0.69893350905E+03  0.10000000000E+01 0.  0.
<mgrwt>
<rscale>  0 0.12499992E+03</rscale>
<asrwt>0</asrwt>
<pdfrwt beam="2">  1        4 0.22791596E+00 0.12499992E+03</pdfrwt>
<pdfrwt beam="1">  1       -4 0.10711857E-02 0.12499992E+03</pdfrwt>
<totfact> 0.43070867E+02</totfact>
</mgrwt>
</event>
<event>
 5    1  0.1422067E-002  0.1250009E+03  0.7818608E-02  0.1235068E+00
          4   -1    0    0  501    0  0.00000000000E+00  0.00000000000E+00  0.54673465571E+03  0.54673613074E+03  0.12700000000E+01 0.  1.
         -4   -1    0    0    0  501 -0.00000000000E+00 -0.00000000000E+00 -0.70868637703E+01  0.71997595862E+01  0.12700000000E+01 0.  1.
         25    2    1    2    0    0  0.00000000000E+00  0.00000000000E+00  0.53964779194E+03  0.55393589033E+03  0.12500092497E+03 0.  0.
    9000005    1    3    3    0    0  0.46245876112E+02  0.34378425579E+02  0.37698362805E+03  0.38136362309E+03  0.10000000000E+01 0.  0.
    9000005    1    3    3    0    0 -0.46245876112E+02 -0.34378425579E+02  0.16266416390E+03  0.17257226723E+03  0.10000000000E+01 0.  0.
<mgrwt>
<rscale>  0 0.12500092E+03</rscale>
<asrwt>0</asrwt>
<pdfrwt beam="1">  1        4 0.13669796E+00 0.12500092E+03</pdfrwt>
<pdfrwt beam="2">  1       -4 0.17860124E-02 0.12500092E+03</pdfrwt>
<totfact> 0.79619338E+02</totfact>
</mgrwt>
</event>
<event>
 5    1  0.1422067E-002  0.1250131E+03  0.7818608E-02  0.1235049E+00
          4   -1    0    0  501    0  0.00000000000E+00  0.00000000000E+00  0.27343461876E+02  0.27372939327E+02  0.12700000000E+01 0. -1.
         -4   -1    0    0    0  501 -0.00000000000E+00 -0.00000000000E+00 -0.14277921841E+03  0.14278486653E+03  0.12700000000E+01 0. -1.
         25    2    1    2    0    0  0.00000000000E+00  0.00000000000E+00 -0.11543575653E+03  0.17015780586E+03  0.12501305935E+03 0.  0.
    9000005    1    3    3    0    0 -0.16452093598E+02 -0.11264519425E+02 -0.13834062172E+03  0.13977370425E+03  0.10000000000E+01 0.  0.
    9000005    1    3    3    0    0  0.16452093598E+02  0.11264519425E+02  0.22904865183E+02  0.30384101610E+02  0.10000000000E+01 0.  0.
<mgrwt>
<rscale>  0 0.12501306E+03</rscale>
<asrwt>0</asrwt>
<pdfrwt beam="1">  1        4 0.68402566E-02 0.12501306E+03</pdfrwt>
<pdfrwt beam="2">  1       -4 0.35699193E-01 0.12501306E+03</pdfrwt>
<totfact> 0.17584601E+03</totfact>
</mgrwt>
</event>
<event>
 5    1  0.1422067E-002  0.1249988E+03  0.7818608E-02  0.1235071E+00
         -4   -1    0    0    0  501 -0.00000000000E+00  0.00000000000E+00  0.11548343463E+03  0.11549041767E+03  0.12700000000E+01 0.  1.
          4   -1    0    0  501    0  0.00000000000E+00 -0.00000000000E+00 -0.33804616029E+02  0.33828463827E+02  0.12700000000E+01 0.  1.
         25    2    1    2    0    0  0.00000000000E+00  0.00000000000E+00  0.81678818601E+02  0.14931888150E+03  0.12499879585E+03 0.  0.
    9000005    1    3    3    0    0 -0.61644696955E+02 -0.10096177397E+02  0.42967367618E+02  0.75823453764E+02  0.10000000000E+01 0.  0.
    9000005    1    3    3    0    0  0.61644696955E+02  0.10096177397E+02  0.38711450983E+02  0.73495427735E+02  0.10000000000E+01 0.  0.
<mgrwt>
<rscale>  0 0.12499880E+03</rscale>
<asrwt>0</asrwt>
<pdfrwt beam="2">  1        4 0.84550079E-02 0.12499880E+03</pdfrwt>
<pdfrwt beam="1">  1       -4 0.28874712E-01 0.12499880E+03</pdfrwt>
<totfact> 0.18572843E+03</totfact>
</mgrwt>
</event>
<event>
 5    1  0.1422067E-002  0.1249999E+03  0.7818608E-02  0.1235069E+00
          4   -1    0    0  501    0  0.00000000000E+00  0.00000000000E+00  0.27005749873E+03  0.27006048493E+03  0.12700000000E+01 0. -1.
         -4   -1    0    0    0  501 -0.00000000000E+00 -0.00000000000E+00 -0.14433536812E+02  0.14489302430E+02  0.12700000000E+01 0. -1.
         25    2    1    2    0    0  0.00000000000E+00  0.00000000000E+00  0.25562396192E+03  0.28454978736E+03  0.12499988632E+03 0.  0.
    9000005    1    3    3    0    0  0.30991372406E+02 -0.52781238633E+02  0.99115014846E+02  0.11649510927E+03  0.10000000000E+01 0.  0.
    9000005    1    3    3    0    0 -0.30991372406E+02  0.52781238633E+02  0.15650894707E+03  0.16805467809E+03  0.10000000000E+01 0.  0.
<mgrwt>
<rscale>  0 0.12499989E+03</rscale>
<asrwt>0</asrwt>
<pdfrwt beam="1">  1        4 0.67521718E-01 0.12499989E+03</pdfrwt>
<pdfrwt beam="2">  1       -4 0.36157282E-02 0.12499989E+03</pdfrwt>
<totfact> 0.13415433E+03</totfact>
</mgrwt>
</event>
<event>
 5    1  0.1422067E-002  0.1249966E+03  0.7818608E-02  0.1235075E+00
         -4   -1    0    0    0  501 -0.00000000000E+00  0.00000000000E+00  0.39867870418E+03  0.39868072698E+03  0.12700000000E+01 0.  1.
          4   -1    0    0  501    0  0.00000000000E+00 -0.00000000000E+00 -0.97542422674E+01  0.98365716696E+01  0.12700000000E+01 0.  1.
         25    2    1    2    0    0  0.00000000000E+00  0.00000000000E+00  0.38892446192E+03  0.40851729865E+03  0.12499658485E+03 0.  0.
    9000005    1    3    3    0    0  0.50178962914E+02 -0.36689782881E+02  0.21538094823E+03  0.22417408714E+03  0.10000000000E+01 0.  0.
    9000005    1    3    3    0    0 -0.50178962914E+02  0.36689782881E+02  0.17354351369E+03  0.18434321151E+03  0.10000000000E+01 0.  0.
<mgrwt>
<rscale>  0 0.12499658E+03</rscale>
<asrwt>0</asrwt>
<pdfrwt beam="2">  1        4 0.24491047E-02 0.12499658E+03</pdfrwt>
<pdfrwt beam="1">  1       -4 0.99680217E-01 0.12499658E+03</pdfrwt>
<totfact> 0.10396642E+03</totfact>
</mgrwt>
</event>
<event>
 5    1  0.1422067E-002  0.1249971E+03  0.7818608E-02  0.1235074E+00
         -4   -1    0    0    0  501 -0.00000000000E+00  0.00000000000E+00  0.31477351496E+02  0.31502961086E+02  0.12700000000E+01 0. -1.
          4   -1    0    0  501    0  0.00000000000E+00 -0.00000000000E+00 -0.12401211999E+03  0.12401862281E+03  0.12700000000E+01 0. -1.
         25    2    1    2    0    0  0.00000000000E+00  0.00000000000E+00 -0.92534768495E+02  0.15552158390E+03  0.12499711868E+03 0.  0.
    9000005    1    3    3    0    0 -0.38192156110E+02  0.48499867739E+02 -0.34192093772E+02  0.70576038679E+02  0.10000000000E+01 0.  0.
    9000005    1    3    3    0    0  0.38192156110E+02 -0.48499867739E+02 -0.58342674724E+02  0.84945545222E+02  0.10000000000E+01 0.  0.
<mgrwt>
<rscale>  0 0.12499712E+03</rscale>
<asrwt>0</asrwt>
<pdfrwt beam="2">  1        4 0.31007043E-01 0.12499712E+03</pdfrwt>
<pdfrwt beam="1">  1       -4 0.78733522E-02 0.12499712E+03</pdfrwt>
<totfact> 0.18271799E+03</totfact>
</mgrwt>
</event>
<event>
 5    1  0.1422067E-002  0.1249997E+03  0.7818608E-02  0.1235070E+00
          4   -1    0    0  501    0  0.00000000000E+00  0.00000000000E+00  0.15408583747E+03  0.15409107116E+03  0.12700000000E+01 0.  1.
         -4   -1    0    0    0  501 -0.00000000000E+00 -0.00000000000E+00 -0.25329431900E+02  0.25361250371E+02  0.12700000000E+01 0.  1.
         25    2    1    2    0    0  0.00000000000E+00  0.00000000000E+00  0.12875640557E+03  0.17945232153E+03  0.12499969490E+03 0.  0.
    9000005    1    3    3    0    0  0.25247187025E+02 -0.41782726297E+02  0.12038612856E+03  0.12991164928E+03  0.10000000000E+01 0.  0.
    9000005    1    3    3    0    0 -0.25247187025E+02  0.41782726297E+02  0.83702770167E+01  0.49540672248E+02  0.10000000000E+01 0.  0.
<mgrwt>
<rscale>  0 0.12499969E+03</rscale>
<asrwt>0</asrwt>
<pdfrwt beam="1">  1        4 0.38526090E-01 0.12499969E+03</pdfrwt>
<pdfrwt beam="2">  1       -4 0.63369896E-02 0.12499969E+03</pdfrwt>
<totfact> 0.17179067E+03</totfact>
</mgrwt>
</event>
<event>
 5    1  0.1422067E-002  0.1249985E+03  0.7818608E-02  0.1235072E+00
          4   -1    0    0  501    0  0.00000000000E+00  0.00000000000E+00  0.90009746967E+02  0.90018706106E+02  0.12700000000E+01 0. -1.
         -4   -1    0    0    0  501 -0.00000000000E+00 -0.00000000000E+00 -0.43376623243E+02  0.43395211071E+02  0.12700000000E+01 0. -1.
         25    2    1    2    0    0  0.00000000000E+00  0.00000000000E+00  0.46633123724E+02  0.13341391718E+03  0.12499850026E+03 0.  0.
    9000005    1    3    3    0    0  0.23710523324E+02  0.35300426921E+02 -0.25557645420E+02  0.49623606242E+02  0.10000000000E+01 0.  0.
    9000005    1    3    3    0    0 -0.23710523324E+02 -0.35300426921E+02  0.72190769144E+02  0.83790310936E+02  0.10000000000E+01 0.  0.
<mgrwt>
<rscale>  0 0.12499850E+03</rscale>
<asrwt>0</asrwt>
<pdfrwt beam="1">  1        4 0.22505880E-01 0.12499850E+03</pdfrwt>
<pdfrwt beam="2">  1       -4 0.10847599E-01 0.12499850E+03</pdfrwt>
<totfact> 0.19383218E+03</totfact>
</mgrwt>
</event>
<event>
 5    1  0.1422067E-002  0.1249928E+03  0.7818608E-02  0.1235081E+00
          4   -1    0    0  501    0  0.00000000000E+00  0.00000000000E+00  0.24326487678E+03  0.24326819187E+03  0.12700000000E+01 0. -1.
         -4   -1    0    0    0  501 -0.00000000000E+00 -0.00000000000E+00 -0.16027203021E+02  0.16077441857E+02  0.12700000000E+01 0. -1.
         25    2    1    2    0    0  0.00000000000E+00  0.00000000000E+00  0.22723767376E+03  0.25934563373E+03  0.12499278922E+03 0.  0.
    9000005    1    3    3    0    0 -0.35841035751E+02  0.50359821255E+02  0.94589994314E+02  0.11299981622E+03  0.10000000000E+01 0.  0.
    9000005    1    3    3    0    0  0.35841035751E+02 -0.50359821255E+02  0.13264767945E+03  0.14634581751E+03  0.10000000000E+01 0.  0.
<mgrwt>
<rscale>  0 0.12499279E+03</rscale>
<asrwt>0</asrwt>
<pdfrwt beam="1">  1        4 0.60822913E-01 0.12499279E+03</pdfrwt>
<pdfrwt beam="2">  1       -4 0.40134951E-02 0.12499279E+03</pdfrwt>
<totfact> 0.14194540E+03</totfact>
</mgrwt>
</event>
<event>
 5    1  0.1422067E-002  0.1250042E+03  0.7818608E-02  0.1235063E+00
          4   -1    0    0  501    0  0.00000000000E+00  0.00000000000E+00  0.26486322223E+02  0.26516752533E+02  0.12700000000E+01 0. -1.
         -4   -1    0    0    0  501 -0.00000000000E+00 -0.00000000000E+00 -0.14737374561E+03  0.14737921765E+03  0.12700000000E+01 0. -1.
         25    2    1    2    0    0  0.00000000000E+00  0.00000000000E+00 -0.12088742339E+03  0.17389597018E+03  0.12500415718E+03 0.  0.
    9000005    1    3    3    0    0 -0.53159408645E+02  0.68116106661E+01 -0.10515888942E+03  0.11803267680E+03  0.10000000000E+01 0.  0.
    9000005    1    3    3    0    0  0.53159408645E+02 -0.68116106661E+01 -0.15728533966E+02  0.55863293387E+02  0.10000000000E+01 0.  0.
<mgrwt>
<rscale>  0 0.12500416E+03</rscale>
<asrwt>0</asrwt>
<pdfrwt beam="1">  1        4 0.66260688E-02 0.12500416E+03</pdfrwt>
<pdfrwt beam="2">  1       -4 0.36847922E-01 0.12500416E+03</pdfrwt>
<totfact> 0.17421060E+03</totfact>
</mgrwt>
</event>
<event>
 5    1  0.1422067E-002  0.1249967E+03  0.7818608E-02  0.1235074E+00
         -4   -1    0    0    0  501 -0.00000000000E+00  0.00000000000E+00  0.94944744070E+01  0.95790367086E+01  0.12700000000E+01 0. -1.
          4   -1    0    0  501    0  0.00000000000E+00 -0.00000000000E+00 -0.40949216871E+03  0.40949413809E+03  0.12700000000E+01 0. -1.
         25    2    1    2    0    0  0.00000000000E+00  0.00000000000E+00 -0.39999769430E+03  0.41907317480E+03  0.12499668153E+03 0.  0.
    9000005    1    3    3    0    0  0.44648065451E+02 -0.19466321997E+02 -0.33125316656E+03  0.33481643896E+03  0.10000000000E+01 0.  0.
    9000005    1    3    3    0    0 -0.44648065451E+02  0.19466321997E+02 -0.68744527735E+02  0.84256735838E+02  0.10000000000E+01 0.  0.
<mgrwt>
<rscale>  0 0.12499668E+03</rscale>
<asrwt>0</asrwt>
<pdfrwt beam="2">  1        4 0.10238380E+00 0.12499668E+03</pdfrwt>
<pdfrwt beam="1">  1       -4 0.23844364E-02 0.12499668E+03</pdfrwt>
<totfact> 0.10185175E+03</totfact>
</mgrwt>
</event>
<event>
 5    1  0.1422067E-002  0.1250042E+03  0.7818608E-02  0.1235063E+00
         -4   -1    0    0    0  501 -0.00000000000E+00  0.00000000000E+00  0.11041511272E+04  0.11041518576E+04  0.12700000000E+01 0. -1.
          4   -1    0    0  501    0  0.00000000000E+00 -0.00000000000E+00 -0.34232980557E+01  0.36512832783E+01  0.12700000000E+01 0. -1.
         25    2    1    2    0    0  0.00000000000E+00  0.00000000000E+00  0.11007278292E+04  0.11078031409E+04  0.12500418010E+03 0.  0.
    9000005    1    3    3    0    0  0.31676072567E+01  0.62191785160E+02  0.50375603938E+03  0.50759137018E+03  0.10000000000E+01 0.  0.
    9000005    1    3    3    0    0 -0.31676072567E+01 -0.62191785160E+02  0.59697178979E+03  0.60021177070E+03  0.10000000000E+01 0.  0.
<mgrwt>
<rscale>  0 0.12500418E+03</rscale>
<asrwt>0</asrwt>
<pdfrwt beam="2">  1        4 0.88441431E-03 0.12500418E+03</pdfrwt>
<pdfrwt beam="1">  1       -4 0.27606626E+00 0.12500418E+03</pdfrwt>
<totfact> 0.30318768E+02</totfact>
</mgrwt>
</event>
<event>
 5    1  0.1422067E-002  0.1249999E+03  0.7818608E-02  0.1235069E+00
          4   -1    0    0  501    0  0.00000000000E+00  0.00000000000E+00  0.30318861297E+02  0.30345448593E+02  0.12700000000E+01 0. -1.
         -4   -1    0    0    0  501 -0.00000000000E+00 -0.00000000000E+00 -0.12875261119E+03  0.12875887460E+03  0.12700000000E+01 0. -1.
         25    2    1    2    0    0  0.00000000000E+00  0.00000000000E+00 -0.98433749897E+02  0.15910432320E+03  0.12499993016E+03 0.  0.
    9000005    1    3    3    0    0  0.40056068793E+02 -0.19972885803E+02  0.62915996068E+01  0.45210497012E+02  0.10000000000E+01 0.  0.
    9000005    1    3    3    0    0 -0.40056068793E+02  0.19972885803E+02 -0.10472534950E+03  0.11389382619E+03  0.10000000000E+01 0.  0.
<mgrwt>
<rscale>  0 0.12499993E+03</rscale>
<asrwt>0</asrwt>
<pdfrwt beam="1">  1        4 0.75838220E-02 0.12499993E+03</pdfrwt>
<pdfrwt beam="2">  1       -4 0.32192258E-01 0.12499993E+03</pdfrwt>
<totfact> 0.18100017E+03</totfact>
</mgrwt>
</event>
<event>
 5    1  0.1422067E-002  0.1250026E+03  0.7818608E-02  0.1235065E+00
          4   -1    0    0  501    0  0.00000000000E+00  0.00000000000E+00  0.67067721023E+01  0.68259572246E+01  0.12700000000E+01 0.  1.
         -4   -1    0    0    0  501 -0.00000000000E+00 -0.00000000000E+00 -0.57720866918E+03  0.57721006634E+03  0.12700000000E+01 0.  1.
         25    2    1    2    0    0  0.00000000000E+00  0.00000000000E+00 -0.57050189708E+03  0.58403602356E+03  0.12500264895E+03 0.  0.
    9000005    1    3    3    0    0 -0.50256116835E+02 -0.57006387004E+01 -0.45674263238E+03  0.45953564258E+03  0.10000000000E+01 0.  0.
    9000005    1    3    3    0    0  0.50256116835E+02  0.57006387004E+01 -0.11375926470E+03  0.12450038098E+03  0.10000000000E+01 0.  0.
<mgrwt>
<rscale>  0 0.12500265E+03</rscale>
<asrwt>0</asrwt>
<pdfrwt beam="1">  1        4 0.16917678E-02 0.12500265E+03</pdfrwt>
<pdfrwt beam="2">  1       -4 0.14431707E+00 0.12500265E+03</pdfrwt>
<totfact> 0.75544503E+02</totfact>
</mgrwt>
</event>
<event>
 5    1  0.1422067E-002  0.1250010E+03  0.7818608E-02  0.1235068E+00
         -4   -1    0    0    0  501 -0.00000000000E+00  0.00000000000E+00  0.26855995214E+02  0.26886007122E+02  0.12700000000E+01 0. -1.
          4   -1    0    0  501    0  0.00000000000E+00 -0.00000000000E+00 -0.14534000893E+03  0.14534555754E+03  0.12700000000E+01 0. -1.
         25    2    1    2    0    0  0.00000000000E+00  0.00000000000E+00 -0.11848401372E+03  0.17223156466E+03  0.12500100143E+03 0.  0.
    9000005    1    3    3    0    0  0.13050649259E+02 -0.44550399596E+02 -0.11688545119E+03  0.12577068916E+03  0.10000000000E+01 0.  0.
    9000005    1    3    3    0    0 -0.13050649259E+02  0.44550399596E+02 -0.15985625214E+01  0.46460875501E+02  0.10000000000E+01 0.  0.
<mgrwt>
<rscale>  0 0.12500100E+03</rscale>
<asrwt>0</asrwt>
<pdfrwt beam="2">  1        4 0.36339445E-01 0.12500100E+03</pdfrwt>
<pdfrwt beam="1">  1       -4 0.67184443E-02 0.12500100E+03</pdfrwt>
<totfact> 0.17496455E+03</totfact>
</mgrwt>
</event>
<event>
 5    1  0.1422067E-002  0.1250073E+03  0.7818608E-02  0.1235058E+00
         -4   -1    0    0    0  501 -0.00000000000E+00  0.00000000000E+00  0.26309975588E+02  0.26340609625E+02  0.12700000000E+01 0. -1.
          4   -1    0    0  501    0  0.00000000000E+00 -0.00000000000E+00 -0.14836788520E+03  0.14837332058E+03  0.12700000000E+01 0. -1.
         25    2    1    2    0    0  0.00000000000E+00  0.00000000000E+00 -0.12205790962E+03  0.17471393021E+03  0.12500729622E+03 0.  0.
    9000005    1    3    3    0    0 -0.33064844299E+02 -0.42877721606E+02 -0.17412084274E+02  0.56885530826E+02  0.10000000000E+01 0.  0.
    9000005    1    3    3    0    0  0.33064844299E+02  0.42877721606E+02 -0.10464582534E+03  0.11782839938E+03  0.10000000000E+01 0.  0.
<mgrwt>
<rscale>  0 0.12500730E+03</rscale>
<asrwt>0</asrwt>
<pdfrwt beam="2">  1        4 0.37096478E-01 0.12500730E+03</pdfrwt>
<pdfrwt beam="1">  1       -4 0.65820030E-02 0.12500730E+03</pdfrwt>
<totfact> 0.17383559E+03</totfact>
</mgrwt>
</event>
<event>
 4    1  0.1422067E-002  0.1281308E+03  0.7818608E-02  0.1230256E+00
          4   -1    0    0  501    0  0.00000000000E+00  0.00000000000E+00  0.17522313603E+02  0.17568277491E+02  0.12700000000E+01 0. -1.
         -4   -1    0    0    0  501 -0.00000000000E+00 -0.00000000000E+00 -0.23388258820E+03  0.23388603627E+03  0.12700000000E+01 0. -1.
    9000005    1    1    2    0    0  0.20037718149E+02 -0.40795387964E+02 -0.19594112087E+02  0.49504576114E+02  0.10000000000E+01 0.  0.
    9000005    1    1    2    0    0 -0.20037718149E+02  0.40795387964E+02 -0.19676616251E+03  0.20194973765E+03  0.10000000000E+01 0.  0.
<mgrwt>
<rscale>  0 0.12813081E+03</rscale>
<asrwt>0</asrwt>
<pdfrwt beam="1">  1        4 0.43867556E-02 0.12813081E+03</pdfrwt>
<pdfrwt beam="2">  1       -4 0.58476814E-01 0.12813081E+03</pdfrwt>
<totfact> 0.13456120E+03</totfact>
</mgrwt>
</event>
<event>
 5    1  0.1422067E-002  0.1249977E+03  0.7818608E-02  0.1235073E+00
         -4   -1    0    0    0  501 -0.00000000000E+00  0.00000000000E+00  0.21688047950E+03  0.21688419787E+03  0.12700000000E+01 0. -1.
          4   -1    0    0  501    0  0.00000000000E+00 -0.00000000000E+00 -0.17984134931E+02  0.18028921466E+02  0.12700000000E+01 0. -1.
         25    2    1    2    0    0  0.00000000000E+00  0.00000000000E+00  0.19889634457E+03  0.23491311934E+03  0.12499767100E+03 0.  0.
    9000005    1    3    3    0    0 -0.58319363732E+02  0.17365449950E+02  0.72711471476E+02  0.94819117916E+02  0.10000000000E+01 0.  0.
    9000005    1    3    3    0    0  0.58319363732E+02 -0.17365449950E+02  0.12618487309E+03  0.14009400142E+03  0.10000000000E+01 0.  0.
<mgrwt>
<rscale>  0 0.12499767E+03</rscale>
<asrwt>0</asrwt>
<pdfrwt beam="2">  1        4 0.45020970E-02 0.12499767E+03</pdfrwt>
<pdfrwt beam="1">  1       -4 0.54226182E-01 0.12499767E+03</pdfrwt>
<totfact> 0.15014135E+03</totfact>
</mgrwt>
</event>
<event>
 5    1  0.1422067E-002  0.1249992E+03  0.7818608E-02  0.1235071E+00
          4   -1    0    0  501    0  0.00000000000E+00  0.00000000000E+00  0.23096236973E+03  0.23096586139E+03  0.12700000000E+01 0. -1.
         -4   -1    0    0    0  501 -0.00000000000E+00 -0.00000000000E+00 -0.16885245573E+02  0.16932938849E+02  0.12700000000E+01 0. -1.
         25    2    1    2    0    0  0.00000000000E+00  0.00000000000E+00  0.21407712415E+03  0.24789880024E+03  0.12499920030E+03 0.  0.
    9000005    1    3    3    0    0 -0.59156675795E+02  0.19672266024E+02  0.98464865805E+02  0.11654544238E+03  0.10000000000E+01 0.  0.
    9000005    1    3    3    0    0  0.59156675795E+02 -0.19672266024E+02  0.11561225835E+03  0.13135335786E+03  0.10000000000E+01 0.  0.
<mgrwt>
<rscale>  0 0.12499920E+03</rscale>
<asrwt>0</asrwt>
<pdfrwt beam="1">  1        4 0.57746989E-01 0.12499920E+03</pdfrwt>
<pdfrwt beam="2">  1       -4 0.42277097E-02 0.12499920E+03</pdfrwt>
<totfact> 0.14568416E+03</totfact>
</mgrwt>
</event>
<event>
 5    1  0.1422067E-002  0.1250007E+03  0.7818608E-02  0.1235068E+00
          4   -1    0    0  501    0  0.00000000000E+00  0.00000000000E+00  0.39696518000E+01  0.41678574127E+01  0.12700000000E+01 0.  1.
         -4   -1    0    0    0  501 -0.00000000000E+00 -0.00000000000E+00 -0.95987300699E+03  0.95987384716E+03  0.12700000000E+01 0.  1.
         25    2    1    2    0    0  0.00000000000E+00  0.00000000000E+00 -0.95590335519E+03  0.96404170457E+03  0.12500073471E+03 0.  0.
    9000005    1    3    3    0    0  0.42919410947E+02 -0.15559486136E+02 -0.14883276963E+03  0.15568033518E+03  0.10000000000E+01 0.  0.
    9000005    1    3    3    0    0 -0.42919410947E+02  0.15559486136E+02 -0.80707058556E+03  0.80836136939E+03  0.10000000000E+01 0.  0.
<mgrwt>
<rscale>  0 0.12500073E+03</rscale>
<asrwt>0</asrwt>
<pdfrwt beam="1">  1        4 0.10172970E-02 0.12500073E+03</pdfrwt>
<pdfrwt beam="2">  1       -4 0.23999236E+00 0.12500073E+03</pdfrwt>
<totfact> 0.39580382E+02</totfact>
</mgrwt>
</event>
<event>
 5    1  0.1422067E-002  0.1250034E+03  0.7818608E-02  0.1235064E+00
          4   -1    0    0  501    0  0.00000000000E+00  0.00000000000E+00  0.99076502503E+02  0.99084641838E+02  0.12700000000E+01 0. -1.
         -4   -1    0    0    0  501 -0.00000000000E+00 -0.00000000000E+00 -0.39408748410E+02  0.39429206830E+02  0.12700000000E+01 0. -1.
         25    2    1    2    0    0  0.00000000000E+00  0.00000000000E+00  0.59667754093E+02  0.13851384867E+03  0.12500338153E+03 0.  0.
    9000005    1    3    3    0    0 -0.13476727394E+01  0.36612762453E+02 -0.26265560888E+02  0.45090911335E+02  0.10000000000E+01 0.  0.
    9000005    1    3    3    0    0  0.13476727394E+01 -0.36612762453E+02  0.85933314981E+02  0.93422937333E+02  0.10000000000E+01 0.  0.
<mgrwt>
<rscale>  0 0.12500338E+03</rscale>
<asrwt>0</asrwt>
<pdfrwt beam="1">  1        4 0.24772700E-01 0.12500338E+03</pdfrwt>
<pdfrwt beam="2">  1       -4 0.98557619E-02 0.12500338E+03</pdfrwt>
<totfact> 0.19115123E+03</totfact>
</mgrwt>
</event>
<event>
 5    1  0.1422067E-002  0.1249963E+03  0.7818608E-02  0.1235075E+00
          4   -1    0    0  501    0  0.00000000000E+00  0.00000000000E+00  0.14552159344E+03  0.14552713513E+03  0.12700000000E+01 0.  1.
         -4   -1    0    0    0  501 -0.00000000000E+00 -0.00000000000E+00 -0.26820437335E+02  0.26850488987E+02  0.12700000000E+01 0.  1.
         25    2    1    2    0    0  0.00000000000E+00  0.00000000000E+00  0.11870115611E+03  0.17237762412E+03  0.12499632328E+03 0.  0.
    9000005    1    3    3    0    0  0.17729492922E+02 -0.16191765984E+02  0.13891313204E+03  0.14097647484E+03  0.10000000000E+01 0.  0.
    9000005    1    3    3    0    0 -0.17729492922E+02  0.16191765984E+02 -0.20211975930E+02  0.31401149277E+02  0.10000000000E+01 0.  0.
<mgrwt>
<rscale>  0 0.12499632E+03</rscale>
<asrwt>0</asrwt>
<pdfrwt beam="1">  1        4 0.36384847E-01 0.12499632E+03</pdfrwt>
<pdfrwt beam="2">  1       -4 0.67095586E-02 0.12499632E+03</pdfrwt>
<totfact> 0.17491829E+03</totfact>
</mgrwt>
</event>
<event>
 5    1  0.1422067E-002  0.1249919E+03  0.7818608E-02  0.1235082E+00
         -4   -1    0    0    0  501 -0.00000000000E+00  0.00000000000E+00  0.75083045470E+02  0.75093785476E+02  0.12700000000E+01 0. -1.
          4   -1    0    0  501    0  0.00000000000E+00 -0.00000000000E+00 -0.51996734414E+02  0.52012241729E+02  0.12700000000E+01 0. -1.
         25    2    1    2    0    0  0.00000000000E+00  0.00000000000E+00  0.23086311057E+02  0.12710602720E+03  0.12499185731E+03 0.  0.
    9000005    1    3    3    0    0  0.59471737982E+02  0.19178916147E+02  0.11390092848E+02  0.63525212776E+02  0.10000000000E+01 0.  0.
    9000005    1    3    3    0    0 -0.59471737982E+02 -0.19178916147E+02  0.11696218209E+02  0.63580814429E+02  0.10000000000E+01 0.  0.
<mgrwt>
<rscale>  0 0.12499186E+03</rscale>
<asrwt>0</asrwt>
<pdfrwt beam="2">  1        4 0.13002465E-01 0.12499186E+03</pdfrwt>
<pdfrwt beam="1">  1       -4 0.18774042E-01 0.12499186E+03</pdfrwt>
<totfact> 0.19725004E+03</totfact>
</mgrwt>
</event>
<event>
 5    1  0.1422067E-002  0.1249990E+03  0.7818608E-02  0.1235071E+00
          4   -1    0    0  501    0  0.00000000000E+00  0.00000000000E+00  0.34684489809E+03  0.34684722318E+03  0.12700000000E+01 0. -1.
         -4   -1    0    0    0  501 -0.00000000000E+00 -0.00000000000E+00 -0.11223878289E+02  0.11295501044E+02  0.12700000000E+01 0. -1.
         25    2    1    2    0    0  0.00000000000E+00  0.00000000000E+00  0.33562101980E+03  0.35814272423E+03  0.12499896794E+03 0.  0.
    9000005    1    3    3    0    0 -0.28840560671E+01  0.64369058499E+01  0.34571476669E+03  0.34578815978E+03  0.10000000000E+01 0.  0.
    9000005    1    3    3    0    0  0.28840560671E+01 -0.64369058499E+01 -0.10093746892E+02  0.12354564446E+02  0.10000000000E+01 0.  0.
<mgrwt>
<rscale>  0 0.12499897E+03</rscale>
<asrwt>0</asrwt>
<pdfrwt beam="1">  1        4 0.86720460E-01 0.12499897E+03</pdfrwt>
<pdfrwt beam="2">  1       -4 0.28152133E-02 0.12499897E+03</pdfrwt>
<totfact> 0.11485763E+03</totfact>
</mgrwt>
</event>
<event>
 5    1  0.1422067E-002  0.1249978E+03  0.7818608E-02  0.1235073E+00
         -4   -1    0    0    0  501 -0.00000000000E+00  0.00000000000E+00  0.20756912455E+02  0.20795728279E+02  0.12700000000E+01 0. -1.
          4   -1    0    0  501    0  0.00000000000E+00 -0.00000000000E+00 -0.18796691363E+03  0.18797120396E+03  0.12700000000E+01 0. -1.
         25    2    1    2    0    0  0.00000000000E+00  0.00000000000E+00 -0.16721000117E+03  0.20876693224E+03  0.12499779000E+03 0.  0.
    9000005    1    3    3    0    0 -0.15035818207E+02  0.15266396317E+02  0.14437712783E+02  0.25857034556E+02  0.10000000000E+01 0.  0.
    9000005    1    3    3    0    0  0.15035818207E+02 -0.15266396317E+02 -0.18164771396E+03  0.18290989769E+03  0.10000000000E+01 0.  0.
<mgrwt>
<rscale>  0 0.12499779E+03</rscale>
<asrwt>0</asrwt>
<pdfrwt beam="2">  1        4 0.46997112E-01 0.12499779E+03</pdfrwt>
<pdfrwt beam="1">  1       -4 0.51946170E-02 0.12499779E+03</pdfrwt>
<totfact> 0.15977733E+03</totfact>
</mgrwt>
</event>
<event>
 5    1  0.1422067E-002  0.1250109E+03  0.7818608E-02  0.1235052E+00
          4   -1    0    0  501    0  0.00000000000E+00  0.00000000000E+00  0.14314980303E+03  0.14315543653E+03  0.12700000000E+01 0.  1.
         -4   -1    0    0    0  501 -0.00000000000E+00 -0.00000000000E+00 -0.27271644935E+02  0.27301199927E+02  0.12700000000E+01 0.  1.
         25    2    1    2    0    0  0.00000000000E+00  0.00000000000E+00  0.11587815810E+03  0.17045663646E+03  0.12501086908E+03 0.  0.
    9000005    1    3    3    0    0 -0.36686530350E+01  0.23638806076E+02  0.13666684199E+03  0.13874825357E+03  0.10000000000E+01 0.  0.
    9000005    1    3    3    0    0  0.36686530350E+01 -0.23638806076E+02 -0.20788683891E+02  0.31708382894E+02  0.10000000000E+01 0.  0.
<mgrwt>
<rscale>  0 0.12501087E+03</rscale>
<asrwt>0</asrwt>
<pdfrwt beam="1">  1        4 0.35791849E-01 0.12501087E+03</pdfrwt>
<pdfrwt beam="2">  1       -4 0.68223098E-02 0.12501087E+03</pdfrwt>
<totfact> 0.17572037E+03</totfact>
</mgrwt>
</event>
<event>
 5    1  0.1422067E-002  0.1249995E+03  0.7818608E-02  0.1235070E+00
          4   -1    0    0  501    0  0.00000000000E+00  0.00000000000E+00  0.24391378818E+02  0.24424419351E+02  0.12700000000E+01 0.  1.
         -4   -1    0    0    0  501 -0.00000000000E+00 -0.00000000000E+00 -0.16000352151E+03  0.16000856163E+03  0.12700000000E+01 0.  1.
         25    2    1    2    0    0  0.00000000000E+00  0.00000000000E+00 -0.13561214269E+03  0.18443298099E+03  0.12499948492E+03 0.  0.
    9000005    1    3    3    0    0 -0.23367468652E+02  0.22566505696E+02  0.10961528850E+02  0.34299284034E+02  0.10000000000E+01 0.  0.
    9000005    1    3    3    0    0  0.23367468652E+02 -0.22566505696E+02 -0.14657367154E+03  0.15013369695E+03  0.10000000000E+01 0.  0.
<mgrwt>
<rscale>  0 0.12499948E+03</rscale>
<asrwt>0</asrwt>
<pdfrwt beam="1">  1        4 0.61026053E-02 0.12499948E+03</pdfrwt>
<pdfrwt beam="2">  1       -4 0.40005637E-01 0.12499948E+03</pdfrwt>
<totfact> 0.16965153E+03</totfact>
</mgrwt>
</event>
<event>
 5    1  0.1422067E-002  0.1249990E+03  0.7818608E-02  0.1235071E+00
          4   -1    0    0  501    0  0.00000000000E+00  0.00000000000E+00  0.16826512823E+03  0.16826992089E+03  0.12700000000E+01 0. -1.
         -4   -1    0    0    0  501 -0.00000000000E+00 -0.00000000000E+00 -0.23191995817E+02  0.23226742560E+02  0.12700000000E+01 0. -1.
         25    2    1    2    0    0  0.00000000000E+00  0.00000000000E+00  0.14507313241E+03  0.19149666345E+03  0.12499903346E+03 0.  0.
    9000005    1    3    3    0    0  0.12529241821E+02  0.56644325885E+02  0.10812442093E+03  0.12270880962E+03  0.10000000000E+01 0.  0.
    9000005    1    3    3    0    0 -0.12529241821E+02 -0.56644325885E+02  0.36948711478E+02  0.68787853837E+02  0.10000000000E+01 0.  0.
<mgrwt>
<rscale>  0 0.12499903E+03</rscale>
<asrwt>0</asrwt>
<pdfrwt beam="1">  1        4 0.42071224E-01 0.12499903E+03</pdfrwt>
<pdfrwt beam="2">  1       -4 0.58029415E-02 0.12499903E+03</pdfrwt>
<totfact> 0.16668660E+03</totfact>
</mgrwt>
</event>
<event>
 5    1  0.1422067E-002  0.1250450E+03  0.7818608E-02  0.1234999E+00
          4   -1    0    0  501    0  0.00000000000E+00  0.00000000000E+00  0.20130146406E+03  0.20130547020E+03  0.12700000000E+01 0.  1.
         -4   -1    0    0    0  501 -0.00000000000E+00 -0.00000000000E+00 -0.19393975027E+02  0.19435513046E+02  0.12700000000E+01 0.  1.
         25    2    1    2    0    0  0.00000000000E+00  0.00000000000E+00  0.18190748903E+03  0.22074098325E+03  0.12504498038E+03 0.  0.
    9000005    1    3    3    0    0  0.38392169424E+02 -0.42559385222E+02  0.46899104983E+02  0.74066092051E+02  0.10000000000E+01 0.  0.
    9000005    1    3    3    0    0 -0.38392169424E+02  0.42559385222E+02  0.13500838405E+03  0.14667489119E+03  0.10000000000E+01 0.  0.
<mgrwt>
<rscale>  0 0.12504498E+03</rscale>
<asrwt>0</asrwt>
<pdfrwt beam="1">  1        4 0.50331059E-01 0.12504498E+03</pdfrwt>
<pdfrwt beam="2">  1       -4 0.48541868E-02 0.12504498E+03</pdfrwt>
<totfact> 0.15507798E+03</totfact>
</mgrwt>
</event>
<event>
 5    1  0.1422067E-002  0.1250023E+03  0.7818608E-02  0.1235066E+00
          4   -1    0    0  501    0  0.00000000000E+00  0.00000000000E+00  0.94482245991E+01  0.95331971592E+01  0.12700000000E+01 0. -1.
         -4   -1    0    0    0  501 -0.00000000000E+00 -0.00000000000E+00 -0.41151604726E+03  0.41151800696E+03  0.12700000000E+01 0. -1.
         25    2    1    2    0    0  0.00000000000E+00  0.00000000000E+00 -0.40206782266E+03  0.42105120412E+03  0.12500232986E+03 0.  0.
    9000005    1    3    3    0    0 -0.54404397821E+02  0.94071289680E+01 -0.29964441783E+03  0.30469018645E+03  0.10000000000E+01 0.  0.
    9000005    1    3    3    0    0  0.54404397821E+02 -0.94071289680E+01 -0.10242340483E+03  0.11636101768E+03  0.10000000000E+01 0.  0.
<mgrwt>
<rscale>  0 0.12500233E+03</rscale>
<asrwt>0</asrwt>
<pdfrwt beam="1">  1        4 0.23729241E-02 0.12500233E+03</pdfrwt>
<pdfrwt beam="2">  1       -4 0.10288982E+00 0.12500233E+03</pdfrwt>
<totfact> 0.10144923E+03</totfact>
</mgrwt>
</event>
<event>
 5    1  0.1422067E-002  0.1249964E+03  0.7818608E-02  0.1235075E+00
          4   -1    0    0  501    0  0.00000000000E+00  0.00000000000E+00  0.61099829953E+02  0.61113027418E+02  0.12700000000E+01 0.  1.
         -4   -1    0    0    0  501 -0.00000000000E+00 -0.00000000000E+00 -0.63902181196E+02  0.63914800020E+02  0.12700000000E+01 0.  1.
         25    2    1    2    0    0  0.00000000000E+00  0.00000000000E+00 -0.28023512430E+01  0.12502782744E+03  0.12499641779E+03 0.  0.
    9000005    1    3    3    0    0  0.20557709492E+02 -0.42860225261E+02  0.39172643779E+02  0.61604499426E+02  0.10000000000E+01 0.  0.
    9000005    1    3    3    0    0 -0.20557709492E+02  0.42860225261E+02 -0.41974995022E+02  0.63423328011E+02  0.10000000000E+01 0.  0.
<mgrwt>
<rscale>  0 0.12499642E+03</rscale>
<asrwt>0</asrwt>
<pdfrwt beam="1">  1        4 0.15278185E-01 0.12499642E+03</pdfrwt>
<pdfrwt beam="2">  1       -4 0.15978772E-01 0.12499642E+03</pdfrwt>
<totfact> 0.19835209E+03</totfact>
</mgrwt>
</event>
<event>
 5    1  0.1422067E-002  0.1249933E+03  0.7818608E-02  0.1235080E+00
          4   -1    0    0  501    0  0.00000000000E+00  0.00000000000E+00  0.16050852824E+03  0.16051355251E+03  0.12700000000E+01 0.  1.
         -4   -1    0    0    0  501 -0.00000000000E+00 -0.00000000000E+00 -0.24312110264E+02  0.24345258378E+02  0.12700000000E+01 0.  1.
         25    2    1    2    0    0  0.00000000000E+00  0.00000000000E+00  0.13619641798E+03  0.18485881089E+03  0.12499326259E+03 0.  0.
    9000005    1    3    3    0    0  0.65107725214E+00 -0.34589401486E+02 -0.88637551790E+01  0.35726975139E+02  0.10000000000E+01 0.  0.
    9000005    1    3    3    0    0 -0.65107725214E+00  0.34589401486E+02  0.14506017316E+03  0.14913183575E+03  0.10000000000E+01 0.  0.
<mgrwt>
<rscale>  0 0.12499326E+03</rscale>
<asrwt>0</asrwt>
<pdfrwt beam="1">  1        4 0.40131903E-01 0.12499326E+03</pdfrwt>
<pdfrwt beam="2">  1       -4 0.60827992E-02 0.12499326E+03</pdfrwt>
<totfact> 0.16949471E+03</totfact>
</mgrwt>
</event>
<event>
 5    1  0.1422067E-002  0.1249971E+03  0.7818608E-02  0.1235074E+00
          4   -1    0    0  501    0  0.00000000000E+00  0.00000000000E+00  0.53725059753E+01  0.55205724753E+01  0.12700000000E+01 0. -1.
         -4   -1    0    0    0  501 -0.00000000000E+00 -0.00000000000E+00 -0.71701628594E+03  0.71701741067E+03  0.12700000000E+01 0. -1.
         25    2    1    2    0    0  0.00000000000E+00  0.00000000000E+00 -0.71164377996E+03  0.72253798314E+03  0.12499707006E+03 0.  0.
    9000005    1    3    3    0    0 -0.62486923258E+02  0.67077586000E+00 -0.35560851240E+03  0.36105883124E+03  0.10000000000E+01 0.  0.
    9000005    1    3    3    0    0  0.62486923258E+02 -0.67077586000E+00 -0.35603526756E+03  0.36147915191E+03  0.10000000000E+01 0.  0.
<mgrwt>
<rscale>  0 0.12499707E+03</rscale>
<asrwt>0</asrwt>
<pdfrwt beam="1">  1        4 0.13617778E-02 0.12499707E+03</pdfrwt>
<pdfrwt beam="2">  1       -4 0.17927240E+00 0.12499707E+03</pdfrwt>
<totfact> 0.59762317E+02</totfact>
</mgrwt>
</event>
<event>
 5    1  0.1422067E-002  0.1249979E+03  0.7818608E-02  0.1235073E+00
         -4   -1    0    0    0  501 -0.00000000000E+00  0.00000000000E+00  0.36537290998E+01  0.38681567102E+01  0.12700000000E+01 0. -1.
          4   -1    0    0  501    0  0.00000000000E+00 -0.00000000000E+00 -0.10383860479E+04  0.10383868246E+04  0.12700000000E+01 0. -1.
         25    2    1    2    0    0  0.00000000000E+00  0.00000000000E+00 -0.10347323188E+04  0.10422549813E+04  0.12499789745E+03 0.  0.
    9000005    1    3    3    0    0 -0.62424721303E+02 -0.28608899290E+01 -0.51489166101E+03  0.51867085237E+03  0.10000000000E+01 0.  0.
    9000005    1    3    3    0    0  0.62424721303E+02  0.28608899290E+01 -0.51984065783E+03  0.52358412891E+03  0.10000000000E+01 0.  0.
<mgrwt>
<rscale>  0 0.12499790E+03</rscale>
<asrwt>0</asrwt>
<pdfrwt beam="2">  1        4 0.25962243E+00 0.12499790E+03</pdfrwt>
<pdfrwt beam="1">  1       -4 0.94033636E-03 0.12499790E+03</pdfrwt>
<totfact> 0.34341841E+02</totfact>
</mgrwt>
</event>
<event>
 5    1  0.1422067E-002  0.1249984E+03  0.7818608E-02  0.1235072E+00
          4   -1    0    0  501    0  0.00000000000E+00  0.00000000000E+00  0.68835837796E+03  0.68835954951E+03  0.12700000000E+01 0. -1.
         -4   -1    0    0    0  501 -0.00000000000E+00 -0.00000000000E+00 -0.56023364514E+01  0.57444820232E+01  0.12700000000E+01 0. -1.
         25    2    1    2    0    0  0.00000000000E+00  0.00000000000E+00  0.68275604150E+03  0.69410403153E+03  0.12499837751E+03 0.  0.
    9000005    1    3    3    0    0  0.21339438931E+02 -0.12636115740E+02  0.65988951130E+03  0.66035612377E+03  0.10000000000E+01 0.  0.
    9000005    1    3    3    0    0 -0.21339438931E+02  0.12636115740E+02  0.22866530203E+02  0.33747907764E+02  0.10000000000E+01 0.  0.
<mgrwt>
<rscale>  0 0.12499838E+03</rscale>
<asrwt>0</asrwt>
<pdfrwt beam="1">  1        4 0.17210750E+00 0.12499838E+03</pdfrwt>
<pdfrwt beam="2">  1       -4 0.14184988E-02 0.12499838E+03</pdfrwt>
<totfact> 0.62683423E+02</totfact>
</mgrwt>
</event>
<event>
 5    1  0.1422067E-002  0.1249994E+03  0.7818608E-02  0.1235070E+00
         -4   -1    0    0    0  501 -0.00000000000E+00  0.00000000000E+00  0.33329032591E+02  0.33353220436E+02  0.12700000000E+01 0. -1.
          4   -1    0    0  501    0  0.00000000000E+00 -0.00000000000E+00 -0.11713127521E+03  0.11713816002E+03  0.12700000000E+01 0. -1.
         25    2    1    2    0    0  0.00000000000E+00  0.00000000000E+00 -0.83802242617E+02  0.15049138045E+03  0.12499935889E+03 0.  0.
    9000005    1    3    3    0    0 -0.89417433013E+01 -0.58483626093E+02 -0.66127516412E+02  0.88736338222E+02  0.10000000000E+01 0.  0.
    9000005    1    3    3    0    0  0.89417433013E+01  0.58483626093E+02 -0.17674726205E+02  0.61755042229E+02  0.10000000000E+01 0.  0.
<mgrwt>
<rscale>  0 0.12499936E+03</rscale>
<asrwt>0</asrwt>
<pdfrwt beam="2">  1        4 0.29286702E-01 0.12499936E+03</pdfrwt>
<pdfrwt beam="1">  1       -4 0.83361425E-02 0.12499936E+03</pdfrwt>
<totfact> 0.18514922E+03</totfact>
</mgrwt>
</event>
<event>
 5    1  0.1422067E-002  0.1249936E+03  0.7818608E-02  0.1235079E+00
          4   -1    0    0  501    0  0.00000000000E+00  0.00000000000E+00  0.83035827884E+03  0.83035925005E+03  0.12700000000E+01 0. -1.
         -4   -1    0    0    0  501 -0.00000000000E+00 -0.00000000000E+00 -0.46171011495E+01  0.47885825695E+01  0.12700000000E+01 0. -1.
         25    2    1    2    0    0  0.00000000000E+00  0.00000000000E+00  0.82574117770E+03  0.83514783262E+03  0.12499363900E+03 0.  0.
    9000005    1    3    3    0    0 -0.30658269073E+02 -0.48047501369E+02  0.58404809583E+03  0.58682337214E+03  0.10000000000E+01 0.  0.
    9000005    1    3    3    0    0  0.30658269073E+02  0.48047501369E+02  0.24169308187E+03  0.24832446048E+03  0.10000000000E+01 0.  0.
<mgrwt>
<rscale>  0 0.12499364E+03</rscale>
<asrwt>0</asrwt>
<pdfrwt beam="1">  1        4 0.20761119E+00 0.12499364E+03</pdfrwt>
<pdfrwt beam="2">  1       -4 0.11758315E-02 0.12499364E+03</pdfrwt>
<totfact> 0.49466497E+02</totfact>
</mgrwt>
</event>
<event>
 5    1  0.1422067E-002  0.1250015E+03  0.7818608E-02  0.1235067E+00
         -4   -1    0    0    0  501 -0.00000000000E+00  0.00000000000E+00  0.13969008252E+03  0.13969585554E+03  0.12700000000E+01 0. -1.
          4   -1    0    0  501    0  0.00000000000E+00 -0.00000000000E+00 -0.27943564763E+02  0.27972409830E+02  0.12700000000E+01 0. -1.
         25    2    1    2    0    0  0.00000000000E+00  0.00000000000E+00  0.11174651776E+03  0.16766826537E+03  0.12500145191E+03 0.  0.
    9000005    1    3    3    0    0  0.32888145851E+02  0.32617394046E+02  0.11214229439E+03  0.12133597456E+03  0.10000000000E+01 0.  0.
    9000005    1    3    3    0    0 -0.32888145851E+02 -0.32617394046E+02 -0.39577663612E+00  0.46332290803E+02  0.10000000000E+01 0.  0.
<mgrwt>
<rscale>  0 0.12500145E+03</rscale>
<asrwt>0</asrwt>
<pdfrwt beam="2">  1        4 0.69902186E-02 0.12500145E+03</pdfrwt>
<pdfrwt beam="1">  1       -4 0.34926847E-01 0.12500145E+03</pdfrwt>
<totfact> 0.17702137E+03</totfact>
</mgrwt>
</event>
<event>
 5    1  0.1422067E-002  0.1250050E+03  0.7818608E-02  0.1235061E+00
          4   -1    0    0  501    0  0.00000000000E+00  0.00000000000E+00  0.23412398683E+03  0.23412743135E+03  0.12700000000E+01 0. -1.
         -4   -1    0    0    0  501 -0.00000000000E+00 -0.00000000000E+00 -0.16658141488E+02  0.16706483108E+02  0.12700000000E+01 0. -1.
         25    2    1    2    0    0  0.00000000000E+00  0.00000000000E+00  0.21746584535E+03  0.25083391446E+03  0.12500503490E+03 0.  0.
    9000005    1    3    3    0    0  0.31979833600E+02  0.16342605860E+02  0.61065750562E+01  0.36442842676E+02  0.10000000000E+01 0.  0.
    9000005    1    3    3    0    0 -0.31979833600E+02 -0.16342605860E+02  0.21135927029E+03  0.21439107178E+03  0.10000000000E+01 0.  0.
<mgrwt>
<rscale>  0 0.12500503E+03</rscale>
<asrwt>0</asrwt>
<pdfrwt beam="1">  1        4 0.58537470E-01 0.12500503E+03</pdfrwt>
<pdfrwt beam="2">  1       -4 0.41710086E-02 0.12500503E+03</pdfrwt>
<totfact> 0.14468612E+03</totfact>
</mgrwt>
</event>
<event>
 5    1  0.1422067E-002  0.1250047E+03  0.7818608E-02  0.1235062E+00
          4   -1    0    0  501    0  0.00000000000E+00  0.00000000000E+00  0.88123455363E+01  0.89033888970E+01  0.12700000000E+01 0.  1.
         -4   -1    0    0    0  501 -0.00000000000E+00 -0.00000000000E+00 -0.44093330907E+03  0.44093513802E+03  0.12700000000E+01 0.  1.
         25    2    1    2    0    0  0.00000000000E+00  0.00000000000E+00 -0.43212096353E+03  0.44983852692E+03  0.12500469263E+03 0.  0.
    9000005    1    3    3    0    0  0.51563446952E+02  0.31291312728E+02 -0.27492856059E+03  0.28146873492E+03  0.10000000000E+01 0.  0.
    9000005    1    3    3    0    0 -0.51563446952E+02 -0.31291312728E+02 -0.15719240294E+03  0.16836979200E+03  0.10000000000E+01 0.  0.
<mgrwt>
<rscale>  0 0.12500469E+03</rscale>
<asrwt>0</asrwt>
<pdfrwt beam="1">  1        4 0.22146969E-02 0.12500469E+03</pdfrwt>
<pdfrwt beam="2">  1       -4 0.11024486E+00 0.12500469E+03</pdfrwt>
<totfact> 0.96035760E+02</totfact>
</mgrwt>
</event>
<event>
 5    1  0.1422067E-002  0.1249996E+03  0.7818608E-02  0.1235070E+00
          4   -1    0    0  501    0  0.00000000000E+00  0.00000000000E+00  0.13595983574E+02  0.13655170059E+02  0.12700000000E+01 0. -1.
         -4   -1    0    0    0  501 -0.00000000000E+00 -0.00000000000E+00 -0.28662290782E+03  0.28662572144E+03  0.12700000000E+01 0. -1.
         25    2    1    2    0    0  0.00000000000E+00  0.00000000000E+00 -0.27302692425E+03  0.30028089150E+03  0.12499964973E+03 0.  0.
    9000005    1    3    3    0    0  0.44598068209E+01  0.61960267808E+02 -0.12017399522E+03  0.13528397462E+03  0.10000000000E+01 0.  0.
    9000005    1    3    3    0    0 -0.44598068209E+01 -0.61960267808E+02 -0.15285292903E+03  0.16499691687E+03  0.10000000000E+01 0.  0.
<mgrwt>
<rscale>  0 0.12499965E+03</rscale>
<asrwt>0</asrwt>
<pdfrwt beam="1">  1        4 0.34067468E-02 0.12499965E+03</pdfrwt>
<pdfrwt beam="2">  1       -4 0.71663457E-01 0.12499965E+03</pdfrwt>
<totfact> 0.12963293E+03</totfact>
</mgrwt>
</event>
<event>
 5    1  0.1422067E-002  0.1250018E+03  0.7818608E-02  0.1235066E+00
          4   -1    0    0  501    0  0.00000000000E+00  0.00000000000E+00  0.41154856027E+02  0.41174446864E+02  0.12700000000E+01 0. -1.
         -4   -1    0    0    0  501 -0.00000000000E+00 -0.00000000000E+00 -0.94872194374E+02  0.94880694376E+02  0.12700000000E+01 0. -1.
         25    2    1    2    0    0  0.00000000000E+00  0.00000000000E+00 -0.53717338347E+02  0.13605514124E+03  0.12500179606E+03 0.  0.
    9000005    1    3    3    0    0  0.53547940906E+02 -0.32101398029E+02 -0.23881765969E+02  0.66852228658E+02  0.10000000000E+01 0.  0.
    9000005    1    3    3    0    0 -0.53547940906E+02  0.32101398029E+02 -0.29835572378E+02  0.69202912582E+02  0.10000000000E+01 0.  0.
<mgrwt>
<rscale>  0 0.12500180E+03</rscale>
<asrwt>0</asrwt>
<pdfrwt beam="1">  1        4 0.10292226E-01 0.12500180E+03</pdfrwt>
<pdfrwt beam="2">  1       -4 0.23721560E-01 0.12500180E+03</pdfrwt>
<totfact> 0.19243206E+03</totfact>
</mgrwt>
</event>
<event>
 5    1  0.1422067E-002  0.1249995E+03  0.7818608E-02  0.1235070E+00
         -4   -1    0    0    0  501 -0.00000000000E+00  0.00000000000E+00  0.11489064986E+03  0.11489766893E+03  0.12700000000E+01 0. -1.
          4   -1    0    0  501    0  0.00000000000E+00 -0.00000000000E+00 -0.33979525671E+02  0.34003250798E+02  0.12700000000E+01 0. -1.
         25    2    1    2    0    0  0.00000000000E+00  0.00000000000E+00  0.80911124188E+02  0.14890091973E+03  0.12499949551E+03 0.  0.
    9000005    1    3    3    0    0  0.12277210131E+02 -0.11164145132E+02  0.11222399874E+03  0.11344864000E+03  0.10000000000E+01 0.  0.
    9000005    1    3    3    0    0 -0.12277210131E+02  0.11164145132E+02 -0.31312874550E+02  0.35452279726E+02  0.10000000000E+01 0.  0.
<mgrwt>
<rscale>  0 0.12499950E+03</rscale>
<asrwt>0</asrwt>
<pdfrwt beam="2">  1        4 0.84987244E-02 0.12499950E+03</pdfrwt>
<pdfrwt beam="1">  1       -4 0.28726506E-01 0.12499950E+03</pdfrwt>
<totfact> 0.18593173E+03</totfact>
</mgrwt>
</event>
<event>
 5    1  0.1422067E-002  0.1249994E+03  0.7818608E-02  0.1235070E+00
          4   -1    0    0  501    0  0.00000000000E+00  0.00000000000E+00  0.39185709595E+02  0.39206284400E+02  0.12700000000E+01 0.  1.
         -4   -1    0    0    0  501 -0.00000000000E+00 -0.00000000000E+00 -0.99633891821E+02  0.99641985625E+02  0.12700000000E+01 0.  1.
         25    2    1    2    0    0  0.00000000000E+00  0.00000000000E+00 -0.60448182226E+02  0.13884827003E+03  0.12499943742E+03 0.  0.
    9000005    1    3    3    0    0 -0.23210020191E+02  0.36550760768E+02 -0.80278166021E+02  0.91215388448E+02  0.10000000000E+01 0.  0.
    9000005    1    3    3    0    0  0.23210020191E+02 -0.36550760768E+02  0.19829983795E+02  0.47632881577E+02  0.10000000000E+01 0.  0.
<mgrwt>
<rscale>  0 0.12499944E+03</rscale>
<asrwt>0</asrwt>
<pdfrwt beam="1">  1        4 0.98000112E-02 0.12499944E+03</pdfrwt>
<pdfrwt beam="2">  1       -4 0.24912056E-01 0.12499944E+03</pdfrwt>
<totfact> 0.19099669E+03</totfact>
</mgrwt>
</event>
<event>
 5    1  0.1422067E-002  0.1250019E+03  0.7818608E-02  0.1235066E+00
         -4   -1    0    0    0  501 -0.00000000000E+00  0.00000000000E+00  0.41993973073E+02  0.42013172630E+02  0.12700000000E+01 0. -1.
          4   -1    0    0  501    0  0.00000000000E+00 -0.00000000000E+00 -0.92977400083E+02  0.92986073292E+02  0.12700000000E+01 0. -1.
         25    2    1    2    0    0  0.00000000000E+00  0.00000000000E+00 -0.50983427010E+02  0.13499924592E+03  0.12500194626E+03 0.  0.
    9000005    1    3    3    0    0 -0.12325687207E+02 -0.60354116744E+02 -0.36861245457E+02  0.71793407704E+02  0.10000000000E+01 0.  0.
    9000005    1    3    3    0    0  0.12325687207E+02  0.60354116744E+02 -0.14122181554E+02  0.63205838219E+02  0.10000000000E+01 0.  0.
<mgrwt>
<rscale>  0 0.12500195E+03</rscale>
<asrwt>0</asrwt>
<pdfrwt beam="2">  1        4 0.23247834E-01 0.12500195E+03</pdfrwt>
<pdfrwt beam="1">  1       -4 0.10501978E-01 0.12500195E+03</pdfrwt>
<totfact> 0.19298300E+03</totfact>
</mgrwt>
</event>
<event>
 5    1  0.1422067E-002  0.1250117E+03  0.7818608E-02  0.1235051E+00
         -4   -1    0    0    0  501 -0.00000000000E+00  0.00000000000E+00  0.27342844140E+03  0.27343139079E+03  0.12700000000E+01 0. -1.
          4   -1    0    0  501    0  0.00000000000E+00 -0.00000000000E+00 -0.14257610625E+02  0.14314061644E+02  0.12700000000E+01 0. -1.
         25    2    1    2    0    0  0.00000000000E+00  0.00000000000E+00  0.25917083078E+03  0.28774545243E+03  0.12501170293E+03 0.  0.
    9000005    1    3    3    0    0 -0.44335828242E+02  0.43805629137E+02  0.14022901759E+03  0.15345936330E+03  0.10000000000E+01 0.  0.
    9000005    1    3    3    0    0  0.44335828242E+02 -0.43805629137E+02  0.11894181318E+03  0.13428608913E+03  0.10000000000E+01 0.  0.
<mgrwt>
<rscale>  0 0.12501170E+03</rscale>
<asrwt>0</asrwt>
<pdfrwt beam="2">  1        4 0.35718276E-02 0.12501170E+03</pdfrwt>
<pdfrwt beam="1">  1       -4 0.68364537E-01 0.12501170E+03</pdfrwt>
<totfact> 0.13318024E+03</totfact>
</mgrwt>
</event>
<event>
 5    1  0.1422067E-002  0.1249866E+03  0.7818608E-02  0.1235090E+00
          4   -1    0    0  501    0  0.00000000000E+00  0.00000000000E+00  0.24258924904E+03  0.24259257336E+03  0.12700000000E+01 0.  1.
         -4   -1    0    0    0  501 -0.00000000000E+00 -0.00000000000E+00 -0.16070377368E+02  0.16120481654E+02  0.12700000000E+01 0.  1.
         25    2    1    2    0    0  0.00000000000E+00  0.00000000000E+00  0.22651887168E+03  0.25871305502E+03  0.12498658173E+03 0.  0.
    9000005    1    3    3    0    0 -0.12866937512E+02 -0.23967982088E+02 -0.31799477123E+01  0.27406829693E+02  0.10000000000E+01 0.  0.
    9000005    1    3    3    0    0  0.12866937512E+02  0.23967982088E+02  0.22969881939E+03  0.23130622533E+03  0.10000000000E+01 0.  0.
<mgrwt>
<rscale>  0 0.12498658E+03</rscale>
<asrwt>0</asrwt>
<pdfrwt beam="1">  1        4 0.60653990E-01 0.12498658E+03</pdfrwt>
<pdfrwt beam="2">  1       -4 0.40242730E-02 0.12498658E+03</pdfrwt>
<totfact> 0.14216954E+03</totfact>
</mgrwt>
</event>
<event>
 5    1  0.1422067E-002  0.1250038E+03  0.7818608E-02  0.1235063E+00
         -4   -1    0    0    0  501 -0.00000000000E+00  0.00000000000E+00  0.35501484030E+02  0.35524192719E+02  0.12700000000E+01 0. -1.
          4   -1    0    0  501    0  0.00000000000E+00 -0.00000000000E+00 -0.10997578021E+03  0.10998311295E+03  0.12700000000E+01 0. -1.
         25    2    1    2    0    0  0.00000000000E+00  0.00000000000E+00 -0.74474296183E+02  0.14550730567E+03  0.12500382078E+03 0.  0.
    9000005    1    3    3    0    0  0.37000380496E+02 -0.11484076054E+02  0.19842439101E+02  0.43538885484E+02  0.10000000000E+01 0.  0.
    9000005    1    3    3    0    0 -0.37000380496E+02  0.11484076054E+02 -0.94316735284E+02  0.10196842018E+03  0.10000000000E+01 0.  0.
<mgrwt>
<rscale>  0 0.12500382E+03</rscale>
<asrwt>0</asrwt>
<pdfrwt beam="2">  1        4 0.27497699E-01 0.12500382E+03</pdfrwt>
<pdfrwt beam="1">  1       -4 0.88791264E-02 0.12500382E+03</pdfrwt>
<totfact> 0.18760246E+03</totfact>
</mgrwt>
</event>
<event>
 5    1  0.1422067E-002  0.1249991E+03  0.7818608E-02  0.1235071E+00
         -4   -1    0    0    0  501 -0.00000000000E+00  0.00000000000E+00  0.11147614784E+03  0.11148338189E+03  0.12700000000E+01 0.  1.
          4   -1    0    0  501    0  0.00000000000E+00 -0.00000000000E+00 -0.35020735058E+02  0.35043755278E+02  0.12700000000E+01 0.  1.
         25    2    1    2    0    0  0.00000000000E+00  0.00000000000E+00  0.76455412783E+02  0.14652713717E+03  0.12499908713E+03 0.  0.
    9000005    1    3    3    0    0 -0.53972166692E+02 -0.59426732748E+01  0.74488774938E+02  0.92183988495E+02  0.10000000000E+01 0.  0.
    9000005    1    3    3    0    0  0.53972166692E+02  0.59426732748E+01  0.19666378443E+01  0.54343148671E+02  0.10000000000E+01 0.  0.
<mgrwt>
<rscale>  0 0.12499909E+03</rscale>
<asrwt>0</asrwt>
<pdfrwt beam="2">  1        4 0.87589656E-02 0.12499909E+03</pdfrwt>
<pdfrwt beam="1">  1       -4 0.27872819E-01 0.12499909E+03</pdfrwt>
<totfact> 0.18711268E+03</totfact>
</mgrwt>
</event>
<event>
 5    1  0.1422067E-002  0.1250066E+03  0.7818608E-02  0.1235059E+00
         -4   -1    0    0    0  501 -0.00000000000E+00  0.00000000000E+00  0.60419981276E+02  0.60433327208E+02  0.12700000000E+01 0. -1.
          4   -1    0    0  501    0  0.00000000000E+00 -0.00000000000E+00 -0.64631729243E+02  0.64644205657E+02  0.12700000000E+01 0. -1.
         25    2    1    2    0    0  0.00000000000E+00  0.00000000000E+00 -0.42117479674E+01  0.12507753286E+03  0.12500660145E+03 0.  0.
    9000005    1    3    3    0    0 -0.94404170888E+01 -0.46231584966E+02 -0.43106945019E+02  0.63919399497E+02  0.10000000000E+01 0.  0.
    9000005    1    3    3    0    0  0.94404170888E+01  0.46231584966E+02  0.38895197051E+02  0.61158133367E+02  0.10000000000E+01 0.  0.
<mgrwt>
<rscale>  0 0.12500660E+03</rscale>
<asrwt>0</asrwt>
<pdfrwt beam="2">  1        4 0.16161160E-01 0.12500660E+03</pdfrwt>
<pdfrwt beam="1">  1       -4 0.15108223E-01 0.12500660E+03</pdfrwt>
<totfact> 0.19827788E+03</totfact>
</mgrwt>
</event>
<event>
 5    1  0.1422067E-002  0.1250017E+03  0.7818608E-02  0.1235067E+00
         -4   -1    0    0    0  501 -0.00000000000E+00  0.00000000000E+00  0.25848552944E+02  0.25879733177E+02  0.12700000000E+01 0.  1.
          4   -1    0    0  501    0  0.00000000000E+00 -0.00000000000E+00 -0.15099976772E+03  0.15100510836E+03  0.12700000000E+01 0.  1.
         25    2    1    2    0    0  0.00000000000E+00  0.00000000000E+00 -0.12515121477E+03  0.17688484154E+03  0.12500168241E+03 0.  0.
    9000005    1    3    3    0    0 -0.47412936656E+02 -0.12957170456E+02 -0.11718811820E+03  0.12708237437E+03  0.10000000000E+01 0.  0.
    9000005    1    3    3    0    0  0.47412936656E+02  0.12957170456E+02 -0.79630965710E+01  0.49802467164E+02  0.10000000000E+01 0.  0.
<mgrwt>
<rscale>  0 0.12500168E+03</rscale>
<asrwt>0</asrwt>
<pdfrwt beam="2">  1        4 0.37754505E-01 0.12500168E+03</pdfrwt>
<pdfrwt beam="1">  1       -4 0.64667038E-02 0.12500168E+03</pdfrwt>
<totfact> 0.17290235E+03</totfact>
</mgrwt>
</event>
<event>
 5    1  0.1422067E-002  0.1249831E+03  0.7818608E-02  0.1235096E+00
         -4   -1    0    0    0  501 -0.00000000000E+00  0.00000000000E+00  0.45077917246E+01  0.46832772961E+01  0.12700000000E+01 0.  1.
          4   -1    0    0  501    0  0.00000000000E+00 -0.00000000000E+00 -0.84960399043E+03  0.84960493963E+03  0.12700000000E+01 0.  1.
         25    2    1    2    0    0  0.00000000000E+00  0.00000000000E+00 -0.84509619870E+03  0.85428821693E+03  0.12498308895E+03 0.  0.
    9000005    1    3    3    0    0 -0.57613867400E+02  0.38710426033E+01 -0.25938061891E+03  0.26573228662E+03  0.10000000000E+01 0.  0.
    9000005    1    3    3    0    0  0.57613867400E+02 -0.38710426033E+01 -0.58571557980E+03  0.58855593031E+03  0.10000000000E+01 0.  0.
<mgrwt>
<rscale>  0 0.12498309E+03</rscale>
<asrwt>0</asrwt>
<pdfrwt beam="2">  1        4 0.21242252E+00 0.12498309E+03</pdfrwt>
<pdfrwt beam="1">  1       -4 0.11490052E-02 0.12498309E+03</pdfrwt>
<totfact> 0.47898582E+02</totfact>
</mgrwt>
</event>
<event>
 5    1  0.1422067E-002  0.1250017E+03  0.7818608E-02  0.1235067E+00
          4   -1    0    0  501    0  0.00000000000E+00  0.00000000000E+00  0.88081766417E+01  0.88992626521E+01  0.12700000000E+01 0. -1.
         -4   -1    0    0    0  501 -0.00000000000E+00 -0.00000000000E+00 -0.44111850392E+03  0.44112033211E+03  0.12700000000E+01 0. -1.
         25    2    1    2    0    0  0.00000000000E+00  0.00000000000E+00 -0.43231032728E+03  0.45001959476E+03  0.12500166638E+03 0.  0.
    9000005    1    3    3    0    0 -0.14721959574E+02 -0.21971315628E+02 -0.41999506871E+03  0.42082815085E+03  0.10000000000E+01 0.  0.
    9000005    1    3    3    0    0  0.14721959574E+02  0.21971315628E+02 -0.12315258564E+02  0.29191443911E+02  0.10000000000E+01 0.  0.
<mgrwt>
<rscale>  0 0.12500167E+03</rscale>
<asrwt>0</asrwt>
<pdfrwt beam="1">  1        4 0.22136599E-02 0.12500167E+03</pdfrwt>
<pdfrwt beam="2">  1       -4 0.11029117E+00 0.12500167E+03</pdfrwt>
<totfact> 0.96009850E+02</totfact>
</mgrwt>
</event>
<event>
 5    1  0.1422067E-002  0.1249961E+03  0.7818608E-02  0.1235075E+00
          4   -1    0    0  501    0  0.00000000000E+00  0.00000000000E+00  0.65345854116E+01  0.66568540995E+01  0.12700000000E+01 0. -1.
         -4   -1    0    0    0  501 -0.00000000000E+00 -0.00000000000E+00 -0.59208004105E+03  0.59208140311E+03  0.12700000000E+01 0. -1.
         25    2    1    2    0    0  0.00000000000E+00  0.00000000000E+00 -0.58554545564E+03  0.59873825721E+03  0.12499608005E+03 0.  0.
    9000005    1    3    3    0    0  0.22731144030E+02 -0.31778661499E+02 -0.59166404229E+02  0.70910165879E+02  0.10000000000E+01 0.  0.
    9000005    1    3    3    0    0 -0.22731144030E+02  0.31778661499E+02 -0.52637905141E+03  0.52782809134E+03  0.10000000000E+01 0.  0.
<mgrwt>
<rscale>  0 0.12499608E+03</rscale>
<asrwt>0</asrwt>
<pdfrwt beam="1">  1        4 0.16491022E-02 0.12499608E+03</pdfrwt>
<pdfrwt beam="2">  1       -4 0.14803528E+00 0.12499608E+03</pdfrwt>
<totfact> 0.73668496E+02</totfact>
</mgrwt>
</event>
<event>
 5    1  0.1422067E-002  0.1249997E+03  0.7818608E-02  0.1235070E+00
         -4   -1    0    0    0  501 -0.00000000000E+00  0.00000000000E+00  0.19110450513E+03  0.19110872503E+03  0.12700000000E+01 0.  1.
          4   -1    0    0  501    0  0.00000000000E+00 -0.00000000000E+00 -0.20416108987E+02  0.20455571519E+02  0.12700000000E+01 0.  1.
         25    2    1    2    0    0  0.00000000000E+00  0.00000000000E+00  0.17068839614E+03  0.21156429655E+03  0.12499969198E+03 0.  0.
    9000005    1    3    3    0    0 -0.11274169534E+02 -0.48799202761E+02  0.14859915847E+03  0.15681574853E+03  0.10000000000E+01 0.  0.
    9000005    1    3    3    0    0  0.11274169534E+02  0.48799202761E+02  0.22089237670E+02  0.54748548014E+02  0.10000000000E+01 0.  0.
<mgrwt>
<rscale>  0 0.12499969E+03</rscale>
<asrwt>0</asrwt>
<pdfrwt beam="2">  1        4 0.51094875E-02 0.12499969E+03</pdfrwt>
<pdfrwt beam="1">  1       -4 0.47781587E-01 0.12499969E+03</pdfrwt>
<totfact> 0.15869341E+03</totfact>
</mgrwt>
</event>
<event>
 5    1  0.1422067E-002  0.1250006E+03  0.7818608E-02  0.1235068E+00
         -4   -1    0    0    0  501 -0.00000000000E+00  0.00000000000E+00  0.83448762742E+01  0.84409632171E+01  0.12700000000E+01 0. -1.
          4   -1    0    0  501    0  0.00000000000E+00 -0.00000000000E+00 -0.46532922630E+03  0.46533095937E+03  0.12700000000E+01 0. -1.
         25    2    1    2    0    0  0.00000000000E+00  0.00000000000E+00 -0.45698435002E+03  0.47377192258E+03  0.12500055385E+03 0.  0.
    9000005    1    3    3    0    0  0.17912977095E+02 -0.17378558644E+02 -0.44563867851E+03  0.44633812389E+03  0.10000000000E+01 0.  0.
    9000005    1    3    3    0    0 -0.17912977095E+02  0.17378558644E+02 -0.11345671510E+02  0.27433798698E+02  0.10000000000E+01 0.  0.
<mgrwt>
<rscale>  0 0.12500055E+03</rscale>
<asrwt>0</asrwt>
<pdfrwt beam="2">  1        4 0.11634445E+00 0.12500055E+03</pdfrwt>
<pdfrwt beam="1">  1       -4 0.20984481E-02 0.12500055E+03</pdfrwt>
<totfact> 0.91898922E+02</totfact>
</mgrwt>
</event>
<event>
 5    1  0.1422067E-002  0.1249740E+03  0.7818608E-02  0.1235110E+00
         -4   -1    0    0    0  501 -0.00000000000E+00  0.00000000000E+00  0.67619807030E+02  0.67631732218E+02  0.12700000000E+01 0. -1.
          4   -1    0    0  501    0  0.00000000000E+00 -0.00000000000E+00 -0.57719842789E+02  0.57733812897E+02  0.12700000000E+01 0. -1.
         25    2    1    2    0    0  0.00000000000E+00  0.00000000000E+00  0.98999642412E+01  0.12536554511E+03  0.12497403974E+03 0.  0.
    9000005    1    3    3    0    0 -0.35439671393E+02 -0.43725424956E+02  0.32159566854E+02  0.64831480287E+02  0.10000000000E+01 0.  0.
    9000005    1    3    3    0    0  0.35439671393E+02  0.43725424956E+02 -0.22259602613E+02  0.60534064827E+02  0.10000000000E+01 0.  0.
<mgrwt>
<rscale>  0 0.12497404E+03</rscale>
<asrwt>0</asrwt>
<pdfrwt beam="2">  1        4 0.14433198E-01 0.12497404E+03</pdfrwt>
<pdfrwt beam="1">  1       -4 0.16908189E-01 0.12497404E+03</pdfrwt>
<totfact> 0.19827284E+03</totfact>
</mgrwt>
</event>
<event>
 5    1  0.1422067E-002  0.1250016E+03  0.7818608E-02  0.1235067E+00
         -4   -1    0    0    0  501 -0.00000000000E+00  0.00000000000E+00  0.69527481370E+02  0.69539079413E+02  0.12700000000E+01 0. -1.
          4   -1    0    0  501    0  0.00000000000E+00 -0.00000000000E+00 -0.56160763545E+02  0.56175121379E+02  0.12700000000E+01 0. -1.
         25    2    1    2    0    0  0.00000000000E+00  0.00000000000E+00  0.13366717825E+02  0.12571420079E+03  0.12500156453E+03 0.  0.
    9000005    1    3    3    0    0  0.28635911880E+02  0.52456494830E+02 -0.11686823489E+02  0.60903868041E+02  0.10000000000E+01 0.  0.
    9000005    1    3    3    0    0 -0.28635911880E+02 -0.52456494830E+02  0.25053541314E+02  0.64810332752E+02  0.10000000000E+01 0.  0.
<mgrwt>
<rscale>  0 0.12500156E+03</rscale>
<asrwt>0</asrwt>
<pdfrwt beam="2">  1        4 0.14043435E-01 0.12500156E+03</pdfrwt>
<pdfrwt beam="1">  1       -4 0.17385115E-01 0.12500156E+03</pdfrwt>
<totfact> 0.19795648E+03</totfact>
</mgrwt>
</event>
<event>
 5    1  0.1422067E-002  0.1250224E+03  0.7818608E-02  0.1235034E+00
          4   -1    0    0  501    0  0.00000000000E+00  0.00000000000E+00  0.23420605899E+03  0.23420950230E+03  0.12700000000E+01 0.  1.
         -4   -1    0    0    0  501 -0.00000000000E+00 -0.00000000000E+00 -0.16656919930E+02  0.16705265085E+02  0.12700000000E+01 0.  1.
         25    2    1    2    0    0  0.00000000000E+00  0.00000000000E+00  0.21754913906E+03  0.25091476738E+03  0.12502236834E+03 0.  0.
    9000005    1    3    3    0    0 -0.19681788158E+02 -0.54574884024E+02  0.62100046709E+02  0.84989449654E+02  0.10000000000E+01 0.  0.
    9000005    1    3    3    0    0  0.19681788158E+02  0.54574884024E+02  0.15544909235E+03  0.16592531773E+03  0.10000000000E+01 0.  0.
<mgrwt>
<rscale>  0 0.12502237E+03</rscale>
<asrwt>0</asrwt>
<pdfrwt beam="1">  1        4 0.58557988E-01 0.12502237E+03</pdfrwt>
<pdfrwt beam="2">  1       -4 0.41707036E-02 0.12502237E+03</pdfrwt>
<totfact> 0.14460165E+03</totfact>
</mgrwt>
</event>
<event>
 5    1  0.1422067E-002  0.1249974E+03  0.7818608E-02  0.1235073E+00
          4   -1    0    0  501    0  0.00000000000E+00  0.00000000000E+00  0.89348773861E+02  0.89357799271E+02  0.12700000000E+01 0.  1.
         -4   -1    0    0    0  501 -0.00000000000E+00 -0.00000000000E+00 -0.43696818525E+02  0.43715270206E+02  0.12700000000E+01 0.  1.
         25    2    1    2    0    0  0.00000000000E+00  0.00000000000E+00  0.45651955337E+02  0.13307306948E+03  0.12499736315E+03 0.  0.
    9000005    1    3    3    0    0  0.55460662144E+02 -0.11413259792E+02  0.50971450037E+02  0.76192101057E+02  0.10000000000E+01 0.  0.
    9000005    1    3    3    0    0 -0.55460662144E+02  0.11413259792E+02 -0.53194947002E+01  0.56880968420E+02  0.10000000000E+01 0.  0.
<mgrwt>
<rscale>  0 0.12499736E+03</rscale>
<asrwt>0</asrwt>
<pdfrwt beam="1">  1        4 0.22340628E-01 0.12499736E+03</pdfrwt>
<pdfrwt beam="2">  1       -4 0.10927639E-01 0.12499736E+03</pdfrwt>
<totfact> 0.19401744E+03</totfact>
</mgrwt>
</event>
<event>
 5    1  0.1422067E-002  0.1250082E+03  0.7818608E-02  0.1235056E+00
          4   -1    0    0  501    0  0.00000000000E+00  0.00000000000E+00  0.82570803026E+01  0.83541771063E+01  0.12700000000E+01 0. -1.
         -4   -1    0    0    0  501 -0.00000000000E+00 -0.00000000000E+00 -0.47027718020E+03  0.47027889504E+03  0.12700000000E+01 0. -1.
         25    2    1    2    0    0  0.00000000000E+00  0.00000000000E+00 -0.46202009990E+03  0.47863307215E+03  0.12500817989E+03 0.  0.
    9000005    1    3    3    0    0 -0.44885983976E+02 -0.34409353268E+02 -0.33281663160E+03  0.33758949246E+03  0.10000000000E+01 0.  0.
    9000005    1    3    3    0    0  0.44885983976E+02  0.34409353268E+02 -0.12920346830E+03  0.14104357968E+03  0.10000000000E+01 0.  0.
<mgrwt>
<rscale>  0 0.12500818E+03</rscale>
<asrwt>0</asrwt>
<pdfrwt beam="1">  1        4 0.20766231E-02 0.12500818E+03</pdfrwt>
<pdfrwt beam="2">  1       -4 0.11758156E+00 0.12500818E+03</pdfrwt>
<totfact> 0.91076390E+02</totfact>
</mgrwt>
</event>
<event>
 5    1  0.1422067E-002  0.1250006E+03  0.7818608E-02  0.1235068E+00
         -4   -1    0    0    0  501 -0.00000000000E+00  0.00000000000E+00  0.13102201276E+02  0.13163608102E+02  0.12700000000E+01 0. -1.
          4   -1    0    0  501    0  0.00000000000E+00 -0.00000000000E+00 -0.29738014775E+03  0.29738285959E+03  0.12700000000E+01 0. -1.
         25    2    1    2    0    0  0.00000000000E+00  0.00000000000E+00 -0.28427794648E+03  0.31054646769E+03  0.12500063097E+03 0.  0.
    9000005    1    3    3    0    0 -0.16090320173E+02  0.14941404358E+02 -0.28749299949E+03  0.28833204595E+03  0.10000000000E+01 0.  0.
    9000005    1    3    3    0    0  0.16090320173E+02 -0.14941404358E+02  0.32150530100E+01  0.22214421742E+02  0.10000000000E+01 0.  0.
<mgrwt>
<rscale>  0 0.12500063E+03</rscale>
<asrwt>0</asrwt>
<pdfrwt beam="2">  1        4 0.74353030E-01 0.12500063E+03</pdfrwt>
<pdfrwt beam="1">  1       -4 0.32835661E-02 0.12500063E+03</pdfrwt>
<totfact> 0.12680355E+03</totfact>
</mgrwt>
</event>
<event>
 5    1  0.1422067E-002  0.1249785E+03  0.7818608E-02  0.1235103E+00
         -4   -1    0    0    0  501 -0.00000000000E+00  0.00000000000E+00  0.13119656141E+03  0.13120270815E+03  0.12700000000E+01 0.  1.
          4   -1    0    0  501    0  0.00000000000E+00 -0.00000000000E+00 -0.29743379147E+02  0.29770480398E+02  0.12700000000E+01 0.  1.
         25    2    1    2    0    0  0.00000000000E+00  0.00000000000E+00  0.10145318227E+03  0.16097318855E+03  0.12497847511E+03 0.  0.
    9000005    1    3    3    0    0 -0.66163921014E+01  0.41242862898E+02 -0.91228607778E+01  0.42766540347E+02  0.10000000000E+01 0.  0.
    9000005    1    3    3    0    0  0.66163921014E+01 -0.41242862898E+02  0.11057604304E+03  0.11820664821E+03  0.10000000000E+01 0.  0.
<mgrwt>
<rscale>  0 0.12497848E+03</rscale>
<asrwt>0</asrwt>
<pdfrwt beam="2">  1        4 0.74400009E-02 0.12497848E+03</pdfrwt>
<pdfrwt beam="1">  1       -4 0.32803296E-01 0.12497848E+03</pdfrwt>
<totfact> 0.18021064E+03</totfact>
</mgrwt>
</event>
<event>
 5    1  0.1422067E-002  0.1250023E+03  0.7818608E-02  0.1235066E+00
         -4   -1    0    0    0  501 -0.00000000000E+00  0.00000000000E+00  0.60167415899E+02  0.60180817841E+02  0.12700000000E+01 0.  1.
          4   -1    0    0  501    0  0.00000000000E+00 -0.00000000000E+00 -0.64898544909E+02  0.64910970038E+02  0.12700000000E+01 0.  1.
         25    2    1    2    0    0  0.00000000000E+00  0.00000000000E+00 -0.47311290093E+01  0.12509178788E+03  0.12500228723E+03 0.  0.
    9000005    1    3    3    0    0 -0.14226849730E+02  0.47323124067E+02  0.35917696906E+02  0.61097972763E+02  0.10000000000E+01 0.  0.
    9000005    1    3    3    0    0  0.14226849730E+02 -0.47323124067E+02 -0.40648825915E+02  0.63993815115E+02  0.10000000000E+01 0.  0.
<mgrwt>
<rscale>  0 0.12500229E+03</rscale>
<asrwt>0</asrwt>
<pdfrwt beam="2">  1        4 0.16227865E-01 0.12500229E+03</pdfrwt>
<pdfrwt beam="1">  1       -4 0.15045082E-01 0.12500229E+03</pdfrwt>
<totfact> 0.19829017E+03</totfact>
</mgrwt>
</event>
<event>
 5    1  0.1422067E-002  0.1250024E+03  0.7818608E-02  0.1235066E+00
          4   -1    0    0  501    0  0.00000000000E+00  0.00000000000E+00  0.42427650415E+03  0.42427840491E+03  0.12700000000E+01 0.  1.
         -4   -1    0    0    0  501 -0.00000000000E+00 -0.00000000000E+00 -0.91614755035E+01  0.92490828411E+01  0.12700000000E+01 0.  1.
         25    2    1    2    0    0  0.00000000000E+00  0.00000000000E+00  0.41511502865E+03  0.43352748775E+03  0.12500238249E+03 0.  0.
    9000005    1    3    3    0    0 -0.44861142908E+02 -0.20283388327E+02  0.34104589003E+03  0.34458269993E+03  0.10000000000E+01 0.  0.
    9000005    1    3    3    0    0  0.44861142908E+02  0.20283388327E+02  0.74069138612E+02  0.88944787817E+02  0.10000000000E+01 0.  0.
<mgrwt>
<rscale>  0 0.12500238E+03</rscale>
<asrwt>0</asrwt>
<pdfrwt beam="1">  1        4 0.10608031E+00 0.12500238E+03</pdfrwt>
<pdfrwt beam="2">  1       -4 0.23015575E-02 0.12500238E+03</pdfrwt>
<totfact> 0.99045970E+02</totfact>
</mgrwt>
</event>
<event>
 5    1  0.1422067E-002  0.1250021E+03  0.7818608E-02  0.1235066E+00
          4   -1    0    0  501    0  0.00000000000E+00  0.00000000000E+00  0.79771832129E+01  0.80776452022E+01  0.12700000000E+01 0. -1.
         -4   -1    0    0    0  501 -0.00000000000E+00 -0.00000000000E+00 -0.48652902772E+03  0.48653068528E+03  0.12700000000E+01 0. -1.
         25    2    1    2    0    0  0.00000000000E+00  0.00000000000E+00 -0.47855184451E+03  0.49460833048E+03  0.12500213077E+03 0.  0.
    9000005    1    3    3    0    0  0.46702618488E+01  0.37225840268E+02 -0.41522689009E+02  0.55970601497E+02  0.10000000000E+01 0.  0.
    9000005    1    3    3    0    0 -0.46702618488E+01 -0.37225840268E+02 -0.43702915550E+03  0.43863772898E+03  0.10000000000E+01 0.  0.
<mgrwt>
<rscale>  0 0.12500213E+03</rscale>
<asrwt>0</asrwt>
<pdfrwt beam="1">  1        4 0.20070624E-02 0.12500213E+03</pdfrwt>
<pdfrwt beam="2">  1       -4 0.12164492E+00 0.12500213E+03</pdfrwt>
<totfact> 0.88466578E+02</totfact>
</mgrwt>
</event>
<event>
 5    1  0.1422067E-002  0.1249989E+03  0.7818608E-02  0.1235071E+00
         -4   -1    0    0    0  501 -0.00000000000E+00  0.00000000000E+00  0.52867494218E+02  0.52882746193E+02  0.12700000000E+01 0.  1.
          4   -1    0    0  501    0  0.00000000000E+00 -0.00000000000E+00 -0.73854908686E+02  0.73865827261E+02  0.12700000000E+01 0.  1.
         25    2    1    2    0    0  0.00000000000E+00  0.00000000000E+00 -0.20987414468E+02  0.12674857345E+03  0.12499891722E+03 0.  0.
    9000005    1    3    3    0    0  0.18852484687E+02  0.50310502816E+02 -0.42856263031E+02  0.68732977190E+02  0.10000000000E+01 0.  0.
    9000005    1    3    3    0    0 -0.18852484687E+02 -0.50310502816E+02  0.21868848563E+02  0.58015596264E+02  0.10000000000E+01 0.  0.
<mgrwt>
<rscale>  0 0.12499892E+03</rscale>
<asrwt>0</asrwt>
<pdfrwt beam="2">  1        4 0.18466998E-01 0.12499892E+03</pdfrwt>
<pdfrwt beam="1">  1       -4 0.13220145E-01 0.12499892E+03</pdfrwt>
<totfact> 0.19741022E+03</totfact>
</mgrwt>
</event>
<event>
 5    1  0.1422067E-002  0.1250014E+03  0.7818608E-02  0.1235067E+00
          4   -1    0    0  501    0  0.00000000000E+00  0.00000000000E+00  0.12144318772E+03  0.12144982810E+03  0.12700000000E+01 0. -1.
         -4   -1    0    0    0  501 -0.00000000000E+00 -0.00000000000E+00 -0.32145882494E+02  0.32170959907E+02  0.12700000000E+01 0. -1.
         25    2    1    2    0    0  0.00000000000E+00  0.00000000000E+00  0.89297305229E+02  0.15362078800E+03  0.12500135113E+03 0.  0.
    9000005    1    3    3    0    0 -0.25676376173E+02  0.36930094295E+02 -0.86690218337E+01  0.45817683241E+02  0.10000000000E+01 0.  0.
    9000005    1    3    3    0    0  0.25676376173E+02 -0.36930094295E+02  0.97966327063E+02  0.10780310476E+03  0.10000000000E+01 0.  0.
<mgrwt>
<rscale>  0 0.12500135E+03</rscale>
<asrwt>0</asrwt>
<pdfrwt beam="1">  1        4 0.30364761E-01 0.12500135E+03</pdfrwt>
<pdfrwt beam="2">  1       -4 0.80404354E-02 0.12500135E+03</pdfrwt>
<totfact> 0.18361591E+03</totfact>
</mgrwt>
</event>
<event>
 5    1  0.1422067E-002  0.1249976E+03  0.7818608E-02  0.1235073E+00
          4   -1    0    0  501    0  0.00000000000E+00  0.00000000000E+00  0.86791781598E+01  0.87716038174E+01  0.12700000000E+01 0. -1.
         -4   -1    0    0    0  501 -0.00000000000E+00 -0.00000000000E+00 -0.44757738871E+03  0.44757919051E+03  0.12700000000E+01 0. -1.
         25    2    1    2    0    0  0.00000000000E+00  0.00000000000E+00 -0.43889821055E+03  0.45635079433E+03  0.12499763304E+03 0.  0.
    9000005    1    3    3    0    0  0.34609127128E+02  0.37233149337E+02 -0.35214238228E+03  0.35579398039E+03  0.10000000000E+01 0.  0.
    9000005    1    3    3    0    0 -0.34609127128E+02 -0.37233149337E+02 -0.86755828270E+02  0.10055681394E+03  0.10000000000E+01 0.  0.
<mgrwt>
<rscale>  0 0.12499763E+03</rscale>
<asrwt>0</asrwt>
<pdfrwt beam="1">  1        4 0.21815745E-02 0.12499763E+03</pdfrwt>
<pdfrwt beam="2">  1       -4 0.11190605E+00 0.12499763E+03</pdfrwt>
<totfact> 0.94893003E+02</totfact>
</mgrwt>
</event>
<event>
 5    1  0.1422067E-002  0.1250151E+03  0.7818608E-02  0.1235046E+00
         -4   -1    0    0    0  501 -0.00000000000E+00  0.00000000000E+00  0.11617038998E+02  0.11686252397E+02  0.12700000000E+01 0. -1.
          4   -1    0    0  501    0  0.00000000000E+00 -0.00000000000E+00 -0.33526339670E+03  0.33526580211E+03  0.12700000000E+01 0. -1.
         25    2    1    2    0    0  0.00000000000E+00  0.00000000000E+00 -0.32364635770E+03  0.34695205451E+03  0.12501505219E+03 0.  0.
    9000005    1    3    3    0    0 -0.40705435326E+02 -0.36614236046E+02 -0.24548107212E+03  0.25151439624E+03  0.10000000000E+01 0.  0.
    9000005    1    3    3    0    0  0.40705435326E+02  0.36614236046E+02 -0.78165285586E+02  0.95437658275E+02  0.10000000000E+01 0.  0.
<mgrwt>
<rscale>  0 0.12501505E+03</rscale>
<asrwt>0</asrwt>
<pdfrwt beam="2">  1        4 0.83824770E-01 0.12501505E+03</pdfrwt>
<pdfrwt beam="1">  1       -4 0.29132132E-02 0.12501505E+03</pdfrwt>
<totfact> 0.11746323E+03</totfact>
</mgrwt>
</event>
<event>
 5    1  0.1422067E-002  0.1249937E+03  0.7818608E-02  0.1235079E+00
          4   -1    0    0  501    0  0.00000000000E+00  0.00000000000E+00  0.12693958328E+02  0.12757330365E+02  0.12700000000E+01 0. -1.
         -4   -1    0    0    0  501 -0.00000000000E+00 -0.00000000000E+00 -0.30686348341E+03  0.30686611144E+03  0.12700000000E+01 0. -1.
         25    2    1    2    0    0  0.00000000000E+00  0.00000000000E+00 -0.29416952509E+03  0.31962344181E+03  0.12499374010E+03 0.  0.
    9000005    1    3    3    0    0  0.36163798420E+02 -0.66353996213E+01 -0.17880568368E+02  0.40896987291E+02  0.10000000000E+01 0.  0.
    9000005    1    3    3    0    0 -0.36163798420E+02  0.66353996213E+01 -0.27628895672E+03  0.27872645452E+03  0.10000000000E+01 0.  0.
<mgrwt>
<rscale>  0 0.12499374E+03</rscale>
<asrwt>0</asrwt>
<pdfrwt beam="1">  1        4 0.31817406E-02 0.12499374E+03</pdfrwt>
<pdfrwt beam="2">  1       -4 0.76724097E-01 0.12499374E+03</pdfrwt>
<totfact> 0.12440147E+03</totfact>
</mgrwt>
</event>
<event>
 5    1  0.1422067E-002  0.1250023E+03  0.7818608E-02  0.1235066E+00
         -4   -1    0    0    0  501 -0.00000000000E+00  0.00000000000E+00  0.20720022876E+02  0.20758907678E+02  0.12700000000E+01 0.  1.
          4   -1    0    0  501    0  0.00000000000E+00 -0.00000000000E+00 -0.18831444770E+03  0.18831873012E+03  0.12700000000E+01 0.  1.
         25    2    1    2    0    0  0.00000000000E+00  0.00000000000E+00 -0.16759442483E+03  0.20907763780E+03  0.12500226955E+03 0.  0.
    9000005    1    3    3    0    0  0.51745287013E+02 -0.50113947447E+01 -0.14180267458E+03  0.15103538434E+03  0.10000000000E+01 0.  0.
    9000005    1    3    3    0    0 -0.51745287013E+02  0.50113947447E+01 -0.25791750246E+02  0.58042253455E+02  0.10000000000E+01 0.  0.
<mgrwt>
<rscale>  0 0.12500227E+03</rscale>
<asrwt>0</asrwt>
<pdfrwt beam="2">  1        4 0.47084003E-01 0.12500227E+03</pdfrwt>
<pdfrwt beam="1">  1       -4 0.51854022E-02 0.12500227E+03</pdfrwt>
<totfact> 0.15964062E+03</totfact>
</mgrwt>
</event>
<event>
 5    1  0.1422067E-002  0.1250004E+03  0.7818608E-02  0.1235069E+00
          4   -1    0    0  501    0  0.00000000000E+00  0.00000000000E+00  0.95651606067E+01  0.96491034523E+01  0.12700000000E+01 0. -1.
         -4   -1    0    0    0  501 -0.00000000000E+00 -0.00000000000E+00 -0.40651680074E+03  0.40651878454E+03  0.12700000000E+01 0. -1.
         25    2    1    2    0    0  0.00000000000E+00  0.00000000000E+00 -0.39695164013E+03  0.41616788799E+03  0.12500042557E+03 0.  0.
    9000005    1    3    3    0    0  0.33571466349E+00 -0.44658646100E+02 -0.34400872342E+03  0.34689697198E+03  0.10000000000E+01 0.  0.
    9000005    1    3    3    0    0 -0.33571466349E+00  0.44658646100E+02 -0.52942916711E+02  0.69270916016E+02  0.10000000000E+01 0.  0.
<mgrwt>
<rscale>  0 0.12500043E+03</rscale>
<asrwt>0</asrwt>
<pdfrwt beam="1">  1        4 0.24020323E-02 0.12500043E+03</pdfrwt>
<pdfrwt beam="2">  1       -4 0.10163988E+00 0.12500043E+03</pdfrwt>
<totfact> 0.10241930E+03</totfact>
</mgrwt>
</event>
<event>
 5    1  0.1422067E-002  0.1249997E+03  0.7818608E-02  0.1235070E+00
         -4   -1    0    0    0  501 -0.00000000000E+00  0.00000000000E+00  0.45202802552E+02  0.45220639741E+02  0.12700000000E+01 0. -1.
          4   -1    0    0  501    0  0.00000000000E+00 -0.00000000000E+00 -0.86376114297E+02  0.86385450285E+02  0.12700000000E+01 0. -1.
         25    2    1    2    0    0  0.00000000000E+00  0.00000000000E+00 -0.41173311745E+02  0.13160609003E+03  0.12499968533E+03 0.  0.
    9000005    1    3    3    0    0 -0.65857540068E+00  0.10323961193E+02  0.44300194306E+02  0.45503023107E+02  0.10000000000E+01 0.  0.
    9000005    1    3    3    0    0  0.65857540068E+00 -0.10323961193E+02 -0.85473506051E+02  0.86103066919E+02  0.10000000000E+01 0.  0.
<mgrwt>
<rscale>  0 0.12499969E+03</rscale>
<asrwt>0</asrwt>
<pdfrwt beam="2">  1        4 0.21597425E-01 0.12499969E+03</pdfrwt>
<pdfrwt beam="1">  1       -4 0.11304097E-01 0.12499969E+03</pdfrwt>
<totfact> 0.19478567E+03</totfact>
</mgrwt>
</event>
<event>
 5    1  0.1422067E-002  0.1249998E+03  0.7818608E-02  0.1235070E+00
          4   -1    0    0  501    0  0.00000000000E+00  0.00000000000E+00  0.21122188756E+03  0.21122570555E+03  0.12700000000E+01 0.  1.
         -4   -1    0    0    0  501 -0.00000000000E+00 -0.00000000000E+00 -0.18467737844E+02  0.18511354382E+02  0.12700000000E+01 0.  1.
         25    2    1    2    0    0  0.00000000000E+00  0.00000000000E+00  0.19275414971E+03  0.22973705993E+03  0.12499981789E+03 0.  0.
    9000005    1    3    3    0    0 -0.50178538729E+02 -0.30424122726E+02  0.13586948764E+03  0.14800348193E+03  0.10000000000E+01 0.  0.
    9000005    1    3    3    0    0  0.50178538729E+02  0.30424122726E+02  0.56884662072E+02  0.81733577994E+02  0.10000000000E+01 0.  0.
<mgrwt>
<rscale>  0 0.12499982E+03</rscale>
<asrwt>0</asrwt>
<pdfrwt beam="1">  1        4 0.52811401E-01 0.12499982E+03</pdfrwt>
<pdfrwt beam="2">  1       -4 0.46228638E-02 0.12499982E+03</pdfrwt>
<totfact> 0.15196775E+03</totfact>
</mgrwt>
</event>
<event>
 5    1  0.1422067E-002  0.1249924E+03  0.7818608E-02  0.1235081E+00
          4   -1    0    0  501    0  0.00000000000E+00  0.00000000000E+00  0.45881183065E+01  0.47606438214E+01  0.12700000000E+01 0.  1.
         -4   -1    0    0    0  501 -0.00000000000E+00 -0.00000000000E+00 -0.83539816700E+03  0.83539913235E+03  0.12700000000E+01 0.  1.
         25    2    1    2    0    0  0.00000000000E+00  0.00000000000E+00 -0.83081004870E+03  0.84015977617E+03  0.12499244970E+03 0.  0.
    9000005    1    3    3    0    0  0.48450779042E+01 -0.56936050295E+02 -0.24541291061E+03  0.25197953349E+03  0.10000000000E+01 0.  0.
    9000005    1    3    3    0    0 -0.48450779042E+01  0.56936050295E+02 -0.58539713808E+03  0.58818024268E+03  0.10000000000E+01 0.  0.
<mgrwt>
<rscale>  0 0.12499245E+03</rscale>
<asrwt>0</asrwt>
<pdfrwt beam="1">  1        4 0.11687188E-02 0.12499245E+03</pdfrwt>
<pdfrwt beam="2">  1       -4 0.20887072E+00 0.12499245E+03</pdfrwt>
<totfact> 0.49050790E+02</totfact>
</mgrwt>
</event>
<event>
 5    1  0.1422067E-002  0.1249985E+03  0.7818608E-02  0.1235072E+00
         -4   -1    0    0    0  501 -0.00000000000E+00  0.00000000000E+00  0.54633652298E+02  0.54648411353E+02  0.12700000000E+01 0. -1.
          4   -1    0    0  501    0  0.00000000000E+00 -0.00000000000E+00 -0.71467225299E+02  0.71478508602E+02  0.12700000000E+01 0. -1.
         25    2    1    2    0    0  0.00000000000E+00  0.00000000000E+00 -0.16833573001E+02  0.12612691995E+03  0.12499852302E+03 0.  0.
    9000005    1    3    3    0    0  0.20846568714E+02  0.16276281080E+02 -0.65546454650E+02  0.70688290899E+02  0.10000000000E+01 0.  0.
    9000005    1    3    3    0    0 -0.20846568714E+02 -0.16276281080E+02  0.48712881650E+02  0.55438629056E+02  0.10000000000E+01 0.  0.
<mgrwt>
<rscale>  0 0.12499852E+03</rscale>
<asrwt>0</asrwt>
<pdfrwt beam="2">  1        4 0.17870062E-01 0.12499852E+03</pdfrwt>
<pdfrwt beam="1">  1       -4 0.13661668E-01 0.12499852E+03</pdfrwt>
<totfact> 0.19774746E+03</totfact>
</mgrwt>
</event>
<event>
 5    1  0.1422067E-002  0.1250052E+03  0.7818608E-02  0.1235061E+00
          4   -1    0    0  501    0  0.00000000000E+00  0.00000000000E+00  0.17478694285E+03  0.17479155669E+03  0.12700000000E+01 0. -1.
         -4   -1    0    0    0  501 -0.00000000000E+00 -0.00000000000E+00 -0.22327539147E+02  0.22363629052E+02  0.12700000000E+01 0. -1.
         25    2    1    2    0    0  0.00000000000E+00  0.00000000000E+00  0.15245940370E+03  0.19715518574E+03  0.12500518985E+03 0.  0.
    9000005    1    3    3    0    0 -0.60091768173E+02 -0.14855899662E+02  0.62675526593E+02  0.88096197368E+02  0.10000000000E+01 0.  0.
    9000005    1    3    3    0    0  0.60091768173E+02  0.14855899662E+02  0.89783877107E+02  0.10905898837E+03  0.10000000000E+01 0.  0.
<mgrwt>
<rscale>  0 0.12500519E+03</rscale>
<asrwt>0</asrwt>
<pdfrwt beam="1">  1        4 0.43701823E-01 0.12500519E+03</pdfrwt>
<pdfrwt beam="2">  1       -4 0.55869729E-02 0.12500519E+03</pdfrwt>
<totfact> 0.16434616E+03</totfact>
</mgrwt>
</event>
<event>
 5    1  0.1422067E-002  0.1250010E+03  0.7818608E-02  0.1235068E+00
          4   -1    0    0  501    0  0.00000000000E+00  0.00000000000E+00  0.14377068881E+03  0.14377629798E+03  0.12700000000E+01 0.  1.
         -4   -1    0    0    0  501 -0.00000000000E+00 -0.00000000000E+00 -0.27149443414E+02  0.27179131290E+02  0.12700000000E+01 0.  1.
         25    2    1    2    0    0  0.00000000000E+00  0.00000000000E+00  0.11662124539E+03  0.17095542927E+03  0.12500097567E+03 0.  0.
    9000005    1    3    3    0    0 -0.60729872128E+02 -0.86929760724E+01  0.74586359174E+02  0.96580589026E+02  0.10000000000E+01 0.  0.
    9000005    1    3    3    0    0  0.60729872128E+02  0.86929760724E+01  0.42034886219E+02  0.74374840243E+02  0.10000000000E+01 0.  0.
<mgrwt>
<rscale>  0 0.12500098E+03</rscale>
<asrwt>0</asrwt>
<pdfrwt beam="1">  1        4 0.35947083E-01 0.12500098E+03</pdfrwt>
<pdfrwt beam="2">  1       -4 0.67917731E-02 0.12500098E+03</pdfrwt>
<totfact> 0.17553642E+03</totfact>
</mgrwt>
</event>
<event>
 5    1  0.1422067E-002  0.1249999E+03  0.7818608E-02  0.1235069E+00
          4   -1    0    0  501    0  0.00000000000E+00  0.00000000000E+00  0.25909690260E+02  0.25940797008E+02  0.12700000000E+01 0.  1.
         -4   -1    0    0    0  501 -0.00000000000E+00 -0.00000000000E+00 -0.15063958994E+03  0.15064494335E+03  0.12700000000E+01 0.  1.
         25    2    1    2    0    0  0.00000000000E+00  0.00000000000E+00 -0.12472989968E+03  0.17658574035E+03  0.12499990329E+03 0.  0.
    9000005    1    3    3    0    0  0.32672571429E+02  0.45602547531E+02 -0.23467165271E+02  0.60817736812E+02  0.10000000000E+01 0.  0.
    9000005    1    3    3    0    0 -0.32672571429E+02 -0.45602547531E+02 -0.10126273440E+03  0.11576800354E+03  0.10000000000E+01 0.  0.
<mgrwt>
<rscale>  0 0.12499990E+03</rscale>
<asrwt>0</asrwt>
<pdfrwt beam="1">  1        4 0.64819805E-02 0.12499990E+03</pdfrwt>
<pdfrwt beam="2">  1       -4 0.37664453E-01 0.12499990E+03</pdfrwt>
<totfact> 0.17304068E+03</totfact>
</mgrwt>
</event>
<event>
 5    1  0.1422067E-002  0.1250048E+03  0.7818608E-02  0.1235062E+00
          4   -1    0    0  501    0  0.00000000000E+00  0.00000000000E+00  0.77881592515E+01  0.78910281033E+01  0.12700000000E+01 0. -1.
         -4   -1    0    0    0  501 -0.00000000000E+00 -0.00000000000E+00 -0.49820657997E+03  0.49820819868E+03  0.12700000000E+01 0. -1.
         25    2    1    2    0    0  0.00000000000E+00  0.00000000000E+00 -0.49041842072E+03  0.50609922678E+03  0.12500479976E+03 0.  0.
    9000005    1    3    3    0    0  0.16853299464E+02 -0.32015896317E+02 -0.45151101991E+03  0.45295943795E+03  0.10000000000E+01 0.  0.
    9000005    1    3    3    0    0 -0.16853299464E+02  0.32015896317E+02 -0.38907400807E+02  0.53139788834E+02  0.10000000000E+01 0.  0.
<mgrwt>
<rscale>  0 0.12500480E+03</rscale>
<asrwt>0</asrwt>
<pdfrwt beam="1">  1        4 0.19601024E-02 0.12500480E+03</pdfrwt>
<pdfrwt beam="2">  1       -4 0.12456460E+00 0.12500480E+03</pdfrwt>
<totfact> 0.86635563E+02</totfact>
</mgrwt>
</event>
<event>
 5    1  0.1422067E-002  0.1249992E+03  0.7818608E-02  0.1235071E+00
         -4   -1    0    0    0  501 -0.00000000000E+00  0.00000000000E+00  0.37153597107E+03  0.37153814164E+03  0.12700000000E+01 0.  1.
          4   -1    0    0  501    0  0.00000000000E+00 -0.00000000000E+00 -0.10473086467E+02  0.10549807588E+02  0.12700000000E+01 0.  1.
         25    2    1    2    0    0  0.00000000000E+00  0.00000000000E+00  0.36106288460E+03  0.38208794923E+03  0.12499917725E+03 0.  0.
    9000005    1    3    3    0    0 -0.12061497040E+02  0.30544971569E+02  0.34304809058E+03  0.34461785712E+03  0.10000000000E+01 0.  0.
    9000005    1    3    3    0    0  0.12061497040E+02 -0.30544971569E+02  0.18014794022E+02  0.37470092109E+02  0.10000000000E+01 0.  0.
<mgrwt>
<rscale>  0 0.12499918E+03</rscale>
<asrwt>0</asrwt>
<pdfrwt beam="2">  1        4 0.26281333E-02 0.12499918E+03</pdfrwt>
<pdfrwt beam="1">  1       -4 0.92893847E-01 0.12499918E+03</pdfrwt>
<totfact> 0.10947911E+03</totfact>
</mgrwt>
</event>
<event>
 5    1  0.1422067E-002  0.1250000E+03  0.7818608E-02  0.1235069E+00
          4   -1    0    0  501    0  0.00000000000E+00  0.00000000000E+00  0.32592609571E+03  0.32592857004E+03  0.12700000000E+01 0. -1.
         -4   -1    0    0    0  501 -0.00000000000E+00 -0.00000000000E+00 -0.11948909097E+02  0.12016211076E+02  0.12700000000E+01 0. -1.
         25    2    1    2    0    0  0.00000000000E+00  0.00000000000E+00  0.31397718661E+03  0.33794478111E+03  0.12500000547E+03 0.  0.
    9000005    1    3    3    0    0  0.14313173869E+02  0.51948936866E+02  0.24255487787E+03  0.24847017481E+03  0.10000000000E+01 0.  0.
    9000005    1    3    3    0    0 -0.14313173869E+02 -0.51948936866E+02  0.71422308739E+02  0.89474606304E+02  0.10000000000E+01 0.  0.
<mgrwt>
<rscale>  0 0.12500001E+03</rscale>
<asrwt>0</asrwt>
<pdfrwt beam="1">  1        4 0.81490245E-01 0.12500001E+03</pdfrwt>
<pdfrwt beam="2">  1       -4 0.29959494E-02 0.12500001E+03</pdfrwt>
<totfact> 0.11970488E+03</totfact>
</mgrwt>
</event>
<event>
 5    1  0.1422067E-002  0.1250078E+03  0.7818608E-02  0.1235057E+00
          4   -1    0    0  501    0  0.00000000000E+00  0.00000000000E+00  0.74240899689E+02  0.74251761505E+02  0.12700000000E+01 0.  1.
         -4   -1    0    0    0  501 -0.00000000000E+00 -0.00000000000E+00 -0.52600095089E+02  0.52615424577E+02  0.12700000000E+01 0.  1.
         25    2    1    2    0    0  0.00000000000E+00  0.00000000000E+00  0.21640804600E+02  0.12686718608E+03  0.12500783368E+03 0.  0.
    9000005    1    3    3    0    0 -0.24985129329E+02 -0.31346278054E+02 -0.37839533458E+02  0.55133257910E+02  0.10000000000E+01 0.  0.
    9000005    1    3    3    0    0  0.24985129329E+02  0.31346278054E+02  0.59480338058E+02  0.71733928172E+02  0.10000000000E+01 0.  0.
<mgrwt>
<rscale>  0 0.12500783E+03</rscale>
<asrwt>0</asrwt>
<pdfrwt beam="1">  1        4 0.18563499E-01 0.12500783E+03</pdfrwt>
<pdfrwt beam="2">  1       -4 0.13153298E-01 0.12500783E+03</pdfrwt>
<totfact> 0.19730516E+03</totfact>
</mgrwt>
</event>
<event>
 5    1  0.1422067E-002  0.1249980E+03  0.7818608E-02  0.1235072E+00
          4   -1    0    0  501    0  0.00000000000E+00  0.00000000000E+00  0.23899429000E+02  0.23933148696E+02  0.12700000000E+01 0. -1.
         -4   -1    0    0    0  501 -0.00000000000E+00 -0.00000000000E+00 -0.16328868862E+03  0.16329362735E+03  0.12700000000E+01 0. -1.
         25    2    1    2    0    0  0.00000000000E+00  0.00000000000E+00 -0.13938925962E+03  0.18722677604E+03  0.12499799986E+03 0.  0.
    9000005    1    3    3    0    0 -0.59445656289E+02 -0.18899378759E+02 -0.64059806546E+02  0.89418294458E+02  0.10000000000E+01 0.  0.
    9000005    1    3    3    0    0  0.59445656289E+02  0.18899378759E+02 -0.75329453077E+02  0.97808481585E+02  0.10000000000E+01 0.  0.
<mgrwt>
<rscale>  0 0.12499800E+03</rscale>
<asrwt>0</asrwt>
<pdfrwt beam="1">  1        4 0.59796900E-02 0.12499800E+03</pdfrwt>
<pdfrwt beam="2">  1       -4 0.40827001E-01 0.12499800E+03</pdfrwt>
<totfact> 0.16847391E+03</totfact>
</mgrwt>
</event>
<event>
 5    1  0.1422067E-002  0.1250016E+03  0.7818608E-02  0.1235067E+00
         -4   -1    0    0    0  501 -0.00000000000E+00  0.00000000000E+00  0.30195637664E+02  0.30222333363E+02  0.12700000000E+01 0. -1.
          4   -1    0    0  501    0  0.00000000000E+00 -0.00000000000E+00 -0.12928104664E+03  0.12928728445E+03  0.12700000000E+01 0. -1.
         25    2    1    2    0    0  0.00000000000E+00  0.00000000000E+00 -0.99085408981E+02  0.15950961782E+03  0.12500159960E+03 0.  0.
    9000005    1    3    3    0    0 -0.78361426525E+01  0.61495218930E+02 -0.39472096474E+02  0.73499071307E+02  0.10000000000E+01 0.  0.
    9000005    1    3    3    0    0  0.78361426525E+01 -0.61495218930E+02 -0.59613312508E+02  0.86010546511E+02  0.10000000000E+01 0.  0.
<mgrwt>
<rscale>  0 0.12500160E+03</rscale>
<asrwt>0</asrwt>
<pdfrwt beam="2">  1        4 0.32324377E-01 0.12500160E+03</pdfrwt>
<pdfrwt beam="1">  1       -4 0.75530264E-02 0.12500160E+03</pdfrwt>
<totfact> 0.18080185E+03</totfact>
</mgrwt>
</event>
<event>
 5    1  0.1422067E-002  0.1249996E+03  0.7818608E-02  0.1235070E+00
         -4   -1    0    0    0  501 -0.00000000000E+00  0.00000000000E+00  0.93731764356E+02  0.93740367768E+02  0.12700000000E+01 0.  1.
          4   -1    0    0  501    0  0.00000000000E+00 -0.00000000000E+00 -0.41654326127E+02  0.41673682163E+02  0.12700000000E+01 0.  1.
         25    2    1    2    0    0  0.00000000000E+00  0.00000000000E+00  0.52077438230E+02  0.13541404993E+03  0.12499962138E+03 0.  0.
    9000005    1    3    3    0    0  0.39907435972E+02  0.13838090962E+02  0.75931612006E+02  0.86894797940E+02  0.10000000000E+01 0.  0.
    9000005    1    3    3    0    0 -0.39907435972E+02 -0.13838090962E+02 -0.23854173776E+02  0.48519251992E+02  0.10000000000E+01 0.  0.
<mgrwt>
<rscale>  0 0.12499962E+03</rscale>
<asrwt>0</asrwt>
<pdfrwt beam="2">  1        4 0.10417077E-01 0.12499962E+03</pdfrwt>
<pdfrwt beam="1">  1       -4 0.23436436E-01 0.12499962E+03</pdfrwt>
<totfact> 0.19277642E+03</totfact>
</mgrwt>
</event>
<event>
 5    1  0.1422067E-002  0.1249997E+03  0.7818608E-02  0.1235070E+00
          4   -1    0    0  501    0  0.00000000000E+00  0.00000000000E+00  0.53800639920E+02  0.53815627431E+02  0.12700000000E+01 0.  1.
         -4   -1    0    0    0  501 -0.00000000000E+00 -0.00000000000E+00 -0.72574996352E+02  0.72586107455E+02  0.12700000000E+01 0.  1.
         25    2    1    2    0    0  0.00000000000E+00  0.00000000000E+00 -0.18774356432E+02  0.12640173489E+03  0.12499968849E+03 0.  0.
    9000005    1    3    3    0    0  0.21922262655E+02  0.55807376168E+02 -0.27196697094E+02  0.65846102143E+02  0.10000000000E+01 0.  0.
    9000005    1    3    3    0    0 -0.21922262655E+02 -0.55807376168E+02  0.84223406624E+01  0.60555632743E+02  0.10000000000E+01 0.  0.
<mgrwt>
<rscale>  0 0.12499969E+03</rscale>
<asrwt>0</asrwt>
<pdfrwt beam="1">  1        4 0.13453422E-01 0.12499969E+03</pdfrwt>
<pdfrwt beam="2">  1       -4 0.18147011E-01 0.12499969E+03</pdfrwt>
<totfact> 0.19759370E+03</totfact>
</mgrwt>
</event>
<event>
 5    1  0.1422067E-002  0.1249873E+03  0.7818608E-02  0.1235089E+00
          4   -1    0    0  501    0  0.00000000000E+00  0.00000000000E+00  0.31912821539E+02  0.31938081949E+02  0.12700000000E+01 0. -1.
         -4   -1    0    0    0  501 -0.00000000000E+00 -0.00000000000E+00 -0.12230197274E+03  0.12230856649E+03  0.12700000000E+01 0. -1.
         25    2    1    2    0    0  0.00000000000E+00  0.00000000000E+00 -0.90389151202E+02  0.15424664844E+03  0.12498731895E+03 0.  0.
    9000005    1    3    3    0    0 -0.60808796278E+02 -0.17944755655E+01 -0.27588544330E+02  0.66806119672E+02  0.10000000000E+01 0.  0.
    9000005    1    3    3    0    0  0.60808796278E+02  0.17944755655E+01 -0.62800606872E+02  0.87440528766E+02  0.10000000000E+01 0.  0.
<mgrwt>
<rscale>  0 0.12498732E+03</rscale>
<asrwt>0</asrwt>
<pdfrwt beam="1">  1        4 0.79821875E-02 0.12498732E+03</pdfrwt>
<pdfrwt beam="2">  1       -4 0.30579474E-01 0.12498732E+03</pdfrwt>
<totfact> 0.18337333E+03</totfact>
</mgrwt>
</event>
<event>
 5    1  0.1422067E-002  0.1250248E+03  0.7818608E-02  0.1235031E+00
          4   -1    0    0  501    0  0.00000000000E+00  0.00000000000E+00  0.86165640487E+02  0.86174999278E+02  0.12700000000E+01 0. -1.
         -4   -1    0    0    0  501 -0.00000000000E+00 -0.00000000000E+00 -0.45331475815E+02  0.45349262393E+02  0.12700000000E+01 0. -1.
         25    2    1    2    0    0  0.00000000000E+00  0.00000000000E+00  0.40834164672E+02  0.13152426167E+03  0.12502480715E+03 0.  0.
    9000005    1    3    3    0    0  0.61845372974E+02  0.54354140467E+01  0.12801499346E+02  0.63397730793E+02  0.10000000000E+01 0.  0.
    9000005    1    3    3    0    0 -0.61845372974E+02 -0.54354140467E+01  0.28032665326E+02  0.68126530878E+02  0.10000000000E+01 0.  0.
<mgrwt>
<rscale>  0 0.12502481E+03</rscale>
<asrwt>0</asrwt>
<pdfrwt beam="1">  1        4 0.21544803E-01 0.12502481E+03</pdfrwt>
<pdfrwt beam="2">  1       -4 0.11336262E-01 0.12502481E+03</pdfrwt>
<totfact> 0.19471509E+03</totfact>
</mgrwt>
</event>
<event>
 5    1  0.1422067E-002  0.1250009E+03  0.7818608E-02  0.1235068E+00
         -4   -1    0    0    0  501 -0.00000000000E+00  0.00000000000E+00  0.18807646893E+02  0.18850476960E+02  0.12700000000E+01 0.  1.
          4   -1    0    0  501    0  0.00000000000E+00 -0.00000000000E+00 -0.20741671425E+03  0.20742060228E+03  0.12700000000E+01 0.  1.
         25    2    1    2    0    0  0.00000000000E+00  0.00000000000E+00 -0.18860906736E+03  0.22627107925E+03  0.12500088404E+03 0.  0.
    9000005    1    3    3    0    0  0.46975492775E+02  0.40958748175E+02 -0.86011475194E+02  0.10622283106E+03  0.10000000000E+01 0.  0.
    9000005    1    3    3    0    0 -0.46975492775E+02 -0.40958748175E+02 -0.10259759217E+03  0.12004824818E+03  0.10000000000E+01 0.  0.
<mgrwt>
<rscale>  0 0.12500088E+03</rscale>
<asrwt>0</asrwt>
<pdfrwt beam="2">  1        4 0.51860011E-01 0.12500088E+03</pdfrwt>
<pdfrwt beam="1">  1       -4 0.47077521E-02 0.12500088E+03</pdfrwt>
<totfact> 0.15321164E+03</totfact>
</mgrwt>
</event>
<event>
 5    1  0.1422067E-002  0.1249962E+03  0.7818608E-02  0.1235075E+00
          4   -1    0    0  501    0  0.00000000000E+00  0.00000000000E+00  0.27620391338E+03  0.27620683313E+03  0.12700000000E+01 0. -1.
         -4   -1    0    0    0  501 -0.00000000000E+00 -0.00000000000E+00 -0.14110252261E+02  0.14167290456E+02  0.12700000000E+01 0. -1.
         25    2    1    2    0    0  0.00000000000E+00  0.00000000000E+00  0.26209366112E+03  0.29037412358E+03  0.12499617773E+03 0.  0.
    9000005    1    3    3    0    0 -0.13845569562E+02 -0.51795666121E+01  0.27209495668E+03  0.27249806083E+03  0.10000000000E+01 0.  0.
    9000005    1    3    3    0    0  0.13845569562E+02  0.51795666121E+01 -0.10001295557E+02  0.17876062754E+02  0.10000000000E+01 0.  0.
<mgrwt>
<rscale>  0 0.12499618E+03</rscale>
<asrwt>0</asrwt>
<pdfrwt beam="1">  1        4 0.69058474E-01 0.12499618E+03</pdfrwt>
<pdfrwt beam="2">  1       -4 0.35350578E-02 0.12499618E+03</pdfrwt>
<totfact> 0.13246353E+03</totfact>
</mgrwt>
</event>
<event>
 5    1  0.1422067E-002  0.1250044E+03  0.7818608E-02  0.1235062E+00
         -4   -1    0    0    0  501 -0.00000000000E+00  0.00000000000E+00  0.96668271503E+01  0.97498947253E+01  0.12700000000E+01 0. -1.
          4   -1    0    0  501    0  0.00000000000E+00 -0.00000000000E+00 -0.40230357077E+03  0.40230557534E+03  0.12700000000E+01 0. -1.
         25    2    1    2    0    0  0.00000000000E+00  0.00000000000E+00 -0.39263674362E+03  0.41205547007E+03  0.12500439182E+03 0.  0.
    9000005    1    3    3    0    0 -0.22215785774E+02  0.52316796148E+02 -0.28195543638E+03  0.28762902566E+03  0.10000000000E+01 0.  0.
    9000005    1    3    3    0    0  0.22215785774E+02 -0.52316796148E+02 -0.11068130723E+03  0.12442644441E+03  0.10000000000E+01 0.  0.
<mgrwt>
<rscale>  0 0.12500439E+03</rscale>
<asrwt>0</asrwt>
<pdfrwt beam="2">  1        4 0.10058647E+00 0.12500439E+03</pdfrwt>
<pdfrwt beam="1">  1       -4 0.24273422E-02 0.12500439E+03</pdfrwt>
<totfact> 0.10323417E+03</totfact>
</mgrwt>
</event>
<event>
 5    1  0.1422067E-002  0.1250028E+03  0.7818608E-02  0.1235065E+00
         -4   -1    0    0    0  501 -0.00000000000E+00  0.00000000000E+00  0.75563210465E+02  0.75573882233E+02  0.12700000000E+01 0.  1.
          4   -1    0    0  501    0  0.00000000000E+00 -0.00000000000E+00 -0.51675315965E+02  0.51690919706E+02  0.12700000000E+01 0.  1.
         25    2    1    2    0    0  0.00000000000E+00  0.00000000000E+00  0.23887894500E+02  0.12726480194E+03  0.12500279320E+03 0.  0.
    9000005    1    3    3    0    0 -0.56675176160E+02  0.20911406964E+02 -0.43475572141E+01  0.60574448307E+02  0.10000000000E+01 0.  0.
    9000005    1    3    3    0    0  0.56675176160E+02 -0.20911406964E+02  0.28235451714E+02  0.66690353632E+02  0.10000000000E+01 0.  0.
<mgrwt>
<rscale>  0 0.12500279E+03</rscale>
<asrwt>0</asrwt>
<pdfrwt beam="2">  1        4 0.12922113E-01 0.12500279E+03</pdfrwt>
<pdfrwt beam="1">  1       -4 0.18894087E-01 0.12500279E+03</pdfrwt>
<totfact> 0.19711345E+03</totfact>
</mgrwt>
</event>
<event>
 5    1  0.1422067E-002  0.1250015E+03  0.7818608E-02  0.1235067E+00
         -4   -1    0    0    0  501 -0.00000000000E+00  0.00000000000E+00  0.14622695686E+03  0.14623247182E+03  0.12700000000E+01 0. -1.
          4   -1    0    0  501    0  0.00000000000E+00 -0.00000000000E+00 -0.26693115621E+02  0.26723310453E+02  0.12700000000E+01 0. -1.
         25    2    1    2    0    0  0.00000000000E+00  0.00000000000E+00  0.11953384124E+03  0.17295578227E+03  0.12500145366E+03 0.  0.
    9000005    1    3    3    0    0  0.43759607838E+02  0.40856968796E+02  0.34971523818E+02  0.69341204601E+02  0.10000000000E+01 0.  0.
    9000005    1    3    3    0    0 -0.43759607838E+02 -0.40856968796E+02  0.84562317424E+02  0.10361457767E+03  0.10000000000E+01 0.  0.
<mgrwt>
<rscale>  0 0.12500145E+03</rscale>
<asrwt>0</asrwt>
<pdfrwt beam="2">  1        4 0.66777428E-02 0.12500145E+03</pdfrwt>
<pdfrwt beam="1">  1       -4 0.36561202E-01 0.12500145E+03</pdfrwt>
<totfact> 0.17463958E+03</totfact>
</mgrwt>
</event>
<event>
 5    1  0.1422067E-002  0.1249966E+03  0.7818608E-02  0.1235075E+00
         -4   -1    0    0    0  501 -0.00000000000E+00  0.00000000000E+00  0.33918191010E+02  0.33941959009E+02  0.12700000000E+01 0.  1.
          4   -1    0    0  501    0  0.00000000000E+00 -0.00000000000E+00 -0.11509298558E+03  0.11509999231E+03  0.12700000000E+01 0.  1.
         25    2    1    2    0    0  0.00000000000E+00  0.00000000000E+00 -0.81174794575E+02  0.14904195132E+03  0.12499662388E+03 0.  0.
    9000005    1    3    3    0    0 -0.41327105250E+01 -0.26184529730E+02 -0.10806245952E+03  0.11127085895E+03  0.10000000000E+01 0.  0.
    9000005    1    3    3    0    0  0.41327105250E+01  0.26184529730E+02  0.26887664942E+02  0.37771092379E+02  0.10000000000E+01 0.  0.
<mgrwt>
<rscale>  0 0.12499662E+03</rscale>
<asrwt>0</asrwt>
<pdfrwt beam="2">  1        4 0.28777092E-01 0.12499662E+03</pdfrwt>
<pdfrwt beam="1">  1       -4 0.84833949E-02 0.12499662E+03</pdfrwt>
<totfact> 0.18587449E+03</totfact>
</mgrwt>
</event>
<event>
 5    1  0.1422067E-002  0.1249981E+03  0.7818608E-02  0.1235072E+00
          4   -1    0    0  501    0  0.00000000000E+00  0.00000000000E+00  0.40516814008E+02  0.40536713204E+02  0.12700000000E+01 0. -1.
         -4   -1    0    0    0  501 -0.00000000000E+00 -0.00000000000E+00 -0.96359876827E+02  0.96368245611E+02  0.12700000000E+01 0. -1.
         25    2    1    2    0    0  0.00000000000E+00  0.00000000000E+00 -0.55843062819E+02  0.13690495881E+03  0.12499808032E+03 0.  0.
    9000005    1    3    3    0    0 -0.43979678297E+01  0.62336086065E+02 -0.27903408532E+02  0.68445087148E+02  0.10000000000E+01 0.  0.
    9000005    1    3    3    0    0  0.43979678297E+01 -0.62336086065E+02 -0.27939654287E+02  0.68459871667E+02  0.10000000000E+01 0.  0.
<mgrwt>
<rscale>  0 0.12499808E+03</rscale>
<asrwt>0</asrwt>
<pdfrwt beam="1">  1        4 0.10132737E-01 0.12499808E+03</pdfrwt>
<pdfrwt beam="2">  1       -4 0.24093502E-01 0.12499808E+03</pdfrwt>
<totfact> 0.19200677E+03</totfact>
</mgrwt>
</event>
<event>
 5    1  0.1422067E-002  0.1250008E+03  0.7818608E-02  0.1235068E+00
         -4   -1    0    0    0  501 -0.00000000000E+00  0.00000000000E+00  0.22014823674E+02  0.22051425383E+02  0.12700000000E+01 0.  1.
          4   -1    0    0  501    0  0.00000000000E+00 -0.00000000000E+00 -0.17725330302E+03  0.17725785267E+03  0.12700000000E+01 0.  1.
         25    2    1    2    0    0  0.00000000000E+00  0.00000000000E+00 -0.15523847935E+03  0.19930927805E+03  0.12500081139E+03 0.  0.
    9000005    1    3    3    0    0 -0.40594812481E+02  0.30526564781E+01 -0.20200726543E+01  0.40771781976E+02  0.10000000000E+01 0.  0.
    9000005    1    3    3    0    0  0.40594812481E+02 -0.30526564781E+01 -0.15321840670E+03  0.15853749608E+03  0.10000000000E+01 0.  0.
<mgrwt>
<rscale>  0 0.12500081E+03</rscale>
<asrwt>0</asrwt>
<pdfrwt beam="2">  1        4 0.44318465E-01 0.12500081E+03</pdfrwt>
<pdfrwt beam="1">  1       -4 0.55088504E-02 0.12500081E+03</pdfrwt>
<totfact> 0.16349430E+03</totfact>
</mgrwt>
</event>
<event>
 5    1  0.1422067E-002  0.1250124E+03  0.7818608E-02  0.1235050E+00
         -4   -1    0    0    0  501 -0.00000000000E+00  0.00000000000E+00  0.11278311210E+04  0.11278318361E+04  0.12700000000E+01 0.  1.
          4   -1    0    0  501    0  0.00000000000E+00 -0.00000000000E+00 -0.33470570784E+01  0.35799009883E+01  0.12700000000E+01 0.  1.
         25    2    1    2    0    0  0.00000000000E+00  0.00000000000E+00  0.11244840639E+04  0.11314117370E+04  0.12501243411E+03 0.  0.
    9000005    1    3    3    0    0  0.25055184794E+02  0.50392817972E+02  0.31623961659E+03  0.32120973442E+03  0.10000000000E+01 0.  0.
    9000005    1    3    3    0    0 -0.25055184794E+02 -0.50392817972E+02  0.80824444734E+03  0.81020200262E+03  0.10000000000E+01 0.  0.
<mgrwt>
<rscale>  0 0.12501243E+03</rscale>
<asrwt>0</asrwt>
<pdfrwt beam="2">  1        4 0.86595930E-03 0.12501243E+03</pdfrwt>
<pdfrwt beam="1">  1       -4 0.28198692E+00 0.12501243E+03</pdfrwt>
<totfact> 0.28945389E+02</totfact>
</mgrwt>
</event>
<event>
 5    1  0.1422067E-002  0.1249975E+03  0.7818608E-02  0.1235073E+00
          4   -1    0    0  501    0  0.00000000000E+00  0.00000000000E+00  0.77842236108E+02  0.77852595475E+02  0.12700000000E+01 0.  1.
         -4   -1    0    0    0  501 -0.00000000000E+00 -0.00000000000E+00 -0.50157862556E+02  0.50173938217E+02  0.12700000000E+01 0.  1.
         25    2    1    2    0    0  0.00000000000E+00  0.00000000000E+00  0.27684373551E+02  0.12802653369E+03  0.12499747514E+03 0.  0.
    9000005    1    3    3    0    0  0.57421029682E+01 -0.40894922071E+01 -0.49754321429E+02  0.50261199686E+02  0.10000000000E+01 0.  0.
    9000005    1    3    3    0    0 -0.57421029682E+01  0.40894922071E+01  0.77438694980E+02  0.77765334007E+02  0.10000000000E+01 0.  0.
<mgrwt>
<rscale>  0 0.12499748E+03</rscale>
<asrwt>0</asrwt>
<pdfrwt beam="1">  1        4 0.19463863E-01 0.12499748E+03</pdfrwt>
<pdfrwt beam="2">  1       -4 0.12542770E-01 0.12499748E+03</pdfrwt>
<totfact> 0.19672250E+03</totfact>
</mgrwt>
</event>
<event>
 5    1  0.1422067E-002  0.1249990E+03  0.7818608E-02  0.1235071E+00
          4   -1    0    0  501    0  0.00000000000E+00  0.00000000000E+00  0.79626454485E+02  0.79636581757E+02  0.12700000000E+01 0.  1.
         -4   -1    0    0    0  501 -0.00000000000E+00 -0.00000000000E+00 -0.49034971007E+02  0.49051414676E+02  0.12700000000E+01 0.  1.
         25    2    1    2    0    0  0.00000000000E+00  0.00000000000E+00  0.30591483478E+02  0.12868799643E+03  0.12499904625E+03 0.  0.
    9000005    1    3    3    0    0 -0.49731201096E+01  0.28089932680E+02 -0.41945617145E+02  0.50736683369E+02  0.10000000000E+01 0.  0.
    9000005    1    3    3    0    0  0.49731201096E+01 -0.28089932680E+02  0.72537100622E+02  0.77951313063E+02  0.10000000000E+01 0.  0.
<mgrwt>
<rscale>  0 0.12499905E+03</rscale>
<asrwt>0</asrwt>
<pdfrwt beam="1">  1        4 0.19909935E-01 0.12499905E+03</pdfrwt>
<pdfrwt beam="2">  1       -4 0.12262064E-01 0.12499905E+03</pdfrwt>
<totfact> 0.19635619E+03</totfact>
</mgrwt>
</event>
<event>
 5    1  0.1422067E-002  0.1249916E+03  0.7818608E-02  0.1235082E+00
          4   -1    0    0  501    0  0.00000000000E+00  0.00000000000E+00  0.61027153082E+01  0.62334608471E+01  0.12700000000E+01 0. -1.
         -4   -1    0    0    0  501 -0.00000000000E+00 -0.00000000000E+00 -0.63308388868E+03  0.63308516253E+03  0.12700000000E+01 0. -1.
         25    2    1    2    0    0  0.00000000000E+00  0.00000000000E+00 -0.62698117338E+03  0.63931862337E+03  0.12499164142E+03 0.  0.
    9000005    1    3    3    0    0  0.61455169675E+02 -0.99719668089E+01 -0.34082038532E+03  0.34646170503E+03  0.10000000000E+01 0.  0.
    9000005    1    3    3    0    0 -0.61455169675E+02  0.99719668089E+01 -0.28616078805E+03  0.29285691834E+03  0.10000000000E+01 0.  0.
<mgrwt>
<rscale>  0 0.12499164E+03</rscale>
<asrwt>0</asrwt>
<pdfrwt beam="1">  1        4 0.15421834E-02 0.12499164E+03</pdfrwt>
<pdfrwt beam="2">  1       -4 0.15828725E+00 0.12499164E+03</pdfrwt>
<totfact> 0.68759625E+02</totfact>
</mgrwt>
</event>
<event>
 5    1  0.1422067E-002  0.1249988E+03  0.7818608E-02  0.1235071E+00
          4   -1    0    0  501    0  0.00000000000E+00  0.00000000000E+00  0.30802583259E+02  0.30828753387E+02  0.12700000000E+01 0. -1.
         -4   -1    0    0    0  501 -0.00000000000E+00 -0.00000000000E+00 -0.12673008364E+03  0.12673644700E+03  0.12700000000E+01 0. -1.
         25    2    1    2    0    0  0.00000000000E+00  0.00000000000E+00 -0.95927500378E+02  0.15756520039E+03  0.12499882817E+03 0.  0.
    9000005    1    3    3    0    0 -0.61397924298E+02 -0.71293710259E+01 -0.36366587757E+02  0.71722114752E+02  0.10000000000E+01 0.  0.
    9000005    1    3    3    0    0  0.61397924298E+02  0.71293710259E+01 -0.59560912621E+02  0.85843085637E+02  0.10000000000E+01 0.  0.
<mgrwt>
<rscale>  0 0.12499883E+03</rscale>
<asrwt>0</asrwt>
<pdfrwt beam="1">  1        4 0.77047128E-02 0.12499883E+03</pdfrwt>
<pdfrwt beam="2">  1       -4 0.31686586E-01 0.12499883E+03</pdfrwt>
<totfact> 0.18173440E+03</totfact>
</mgrwt>
</event>
<event>
 5    1  0.1422067E-002  0.1250013E+03  0.7818608E-02  0.1235067E+00
         -4   -1    0    0    0  501 -0.00000000000E+00  0.00000000000E+00  0.44399889789E+03  0.44400071422E+03  0.12700000000E+01 0.  1.
          4   -1    0    0  501    0  0.00000000000E+00 -0.00000000000E+00 -0.87503895763E+01  0.88420708964E+01  0.12700000000E+01 0.  1.
         25    2    1    2    0    0  0.00000000000E+00  0.00000000000E+00  0.43524850832E+03  0.45284278512E+03  0.12500129616E+03 0.  0.
    9000005    1    3    3    0    0 -0.53612678939E+02 -0.15552144293E+02  0.31939211514E+03  0.32423527222E+03  0.10000000000E+01 0.  0.
    9000005    1    3    3    0    0  0.53612678939E+02  0.15552144293E+02  0.11585639317E+03  0.12860751290E+03  0.10000000000E+01 0.  0.
<mgrwt>
<rscale>  0 0.12500130E+03</rscale>
<asrwt>0</asrwt>
<pdfrwt beam="2">  1        4 0.21992846E-02 0.12500130E+03</pdfrwt>
<pdfrwt beam="1">  1       -4 0.11101141E+00 0.12500130E+03</pdfrwt>
<totfact> 0.95505988E+02</totfact>
</mgrwt>
</event>
<event>
 5    1  0.1422067E-002  0.1249985E+03  0.7818608E-02  0.1235072E+00
         -4   -1    0    0    0  501 -0.00000000000E+00  0.00000000000E+00  0.11301990143E+03  0.11302703667E+03  0.12700000000E+01 0.  1.
          4   -1    0    0  501    0  0.00000000000E+00 -0.00000000000E+00 -0.34541775098E+02  0.34565114305E+02  0.12700000000E+01 0.  1.
         25    2    1    2    0    0  0.00000000000E+00  0.00000000000E+00  0.78478126332E+02  0.14759215098E+03  0.12499850686E+03 0.  0.
    9000005    1    3    3    0    0  0.39298664063E+02 -0.88333203393E+01  0.95653083996E+02  0.10379270217E+03  0.10000000000E+01 0.  0.
    9000005    1    3    3    0    0 -0.39298664063E+02  0.88333203393E+01 -0.17174957664E+02  0.43799448811E+02  0.10000000000E+01 0.  0.
<mgrwt>
<rscale>  0 0.12499851E+03</rscale>
<asrwt>0</asrwt>
<pdfrwt beam="2">  1        4 0.86392531E-02 0.12499851E+03</pdfrwt>
<pdfrwt beam="1">  1       -4 0.28258784E-01 0.12499851E+03</pdfrwt>
<totfact> 0.18658461E+03</totfact>
</mgrwt>
</event>
<event>
 5    1  0.1422067E-002  0.1250001E+03  0.7818608E-02  0.1235069E+00
          4   -1    0    0  501    0  0.00000000000E+00  0.00000000000E+00  0.14279964887E+03  0.14280529618E+03  0.12700000000E+01 0. -1.
         -4   -1    0    0    0  501 -0.00000000000E+00 -0.00000000000E+00 -0.27333878693E+02  0.27363366467E+02  0.12700000000E+01 0. -1.
         25    2    1    2    0    0  0.00000000000E+00  0.00000000000E+00  0.11546577018E+03  0.17016866265E+03  0.12500011866E+03 0.  0.
    9000005    1    3    3    0    0 -0.31879900373E+02 -0.21000948875E+02  0.12508714470E+03  0.13078670296E+03  0.10000000000E+01 0.  0.
    9000005    1    3    3    0    0  0.31879900373E+02  0.21000948875E+02 -0.96213745218E+01  0.39381959691E+02  0.10000000000E+01 0.  0.
<mgrwt>
<rscale>  0 0.12500012E+03</rscale>
<asrwt>0</asrwt>
<pdfrwt beam="1">  1        4 0.35704304E-01 0.12500012E+03</pdfrwt>
<pdfrwt beam="2">  1       -4 0.68378616E-02 0.12500012E+03</pdfrwt>
<totfact> 0.17589394E+03</totfact>
</mgrwt>
</event>
<event>
 5    1  0.1422067E-002  0.1250066E+03  0.7818608E-02  0.1235059E+00
          4   -1    0    0  501    0  0.00000000000E+00  0.00000000000E+00  0.50174730039E+02  0.50190800297E+02  0.12700000000E+01 0. -1.
         -4   -1    0    0    0  501 -0.00000000000E+00 -0.00000000000E+00 -0.77827404720E+02  0.77837766062E+02  0.12700000000E+01 0. -1.
         25    2    1    2    0    0  0.00000000000E+00  0.00000000000E+00 -0.27652674682E+02  0.12802856636E+03  0.12500657337E+03 0.  0.
    9000005    1    3    3    0    0  0.42075386570E+02  0.20198366349E+01  0.33455082718E+02  0.53802048797E+02  0.10000000000E+01 0.  0.
    9000005    1    3    3    0    0 -0.42075386570E+02 -0.20198366349E+01 -0.61107757400E+02  0.74226517562E+02  0.10000000000E+01 0.  0.
<mgrwt>
<rscale>  0 0.12500657E+03</rscale>
<asrwt>0</asrwt>
<pdfrwt beam="1">  1        4 0.12546987E-01 0.12500657E+03</pdfrwt>
<pdfrwt beam="2">  1       -4 0.19460155E-01 0.12500657E+03</pdfrwt>
<totfact> 0.19667962E+03</totfact>
</mgrwt>
</event>
<event>
 5    1  0.1422067E-002  0.1249985E+03  0.7818608E-02  0.1235072E+00
          4   -1    0    0  501    0  0.00000000000E+00  0.00000000000E+00  0.49201832197E+02  0.49218220117E+02  0.12700000000E+01 0.  1.
         -4   -1    0    0    0  501 -0.00000000000E+00 -0.00000000000E+00 -0.79355759435E+02  0.79365921248E+02  0.12700000000E+01 0.  1.
         25    2    1    2    0    0  0.00000000000E+00  0.00000000000E+00 -0.30153927238E+02  0.12858414136E+03  0.12499848832E+03 0.  0.
    9000005    1    3    3    0    0 -0.61560279967E+02 -0.43792014965E+01 -0.49816819248E+01  0.61924652847E+02  0.10000000000E+01 0.  0.
    9000005    1    3    3    0    0  0.61560279967E+02  0.43792014965E+01 -0.25172245313E+02  0.66659488518E+02  0.10000000000E+01 0.  0.
<mgrwt>
<rscale>  0 0.12499849E+03</rscale>
<asrwt>0</asrwt>
<pdfrwt beam="1">  1        4 0.12303777E-01 0.12499849E+03</pdfrwt>
<pdfrwt beam="2">  1       -4 0.19842258E-01 0.12499849E+03</pdfrwt>
<totfact> 0.19641503E+03</totfact>
</mgrwt>
</event>
<event>
 5    1  0.1422067E-002  0.1250001E+03  0.7818608E-02  0.1235069E+00
          4   -1    0    0  501    0  0.00000000000E+00  0.00000000000E+00  0.44058783100E+01  0.45852659336E+01  0.12700000000E+01 0. -1.
         -4   -1    0    0    0  501 -0.00000000000E+00 -0.00000000000E+00 -0.86873231131E+03  0.86873323962E+03  0.12700000000E+01 0. -1.
         25    2    1    2    0    0  0.00000000000E+00  0.00000000000E+00 -0.86432643300E+03  0.87331850555E+03  0.12500011741E+03 0.  0.
    9000005    1    3    3    0    0  0.42514292407E+02 -0.30400756141E+02 -0.19282075205E+03  0.19978116391E+03  0.10000000000E+01 0.  0.
    9000005    1    3    3    0    0 -0.42514292407E+02  0.30400756141E+02 -0.67150568095E+03  0.67353734164E+03  0.10000000000E+01 0.  0.
<mgrwt>
<rscale>  0 0.12500012E+03</rscale>
<asrwt>0</asrwt>
<pdfrwt beam="1">  1        4 0.11240120E-02 0.12500012E+03</pdfrwt>
<pdfrwt beam="2">  1       -4 0.21720504E+00 0.12500012E+03</pdfrwt>
<totfact> 0.46350170E+02</totfact>
</mgrwt>
</event>
<event>
 5    1  0.1422067E-002  0.1249988E+03  0.7818608E-02  0.1235071E+00
          4   -1    0    0  501    0  0.00000000000E+00  0.00000000000E+00  0.29553494488E+03  0.29553767364E+03  0.12700000000E+01 0. -1.
         -4   -1    0    0    0  501 -0.00000000000E+00 -0.00000000000E+00 -0.13184002434E+02  0.13245030018E+02  0.12700000000E+01 0. -1.
         25    2    1    2    0    0  0.00000000000E+00  0.00000000000E+00  0.28235094244E+03  0.30878270366E+03  0.12499881353E+03 0.  0.
    9000005    1    3    3    0    0  0.48570695494E+02  0.21610485825E+02  0.60029321649E+02  0.80191302621E+02  0.10000000000E+01 0.  0.
    9000005    1    3    3    0    0 -0.48570695494E+02 -0.21610485825E+02  0.22232162079E+03  0.22859140104E+03  0.10000000000E+01 0.  0.
<mgrwt>
<rscale>  0 0.12499881E+03</rscale>
<asrwt>0</asrwt>
<pdfrwt beam="1">  1        4 0.73891709E-01 0.12499881E+03</pdfrwt>
<pdfrwt beam="2">  1       -4 0.33039700E-02 0.12499881E+03</pdfrwt>
<totfact> 0.12728771E+03</totfact>
</mgrwt>
</event>
<event>
 5    1  0.1422067E-002  0.1249978E+03  0.7818608E-02  0.1235073E+00
          4   -1    0    0  501    0  0.00000000000E+00  0.00000000000E+00  0.71606761216E+02  0.71618022535E+02  0.12700000000E+01 0. -1.
         -4   -1    0    0    0  501 -0.00000000000E+00 -0.00000000000E+00 -0.54526516444E+02  0.54541304491E+02  0.12700000000E+01 0. -1.
         25    2    1    2    0    0  0.00000000000E+00  0.00000000000E+00  0.17080244772E+02  0.12615932703E+03  0.12499776412E+03 0.  0.
    9000005    1    3    3    0    0 -0.21419796713E+02  0.49091467506E+02 -0.23951113785E+02  0.58680795194E+02  0.10000000000E+01 0.  0.
    9000005    1    3    3    0    0  0.21419796713E+02 -0.49091467506E+02  0.41031358557E+02  0.67478531832E+02  0.10000000000E+01 0.  0.
<mgrwt>
<rscale>  0 0.12499776E+03</rscale>
<asrwt>0</asrwt>
<pdfrwt beam="1">  1        4 0.17904946E-01 0.12499776E+03</pdfrwt>
<pdfrwt beam="2">  1       -4 0.13634885E-01 0.12499776E+03</pdfrwt>
<totfact> 0.19773347E+03</totfact>
</mgrwt>
</event>
<event>
 5    1  0.1422067E-002  0.1249989E+03  0.7818608E-02  0.1235071E+00
          4   -1    0    0  501    0  0.00000000000E+00  0.00000000000E+00  0.46175195865E+03  0.46175370515E+03  0.12700000000E+01 0. -1.
         -4   -1    0    0    0  501 -0.00000000000E+00 -0.00000000000E+00 -0.84100379751E+01  0.85053888061E+01  0.12700000000E+01 0. -1.
         25    2    1    2    0    0  0.00000000000E+00  0.00000000000E+00  0.45334192068E+03  0.47025909396E+03  0.12499887361E+03 0.  0.
    9000005    1    3    3    0    0  0.56937984829E+01  0.84604252710E+01 -0.52769181862E+01  0.11525797260E+02  0.10000000000E+01 0.  0.
    9000005    1    3    3    0    0 -0.56937984829E+01 -0.84604252710E+01  0.45861883887E+03  0.45873329670E+03  0.10000000000E+01 0.  0.
<mgrwt>
<rscale>  0 0.12499887E+03</rscale>
<asrwt>0</asrwt>
<pdfrwt beam="1">  1        4 0.11545011E+00 0.12499887E+03</pdfrwt>
<pdfrwt beam="2">  1       -4 0.21146469E-02 0.12499887E+03</pdfrwt>
<totfact> 0.92492469E+02</totfact>
</mgrwt>
</event>
<event>
 5    1  0.1422067E-002  0.1250015E+03  0.7818608E-02  0.1235067E+00
          4   -1    0    0  501    0  0.00000000000E+00  0.00000000000E+00  0.42715393338E+03  0.42715582134E+03  0.12700000000E+01 0. -1.
         -4   -1    0    0    0  501 -0.00000000000E+00 -0.00000000000E+00 -0.90990437762E+01  0.91872464668E+01  0.12700000000E+01 0. -1.
         25    2    1    2    0    0  0.00000000000E+00  0.00000000000E+00  0.41805488961E+03  0.43634306781E+03  0.12500152839E+03 0.  0.
    9000005    1    3    3    0    0  0.29413882553E+02 -0.77525537506E+01  0.39958482259E+03  0.40074219770E+03  0.10000000000E+01 0.  0.
    9000005    1    3    3    0    0 -0.29413882553E+02  0.77525537506E+01  0.18470067018E+02  0.35600870104E+02  0.10000000000E+01 0.  0.
<mgrwt>
<rscale>  0 0.12500153E+03</rscale>
<asrwt>0</asrwt>
<pdfrwt beam="1">  1        4 0.10679975E+00 0.12500153E+03</pdfrwt>
<pdfrwt beam="2">  1       -4 0.22860222E-02 0.12500153E+03</pdfrwt>
<totfact> 0.98518197E+02</totfact>
</mgrwt>
</event>
<event>
 5    1  0.1422067E-002  0.1249968E+03  0.7818608E-02  0.1235074E+00
          4   -1    0    0  501    0  0.00000000000E+00  0.00000000000E+00  0.27251628264E+02  0.27281204941E+02  0.12700000000E+01 0.  1.
         -4   -1    0    0    0  501 -0.00000000000E+00 -0.00000000000E+00 -0.14322254124E+03  0.14322817187E+03  0.12700000000E+01 0.  1.
         25    2    1    2    0    0  0.00000000000E+00  0.00000000000E+00 -0.11597091297E+03  0.17050937681E+03  0.12499677966E+03 0.  0.
    9000005    1    3    3    0    0 -0.58887778327E+02  0.13075368869E+02 -0.80246506530E+02  0.10039540586E+03  0.10000000000E+01 0.  0.
    9000005    1    3    3    0    0  0.58887778327E+02 -0.13075368869E+02 -0.35724406442E+02  0.70113970954E+02  0.10000000000E+01 0.  0.
<mgrwt>
<rscale>  0 0.12499678E+03</rscale>
<asrwt>0</asrwt>
<pdfrwt beam="1">  1        4 0.68173084E-02 0.12499678E+03</pdfrwt>
<pdfrwt beam="2">  1       -4 0.35810034E-01 0.12499678E+03</pdfrwt>
<totfact> 0.17575411E+03</totfact>
</mgrwt>
</event>
<event>
 4    1  0.1422067E-002  0.1229475E+03  0.7818608E-02  0.1238312E+00
          4   -1    0    0  501    0  0.00000000000E+00  0.00000000000E+00  0.31598126759E+02  0.31623638543E+02  0.12700000000E+01 0.  1.
         -4   -1    0    0    0  501 -0.00000000000E+00 -0.00000000000E+00 -0.11951920029E+03  0.11952594755E+03  0.12700000000E+01 0.  1.
    9000005    1    1    2    0    0 -0.33122686435E+02 -0.40208280615E+02 -0.84065622534E+02  0.98903220770E+02  0.10000000000E+01 0.  0.
    9000005    1    1    2    0    0  0.33122686435E+02  0.40208280615E+02 -0.38554509923E+01  0.52246365319E+02  0.10000000000E+01 0.  0.
<mgrwt>
<rscale>  0 0.12294748E+03</rscale>
<asrwt>0</asrwt>
<pdfrwt beam="1">  1        4 0.79035644E-02 0.12294748E+03</pdfrwt>
<pdfrwt beam="2">  1       -4 0.29883831E-01 0.12294748E+03</pdfrwt>
<totfact> 0.19393216E+03</totfact>
</mgrwt>
</event>
<event>
 5    1  0.1422067E-002  0.1250014E+03  0.7818608E-02  0.1235067E+00
         -4   -1    0    0    0  501 -0.00000000000E+00  0.00000000000E+00  0.20075665642E+03  0.20076067343E+03  0.12700000000E+01 0.  1.
          4   -1    0    0  501    0  0.00000000000E+00 -0.00000000000E+00 -0.19433137620E+02  0.19474592107E+02  0.12700000000E+01 0.  1.
         25    2    1    2    0    0  0.00000000000E+00  0.00000000000E+00  0.18132351880E+03  0.22023526554E+03  0.12500141486E+03 0.  0.
    9000005    1    3    3    0    0 -0.29576849872E+02 -0.19979336319E+02  0.18103987138E+03  0.18452750190E+03  0.10000000000E+01 0.  0.
    9000005    1    3    3    0    0  0.29576849872E+02  0.19979336319E+02  0.28364741775E+00  0.35707763637E+02  0.10000000000E+01 0.  0.
<mgrwt>
<rscale>  0 0.12500141E+03</rscale>
<asrwt>0</asrwt>
<pdfrwt beam="2">  1        4 0.48639684E-02 0.12500141E+03</pdfrwt>
<pdfrwt beam="1">  1       -4 0.50194848E-01 0.12500141E+03</pdfrwt>
<totfact> 0.15542112E+03</totfact>
</mgrwt>
</event>
<event>
 5    1  0.1422067E-002  0.1250015E+03  0.7818608E-02  0.1235067E+00
          4   -1    0    0  501    0  0.00000000000E+00  0.00000000000E+00  0.13809437204E+03  0.13810021177E+03  0.12700000000E+01 0. -1.
         -4   -1    0    0    0  501 -0.00000000000E+00 -0.00000000000E+00 -0.28266798829E+02  0.28295314383E+02  0.12700000000E+01 0. -1.
         25    2    1    2    0    0  0.00000000000E+00  0.00000000000E+00  0.10982757321E+03  0.16639552615E+03  0.12500150113E+03 0.  0.
    9000005    1    3    3    0    0 -0.57867020825E+02 -0.40900090920E+00  0.86318291247E+02  0.10392596781E+03  0.10000000000E+01 0.  0.
    9000005    1    3    3    0    0  0.57867020825E+02  0.40900090920E+00  0.23509281966E+02  0.62469558342E+02  0.10000000000E+01 0.  0.
<mgrwt>
<rscale>  0 0.12500150E+03</rscale>
<asrwt>0</asrwt>
<pdfrwt beam="1">  1        4 0.34527886E-01 0.12500150E+03</pdfrwt>
<pdfrwt beam="2">  1       -4 0.70709943E-02 0.12500150E+03</pdfrwt>
<totfact> 0.17760241E+03</totfact>
</mgrwt>
</event>
<event>
 5    1  0.1422067E-002  0.1250008E+03  0.7818608E-02  0.1235068E+00
         -4   -1    0    0    0  501 -0.00000000000E+00  0.00000000000E+00  0.59338350610E+03  0.59338486517E+03  0.12700000000E+01 0.  1.
          4   -1    0    0  501    0  0.00000000000E+00 -0.00000000000E+00 -0.65204626119E+01  0.66429912444E+01  0.12700000000E+01 0.  1.
         25    2    1    2    0    0  0.00000000000E+00  0.00000000000E+00  0.58686304349E+03  0.60002785642E+03  0.12500078664E+03 0.  0.
    9000005    1    3    3    0    0 -0.42797792385E+02 -0.45321820489E+02  0.31467242548E+03  0.32078879937E+03  0.10000000000E+01 0.  0.
    9000005    1    3    3    0    0  0.42797792385E+02  0.45321820489E+02  0.27219061801E+03  0.27923905705E+03  0.10000000000E+01 0.  0.
<mgrwt>
<rscale>  0 0.12500079E+03</rscale>
<asrwt>0</asrwt>
<pdfrwt beam="2">  1        4 0.16456013E-02 0.12500079E+03</pdfrwt>
<pdfrwt beam="1">  1       -4 0.14836139E+00 0.12500079E+03</pdfrwt>
<totfact> 0.73498062E+02</totfact>
</mgrwt>
</event>
<event>
 5    1  0.1422067E-002  0.1250015E+03  0.7818608E-02  0.1235067E+00
         -4   -1    0    0    0  501 -0.00000000000E+00  0.00000000000E+00  0.37839625053E+03  0.37839838176E+03  0.12700000000E+01 0. -1.
          4   -1    0    0  501    0  0.00000000000E+00 -0.00000000000E+00 -0.10282196607E+02  0.10360331417E+02  0.12700000000E+01 0. -1.
         25    2    1    2    0    0  0.00000000000E+00  0.00000000000E+00  0.36811405393E+03  0.38875871318E+03  0.12500152148E+03 0.  0.
    9000005    1    3    3    0    0  0.20926322007E+02  0.58683197239E+02  0.16891129893E+03  0.18003792794E+03  0.10000000000E+01 0.  0.
    9000005    1    3    3    0    0 -0.20926322007E+02 -0.58683197239E+02  0.19920275500E+03  0.20872078523E+03  0.10000000000E+01 0.  0.
<mgrwt>
<rscale>  0 0.12500152E+03</rscale>
<asrwt>0</asrwt>
<pdfrwt beam="2">  1        4 0.25805825E-02 0.12500152E+03</pdfrwt>
<pdfrwt beam="1">  1       -4 0.94609092E-01 0.12500152E+03</pdfrwt>
<totfact> 0.10804100E+03</totfact>
</mgrwt>
</event>
<event>
 5    1  0.1422067E-002  0.1250049E+03  0.7818608E-02  0.1235062E+00
          4   -1    0    0  501    0  0.00000000000E+00  0.00000000000E+00  0.22752063798E+02  0.22787481367E+02  0.12700000000E+01 0. -1.
         -4   -1    0    0    0  501 -0.00000000000E+00 -0.00000000000E+00 -0.17152993155E+03  0.17153463300E+03  0.12700000000E+01 0. -1.
         25    2    1    2    0    0  0.00000000000E+00  0.00000000000E+00 -0.14877786775E+03  0.19432211436E+03  0.12500492070E+03 0.  0.
    9000005    1    3    3    0    0 -0.45015627995E+02 -0.34903942038E+02 -0.34426521533E+02  0.66564835449E+02  0.10000000000E+01 0.  0.
    9000005    1    3    3    0    0  0.45015627995E+02  0.34903942038E+02 -0.11435134622E+03  0.12775727891E+03  0.10000000000E+01 0.  0.
<mgrwt>
<rscale>  0 0.12500492E+03</rscale>
<asrwt>0</asrwt>
<pdfrwt beam="1">  1        4 0.56930313E-02 0.12500492E+03</pdfrwt>
<pdfrwt beam="2">  1       -4 0.42887494E-01 0.12500492E+03</pdfrwt>
<totfact> 0.16550062E+03</totfact>
</mgrwt>
</event>
<event>
 5    1  0.1422067E-002  0.1249900E+03  0.7818608E-02  0.1235085E+00
         -4   -1    0    0    0  501 -0.00000000000E+00  0.00000000000E+00  0.39190284353E+01  0.41196703602E+01  0.12700000000E+01 0. -1.
          4   -1    0    0  501    0  0.00000000000E+00 -0.00000000000E+00 -0.97150515896E+03  0.97150598907E+03  0.12700000000E+01 0. -1.
         25    2    1    2    0    0  0.00000000000E+00  0.00000000000E+00 -0.96758613053E+03  0.97562565943E+03  0.12499002897E+03 0.  0.
    9000005    1    3    3    0    0  0.56631150482E+02  0.26918800924E+00 -0.27764952525E+03  0.28336799138E+03  0.10000000000E+01 0.  0.
    9000005    1    3    3    0    0 -0.56631150482E+02 -0.26918800924E+00 -0.68993660528E+03  0.69225766805E+03  0.10000000000E+01 0.  0.
<mgrwt>
<rscale>  0 0.12499003E+03</rscale>
<asrwt>0</asrwt>
<pdfrwt beam="2">  1        4 0.24290067E+00 0.12499003E+03</pdfrwt>
<pdfrwt beam="1">  1       -4 0.10049444E-02 0.12499003E+03</pdfrwt>
<totfact> 0.38781592E+02</totfact>
</mgrwt>
</event>
<event>
 5    1  0.1422067E-002  0.1249965E+03  0.7818608E-02  0.1235075E+00
          4   -1    0    0  501    0  0.00000000000E+00  0.00000000000E+00  0.42730239730E+02  0.42749108615E+02  0.12700000000E+01 0. -1.
         -4   -1    0    0    0  501 -0.00000000000E+00 -0.00000000000E+00 -0.91367948130E+02  0.91376774103E+02  0.12700000000E+01 0. -1.
         25    2    1    2    0    0  0.00000000000E+00  0.00000000000E+00 -0.48637708400E+02  0.13412588272E+03  0.12499650290E+03 0.  0.
    9000005    1    3    3    0    0  0.91235148178E+01  0.51290126969E+02 -0.61352095159E+02  0.80492206005E+02  0.10000000000E+01 0.  0.
    9000005    1    3    3    0    0 -0.91235148178E+01 -0.51290126969E+02  0.12714386759E+02  0.53633676713E+02  0.10000000000E+01 0.  0.
<mgrwt>
<rscale>  0 0.12499650E+03</rscale>
<asrwt>0</asrwt>
<pdfrwt beam="1">  1        4 0.10686022E-01 0.12499650E+03</pdfrwt>
<pdfrwt beam="2">  1       -4 0.22845449E-01 0.12499650E+03</pdfrwt>
<totfact> 0.19346599E+03</totfact>
</mgrwt>
</event>
<event>
 5    1  0.1422067E-002  0.1250007E+03  0.7818608E-02  0.1235068E+00
         -4   -1    0    0    0  501 -0.00000000000E+00  0.00000000000E+00  0.29409615428E+02  0.29437023960E+02  0.12700000000E+01 0.  1.
          4   -1    0    0  501    0  0.00000000000E+00 -0.00000000000E+00 -0.13273133308E+03  0.13273740875E+03  0.12700000000E+01 0.  1.
         25    2    1    2    0    0  0.00000000000E+00  0.00000000000E+00 -0.10332171765E+03  0.16217443271E+03  0.12500067714E+03 0.  0.
    9000005    1    3    3    0    0 -0.56086046355E+02 -0.27529284323E+02 -0.49926900080E+02  0.79982507104E+02  0.10000000000E+01 0.  0.
    9000005    1    3    3    0    0  0.56086046355E+02  0.27529284323E+02 -0.53394817574E+02  0.82191925606E+02  0.10000000000E+01 0.  0.
<mgrwt>
<rscale>  0 0.12500068E+03</rscale>
<asrwt>0</asrwt>
<pdfrwt beam="2">  1        4 0.33187017E-01 0.12500068E+03</pdfrwt>
<pdfrwt beam="1">  1       -4 0.73565897E-02 0.12500068E+03</pdfrwt>
<totfact> 0.17955618E+03</totfact>
</mgrwt>
</event>
<event>
 5    1  0.1422067E-002  0.1250067E+03  0.7818608E-02  0.1235059E+00
          4   -1    0    0  501    0  0.00000000000E+00  0.00000000000E+00  0.22047312921E+02  0.22083860782E+02  0.12700000000E+01 0. -1.
         -4   -1    0    0    0  501 -0.00000000000E+00 -0.00000000000E+00 -0.17700918820E+03  0.17701374412E+03  0.12700000000E+01 0. -1.
         25    2    1    2    0    0  0.00000000000E+00  0.00000000000E+00 -0.15496187528E+03  0.19909760490E+03  0.12500669377E+03 0.  0.
    9000005    1    3    3    0    0 -0.21698755101E+02  0.30786409612E+02  0.19469887635E+01  0.37728368041E+02  0.10000000000E+01 0.  0.
    9000005    1    3    3    0    0  0.21698755101E+02 -0.30786409612E+02 -0.15690886405E+03  0.16136923686E+03  0.10000000000E+01 0.  0.
<mgrwt>
<rscale>  0 0.12500669E+03</rscale>
<asrwt>0</asrwt>
<pdfrwt beam="1">  1        4 0.55169667E-02 0.12500669E+03</pdfrwt>
<pdfrwt beam="2">  1       -4 0.44257431E-01 0.12500669E+03</pdfrwt>
<totfact> 0.16355707E+03</totfact>
</mgrwt>
</event>
<event>
 5    1  0.1422067E-002  0.1250004E+03  0.7818608E-02  0.1235069E+00
          4   -1    0    0  501    0  0.00000000000E+00  0.00000000000E+00  0.10094005607E+02  0.10173585857E+02  0.12700000000E+01 0. -1.
         -4   -1    0    0    0  501 -0.00000000000E+00 -0.00000000000E+00 -0.38538974930E+03  0.38539184186E+03  0.12700000000E+01 0. -1.
         25    2    1    2    0    0  0.00000000000E+00  0.00000000000E+00 -0.37529574370E+03  0.39556542771E+03  0.12500044945E+03 0.  0.
    9000005    1    3    3    0    0  0.34746458818E+02 -0.45363089606E+02 -0.10758185279E+03  0.12181946211E+03  0.10000000000E+01 0.  0.
    9000005    1    3    3    0    0 -0.34746458818E+02  0.45363089606E+02 -0.26771389091E+03  0.27374596560E+03  0.10000000000E+01 0.  0.
<mgrwt>
<rscale>  0 0.12500045E+03</rscale>
<asrwt>0</asrwt>
<pdfrwt beam="1">  1        4 0.25337118E-02 0.12500045E+03</pdfrwt>
<pdfrwt beam="2">  1       -4 0.96357597E-01 0.12500045E+03</pdfrwt>
<totfact> 0.10661013E+03</totfact>
</mgrwt>
</event>
<event>
 5    1  0.1422067E-002  0.1250118E+03  0.7818608E-02  0.1235051E+00
          4   -1    0    0  501    0  0.00000000000E+00  0.00000000000E+00  0.76476986359E+03  0.76477091809E+03  0.12700000000E+01 0.  1.
         -4   -1    0    0    0  501 -0.00000000000E+00 -0.00000000000E+00 -0.50287094144E+01  0.51865998858E+01  0.12700000000E+01 0.  1.
         25    2    1    2    0    0  0.00000000000E+00  0.00000000000E+00  0.75974115418E+03  0.76995751798E+03  0.12501183199E+03 0.  0.
    9000005    1    3    3    0    0 -0.58679379179E+02 -0.18820110404E+01  0.51184999046E+03  0.51520697224E+03  0.10000000000E+01 0.  0.
    9000005    1    3    3    0    0  0.58679379179E+02  0.18820110404E+01  0.24789116371E+03  0.25475054574E+03  0.10000000000E+01 0.  0.
<mgrwt>
<rscale>  0 0.12501183E+03</rscale>
<asrwt>0</asrwt>
<pdfrwt beam="1">  1        4 0.19121233E+00 0.12501183E+03</pdfrwt>
<pdfrwt beam="2">  1       -4 0.12770455E-02 0.12501183E+03</pdfrwt>
<totfact> 0.55181901E+02</totfact>
</mgrwt>
</event>
<event>
 5    1  0.1422067E-002  0.1249987E+03  0.7818608E-02  0.1235071E+00
          4   -1    0    0  501    0  0.00000000000E+00  0.00000000000E+00  0.48112262477E+03  0.48112430095E+03  0.12700000000E+01 0.  1.
         -4   -1    0    0    0  501 -0.00000000000E+00 -0.00000000000E+00 -0.80674976315E+01  0.81668487212E+01  0.12700000000E+01 0.  1.
         25    2    1    2    0    0  0.00000000000E+00  0.00000000000E+00  0.47305512713E+03  0.48929114967E+03  0.12499870334E+03 0.  0.
    9000005    1    3    3    0    0  0.54487100927E+02  0.10092063107E+02  0.12345205975E+03  0.13532222642E+03  0.10000000000E+01 0.  0.
    9000005    1    3    3    0    0 -0.54487100927E+02 -0.10092063107E+02  0.34960306738E+03  0.35396892325E+03  0.10000000000E+01 0.  0.
<mgrwt>
<rscale>  0 0.12499870E+03</rscale>
<asrwt>0</asrwt>
<pdfrwt beam="1">  1        4 0.12029328E+00 0.12499870E+03</pdfrwt>
<pdfrwt beam="2">  1       -4 0.20295029E-02 0.12499870E+03</pdfrwt>
<totfact> 0.89337495E+02</totfact>
</mgrwt>
</event>
<event>
 5    1  0.1422067E-002  0.1249994E+03  0.7818608E-02  0.1235070E+00
         -4   -1    0    0    0  501 -0.00000000000E+00  0.00000000000E+00  0.33043350453E+02  0.33067747265E+02  0.12700000000E+01 0.  1.
          4   -1    0    0  501    0  0.00000000000E+00 -0.00000000000E+00 -0.11814336109E+03  0.11815018693E+03  0.12700000000E+01 0.  1.
         25    2    1    2    0    0  0.00000000000E+00  0.00000000000E+00 -0.85100010641E+02  0.15121793419E+03  0.12499940724E+03 0.  0.
    9000005    1    3    3    0    0 -0.10185922627E+02 -0.59880987408E+02 -0.60318387253E+02  0.85608372917E+02  0.10000000000E+01 0.  0.
    9000005    1    3    3    0    0  0.10185922627E+02  0.59880987408E+02 -0.24781623388E+02  0.65609561273E+02  0.10000000000E+01 0.  0.
<mgrwt>
<rscale>  0 0.12499941E+03</rscale>
<asrwt>0</asrwt>
<pdfrwt beam="2">  1        4 0.29539742E-01 0.12499941E+03</pdfrwt>
<pdfrwt beam="1">  1       -4 0.82647407E-02 0.12499941E+03</pdfrwt>
<totfact> 0.18479312E+03</totfact>
</mgrwt>
</event>
<event>
 5    1  0.1422067E-002  0.1249953E+03  0.7818608E-02  0.1235077E+00
         -4   -1    0    0    0  501 -0.00000000000E+00  0.00000000000E+00  0.15158727058E+02  0.15211834406E+02  0.12700000000E+01 0.  1.
          4   -1    0    0  501    0  0.00000000000E+00 -0.00000000000E+00 -0.25716530279E+03  0.25716843869E+03  0.12700000000E+01 0.  1.
         25    2    1    2    0    0  0.00000000000E+00  0.00000000000E+00 -0.24200657573E+03  0.27238027309E+03  0.12499532181E+03 0.  0.
    9000005    1    3    3    0    0  0.65171417063E+00 -0.54907250498E+02 -0.56003758649E+02  0.78438841600E+02  0.10000000000E+01 0.  0.
    9000005    1    3    3    0    0 -0.65171417063E+00  0.54907250498E+02 -0.18600281708E+03  0.19394143149E+03  0.10000000000E+01 0.  0.
<mgrwt>
<rscale>  0 0.12499532E+03</rscale>
<asrwt>0</asrwt>
<pdfrwt beam="2">  1        4 0.64298342E-01 0.12499532E+03</pdfrwt>
<pdfrwt beam="1">  1       -4 0.37967130E-02 0.12499532E+03</pdfrwt>
<totfact> 0.13783538E+03</totfact>
</mgrwt>
</event>
<event>
 5    1  0.1422067E-002  0.1250007E+03  0.7818608E-02  0.1235068E+00
         -4   -1    0    0    0  501 -0.00000000000E+00  0.00000000000E+00  0.14573838672E+03  0.14574392016E+03  0.12700000000E+01 0. -1.
          4   -1    0    0  501    0  0.00000000000E+00 -0.00000000000E+00 -0.26782376192E+02  0.26812470503E+02  0.12700000000E+01 0. -1.
         25    2    1    2    0    0  0.00000000000E+00  0.00000000000E+00  0.11895601053E+03  0.17255639067E+03  0.12500070207E+03 0.  0.
    9000005    1    3    3    0    0  0.26539169461E+02 -0.94713901619E+01 -0.17521278962E+02  0.33196836653E+02  0.10000000000E+01 0.  0.
    9000005    1    3    3    0    0 -0.26539169461E+02  0.94713901619E+01  0.13647728949E+03  0.13935955401E+03  0.10000000000E+01 0.  0.
<mgrwt>
<rscale>  0 0.12500070E+03</rscale>
<asrwt>0</asrwt>
<pdfrwt beam="2">  1        4 0.67000476E-02 0.12500070E+03</pdfrwt>
<pdfrwt beam="1">  1       -4 0.36439050E-01 0.12500070E+03</pdfrwt>
<totfact> 0.17482071E+03</totfact>
</mgrwt>
</event>
<event>
 5    1  0.1422067E-002  0.1249971E+03  0.7818608E-02  0.1235074E+00
         -4   -1    0    0    0  501 -0.00000000000E+00  0.00000000000E+00  0.25900956223E+02  0.25932073447E+02  0.12700000000E+01 0.  1.
          4   -1    0    0  501    0  0.00000000000E+00 -0.00000000000E+00 -0.15068358576E+03  0.15068893761E+03  0.12700000000E+01 0.  1.
         25    2    1    2    0    0  0.00000000000E+00  0.00000000000E+00 -0.12478262954E+03  0.17662101105E+03  0.12499710761E+03 0.  0.
    9000005    1    3    3    0    0  0.16891384359E+02 -0.43077379118E+02 -0.30437717883E+01  0.46381504977E+02  0.10000000000E+01 0.  0.
    9000005    1    3    3    0    0 -0.16891384359E+02  0.43077379118E+02 -0.12173885775E+03  0.13023950608E+03  0.10000000000E+01 0.  0.
<mgrwt>
<rscale>  0 0.12499711E+03</rscale>
<asrwt>0</asrwt>
<pdfrwt beam="2">  1        4 0.37675453E-01 0.12499711E+03</pdfrwt>
<pdfrwt beam="1">  1       -4 0.64797981E-02 0.12499711E+03</pdfrwt>
<totfact> 0.17303642E+03</totfact>
</mgrwt>
</event>
<event>
 5    1  0.1422067E-002  0.1249988E+03  0.7818608E-02  0.1235071E+00
          4   -1    0    0  501    0  0.00000000000E+00  0.00000000000E+00  0.73382447965E+01  0.74473308435E+01  0.12700000000E+01 0.  1.
         -4   -1    0    0    0  501 -0.00000000000E+00 -0.00000000000E+00 -0.52826688828E+03  0.52826841487E+03  0.12700000000E+01 0.  1.
         25    2    1    2    0    0  0.00000000000E+00  0.00000000000E+00 -0.52092864348E+03  0.53571574572E+03  0.12499883442E+03 0.  0.
    9000005    1    3    3    0    0 -0.40188710758E+02  0.21689354471E+01 -0.46534636487E+03  0.46708465619E+03  0.10000000000E+01 0.  0.
    9000005    1    3    3    0    0  0.40188710758E+02 -0.21689354471E+01 -0.55582278612E+02  0.68631089522E+02  0.10000000000E+01 0.  0.
<mgrwt>
<rscale>  0 0.12499883E+03</rscale>
<asrwt>0</asrwt>
<pdfrwt beam="1">  1        4 0.18483896E-02 0.12499883E+03</pdfrwt>
<pdfrwt beam="2">  1       -4 0.13208042E+00 0.12499883E+03</pdfrwt>
<totfact> 0.82195226E+02</totfact>
</mgrwt>
</event>
<event>
 5    1  0.1422067E-002  0.1250022E+03  0.7818608E-02  0.1235066E+00
         -4   -1    0    0    0  501 -0.00000000000E+00  0.00000000000E+00  0.25522270399E+02  0.25553848758E+02  0.12700000000E+01 0.  1.
          4   -1    0    0  501    0  0.00000000000E+00 -0.00000000000E+00 -0.15292913979E+03  0.15293441306E+03  0.12700000000E+01 0.  1.
         25    2    1    2    0    0  0.00000000000E+00  0.00000000000E+00 -0.12740686939E+03  0.17848826181E+03  0.12500219693E+03 0.  0.
    9000005    1    3    3    0    0 -0.13392826204E+02  0.38987050799E+02 -0.13076870216E+03  0.13711605081E+03  0.10000000000E+01 0.  0.
    9000005    1    3    3    0    0  0.13392826204E+02 -0.38987050799E+02  0.33618327758E+01  0.41372211003E+02  0.10000000000E+01 0.  0.
<mgrwt>
<rscale>  0 0.12500220E+03</rscale>
<asrwt>0</asrwt>
<pdfrwt beam="2">  1        4 0.38236889E-01 0.12500220E+03</pdfrwt>
<pdfrwt beam="1">  1       -4 0.63851745E-02 0.12500220E+03</pdfrwt>
<totfact> 0.17219972E+03</totfact>
</mgrwt>
</event>
<event>
 5    1  0.1422067E-002  0.1249634E+03  0.7818608E-02  0.1235126E+00
         -4   -1    0    0    0  501 -0.00000000000E+00  0.00000000000E+00  0.48761658606E+02  0.48778194411E+02  0.12700000000E+01 0.  1.
          4   -1    0    0  501    0  0.00000000000E+00 -0.00000000000E+00 -0.80026988801E+02  0.80037065392E+02  0.12700000000E+01 0.  1.
         25    2    1    2    0    0  0.00000000000E+00  0.00000000000E+00 -0.31265330194E+02  0.12881525980E+03  0.12496339578E+03 0.  0.
    9000005    1    3    3    0    0  0.50957465905E+02  0.42370484524E+01 -0.52632591779E+02  0.73388048267E+02  0.10000000000E+01 0.  0.
    9000005    1    3    3    0    0 -0.50957465905E+02 -0.42370484524E+01  0.21367261585E+02  0.55427211536E+02  0.10000000000E+01 0.  0.
<mgrwt>
<rscale>  0 0.12496340E+03</rscale>
<asrwt>0</asrwt>
<pdfrwt beam="2">  1        4 0.20010074E-01 0.12496340E+03</pdfrwt>
<pdfrwt beam="1">  1       -4 0.12193741E-01 0.12496340E+03</pdfrwt>
<totfact> 0.19645070E+03</totfact>
</mgrwt>
</event>
<event>
 5    1  0.1422067E-002  0.1250013E+03  0.7818608E-02  0.1235067E+00
         -4   -1    0    0    0  501 -0.00000000000E+00  0.00000000000E+00  0.26814855169E+03  0.26815155915E+03  0.12700000000E+01 0. -1.
          4   -1    0    0  501    0  0.00000000000E+00 -0.00000000000E+00 -0.14537008028E+02  0.14592378230E+02  0.12700000000E+01 0. -1.
         25    2    1    2    0    0  0.00000000000E+00  0.00000000000E+00  0.25361154366E+03  0.28274393738E+03  0.12500127618E+03 0.  0.
    9000005    1    3    3    0    0  0.33273314775E+02 -0.52050615034E+02  0.10547280566E+03  0.12223703504E+03  0.10000000000E+01 0.  0.
    9000005    1    3    3    0    0 -0.33273314775E+02  0.52050615034E+02  0.14813873800E+03  0.16050690234E+03  0.10000000000E+01 0.  0.
<mgrwt>
<rscale>  0 0.12500128E+03</rscale>
<asrwt>0</asrwt>
<pdfrwt beam="2">  1        4 0.36415493E-02 0.12500128E+03</pdfrwt>
<pdfrwt beam="1">  1       -4 0.67044433E-01 0.12500128E+03</pdfrwt>
<totfact> 0.13468459E+03</totfact>
</mgrwt>
</event>
<event>
 5    1  0.1422067E-002  0.1249962E+03  0.7818608E-02  0.1235075E+00
         -4   -1    0    0    0  501 -0.00000000000E+00  0.00000000000E+00  0.13799756963E+03  0.13800341345E+03  0.12700000000E+01 0. -1.
          4   -1    0    0  501    0  0.00000000000E+00 -0.00000000000E+00 -0.28284266382E+02  0.28312764343E+02  0.12700000000E+01 0. -1.
         25    2    1    2    0    0  0.00000000000E+00  0.00000000000E+00  0.10971330325E+03  0.16631617779E+03  0.12499624829E+03 0.  0.
    9000005    1    3    3    0    0  0.10964297107E+02  0.60860042641E+02  0.42892256594E+02  0.75265571658E+02  0.10000000000E+01 0.  0.
    9000005    1    3    3    0    0 -0.10964297107E+02 -0.60860042641E+02  0.66821046651E+02  0.91050606131E+02  0.10000000000E+01 0.  0.
<mgrwt>
<rscale>  0 0.12499625E+03</rscale>
<asrwt>0</asrwt>
<pdfrwt beam="2">  1        4 0.70753593E-02 0.12499625E+03</pdfrwt>
<pdfrwt beam="1">  1       -4 0.34503685E-01 0.12499625E+03</pdfrwt>
<totfact> 0.17766042E+03</totfact>
</mgrwt>
</event>
<event>
 5    1  0.1422067E-002  0.1249988E+03  0.7818608E-02  0.1235071E+00
         -4   -1    0    0    0  501 -0.00000000000E+00  0.00000000000E+00  0.21878086288E+03  0.21878454895E+03  0.12700000000E+01 0.  1.
          4   -1    0    0  501    0  0.00000000000E+00 -0.00000000000E+00 -0.17827857711E+02  0.17873035852E+02  0.12700000000E+01 0.  1.
         25    2    1    2    0    0  0.00000000000E+00  0.00000000000E+00  0.20095300517E+03  0.23665758481E+03  0.12499880864E+03 0.  0.
    9000005    1    3    3    0    0 -0.23952866394E+01 -0.61045340016E+02  0.75581175670E+02  0.97189428702E+02  0.10000000000E+01 0.  0.
    9000005    1    3    3    0    0  0.23952866394E+01  0.61045340016E+02  0.12537182950E+03  0.13946815610E+03  0.10000000000E+01 0.  0.
<mgrwt>
<rscale>  0 0.12499881E+03</rscale>
<asrwt>0</asrwt>
<pdfrwt beam="2">  1        4 0.44630724E-02 0.12499881E+03</pdfrwt>
<pdfrwt beam="1">  1       -4 0.54701324E-01 0.12499881E+03</pdfrwt>
<totfact> 0.14952714E+03</totfact>
</mgrwt>
</event>
<event>
 5    1  0.1422067E-002  0.1249987E+03  0.7818608E-02  0.1235071E+00
          4   -1    0    0  501    0  0.00000000000E+00  0.00000000000E+00  0.51602177793E+03  0.51602334075E+03  0.12700000000E+01 0. -1.
         -4   -1    0    0    0  501 -0.00000000000E+00 -0.00000000000E+00 -0.75149239299E+01  0.76214815930E+01  0.12700000000E+01 0. -1.
         25    2    1    2    0    0  0.00000000000E+00  0.00000000000E+00  0.50850685400E+03  0.52364482234E+03  0.12499871760E+03 0.  0.
    9000005    1    3    3    0    0  0.34291393330E+02 -0.27924847737E+01  0.47279456951E+03  0.47404578111E+03  0.10000000000E+01 0.  0.
    9000005    1    3    3    0    0 -0.34291393330E+02  0.27924847737E+01  0.35712284482E+02  0.49599041227E+02  0.10000000000E+01 0.  0.
<mgrwt>
<rscale>  0 0.12499872E+03</rscale>
<asrwt>0</asrwt>
<pdfrwt beam="1">  1        4 0.12901894E+00 0.12499872E+03</pdfrwt>
<pdfrwt beam="2">  1       -4 0.18922464E-02 0.12499872E+03</pdfrwt>
<totfact> 0.83967252E+02</totfact>
</mgrwt>
</event>
<event>
 5    1  0.1422067E-002  0.1250000E+03  0.7818608E-02  0.1235069E+00
         -4   -1    0    0    0  501 -0.00000000000E+00  0.00000000000E+00  0.70397324962E+01  0.71533721851E+01  0.12700000000E+01 0. -1.
          4   -1    0    0  501    0  0.00000000000E+00 -0.00000000000E+00 -0.55032902192E+03  0.55033048731E+03  0.12700000000E+01 0. -1.
         25    2    1    2    0    0  0.00000000000E+00  0.00000000000E+00 -0.54328928942E+03  0.55748385949E+03  0.12500000640E+03 0.  0.
    9000005    1    3    3    0    0  0.15804338820E+02 -0.60357556039E+02 -0.25591532943E+03  0.26341311193E+03  0.10000000000E+01 0.  0.
    9000005    1    3    3    0    0 -0.15804338820E+02  0.60357556039E+02 -0.28737395998E+03  0.29407074757E+03  0.10000000000E+01 0.  0.
<mgrwt>
<rscale>  0 0.12500001E+03</rscale>
<asrwt>0</asrwt>
<pdfrwt beam="2">  1        4 0.13759650E+00 0.12500001E+03</pdfrwt>
<pdfrwt beam="1">  1       -4 0.17743231E-02 0.12500001E+03</pdfrwt>
<totfact> 0.79126261E+02</totfact>
</mgrwt>
</event>
<event>
 5    1  0.1422067E-002  0.1249998E+03  0.7818608E-02  0.1235070E+00
          4   -1    0    0  501    0  0.00000000000E+00  0.00000000000E+00  0.38066351665E+02  0.38087531149E+02  0.12700000000E+01 0. -1.
         -4   -1    0    0    0  501 -0.00000000000E+00 -0.00000000000E+00 -0.10256285993E+03  0.10257072261E+03  0.12700000000E+01 0. -1.
         25    2    1    2    0    0  0.00000000000E+00  0.00000000000E+00 -0.64496508269E+02  0.14065825376E+03  0.12499977909E+03 0.  0.
    9000005    1    3    3    0    0 -0.60325508287E+02  0.20295226995E+01 -0.50460579906E+02  0.78680086661E+02  0.10000000000E+01 0.  0.
    9000005    1    3    3    0    0  0.60325508287E+02 -0.20295226995E+01 -0.14035928363E+02  0.61978167104E+02  0.10000000000E+01 0.  0.
<mgrwt>
<rscale>  0 0.12499978E+03</rscale>
<asrwt>0</asrwt>
<pdfrwt beam="1">  1        4 0.95202184E-02 0.12499978E+03</pdfrwt>
<pdfrwt beam="2">  1       -4 0.25644345E-01 0.12499978E+03</pdfrwt>
<totfact> 0.19006816E+03</totfact>
</mgrwt>
</event>
<event>
 5    1  0.1422067E-002  0.1250139E+03  0.7818608E-02  0.1235048E+00
          4   -1    0    0  501    0  0.00000000000E+00  0.00000000000E+00  0.31934960780E+03  0.31935213308E+03  0.12700000000E+01 0.  1.
         -4   -1    0    0    0  501 -0.00000000000E+00 -0.00000000000E+00 -0.12199073785E+02  0.12265003107E+02  0.12700000000E+01 0.  1.
         25    2    1    2    0    0  0.00000000000E+00  0.00000000000E+00  0.30715053402E+03  0.33161713619E+03  0.12501389709E+03 0.  0.
    9000005    1    3    3    0    0  0.92909535108E+01 -0.82027096927E+01 -0.89196333853E+01  0.15302487483E+02  0.10000000000E+01 0.  0.
    9000005    1    3    3    0    0 -0.92909535108E+01  0.82027096927E+01  0.31607016740E+03  0.31631464871E+03  0.10000000000E+01 0.  0.
<mgrwt>
<rscale>  0 0.12501390E+03</rscale>
<asrwt>0</asrwt>
<pdfrwt beam="1">  1        4 0.79845955E-01 0.12501390E+03</pdfrwt>
<pdfrwt beam="2">  1       -4 0.30583254E-02 0.12501390E+03</pdfrwt>
<totfact> 0.12125160E+03</totfact>
</mgrwt>
</event>
<event>
 5    1  0.1422067E-002  0.1249987E+03  0.7818608E-02  0.1235071E+00
         -4   -1    0    0    0  501 -0.00000000000E+00  0.00000000000E+00  0.45112275584E+02  0.45130148552E+02  0.12700000000E+01 0. -1.
          4   -1    0    0  501    0  0.00000000000E+00 -0.00000000000E+00 -0.86548049256E+02  0.86557366700E+02  0.12700000000E+01 0. -1.
         25    2    1    2    0    0  0.00000000000E+00  0.00000000000E+00 -0.41435773672E+02  0.13168751525E+03  0.12499871333E+03 0.  0.
    9000005    1    3    3    0    0 -0.14731981902E+02  0.55042710923E+02  0.63152593029E+01  0.57337717225E+02  0.10000000000E+01 0.  0.
    9000005    1    3    3    0    0  0.14731981902E+02 -0.55042710923E+02 -0.47751032975E+02  0.74349798027E+02  0.10000000000E+01 0.  0.
<mgrwt>
<rscale>  0 0.12499871E+03</rscale>
<asrwt>0</asrwt>
<pdfrwt beam="2">  1        4 0.21640411E-01 0.12499871E+03</pdfrwt>
<pdfrwt beam="1">  1       -4 0.11281468E-01 0.12499871E+03</pdfrwt>
<totfact> 0.19474670E+03</totfact>
</mgrwt>
</event>
<event>
 5    1  0.1422067E-002  0.1250066E+03  0.7818608E-02  0.1235059E+00
         -4   -1    0    0    0  501 -0.00000000000E+00  0.00000000000E+00  0.76578877169E+02  0.76589407416E+02  0.12700000000E+01 0.  1.
          4   -1    0    0  501    0  0.00000000000E+00 -0.00000000000E+00 -0.50992900043E+02  0.51008712538E+02  0.12700000000E+01 0.  1.
         25    2    1    2    0    0  0.00000000000E+00  0.00000000000E+00  0.25585977126E+02  0.12759811995E+03  0.12500655179E+03 0.  0.
    9000005    1    3    3    0    0 -0.35315706092E+02 -0.50651478199E+02  0.22630645486E+02  0.65771707106E+02  0.10000000000E+01 0.  0.
    9000005    1    3    3    0    0  0.35315706092E+02  0.50651478199E+02  0.29553316397E+01  0.61826412848E+02  0.10000000000E+01 0.  0.
<mgrwt>
<rscale>  0 0.12500655E+03</rscale>
<asrwt>0</asrwt>
<pdfrwt beam="2">  1        4 0.12751518E-01 0.12500655E+03</pdfrwt>
<pdfrwt beam="1">  1       -4 0.19148012E-01 0.12500655E+03</pdfrwt>
<totfact> 0.19691418E+03</totfact>
</mgrwt>
</event>
<event>
 5    1  0.1422067E-002  0.1249997E+03  0.7818608E-02  0.1235070E+00
          4   -1    0    0  501    0  0.00000000000E+00  0.00000000000E+00  0.22998631166E+03  0.22998981815E+03  0.12700000000E+01 0. -1.
         -4   -1    0    0    0  501 -0.00000000000E+00 -0.00000000000E+00 -0.16957244379E+02  0.17004735721E+02  0.12700000000E+01 0. -1.
         25    2    1    2    0    0  0.00000000000E+00  0.00000000000E+00  0.21302906729E+03  0.24699455387E+03  0.12499970453E+03 0.  0.
    9000005    1    3    3    0    0  0.14347973187E+02 -0.60549230070E+02  0.95136370911E+02  0.11368378366E+03  0.10000000000E+01 0.  0.
    9000005    1    3    3    0    0 -0.14347973187E+02  0.60549230070E+02  0.11789269637E+03  0.13331077021E+03  0.10000000000E+01 0.  0.
<mgrwt>
<rscale>  0 0.12499970E+03</rscale>
<asrwt>0</asrwt>
<pdfrwt beam="1">  1        4 0.57502951E-01 0.12499970E+03</pdfrwt>
<pdfrwt beam="2">  1       -4 0.42456859E-02 0.12499970E+03</pdfrwt>
<totfact> 0.14598583E+03</totfact>
</mgrwt>
</event>
<event>
 5    1  0.1422067E-002  0.1250001E+03  0.7818608E-02  0.1235069E+00
         -4   -1    0    0    0  501 -0.00000000000E+00  0.00000000000E+00  0.92104494706E+01  0.92975953585E+01  0.12700000000E+01 0. -1.
          4   -1    0    0  501    0  0.00000000000E+00 -0.00000000000E+00 -0.42202647926E+03  0.42202839016E+03  0.12700000000E+01 0. -1.
         25    2    1    2    0    0  0.00000000000E+00  0.00000000000E+00 -0.41281602979E+03  0.43132598551E+03  0.12500012531E+03 0.  0.
    9000005    1    3    3    0    0  0.36383281535E+02 -0.48917285321E+02 -0.25379749771E+03  0.26101879974E+03  0.10000000000E+01 0.  0.
    9000005    1    3    3    0    0 -0.36383281535E+02  0.48917285321E+02 -0.15901853209E+03  0.17030718577E+03  0.10000000000E+01 0.  0.
<mgrwt>
<rscale>  0 0.12500013E+03</rscale>
<asrwt>0</asrwt>
<pdfrwt beam="2">  1        4 0.10551769E+00 0.12500013E+03</pdfrwt>
<pdfrwt beam="1">  1       -4 0.23137459E-02 0.12500013E+03</pdfrwt>
<totfact> 0.99468502E+02</totfact>
</mgrwt>
</event>
<event>
 5    1  0.1422067E-002  0.1249970E+03  0.7818608E-02  0.1235074E+00
         -4   -1    0    0    0  501 -0.00000000000E+00  0.00000000000E+00  0.40552405250E+02  0.40572286989E+02  0.12700000000E+01 0.  1.
          4   -1    0    0  501    0  0.00000000000E+00 -0.00000000000E+00 -0.96273630286E+02  0.96282006566E+02  0.12700000000E+01 0.  1.
         25    2    1    2    0    0  0.00000000000E+00  0.00000000000E+00 -0.55721225036E+02  0.13685429356E+03  0.12499697094E+03 0.  0.
    9000005    1    3    3    0    0 -0.28345223412E+02  0.34875042593E+02  0.19678801616E+02  0.49071127144E+02  0.10000000000E+01 0.  0.
    9000005    1    3    3    0    0  0.28345223412E+02 -0.34875042593E+02 -0.75400026652E+02  0.87783166412E+02  0.10000000000E+01 0.  0.
<mgrwt>
<rscale>  0 0.12499697E+03</rscale>
<asrwt>0</asrwt>
<pdfrwt beam="2">  1        4 0.24071939E-01 0.12499697E+03</pdfrwt>
<pdfrwt beam="1">  1       -4 0.10141634E-01 0.12499697E+03</pdfrwt>
<totfact> 0.19203804E+03</totfact>
</mgrwt>
</event>
<event>
 5    1  0.1422067E-002  0.1249993E+03  0.7818608E-02  0.1235070E+00
          4   -1    0    0  501    0  0.00000000000E+00  0.00000000000E+00  0.38360030347E+02  0.38381047774E+02  0.12700000000E+01 0. -1.
         -4   -1    0    0    0  501 -0.00000000000E+00 -0.00000000000E+00 -0.10177723565E+03  0.10178515902E+03  0.12700000000E+01 0. -1.
         25    2    1    2    0    0  0.00000000000E+00  0.00000000000E+00 -0.63417205302E+02  0.14016620679E+03  0.12499929439E+03 0.  0.
    9000005    1    3    3    0    0  0.40366396437E+02  0.84742427014E+01  0.20933878097E+02  0.46265386661E+02  0.10000000000E+01 0.  0.
    9000005    1    3    3    0    0 -0.40366396437E+02 -0.84742427014E+01 -0.84351083399E+02  0.93900820131E+02  0.10000000000E+01 0.  0.
<mgrwt>
<rscale>  0 0.12499929E+03</rscale>
<asrwt>0</asrwt>
<pdfrwt beam="1">  1        4 0.95936254E-02 0.12499929E+03</pdfrwt>
<pdfrwt beam="2">  1       -4 0.25447926E-01 0.12499929E+03</pdfrwt>
<totfact> 0.19032156E+03</totfact>
</mgrwt>
</event>
<event>
 5    1  0.1422067E-002  0.1249567E+03  0.7818608E-02  0.1235137E+00
          4   -1    0    0  501    0  0.00000000000E+00  0.00000000000E+00  0.84608448730E+01  0.85556294897E+01  0.12700000000E+01 0. -1.
         -4   -1    0    0    0  501 -0.00000000000E+00 -0.00000000000E+00 -0.45870034958E+03  0.45870210770E+03  0.12700000000E+01 0. -1.
         25    2    1    2    0    0  0.00000000000E+00  0.00000000000E+00 -0.45023950471E+03  0.46725773719E+03  0.12495671795E+03 0.  0.
    9000005    1    3    3    0    0  0.35151247008E+01 -0.55663890987E+02 -0.33033600525E+03  0.33501298666E+03  0.10000000000E+01 0.  0.
    9000005    1    3    3    0    0 -0.35151247008E+01  0.55663890987E+02 -0.11990349945E+03  0.13224475053E+03  0.10000000000E+01 0.  0.
<mgrwt>
<rscale>  0 0.12495672E+03</rscale>
<asrwt>0</asrwt>
<pdfrwt beam="1">  1        4 0.21272806E-02 0.12495672E+03</pdfrwt>
<pdfrwt beam="2">  1       -4 0.11468707E+00 0.12495672E+03</pdfrwt>
<totfact> 0.93090624E+02</totfact>
</mgrwt>
</event>
<event>
 5    1  0.1422067E-002  0.1250209E+03  0.7818608E-02  0.1235037E+00
          4   -1    0    0  501    0  0.00000000000E+00  0.00000000000E+00  0.19027458744E+02  0.19069795129E+02  0.12700000000E+01 0. -1.
         -4   -1    0    0    0  501 -0.00000000000E+00 -0.00000000000E+00 -0.20509157432E+03  0.20509550643E+03  0.12700000000E+01 0. -1.
         25    2    1    2    0    0  0.00000000000E+00  0.00000000000E+00 -0.18606411558E+03  0.22416530156E+03  0.12502090752E+03 0.  0.
    9000005    1    3    3    0    0  0.22939212823E+02 -0.32055298773E+02 -0.18000394804E+03  0.18427200268E+03  0.10000000000E+01 0.  0.
    9000005    1    3    3    0    0 -0.22939212823E+02  0.32055298773E+02 -0.60601675395E+01  0.39893298873E+02  0.10000000000E+01 0.  0.
<mgrwt>
<rscale>  0 0.12502091E+03</rscale>
<asrwt>0</asrwt>
<pdfrwt beam="1">  1        4 0.47626489E-02 0.12502091E+03</pdfrwt>
<pdfrwt beam="2">  1       -4 0.51278670E-01 0.12502091E+03</pdfrwt>
<totfact> 0.15390641E+03</totfact>
</mgrwt>
</event>
<event>
 5    1  0.1422067E-002  0.1249877E+03  0.7818608E-02  0.1235088E+00
          4   -1    0    0  501    0  0.00000000000E+00  0.00000000000E+00  0.19699064566E+03  0.19699473947E+03  0.12700000000E+01 0.  1.
         -4   -1    0    0    0  501 -0.00000000000E+00 -0.00000000000E+00 -0.19801088139E+02  0.19841773899E+02  0.12700000000E+01 0.  1.
         25    2    1    2    0    0  0.00000000000E+00  0.00000000000E+00  0.17718955752E+03  0.21683651336E+03  0.12498773633E+03 0.  0.
    9000005    1    3    3    0    0 -0.24732954020E+02  0.49005259421E+02  0.36802554414E+02  0.66095858243E+02  0.10000000000E+01 0.  0.
    9000005    1    3    3    0    0  0.24732954020E+02 -0.49005259421E+02  0.14038700311E+03  0.15074065512E+03  0.10000000000E+01 0.  0.
<mgrwt>
<rscale>  0 0.12498774E+03</rscale>
<asrwt>0</asrwt>
<pdfrwt beam="1">  1        4 0.49253258E-01 0.12498774E+03</pdfrwt>
<pdfrwt beam="2">  1       -4 0.49558696E-02 0.12498774E+03</pdfrwt>
<totfact> 0.15673800E+03</totfact>
</mgrwt>
</event>
<event>
 5    1  0.1422067E-002  0.1249985E+03  0.7818608E-02  0.1235072E+00
          4   -1    0    0  501    0  0.00000000000E+00  0.00000000000E+00  0.17690276814E+02  0.17735805416E+02  0.12700000000E+01 0. -1.
         -4   -1    0    0    0  501 -0.00000000000E+00 -0.00000000000E+00 -0.22047680794E+03  0.22048046567E+03  0.12700000000E+01 0. -1.
         25    2    1    2    0    0  0.00000000000E+00  0.00000000000E+00 -0.20278653113E+03  0.23821627108E+03  0.12499845840E+03 0.  0.
    9000005    1    3    3    0    0  0.38343349525E+02 -0.45379482878E+01 -0.19503441148E+03  0.19882209910E+03  0.10000000000E+01 0.  0.
    9000005    1    3    3    0    0 -0.38343349525E+02  0.45379482878E+01 -0.77521196477E+01  0.39394171987E+02  0.10000000000E+01 0.  0.
<mgrwt>
<rscale>  0 0.12499846E+03</rscale>
<asrwt>0</asrwt>
<pdfrwt beam="1">  1        4 0.44287182E-02 0.12499846E+03</pdfrwt>
<pdfrwt beam="2">  1       -4 0.55125342E-01 0.12499846E+03</pdfrwt>
<totfact> 0.14898633E+03</totfact>
</mgrwt>
</event>
<event>
 5    1  0.1422067E-002  0.1249929E+03  0.7818608E-02  0.1235080E+00
          4   -1    0    0  501    0  0.00000000000E+00  0.00000000000E+00  0.42925303366E+02  0.42944086543E+02  0.12700000000E+01 0. -1.
         -4   -1    0    0    0  501 -0.00000000000E+00 -0.00000000000E+00 -0.90947575285E+02  0.90956442049E+02  0.12700000000E+01 0. -1.
         25    2    1    2    0    0  0.00000000000E+00  0.00000000000E+00 -0.48022271919E+02  0.13390052859E+03  0.12499285162E+03 0.  0.
    9000005    1    3    3    0    0 -0.21292448920E+02  0.38596918255E+02  0.23436526729E+02  0.49933568518E+02  0.10000000000E+01 0.  0.
    9000005    1    3    3    0    0  0.21292448920E+02 -0.38596918255E+02 -0.71458798649E+02  0.83966960074E+02  0.10000000000E+01 0.  0.
<mgrwt>
<rscale>  0 0.12499285E+03</rscale>
<asrwt>0</asrwt>
<pdfrwt beam="1">  1        4 0.10734782E-01 0.12499285E+03</pdfrwt>
<pdfrwt beam="2">  1       -4 0.22740350E-01 0.12499285E+03</pdfrwt>
<totfact> 0.19360111E+03</totfact>
</mgrwt>
</event>
<event>
 5    1  0.1422067E-002  0.1249925E+03  0.7818608E-02  0.1235081E+00
          4   -1    0    0  501    0  0.00000000000E+00  0.00000000000E+00  0.15485647446E+03  0.15486168210E+03  0.12700000000E+01 0.  1.
         -4   -1    0    0    0  501 -0.00000000000E+00 -0.00000000000E+00 -0.25200315949E+02  0.25232297238E+02  0.12700000000E+01 0.  1.
         25    2    1    2    0    0  0.00000000000E+00  0.00000000000E+00  0.12965615851E+03  0.18009397933E+03  0.12499248759E+03 0.  0.
    9000005    1    3    3    0    0 -0.51100303061E+02 -0.19127528195E+02  0.20943320051E+02  0.58452766937E+02  0.10000000000E+01 0.  0.
    9000005    1    3    3    0    0  0.51100303061E+02  0.19127528195E+02  0.10871283846E+03  0.12164121240E+03  0.10000000000E+01 0.  0.
<mgrwt>
<rscale>  0 0.12499249E+03</rscale>
<asrwt>0</asrwt>
<pdfrwt beam="1">  1        4 0.38718767E-01 0.12499249E+03</pdfrwt>
<pdfrwt beam="2">  1       -4 0.63047276E-02 0.12499249E+03</pdfrwt>
<totfact> 0.17154134E+03</totfact>
</mgrwt>
</event>
<event>
 5    1  0.1422067E-002  0.1249788E+03  0.7818608E-02  0.1235102E+00
          4   -1    0    0  501    0  0.00000000000E+00  0.00000000000E+00  0.32915982965E+02  0.32940474110E+02  0.12700000000E+01 0. -1.
         -4   -1    0    0    0  501 -0.00000000000E+00 -0.00000000000E+00 -0.11856107815E+03  0.11856787993E+03  0.12700000000E+01 0. -1.
         25    2    1    2    0    0  0.00000000000E+00  0.00000000000E+00 -0.85645095183E+02  0.15150835404E+03  0.12497879426E+03 0.  0.
    9000005    1    3    3    0    0  0.33249273617E+02  0.51836881378E+02 -0.55614652705E+02  0.82985336431E+02  0.10000000000E+01 0.  0.
    9000005    1    3    3    0    0 -0.33249273617E+02 -0.51836881378E+02 -0.30030442479E+02  0.68523017611E+02  0.10000000000E+01 0.  0.
<mgrwt>
<rscale>  0 0.12497879E+03</rscale>
<asrwt>0</asrwt>
<pdfrwt beam="1">  1        4 0.82329076E-02 0.12497879E+03</pdfrwt>
<pdfrwt beam="2">  1       -4 0.29644180E-01 0.12497879E+03</pdfrwt>
<totfact> 0.18473976E+03</totfact>
</mgrwt>
</event>
<event>
 5    1  0.1422067E-002  0.1249966E+03  0.7818608E-02  0.1235075E+00
          4   -1    0    0  501    0  0.00000000000E+00  0.00000000000E+00  0.32592596828E+03  0.32592844261E+03  0.12700000000E+01 0. -1.
         -4   -1    0    0    0  501 -0.00000000000E+00 -0.00000000000E+00 -0.11948259214E+02  0.12015564832E+02  0.12700000000E+01 0. -1.
         25    2    1    2    0    0  0.00000000000E+00  0.00000000000E+00  0.31397770907E+03  0.33794400744E+03  0.12499660144E+03 0.  0.
    9000005    1    3    3    0    0 -0.48811712985E+02  0.38436490293E+02  0.13883415831E+03  0.15210480145E+03  0.10000000000E+01 0.  0.
    9000005    1    3    3    0    0  0.48811712985E+02 -0.38436490293E+02  0.17514355075E+03  0.18583920598E+03  0.10000000000E+01 0.  0.
<mgrwt>
<rscale>  0 0.12499660E+03</rscale>
<asrwt>0</asrwt>
<pdfrwt beam="1">  1        4 0.81490213E-01 0.12499660E+03</pdfrwt>
<pdfrwt beam="2">  1       -4 0.29957874E-02 0.12499660E+03</pdfrwt>
<totfact> 0.11971438E+03</totfact>
</mgrwt>
</event>
<event>
 5    1  0.1422067E-002  0.1249992E+03  0.7818608E-02  0.1235071E+00
         -4   -1    0    0    0  501 -0.00000000000E+00  0.00000000000E+00  0.11460136004E+03  0.11460839683E+03  0.12700000000E+01 0.  1.
          4   -1    0    0  501    0  0.00000000000E+00 -0.00000000000E+00 -0.34065195332E+02  0.34088860835E+02  0.12700000000E+01 0.  1.
         25    2    1    2    0    0  0.00000000000E+00  0.00000000000E+00  0.80536164710E+02  0.14869725766E+03  0.12499920244E+03 0.  0.
    9000005    1    3    3    0    0  0.52384494231E+02  0.32604395664E+02  0.52045478960E+02  0.80727403852E+02  0.10000000000E+01 0.  0.
    9000005    1    3    3    0    0 -0.52384494231E+02 -0.32604395664E+02  0.28490685750E+02  0.67969853810E+02  0.10000000000E+01 0.  0.
<mgrwt>
<rscale>  0 0.12499920E+03</rscale>
<asrwt>0</asrwt>
<pdfrwt beam="2">  1        4 0.85201367E-02 0.12499920E+03</pdfrwt>
<pdfrwt beam="1">  1       -4 0.28654177E-01 0.12499920E+03</pdfrwt>
<totfact> 0.18603368E+03</totfact>
</mgrwt>
</event>
<event>
 5    1  0.1422067E-002  0.1250015E+03  0.7818608E-02  0.1235067E+00
         -4   -1    0    0    0  501 -0.00000000000E+00  0.00000000000E+00  0.10100577213E+03  0.10101375601E+03  0.12700000000E+01 0.  1.
          4   -1    0    0  501    0  0.00000000000E+00 -0.00000000000E+00 -0.38654518962E+02  0.38675376355E+02  0.12700000000E+01 0.  1.
         25    2    1    2    0    0  0.00000000000E+00  0.00000000000E+00  0.62351253163E+02  0.13968913236E+03  0.12500149971E+03 0.  0.
    9000005    1    3    3    0    0 -0.83186804999E+01 -0.21917770229E+02  0.95911124944E+02  0.98739723441E+02  0.10000000000E+01 0.  0.
    9000005    1    3    3    0    0  0.83186804999E+01  0.21917770229E+02 -0.33559871781E+02  0.40949408921E+02  0.10000000000E+01 0.  0.
<mgrwt>
<rscale>  0 0.12500150E+03</rscale>
<asrwt>0</asrwt>
<pdfrwt beam="2">  1        4 0.96672349E-02 0.12500150E+03</pdfrwt>
<pdfrwt beam="1">  1       -4 0.25255048E-01 0.12500150E+03</pdfrwt>
<totfact> 0.19055590E+03</totfact>
</mgrwt>
</event>
<event>
 5    1  0.1422067E-002  0.1250033E+03  0.7818608E-02  0.1235064E+00
          4   -1    0    0  501    0  0.00000000000E+00  0.00000000000E+00  0.79624723688E+02  0.79634851180E+02  0.12700000000E+01 0. -1.
         -4   -1    0    0    0  501 -0.00000000000E+00 -0.00000000000E+00 -0.49039372068E+02  0.49055814261E+02  0.12700000000E+01 0. -1.
         25    2    1    2    0    0  0.00000000000E+00  0.00000000000E+00  0.30585351620E+02  0.12869066544E+03  0.12500329451E+03 0.  0.
    9000005    1    3    3    0    0  0.37583408631E+01 -0.55896222296E+02 -0.13217977187E+02  0.57569329629E+02  0.10000000000E+01 0.  0.
    9000005    1    3    3    0    0 -0.37583408631E+01  0.55896222296E+02  0.43803328807E+02  0.71121335812E+02  0.10000000000E+01 0.  0.
<mgrwt>
<rscale>  0 0.12500329E+03</rscale>
<asrwt>0</asrwt>
<pdfrwt beam="1">  1        4 0.19909502E-01 0.12500329E+03</pdfrwt>
<pdfrwt beam="2">  1       -4 0.12263164E-01 0.12500329E+03</pdfrwt>
<totfact> 0.19633528E+03</totfact>
</mgrwt>
</event>
<event>
 5    1  0.1422067E-002  0.1249999E+03  0.7818608E-02  0.1235069E+00
          4   -1    0    0  501    0  0.00000000000E+00  0.00000000000E+00  0.26367356329E+02  0.26397923778E+02  0.12700000000E+01 0.  1.
         -4   -1    0    0    0  501 -0.00000000000E+00 -0.00000000000E+00 -0.14802791431E+03  0.14803336217E+03  0.12700000000E+01 0.  1.
         25    2    1    2    0    0  0.00000000000E+00  0.00000000000E+00 -0.12166055799E+03  0.17443128595E+03  0.12499992860E+03 0.  0.
    9000005    1    3    3    0    0  0.12545280477E+02 -0.56735900112E+02 -0.92922593313E+02  0.10959906374E+03  0.10000000000E+01 0.  0.
    9000005    1    3    3    0    0 -0.12545280477E+02  0.56735900112E+02 -0.28737964672E+02  0.64832222214E+02  0.10000000000E+01 0.  0.
<mgrwt>
<rscale>  0 0.12499993E+03</rscale>
<asrwt>0</asrwt>
<pdfrwt beam="1">  1        4 0.65963414E-02 0.12499993E+03</pdfrwt>
<pdfrwt beam="2">  1       -4 0.37011478E-01 0.12499993E+03</pdfrwt>
<totfact> 0.17399039E+03</totfact>
</mgrwt>
</event>
<event>
 5    1  0.1422067E-002  0.1249994E+03  0.7818608E-02  0.1235070E+00
          4   -1    0    0  501    0  0.00000000000E+00  0.00000000000E+00  0.84547263617E+02  0.84556801531E+02  0.12700000000E+01 0.  1.
         -4   -1    0    0    0  501 -0.00000000000E+00 -0.00000000000E+00 -0.46180623712E+02  0.46198083363E+02  0.12700000000E+01 0.  1.
         25    2    1    2    0    0  0.00000000000E+00  0.00000000000E+00  0.38366639905E+02  0.13075488489E+03  0.12499936346E+03 0.  0.
    9000005    1    3    3    0    0 -0.48941132035E+02 -0.37976597056E+02  0.10573040816E+02  0.62850978679E+02  0.10000000000E+01 0.  0.
    9000005    1    3    3    0    0  0.48941132035E+02  0.37976597056E+02  0.27793599089E+02  0.67903906214E+02  0.10000000000E+01 0.  0.
<mgrwt>
<rscale>  0 0.12499936E+03</rscale>
<asrwt>0</asrwt>
<pdfrwt beam="1">  1        4 0.21140190E-01 0.12499936E+03</pdfrwt>
<pdfrwt beam="2">  1       -4 0.11548531E-01 0.12499936E+03</pdfrwt>
<totfact> 0.19524177E+03</totfact>
</mgrwt>
</event>
<event>
 5    1  0.1422067E-002  0.1249996E+03  0.7818608E-02  0.1235070E+00
         -4   -1    0    0    0  501 -0.00000000000E+00  0.00000000000E+00  0.25337224766E+03  0.25337543051E+03  0.12700000000E+01 0. -1.
          4   -1    0    0  501    0  0.00000000000E+00 -0.00000000000E+00 -0.15387495855E+02  0.15439816342E+02  0.12700000000E+01 0. -1.
         25    2    1    2    0    0  0.00000000000E+00  0.00000000000E+00  0.23798475180E+03  0.26881524685E+03  0.12499957938E+03 0.  0.
    9000005    1    3    3    0    0  0.55659121001E+01  0.60682904545E+02  0.14877774349E+03  0.16077689896E+03  0.10000000000E+01 0.  0.
    9000005    1    3    3    0    0 -0.55659121001E+01 -0.60682904545E+02  0.89207008315E+02  0.10803834789E+03  0.10000000000E+01 0.  0.
<mgrwt>
<rscale>  0 0.12499958E+03</rscale>
<asrwt>0</asrwt>
<pdfrwt beam="2">  1        4 0.38538119E-02 0.12499958E+03</pdfrwt>
<pdfrwt beam="1">  1       -4 0.63349999E-01 0.12499958E+03</pdfrwt>
<totfact> 0.13892527E+03</totfact>
</mgrwt>
</event>
<event>
 5    1  0.1422067E-002  0.1250009E+03  0.7818608E-02  0.1235068E+00
         -4   -1    0    0    0  501 -0.00000000000E+00  0.00000000000E+00  0.16626056390E+02  0.16674491029E+02  0.12700000000E+01 0. -1.
          4   -1    0    0  501    0  0.00000000000E+00 -0.00000000000E+00 -0.23455888088E+03  0.23456231901E+03  0.12700000000E+01 0. -1.
         25    2    1    2    0    0  0.00000000000E+00  0.00000000000E+00 -0.21793282449E+03  0.25123681004E+03  0.12500087491E+03 0.  0.
    9000005    1    3    3    0    0 -0.38127766381E+01 -0.36712267851E+02 -0.76122899076E+01  0.37699798860E+02  0.10000000000E+01 0.  0.
    9000005    1    3    3    0    0  0.38127766381E+01  0.36712267851E+02 -0.21032053458E+03  0.21353701118E+03  0.10000000000E+01 0.  0.
<mgrwt>
<rscale>  0 0.12500087E+03</rscale>
<asrwt>0</asrwt>
<pdfrwt beam="2">  1        4 0.58646194E-01 0.12500087E+03</pdfrwt>
<pdfrwt beam="1">  1       -4 0.41629989E-02 0.12500087E+03</pdfrwt>
<totfact> 0.14456644E+03</totfact>
</mgrwt>
</event>
<event>
 5    1  0.1422067E-002  0.1250003E+03  0.7818608E-02  0.1235069E+00
         -4   -1    0    0    0  501 -0.00000000000E+00  0.00000000000E+00  0.58818306104E+02  0.58832015374E+02  0.12700000000E+01 0.  1.
          4   -1    0    0  501    0  0.00000000000E+00 -0.00000000000E+00 -0.66384930395E+02  0.66397077372E+02  0.12700000000E+01 0.  1.
         25    2    1    2    0    0  0.00000000000E+00  0.00000000000E+00 -0.75666242901E+01  0.12522909275E+03  0.12500028747E+03 0.  0.
    9000005    1    3    3    0    0  0.38114057389E+01  0.46209250600E+02  0.38191426270E+02  0.60078337986E+02  0.10000000000E+01 0.  0.
    9000005    1    3    3    0    0 -0.38114057389E+01 -0.46209250600E+02 -0.45758050560E+02  0.65150754759E+02  0.10000000000E+01 0.  0.
<mgrwt>
<rscale>  0 0.12500029E+03</rscale>
<asrwt>0</asrwt>
<pdfrwt beam="2">  1        4 0.16599465E-01 0.12500029E+03</pdfrwt>
<pdfrwt beam="1">  1       -4 0.14707809E-01 0.12500029E+03</pdfrwt>
<totfact> 0.19822503E+03</totfact>
</mgrwt>
</event>
<event>
 4    1  0.1422067E-002  0.1255106E+03  0.7818608E-02  0.1234274E+00
         -4   -1    0    0    0  501 -0.00000000000E+00  0.00000000000E+00  0.56890178939E+02  0.56904352731E+02  0.12700000000E+01 0. -1.
          4   -1    0    0  501    0  0.00000000000E+00 -0.00000000000E+00 -0.69196420525E+02  0.69208074049E+02  0.12700000000E+01 0. -1.
    9000005    1    1    2    0    0  0.39267489919E+02 -0.34386167983E+02  0.28840322948E+02  0.59641500156E+02  0.10000000000E+01 0.  0.
    9000005    1    1    2    0    0 -0.39267489919E+02  0.34386167983E+02 -0.41146564535E+02  0.66470926623E+02  0.10000000000E+01 0.  0.
<mgrwt>
<rscale>  0 0.12551056E+03</rscale>
<asrwt>0</asrwt>
<pdfrwt beam="2">  1        4 0.17302333E-01 0.12551056E+03</pdfrwt>
<pdfrwt beam="1">  1       -4 0.14225773E-01 0.12551056E+03</pdfrwt>
<totfact> 0.19540492E+03</totfact>
</mgrwt>
</event>
<event>
 5    1  0.1422067E-002  0.1249979E+03  0.7818608E-02  0.1235073E+00
         -4   -1    0    0    0  501 -0.00000000000E+00  0.00000000000E+00  0.40813756320E+03  0.40813953912E+03  0.12700000000E+01 0.  1.
          4   -1    0    0  501    0  0.00000000000E+00 -0.00000000000E+00 -0.95264512431E+01  0.96107321931E+01  0.12700000000E+01 0.  1.
         25    2    1    2    0    0  0.00000000000E+00  0.00000000000E+00  0.39861111196E+03  0.41775027132E+03  0.12499788242E+03 0.  0.
    9000005    1    3    3    0    0  0.38338492453E+02  0.21624604810E+02  0.34755342660E+03  0.35033105469E+03  0.10000000000E+01 0.  0.
    9000005    1    3    3    0    0 -0.38338492453E+02 -0.21624604810E+02  0.51057685357E+02  0.67419216628E+02  0.10000000000E+01 0.  0.
<mgrwt>
<rscale>  0 0.12499788E+03</rscale>
<asrwt>0</asrwt>
<pdfrwt beam="2">  1        4 0.23923950E-02 0.12499788E+03</pdfrwt>
<pdfrwt beam="1">  1       -4 0.10204517E+00 0.12499788E+03</pdfrwt>
<totfact> 0.10211070E+03</totfact>
</mgrwt>
</event>
<event>
 5    1  0.1422067E-002  0.1250010E+03  0.7818608E-02  0.1235068E+00
          4   -1    0    0  501    0  0.00000000000E+00  0.00000000000E+00  0.18369124161E+02  0.18412974297E+02  0.12700000000E+01 0. -1.
         -4   -1    0    0    0  501 -0.00000000000E+00 -0.00000000000E+00 -0.21235707243E+03  0.21236087001E+03  0.12700000000E+01 0. -1.
         25    2    1    2    0    0  0.00000000000E+00  0.00000000000E+00 -0.19398794827E+03  0.23077384431E+03  0.12500097257E+03 0.  0.
    9000005    1    3    3    0    0  0.53156371424E+02  0.10514730338E+02 -0.39520293771E+02  0.67074682234E+02  0.10000000000E+01 0.  0.
    9000005    1    3    3    0    0 -0.53156371424E+02 -0.10514730338E+02 -0.15446765450E+03  0.16369916208E+03  0.10000000000E+01 0.  0.
<mgrwt>
<rscale>  0 0.12500097E+03</rscale>
<asrwt>0</asrwt>
<pdfrwt beam="1">  1        4 0.45982377E-02 0.12500097E+03</pdfrwt>
<pdfrwt beam="2">  1       -4 0.53095216E-01 0.12500097E+03</pdfrwt>
<totfact> 0.15159361E+03</totfact>
</mgrwt>
</event>
<event>
 5    1  0.1422067E-002  0.1250004E+03  0.7818608E-02  0.1235069E+00
         -4   -1    0    0    0  501 -0.00000000000E+00  0.00000000000E+00  0.28745659335E+02  0.28773700329E+02  0.12700000000E+01 0.  1.
          4   -1    0    0  501    0  0.00000000000E+00 -0.00000000000E+00 -0.13579377115E+03  0.13579970981E+03  0.12700000000E+01 0.  1.
         25    2    1    2    0    0  0.00000000000E+00  0.00000000000E+00 -0.10704811182E+03  0.16457341014E+03  0.12500043632E+03 0.  0.
    9000005    1    3    3    0    0 -0.61143216341E+02 -0.63193742350E+01 -0.38695694552E+02  0.72641476940E+02  0.10000000000E+01 0.  0.
    9000005    1    3    3    0    0  0.61143216341E+02  0.63193742350E+01 -0.68352417265E+02  0.91931933196E+02  0.10000000000E+01 0.  0.
<mgrwt>
<rscale>  0 0.12500044E+03</rscale>
<asrwt>0</asrwt>
<pdfrwt beam="2">  1        4 0.33952689E-01 0.12500044E+03</pdfrwt>
<pdfrwt beam="1">  1       -4 0.71906627E-02 0.12500044E+03</pdfrwt>
<totfact> 0.17844443E+03</totfact>
</mgrwt>
</event>
<event>
 5    1  0.1422067E-002  0.1250023E+03  0.7818608E-02  0.1235066E+00
          4   -1    0    0  501    0  0.00000000000E+00  0.00000000000E+00  0.77283707347E+03  0.77283811697E+03  0.12700000000E+01 0.  1.
         -4   -1    0    0    0  501 -0.00000000000E+00 -0.00000000000E+00 -0.49737801726E+01  0.51333604203E+01  0.12700000000E+01 0.  1.
         25    2    1    2    0    0  0.00000000000E+00  0.00000000000E+00  0.76786329330E+03  0.77797147739E+03  0.12500232969E+03 0.  0.
    9000005    1    3    3    0    0 -0.37944064806E+01  0.52689082459E+02  0.17612689365E+03  0.18388099303E+03  0.10000000000E+01 0.  0.
    9000005    1    3    3    0    0  0.37944064806E+01 -0.52689082459E+02  0.59173639965E+03  0.59409048435E+03  0.10000000000E+01 0.  0.
<mgrwt>
<rscale>  0 0.12500233E+03</rscale>
<asrwt>0</asrwt>
<pdfrwt beam="1">  1        4 0.19322936E+00 0.12500233E+03</pdfrwt>
<pdfrwt beam="2">  1       -4 0.12635229E-02 0.12500233E+03</pdfrwt>
<totfact> 0.54456386E+02</totfact>
</mgrwt>
</event>
<event>
 5    1  0.1422067E-002  0.1250008E+03  0.7818608E-02  0.1235068E+00
          4   -1    0    0  501    0  0.00000000000E+00  0.00000000000E+00  0.16131916994E+02  0.16181830733E+02  0.12700000000E+01 0. -1.
         -4   -1    0    0    0  501 -0.00000000000E+00 -0.00000000000E+00 -0.24172170573E+03  0.24172504198E+03  0.12700000000E+01 0. -1.
         25    2    1    2    0    0  0.00000000000E+00  0.00000000000E+00 -0.22558978873E+03  0.25790687271E+03  0.12500080884E+03 0.  0.
    9000005    1    3    3    0    0 -0.49404373680E+02 -0.34910353373E+02 -0.80448974131E+02  0.10066062959E+03  0.10000000000E+01 0.  0.
    9000005    1    3    3    0    0  0.49404373680E+02  0.34910353373E+02 -0.14514081460E+03  0.15724624312E+03  0.10000000000E+01 0.  0.
<mgrwt>
<rscale>  0 0.12500081E+03</rscale>
<asrwt>0</asrwt>
<pdfrwt beam="1">  1        4 0.40396363E-02 0.12500081E+03</pdfrwt>
<pdfrwt beam="2">  1       -4 0.60437071E-01 0.12500081E+03</pdfrwt>
<totfact> 0.14238348E+03</totfact>
</mgrwt>
</event>
<event>
 5    1  0.1422067E-002  0.1250008E+03  0.7818608E-02  0.1235068E+00
         -4   -1    0    0    0  501 -0.00000000000E+00  0.00000000000E+00  0.17181478731E+02  0.17228351963E+02  0.12700000000E+01 0. -1.
          4   -1    0    0  501    0  0.00000000000E+00 -0.00000000000E+00 -0.22699681433E+03  0.22700036700E+03  0.12700000000E+01 0. -1.
         25    2    1    2    0    0  0.00000000000E+00  0.00000000000E+00 -0.20981533560E+03  0.24422871896E+03  0.12500076844E+03 0.  0.
    9000005    1    3    3    0    0 -0.35130500357E+02  0.19119295837E+02 -0.11091888812E+02  0.41517821788E+02  0.10000000000E+01 0.  0.
    9000005    1    3    3    0    0  0.35130500357E+02 -0.19119295837E+02 -0.19872344679E+03  0.20271089717E+03  0.10000000000E+01 0.  0.
<mgrwt>
<rscale>  0 0.12500077E+03</rscale>
<asrwt>0</asrwt>
<pdfrwt beam="2">  1        4 0.56755497E-01 0.12500077E+03</pdfrwt>
<pdfrwt beam="1">  1       -4 0.43016736E-02 0.12500077E+03</pdfrwt>
<totfact> 0.14691612E+03</totfact>
</mgrwt>
</event>
<event>
 5    1  0.1422067E-002  0.1250030E+03  0.7818608E-02  0.1235065E+00
          4   -1    0    0  501    0  0.00000000000E+00  0.00000000000E+00  0.41780445164E+02  0.41799742800E+02  0.12700000000E+01 0. -1.
         -4   -1    0    0    0  501 -0.00000000000E+00 -0.00000000000E+00 -0.93454039756E+02  0.93462668733E+02  0.12700000000E+01 0. -1.
         25    2    1    2    0    0  0.00000000000E+00  0.00000000000E+00 -0.51673594591E+02  0.13526241153E+03  0.12500303835E+03 0.  0.
    9000005    1    3    3    0    0 -0.44164240547E+02  0.20975719715E+02 -0.67954032532E+02  0.83721033785E+02  0.10000000000E+01 0.  0.
    9000005    1    3    3    0    0  0.44164240547E+02 -0.20975719715E+02  0.16280437940E+02  0.51541377748E+02  0.10000000000E+01 0.  0.
<mgrwt>
<rscale>  0 0.12500304E+03</rscale>
<asrwt>0</asrwt>
<pdfrwt beam="1">  1        4 0.10448602E-01 0.12500304E+03</pdfrwt>
<pdfrwt beam="2">  1       -4 0.23367000E-01 0.12500304E+03</pdfrwt>
<totfact> 0.19284034E+03</totfact>
</mgrwt>
</event>
<event>
 5    1  0.1422067E-002  0.1250014E+03  0.7818608E-02  0.1235067E+00
          4   -1    0    0  501    0  0.00000000000E+00  0.00000000000E+00  0.24633344218E+02  0.24666060637E+02  0.12700000000E+01 0.  1.
         -4   -1    0    0    0  501 -0.00000000000E+00 -0.00000000000E+00 -0.15843882302E+03  0.15844391291E+03  0.12700000000E+01 0.  1.
         25    2    1    2    0    0  0.00000000000E+00  0.00000000000E+00 -0.13380547880E+03  0.18310997355E+03  0.12500142502E+03 0.  0.
    9000005    1    3    3    0    0  0.36813923867E+02 -0.23478629407E+02 -0.14112673850E+01  0.43697856984E+02  0.10000000000E+01 0.  0.
    9000005    1    3    3    0    0 -0.36813923867E+02  0.23478629407E+02 -0.13239421142E+03  0.13941211657E+03  0.10000000000E+01 0.  0.
<mgrwt>
<rscale>  0 0.12500143E+03</rscale>
<asrwt>0</asrwt>
<pdfrwt beam="1">  1        4 0.61630623E-02 0.12500143E+03</pdfrwt>
<pdfrwt beam="2">  1       -4 0.39614429E-01 0.12500143E+03</pdfrwt>
<totfact> 0.17020865E+03</totfact>
</mgrwt>
</event>
<event>
 5    1  0.1422067E-002  0.1249984E+03  0.7818608E-02  0.1235072E+00
          4   -1    0    0  501    0  0.00000000000E+00  0.00000000000E+00  0.91026582792E+02  0.91035441861E+02  0.12700000000E+01 0. -1.
         -4   -1    0    0    0  501 -0.00000000000E+00 -0.00000000000E+00 -0.42891849885E+02  0.42910647706E+02  0.12700000000E+01 0. -1.
         25    2    1    2    0    0  0.00000000000E+00  0.00000000000E+00  0.48134732907E+02  0.13394608957E+03  0.12499840958E+03 0.  0.
    9000005    1    3    3    0    0 -0.12116410794E+02 -0.39955623246E+02 -0.25757080290E+02  0.49068181387E+02  0.10000000000E+01 0.  0.
    9000005    1    3    3    0    0  0.12116410794E+02  0.39955623246E+02  0.73891813197E+02  0.84877908180E+02  0.10000000000E+01 0.  0.
<mgrwt>
<rscale>  0 0.12499841E+03</rscale>
<asrwt>0</asrwt>
<pdfrwt beam="1">  1        4 0.22760103E-01 0.12499841E+03</pdfrwt>
<pdfrwt beam="2">  1       -4 0.10726420E-01 0.12499841E+03</pdfrwt>
<totfact> 0.19355201E+03</totfact>
</mgrwt>
</event>
<event>
 5    1  0.1422067E-002  0.1250045E+03  0.7818608E-02  0.1235062E+00
          4   -1    0    0  501    0  0.00000000000E+00  0.00000000000E+00  0.74506936430E+01  0.75581569024E+01  0.12700000000E+01 0.  1.
         -4   -1    0    0    0  501 -0.00000000000E+00 -0.00000000000E+00 -0.52045565829E+03  0.52045720779E+03  0.12700000000E+01 0.  1.
         25    2    1    2    0    0  0.00000000000E+00  0.00000000000E+00 -0.51300496464E+03  0.52801536469E+03  0.12500452634E+03 0.  0.
    9000005    1    3    3    0    0 -0.63102280597E+01  0.58420097902E+02 -0.34638535584E+03  0.35133536906E+03  0.10000000000E+01 0.  0.
    9000005    1    3    3    0    0  0.63102280597E+01 -0.58420097902E+02 -0.16661960881E+03  0.17667999563E+03  0.10000000000E+01 0.  0.
<mgrwt>
<rscale>  0 0.12500453E+03</rscale>
<asrwt>0</asrwt>
<pdfrwt beam="1">  1        4 0.18763018E-02 0.12500453E+03</pdfrwt>
<pdfrwt beam="2">  1       -4 0.13012742E+00 0.12500453E+03</pdfrwt>
<totfact> 0.83308234E+02</totfact>
</mgrwt>
</event>
<event>
 5    1  0.1422067E-002  0.1250077E+03  0.7818608E-02  0.1235057E+00
          4   -1    0    0  501    0  0.00000000000E+00  0.00000000000E+00  0.16520746537E+03  0.16521234674E+03  0.12700000000E+01 0.  1.
         -4   -1    0    0    0  501 -0.00000000000E+00 -0.00000000000E+00 -0.23625144003E+02  0.23659254620E+02  0.12700000000E+01 0.  1.
         25    2    1    2    0    0  0.00000000000E+00  0.00000000000E+00  0.14158232137E+03  0.18887160136E+03  0.12500771206E+03 0.  0.
    9000005    1    3    3    0    0 -0.27251024431E+02  0.40541880290E+02  0.11896507618E+02  0.50287068750E+02  0.10000000000E+01 0.  0.
    9000005    1    3    3    0    0  0.27251024431E+02 -0.40541880290E+02  0.12968581375E+03  0.13858453261E+03  0.10000000000E+01 0.  0.
<mgrwt>
<rscale>  0 0.12500771E+03</rscale>
<asrwt>0</asrwt>
<pdfrwt beam="1">  1        4 0.41306739E-01 0.12500771E+03</pdfrwt>
<pdfrwt beam="2">  1       -4 0.59111601E-02 0.12500771E+03</pdfrwt>
<totfact> 0.16774561E+03</totfact>
</mgrwt>
</event>
<event>
 5    1  0.1422067E-002  0.1249965E+03  0.7818608E-02  0.1235075E+00
         -4   -1    0    0    0  501 -0.00000000000E+00  0.00000000000E+00  0.26718318232E+02  0.26748484614E+02  0.12700000000E+01 0.  1.
          4   -1    0    0  501    0  0.00000000000E+00 -0.00000000000E+00 -0.14607763951E+03  0.14608316010E+03  0.12700000000E+01 0.  1.
         25    2    1    2    0    0  0.00000000000E+00  0.00000000000E+00 -0.11935932128E+03  0.17283164471E+03  0.12499651930E+03 0.  0.
    9000005    1    3    3    0    0 -0.35963708811E+02  0.39099930109E+02 -0.14180079069E+02  0.54993340764E+02  0.10000000000E+01 0.  0.
    9000005    1    3    3    0    0  0.35963708811E+02 -0.39099930109E+02 -0.10517924221E+03  0.11783830395E+03  0.10000000000E+01 0.  0.
<mgrwt>
<rscale>  0 0.12499652E+03</rscale>
<asrwt>0</asrwt>
<pdfrwt beam="2">  1        4 0.36523869E-01 0.12499652E+03</pdfrwt>
<pdfrwt beam="1">  1       -4 0.66840408E-02 0.12499652E+03</pdfrwt>
<totfact> 0.17471490E+03</totfact>
</mgrwt>
</event>
<event>
 5    1  0.1422067E-002  0.1249999E+03  0.7818608E-02  0.1235070E+00
         -4   -1    0    0    0  501 -0.00000000000E+00  0.00000000000E+00  0.34781620281E+03  0.34781852141E+03  0.12700000000E+01 0.  1.
          4   -1    0    0  501    0  0.00000000000E+00 -0.00000000000E+00 -0.11192494634E+02  0.11264316940E+02  0.12700000000E+01 0.  1.
         25    2    1    2    0    0  0.00000000000E+00  0.00000000000E+00  0.33662370818E+03  0.35908283835E+03  0.12499985557E+03 0.  0.
    9000005    1    3    3    0    0  0.23675529031E+02 -0.53797434816E+01  0.33372775297E+03  0.33461124520E+03  0.10000000000E+01 0.  0.
    9000005    1    3    3    0    0 -0.23675529031E+02  0.53797434816E+01  0.28959552111E+01  0.24471593152E+02  0.10000000000E+01 0.  0.
<mgrwt>
<rscale>  0 0.12499986E+03</rscale>
<asrwt>0</asrwt>
<pdfrwt beam="2">  1        4 0.28073912E-02 0.12499986E+03</pdfrwt>
<pdfrwt beam="1">  1       -4 0.86963321E-01 0.12499986E+03</pdfrwt>
<totfact> 0.11463685E+03</totfact>
</mgrwt>
</event>
<event>
 5    1  0.1422067E-002  0.1250013E+03  0.7818608E-02  0.1235067E+00
         -4   -1    0    0    0  501 -0.00000000000E+00  0.00000000000E+00  0.96638392531E+03  0.96638475981E+03  0.12700000000E+01 0. -1.
          4   -1    0    0  501    0  0.00000000000E+00 -0.00000000000E+00 -0.39416043133E+01  0.41411525645E+01  0.12700000000E+01 0. -1.
         25    2    1    2    0    0  0.00000000000E+00  0.00000000000E+00  0.96244232100E+03  0.97052591238E+03  0.12500130139E+03 0.  0.
    9000005    1    3    3    0    0  0.53144135934E+02  0.32347841705E+02  0.52692364100E+03  0.53058477691E+03  0.10000000000E+01 0.  0.
    9000005    1    3    3    0    0 -0.53144135934E+02 -0.32347841705E+02  0.43551868000E+03  0.43994113547E+03  0.10000000000E+01 0.  0.
<mgrwt>
<rscale>  0 0.12500130E+03</rscale>
<asrwt>0</asrwt>
<pdfrwt beam="2">  1        4 0.10104486E-02 0.12500130E+03</pdfrwt>
<pdfrwt beam="1">  1       -4 0.24162110E+00 0.12500130E+03</pdfrwt>
<totfact> 0.39125756E+02</totfact>
</mgrwt>
</event>
<event>
 5    1  0.1422067E-002  0.1249984E+03  0.7818608E-02  0.1235072E+00
          4   -1    0    0  501    0  0.00000000000E+00  0.00000000000E+00  0.27336645385E+03  0.27336940391E+03  0.12700000000E+01 0. -1.
         -4   -1    0    0    0  501 -0.00000000000E+00 -0.00000000000E+00 -0.14257809503E+02  0.14314259737E+02  0.12700000000E+01 0. -1.
         25    2    1    2    0    0  0.00000000000E+00  0.00000000000E+00  0.25910864435E+03  0.28768366364E+03  0.12499840299E+03 0.  0.
    9000005    1    3    3    0    0  0.36373950285E+02  0.20194257598E+02  0.22237387069E+02  0.47184464423E+02  0.10000000000E+01 0.  0.
    9000005    1    3    3    0    0 -0.36373950285E+02 -0.20194257598E+02  0.23687125728E+03  0.24049919922E+03  0.10000000000E+01 0.  0.
<mgrwt>
<rscale>  0 0.12499840E+03</rscale>
<asrwt>0</asrwt>
<pdfrwt beam="1">  1        4 0.68349036E-01 0.12499840E+03</pdfrwt>
<pdfrwt beam="2">  1       -4 0.35718775E-02 0.12499840E+03</pdfrwt>
<totfact> 0.13323891E+03</totfact>
</mgrwt>
</event>
<event>
 5    1  0.1422067E-002  0.1249996E+03  0.7818608E-02  0.1235070E+00
         -4   -1    0    0    0  501 -0.00000000000E+00  0.00000000000E+00  0.19662748364E+03  0.19663158500E+03  0.12700000000E+01 0. -1.
          4   -1    0    0  501    0  0.00000000000E+00 -0.00000000000E+00 -0.19841524256E+02  0.19882127270E+02  0.12700000000E+01 0. -1.
         25    2    1    2    0    0  0.00000000000E+00  0.00000000000E+00  0.17678595938E+03  0.21651371227E+03  0.12499964867E+03 0.  0.
    9000005    1    3    3    0    0  0.11675527531E+02 -0.53867582927E+02  0.37385408055E+02  0.66608581797E+02  0.10000000000E+01 0.  0.
    9000005    1    3    3    0    0 -0.11675527531E+02  0.53867582927E+02  0.13940055133E+03  0.14990513048E+03  0.10000000000E+01 0.  0.
<mgrwt>
<rscale>  0 0.12499965E+03</rscale>
<asrwt>0</asrwt>
<pdfrwt beam="2">  1        4 0.49659692E-02 0.12499965E+03</pdfrwt>
<pdfrwt beam="1">  1       -4 0.49162458E-01 0.12499965E+03</pdfrwt>
<totfact> 0.15681614E+03</totfact>
</mgrwt>
</event>
<event>
 5    1  0.1422067E-002  0.1250046E+03  0.7818608E-02  0.1235062E+00
         -4   -1    0    0    0  501 -0.00000000000E+00  0.00000000000E+00  0.12970016258E+03  0.12970638024E+03  0.12700000000E+01 0. -1.
          4   -1    0    0  501    0  0.00000000000E+00 -0.00000000000E+00 -0.30099425095E+02  0.30126206051E+02  0.12700000000E+01 0. -1.
         25    2    1    2    0    0  0.00000000000E+00  0.00000000000E+00  0.99600737489E+02  0.15983258629E+03  0.12500459484E+03 0.  0.
    9000005    1    3    3    0    0  0.30107869825E+02 -0.46999756679E+02  0.13860718366E+02  0.57520261359E+02  0.10000000000E+01 0.  0.
    9000005    1    3    3    0    0 -0.30107869825E+02  0.46999756679E+02  0.85740019123E+02  0.10231232493E+03  0.10000000000E+01 0.  0.
<mgrwt>
<rscale>  0 0.12500459E+03</rscale>
<asrwt>0</asrwt>
<pdfrwt beam="2">  1        4 0.75289811E-02 0.12500459E+03</pdfrwt>
<pdfrwt beam="1">  1       -4 0.32429165E-01 0.12500459E+03</pdfrwt>
<totfact> 0.18063707E+03</totfact>
</mgrwt>
</event>
<event>
 5    1  0.1422067E-002  0.1249677E+03  0.7818608E-02  0.1235120E+00
         -4   -1    0    0    0  501 -0.00000000000E+00  0.00000000000E+00  0.28326688973E+02  0.28355144298E+02  0.12700000000E+01 0. -1.
          4   -1    0    0  501    0  0.00000000000E+00 -0.00000000000E+00 -0.13772817229E+03  0.13773402754E+03  0.12700000000E+01 0. -1.
         25    2    1    2    0    0  0.00000000000E+00  0.00000000000E+00 -0.10940148332E+03  0.16608917184E+03  0.12496770963E+03 0.  0.
    9000005    1    3    3    0    0 -0.45145153277E+02 -0.38446038680E+02 -0.28553451581E+02  0.65821594874E+02  0.10000000000E+01 0.  0.
    9000005    1    3    3    0    0  0.45145153277E+02  0.38446038680E+02 -0.80848031739E+02  0.10026757697E+03  0.10000000000E+01 0.  0.
<mgrwt>
<rscale>  0 0.12496771E+03</rscale>
<asrwt>0</asrwt>
<pdfrwt beam="2">  1        4 0.34436330E-01 0.12496771E+03</pdfrwt>
<pdfrwt beam="1">  1       -4 0.70859614E-02 0.12496771E+03</pdfrwt>
<totfact> 0.17788235E+03</totfact>
</mgrwt>
</event>
<event>
 5    1  0.1422067E-002  0.1249997E+03  0.7818608E-02  0.1235070E+00
         -4   -1    0    0    0  501 -0.00000000000E+00  0.00000000000E+00  0.92898911464E+01  0.93762987107E+01  0.12700000000E+01 0.  1.
          4   -1    0    0  501    0  0.00000000000E+00 -0.00000000000E+00 -0.41844831317E+03  0.41845024040E+03  0.12700000000E+01 0.  1.
         25    2    1    2    0    0  0.00000000000E+00  0.00000000000E+00 -0.40915842202E+03  0.42782653911E+03  0.12499973303E+03 0.  0.
    9000005    1    3    3    0    0 -0.89001957579E+01 -0.60490605028E+02 -0.24879682505E+03  0.25620145772E+03  0.10000000000E+01 0.  0.
    9000005    1    3    3    0    0  0.89001957579E+01  0.60490605028E+02 -0.16036159697E+03  0.17162508139E+03  0.10000000000E+01 0.  0.
<mgrwt>
<rscale>  0 0.12499973E+03</rscale>
<asrwt>0</asrwt>
<pdfrwt beam="2">  1        4 0.10462306E+00 0.12499973E+03</pdfrwt>
<pdfrwt beam="1">  1       -4 0.23335160E-02 0.12499973E+03</pdfrwt>
<totfact> 0.10013874E+03</totfact>
</mgrwt>
</event>
<event>
 5    1  0.1422067E-002  0.1250028E+03  0.7818608E-02  0.1235065E+00
          4   -1    0    0  501    0  0.00000000000E+00  0.00000000000E+00  0.51645561411E+01  0.53184151902E+01  0.12700000000E+01 0. -1.
         -4   -1    0    0    0  501 -0.00000000000E+00 -0.00000000000E+00 -0.74513567441E+03  0.74513675670E+03  0.12700000000E+01 0. -1.
         25    2    1    2    0    0  0.00000000000E+00  0.00000000000E+00 -0.73997111827E+03  0.75045517189E+03  0.12500283652E+03 0.  0.
    9000005    1    3    3    0    0  0.62159665358E+02 -0.25316270009E+01 -0.33436996959E+03  0.34010955543E+03  0.10000000000E+01 0.  0.
    9000005    1    3    3    0    0 -0.62159665358E+02  0.25316270009E+01 -0.40560114868E+03  0.41034561646E+03  0.10000000000E+01 0.  0.
<mgrwt>
<rscale>  0 0.12500284E+03</rscale>
<asrwt>0</asrwt>
<pdfrwt beam="1">  1        4 0.13105092E-02 0.12500284E+03</pdfrwt>
<pdfrwt beam="2">  1       -4 0.18630292E+00 0.12500284E+03</pdfrwt>
<totfact> 0.57023300E+02</totfact>
</mgrwt>
</event>
<event>
 5    1  0.1422067E-002  0.1250009E+03  0.7818608E-02  0.1235068E+00
          4   -1    0    0  501    0  0.00000000000E+00  0.00000000000E+00  0.25748490311E+02  0.25779791568E+02  0.12700000000E+01 0.  1.
         -4   -1    0    0    0  501 -0.00000000000E+00 -0.00000000000E+00 -0.15158400705E+03  0.15158932711E+03  0.12700000000E+01 0.  1.
         25    2    1    2    0    0  0.00000000000E+00  0.00000000000E+00 -0.12583551674E+03  0.17736911868E+03  0.12500090795E+03 0.  0.
    9000005    1    3    3    0    0  0.31605550783E+02  0.36117007227E+02 -0.61253400516E+01  0.48392859412E+02  0.10000000000E+01 0.  0.
    9000005    1    3    3    0    0 -0.31605550783E+02 -0.36117007227E+02 -0.11971017669E+03  0.12897625927E+03  0.10000000000E+01 0.  0.
<mgrwt>
<rscale>  0 0.12500091E+03</rscale>
<asrwt>0</asrwt>
<pdfrwt beam="1">  1        4 0.64417007E-02 0.12500091E+03</pdfrwt>
<pdfrwt beam="2">  1       -4 0.37900577E-01 0.12500091E+03</pdfrwt>
<totfact> 0.17269337E+03</totfact>
</mgrwt>
</event>
<event>
 4    1  0.1422067E-002  0.1248781E+03  0.7818608E-02  0.1235260E+00
         -4   -1    0    0    0  501 -0.00000000000E+00  0.00000000000E+00  0.91106627426E+01  0.91987540248E+01  0.12700000000E+01 0.  1.
          4   -1    0    0  501    0  0.00000000000E+00 -0.00000000000E+00 -0.42577234424E+03  0.42577423832E+03  0.12700000000E+01 0.  1.
    9000005    1    1    2    0    0 -0.16980615628E+02  0.31544098765E+02 -0.30236245710E+02  0.46889252805E+02  0.10000000000E+01 0.  0.
    9000005    1    1    2    0    0  0.16980615628E+02 -0.31544098765E+02 -0.38642543579E+03  0.38808373954E+03  0.10000000000E+01 0.  0.
<mgrwt>
<rscale>  0 0.12487813E+03</rscale>
<asrwt>0</asrwt>
<pdfrwt beam="2">  1        4 0.10645427E+00 0.12487813E+03</pdfrwt>
<pdfrwt beam="1">  1       -4 0.22889153E-02 0.12487813E+03</pdfrwt>
<totfact> 0.99053048E+02</totfact>
</mgrwt>
</event>
<event>
 5    1  0.1422067E-002  0.1250046E+03  0.7818608E-02  0.1235062E+00
         -4   -1    0    0    0  501 -0.00000000000E+00  0.00000000000E+00  0.21529138930E+03  0.21529513512E+03  0.12700000000E+01 0.  1.
          4   -1    0    0  501    0  0.00000000000E+00 -0.00000000000E+00 -0.18119207916E+02  0.18163661402E+02  0.12700000000E+01 0.  1.
         25    2    1    2    0    0  0.00000000000E+00  0.00000000000E+00  0.19717218138E+03  0.23345879652E+03  0.12500456217E+03 0.  0.
    9000005    1    3    3    0    0 -0.42011552337E+02 -0.34252446648E+02  0.40499923601E+02  0.67671592584E+02  0.10000000000E+01 0.  0.
    9000005    1    3    3    0    0  0.42011552337E+02  0.34252446648E+02  0.15667225778E+03  0.16578720394E+03  0.10000000000E+01 0.  0.
<mgrwt>
<rscale>  0 0.12500456E+03</rscale>
<asrwt>0</asrwt>
<pdfrwt beam="2">  1        4 0.45358269E-02 0.12500456E+03</pdfrwt>
<pdfrwt beam="1">  1       -4 0.53828873E-01 0.12500456E+03</pdfrwt>
<totfact> 0.15062920E+03</totfact>
</mgrwt>
</event>
<event>
 5    1  0.1422067E-002  0.1250016E+03  0.7818608E-02  0.1235067E+00
         -4   -1    0    0    0  501 -0.00000000000E+00  0.00000000000E+00  0.29624316374E+03  0.29624588598E+03  0.12700000000E+01 0. -1.
          4   -1    0    0  501    0  0.00000000000E+00 -0.00000000000E+00 -0.13152933753E+02  0.13214104824E+02  0.12700000000E+01 0. -1.
         25    2    1    2    0    0  0.00000000000E+00  0.00000000000E+00  0.28309022999E+03  0.30945999081E+03  0.12500163038E+03 0.  0.
    9000005    1    3    3    0    0  0.19171257973E+02 -0.35595475133E+02  0.23573896199E+02  0.46811361486E+02  0.10000000000E+01 0.  0.
    9000005    1    3    3    0    0 -0.19171257973E+02  0.35595475133E+02  0.25951633379E+03  0.26264862932E+03  0.10000000000E+01 0.  0.
<mgrwt>
<rscale>  0 0.12500163E+03</rscale>
<asrwt>0</asrwt>
<pdfrwt beam="2">  1        4 0.32962201E-02 0.12500163E+03</pdfrwt>
<pdfrwt beam="1">  1       -4 0.74068778E-01 0.12500163E+03</pdfrwt>
<totfact> 0.12709529E+03</totfact>
</mgrwt>
</event>
<event>
 5    1  0.1422067E-002  0.1250007E+03  0.7818608E-02  0.1235068E+00
         -4   -1    0    0    0  501 -0.00000000000E+00  0.00000000000E+00  0.15960774713E+03  0.15961279975E+03  0.12700000000E+01 0. -1.
          4   -1    0    0  501    0  0.00000000000E+00 -0.00000000000E+00 -0.24452433197E+02  0.24485391344E+02  0.12700000000E+01 0. -1.
         25    2    1    2    0    0  0.00000000000E+00  0.00000000000E+00  0.13515531393E+03  0.18409819109E+03  0.12500074031E+03 0.  0.
    9000005    1    3    3    0    0  0.54485897635E+02 -0.26799423545E+02  0.45813716643E+02  0.76071142860E+02  0.10000000000E+01 0.  0.
    9000005    1    3    3    0    0 -0.54485897635E+02  0.26799423545E+02  0.89341597287E+02  0.10802704823E+03  0.10000000000E+01 0.  0.
<mgrwt>
<rscale>  0 0.12500074E+03</rscale>
<asrwt>0</asrwt>
<pdfrwt beam="2">  1        4 0.61178598E-02 0.12500074E+03</pdfrwt>
<pdfrwt beam="1">  1       -4 0.39906687E-01 0.12500074E+03</pdfrwt>
<totfact> 0.16978930E+03</totfact>
</mgrwt>
</event>
<event>
 5    1  0.1422067E-002  0.1250001E+03  0.7818608E-02  0.1235069E+00
          4   -1    0    0  501    0  0.00000000000E+00  0.00000000000E+00  0.12444797091E+04  0.12444803571E+04  0.12700000000E+01 0.  1.
         -4   -1    0    0    0  501 -0.00000000000E+00 -0.00000000000E+00 -0.30097286639E+01  0.32667057765E+01  0.12700000000E+01 0.  1.
         25    2    1    2    0    0  0.00000000000E+00  0.00000000000E+00  0.12414699805E+04  0.12477470629E+04  0.12500008259E+03 0.  0.
    9000005    1    3    3    0    0  0.49437847651E+02  0.12051250912E+02  0.98283729246E+03  0.98415419365E+03  0.10000000000E+01 0.  0.
    9000005    1    3    3    0    0 -0.49437847651E+02 -0.12051250912E+02  0.25863268800E+03  0.26359286927E+03  0.10000000000E+01 0.  0.
<mgrwt>
<rscale>  0 0.12500008E+03</rscale>
<asrwt>0</asrwt>
<pdfrwt beam="1">  1        4 0.31115198E+00 0.12500008E+03</pdfrwt>
<pdfrwt beam="2">  1       -4 0.78463568E-03 0.12500008E+03</pdfrwt>
<totfact> 0.22785391E+02</totfact>
</mgrwt>
</event>
<event>
 5    1  0.1422067E-002  0.1250020E+03  0.7818608E-02  0.1235066E+00
          4   -1    0    0  501    0  0.00000000000E+00  0.00000000000E+00  0.90225190300E+01  0.91114625416E+01  0.12700000000E+01 0. -1.
         -4   -1    0    0    0  501 -0.00000000000E+00 -0.00000000000E+00 -0.43074468162E+03  0.43074655384E+03  0.12700000000E+01 0. -1.
         25    2    1    2    0    0  0.00000000000E+00  0.00000000000E+00 -0.42172216259E+03  0.43985801638E+03  0.12500196860E+03 0.  0.
    9000005    1    3    3    0    0 -0.22265329662E+02  0.58391990465E+02 -0.21065044591E+03  0.21972705755E+03  0.10000000000E+01 0.  0.
    9000005    1    3    3    0    0  0.22265329662E+02 -0.58391990465E+02 -0.21107171668E+03  0.22013095884E+03  0.10000000000E+01 0.  0.
<mgrwt>
<rscale>  0 0.12500197E+03</rscale>
<asrwt>0</asrwt>
<pdfrwt beam="1">  1        4 0.22669832E-02 0.12500197E+03</pdfrwt>
<pdfrwt beam="2">  1       -4 0.10769745E+00 0.12500197E+03</pdfrwt>
<totfact> 0.97862463E+02</totfact>
</mgrwt>
</event>
<event>
 5    1  0.1422067E-002  0.1249931E+03  0.7818608E-02  0.1235080E+00
         -4   -1    0    0    0  501 -0.00000000000E+00  0.00000000000E+00  0.16516727294E+03  0.16517215549E+03  0.12700000000E+01 0. -1.
          4   -1    0    0  501    0  0.00000000000E+00 -0.00000000000E+00 -0.23625358567E+02  0.23659468874E+02  0.12700000000E+01 0. -1.
         25    2    1    2    0    0  0.00000000000E+00  0.00000000000E+00  0.14154191437E+03  0.18883162436E+03  0.12499307515E+03 0.  0.
    9000005    1    3    3    0    0  0.17029880436E+02 -0.51519085059E+02  0.11759366310E+03  0.12951255751E+03  0.10000000000E+01 0.  0.
    9000005    1    3    3    0    0 -0.17029880436E+02  0.51519085059E+02  0.23948251271E+02  0.59319066850E+02  0.10000000000E+01 0.  0.
<mgrwt>
<rscale>  0 0.12499308E+03</rscale>
<asrwt>0</asrwt>
<pdfrwt beam="2">  1        4 0.59112138E-02 0.12499308E+03</pdfrwt>
<pdfrwt beam="1">  1       -4 0.41296692E-01 0.12499308E+03</pdfrwt>
<totfact> 0.16781920E+03</totfact>
</mgrwt>
</event>
<event>
 5    1  0.1422067E-002  0.1250092E+03  0.7818608E-02  0.1235055E+00
         -4   -1    0    0    0  501 -0.00000000000E+00  0.00000000000E+00  0.25812513056E+02  0.25843736770E+02  0.12700000000E+01 0.  1.
          4   -1    0    0  501    0  0.00000000000E+00 -0.00000000000E+00 -0.15122856727E+03  0.15123389983E+03  0.12700000000E+01 0.  1.
         25    2    1    2    0    0  0.00000000000E+00  0.00000000000E+00 -0.12541605422E+03  0.17707763660E+03  0.12500921058E+03 0.  0.
    9000005    1    3    3    0    0 -0.49253729496E+02 -0.27958861455E+01 -0.11705648659E+03  0.12703136582E+03  0.10000000000E+01 0.  0.
    9000005    1    3    3    0    0  0.49253729496E+02  0.27958861455E+01 -0.83595676230E+01  0.50046270784E+02  0.10000000000E+01 0.  0.
<mgrwt>
<rscale>  0 0.12500921E+03</rscale>
<asrwt>0</asrwt>
<pdfrwt beam="2">  1        4 0.37811709E-01 0.12500921E+03</pdfrwt>
<pdfrwt beam="1">  1       -4 0.64576982E-02 0.12500921E+03</pdfrwt>
<totfact> 0.17278770E+03</totfact>
</mgrwt>
</event>
<event>
 5    1  0.1422067E-002  0.1249989E+03  0.7818608E-02  0.1235071E+00
         -4   -1    0    0    0  501 -0.00000000000E+00  0.00000000000E+00  0.13012289562E+02  0.13074118694E+02  0.12700000000E+01 0.  1.
          4   -1    0    0  501    0  0.00000000000E+00 -0.00000000000E+00 -0.29941714681E+03  0.29941984019E+03  0.12700000000E+01 0.  1.
         25    2    1    2    0    0  0.00000000000E+00  0.00000000000E+00 -0.28640485725E+03  0.31249395889E+03  0.12499892835E+03 0.  0.
    9000005    1    3    3    0    0  0.37556015096E+02  0.22348322551E+02 -0.25487265461E+03  0.25859422240E+03  0.10000000000E+01 0.  0.
    9000005    1    3    3    0    0 -0.37556015096E+02 -0.22348322551E+02 -0.31532202640E+02  0.53899736494E+02  0.10000000000E+01 0.  0.
<mgrwt>
<rscale>  0 0.12499893E+03</rscale>
<asrwt>0</asrwt>
<pdfrwt beam="2">  1        4 0.74862330E-01 0.12499893E+03</pdfrwt>
<pdfrwt beam="1">  1       -4 0.32611387E-02 0.12499893E+03</pdfrwt>
<totfact> 0.12628288E+03</totfact>
</mgrwt>
</event>
<event>
 5    1  0.1422067E-002  0.1250085E+03  0.7818608E-02  0.1235056E+00
          4   -1    0    0  501    0  0.00000000000E+00  0.00000000000E+00  0.27262117598E+02  0.27291682908E+02  0.12700000000E+01 0. -1.
         -4   -1    0    0    0  501 -0.00000000000E+00 -0.00000000000E+00 -0.14319443514E+03  0.14320006688E+03  0.12700000000E+01 0. -1.
         25    2    1    2    0    0  0.00000000000E+00  0.00000000000E+00 -0.11593231754E+03  0.17049174979E+03  0.12500853769E+03 0.  0.
    9000005    1    3    3    0    0 -0.53118044932E+02 -0.20395542609E+02 -0.93222928957E+02  0.10922005008E+03  0.10000000000E+01 0.  0.
    9000005    1    3    3    0    0  0.53118044932E+02  0.20395542609E+02 -0.22709388586E+02  0.61271699713E+02  0.10000000000E+01 0.  0.
<mgrwt>
<rscale>  0 0.12500854E+03</rscale>
<asrwt>0</asrwt>
<pdfrwt beam="1">  1        4 0.68199294E-02 0.12500854E+03</pdfrwt>
<pdfrwt beam="2">  1       -4 0.35803006E-01 0.12500854E+03</pdfrwt>
<totfact> 0.17571408E+03</totfact>
</mgrwt>
</event>
<event>
 4    1  0.1422067E-002  0.1251500E+03  0.7818608E-02  0.1234835E+00
         -4   -1    0    0    0  501 -0.00000000000E+00  0.00000000000E+00  0.69486102610E+01  0.70637160588E+01  0.12700000000E+01 0.  1.
          4   -1    0    0  501    0  0.00000000000E+00 -0.00000000000E+00 -0.55876787339E+03  0.55876931665E+03  0.12700000000E+01 0.  1.
    9000005    1    1    2    0    0 -0.60855879181E+02 -0.18295905576E+01 -0.34109156663E+03  0.34648411544E+03  0.10000000000E+01 0.  0.
    9000005    1    1    2    0    0  0.60855879181E+02  0.18295905576E+01 -0.21072769650E+03  0.21934891727E+03  0.10000000000E+01 0.  0.
<mgrwt>
<rscale>  0 0.12515000E+03</rscale>
<asrwt>0</asrwt>
<pdfrwt beam="2">  1        4 0.13970639E+00 0.12515000E+03</pdfrwt>
<pdfrwt beam="1">  1       -4 0.17517231E-02 0.12515000E+03</pdfrwt>
<totfact> 0.77713018E+02</totfact>
</mgrwt>
</event>
<event>
 5    1  0.1422067E-002  0.1249941E+03  0.7818608E-02  0.1235079E+00
         -4   -1    0    0    0  501 -0.00000000000E+00  0.00000000000E+00  0.90395257553E+01  0.91283035598E+01  0.12700000000E+01 0.  1.
          4   -1    0    0  501    0  0.00000000000E+00 -0.00000000000E+00 -0.42988796136E+03  0.42988983731E+03  0.12700000000E+01 0.  1.
         25    2    1    2    0    0  0.00000000000E+00  0.00000000000E+00 -0.42084843560E+03  0.43901814087E+03  0.12499408891E+03 0.  0.
    9000005    1    3    3    0    0 -0.48252016884E+02 -0.39261393557E+02 -0.18959576570E+03  0.19954264839E+03  0.10000000000E+01 0.  0.
    9000005    1    3    3    0    0  0.48252016884E+02  0.39261393557E+02 -0.23125266991E+03  0.23947549247E+03  0.10000000000E+01 0.  0.
<mgrwt>
<rscale>  0 0.12499409E+03</rscale>
<asrwt>0</asrwt>
<pdfrwt beam="2">  1        4 0.10748325E+00 0.12499409E+03</pdfrwt>
<pdfrwt beam="1">  1       -4 0.22712146E-02 0.12499409E+03</pdfrwt>
<totfact> 0.98035833E+02</totfact>
</mgrwt>
</event>
<event>
 5    1  0.1422067E-002  0.1250218E+03  0.7818608E-02  0.1235035E+00
         -4   -1    0    0    0  501 -0.00000000000E+00  0.00000000000E+00  0.65860212982E+02  0.65872456718E+02  0.12700000000E+01 0. -1.
          4   -1    0    0  501    0  0.00000000000E+00 -0.00000000000E+00 -0.59307364999E+02  0.59320961246E+02  0.12700000000E+01 0. -1.
         25    2    1    2    0    0  0.00000000000E+00  0.00000000000E+00  0.65528479833E+01  0.12519341796E+03  0.12502180644E+03 0.  0.
    9000005    1    3    3    0    0 -0.50617445621E+02 -0.15426244360E+02 -0.30033604833E+02  0.60853202344E+02  0.10000000000E+01 0.  0.
    9000005    1    3    3    0    0  0.50617445621E+02  0.15426244360E+02  0.36586452816E+02  0.64340215619E+02  0.10000000000E+01 0.  0.
<mgrwt>
<rscale>  0 0.12502181E+03</rscale>
<asrwt>0</asrwt>
<pdfrwt beam="2">  1        4 0.14830071E-01 0.12502181E+03</pdfrwt>
<pdfrwt beam="1">  1       -4 0.16468283E-01 0.12502181E+03</pdfrwt>
<totfact> 0.19814458E+03</totfact>
</mgrwt>
</event>
<event>
 5    1  0.1422067E-002  0.1250026E+03  0.7818608E-02  0.1235065E+00
         -4   -1    0    0    0  501 -0.00000000000E+00  0.00000000000E+00  0.89657246232E+03  0.89657336180E+03  0.12700000000E+01 0.  1.
          4   -1    0    0  501    0  0.00000000000E+00 -0.00000000000E+00 -0.42635852009E+01  0.44487142822E+01  0.12700000000E+01 0.  1.
         25    2    1    2    0    0  0.00000000000E+00  0.00000000000E+00  0.89230887712E+03  0.90102207609E+03  0.12500259759E+03 0.  0.
    9000005    1    3    3    0    0  0.42453512735E+02  0.17940632004E+01  0.77645930415E+03  0.77762173993E+03  0.10000000000E+01 0.  0.
    9000005    1    3    3    0    0 -0.42453512735E+02 -0.17940632004E+01  0.11584957297E+03  0.12340033616E+03  0.10000000000E+01 0.  0.
<mgrwt>
<rscale>  0 0.12500260E+03</rscale>
<asrwt>0</asrwt>
<pdfrwt beam="2">  1        4 0.10891500E-02 0.12500260E+03</pdfrwt>
<pdfrwt beam="1">  1       -4 0.22416635E+00 0.12500260E+03</pdfrwt>
<totfact> 0.44194147E+02</totfact>
</mgrwt>
</event>
<event>
 5    1  0.1422067E-002  0.1249978E+03  0.7818608E-02  0.1235073E+00
          4   -1    0    0  501    0  0.00000000000E+00  0.00000000000E+00  0.82713633958E+02  0.82723383288E+02  0.12700000000E+01 0. -1.
         -4   -1    0    0    0  501 -0.00000000000E+00 -0.00000000000E+00 -0.47203430474E+02  0.47220511947E+02  0.12700000000E+01 0. -1.
         25    2    1    2    0    0  0.00000000000E+00  0.00000000000E+00  0.35510203485E+02  0.12994389523E+03  0.12499776541E+03 0.  0.
    9000005    1    3    3    0    0 -0.37513065949E+02  0.81415868931E+01 -0.33507333498E+02  0.50963290241E+02  0.10000000000E+01 0.  0.
    9000005    1    3    3    0    0  0.37513065949E+02 -0.81415868931E+01  0.69017536983E+02  0.78980604994E+02  0.10000000000E+01 0.  0.
<mgrwt>
<rscale>  0 0.12499777E+03</rscale>
<asrwt>0</asrwt>
<pdfrwt beam="1">  1        4 0.20681762E-01 0.12499777E+03</pdfrwt>
<pdfrwt beam="2">  1       -4 0.11804212E-01 0.12499777E+03</pdfrwt>
<totfact> 0.19568420E+03</totfact>
</mgrwt>
</event>
<event>
 5    1  0.1422067E-002  0.1250002E+03  0.7818608E-02  0.1235069E+00
         -4   -1    0    0    0  501 -0.00000000000E+00  0.00000000000E+00  0.58709357782E+02  0.58723092487E+02  0.12700000000E+01 0. -1.
          4   -1    0    0  501    0  0.00000000000E+00 -0.00000000000E+00 -0.66508026571E+02  0.66520151070E+02  0.12700000000E+01 0. -1.
         25    2    1    2    0    0  0.00000000000E+00  0.00000000000E+00 -0.77986687889E+01  0.12524324356E+03  0.12500020329E+03 0.  0.
    9000005    1    3    3    0    0 -0.50063084273E+02  0.21002135947E+02 -0.34908832589E+02  0.64552526783E+02  0.10000000000E+01 0.  0.
    9000005    1    3    3    0    0  0.50063084273E+02 -0.21002135947E+02  0.27110163800E+02  0.60690716774E+02  0.10000000000E+01 0.  0.
<mgrwt>
<rscale>  0 0.12500020E+03</rscale>
<asrwt>0</asrwt>
<pdfrwt beam="2">  1        4 0.16630239E-01 0.12500020E+03</pdfrwt>
<pdfrwt beam="1">  1       -4 0.14680572E-01 0.12500020E+03</pdfrwt>
<totfact> 0.19821775E+03</totfact>
</mgrwt>
</event>
<event>
 5    1  0.1422067E-002  0.1250000E+03  0.7818608E-02  0.1235069E+00
         -4   -1    0    0    0  501 -0.00000000000E+00  0.00000000000E+00  0.12253706814E+02  0.12319343761E+02  0.12700000000E+01 0. -1.
          4   -1    0    0  501    0  0.00000000000E+00 -0.00000000000E+00 -0.31786249451E+03  0.31786503160E+03  0.12700000000E+01 0. -1.
         25    2    1    2    0    0  0.00000000000E+00  0.00000000000E+00 -0.30560878770E+03  0.33018437537E+03  0.12499996247E+03 0.  0.
    9000005    1    3    3    0    0 -0.93858859649E+01 -0.55799123816E+02 -0.82737507875E+02  0.10024037252E+03  0.10000000000E+01 0.  0.
    9000005    1    3    3    0    0  0.93858859649E+01  0.55799123816E+02 -0.22287127982E+03  0.22994400284E+03  0.10000000000E+01 0.  0.
<mgrwt>
<rscale>  0 0.12499996E+03</rscale>
<asrwt>0</asrwt>
<pdfrwt beam="2">  1        4 0.79474118E-01 0.12499996E+03</pdfrwt>
<pdfrwt beam="1">  1       -4 0.30719495E-02 0.12499996E+03</pdfrwt>
<totfact> 0.12165362E+03</totfact>
</mgrwt>
</event>
<event>
 5    1  0.1422067E-002  0.1250129E+03  0.7818608E-02  0.1235049E+00
         -4   -1    0    0    0  501 -0.00000000000E+00  0.00000000000E+00  0.14741187965E+03  0.14741735028E+03  0.12700000000E+01 0. -1.
          4   -1    0    0  501    0  0.00000000000E+00 -0.00000000000E+00 -0.26483190300E+02  0.26513624205E+02  0.12700000000E+01 0. -1.
         25    2    1    2    0    0  0.00000000000E+00  0.00000000000E+00  0.12092868935E+03  0.17393097448E+03  0.12501294323E+03 0.  0.
    9000005    1    3    3    0    0  0.50504773496E+02  0.23438454626E+02  0.20965878795E+02  0.59503456831E+02  0.10000000000E+01 0.  0.
    9000005    1    3    3    0    0 -0.50504773496E+02 -0.23438454626E+02  0.99962810557E+02  0.11442751765E+03  0.10000000000E+01 0.  0.
<mgrwt>
<rscale>  0 0.12501294E+03</rscale>
<asrwt>0</asrwt>
<pdfrwt beam="2">  1        4 0.66252858E-02 0.12501294E+03</pdfrwt>
<pdfrwt beam="1">  1       -4 0.36857457E-01 0.12501294E+03</pdfrwt>
<totfact> 0.17415957E+03</totfact>
</mgrwt>
</event>
<event>
 5    1  0.1422067E-002  0.1249998E+03  0.7818608E-02  0.1235070E+00
         -4   -1    0    0    0  501 -0.00000000000E+00  0.00000000000E+00  0.74241542182E+03  0.74241650807E+03  0.12700000000E+01 0. -1.
          4   -1    0    0  501    0  0.00000000000E+00 -0.00000000000E+00 -0.51837828024E+01  0.53370876086E+01  0.12700000000E+01 0. -1.
         25    2    1    2    0    0  0.00000000000E+00  0.00000000000E+00  0.73723163901E+03  0.74775359568E+03  0.12499980113E+03 0.  0.
    9000005    1    3    3    0    0 -0.48921313921E+02  0.92324415213E+01  0.59456783761E+03  0.59664934967E+03  0.10000000000E+01 0.  0.
    9000005    1    3    3    0    0  0.48921313921E+02 -0.92324415213E+01  0.14266380140E+03  0.15110424601E+03  0.10000000000E+01 0.  0.
<mgrwt>
<rscale>  0 0.12499980E+03</rscale>
<asrwt>0</asrwt>
<pdfrwt beam="2">  1        4 0.13152444E-02 0.12499980E+03</pdfrwt>
<pdfrwt beam="1">  1       -4 0.18562318E+00 0.12499980E+03</pdfrwt>
<totfact> 0.57285495E+02</totfact>
</mgrwt>
</event>
<event>
 5    1  0.1422067E-002  0.1249996E+03  0.7818608E-02  0.1235070E+00
          4   -1    0    0  501    0  0.00000000000E+00  0.00000000000E+00  0.13486210918E+03  0.13486808886E+03  0.12700000000E+01 0.  1.
         -4   -1    0    0    0  501 -0.00000000000E+00 -0.00000000000E+00 -0.28944052235E+02  0.28971901211E+02  0.12700000000E+01 0.  1.
         25    2    1    2    0    0  0.00000000000E+00  0.00000000000E+00  0.10591805694E+03  0.16383999007E+03  0.12499963024E+03 0.  0.
    9000005    1    3    3    0    0 -0.17329439489E+01  0.47387430896E+02 -0.39008993443E+00  0.47431254167E+02  0.10000000000E+01 0.  0.
    9000005    1    3    3    0    0  0.17329439489E+01 -0.47387430896E+02  0.10630814688E+03  0.11640873590E+03  0.10000000000E+01 0.  0.
<mgrwt>
<rscale>  0 0.12499963E+03</rscale>
<asrwt>0</asrwt>
<pdfrwt beam="1">  1        4 0.33719756E-01 0.12499963E+03</pdfrwt>
<pdfrwt beam="2">  1       -4 0.72402417E-02 0.12499963E+03</pdfrwt>
<totfact> 0.17878676E+03</totfact>
</mgrwt>
</event>
<event>
 5    1  0.1422067E-002  0.1250023E+03  0.7818608E-02  0.1235066E+00
          4   -1    0    0  501    0  0.00000000000E+00  0.00000000000E+00  0.13271925300E+03  0.13272532923E+03  0.12700000000E+01 0.  1.
         -4   -1    0    0    0  501 -0.00000000000E+00 -0.00000000000E+00 -0.29413079485E+02  0.29440484792E+02  0.12700000000E+01 0.  1.
         25    2    1    2    0    0  0.00000000000E+00  0.00000000000E+00  0.10330617352E+03  0.16216581402E+03  0.12500234297E+03 0.  0.
    9000005    1    3    3    0    0  0.24296393509E+02  0.17866196849E+02  0.12266045416E+03  0.12631746808E+03  0.10000000000E+01 0.  0.
    9000005    1    3    3    0    0 -0.24296393509E+02 -0.17866196849E+02 -0.19354280640E+02  0.35848345938E+02  0.10000000000E+01 0.  0.
<mgrwt>
<rscale>  0 0.12500234E+03</rscale>
<asrwt>0</asrwt>
<pdfrwt beam="1">  1        4 0.33183998E-01 0.12500234E+03</pdfrwt>
<pdfrwt beam="2">  1       -4 0.73574552E-02 0.12500234E+03</pdfrwt>
<totfact> 0.17955324E+03</totfact>
</mgrwt>
</event>
<event>
 5    1  0.1422067E-002  0.1250001E+03  0.7818608E-02  0.1235069E+00
          4   -1    0    0  501    0  0.00000000000E+00  0.00000000000E+00  0.66813635088E+02  0.66825704139E+02  0.12700000000E+01 0. -1.
         -4   -1    0    0    0  501 -0.00000000000E+00 -0.00000000000E+00 -0.58440750674E+02  0.58454548492E+02  0.12700000000E+01 0. -1.
         25    2    1    2    0    0  0.00000000000E+00  0.00000000000E+00  0.83728844139E+01  0.12528025263E+03  0.12500014602E+03 0.  0.
    9000005    1    3    3    0    0  0.57250416337E+02  0.58724056113E+01 -0.20223088085E+02  0.61008758471E+02  0.10000000000E+01 0.  0.
    9000005    1    3    3    0    0 -0.57250416337E+02 -0.58724056113E+01  0.28595972499E+02  0.64271494160E+02  0.10000000000E+01 0.  0.
<mgrwt>
<rscale>  0 0.12500015E+03</rscale>
<asrwt>0</asrwt>
<pdfrwt beam="1">  1        4 0.16706642E-01 0.12500015E+03</pdfrwt>
<pdfrwt beam="2">  1       -4 0.14613421E-01 0.12500015E+03</pdfrwt>
<totfact> 0.19819797E+03</totfact>
</mgrwt>
</event>
<event>
 5    1  0.1422067E-002  0.1250021E+03  0.7818608E-02  0.1235066E+00
         -4   -1    0    0    0  501 -0.00000000000E+00  0.00000000000E+00  0.26589356796E+02  0.26619669322E+02  0.12700000000E+01 0.  1.
          4   -1    0    0  501    0  0.00000000000E+00 -0.00000000000E+00 -0.14679851535E+03  0.14680400883E+03  0.12700000000E+01 0.  1.
         25    2    1    2    0    0  0.00000000000E+00  0.00000000000E+00 -0.12020915855E+03  0.17342367815E+03  0.12500212136E+03 0.  0.
    9000005    1    3    3    0    0 -0.49436269758E+00 -0.60415167739E+02 -0.37943794539E+02  0.71351022638E+02  0.10000000000E+01 0.  0.
    9000005    1    3    3    0    0  0.49436269758E+00  0.60415167739E+02 -0.82265364010E+02  0.10207265551E+03  0.10000000000E+01 0.  0.
<mgrwt>
<rscale>  0 0.12500212E+03</rscale>
<asrwt>0</asrwt>
<pdfrwt beam="2">  1        4 0.36704102E-01 0.12500212E+03</pdfrwt>
<pdfrwt beam="1">  1       -4 0.66518154E-02 0.12500212E+03</pdfrwt>
<totfact> 0.17442863E+03</totfact>
</mgrwt>
</event>
<event>
 5    1  0.1422067E-002  0.1250012E+03  0.7818608E-02  0.1235067E+00
          4   -1    0    0  501    0  0.00000000000E+00  0.00000000000E+00  0.37677935196E+03  0.37678149233E+03  0.12700000000E+01 0.  1.
         -4   -1    0    0    0  501 -0.00000000000E+00 -0.00000000000E+00 -0.10326608537E+02  0.10404409829E+02  0.12700000000E+01 0.  1.
         25    2    1    2    0    0  0.00000000000E+00  0.00000000000E+00  0.36645274342E+03  0.38718590216E+03  0.12500123867E+03 0.  0.
    9000005    1    3    3    0    0 -0.32818635315E+02  0.31595142283E+02  0.50721410932E+02  0.68183409762E+02  0.10000000000E+01 0.  0.
    9000005    1    3    3    0    0  0.32818635315E+02 -0.31595142283E+02  0.31573133249E+03  0.31900249240E+03  0.10000000000E+01 0.  0.
<mgrwt>
<rscale>  0 0.12500124E+03</rscale>
<asrwt>0</asrwt>
<pdfrwt beam="1">  1        4 0.94204831E-01 0.12500124E+03</pdfrwt>
<pdfrwt beam="2">  1       -4 0.25916448E-02 0.12500124E+03</pdfrwt>
<totfact> 0.10837691E+03</totfact>
</mgrwt>
</event>
<event>
 5    1  0.1422067E-002  0.1249962E+03  0.7818608E-02  0.1235075E+00
          4   -1    0    0  501    0  0.00000000000E+00  0.00000000000E+00  0.78327316449E+01  0.79350226856E+01  0.12700000000E+01 0. -1.
         -4   -1    0    0    0  501 -0.00000000000E+00 -0.00000000000E+00 -0.49534005955E+03  0.49534168762E+03  0.12700000000E+01 0. -1.
         25    2    1    2    0    0  0.00000000000E+00  0.00000000000E+00 -0.48750732791E+03  0.50327671031E+03  0.12499620945E+03 0.  0.
    9000005    1    3    3    0    0 -0.57800170811E+02  0.23751464831E+02 -0.24316650130E+03  0.25106959032E+03  0.10000000000E+01 0.  0.
    9000005    1    3    3    0    0  0.57800170811E+02 -0.23751464831E+02 -0.24434082660E+03  0.25220711999E+03  0.10000000000E+01 0.  0.
<mgrwt>
<rscale>  0 0.12499621E+03</rscale>
<asrwt>0</asrwt>
<pdfrwt beam="1">  1        4 0.19711745E-02 0.12499621E+03</pdfrwt>
<pdfrwt beam="2">  1       -4 0.12384790E+00 0.12499621E+03</pdfrwt>
<totfact> 0.87095692E+02</totfact>
</mgrwt>
</event>
<event>
 5    1  0.1422067E-002  0.1249964E+03  0.7818608E-02  0.1235075E+00
         -4   -1    0    0    0  501 -0.00000000000E+00  0.00000000000E+00  0.48719144493E+02  0.48735694723E+02  0.12700000000E+01 0.  1.
          4   -1    0    0  501    0  0.00000000000E+00 -0.00000000000E+00 -0.80139195588E+02  0.80149258072E+02  0.12700000000E+01 0.  1.
         25    2    1    2    0    0  0.00000000000E+00  0.00000000000E+00 -0.31420051095E+02  0.12888495279E+03  0.12499644573E+03 0.  0.
    9000005    1    3    3    0    0  0.60080883924E+02  0.10130533727E+02 -0.13970027467E+01  0.60953194693E+02  0.10000000000E+01 0.  0.
    9000005    1    3    3    0    0 -0.60080883924E+02 -0.10130533727E+02 -0.30023048348E+02  0.67931758101E+02  0.10000000000E+01 0.  0.
<mgrwt>
<rscale>  0 0.12499645E+03</rscale>
<asrwt>0</asrwt>
<pdfrwt beam="2">  1        4 0.20038125E-01 0.12499645E+03</pdfrwt>
<pdfrwt beam="1">  1       -4 0.12183113E-01 0.12499645E+03</pdfrwt>
<totfact> 0.19626147E+03</totfact>
</mgrwt>
</event>
<event>
 5    1  0.1422067E-002  0.1249975E+03  0.7818608E-02  0.1235073E+00
          4   -1    0    0  501    0  0.00000000000E+00  0.00000000000E+00  0.28882274508E+03  0.28882553727E+03  0.12700000000E+01 0.  1.
         -4   -1    0    0    0  501 -0.00000000000E+00 -0.00000000000E+00 -0.13491508610E+02  0.13551151412E+02  0.12700000000E+01 0.  1.
         25    2    1    2    0    0  0.00000000000E+00  0.00000000000E+00  0.27533123647E+03  0.30237668868E+03  0.12499748829E+03 0.  0.
    9000005    1    3    3    0    0 -0.39025028368E+02  0.23112246036E+02  0.24165615136E+03  0.24587766113E+03  0.10000000000E+01 0.  0.
    9000005    1    3    3    0    0  0.39025028368E+02 -0.23112246036E+02  0.33675085116E+02  0.56499027545E+02  0.10000000000E+01 0.  0.
<mgrwt>
<rscale>  0 0.12499749E+03</rscale>
<asrwt>0</asrwt>
<pdfrwt beam="1">  1        4 0.72213488E-01 0.12499749E+03</pdfrwt>
<pdfrwt beam="2">  1       -4 0.33806816E-02 0.12499749E+03</pdfrwt>
<totfact> 0.12905448E+03</totfact>
</mgrwt>
</event>
<event>
 5    1  0.1422067E-002  0.1249977E+03  0.7818608E-02  0.1235073E+00
         -4   -1    0    0    0  501 -0.00000000000E+00  0.00000000000E+00  0.22225819019E+02  0.22262073827E+02  0.12700000000E+01 0. -1.
          4   -1    0    0  501    0  0.00000000000E+00 -0.00000000000E+00 -0.17556463096E+03  0.17556922436E+03  0.12700000000E+01 0. -1.
         25    2    1    2    0    0  0.00000000000E+00  0.00000000000E+00 -0.15333881194E+03  0.19783129819E+03  0.12499772517E+03 0.  0.
    9000005    1    3    3    0    0  0.43424591259E+02 -0.43759863680E+02 -0.92847378051E+02  0.11145517667E+03  0.10000000000E+01 0.  0.
    9000005    1    3    3    0    0 -0.43424591259E+02  0.43759863680E+02 -0.60491433888E+02  0.86376121521E+02  0.10000000000E+01 0.  0.
<mgrwt>
<rscale>  0 0.12499773E+03</rscale>
<asrwt>0</asrwt>
<pdfrwt beam="2">  1        4 0.43896260E-01 0.12499773E+03</pdfrwt>
<pdfrwt beam="1">  1       -4 0.55615613E-02 0.12499773E+03</pdfrwt>
<totfact> 0.16410113E+03</totfact>
</mgrwt>
</event>
<event>
 5    1  0.1422067E-002  0.1250008E+03  0.7818608E-02  0.1235068E+00
          4   -1    0    0  501    0  0.00000000000E+00  0.00000000000E+00  0.99115183135E+01  0.99925519903E+01  0.12700000000E+01 0.  1.
         -4   -1    0    0    0  501 -0.00000000000E+00 -0.00000000000E+00 -0.39243087473E+03  0.39243292974E+03  0.12700000000E+01 0.  1.
         25    2    1    2    0    0  0.00000000000E+00  0.00000000000E+00 -0.38251935642E+03  0.40242548173E+03  0.12500084124E+03 0.  0.
    9000005    1    3    3    0    0  0.44506789678E+02 -0.39236955274E+02 -0.12809825561E+03  0.14117562140E+03  0.10000000000E+01 0.  0.
    9000005    1    3    3    0    0 -0.44506789678E+02  0.39236955274E+02 -0.25442110081E+03  0.26124986033E+03  0.10000000000E+01 0.  0.
<mgrwt>
<rscale>  0 0.12500084E+03</rscale>
<asrwt>0</asrwt>
<pdfrwt beam="1">  1        4 0.24882670E-02 0.12500084E+03</pdfrwt>
<pdfrwt beam="2">  1       -4 0.98118053E-01 0.12500084E+03</pdfrwt>
<totfact> 0.10519211E+03</totfact>
</mgrwt>
</event>
<event>
 5    1  0.1422067E-002  0.1250004E+03  0.7818608E-02  0.1235069E+00
         -4   -1    0    0    0  501 -0.00000000000E+00  0.00000000000E+00  0.33158867263E+03  0.33159110470E+03  0.12700000000E+01 0. -1.
          4   -1    0    0  501    0  0.00000000000E+00 -0.00000000000E+00 -0.11743768722E+02  0.11812239575E+02  0.12700000000E+01 0. -1.
         25    2    1    2    0    0  0.00000000000E+00  0.00000000000E+00  0.31984490391E+03  0.34340334428E+03  0.12500037721E+03 0.  0.
    9000005    1    3    3    0    0  0.48704906078E+02  0.36583207307E+02  0.12158180779E+03  0.13599130457E+03  0.10000000000E+01 0.  0.
    9000005    1    3    3    0    0 -0.48704906078E+02 -0.36583207307E+02  0.19826309611E+03  0.20741203970E+03  0.10000000000E+01 0.  0.
<mgrwt>
<rscale>  0 0.12500038E+03</rscale>
<asrwt>0</asrwt>
<pdfrwt beam="2">  1        4 0.29448050E-02 0.12500038E+03</pdfrwt>
<pdfrwt beam="1">  1       -4 0.82906032E-01 0.12500038E+03</pdfrwt>
<totfact> 0.11836147E+03</totfact>
</mgrwt>
</event>
<event>
 5    1  0.1422067E-002  0.1250029E+03  0.7818608E-02  0.1235065E+00
         -4   -1    0    0    0  501 -0.00000000000E+00  0.00000000000E+00  0.11297336181E+03  0.11298050000E+03  0.12700000000E+01 0.  1.
          4   -1    0    0  501    0  0.00000000000E+00 -0.00000000000E+00 -0.34558458789E+02  0.34581786736E+02  0.12700000000E+01 0.  1.
         25    2    1    2    0    0  0.00000000000E+00  0.00000000000E+00  0.78414903026E+02  0.14756228673E+03  0.12500292576E+03 0.  0.
    9000005    1    3    3    0    0  0.20453343894E+02  0.38131329300E+02 -0.14019803310E+02  0.45496070550E+02  0.10000000000E+01 0.  0.
    9000005    1    3    3    0    0 -0.20453343894E+02 -0.38131329300E+02  0.92434706336E+02  0.10206621618E+03  0.10000000000E+01 0.  0.
<mgrwt>
<rscale>  0 0.12500293E+03</rscale>
<asrwt>0</asrwt>
<pdfrwt beam="2">  1        4 0.86434231E-02 0.12500293E+03</pdfrwt>
<pdfrwt beam="1">  1       -4 0.28247148E-01 0.12500293E+03</pdfrwt>
<totfact> 0.18658026E+03</totfact>
</mgrwt>
</event>
<event>
 5    1  0.1422067E-002  0.1249977E+03  0.7818608E-02  0.1235073E+00
          4   -1    0    0  501    0  0.00000000000E+00  0.00000000000E+00  0.11136540032E+03  0.11137264157E+03  0.12700000000E+01 0.  1.
         -4   -1    0    0    0  501 -0.00000000000E+00 -0.00000000000E+00 -0.35054813479E+02  0.35077811335E+02  0.12700000000E+01 0.  1.
         25    2    1    2    0    0  0.00000000000E+00  0.00000000000E+00  0.76310586844E+02  0.14645045290E+03  0.12499771794E+03 0.  0.
    9000005    1    3    3    0    0 -0.23316206828E+02  0.49177241079E+02  0.74135072188E+02  0.91973123625E+02  0.10000000000E+01 0.  0.
    9000005    1    3    3    0    0  0.23316206828E+02 -0.49177241079E+02  0.21755146563E+01  0.54477329276E+02  0.10000000000E+01 0.  0.
<mgrwt>
<rscale>  0 0.12499772E+03</rscale>
<asrwt>0</asrwt>
<pdfrwt beam="1">  1        4 0.27845130E-01 0.12499772E+03</pdfrwt>
<pdfrwt beam="2">  1       -4 0.87674833E-02 0.12499772E+03</pdfrwt>
<totfact> 0.18715695E+03</totfact>
</mgrwt>
</event>
<event>
 5    1  0.1422067E-002  0.1249991E+03  0.7818608E-02  0.1235071E+00
         -4   -1    0    0    0  501 -0.00000000000E+00  0.00000000000E+00  0.53908116740E+01  0.55383888004E+01  0.12700000000E+01 0. -1.
          4   -1    0    0  501    0  0.00000000000E+00 -0.00000000000E+00 -0.71466965300E+03  0.71467078142E+03  0.12700000000E+01 0. -1.
         25    2    1    2    0    0  0.00000000000E+00  0.00000000000E+00 -0.70927884132E+03  0.72020917022E+03  0.12499909648E+03 0.  0.
    9000005    1    3    3    0    0 -0.29143322484E+02 -0.29409909636E+02 -0.84949456776E+02  0.94507598831E+02  0.10000000000E+01 0.  0.
    9000005    1    3    3    0    0  0.29143322484E+02  0.29409909636E+02 -0.62432938455E+03  0.62570157139E+03  0.10000000000E+01 0.  0.
<mgrwt>
<rscale>  0 0.12499910E+03</rscale>
<asrwt>0</asrwt>
<pdfrwt beam="2">  1        4 0.17868568E+00 0.12499910E+03</pdfrwt>
<pdfrwt beam="1">  1       -4 0.13662935E-02 0.12499910E+03</pdfrwt>
<totfact> 0.59993696E+02</totfact>
</mgrwt>
</event>
<event>
 5    1  0.1422067E-002  0.1249998E+03  0.7818608E-02  0.1235070E+00
          4   -1    0    0  501    0  0.00000000000E+00  0.00000000000E+00  0.36677166543E+01  0.38813715947E+01  0.12700000000E+01 0. -1.
         -4   -1    0    0    0  501 -0.00000000000E+00 -0.00000000000E+00 -0.10346759369E+04  0.10346767164E+04  0.12700000000E+01 0. -1.
         25    2    1    2    0    0  0.00000000000E+00  0.00000000000E+00 -0.10310082203E+04  0.10385580879E+04  0.12499980706E+03 0.  0.
    9000005    1    3    3    0    0 -0.45610095084E+02 -0.25049818057E+02 -0.22799431638E+03  0.23385932194E+03  0.10000000000E+01 0.  0.
    9000005    1    3    3    0    0  0.45610095084E+02  0.25049818057E+02 -0.80301390390E+03  0.80469876601E+03  0.10000000000E+01 0.  0.
<mgrwt>
<rscale>  0 0.12499981E+03</rscale>
<asrwt>0</asrwt>
<pdfrwt beam="1">  1        4 0.94373700E-03 0.12499981E+03</pdfrwt>
<pdfrwt beam="2">  1       -4 0.25869482E+00 0.12499981E+03</pdfrwt>
<totfact> 0.34576783E+02</totfact>
</mgrwt>
</event>
<event>
 5    1  0.1422067E-002  0.1250009E+03  0.7818608E-02  0.1235068E+00
         -4   -1    0    0    0  501 -0.00000000000E+00  0.00000000000E+00  0.34370279235E+02  0.34393734818E+02  0.12700000000E+01 0.  1.
          4   -1    0    0  501    0  0.00000000000E+00 -0.00000000000E+00 -0.11358784376E+03  0.11359494333E+03  0.12700000000E+01 0.  1.
         25    2    1    2    0    0  0.00000000000E+00  0.00000000000E+00 -0.79217564524E+02  0.14798867815E+03  0.12500090532E+03 0.  0.
    9000005    1    3    3    0    0 -0.52565868985E+02 -0.19290819476E+02 -0.67568608370E+01  0.56408877551E+02  0.10000000000E+01 0.  0.
    9000005    1    3    3    0    0  0.52565868985E+02  0.19290819476E+02 -0.72460703687E+02  0.91579800595E+02  0.10000000000E+01 0.  0.
<mgrwt>
<rscale>  0 0.12500091E+03</rscale>
<asrwt>0</asrwt>
<pdfrwt beam="2">  1        4 0.28400779E-01 0.12500091E+03</pdfrwt>
<pdfrwt beam="1">  1       -4 0.85963895E-02 0.12500091E+03</pdfrwt>
<totfact> 0.18637729E+03</totfact>
</mgrwt>
</event>
<event>
 5    1  0.1422067E-002  0.1250023E+03  0.7818608E-02  0.1235066E+00
          4   -1    0    0  501    0  0.00000000000E+00  0.00000000000E+00  0.15303399763E+02  0.15356006783E+02  0.12700000000E+01 0.  1.
         -4   -1    0    0    0  501 -0.00000000000E+00 -0.00000000000E+00 -0.25477090105E+03  0.25477406643E+03  0.12700000000E+01 0.  1.
         25    2    1    2    0    0  0.00000000000E+00  0.00000000000E+00 -0.23946750129E+03  0.27013007321E+03  0.12500228909E+03 0.  0.
    9000005    1    3    3    0    0  0.56891566866E+02  0.23563102628E+02 -0.96708907656E+02  0.11465375269E+03  0.10000000000E+01 0.  0.
    9000005    1    3    3    0    0 -0.56891566866E+02 -0.23563102628E+02 -0.14275859363E+03  0.15547632052E+03  0.10000000000E+01 0.  0.
<mgrwt>
<rscale>  0 0.12500229E+03</rscale>
<asrwt>0</asrwt>
<pdfrwt beam="1">  1        4 0.38328223E-02 0.12500229E+03</pdfrwt>
<pdfrwt beam="2">  1       -4 0.63699683E-01 0.12500229E+03</pdfrwt>
<totfact> 0.13850815E+03</totfact>
</mgrwt>
</event>
<event>
 5    1  0.1422067E-002  0.1250094E+03  0.7818608E-02  0.1235055E+00
          4   -1    0    0  501    0  0.00000000000E+00  0.00000000000E+00  0.52426625325E+01  0.53942942476E+01  0.12700000000E+01 0. -1.
         -4   -1    0    0    0  501 -0.00000000000E+00 -0.00000000000E+00 -0.73442632482E+03  0.73442742289E+03  0.12700000000E+01 0. -1.
         25    2    1    2    0    0  0.00000000000E+00  0.00000000000E+00 -0.72918366229E+03  0.73982171714E+03  0.12500943883E+03 0.  0.
    9000005    1    3    3    0    0 -0.24709270624E+02  0.54374938564E+02 -0.25568254584E+03  0.26256760319E+03  0.10000000000E+01 0.  0.
    9000005    1    3    3    0    0  0.24709270624E+02 -0.54374938564E+02 -0.47350111645E+03  0.47725411395E+03  0.10000000000E+01 0.  0.
<mgrwt>
<rscale>  0 0.12500944E+03</rscale>
<asrwt>0</asrwt>
<pdfrwt beam="1">  1        4 0.13297594E-02 0.12500944E+03</pdfrwt>
<pdfrwt beam="2">  1       -4 0.18362533E+00 0.12500944E+03</pdfrwt>
<totfact> 0.58038917E+02</totfact>
</mgrwt>
</event>
<event>
 5    1  0.1422067E-002  0.1249700E+03  0.7818608E-02  0.1235116E+00
         -4   -1    0    0    0  501 -0.00000000000E+00  0.00000000000E+00  0.65701327909E+01  0.66917520045E+01  0.12700000000E+01 0. -1.
          4   -1    0    0  501    0  0.00000000000E+00 -0.00000000000E+00 -0.58868894183E+03  0.58869031174E+03  0.12700000000E+01 0. -1.
         25    2    1    2    0    0  0.00000000000E+00  0.00000000000E+00 -0.58211880904E+03  0.59538206374E+03  0.12496997235E+03 0.  0.
    9000005    1    3    3    0    0 -0.38326076343E+02  0.24891611953E+02 -0.88097004852E+02  0.99250001196E+02  0.10000000000E+01 0.  0.
    9000005    1    3    3    0    0  0.38326076343E+02 -0.24891611953E+02 -0.49402180419E+03  0.49613206255E+03  0.10000000000E+01 0.  0.
<mgrwt>
<rscale>  0 0.12496997E+03</rscale>
<asrwt>0</asrwt>
<pdfrwt beam="2">  1        4 0.14718743E+00 0.12496997E+03</pdfrwt>
<pdfrwt beam="1">  1       -4 0.16579088E-02 0.12496997E+03</pdfrwt>
<totfact> 0.74137462E+02</totfact>
</mgrwt>
</event>
<event>
 5    1  0.1422067E-002  0.1250006E+03  0.7818608E-02  0.1235068E+00
         -4   -1    0    0    0  501 -0.00000000000E+00  0.00000000000E+00  0.13970804670E+02  0.14028409858E+02  0.12700000000E+01 0. -1.
          4   -1    0    0  501    0  0.00000000000E+00 -0.00000000000E+00 -0.27896939196E+03  0.27897228276E+03  0.12700000000E+01 0. -1.
         25    2    1    2    0    0  0.00000000000E+00  0.00000000000E+00 -0.26499858729E+03  0.29300069262E+03  0.12500061844E+03 0.  0.
    9000005    1    3    3    0    0  0.18118562830E+02 -0.52465483420E+02 -0.65198521595E+02  0.85631515739E+02  0.10000000000E+01 0.  0.
    9000005    1    3    3    0    0 -0.18118562830E+02  0.52465483420E+02 -0.19980006569E+03  0.20736917688E+03  0.10000000000E+01 0.  0.
<mgrwt>
<rscale>  0 0.12500062E+03</rscale>
<asrwt>0</asrwt>
<pdfrwt beam="2">  1        4 0.69749892E-01 0.12500062E+03</pdfrwt>
<pdfrwt beam="1">  1       -4 0.35002641E-02 0.12500062E+03</pdfrwt>
<totfact> 0.13169332E+03</totfact>
</mgrwt>
</event>
<event>
 5    1  0.1422067E-002  0.1250003E+03  0.7818608E-02  0.1235069E+00
          4   -1    0    0  501    0  0.00000000000E+00  0.00000000000E+00  0.14632482519E+03  0.14633033645E+03  0.12700000000E+01 0. -1.
         -4   -1    0    0    0  501 -0.00000000000E+00 -0.00000000000E+00 -0.26674752015E+02  0.26704967610E+02  0.12700000000E+01 0. -1.
         25    2    1    2    0    0  0.00000000000E+00  0.00000000000E+00  0.11965007317E+03  0.17303530406E+03  0.12500030577E+03 0.  0.
    9000005    1    3    3    0    0 -0.45309139485E+02 -0.38237344623E+02  0.32478728729E+02  0.67608286952E+02  0.10000000000E+01 0.  0.
    9000005    1    3    3    0    0  0.45309139485E+02  0.38237344623E+02  0.87171344445E+02  0.10542701711E+03  0.10000000000E+01 0.  0.
<mgrwt>
<rscale>  0 0.12500031E+03</rscale>
<asrwt>0</asrwt>
<pdfrwt beam="1">  1        4 0.36585672E-01 0.12500031E+03</pdfrwt>
<pdfrwt beam="2">  1       -4 0.66731540E-02 0.12500031E+03</pdfrwt>
<totfact> 0.17460881E+03</totfact>
</mgrwt>
</event>
<event>
 5    1  0.1422067E-002  0.1250006E+03  0.7818608E-02  0.1235068E+00
         -4   -1    0    0    0  501 -0.00000000000E+00  0.00000000000E+00  0.38661214241E+02  0.38682068024E+02  0.12700000000E+01 0. -1.
          4   -1    0    0  501    0  0.00000000000E+00 -0.00000000000E+00 -0.10098690084E+03  0.10099488622E+03  0.12700000000E+01 0. -1.
         25    2    1    2    0    0  0.00000000000E+00  0.00000000000E+00 -0.62325686604E+02  0.13967695424E+03  0.12500064134E+03 0.  0.
    9000005    1    3    3    0    0 -0.51677309868E+01 -0.11944766668E+01  0.38414726768E+02  0.38792053963E+02  0.10000000000E+01 0.  0.
    9000005    1    3    3    0    0  0.51677309868E+01  0.11944766668E+01 -0.10074041337E+03  0.10088490028E+03  0.10000000000E+01 0.  0.
<mgrwt>
<rscale>  0 0.12500064E+03</rscale>
<asrwt>0</asrwt>
<pdfrwt beam="2">  1        4 0.25250330E-01 0.12500064E+03</pdfrwt>
<pdfrwt beam="1">  1       -4 0.96689087E-02 0.12500064E+03</pdfrwt>
<totfact> 0.19056596E+03</totfact>
</mgrwt>
</event>
<event>
 5    1  0.1422067E-002  0.1249968E+03  0.7818608E-02  0.1235074E+00
         -4   -1    0    0    0  501 -0.00000000000E+00  0.00000000000E+00  0.17627455126E+03  0.17627912617E+03  0.12700000000E+01 0. -1.
          4   -1    0    0  501    0  0.00000000000E+00 -0.00000000000E+00 -0.22135841142E+02  0.22172243077E+02  0.12700000000E+01 0. -1.
         25    2    1    2    0    0  0.00000000000E+00  0.00000000000E+00  0.15413871012E+03  0.19845136924E+03  0.12499681595E+03 0.  0.
    9000005    1    3    3    0    0 -0.56837615547E+02  0.11249101618E+02  0.11423512369E+03  0.12809262396E+03  0.10000000000E+01 0.  0.
    9000005    1    3    3    0    0  0.56837615547E+02 -0.11249101618E+02  0.39903586430E+02  0.70358745286E+02  0.10000000000E+01 0.  0.
<mgrwt>
<rscale>  0 0.12499682E+03</rscale>
<asrwt>0</asrwt>
<pdfrwt beam="2">  1        4 0.55390824E-02 0.12499682E+03</pdfrwt>
<pdfrwt beam="1">  1       -4 0.44073760E-01 0.12499682E+03</pdfrwt>
<totfact> 0.16385445E+03</totfact>
</mgrwt>
</event>
<event>
 5    1  0.1422067E-002  0.1249523E+03  0.7818608E-02  0.1235144E+00
         -4   -1    0    0    0  501 -0.00000000000E+00  0.00000000000E+00  0.88598450378E+02  0.88607552214E+02  0.12700000000E+01 0. -1.
          4   -1    0    0  501    0  0.00000000000E+00 -0.00000000000E+00 -0.44035200023E+02  0.44053509975E+02  0.12700000000E+01 0. -1.
         25    2    1    2    0    0  0.00000000000E+00  0.00000000000E+00  0.44563250355E+02  0.13266106219E+03  0.12495228745E+03 0.  0.
    9000005    1    3    3    0    0 -0.51521160325E+02  0.81559245514E+01  0.58772387808E+02  0.78588438305E+02  0.10000000000E+01 0.  0.
    9000005    1    3    3    0    0  0.51521160325E+02 -0.81559245514E+01 -0.14209137454E+02  0.54072623884E+02  0.10000000000E+01 0.  0.
<mgrwt>
<rscale>  0 0.12495229E+03</rscale>
<asrwt>0</asrwt>
<pdfrwt beam="2">  1        4 0.11012227E-01 0.12495229E+03</pdfrwt>
<pdfrwt beam="1">  1       -4 0.22153039E-01 0.12495229E+03</pdfrwt>
<totfact> 0.19444004E+03</totfact>
</mgrwt>
</event>
<event>
 5    1  0.1422067E-002  0.1249977E+03  0.7818608E-02  0.1235073E+00
         -4   -1    0    0    0  501 -0.00000000000E+00  0.00000000000E+00  0.31653256784E+03  0.31653511559E+03  0.12700000000E+01 0. -1.
          4   -1    0    0  501    0  0.00000000000E+00 -0.00000000000E+00 -0.12305022489E+02  0.12370387159E+02  0.12700000000E+01 0. -1.
         25    2    1    2    0    0  0.00000000000E+00  0.00000000000E+00  0.30422754535E+03  0.32890550275E+03  0.12499772154E+03 0.  0.
    9000005    1    3    3    0    0  0.29537215557E+02  0.26321851466E+02  0.24833726073E+02  0.46722595370E+02  0.10000000000E+01 0.  0.
    9000005    1    3    3    0    0 -0.29537215557E+02 -0.26321851466E+02  0.27939381927E+03  0.28218290738E+03  0.10000000000E+01 0.  0.
<mgrwt>
<rscale>  0 0.12499772E+03</rscale>
<asrwt>0</asrwt>
<pdfrwt beam="2">  1        4 0.30847447E-02 0.12499772E+03</pdfrwt>
<pdfrwt beam="1">  1       -4 0.79141630E-01 0.12499772E+03</pdfrwt>
<totfact> 0.12198558E+03</totfact>
</mgrwt>
</event>
<event>
 5    1  0.1422067E-002  0.1250016E+03  0.7818608E-02  0.1235067E+00
         -4   -1    0    0    0  501 -0.00000000000E+00  0.00000000000E+00  0.90473457530E+02  0.90482370755E+02  0.12700000000E+01 0. -1.
          4   -1    0    0  501    0  0.00000000000E+00 -0.00000000000E+00 -0.43156363126E+02  0.43175045782E+02  0.12700000000E+01 0. -1.
         25    2    1    2    0    0  0.00000000000E+00  0.00000000000E+00  0.47317094405E+02  0.13365741654E+03  0.12500159028E+03 0.  0.
    9000005    1    3    3    0    0 -0.55120961092E+02 -0.29080660637E+02  0.28598441444E+02  0.68577518385E+02  0.10000000000E+01 0.  0.
    9000005    1    3    3    0    0  0.55120961092E+02  0.29080660637E+02  0.18718652961E+02  0.65079898152E+02  0.10000000000E+01 0.  0.
<mgrwt>
<rscale>  0 0.12500159E+03</rscale>
<asrwt>0</asrwt>
<pdfrwt beam="2">  1        4 0.10792540E-01 0.12500159E+03</pdfrwt>
<pdfrwt beam="1">  1       -4 0.22621814E-01 0.12500159E+03</pdfrwt>
<totfact> 0.19368974E+03</totfact>
</mgrwt>
</event>
<event>
 5    1  0.1422067E-002  0.1250006E+03  0.7818608E-02  0.1235068E+00
         -4   -1    0    0    0  501 -0.00000000000E+00  0.00000000000E+00  0.57567829161E+03  0.57567969248E+03  0.12700000000E+01 0.  1.
          4   -1    0    0  501    0  0.00000000000E+00 -0.00000000000E+00 -0.67246907004E+01  0.68435637658E+01  0.12700000000E+01 0.  1.
         25    2    1    2    0    0  0.00000000000E+00  0.00000000000E+00  0.56895360091E+03  0.58252325625E+03  0.12500057630E+03 0.  0.
    9000005    1    3    3    0    0 -0.56831850887E+02 -0.14319038992E+02  0.38554886921E+03  0.38997926189E+03  0.10000000000E+01 0.  0.
    9000005    1    3    3    0    0  0.56831850887E+02  0.14319038992E+02  0.18340473170E+03  0.19254399436E+03  0.10000000000E+01 0.  0.
<mgrwt>
<rscale>  0 0.12500058E+03</rscale>
<asrwt>0</asrwt>
<pdfrwt beam="2">  1        4 0.16962072E-02 0.12500058E+03</pdfrwt>
<pdfrwt beam="1">  1       -4 0.14393459E+00 0.12500058E+03</pdfrwt>
<totfact> 0.75745831E+02</totfact>
</mgrwt>
</event>
<event>
 5    1  0.1422067E-002  0.1249963E+03  0.7818608E-02  0.1235075E+00
          4   -1    0    0  501    0  0.00000000000E+00  0.00000000000E+00  0.11844844147E+03  0.11845524972E+03  0.12700000000E+01 0. -1.
         -4   -1    0    0    0  501 -0.00000000000E+00 -0.00000000000E+00 -0.32956560269E+02  0.32981021282E+02  0.12700000000E+01 0. -1.
         25    2    1    2    0    0  0.00000000000E+00  0.00000000000E+00  0.85491881200E+02  0.15143627100E+03  0.12499632964E+03 0.  0.
    9000005    1    3    3    0    0  0.70309316818E+01  0.40829766064E+02 -0.13931155347E+02  0.43721629503E+02  0.10000000000E+01 0.  0.
    9000005    1    3    3    0    0 -0.70309316818E+01 -0.40829766064E+02  0.99423036548E+02  0.10771464150E+03  0.10000000000E+01 0.  0.
<mgrwt>
<rscale>  0 0.12499633E+03</rscale>
<asrwt>0</asrwt>
<pdfrwt beam="1">  1        4 0.29616019E-01 0.12499633E+03</pdfrwt>
<pdfrwt beam="2">  1       -4 0.82430488E-02 0.12499633E+03</pdfrwt>
<totfact> 0.18469961E+03</totfact>
</mgrwt>
</event>
<event>
 5    1  0.1422067E-002  0.1249859E+03  0.7818608E-02  0.1235091E+00
         -4   -1    0    0    0  501 -0.00000000000E+00  0.00000000000E+00  0.52306955264E+02  0.52322370636E+02  0.12700000000E+01 0.  1.
          4   -1    0    0  501    0  0.00000000000E+00 -0.00000000000E+00 -0.74630751570E+02  0.74641556655E+02  0.12700000000E+01 0.  1.
         25    2    1    2    0    0  0.00000000000E+00  0.00000000000E+00 -0.22323796306E+02  0.12696392729E+03  0.12498594702E+03 0.  0.
    9000005    1    3    3    0    0 -0.31197298662E+02 -0.45349129823E+02  0.18879016586E+02  0.58199933735E+02  0.10000000000E+01 0.  0.
    9000005    1    3    3    0    0  0.31197298662E+02  0.45349129823E+02 -0.41202812892E+02  0.68763993556E+02  0.10000000000E+01 0.  0.
<mgrwt>
<rscale>  0 0.12498595E+03</rscale>
<asrwt>0</asrwt>
<pdfrwt beam="2">  1        4 0.18660965E-01 0.12498595E+03</pdfrwt>
<pdfrwt beam="1">  1       -4 0.13080016E-01 0.12498595E+03</pdfrwt>
<totfact> 0.19735405E+03</totfact>
</mgrwt>
</event>
<event>
 5    1  0.1422067E-002  0.1250063E+03  0.7818608E-02  0.1235060E+00
          4   -1    0    0  501    0  0.00000000000E+00  0.00000000000E+00  0.11022391301E+03  0.11023122924E+03  0.12700000000E+01 0.  1.
         -4   -1    0    0    0  501 -0.00000000000E+00 -0.00000000000E+00 -0.35422899602E+02  0.35445658637E+02  0.12700000000E+01 0.  1.
         25    2    1    2    0    0  0.00000000000E+00  0.00000000000E+00  0.74801013410E+02  0.14567688788E+03  0.12500625606E+03 0.  0.
    9000005    1    3    3    0    0 -0.41882061223E+02  0.38051066629E+02  0.68313235384E+02  0.88711266773E+02  0.10000000000E+01 0.  0.
    9000005    1    3    3    0    0  0.41882061223E+02 -0.38051066629E+02  0.64877780264E+01  0.56965621103E+02  0.10000000000E+01 0.  0.
<mgrwt>
<rscale>  0 0.12500626E+03</rscale>
<asrwt>0</asrwt>
<pdfrwt beam="1">  1        4 0.27559737E-01 0.12500626E+03</pdfrwt>
<pdfrwt beam="2">  1       -4 0.88594844E-02 0.12500626E+03</pdfrwt>
<totfact> 0.18750680E+03</totfact>
</mgrwt>
</event>
<event>
 5    1  0.1422067E-002  0.1250024E+03  0.7818608E-02  0.1235066E+00
         -4   -1    0    0    0  501 -0.00000000000E+00  0.00000000000E+00  0.33571077662E+03  0.33571317883E+03  0.12700000000E+01 0. -1.
          4   -1    0    0  501    0  0.00000000000E+00 -0.00000000000E+00 -0.11599104339E+02  0.11668424121E+02  0.12700000000E+01 0. -1.
         25    2    1    2    0    0  0.00000000000E+00  0.00000000000E+00  0.32411167228E+03  0.34738160295E+03  0.12500240781E+03 0.  0.
    9000005    1    3    3    0    0 -0.54768459011E+02  0.14039784368E+02  0.88074884979E+02  0.10466558657E+03  0.10000000000E+01 0.  0.
    9000005    1    3    3    0    0  0.54768459011E+02 -0.14039784368E+02  0.23603678730E+03  0.24271601638E+03  0.10000000000E+01 0.  0.
<mgrwt>
<rscale>  0 0.12500241E+03</rscale>
<asrwt>0</asrwt>
<pdfrwt beam="2">  1        4 0.29087415E-02 0.12500241E+03</pdfrwt>
<pdfrwt beam="1">  1       -4 0.83936655E-01 0.12500241E+03</pdfrwt>
<totfact> 0.11739378E+03</totfact>
</mgrwt>
</event>
<event>
 5    1  0.1422067E-002  0.1249625E+03  0.7818608E-02  0.1235128E+00
         -4   -1    0    0    0  501 -0.00000000000E+00  0.00000000000E+00  0.23892790467E+02  0.23926519519E+02  0.12700000000E+01 0.  1.
          4   -1    0    0  501    0  0.00000000000E+00 -0.00000000000E+00 -0.16324124113E+03  0.16324618129E+03  0.12700000000E+01 0.  1.
         25    2    1    2    0    0  0.00000000000E+00  0.00000000000E+00 -0.13934845066E+03  0.18717270081E+03  0.12496251128E+03 0.  0.
    9000005    1    3    3    0    0  0.22493203175E+02 -0.91446985617E+01  0.16543310769E+02  0.29398143344E+02  0.10000000000E+01 0.  0.
    9000005    1    3    3    0    0 -0.22493203175E+02  0.91446985617E+01 -0.15589176143E+03  0.15777455746E+03  0.10000000000E+01 0.  0.
<mgrwt>
<rscale>  0 0.12496251E+03</rscale>
<asrwt>0</asrwt>
<pdfrwt beam="2">  1        4 0.40815141E-01 0.12496251E+03</pdfrwt>
<pdfrwt beam="1">  1       -4 0.59780317E-02 0.12496251E+03</pdfrwt>
<totfact> 0.16863523E+03</totfact>
</mgrwt>
</event>
<event>
 5    1  0.1422067E-002  0.1249860E+03  0.7818608E-02  0.1235091E+00
         -4   -1    0    0    0  501 -0.00000000000E+00  0.00000000000E+00  0.31812960977E+03  0.31813214473E+03  0.12700000000E+01 0.  1.
          4   -1    0    0  501    0  0.00000000000E+00 -0.00000000000E+00 -0.12240619075E+02  0.12306325826E+02  0.12700000000E+01 0.  1.
         25    2    1    2    0    0  0.00000000000E+00  0.00000000000E+00  0.30588899069E+03  0.33043847056E+03  0.12498603201E+03 0.  0.
    9000005    1    3    3    0    0 -0.21599338023E+02 -0.54209280129E+02  0.93874595493E+02  0.11053785385E+03  0.10000000000E+01 0.  0.
    9000005    1    3    3    0    0  0.21599338023E+02  0.54209280129E+02  0.21201439520E+03  0.21990061671E+03  0.10000000000E+01 0.  0.
<mgrwt>
<rscale>  0 0.12498603E+03</rscale>
<asrwt>0</asrwt>
<pdfrwt beam="2">  1        4 0.30686851E-02 0.12498603E+03</pdfrwt>
<pdfrwt beam="1">  1       -4 0.79540929E-01 0.12498603E+03</pdfrwt>
<totfact> 0.12162777E+03</totfact>
</mgrwt>
</event>
<event>
 5    1  0.1422067E-002  0.1249971E+03  0.7818608E-02  0.1235074E+00
         -4   -1    0    0    0  501 -0.00000000000E+00  0.00000000000E+00  0.11678824640E+03  0.11679515143E+03  0.12700000000E+01 0. -1.
          4   -1    0    0  501    0  0.00000000000E+00 -0.00000000000E+00 -0.33425779706E+02  0.33449897593E+02  0.12700000000E+01 0. -1.
         25    2    1    2    0    0  0.00000000000E+00  0.00000000000E+00  0.83362466691E+02  0.15024504902E+03  0.12499709557E+03 0.  0.
    9000005    1    3    3    0    0  0.33554433711E+02  0.51998009367E+02  0.52116781842E+02  0.80912619222E+02  0.10000000000E+01 0.  0.
    9000005    1    3    3    0    0 -0.33554433711E+02 -0.51998009367E+02  0.31245684849E+02  0.69332429797E+02  0.10000000000E+01 0.  0.
<mgrwt>
<rscale>  0 0.12499710E+03</rscale>
<asrwt>0</asrwt>
<pdfrwt beam="2">  1        4 0.83603229E-02 0.12499710E+03</pdfrwt>
<pdfrwt beam="1">  1       -4 0.29200939E-01 0.12499710E+03</pdfrwt>
<totfact> 0.18527991E+03</totfact>
</mgrwt>
</event>
<event>
 5    1  0.1422067E-002  0.1249984E+03  0.7818608E-02  0.1235072E+00
          4   -1    0    0  501    0  0.00000000000E+00  0.00000000000E+00  0.24524763362E+02  0.24557624436E+02  0.12700000000E+01 0. -1.
         -4   -1    0    0    0  501 -0.00000000000E+00 -0.00000000000E+00 -0.15913160615E+03  0.15913667389E+03  0.12700000000E+01 0. -1.
         25    2    1    2    0    0  0.00000000000E+00  0.00000000000E+00 -0.13460684279E+03  0.18369429832E+03  0.12499837243E+03 0.  0.
    9000005    1    3    3    0    0  0.38399163808E+02 -0.43663659822E+02 -0.10094790407E+03  0.11650103136E+03  0.10000000000E+01 0.  0.
    9000005    1    3    3    0    0 -0.38399163808E+02  0.43663659822E+02 -0.33658938712E+02  0.67193266965E+02  0.10000000000E+01 0.  0.
<mgrwt>
<rscale>  0 0.12499837E+03</rscale>
<asrwt>0</asrwt>
<pdfrwt beam="1">  1        4 0.61359324E-02 0.12499837E+03</pdfrwt>
<pdfrwt beam="2">  1       -4 0.39787640E-01 0.12499837E+03</pdfrwt>
<totfact> 0.16997104E+03</totfact>
</mgrwt>
</event>
<event>
 5    1  0.1422067E-002  0.1249983E+03  0.7818608E-02  0.1235072E+00
         -4   -1    0    0    0  501 -0.00000000000E+00  0.00000000000E+00  0.37069075417E+02  0.37090824368E+02  0.12700000000E+01 0.  1.
          4   -1    0    0  501    0  0.00000000000E+00 -0.00000000000E+00 -0.10531824779E+03  0.10532590478E+03  0.12700000000E+01 0.  1.
         25    2    1    2    0    0  0.00000000000E+00  0.00000000000E+00 -0.68249172373E+02  0.14241672915E+03  0.12499830083E+03 0.  0.
    9000005    1    3    3    0    0 -0.10043829323E+02  0.42021061594E+02 -0.85565869591E+02  0.95860138555E+02  0.10000000000E+01 0.  0.
    9000005    1    3    3    0    0  0.10043829323E+02 -0.42021061594E+02  0.17316697218E+02  0.46556590592E+02  0.10000000000E+01 0.  0.
<mgrwt>
<rscale>  0 0.12499830E+03</rscale>
<asrwt>0</asrwt>
<pdfrwt beam="2">  1        4 0.26333237E-01 0.12499830E+03</pdfrwt>
<pdfrwt beam="1">  1       -4 0.92709448E-02 0.12499830E+03</pdfrwt>
<totfact> 0.18918131E+03</totfact>
</mgrwt>
</event>
<event>
 5    1  0.1422067E-002  0.1250044E+03  0.7818608E-02  0.1235062E+00
          4   -1    0    0  501    0  0.00000000000E+00  0.00000000000E+00  0.99587880771E+02  0.99595978315E+02  0.12700000000E+01 0. -1.
         -4   -1    0    0    0  501 -0.00000000000E+00 -0.00000000000E+00 -0.39206924817E+02  0.39227488495E+02  0.12700000000E+01 0. -1.
         25    2    1    2    0    0  0.00000000000E+00  0.00000000000E+00  0.60380955954E+02  0.13882346681E+03  0.12500438030E+03 0.  0.
    9000005    1    3    3    0    0 -0.32303206454E+02 -0.24310658814E+00 -0.29220951933E+02  0.43570865035E+02  0.10000000000E+01 0.  0.
    9000005    1    3    3    0    0  0.32303206454E+02  0.24310658814E+00  0.89601907887E+02  0.95252601775E+02  0.10000000000E+01 0.  0.
<mgrwt>
<rscale>  0 0.12500438E+03</rscale>
<asrwt>0</asrwt>
<pdfrwt beam="1">  1        4 0.24900553E-01 0.12500438E+03</pdfrwt>
<pdfrwt beam="2">  1       -4 0.98053139E-02 0.12500438E+03</pdfrwt>
<totfact> 0.19098743E+03</totfact>
</mgrwt>
</event>
<event>
 5    1  0.1422067E-002  0.1249991E+03  0.7818608E-02  0.1235071E+00
          4   -1    0    0  501    0  0.00000000000E+00  0.00000000000E+00  0.71002203848E+03  0.71002317429E+03  0.12700000000E+01 0. -1.
         -4   -1    0    0    0  501 -0.00000000000E+00 -0.00000000000E+00 -0.54270622375E+01  0.55736796221E+01  0.12700000000E+01 0. -1.
         25    2    1    2    0    0  0.00000000000E+00  0.00000000000E+00  0.70459497624E+03  0.71559685391E+03  0.12499910712E+03 0.  0.
    9000005    1    3    3    0    0  0.43219047643E+01 -0.55032135331E+02  0.51998470082E+03  0.52290754811E+03  0.10000000000E+01 0.  0.
    9000005    1    3    3    0    0 -0.43219047643E+01  0.55032135331E+02  0.18461027542E+03  0.19268930580E+03  0.10000000000E+01 0.  0.
<mgrwt>
<rscale>  0 0.12499911E+03</rscale>
<asrwt>0</asrwt>
<pdfrwt beam="1">  1        4 0.17752400E+00 0.12499911E+03</pdfrwt>
<pdfrwt beam="2">  1       -4 0.13752345E-02 0.12499911E+03</pdfrwt>
<totfact> 0.60460153E+02</totfact>
</mgrwt>
</event>
<event>
 5    1  0.1422067E-002  0.1250032E+03  0.7818608E-02  0.1235064E+00
         -4   -1    0    0    0  501 -0.00000000000E+00  0.00000000000E+00  0.59447671102E+02  0.59461235267E+02  0.12700000000E+01 0.  1.
          4   -1    0    0  501    0  0.00000000000E+00 -0.00000000000E+00 -0.65685252827E+02  0.65697529169E+02  0.12700000000E+01 0.  1.
         25    2    1    2    0    0  0.00000000000E+00  0.00000000000E+00 -0.62375817248E+01  0.12515876444E+03  0.12500323552E+03 0.  0.
    9000005    1    3    3    0    0  0.58762838403E+02  0.17423946673E+02 -0.15331800298E+02  0.63188046300E+02  0.10000000000E+01 0.  0.
    9000005    1    3    3    0    0 -0.58762838403E+02 -0.17423946673E+02  0.90942185732E+01  0.61970718136E+02  0.10000000000E+01 0.  0.
<mgrwt>
<rscale>  0 0.12500324E+03</rscale>
<asrwt>0</asrwt>
<pdfrwt beam="2">  1        4 0.16424543E-01 0.12500324E+03</pdfrwt>
<pdfrwt beam="1">  1       -4 0.14865148E-01 0.12500324E+03</pdfrwt>
<totfact> 0.19824947E+03</totfact>
</mgrwt>
</event>
<event>
 5    1  0.1422067E-002  0.1250015E+03  0.7818608E-02  0.1235067E+00
          4   -1    0    0  501    0  0.00000000000E+00  0.00000000000E+00  0.89331853736E+03  0.89331944011E+03  0.12700000000E+01 0. -1.
         -4   -1    0    0    0  501 -0.00000000000E+00 -0.00000000000E+00 -0.42797111915E+01  0.44641715785E+01  0.12700000000E+01 0. -1.
         25    2    1    2    0    0  0.00000000000E+00  0.00000000000E+00  0.88903882617E+03  0.89778361169E+03  0.12500151597E+03 0.  0.
    9000005    1    3    3    0    0 -0.33111715020E+02 -0.52317296303E+02  0.38363603455E+03  0.38860145672E+03  0.10000000000E+01 0.  0.
    9000005    1    3    3    0    0  0.33111715020E+02  0.52317296303E+02  0.50540279162E+03  0.50918215497E+03  0.10000000000E+01 0.  0.
<mgrwt>
<rscale>  0 0.12500152E+03</rscale>
<asrwt>0</asrwt>
<pdfrwt beam="1">  1        4 0.22335280E+00 0.12500152E+03</pdfrwt>
<pdfrwt beam="2">  1       -4 0.10930982E-02 0.12500152E+03</pdfrwt>
<totfact> 0.44442586E+02</totfact>
</mgrwt>
</event>
<event>
 5    1  0.1422067E-002  0.1249955E+03  0.7818608E-02  0.1235076E+00
         -4   -1    0    0    0  501 -0.00000000000E+00  0.00000000000E+00  0.19992803531E+03  0.19993206897E+03  0.12700000000E+01 0. -1.
          4   -1    0    0  501    0  0.00000000000E+00 -0.00000000000E+00 -0.19512004953E+02  0.19553292237E+02  0.12700000000E+01 0. -1.
         25    2    1    2    0    0  0.00000000000E+00  0.00000000000E+00  0.18041603035E+03  0.21948536120E+03  0.12499551902E+03 0.  0.
    9000005    1    3    3    0    0 -0.46465534083E+02 -0.74205414122E+01  0.16241262009E+03  0.16909455774E+03  0.10000000000E+01 0.  0.
    9000005    1    3    3    0    0  0.46465534083E+02  0.74205414122E+01  0.18003410260E+02  0.50390803461E+02  0.10000000000E+01 0.  0.
<mgrwt>
<rscale>  0 0.12499552E+03</rscale>
<asrwt>0</asrwt>
<pdfrwt beam="2">  1        4 0.48836664E-02 0.12499552E+03</pdfrwt>
<pdfrwt beam="1">  1       -4 0.49987674E-01 0.12499552E+03</pdfrwt>
<totfact> 0.15572055E+03</totfact>
</mgrwt>
</event>
<event>
 5    1  0.1422067E-002  0.1250043E+03  0.7818608E-02  0.1235063E+00
         -4   -1    0    0    0  501 -0.00000000000E+00  0.00000000000E+00  0.35160903342E+02  0.35183831853E+02  0.12700000000E+01 0. -1.
          4   -1    0    0  501    0  0.00000000000E+00 -0.00000000000E+00 -0.11104130354E+03  0.11104856591E+03  0.12700000000E+01 0. -1.
         25    2    1    2    0    0  0.00000000000E+00  0.00000000000E+00 -0.75880400194E+02  0.14623239777E+03  0.12500431602E+03 0.  0.
    9000005    1    3    3    0    0  0.27121454683E+02 -0.72743527498E+01  0.27371216114E+02  0.39225922343E+02  0.10000000000E+01 0.  0.
    9000005    1    3    3    0    0 -0.27121454683E+02  0.72743527498E+01 -0.10325161631E+03  0.10700647542E+03  0.10000000000E+01 0.  0.
<mgrwt>
<rscale>  0 0.12500432E+03</rscale>
<asrwt>0</asrwt>
<pdfrwt beam="2">  1        4 0.27764099E-01 0.12500432E+03</pdfrwt>
<pdfrwt beam="1">  1       -4 0.87939999E-02 0.12500432E+03</pdfrwt>
<totfact> 0.18723717E+03</totfact>
</mgrwt>
</event>
<event>
 5    1  0.1422067E-002  0.1250024E+03  0.7818608E-02  0.1235066E+00
         -4   -1    0    0    0  501 -0.00000000000E+00  0.00000000000E+00  0.14990775248E+03  0.14991313203E+03  0.12700000000E+01 0.  1.
          4   -1    0    0  501    0  0.00000000000E+00 -0.00000000000E+00 -0.26037359535E+02  0.26068313938E+02  0.12700000000E+01 0.  1.
         25    2    1    2    0    0  0.00000000000E+00  0.00000000000E+00  0.12387039295E+03  0.17598144596E+03  0.12500238028E+03 0.  0.
    9000005    1    3    3    0    0 -0.42586363603E+02 -0.45735668688E+02  0.62246874893E+02  0.88210108203E+02  0.10000000000E+01 0.  0.
    9000005    1    3    3    0    0  0.42586363603E+02  0.45735668688E+02  0.61623518052E+02  0.87771337761E+02  0.10000000000E+01 0.  0.
<mgrwt>
<rscale>  0 0.12500238E+03</rscale>
<asrwt>0</asrwt>
<pdfrwt beam="2">  1        4 0.65138818E-02 0.12500238E+03</pdfrwt>
<pdfrwt beam="1">  1       -4 0.37481479E-01 0.12500238E+03</pdfrwt>
<totfact> 0.17329628E+03</totfact>
</mgrwt>
</event>
<event>
 5    1  0.1422067E-002  0.1250029E+03  0.7818608E-02  0.1235065E+00
         -4   -1    0    0    0  501 -0.00000000000E+00  0.00000000000E+00  0.21660402506E+03  0.21660774818E+03  0.12700000000E+01 0. -1.
          4   -1    0    0  501    0  0.00000000000E+00 -0.00000000000E+00 -0.18008663464E+02  0.18053389149E+02  0.12700000000E+01 0. -1.
         25    2    1    2    0    0  0.00000000000E+00  0.00000000000E+00  0.19859536159E+03  0.23466113733E+03  0.12500292687E+03 0.  0.
    9000005    1    3    3    0    0 -0.37997729953E+02 -0.45896982064E+02  0.13467130034E+03  0.14726751026E+03  0.10000000000E+01 0.  0.
    9000005    1    3    3    0    0  0.37997729953E+02  0.45896982064E+02  0.63924061257E+02  0.87393627066E+02  0.10000000000E+01 0.  0.
<mgrwt>
<rscale>  0 0.12500293E+03</rscale>
<asrwt>0</asrwt>
<pdfrwt beam="2">  1        4 0.45082219E-02 0.12500293E+03</pdfrwt>
<pdfrwt beam="1">  1       -4 0.54157063E-01 0.12500293E+03</pdfrwt>
<totfact> 0.15021164E+03</totfact>
</mgrwt>
</event>
<event>
 4    1  0.1422067E-002  0.1248235E+03  0.7818608E-02  0.1235345E+00
         -4   -1    0    0    0  501 -0.00000000000E+00  0.00000000000E+00  0.16547953283E+03  0.16548440617E+03  0.12700000000E+01 0. -1.
          4   -1    0    0  501    0  0.00000000000E+00 -0.00000000000E+00 -0.23516655758E+02  0.23550923507E+02  0.12700000000E+01 0. -1.
    9000005    1    1    2    0    0 -0.50355549862E+02 -0.76286153941E-01  0.12680049630E+03  0.13643699309E+03  0.10000000000E+01 0.  0.
    9000005    1    1    2    0    0  0.50355549862E+02  0.76286153941E-01  0.15162380777E+02  0.52598336593E+02  0.10000000000E+01 0.  0.
<mgrwt>
<rscale>  0 0.12482346E+03</rscale>
<asrwt>0</asrwt>
<pdfrwt beam="2">  1        4 0.58840566E-02 0.12482346E+03</pdfrwt>
<pdfrwt beam="1">  1       -4 0.41374776E-01 0.12482346E+03</pdfrwt>
<totfact> 0.16839431E+03</totfact>
</mgrwt>
</event>
<event>
 5    1  0.1422067E-002  0.1250006E+03  0.7818608E-02  0.1235068E+00
         -4   -1    0    0    0  501 -0.00000000000E+00  0.00000000000E+00  0.16228473711E+02  0.16278091381E+02  0.12700000000E+01 0.  1.
          4   -1    0    0  501    0  0.00000000000E+00 -0.00000000000E+00 -0.24028697082E+03  0.24029032699E+03  0.12700000000E+01 0.  1.
         25    2    1    2    0    0  0.00000000000E+00  0.00000000000E+00 -0.22405849711E+03  0.25656841837E+03  0.12500057272E+03 0.  0.
    9000005    1    3    3    0    0  0.51780465196E+02  0.34028731716E+02 -0.12871862084E+03  0.14285886220E+03  0.10000000000E+01 0.  0.
    9000005    1    3    3    0    0 -0.51780465196E+02 -0.34028731716E+02 -0.95339876272E+02  0.11370955618E+03  0.10000000000E+01 0.  0.
<mgrwt>
<rscale>  0 0.12500057E+03</rscale>
<asrwt>0</asrwt>
<pdfrwt beam="2">  1        4 0.60078353E-01 0.12500057E+03</pdfrwt>
<pdfrwt beam="1">  1       -4 0.40637409E-02 0.12500057E+03</pdfrwt>
<totfact> 0.14281823E+03</totfact>
</mgrwt>
</event>
<event>
 5    1  0.1422067E-002  0.1249985E+03  0.7818608E-02  0.1235072E+00
          4   -1    0    0  501    0  0.00000000000E+00  0.00000000000E+00  0.52351800042E+01  0.53870223385E+01  0.12700000000E+01 0. -1.
         -4   -1    0    0    0  501 -0.00000000000E+00 -0.00000000000E+00 -0.73531743748E+03  0.73531853422E+03  0.12700000000E+01 0. -1.
         25    2    1    2    0    0  0.00000000000E+00  0.00000000000E+00 -0.73008225748E+03  0.74070555656E+03  0.12499847531E+03 0.  0.
    9000005    1    3    3    0    0 -0.16274467556E+02 -0.48590634334E+02 -0.57698361968E+03  0.57925556140E+03  0.10000000000E+01 0.  0.
    9000005    1    3    3    0    0  0.16274467556E+02  0.48590634334E+02 -0.15309863780E+03  0.16144999515E+03  0.10000000000E+01 0.  0.
<mgrwt>
<rscale>  0 0.12499848E+03</rscale>
<asrwt>0</asrwt>
<pdfrwt beam="1">  1        4 0.13279149E-02 0.12499848E+03</pdfrwt>
<pdfrwt beam="2">  1       -4 0.18384813E+00 0.12499848E+03</pdfrwt>
<totfact> 0.57967412E+02</totfact>
</mgrwt>
</event>
<event>
 5    1  0.1422067E-002  0.1249884E+03  0.7818608E-02  0.1235087E+00
         -4   -1    0    0    0  501 -0.00000000000E+00  0.00000000000E+00  0.91719928514E+02  0.91728720620E+02  0.12700000000E+01 0. -1.
          4   -1    0    0  501    0  0.00000000000E+00 -0.00000000000E+00 -0.42560683209E+02  0.42579627232E+02  0.12700000000E+01 0. -1.
         25    2    1    2    0    0  0.00000000000E+00  0.00000000000E+00  0.49159245305E+02  0.13430834785E+03  0.12498840308E+03 0.  0.
    9000005    1    3    3    0    0  0.56368298646E+02  0.31543949425E+01  0.53356944759E+02  0.77687185904E+02  0.10000000000E+01 0.  0.
    9000005    1    3    3    0    0 -0.56368298646E+02 -0.31543949425E+01 -0.41976994531E+01  0.56621161948E+02  0.10000000000E+01 0.  0.
<mgrwt>
<rscale>  0 0.12498840E+03</rscale>
<asrwt>0</asrwt>
<pdfrwt beam="2">  1        4 0.10643638E-01 0.12498840E+03</pdfrwt>
<pdfrwt beam="1">  1       -4 0.22933449E-01 0.12498840E+03</pdfrwt>
<totfact> 0.19340659E+03</totfact>
</mgrwt>
</event>
<event>
 5    1  0.1422067E-002  0.1249964E+03  0.7818608E-02  0.1235075E+00
         -4   -1    0    0    0  501 -0.00000000000E+00  0.00000000000E+00  0.10143293893E+03  0.10144088919E+03  0.12700000000E+01 0.  1.
          4   -1    0    0  501    0  0.00000000000E+00 -0.00000000000E+00 -0.38488502870E+02  0.38509450181E+02  0.12700000000E+01 0.  1.
         25    2    1    2    0    0  0.00000000000E+00  0.00000000000E+00  0.62944436061E+02  0.13995033937E+03  0.12499638179E+03 0.  0.
    9000005    1    3    3    0    0 -0.17855702606E+02 -0.45092171992E+02  0.75593425419E+02  0.89819241019E+02  0.10000000000E+01 0.  0.
    9000005    1    3    3    0    0  0.17855702606E+02  0.45092171992E+02 -0.12648989359E+02  0.50131098355E+02  0.10000000000E+01 0.  0.
<mgrwt>
<rscale>  0 0.12499638E+03</rscale>
<asrwt>0</asrwt>
<pdfrwt beam="2">  1        4 0.96257379E-02 0.12499638E+03</pdfrwt>
<pdfrwt beam="1">  1       -4 0.25361847E-01 0.12499638E+03</pdfrwt>
<totfact> 0.19044490E+03</totfact>
</mgrwt>
</event>
<event>
 5    1  0.1422067E-002  0.1249999E+03  0.7818608E-02  0.1235069E+00
         -4   -1    0    0    0  501 -0.00000000000E+00  0.00000000000E+00  0.41136876152E+03  0.41137072193E+03  0.12700000000E+01 0. -1.
          4   -1    0    0  501    0  0.00000000000E+00 -0.00000000000E+00 -0.94512616850E+01  0.95362071831E+01  0.12700000000E+01 0. -1.
         25    2    1    2    0    0  0.00000000000E+00  0.00000000000E+00  0.40191749984E+03  0.42090692911E+03  0.12499986518E+03 0.  0.
    9000005    1    3    3    0    0  0.13378037293E+02  0.59663927329E+02  0.24440624032E+03  0.25194079942E+03  0.10000000000E+01 0.  0.
    9000005    1    3    3    0    0 -0.13378037293E+02 -0.59663927329E+02  0.15751125952E+03  0.16896612969E+03  0.10000000000E+01 0.  0.
<mgrwt>
<rscale>  0 0.12499987E+03</rscale>
<asrwt>0</asrwt>
<pdfrwt beam="2">  1        4 0.23736789E-02 0.12499987E+03</pdfrwt>
<pdfrwt beam="1">  1       -4 0.10285304E+00 0.12499987E+03</pdfrwt>
<totfact> 0.10148321E+03</totfact>
</mgrwt>
</event>
<event>
 5    1  0.1422067E-002  0.1249981E+03  0.7818608E-02  0.1235072E+00
         -4   -1    0    0    0  501 -0.00000000000E+00  0.00000000000E+00  0.42559579509E+03  0.42559768996E+03  0.12700000000E+01 0.  1.
          4   -1    0    0  501    0  0.00000000000E+00 -0.00000000000E+00 -0.91321774948E+01  0.92200632208E+01  0.12700000000E+01 0.  1.
         25    2    1    2    0    0  0.00000000000E+00  0.00000000000E+00  0.41646361759E+03  0.43481775318E+03  0.12499813478E+03 0.  0.
    9000005    1    3    3    0    0  0.54993866384E+02  0.13812379272E+01  0.10510453594E+03  0.11863471934E+03  0.10000000000E+01 0.  0.
    9000005    1    3    3    0    0 -0.54993866384E+02 -0.13812379272E+01  0.31135908165E+03  0.31618303384E+03  0.10000000000E+01 0.  0.
<mgrwt>
<rscale>  0 0.12499813E+03</rscale>
<asrwt>0</asrwt>
<pdfrwt beam="2">  1        4 0.22942669E-02 0.12499813E+03</pdfrwt>
<pdfrwt beam="1">  1       -4 0.10641018E+00 0.12499813E+03</pdfrwt>
<totfact> 0.98812201E+02</totfact>
</mgrwt>
</event>
<event>
 5    1  0.1422067E-002  0.1249989E+03  0.7818608E-02  0.1235071E+00
         -4   -1    0    0    0  501 -0.00000000000E+00  0.00000000000E+00  0.57444585674E+02  0.57458622706E+02  0.12700000000E+01 0. -1.
          4   -1    0    0  501    0  0.00000000000E+00 -0.00000000000E+00 -0.67970874955E+02  0.67982738560E+02  0.12700000000E+01 0. -1.
         25    2    1    2    0    0  0.00000000000E+00  0.00000000000E+00 -0.10526289280E+02  0.12544136127E+03  0.12499892940E+03 0.  0.
    9000005    1    3    3    0    0  0.57601199237E+02  0.23856571841E+02 -0.98791166174E+00  0.62361928635E+02  0.10000000000E+01 0.  0.
    9000005    1    3    3    0    0 -0.57601199237E+02 -0.23856571841E+02 -0.95383776187E+01  0.63079432632E+02  0.10000000000E+01 0.  0.
<mgrwt>
<rscale>  0 0.12499893E+03</rscale>
<asrwt>0</asrwt>
<pdfrwt beam="2">  1        4 0.16995956E-01 0.12499893E+03</pdfrwt>
<pdfrwt beam="1">  1       -4 0.14364384E-01 0.12499893E+03</pdfrwt>
<totfact> 0.19811634E+03</totfact>
</mgrwt>
</event>
<event>
 5    1  0.1422067E-002  0.1250013E+03  0.7818608E-02  0.1235067E+00
          4   -1    0    0  501    0  0.00000000000E+00  0.00000000000E+00  0.20513886922E+03  0.20514280042E+03  0.12700000000E+01 0. -1.
         -4   -1    0    0    0  501 -0.00000000000E+00 -0.00000000000E+00 -0.19017071936E+02  0.19059431393E+02  0.12700000000E+01 0. -1.
         25    2    1    2    0    0  0.00000000000E+00  0.00000000000E+00  0.18612179728E+03  0.22420223181E+03  0.12500126930E+03 0.  0.
    9000005    1    3    3    0    0 -0.11619945989E+02 -0.28447269050E+02 -0.45389275118E+01  0.31078483299E+02  0.10000000000E+01 0.  0.
    9000005    1    3    3    0    0  0.11619945989E+02  0.28447269050E+02  0.19066072479E+03  0.19312374851E+03  0.10000000000E+01 0.  0.
<mgrwt>
<rscale>  0 0.12500127E+03</rscale>
<asrwt>0</asrwt>
<pdfrwt beam="1">  1        4 0.51290505E-01 0.12500127E+03</pdfrwt>
<pdfrwt beam="2">  1       -4 0.47600542E-02 0.12500127E+03</pdfrwt>
<totfact> 0.15396264E+03</totfact>
</mgrwt>
</event>
<event>
 5    1  0.1422067E-002  0.1250010E+03  0.7818608E-02  0.1235068E+00
          4   -1    0    0  501    0  0.00000000000E+00  0.00000000000E+00  0.29664228708E+03  0.29664500566E+03  0.12700000000E+01 0.  1.
         -4   -1    0    0    0  501 -0.00000000000E+00 -0.00000000000E+00 -0.13135014033E+02  0.13196268172E+02  0.12700000000E+01 0.  1.
         25    2    1    2    0    0  0.00000000000E+00  0.00000000000E+00  0.28350727305E+03  0.30984127383E+03  0.12500096440E+03 0.  0.
    9000005    1    3    3    0    0  0.21889365286E+02 -0.28959221622E+02  0.15667146187E+02  0.39550477863E+02  0.10000000000E+01 0.  0.
    9000005    1    3    3    0    0 -0.21889365286E+02  0.28959221622E+02  0.26784012686E+03  0.27029079597E+03  0.10000000000E+01 0.  0.
<mgrwt>
<rscale>  0 0.12500096E+03</rscale>
<asrwt>0</asrwt>
<pdfrwt beam="1">  1        4 0.74168565E-01 0.12500096E+03</pdfrwt>
<pdfrwt beam="2">  1       -4 0.32917503E-02 0.12500096E+03</pdfrwt>
<totfact> 0.12699370E+03</totfact>
</mgrwt>
</event>
<event>
 5    1  0.1422067E-002  0.1250009E+03  0.7818608E-02  0.1235068E+00
         -4   -1    0    0    0  501 -0.00000000000E+00  0.00000000000E+00  0.74262906604E+03  0.74263015198E+03  0.12700000000E+01 0. -1.
          4   -1    0    0  501    0  0.00000000000E+00 -0.00000000000E+00 -0.51823392699E+01  0.53356855518E+01  0.12700000000E+01 0. -1.
         25    2    1    2    0    0  0.00000000000E+00  0.00000000000E+00  0.73744672677E+03  0.74796583753E+03  0.12500087715E+03 0.  0.
    9000005    1    3    3    0    0 -0.19520648370E+02  0.49872425608E+02  0.17603475364E+03  0.18400420929E+03  0.10000000000E+01 0.  0.
    9000005    1    3    3    0    0  0.19520648370E+02 -0.49872425608E+02  0.56141197314E+03  0.56396162825E+03  0.10000000000E+01 0.  0.
<mgrwt>
<rscale>  0 0.12500088E+03</rscale>
<asrwt>0</asrwt>
<pdfrwt beam="2">  1        4 0.13148889E-02 0.12500088E+03</pdfrwt>
<pdfrwt beam="1">  1       -4 0.18567656E+00 0.12500088E+03</pdfrwt>
<totfact> 0.57263768E+02</totfact>
</mgrwt>
</event>
<event>
 5    1  0.1422067E-002  0.1250007E+03  0.7818608E-02  0.1235068E+00
         -4   -1    0    0    0  501 -0.00000000000E+00  0.00000000000E+00  0.13229938116E+02  0.13290754777E+02  0.12700000000E+01 0. -1.
          4   -1    0    0  501    0  0.00000000000E+00 -0.00000000000E+00 -0.29452255050E+03  0.29452528865E+03  0.12700000000E+01 0. -1.
         25    2    1    2    0    0  0.00000000000E+00  0.00000000000E+00 -0.28129261238E+03  0.30781604342E+03  0.12500073123E+03 0.  0.
    9000005    1    3    3    0    0  0.27153272083E+01  0.56854559823E+02 -0.77121000200E+02  0.95856468985E+02  0.10000000000E+01 0.  0.
    9000005    1    3    3    0    0 -0.27153272083E+01 -0.56854559823E+02 -0.20417161218E+03  0.21195957444E+03  0.10000000000E+01 0.  0.
<mgrwt>
<rscale>  0 0.12500073E+03</rscale>
<asrwt>0</asrwt>
<pdfrwt beam="2">  1        4 0.73638561E-01 0.12500073E+03</pdfrwt>
<pdfrwt beam="1">  1       -4 0.33154298E-02 0.12500073E+03</pdfrwt>
<totfact> 0.12754579E+03</totfact>
</mgrwt>
</event>
<event>
 5    1  0.1422067E-002  0.1250004E+03  0.7818608E-02  0.1235069E+00
          4   -1    0    0  501    0  0.00000000000E+00  0.00000000000E+00  0.39582870762E+02  0.39603239233E+02  0.12700000000E+01 0. -1.
         -4   -1    0    0    0  501 -0.00000000000E+00 -0.00000000000E+00 -0.98636091546E+02  0.98644267220E+02  0.12700000000E+01 0. -1.
         25    2    1    2    0    0  0.00000000000E+00  0.00000000000E+00 -0.59053220784E+02  0.13824750645E+03  0.12500036062E+03 0.  0.
    9000005    1    3    3    0    0  0.16862313635E+02 -0.45028824442E+02 -0.73673514678E+02  0.87981358348E+02  0.10000000000E+01 0.  0.
    9000005    1    3    3    0    0 -0.16862313635E+02  0.45028824442E+02  0.14620293895E+02  0.50266148105E+02  0.10000000000E+01 0.  0.
<mgrwt>
<rscale>  0 0.12500036E+03</rscale>
<asrwt>0</asrwt>
<pdfrwt beam="1">  1        4 0.98992859E-02 0.12500036E+03</pdfrwt>
<pdfrwt beam="2">  1       -4 0.24662590E-01 0.12500036E+03</pdfrwt>
<totfact> 0.19130198E+03</totfact>
</mgrwt>
</event>
<event>
 5    1  0.1422067E-002  0.1249951E+03  0.7818608E-02  0.1235077E+00
          4   -1    0    0  501    0  0.00000000000E+00  0.00000000000E+00  0.87387923180E+02  0.87397151085E+02  0.12700000000E+01 0. -1.
         -4   -1    0    0    0  501 -0.00000000000E+00 -0.00000000000E+00 -0.44675998890E+02  0.44694046324E+02  0.12700000000E+01 0. -1.
         25    2    1    2    0    0  0.00000000000E+00  0.00000000000E+00  0.42711924290E+02  0.13209119741E+03  0.12499510373E+03 0.  0.
    9000005    1    3    3    0    0 -0.14556389172E+02 -0.82658870788E+01 -0.42267711962E+02  0.45472770198E+02  0.10000000000E+01 0.  0.
    9000005    1    3    3    0    0  0.14556389172E+02  0.82658870788E+01  0.84979636252E+02  0.86618427211E+02  0.10000000000E+01 0.  0.
<mgrwt>
<rscale>  0 0.12499510E+03</rscale>
<asrwt>0</asrwt>
<pdfrwt beam="1">  1        4 0.21850390E-01 0.12499510E+03</pdfrwt>
<pdfrwt beam="2">  1       -4 0.11172409E-01 0.12499510E+03</pdfrwt>
<totfact> 0.19454829E+03</totfact>
</mgrwt>
</event>
<event>
 5    1  0.1422067E-002  0.1249949E+03  0.7818608E-02  0.1235077E+00
         -4   -1    0    0    0  501 -0.00000000000E+00  0.00000000000E+00  0.12789140323E+02  0.12852043036E+02  0.12700000000E+01 0. -1.
          4   -1    0    0  501    0  0.00000000000E+00 -0.00000000000E+00 -0.30459669472E+03  0.30459934231E+03  0.12700000000E+01 0. -1.
         25    2    1    2    0    0  0.00000000000E+00  0.00000000000E+00 -0.29180755439E+03  0.31745138534E+03  0.12499493291E+03 0.  0.
    9000005    1    3    3    0    0 -0.23383989355E+02  0.61248207322E+01 -0.29225409989E+03  0.29325378649E+03  0.10000000000E+01 0.  0.
    9000005    1    3    3    0    0  0.23383989355E+02 -0.61248207322E+01  0.44654550069E+00  0.24197598848E+02  0.10000000000E+01 0.  0.
<mgrwt>
<rscale>  0 0.12499493E+03</rscale>
<asrwt>0</asrwt>
<pdfrwt beam="2">  1        4 0.76157344E-01 0.12499493E+03</pdfrwt>
<pdfrwt beam="1">  1       -4 0.32054799E-02 0.12499493E+03</pdfrwt>
<totfact> 0.12497120E+03</totfact>
</mgrwt>
</event>
<event>
 5    1  0.1422067E-002  0.1250001E+03  0.7818608E-02  0.1235069E+00
         -4   -1    0    0    0  501 -0.00000000000E+00  0.00000000000E+00  0.14733690648E+03  0.14734237989E+03  0.12700000000E+01 0.  1.
          4   -1    0    0  501    0  0.00000000000E+00 -0.00000000000E+00 -0.26491239857E+02  0.26521664525E+02  0.12700000000E+01 0.  1.
         25    2    1    2    0    0  0.00000000000E+00  0.00000000000E+00  0.12084566662E+03  0.17386404441E+03  0.12500012319E+03 0.  0.
    9000005    1    3    3    0    0  0.56257434112E+02  0.93357742446E+01  0.24874181747E+02  0.62223632899E+02  0.10000000000E+01 0.  0.
    9000005    1    3    3    0    0 -0.56257434112E+02 -0.93357742446E+01  0.95971484874E+02  0.11164041151E+03  0.10000000000E+01 0.  0.
<mgrwt>
<rscale>  0 0.12500012E+03</rscale>
<asrwt>0</asrwt>
<pdfrwt beam="2">  1        4 0.66272974E-02 0.12500012E+03</pdfrwt>
<pdfrwt beam="1">  1       -4 0.36838713E-01 0.12500012E+03</pdfrwt>
<totfact> 0.17424108E+03</totfact>
</mgrwt>
</event>
<event>
 5    1  0.1422067E-002  0.1250002E+03  0.7818608E-02  0.1235069E+00
          4   -1    0    0  501    0  0.00000000000E+00  0.00000000000E+00  0.18414555906E+03  0.18414993843E+03  0.12700000000E+01 0.  1.
         -4   -1    0    0    0  501 -0.00000000000E+00 -0.00000000000E+00 -0.21189249379E+02  0.21227274654E+02  0.12700000000E+01 0.  1.
         25    2    1    2    0    0  0.00000000000E+00  0.00000000000E+00  0.16295630968E+03  0.20537721308E+03  0.12500016315E+03 0.  0.
    9000005    1    3    3    0    0 -0.22121100769E+02  0.28168976414E+02 -0.26600586357E+01  0.35929239393E+02  0.10000000000E+01 0.  0.
    9000005    1    3    3    0    0  0.22121100769E+02 -0.28168976414E+02  0.16561636832E+03  0.16944797369E+03  0.10000000000E+01 0.  0.
<mgrwt>
<rscale>  0 0.12500016E+03</rscale>
<asrwt>0</asrwt>
<pdfrwt beam="1">  1        4 0.46041690E-01 0.12500016E+03</pdfrwt>
<pdfrwt beam="2">  1       -4 0.53026129E-02 0.12500016E+03</pdfrwt>
<totfact> 0.16108909E+03</totfact>
</mgrwt>
</event>
<event>
 5    1  0.1422067E-002  0.1250001E+03  0.7818608E-02  0.1235069E+00
         -4   -1    0    0    0  501 -0.00000000000E+00  0.00000000000E+00  0.30049845529E+01  0.32623353848E+01  0.12700000000E+01 0.  1.
          4   -1    0    0  501    0  0.00000000000E+00 -0.00000000000E+00 -0.12462903638E+04  0.12462910109E+04  0.12700000000E+01 0.  1.
         25    2    1    2    0    0  0.00000000000E+00  0.00000000000E+00 -0.12432853792E+04  0.12495533463E+04  0.12500012365E+03 0.  0.
    9000005    1    3    3    0    0 -0.44816416599E+02  0.42908728869E+02 -0.54711236694E+03  0.55062020692E+03  0.10000000000E+01 0.  0.
    9000005    1    3    3    0    0  0.44816416599E+02 -0.42908728869E+02 -0.69617301231E+03  0.69893313934E+03  0.10000000000E+01 0.  0.
<mgrwt>
<rscale>  0 0.12500012E+03</rscale>
<asrwt>0</asrwt>
<pdfrwt beam="2">  1        4 0.31160314E+00 0.12500012E+03</pdfrwt>
<pdfrwt beam="1">  1       -4 0.78350015E-03 0.12500012E+03</pdfrwt>
<totfact> 0.22697258E+02</totfact>
</mgrwt>
</event>
<event>
 5    1  0.1422067E-002  0.1249997E+03  0.7818608E-02  0.1235070E+00
         -4   -1    0    0    0  501 -0.00000000000E+00  0.00000000000E+00  0.20687001338E+03  0.20687391169E+03  0.12700000000E+01 0. -1.
          4   -1    0    0  501    0  0.00000000000E+00 -0.00000000000E+00 -0.18857097642E+02  0.18899815646E+02  0.12700000000E+01 0. -1.
         25    2    1    2    0    0  0.00000000000E+00  0.00000000000E+00  0.18801291574E+03  0.22577372734E+03  0.12499967788E+03 0.  0.
    9000005    1    3    3    0    0  0.46007499418E+02  0.12274855806E+02  0.16710419432E+03  0.17375895329E+03  0.10000000000E+01 0.  0.
    9000005    1    3    3    0    0 -0.46007499418E+02 -0.12274855806E+02  0.20908721421E+02  0.52014774048E+02  0.10000000000E+01 0.  0.
<mgrwt>
<rscale>  0 0.12499968E+03</rscale>
<asrwt>0</asrwt>
<pdfrwt beam="2">  1        4 0.47201015E-02 0.12499968E+03</pdfrwt>
<pdfrwt beam="1">  1       -4 0.51723330E-01 0.12499968E+03</pdfrwt>
<totfact> 0.15339624E+03</totfact>
</mgrwt>
</event>
<event>
 5    1  0.1422067E-002  0.1249962E+03  0.7818608E-02  0.1235075E+00
          4   -1    0    0  501    0  0.00000000000E+00  0.00000000000E+00  0.59390905240E+02  0.59404482367E+02  0.12700000000E+01 0.  1.
         -4   -1    0    0    0  501 -0.00000000000E+00 -0.00000000000E+00 -0.65740618391E+02  0.65752884396E+02  0.12700000000E+01 0.  1.
         25    2    1    2    0    0  0.00000000000E+00  0.00000000000E+00 -0.63497131504E+01  0.12515736676E+03  0.12499619033E+03 0.  0.
    9000005    1    3    3    0    0 -0.52553900103E+02  0.85472690335E+01  0.29578845381E+02  0.60916962482E+02  0.10000000000E+01 0.  0.
    9000005    1    3    3    0    0  0.52553900103E+02 -0.85472690335E+01 -0.35928558531E+02  0.64240404281E+02  0.10000000000E+01 0.  0.
<mgrwt>
<rscale>  0 0.12499619E+03</rscale>
<asrwt>0</asrwt>
<pdfrwt beam="1">  1        4 0.14850957E-01 0.12499619E+03</pdfrwt>
<pdfrwt beam="2">  1       -4 0.16438385E-01 0.12499619E+03</pdfrwt>
<totfact> 0.19828291E+03</totfact>
</mgrwt>
</event>
<event>
 5    1  0.1422067E-002  0.1249993E+03  0.7818608E-02  0.1235070E+00
         -4   -1    0    0    0  501 -0.00000000000E+00  0.00000000000E+00  0.11332987514E+02  0.11403925026E+02  0.12700000000E+01 0. -1.
          4   -1    0    0  501    0  0.00000000000E+00 -0.00000000000E+00 -0.34352854393E+03  0.34353089147E+03  0.12700000000E+01 0. -1.
         25    2    1    2    0    0  0.00000000000E+00  0.00000000000E+00 -0.33219555642E+03  0.35493481650E+03  0.12499934503E+03 0.  0.
    9000005    1    3    3    0    0 -0.28947924255E+02 -0.10706027583E+02 -0.11805660275E+02  0.33060171806E+02  0.10000000000E+01 0.  0.
    9000005    1    3    3    0    0  0.28947924255E+02  0.10706027583E+02 -0.32038989614E+03  0.32187464469E+03  0.10000000000E+01 0.  0.
<mgrwt>
<rscale>  0 0.12499935E+03</rscale>
<asrwt>0</asrwt>
<pdfrwt beam="2">  1        4 0.85891262E-01 0.12499935E+03</pdfrwt>
<pdfrwt beam="1">  1       -4 0.28424086E-02 0.12499935E+03</pdfrwt>
<totfact> 0.11560675E+03</totfact>
</mgrwt>
</event>
<event>
 5    1  0.1422067E-002  0.1250049E+03  0.7818608E-02  0.1235062E+00
         -4   -1    0    0    0  501 -0.00000000000E+00  0.00000000000E+00  0.93705945379E+02  0.93714551161E+02  0.12700000000E+01 0. -1.
          4   -1    0    0  501    0  0.00000000000E+00 -0.00000000000E+00 -0.41669338588E+02  0.41688687655E+02  0.12700000000E+01 0. -1.
         25    2    1    2    0    0  0.00000000000E+00  0.00000000000E+00  0.52036606790E+02  0.13540323882E+03  0.12500491445E+03 0.  0.
    9000005    1    3    3    0    0  0.52714308114E+02  0.32550243582E+02  0.34900441114E+02  0.71115099853E+02  0.10000000000E+01 0.  0.
    9000005    1    3    3    0    0 -0.52714308114E+02 -0.32550243582E+02  0.17136165677E+02  0.64288138963E+02  0.10000000000E+01 0.  0.
<mgrwt>
<rscale>  0 0.12500491E+03</rscale>
<asrwt>0</asrwt>
<pdfrwt beam="2">  1        4 0.10420829E-01 0.12500491E+03</pdfrwt>
<pdfrwt beam="1">  1       -4 0.23429981E-01 0.12500491E+03</pdfrwt>
<totfact> 0.19275827E+03</totfact>
</mgrwt>
</event>
<event>
 5    1  0.1422067E-002  0.1249987E+03  0.7818608E-02  0.1235071E+00
         -4   -1    0    0    0  501 -0.00000000000E+00  0.00000000000E+00  0.84252819610E+02  0.84262390853E+02  0.12700000000E+01 0.  1.
          4   -1    0    0  501    0  0.00000000000E+00 -0.00000000000E+00 -0.46341599404E+02  0.46358998429E+02  0.12700000000E+01 0.  1.
         25    2    1    2    0    0  0.00000000000E+00  0.00000000000E+00  0.37911220206E+02  0.13062138928E+03  0.12499874688E+03 0.  0.
    9000005    1    3    3    0    0 -0.14478907613E+02  0.60790685853E+02  0.18788975852E+02  0.65262331139E+02  0.10000000000E+01 0.  0.
    9000005    1    3    3    0    0  0.14478907613E+02 -0.60790685853E+02  0.19122244354E+02  0.65359058143E+02  0.10000000000E+01 0.  0.
<mgrwt>
<rscale>  0 0.12499875E+03</rscale>
<asrwt>0</asrwt>
<pdfrwt beam="2">  1        4 0.11588771E-01 0.12499875E+03</pdfrwt>
<pdfrwt beam="1">  1       -4 0.21066576E-01 0.12499875E+03</pdfrwt>
<totfact> 0.19531607E+03</totfact>
</mgrwt>
</event>
<event>
 5    1  0.1422067E-002  0.1249979E+03  0.7818608E-02  0.1235073E+00
         -4   -1    0    0    0  501 -0.00000000000E+00  0.00000000000E+00  0.58480976981E+02  0.58494765310E+02  0.12700000000E+01 0. -1.
          4   -1    0    0  501    0  0.00000000000E+00 -0.00000000000E+00 -0.66765303292E+02  0.66777381078E+02  0.12700000000E+01 0. -1.
         25    2    1    2    0    0  0.00000000000E+00  0.00000000000E+00 -0.82843263112E+01  0.12527214639E+03  0.12499792238E+03 0.  0.
    9000005    1    3    3    0    0 -0.36706936169E+01 -0.54270167280E+02  0.26688862022E+02  0.60597197990E+02  0.10000000000E+01 0.  0.
    9000005    1    3    3    0    0  0.36706936169E+01  0.54270167280E+02 -0.34973188333E+02  0.64674948399E+02  0.10000000000E+01 0.  0.
<mgrwt>
<rscale>  0 0.12499792E+03</rscale>
<asrwt>0</asrwt>
<pdfrwt beam="2">  1        4 0.16694559E-01 0.12499792E+03</pdfrwt>
<pdfrwt beam="1">  1       -4 0.14623478E-01 0.12499792E+03</pdfrwt>
<totfact> 0.19821267E+03</totfact>
</mgrwt>
</event>
<event>
 5    1  0.1422067E-002  0.1250018E+03  0.7818608E-02  0.1235067E+00
         -4   -1    0    0    0  501 -0.00000000000E+00  0.00000000000E+00  0.58771455646E+02  0.58785175842E+02  0.12700000000E+01 0.  1.
          4   -1    0    0  501    0  0.00000000000E+00 -0.00000000000E+00 -0.66439422146E+02  0.66451559163E+02  0.12700000000E+01 0.  1.
         25    2    1    2    0    0  0.00000000000E+00  0.00000000000E+00 -0.76679665002E+01  0.12523673500E+03  0.12500176832E+03 0.  0.
    9000005    1    3    3    0    0 -0.10995208156E+02 -0.58429498910E+02  0.15449522540E+02  0.61437681369E+02  0.10000000000E+01 0.  0.
    9000005    1    3    3    0    0  0.10995208156E+02  0.58429498910E+02 -0.23117489040E+02  0.63799053635E+02  0.10000000000E+01 0.  0.
<mgrwt>
<rscale>  0 0.12500177E+03</rscale>
<asrwt>0</asrwt>
<pdfrwt beam="2">  1        4 0.16613088E-01 0.12500177E+03</pdfrwt>
<pdfrwt beam="1">  1       -4 0.14696096E-01 0.12500177E+03</pdfrwt>
<totfact> 0.19821402E+03</totfact>
</mgrwt>
</event>
<event>
 5    1  0.1422067E-002  0.1250007E+03  0.7818608E-02  0.1235068E+00
          4   -1    0    0  501    0  0.00000000000E+00  0.00000000000E+00  0.42070217945E+03  0.42070409636E+03  0.12700000000E+01 0. -1.
         -4   -1    0    0    0  501 -0.00000000000E+00 -0.00000000000E+00 -0.92397949227E+01  0.93266666185E+01  0.12700000000E+01 0. -1.
         25    2    1    2    0    0  0.00000000000E+00  0.00000000000E+00  0.41146238453E+03  0.43003076298E+03  0.12500065291E+03 0.  0.
    9000005    1    3    3    0    0 -0.50853208745E+02 -0.29878318497E+02  0.27678069493E+03  0.28299702444E+03  0.10000000000E+01 0.  0.
    9000005    1    3    3    0    0  0.50853208745E+02  0.29878318497E+02  0.13468168960E+03  0.14703373854E+03  0.10000000000E+01 0.  0.
<mgrwt>
<rscale>  0 0.12500065E+03</rscale>
<asrwt>0</asrwt>
<pdfrwt beam="1">  1        4 0.10518663E+00 0.12500065E+03</pdfrwt>
<pdfrwt beam="2">  1       -4 0.23210475E-02 0.12500065E+03</pdfrwt>
<totfact> 0.99714166E+02</totfact>
</mgrwt>
</event>
<event>
 5    1  0.1422067E-002  0.1249969E+03  0.7818608E-02  0.1235074E+00
          4   -1    0    0  501    0  0.00000000000E+00  0.00000000000E+00  0.33694945462E+03  0.33695184800E+03  0.12700000000E+01 0. -1.
         -4   -1    0    0    0  501 -0.00000000000E+00 -0.00000000000E+00 -0.11555182668E+02  0.11624764363E+02  0.12700000000E+01 0. -1.
         25    2    1    2    0    0  0.00000000000E+00  0.00000000000E+00  0.32539427195E+03  0.34857661236E+03  0.12499688982E+03 0.  0.
    9000005    1    3    3    0    0  0.38859034273E+02  0.35486858089E+02  0.25667672094E+03  0.26201771069E+03  0.10000000000E+01 0.  0.
    9000005    1    3    3    0    0 -0.38859034273E+02 -0.35486858089E+02  0.68717551014E+02  0.86558901674E+02  0.10000000000E+01 0.  0.
<mgrwt>
<rscale>  0 0.12499689E+03</rscale>
<asrwt>0</asrwt>
<pdfrwt beam="1">  1        4 0.84246358E-01 0.12499689E+03</pdfrwt>
<pdfrwt beam="2">  1       -4 0.28977926E-02 0.12499689E+03</pdfrwt>
<totfact> 0.11712176E+03</totfact>
</mgrwt>
</event>
<event>
 5    1  0.1422067E-002  0.1249889E+03  0.7818608E-02  0.1235087E+00
         -4   -1    0    0    0  501 -0.00000000000E+00  0.00000000000E+00  0.85956045679E+02  0.85965427287E+02  0.12700000000E+01 0.  1.
          4   -1    0    0  501    0  0.00000000000E+00 -0.00000000000E+00 -0.45415960070E+02  0.45433713573E+02  0.12700000000E+01 0.  1.
         25    2    1    2    0    0  0.00000000000E+00  0.00000000000E+00  0.40540085609E+02  0.13139914086E+03  0.12498894222E+03 0.  0.
    9000005    1    3    3    0    0 -0.19092412738E+01  0.50617761460E+02 -0.18195479927E+02  0.53831946530E+02  0.10000000000E+01 0.  0.
    9000005    1    3    3    0    0  0.19092412738E+01 -0.50617761460E+02  0.58735565536E+02  0.77567194330E+02  0.10000000000E+01 0.  0.
<mgrwt>
<rscale>  0 0.12498894E+03</rscale>
<asrwt>0</asrwt>
<pdfrwt beam="2">  1        4 0.11357382E-01 0.12498894E+03</pdfrwt>
<pdfrwt beam="1">  1       -4 0.21492403E-01 0.12498894E+03</pdfrwt>
<totfact> 0.19494488E+03</totfact>
</mgrwt>
</event>
<event>
 5    1  0.1422067E-002  0.1249977E+03  0.7818608E-02  0.1235073E+00
          4   -1    0    0  501    0  0.00000000000E+00  0.00000000000E+00  0.30454974996E+03  0.30455239796E+03  0.12700000000E+01 0.  1.
         -4   -1    0    0    0  501 -0.00000000000E+00 -0.00000000000E+00 -0.12791691120E+02  0.12854581351E+02  0.12700000000E+01 0.  1.
         25    2    1    2    0    0  0.00000000000E+00  0.00000000000E+00  0.29175805884E+03  0.31740697931E+03  0.12499770244E+03 0.  0.
    9000005    1    3    3    0    0  0.51486331957E+02 -0.25105174638E+02  0.20931049255E+03  0.21700920364E+03  0.10000000000E+01 0.  0.
    9000005    1    3    3    0    0 -0.51486331957E+02  0.25105174638E+02  0.82447566285E+02  0.10039777566E+03  0.10000000000E+01 0.  0.
<mgrwt>
<rscale>  0 0.12499770E+03</rscale>
<asrwt>0</asrwt>
<pdfrwt beam="1">  1        4 0.76145630E-01 0.12499770E+03</pdfrwt>
<pdfrwt beam="2">  1       -4 0.32061150E-02 0.12499770E+03</pdfrwt>
<totfact> 0.12497501E+03</totfact>
</mgrwt>
</event>
<event>
 5    1  0.1422067E-002  0.1250001E+03  0.7818608E-02  0.1235069E+00
         -4   -1    0    0    0  501 -0.00000000000E+00  0.00000000000E+00  0.11041063381E+03  0.11041793767E+03  0.12700000000E+01 0.  1.
          4   -1    0    0  501    0  0.00000000000E+00 -0.00000000000E+00 -0.35359470591E+02  0.35382270426E+02  0.12700000000E+01 0.  1.
         25    2    1    2    0    0  0.00000000000E+00  0.00000000000E+00  0.75051163223E+02  0.14580020810E+03  0.12500009432E+03 0.  0.
    9000005    1    3    3    0    0 -0.60994645290E+02 -0.46556828784E+01  0.52427864124E+02  0.80571105700E+02  0.10000000000E+01 0.  0.
    9000005    1    3    3    0    0  0.60994645290E+02  0.46556828784E+01  0.22623299099E+02  0.65229102395E+02  0.10000000000E+01 0.  0.
<mgrwt>
<rscale>  0 0.12500009E+03</rscale>
<asrwt>0</asrwt>
<pdfrwt beam="2">  1        4 0.88436307E-02 0.12500009E+03</pdfrwt>
<pdfrwt beam="1">  1       -4 0.27606421E-01 0.12500009E+03</pdfrwt>
<totfact> 0.18747190E+03</totfact>
</mgrwt>
</event>
<event>
 5    1  0.1422067E-002  0.1249996E+03  0.7818608E-02  0.1235070E+00
         -4   -1    0    0    0  501 -0.00000000000E+00  0.00000000000E+00  0.34844002771E+02  0.34867139675E+02  0.12700000000E+01 0. -1.
          4   -1    0    0  501    0  0.00000000000E+00 -0.00000000000E+00 -0.11204218698E+03  0.11204938448E+03  0.12700000000E+01 0. -1.
         25    2    1    2    0    0  0.00000000000E+00  0.00000000000E+00 -0.77198184207E+02  0.14691652416E+03  0.12499962170E+03 0.  0.
    9000005    1    3    3    0    0 -0.33301008595E+02 -0.24342192210E+02  0.16575715698E+02  0.44466322604E+02  0.10000000000E+01 0.  0.
    9000005    1    3    3    0    0  0.33301008595E+02  0.24342192210E+02 -0.93773899905E+02  0.10245020155E+03  0.10000000000E+01 0.  0.
<mgrwt>
<rscale>  0 0.12499962E+03</rscale>
<asrwt>0</asrwt>
<pdfrwt beam="2">  1        4 0.28014338E-01 0.12499962E+03</pdfrwt>
<pdfrwt beam="1">  1       -4 0.87147928E-02 0.12499962E+03</pdfrwt>
<totfact> 0.18691607E+03</totfact>
</mgrwt>
</event>
<event>
 5    1  0.1422067E-002  0.1249990E+03  0.7818608E-02  0.1235071E+00
         -4   -1    0    0    0  501 -0.00000000000E+00  0.00000000000E+00  0.35241277723E+02  0.35264153975E+02  0.12700000000E+01 0. -1.
          4   -1    0    0  501    0  0.00000000000E+00 -0.00000000000E+00 -0.11077875366E+03  0.11078603324E+03  0.12700000000E+01 0. -1.
         25    2    1    2    0    0  0.00000000000E+00  0.00000000000E+00 -0.75537475935E+02  0.14605018722E+03  0.12499898766E+03 0.  0.
    9000005    1    3    3    0    0  0.50360402246E+02  0.36281662332E+02 -0.29290099362E+02  0.68639923198E+02  0.10000000000E+01 0.  0.
    9000005    1    3    3    0    0 -0.50360402246E+02 -0.36281662332E+02 -0.46247376573E+02  0.77410264022E+02  0.10000000000E+01 0.  0.
<mgrwt>
<rscale>  0 0.12499899E+03</rscale>
<asrwt>0</asrwt>
<pdfrwt beam="2">  1        4 0.27698457E-01 0.12499899E+03</pdfrwt>
<pdfrwt beam="1">  1       -4 0.88140892E-02 0.12499899E+03</pdfrwt>
<totfact> 0.18735156E+03</totfact>
</mgrwt>
</event>
<event>
 5    1  0.1422067E-002  0.1250042E+03  0.7818608E-02  0.1235063E+00
          4   -1    0    0  501    0  0.00000000000E+00  0.00000000000E+00  0.27005051356E+03  0.27005349984E+03  0.12700000000E+01 0.  1.
         -4   -1    0    0    0  501 -0.00000000000E+00 -0.00000000000E+00 -0.14434902299E+02  0.14490662662E+02  0.12700000000E+01 0.  1.
         25    2    1    2    0    0  0.00000000000E+00  0.00000000000E+00  0.25561561126E+03  0.28454416250E+03  0.12500415870E+03 0.  0.
    9000005    1    3    3    0    0 -0.57584279994E+02  0.18868915442E+02  0.16259277172E+03  0.17352058866E+03  0.10000000000E+01 0.  0.
    9000005    1    3    3    0    0  0.57584279994E+02 -0.18868915442E+02  0.93022839541E+02  0.11102357384E+03  0.10000000000E+01 0.  0.
<mgrwt>
<rscale>  0 0.12500416E+03</rscale>
<asrwt>0</asrwt>
<pdfrwt beam="1">  1        4 0.67519968E-01 0.12500416E+03</pdfrwt>
<pdfrwt beam="2">  1       -4 0.36160691E-02 0.12500416E+03</pdfrwt>
<totfact> 0.13414285E+03</totfact>
</mgrwt>
</event>
<event>
 5    1  0.1422067E-002  0.1250016E+03  0.7818608E-02  0.1235067E+00
          4   -1    0    0  501    0  0.00000000000E+00  0.00000000000E+00  0.52752888218E+02  0.52768173318E+02  0.12700000000E+01 0.  1.
         -4   -1    0    0    0  501 -0.00000000000E+00 -0.00000000000E+00 -0.74018509478E+02  0.74029403924E+02  0.12700000000E+01 0.  1.
         25    2    1    2    0    0  0.00000000000E+00  0.00000000000E+00 -0.21265621260E+02  0.12679757724E+03  0.12500159578E+03 0.  0.
    9000005    1    3    3    0    0  0.29703105979E+02  0.54599312160E+02 -0.17205908708E+02  0.64501183614E+02  0.10000000000E+01 0.  0.
    9000005    1    3    3    0    0 -0.29703105979E+02 -0.54599312160E+02 -0.40597125529E+01  0.62296393629E+02  0.10000000000E+01 0.  0.
<mgrwt>
<rscale>  0 0.12500160E+03</rscale>
<asrwt>0</asrwt>
<pdfrwt beam="1">  1        4 0.13191495E-01 0.12500160E+03</pdfrwt>
<pdfrwt beam="2">  1       -4 0.18507900E-01 0.12500160E+03</pdfrwt>
<totfact> 0.19737145E+03</totfact>
</mgrwt>
</event>
<event>
 5    1  0.1422067E-002  0.1250125E+03  0.7818608E-02  0.1235050E+00
          4   -1    0    0  501    0  0.00000000000E+00  0.00000000000E+00  0.42214653974E+02  0.42233753210E+02  0.12700000000E+01 0.  1.
         -4   -1    0    0    0  501 -0.00000000000E+00 -0.00000000000E+00 -0.92507188397E+02  0.92515905687E+02  0.12700000000E+01 0.  1.
         25    2    1    2    0    0  0.00000000000E+00  0.00000000000E+00 -0.50292534423E+02  0.13474965890E+03  0.12501252559E+03 0.  0.
    9000005    1    3    3    0    0  0.42071522267E+01 -0.61443672362E+02 -0.36604787013E+02  0.71651485926E+02  0.10000000000E+01 0.  0.
    9000005    1    3    3    0    0 -0.42071522267E+01  0.61443672362E+02 -0.13687747409E+02  0.63098172971E+02  0.10000000000E+01 0.  0.
<mgrwt>
<rscale>  0 0.12501253E+03</rscale>
<asrwt>0</asrwt>
<pdfrwt beam="1">  1        4 0.10557141E-01 0.12501253E+03</pdfrwt>
<pdfrwt beam="2">  1       -4 0.23130274E-01 0.12501253E+03</pdfrwt>
<totfact> 0.19306614E+03</totfact>
</mgrwt>
</event>
<event>
 5    1  0.1422067E-002  0.1250017E+03  0.7818608E-02  0.1235067E+00
          4   -1    0    0  501    0  0.00000000000E+00  0.00000000000E+00  0.17428493969E+03  0.17428956682E+03  0.12700000000E+01 0.  1.
         -4   -1    0    0    0  501 -0.00000000000E+00 -0.00000000000E+00 -0.22390711940E+02  0.22426700184E+02  0.12700000000E+01 0.  1.
         25    2    1    2    0    0  0.00000000000E+00  0.00000000000E+00  0.15189422775E+03  0.19671626700E+03  0.12500173311E+03 0.  0.
    9000005    1    3    3    0    0 -0.13627008160E+00 -0.22326576623E+02  0.16780186422E+03  0.16928366794E+03  0.10000000000E+01 0.  0.
    9000005    1    3    3    0    0  0.13627008160E+00  0.22326576623E+02 -0.15907636476E+02  0.27432599066E+02  0.10000000000E+01 0.  0.
<mgrwt>
<rscale>  0 0.12500173E+03</rscale>
<asrwt>0</asrwt>
<pdfrwt beam="1">  1        4 0.43576311E-01 0.12500173E+03</pdfrwt>
<pdfrwt beam="2">  1       -4 0.56027551E-02 0.12500173E+03</pdfrwt>
<totfact> 0.16453717E+03</totfact>
</mgrwt>
</event>
<event>
 5    1  0.1422067E-002  0.1250018E+03  0.7818608E-02  0.1235066E+00
          4   -1    0    0  501    0  0.00000000000E+00  0.00000000000E+00  0.97925107277E+02  0.97933342306E+02  0.12700000000E+01 0.  1.
         -4   -1    0    0    0  501 -0.00000000000E+00 -0.00000000000E+00 -0.39871307919E+02  0.39891529115E+02  0.12700000000E+01 0.  1.
         25    2    1    2    0    0  0.00000000000E+00  0.00000000000E+00  0.58053799358E+02  0.13782487142E+03  0.12500180624E+03 0.  0.
    9000005    1    3    3    0    0 -0.10499672197E+02  0.51217060937E+02 -0.87183755211E+01  0.53013588060E+02  0.10000000000E+01 0.  0.
    9000005    1    3    3    0    0  0.10499672197E+02 -0.51217060937E+02  0.66772174879E+02  0.84811283361E+02  0.10000000000E+01 0.  0.
<mgrwt>
<rscale>  0 0.12500181E+03</rscale>
<asrwt>0</asrwt>
<pdfrwt beam="1">  1        4 0.24484834E-01 0.12500181E+03</pdfrwt>
<pdfrwt beam="2">  1       -4 0.99713841E-02 0.12500181E+03</pdfrwt>
<totfact> 0.19151370E+03</totfact>
</mgrwt>
</event>
<event>
 5    1  0.1422067E-002  0.1250009E+03  0.7818608E-02  0.1235068E+00
          4   -1    0    0  501    0  0.00000000000E+00  0.00000000000E+00  0.62580654645E+03  0.62580783511E+03  0.12700000000E+01 0. -1.
         -4   -1    0    0    0  501 -0.00000000000E+00 -0.00000000000E+00 -0.61761291527E+01  0.63053525921E+01  0.12700000000E+01 0. -1.
         25    2    1    2    0    0  0.00000000000E+00  0.00000000000E+00  0.61963041730E+03  0.63211318770E+03  0.12500091208E+03 0.  0.
    9000005    1    3    3    0    0  0.38712293583E+02  0.48240745671E+02  0.35490245671E+03  0.36025347326E+03  0.10000000000E+01 0.  0.
    9000005    1    3    3    0    0 -0.38712293583E+02 -0.48240745671E+02  0.26472796059E+03  0.27185971444E+03  0.10000000000E+01 0.  0.
<mgrwt>
<rscale>  0 0.12500091E+03</rscale>
<asrwt>0</asrwt>
<pdfrwt beam="1">  1        4 0.15646796E+00 0.12500091E+03</pdfrwt>
<pdfrwt beam="2">  1       -4 0.15603462E-02 0.12500091E+03</pdfrwt>
<totfact> 0.69593960E+02</totfact>
</mgrwt>
</event>
<event>
 5    1  0.1422067E-002  0.1249981E+03  0.7818608E-02  0.1235072E+00
          4   -1    0    0  501    0  0.00000000000E+00  0.00000000000E+00  0.56794409540E+02  0.56808607226E+02  0.12700000000E+01 0.  1.
         -4   -1    0    0    0  501 -0.00000000000E+00 -0.00000000000E+00 -0.68748006090E+02  0.68759735612E+02  0.12700000000E+01 0.  1.
         25    2    1    2    0    0  0.00000000000E+00  0.00000000000E+00 -0.11953596550E+02  0.12556834284E+03  0.12499808100E+03 0.  0.
    9000005    1    3    3    0    0  0.31076025874E+01  0.51957542300E+02  0.28762563003E+02  0.59477125234E+02  0.10000000000E+01 0.  0.
    9000005    1    3    3    0    0 -0.31076025874E+01 -0.51957542300E+02 -0.40716159553E+02  0.66091217604E+02  0.10000000000E+01 0.  0.
<mgrwt>
<rscale>  0 0.12499808E+03</rscale>
<asrwt>0</asrwt>
<pdfrwt beam="1">  1        4 0.14201843E-01 0.12499808E+03</pdfrwt>
<pdfrwt beam="2">  1       -4 0.17190242E-01 0.12499808E+03</pdfrwt>
<totfact> 0.19805153E+03</totfact>
</mgrwt>
</event>
<event>
 5    1  0.1422067E-002  0.1250016E+03  0.7818608E-02  0.1235067E+00
         -4   -1    0    0    0  501 -0.00000000000E+00  0.00000000000E+00  0.10453984493E+03  0.10454755893E+03  0.12700000000E+01 0.  1.
          4   -1    0    0  501    0  0.00000000000E+00 -0.00000000000E+00 -0.37347217423E+02  0.37368804493E+02  0.12700000000E+01 0.  1.
         25    2    1    2    0    0  0.00000000000E+00  0.00000000000E+00  0.67192627505E+02  0.14191636342E+03  0.12500162005E+03 0.  0.
    9000005    1    3    3    0    0  0.89535076200E+01  0.59335187916E+02  0.53408197119E+02  0.80338442500E+02  0.10000000000E+01 0.  0.
    9000005    1    3    3    0    0 -0.89535076200E+01 -0.59335187916E+02  0.13784430386E+02  0.61577920920E+02  0.10000000000E+01 0.  0.
<mgrwt>
<rscale>  0 0.12500162E+03</rscale>
<asrwt>0</asrwt>
<pdfrwt beam="2">  1        4 0.93404670E-02 0.12500162E+03</pdfrwt>
<pdfrwt beam="1">  1       -4 0.26138624E-01 0.12500162E+03</pdfrwt>
<totfact> 0.18942014E+03</totfact>
</mgrwt>
</event>
<event>
 5    1  0.1422067E-002  0.1250036E+03  0.7818608E-02  0.1235064E+00
          4   -1    0    0  501    0  0.00000000000E+00  0.00000000000E+00  0.12832674573E+03  0.12833302992E+03  0.12700000000E+01 0.  1.
         -4   -1    0    0    0  501 -0.00000000000E+00 -0.00000000000E+00 -0.30421335664E+02  0.30447833479E+02  0.12700000000E+01 0.  1.
         25    2    1    2    0    0  0.00000000000E+00  0.00000000000E+00  0.97905410066E+02  0.15878086340E+03  0.12500357300E+03 0.  0.
    9000005    1    3    3    0    0 -0.85462834024E+01 -0.59487384836E+02  0.70720623987E+02  0.92812685403E+02  0.10000000000E+01 0.  0.
    9000005    1    3    3    0    0  0.85462834024E+01  0.59487384836E+02  0.27184786079E+02  0.65968178001E+02  0.10000000000E+01 0.  0.
<mgrwt>
<rscale>  0 0.12500357E+03</rscale>
<asrwt>0</asrwt>
<pdfrwt beam="1">  1        4 0.32085784E-01 0.12500357E+03</pdfrwt>
<pdfrwt beam="2">  1       -4 0.76094318E-02 0.12500357E+03</pdfrwt>
<totfact> 0.18113775E+03</totfact>
</mgrwt>
</event>
<event>
 5    1  0.1422067E-002  0.1249989E+03  0.7818608E-02  0.1235071E+00
          4   -1    0    0  501    0  0.00000000000E+00  0.00000000000E+00  0.46493813088E+02  0.46511155172E+02  0.12700000000E+01 0.  1.
         -4   -1    0    0    0  501 -0.00000000000E+00 -0.00000000000E+00 -0.83977258424E+02  0.83986861070E+02  0.12700000000E+01 0.  1.
         25    2    1    2    0    0  0.00000000000E+00  0.00000000000E+00 -0.37483445336E+02  0.13049801624E+03  0.12499889427E+03 0.  0.
    9000005    1    3    3    0    0 -0.58054912195E+02  0.33348906396E+01  0.51492293126E+01  0.58386718422E+02  0.10000000000E+01 0.  0.
    9000005    1    3    3    0    0  0.58054912195E+02 -0.33348906396E+01 -0.42632674649E+02  0.72111297820E+02  0.10000000000E+01 0.  0.
<mgrwt>
<rscale>  0 0.12499889E+03</rscale>
<asrwt>0</asrwt>
<pdfrwt beam="1">  1        4 0.11626821E-01 0.12499889E+03</pdfrwt>
<pdfrwt beam="2">  1       -4 0.20997682E-01 0.12499889E+03</pdfrwt>
<totfact> 0.19538151E+03</totfact>
</mgrwt>
</event>
<event>
 5    1  0.1422067E-002  0.1250156E+03  0.7818608E-02  0.1235045E+00
         -4   -1    0    0    0  501 -0.00000000000E+00  0.00000000000E+00  0.64148791577E+02  0.64161361899E+02  0.12700000000E+01 0.  1.
          4   -1    0    0  501    0  0.00000000000E+00 -0.00000000000E+00 -0.60883617615E+02  0.60896861938E+02  0.12700000000E+01 0.  1.
         25    2    1    2    0    0  0.00000000000E+00  0.00000000000E+00  0.32651739620E+01  0.12505822384E+03  0.12501559098E+03 0.  0.
    9000005    1    3    3    0    0  0.54860980258E+02 -0.17521333362E+02 -0.22655318467E+02  0.61894973403E+02  0.10000000000E+01 0.  0.
    9000005    1    3    3    0    0 -0.54860980258E+02  0.17521333362E+02  0.25920492429E+02  0.63163250434E+02  0.10000000000E+01 0.  0.
<mgrwt>
<rscale>  0 0.12501559E+03</rscale>
<asrwt>0</asrwt>
<pdfrwt beam="2">  1        4 0.15224131E-01 0.12501559E+03</pdfrwt>
<pdfrwt beam="1">  1       -4 0.16040425E-01 0.12501559E+03</pdfrwt>
<totfact> 0.19824665E+03</totfact>
</mgrwt>
</event>
<event>
 5    1  0.1422067E-002  0.1249791E+03  0.7818608E-02  0.1235102E+00
         -4   -1    0    0    0  501 -0.00000000000E+00  0.00000000000E+00  0.55071366404E+03  0.55071512841E+03  0.12700000000E+01 0. -1.
          4   -1    0    0  501    0  0.00000000000E+00 -0.00000000000E+00 -0.70323432589E+01  0.71461004549E+01  0.12700000000E+01 0. -1.
         25    2    1    2    0    0  0.00000000000E+00  0.00000000000E+00  0.54368132078E+03  0.55786122886E+03  0.12497908667E+03 0.  0.
    9000005    1    3    3    0    0 -0.53698253499E+02  0.29436177997E+02  0.21645701579E+03  0.22495473031E+03  0.10000000000E+01 0.  0.
    9000005    1    3    3    0    0  0.53698253499E+02 -0.29436177997E+02  0.32722430499E+03  0.33290649856E+03  0.10000000000E+01 0.  0.
<mgrwt>
<rscale>  0 0.12497909E+03</rscale>
<asrwt>0</asrwt>
<pdfrwt beam="2">  1        4 0.17724885E-02 0.12497909E+03</pdfrwt>
<pdfrwt beam="1">  1       -4 0.13769282E+00 0.12497909E+03</pdfrwt>
<totfact> 0.79111231E+02</totfact>
</mgrwt>
</event>
<event>
 5    1  0.1422067E-002  0.1250139E+03  0.7818608E-02  0.1235048E+00
          4   -1    0    0  501    0  0.00000000000E+00  0.00000000000E+00  0.76848621375E+01  0.77890953308E+01  0.12700000000E+01 0.  1.
         -4   -1    0    0    0  501 -0.00000000000E+00 -0.00000000000E+00 -0.50488791065E+03  0.50488950793E+03  0.12700000000E+01 0.  1.
         25    2    1    2    0    0  0.00000000000E+00  0.00000000000E+00 -0.49720304851E+03  0.51267860327E+03  0.12501391440E+03 0.  0.
    9000005    1    3    3    0    0 -0.25844596343E+02  0.20726606483E+02 -0.31266073522E+02  0.45564270321E+02  0.10000000000E+01 0.  0.
    9000005    1    3    3    0    0  0.25844596343E+02 -0.20726606483E+02 -0.46593697499E+03  0.46711433294E+03  0.10000000000E+01 0.  0.
<mgrwt>
<rscale>  0 0.12501391E+03</rscale>
<asrwt>0</asrwt>
<pdfrwt beam="1">  1        4 0.19344461E-02 0.12501391E+03</pdfrwt>
<pdfrwt beam="2">  1       -4 0.12623510E+00 0.12501391E+03</pdfrwt>
<totfact> 0.85597980E+02</totfact>
</mgrwt>
</event>
<event>
 5    1  0.1422067E-002  0.1249955E+03  0.7818608E-02  0.1235076E+00
         -4   -1    0    0    0  501 -0.00000000000E+00  0.00000000000E+00  0.42675662942E+02  0.42694555947E+02  0.12700000000E+01 0.  1.
          4   -1    0    0  501    0  0.00000000000E+00 -0.00000000000E+00 -0.91483251941E+02  0.91492066791E+02  0.12700000000E+01 0.  1.
         25    2    1    2    0    0  0.00000000000E+00  0.00000000000E+00 -0.48807588999E+02  0.13418662274E+03  0.12499547583E+03 0.  0.
    9000005    1    3    3    0    0 -0.11073962505E+02 -0.40519498094E+02 -0.74071378944E+02  0.85158860666E+02  0.10000000000E+01 0.  0.
    9000005    1    3    3    0    0  0.11073962505E+02  0.40519498094E+02  0.25263789945E+02  0.49027762071E+02  0.10000000000E+01 0.  0.
<mgrwt>
<rscale>  0 0.12499548E+03</rscale>
<asrwt>0</asrwt>
<pdfrwt beam="2">  1        4 0.22874276E-01 0.12499548E+03</pdfrwt>
<pdfrwt beam="1">  1       -4 0.10672379E-01 0.12499548E+03</pdfrwt>
<totfact> 0.19343868E+03</totfact>
</mgrwt>
</event>
<event>
 5    1  0.1422067E-002  0.1250012E+03  0.7818608E-02  0.1235067E+00
          4   -1    0    0  501    0  0.00000000000E+00  0.00000000000E+00  0.14283477710E+03  0.14284042303E+03  0.12700000000E+01 0. -1.
         -4   -1    0    0    0  501 -0.00000000000E+00 -0.00000000000E+00 -0.27327635802E+02  0.27357130305E+02  0.12700000000E+01 0. -1.
         25    2    1    2    0    0  0.00000000000E+00  0.00000000000E+00  0.11550714130E+03  0.17019755333E+03  0.12500122987E+03 0.  0.
    9000005    1    3    3    0    0  0.47622179346E+01  0.42986550139E+02 -0.36650965367E+01  0.43416070125E+02  0.10000000000E+01 0.  0.
    9000005    1    3    3    0    0 -0.47622179346E+01 -0.42986550139E+02  0.11917223784E+03  0.12678148321E+03  0.10000000000E+01 0.  0.
<mgrwt>
<rscale>  0 0.12500123E+03</rscale>
<asrwt>0</asrwt>
<pdfrwt beam="1">  1        4 0.35713087E-01 0.12500123E+03</pdfrwt>
<pdfrwt beam="2">  1       -4 0.68363015E-02 0.12500123E+03</pdfrwt>
<totfact> 0.17587638E+03</totfact>
</mgrwt>
</event>
<event>
 5    1  0.1422067E-002  0.1249911E+03  0.7818608E-02  0.1235083E+00
         -4   -1    0    0    0  501 -0.00000000000E+00  0.00000000000E+00  0.54535830587E+03  0.54535978462E+03  0.12700000000E+01 0.  1.
          4   -1    0    0  501    0  0.00000000000E+00 -0.00000000000E+00 -0.71039016727E+01  0.72165309516E+01  0.12700000000E+01 0.  1.
         25    2    1    2    0    0  0.00000000000E+00  0.00000000000E+00  0.53825440420E+03  0.55257631557E+03  0.12499112326E+03 0.  0.
    9000005    1    3    3    0    0  0.56605867196E+02 -0.25694163650E+02  0.29718561435E+03  0.30361934000E+03  0.10000000000E+01 0.  0.
    9000005    1    3    3    0    0 -0.56605867196E+02  0.25694163650E+02  0.24106878985E+03  0.24895697557E+03  0.10000000000E+01 0.  0.
<mgrwt>
<rscale>  0 0.12499112E+03</rscale>
<asrwt>0</asrwt>
<pdfrwt beam="2">  1        4 0.17902391E-02 0.12499112E+03</pdfrwt>
<pdfrwt beam="1">  1       -4 0.13635383E+00 0.12499112E+03</pdfrwt>
<totfact> 0.79824987E+02</totfact>
</mgrwt>
</event>
<event>
 5    1  0.1422067E-002  0.1250013E+03  0.7818608E-02  0.1235067E+00
         -4   -1    0    0    0  501 -0.00000000000E+00  0.00000000000E+00  0.30940711453E+02  0.30966764849E+02  0.12700000000E+01 0. -1.
          4   -1    0    0  501    0  0.00000000000E+00 -0.00000000000E+00 -0.12616968745E+03  0.12617607908E+03  0.12700000000E+01 0. -1.
         25    2    1    2    0    0  0.00000000000E+00  0.00000000000E+00 -0.95228975999E+02  0.15714284393E+03  0.12500126211E+03 0.  0.
    9000005    1    3    3    0    0 -0.55805721399E+02 -0.23297252568E+01 -0.82850538871E+02  0.99924561305E+02  0.10000000000E+01 0.  0.
    9000005    1    3    3    0    0  0.55805721399E+02  0.23297252568E+01 -0.12378437127E+02  0.57218282623E+02  0.10000000000E+01 0.  0.
<mgrwt>
<rscale>  0 0.12500126E+03</rscale>
<asrwt>0</asrwt>
<pdfrwt beam="2">  1        4 0.31546476E-01 0.12500126E+03</pdfrwt>
<pdfrwt beam="1">  1       -4 0.77392338E-02 0.12500126E+03</pdfrwt>
<totfact> 0.18192517E+03</totfact>
</mgrwt>
</event>
<event>
 5    1  0.1422067E-002  0.1250064E+03  0.7818608E-02  0.1235059E+00
          4   -1    0    0  501    0  0.00000000000E+00  0.00000000000E+00  0.26000125997E+03  0.26000436167E+03  0.12700000000E+01 0. -1.
         -4   -1    0    0    0  501 -0.00000000000E+00 -0.00000000000E+00 -0.14995473682E+02  0.15049157151E+02  0.12700000000E+01 0. -1.
         25    2    1    2    0    0  0.00000000000E+00  0.00000000000E+00  0.24500578629E+03  0.27505351882E+03  0.12500641143E+03 0.  0.
    9000005    1    3    3    0    0  0.34900218388E+02  0.41460215814E+02  0.54021248137E+02  0.76526269929E+02  0.10000000000E+01 0.  0.
    9000005    1    3    3    0    0 -0.34900218388E+02 -0.41460215814E+02  0.19098453815E+03  0.19852724889E+03  0.10000000000E+01 0.  0.
<mgrwt>
<rscale>  0 0.12500641E+03</rscale>
<asrwt>0</asrwt>
<pdfrwt beam="1">  1        4 0.65007414E-01 0.12500641E+03</pdfrwt>
<pdfrwt beam="2">  1       -4 0.37559665E-02 0.12500641E+03</pdfrwt>
<totfact> 0.13698187E+03</totfact>
</mgrwt>
</event>
<event>
 5    1  0.1422067E-002  0.1250014E+03  0.7818608E-02  0.1235067E+00
         -4   -1    0    0    0  501 -0.00000000000E+00  0.00000000000E+00  0.13783115493E+02  0.13841501822E+02  0.12700000000E+01 0. -1.
          4   -1    0    0  501    0  0.00000000000E+00 -0.00000000000E+00 -0.28275599267E+03  0.28275884476E+03  0.12700000000E+01 0. -1.
         25    2    1    2    0    0  0.00000000000E+00  0.00000000000E+00 -0.26897287718E+03  0.29660034658E+03  0.12500142774E+03 0.  0.
    9000005    1    3    3    0    0  0.13388053313E+02  0.43888943406E+02 -0.33822010046E+02  0.57012346807E+02  0.10000000000E+01 0.  0.
    9000005    1    3    3    0    0 -0.13388053313E+02 -0.43888943406E+02 -0.23515086713E+03  0.23958799978E+03  0.10000000000E+01 0.  0.
<mgrwt>
<rscale>  0 0.12500143E+03</rscale>
<asrwt>0</asrwt>
<pdfrwt beam="2">  1        4 0.70696634E-01 0.12500143E+03</pdfrwt>
<pdfrwt beam="1">  1       -4 0.34534346E-02 0.12500143E+03</pdfrwt>
<totfact> 0.13066450E+03</totfact>
</mgrwt>
</event>
<event>
 5    1  0.1422067E-002  0.1249997E+03  0.7818608E-02  0.1235070E+00
         -4   -1    0    0    0  501 -0.00000000000E+00  0.00000000000E+00  0.10982803700E+03  0.10983537960E+03  0.12700000000E+01 0. -1.
          4   -1    0    0  501    0  0.00000000000E+00 -0.00000000000E+00 -0.35546897816E+02  0.35569577512E+02  0.12700000000E+01 0. -1.
         25    2    1    2    0    0  0.00000000000E+00  0.00000000000E+00  0.74281139186E+02  0.14540495711E+03  0.12499965566E+03 0.  0.
    9000005    1    3    3    0    0 -0.14114091804E+02  0.60813372256E+02  0.33901268013E+02  0.71047658691E+02  0.10000000000E+01 0.  0.
    9000005    1    3    3    0    0  0.14114091804E+02 -0.60813372256E+02  0.40379871173E+02  0.74357298421E+02  0.10000000000E+01 0.  0.
<mgrwt>
<rscale>  0 0.12499966E+03</rscale>
<asrwt>0</asrwt>
<pdfrwt beam="2">  1        4 0.88904773E-02 0.12499966E+03</pdfrwt>
<pdfrwt beam="1">  1       -4 0.27460762E-01 0.12499966E+03</pdfrwt>
<totfact> 0.18767202E+03</totfact>
</mgrwt>
</event>
<event>
 5    1  0.1422067E-002  0.1250100E+03  0.7818608E-02  0.1235054E+00
         -4   -1    0    0    0  501 -0.00000000000E+00  0.00000000000E+00  0.11735177542E+04  0.11735184414E+04  0.12700000000E+01 0. -1.
          4   -1    0    0  501    0  0.00000000000E+00 -0.00000000000E+00 -0.32073699688E+01  0.34496553621E+01  0.12700000000E+01 0. -1.
         25    2    1    2    0    0  0.00000000000E+00  0.00000000000E+00  0.11703103842E+04  0.11769680968E+04  0.12501002109E+03 0.  0.
    9000005    1    3    3    0    0  0.60776772947E+02  0.10031229086E+01  0.44837707754E+03  0.45247964159E+03  0.10000000000E+01 0.  0.
    9000005    1    3    3    0    0 -0.60776772947E+02 -0.10031229086E+01  0.72193330669E+03  0.72448845518E+03  0.10000000000E+01 0.  0.
<mgrwt>
<rscale>  0 0.12501002E+03</rscale>
<asrwt>0</asrwt>
<pdfrwt beam="2">  1        4 0.83221478E-03 0.12501002E+03</pdfrwt>
<pdfrwt beam="1">  1       -4 0.29340956E+00 0.12501002E+03</pdfrwt>
<totfact> 0.26419344E+02</totfact>
</mgrwt>
</event>
<event>
 5    1  0.1422067E-002  0.1249966E+03  0.7818608E-02  0.1235075E+00
          4   -1    0    0  501    0  0.00000000000E+00  0.00000000000E+00  0.61985167521E+02  0.61998176526E+02  0.12700000000E+01 0. -1.
         -4   -1    0    0    0  501 -0.00000000000E+00 -0.00000000000E+00 -0.62989644787E+02  0.63002446384E+02  0.12700000000E+01 0. -1.
         25    2    1    2    0    0  0.00000000000E+00  0.00000000000E+00 -0.10044772660E+01  0.12500062291E+03  0.12499658697E+03 0.  0.
    9000005    1    3    3    0    0  0.81502433310E+01 -0.37827013298E+02  0.48567943483E+02  0.62105994361E+02  0.10000000000E+01 0.  0.
    9000005    1    3    3    0    0 -0.81502433310E+01  0.37827013298E+02 -0.49572420749E+02  0.62894628549E+02  0.10000000000E+01 0.  0.
<mgrwt>
<rscale>  0 0.12499659E+03</rscale>
<asrwt>0</asrwt>
<pdfrwt beam="1">  1        4 0.15499518E-01 0.12499659E+03</pdfrwt>
<pdfrwt beam="2">  1       -4 0.15750638E-01 0.12499659E+03</pdfrwt>
<totfact> 0.19836606E+03</totfact>
</mgrwt>
</event>
<event>
 5    1  0.1422067E-002  0.1249987E+03  0.7818608E-02  0.1235071E+00
          4   -1    0    0  501    0  0.00000000000E+00  0.00000000000E+00  0.16167474335E+02  0.16217278637E+02  0.12700000000E+01 0. -1.
         -4   -1    0    0    0  501 -0.00000000000E+00 -0.00000000000E+00 -0.24118347521E+03  0.24118681891E+03  0.12700000000E+01 0. -1.
         25    2    1    2    0    0  0.00000000000E+00  0.00000000000E+00 -0.22501600087E+03  0.25740409754E+03  0.12499867512E+03 0.  0.
    9000005    1    3    3    0    0 -0.16357749198E+02  0.44707576960E+01 -0.23636499357E+03  0.23697462695E+03  0.10000000000E+01 0.  0.
    9000005    1    3    3    0    0  0.16357749198E+02 -0.44707576960E+01  0.11348992700E+02  0.20429470588E+02  0.10000000000E+01 0.  0.
<mgrwt>
<rscale>  0 0.12499868E+03</rscale>
<asrwt>0</asrwt>
<pdfrwt beam="1">  1        4 0.40485129E-02 0.12499868E+03</pdfrwt>
<pdfrwt beam="2">  1       -4 0.60302501E-01 0.12499868E+03</pdfrwt>
<totfact> 0.14255325E+03</totfact>
</mgrwt>
</event>
<event>
 5    1  0.1422067E-002  0.1250065E+03  0.7818608E-02  0.1235059E+00
         -4   -1    0    0    0  501 -0.00000000000E+00  0.00000000000E+00  0.27124923202E+02  0.27154637886E+02  0.12700000000E+01 0. -1.
          4   -1    0    0  501    0  0.00000000000E+00 -0.00000000000E+00 -0.14391317023E+03  0.14391877385E+03  0.12700000000E+01 0. -1.
         25    2    1    2    0    0  0.00000000000E+00  0.00000000000E+00 -0.11678824703E+03  0.17107341173E+03  0.12500647007E+03 0.  0.
    9000005    1    3    3    0    0  0.91750126234E+01  0.21166335803E+02  0.21091354809E+02  0.31273629077E+02  0.10000000000E+01 0.  0.
    9000005    1    3    3    0    0 -0.91750126234E+01 -0.21166335803E+02 -0.13787960184E+03  0.13979978266E+03  0.10000000000E+01 0.  0.
<mgrwt>
<rscale>  0 0.12500647E+03</rscale>
<asrwt>0</asrwt>
<pdfrwt beam="2">  1        4 0.35982705E-01 0.12500647E+03</pdfrwt>
<pdfrwt beam="1">  1       -4 0.67856460E-02 0.12500647E+03</pdfrwt>
<totfact> 0.17546105E+03</totfact>
</mgrwt>
</event>
<event>
 5    1  0.1422067E-002  0.1249978E+03  0.7818608E-02  0.1235073E+00
          4   -1    0    0  501    0  0.00000000000E+00  0.00000000000E+00  0.28580235226E+03  0.28580517395E+03  0.12700000000E+01 0. -1.
         -4   -1    0    0    0  501 -0.00000000000E+00 -0.00000000000E+00 -0.13634772857E+02  0.13693791691E+02  0.12700000000E+01 0. -1.
         25    2    1    2    0    0  0.00000000000E+00  0.00000000000E+00  0.27216757940E+03  0.29949896564E+03  0.12499775655E+03 0.  0.
    9000005    1    3    3    0    0 -0.41748592923E+02 -0.76370370825E+01  0.26183330315E+02  0.49878213007E+02  0.10000000000E+01 0.  0.
    9000005    1    3    3    0    0  0.41748592923E+02  0.76370370825E+01  0.24598424909E+03  0.24962075263E+03  0.10000000000E+01 0.  0.
<mgrwt>
<rscale>  0 0.12499776E+03</rscale>
<asrwt>0</asrwt>
<pdfrwt beam="1">  1        4 0.71458318E-01 0.12499776E+03</pdfrwt>
<pdfrwt beam="2">  1       -4 0.34164233E-02 0.12499776E+03</pdfrwt>
<totfact> 0.12985777E+03</totfact>
</mgrwt>
</event>
<event>
 5    1  0.1422067E-002  0.1249991E+03  0.7818608E-02  0.1235071E+00
          4   -1    0    0  501    0  0.00000000000E+00  0.00000000000E+00  0.14700656908E+02  0.14755413025E+02  0.12700000000E+01 0.  1.
         -4   -1    0    0    0  501 -0.00000000000E+00 -0.00000000000E+00 -0.26516531003E+03  0.26516835133E+03  0.12700000000E+01 0.  1.
         25    2    1    2    0    0  0.00000000000E+00  0.00000000000E+00 -0.25046465313E+03  0.27992376435E+03  0.12499908553E+03 0.  0.
    9000005    1    3    3    0    0 -0.24994308038E+00  0.27838838785E+02  0.57002023789E-01  0.27857973108E+02  0.10000000000E+01 0.  0.
    9000005    1    3    3    0    0  0.24994308038E+00 -0.27838838785E+02 -0.25052165515E+03  0.25206579124E+03  0.10000000000E+01 0.  0.
<mgrwt>
<rscale>  0 0.12499909E+03</rscale>
<asrwt>0</asrwt>
<pdfrwt beam="1">  1        4 0.36823898E-02 0.12499909E+03</pdfrwt>
<pdfrwt beam="2">  1       -4 0.66298537E-01 0.12499909E+03</pdfrwt>
<totfact> 0.13553276E+03</totfact>
</mgrwt>
</event>
<event>
 5    1  0.1422067E-002  0.1250021E+03  0.7818608E-02  0.1235066E+00
          4   -1    0    0  501    0  0.00000000000E+00  0.00000000000E+00  0.29814641901E+03  0.29814912388E+03  0.12700000000E+01 0. -1.
         -4   -1    0    0    0  501 -0.00000000000E+00 -0.00000000000E+00 -0.13068668128E+02  0.13130231781E+02  0.12700000000E+01 0. -1.
         25    2    1    2    0    0  0.00000000000E+00  0.00000000000E+00  0.28507775088E+03  0.31127935566E+03  0.12500205283E+03 0.  0.
    9000005    1    3    3    0    0 -0.48888244412E+01 -0.49717544675E+02  0.49043998907E+02  0.70014631911E+02  0.10000000000E+01 0.  0.
    9000005    1    3    3    0    0  0.48888244412E+01  0.49717544675E+02  0.23603375198E+03  0.24126472375E+03  0.10000000000E+01 0.  0.
<mgrwt>
<rscale>  0 0.12500205E+03</rscale>
<asrwt>0</asrwt>
<pdfrwt beam="1">  1        4 0.74544642E-01 0.12500205E+03</pdfrwt>
<pdfrwt beam="2">  1       -4 0.32752004E-02 0.12500205E+03</pdfrwt>
<totfact> 0.12660122E+03</totfact>
</mgrwt>
</event>
<event>
 5    1  0.1422067E-002  0.1250004E+03  0.7818608E-02  0.1235069E+00
         -4   -1    0    0    0  501 -0.00000000000E+00  0.00000000000E+00  0.36976596693E+01  0.39096786351E+01  0.12700000000E+01 0. -1.
          4   -1    0    0  501    0  0.00000000000E+00 -0.00000000000E+00 -0.10267634089E+04  0.10267641943E+04  0.12700000000E+01 0. -1.
         25    2    1    2    0    0  0.00000000000E+00  0.00000000000E+00 -0.10230657492E+04  0.10306738729E+04  0.12500042064E+03 0.  0.
    9000005    1    3    3    0    0 -0.47656797883E+02 -0.32504139120E+02 -0.31337175854E+03  0.31863858601E+03  0.10000000000E+01 0.  0.
    9000005    1    3    3    0    0  0.47656797883E+02  0.32504139120E+02 -0.70969399066E+03  0.71203528692E+03  0.10000000000E+01 0.  0.
<mgrwt>
<rscale>  0 0.12500042E+03</rscale>
<asrwt>0</asrwt>
<pdfrwt beam="2">  1        4 0.25671650E+00 0.12500042E+03</pdfrwt>
<pdfrwt beam="1">  1       -4 0.95101898E-03 0.12500042E+03</pdfrwt>
<totfact> 0.35084235E+02</totfact>
</mgrwt>
</event>
<event>
 5    1  0.1422067E-002  0.1249928E+03  0.7818608E-02  0.1235081E+00
          4   -1    0    0  501    0  0.00000000000E+00  0.00000000000E+00  0.61524150751E+02  0.61537257215E+02  0.12700000000E+01 0. -1.
         -4   -1    0    0    0  501 -0.00000000000E+00 -0.00000000000E+00 -0.63457763752E+02  0.63470470933E+02  0.12700000000E+01 0. -1.
         25    2    1    2    0    0  0.00000000000E+00  0.00000000000E+00 -0.19336130015E+01  0.12500772815E+03  0.12499277274E+03 0.  0.
    9000005    1    3    3    0    0  0.41087129815E+02  0.37188367511E+02  0.27910016465E+02  0.62057198886E+02  0.10000000000E+01 0.  0.
    9000005    1    3    3    0    0 -0.41087129815E+02 -0.37188367511E+02 -0.29843629466E+02  0.62950529261E+02  0.10000000000E+01 0.  0.
<mgrwt>
<rscale>  0 0.12499277E+03</rscale>
<asrwt>0</asrwt>
<pdfrwt beam="1">  1        4 0.15384264E-01 0.12499277E+03</pdfrwt>
<pdfrwt beam="2">  1       -4 0.15867668E-01 0.12499277E+03</pdfrwt>
<totfact> 0.19837991E+03</totfact>
</mgrwt>
</event>
<event>
 5    1  0.1422067E-002  0.1249981E+03  0.7818608E-02  0.1235072E+00
         -4   -1    0    0    0  501 -0.00000000000E+00  0.00000000000E+00  0.12502057524E+03  0.12502702562E+03  0.12700000000E+01 0.  1.
          4   -1    0    0  501    0  0.00000000000E+00 -0.00000000000E+00 -0.31223747528E+02  0.31249564952E+02  0.12700000000E+01 0.  1.
         25    2    1    2    0    0  0.00000000000E+00  0.00000000000E+00  0.93796827717E+02  0.15627659057E+03  0.12499811147E+03 0.  0.
    9000005    1    3    3    0    0 -0.30139666596E+02 -0.54714774361E+02  0.44723610342E+02  0.76832983529E+02  0.10000000000E+01 0.  0.
    9000005    1    3    3    0    0  0.30139666596E+02  0.54714774361E+02  0.49073217375E+02  0.79443607040E+02  0.10000000000E+01 0.  0.
<mgrwt>
<rscale>  0 0.12499811E+03</rscale>
<asrwt>0</asrwt>
<pdfrwt beam="2">  1        4 0.78099705E-02 0.12499811E+03</pdfrwt>
<pdfrwt beam="1">  1       -4 0.31259177E-01 0.12499811E+03</pdfrwt>
<totfact> 0.18235205E+03</totfact>
</mgrwt>
</event>
<event>
 5    1  0.1422067E-002  0.1250002E+03  0.7818608E-02  0.1235069E+00
          4   -1    0    0  501    0  0.00000000000E+00  0.00000000000E+00  0.68134679958E+02  0.68146515046E+02  0.12700000000E+01 0. -1.
         -4   -1    0    0    0  501 -0.00000000000E+00 -0.00000000000E+00 -0.57307606101E+02  0.57321676677E+02  0.12700000000E+01 0. -1.
         25    2    1    2    0    0  0.00000000000E+00  0.00000000000E+00  0.10827073856E+02  0.12546819172E+03  0.12500016642E+03 0.  0.
    9000005    1    3    3    0    0  0.17431785074E+02 -0.53916578165E+02 -0.21036520063E+02  0.60451631146E+02  0.10000000000E+01 0.  0.
    9000005    1    3    3    0    0 -0.17431785074E+02  0.53916578165E+02  0.31863593919E+02  0.65016560577E+02  0.10000000000E+01 0.  0.
<mgrwt>
<rscale>  0 0.12500017E+03</rscale>
<asrwt>0</asrwt>
<pdfrwt beam="1">  1        4 0.17036908E-01 0.12500017E+03</pdfrwt>
<pdfrwt beam="2">  1       -4 0.14330140E-01 0.12500017E+03</pdfrwt>
<totfact> 0.19809608E+03</totfact>
</mgrwt>
</event>
<event>
 5    1  0.1422067E-002  0.1249989E+03  0.7818608E-02  0.1235071E+00
         -4   -1    0    0    0  501 -0.00000000000E+00  0.00000000000E+00  0.25813168197E+03  0.25813480613E+03  0.12700000000E+01 0. -1.
          4   -1    0    0  501    0  0.00000000000E+00 -0.00000000000E+00 -0.15102639120E+02  0.15155943005E+02  0.12700000000E+01 0. -1.
         25    2    1    2    0    0  0.00000000000E+00  0.00000000000E+00  0.24302904285E+03  0.27329074914E+03  0.12499887158E+03 0.  0.
    9000005    1    3    3    0    0  0.58075010358E+02 -0.23039997997E+02  0.12430683504E+03  0.13912849304E+03  0.10000000000E+01 0.  0.
    9000005    1    3    3    0    0 -0.58075010358E+02  0.23039997997E+02  0.11872220781E+03  0.13416225610E+03  0.10000000000E+01 0.  0.
<mgrwt>
<rscale>  0 0.12499887E+03</rscale>
<asrwt>0</asrwt>
<pdfrwt beam="2">  1        4 0.37827133E-02 0.12499887E+03</pdfrwt>
<pdfrwt beam="1">  1       -4 0.64539974E-01 0.12499887E+03</pdfrwt>
<totfact> 0.13754450E+03</totfact>
</mgrwt>
</event>
<event>
 5    1  0.1422067E-002  0.1250065E+03  0.7818608E-02  0.1235059E+00
         -4   -1    0    0    0  501 -0.00000000000E+00  0.00000000000E+00  0.37207415940E+02  0.37229084073E+02  0.12700000000E+01 0. -1.
          4   -1    0    0  501    0  0.00000000000E+00 -0.00000000000E+00 -0.10494056780E+03  0.10494825234E+03  0.12700000000E+01 0. -1.
         25    2    1    2    0    0  0.00000000000E+00  0.00000000000E+00 -0.67733151858E+02  0.14217733642E+03  0.12500646035E+03 0.  0.
    9000005    1    3    3    0    0  0.45277065480E+01  0.49344629610E+02  0.94466995416E+01  0.50454263746E+02  0.10000000000E+01 0.  0.
    9000005    1    3    3    0    0 -0.45277065480E+01 -0.49344629610E+02 -0.77179851400E+02  0.91723072670E+02  0.10000000000E+01 0.  0.
<mgrwt>
<rscale>  0 0.12500646E+03</rscale>
<asrwt>0</asrwt>
<pdfrwt beam="2">  1        4 0.26238810E-01 0.12500646E+03</pdfrwt>
<pdfrwt beam="1">  1       -4 0.93055233E-02 0.12500646E+03</pdfrwt>
<totfact> 0.18926651E+03</totfact>
</mgrwt>
</event>
<event>
 5    1  0.1422067E-002  0.1250165E+03  0.7818608E-02  0.1235044E+00
         -4   -1    0    0    0  501 -0.00000000000E+00  0.00000000000E+00  0.19878587548E+02  0.19919115013E+02  0.12700000000E+01 0. -1.
          4   -1    0    0  501    0  0.00000000000E+00 -0.00000000000E+00 -0.19631446581E+03  0.19631857372E+03  0.12700000000E+01 0. -1.
         25    2    1    2    0    0  0.00000000000E+00  0.00000000000E+00 -0.17643587827E+03  0.21623768873E+03  0.12501647447E+03 0.  0.
    9000005    1    3    3    0    0 -0.26745646978E+02 -0.52483250465E+02 -0.12435356878E+03  0.13760316596E+03  0.10000000000E+01 0.  0.
    9000005    1    3    3    0    0  0.26745646978E+02  0.52483250465E+02 -0.52082309481E+02  0.78634522778E+02  0.10000000000E+01 0.  0.
<mgrwt>
<rscale>  0 0.12501647E+03</rscale>
<asrwt>0</asrwt>
<pdfrwt beam="2">  1        4 0.49084190E-01 0.12501647E+03</pdfrwt>
<pdfrwt beam="1">  1       -4 0.49752269E-02 0.12501647E+03</pdfrwt>
<totfact> 0.15685899E+03</totfact>
</mgrwt>
</event>
<event>
 5    1  0.1422067E-002  0.1249987E+03  0.7818608E-02  0.1235071E+00
          4   -1    0    0  501    0  0.00000000000E+00  0.00000000000E+00  0.21680558701E+03  0.21680930667E+03  0.12700000000E+01 0.  1.
         -4   -1    0    0    0  501 -0.00000000000E+00 -0.00000000000E+00 -0.17990670066E+02  0.18035440372E+02  0.12700000000E+01 0.  1.
         25    2    1    2    0    0  0.00000000000E+00  0.00000000000E+00  0.19881491694E+03  0.23484474704E+03  0.12499873605E+03 0.  0.
    9000005    1    3    3    0    0  0.22103110409E+02 -0.58329006508E+02  0.92290262074E+02  0.11139709585E+03  0.10000000000E+01 0.  0.
    9000005    1    3    3    0    0 -0.22103110409E+02  0.58329006508E+02  0.10652465487E+03  0.12344765119E+03  0.10000000000E+01 0.  0.
<mgrwt>
<rscale>  0 0.12499874E+03</rscale>
<asrwt>0</asrwt>
<pdfrwt beam="1">  1        4 0.54207457E-01 0.12499874E+03</pdfrwt>
<pdfrwt beam="2">  1       -4 0.45037289E-02 0.12499874E+03</pdfrwt>
<totfact> 0.15016167E+03</totfact>
</mgrwt>
</event>
<event>
 5    1  0.1422067E-002  0.1250032E+03  0.7818608E-02  0.1235064E+00
          4   -1    0    0  501    0  0.00000000000E+00  0.00000000000E+00  0.13853151594E+04  0.13853157415E+04  0.12700000000E+01 0.  1.
         -4   -1    0    0    0  501 -0.00000000000E+00 -0.00000000000E+00 -0.26762929386E+01  0.29623375724E+01  0.12700000000E+01 0.  1.
         25    2    1    2    0    0  0.00000000000E+00  0.00000000000E+00  0.13826388665E+04  0.13882780791E+04  0.12500315956E+03 0.  0.
    9000005    1    3    3    0    0  0.35795705832E+02 -0.30072311466E+02  0.23075458644E+03  0.23544501616E+03  0.10000000000E+01 0.  0.
    9000005    1    3    3    0    0 -0.35795705832E+02  0.30072311466E+02  0.11518842800E+04  0.11528330629E+04  0.10000000000E+01 0.  0.
<mgrwt>
<rscale>  0 0.12500316E+03</rscale>
<asrwt>0</asrwt>
<pdfrwt beam="1">  1        4 0.34636486E+00 0.12500316E+03</pdfrwt>
<pdfrwt beam="2">  1       -4 0.70490109E-03 0.12500316E+03</pdfrwt>
<totfact> 0.16549576E+02</totfact>
</mgrwt>
</event>
<event>
 5    1  0.1422067E-002  0.1249986E+03  0.7818608E-02  0.1235072E+00
          4   -1    0    0  501    0  0.00000000000E+00  0.00000000000E+00  0.15073058195E+03  0.15073593213E+03  0.12700000000E+01 0.  1.
         -4   -1    0    0    0  501 -0.00000000000E+00 -0.00000000000E+00 -0.25893480184E+02  0.25924606382E+02  0.12700000000E+01 0.  1.
         25    2    1    2    0    0  0.00000000000E+00  0.00000000000E+00  0.12483710177E+03  0.17666053852E+03  0.12499857555E+03 0.  0.
    9000005    1    3    3    0    0  0.14174950881E+02 -0.45796650465E+01  0.14819154698E+03  0.14894172405E+03  0.10000000000E+01 0.  0.
    9000005    1    3    3    0    0 -0.14174950881E+02  0.45796650465E+01 -0.23354445213E+02  0.27718814470E+02  0.10000000000E+01 0.  0.
<mgrwt>
<rscale>  0 0.12499858E+03</rscale>
<asrwt>0</asrwt>
<pdfrwt beam="1">  1        4 0.37687205E-01 0.12499858E+03</pdfrwt>
<pdfrwt beam="2">  1       -4 0.64779297E-02 0.12499858E+03</pdfrwt>
<totfact> 0.17301318E+03</totfact>
</mgrwt>
</event>
<event>
 5    1  0.1422067E-002  0.1250050E+03  0.7818608E-02  0.1235062E+00
         -4   -1    0    0    0  501 -0.00000000000E+00  0.00000000000E+00  0.17020693893E+02  0.17068008689E+02  0.12700000000E+01 0.  1.
          4   -1    0    0  501    0  0.00000000000E+00 -0.00000000000E+00 -0.22915058937E+03  0.22915410864E+03  0.12700000000E+01 0.  1.
         25    2    1    2    0    0  0.00000000000E+00  0.00000000000E+00 -0.21212989547E+03  0.24622211733E+03  0.12500495394E+03 0.  0.
    9000005    1    3    3    0    0  0.31843479051E+02  0.35115138508E+02 -0.18627981944E+03  0.19221927906E+03  0.10000000000E+01 0.  0.
    9000005    1    3    3    0    0 -0.31843479051E+02 -0.35115138508E+02 -0.25850076031E+02  0.54002838271E+02  0.10000000000E+01 0.  0.
<mgrwt>
<rscale>  0 0.12500495E+03</rscale>
<asrwt>0</asrwt>
<pdfrwt beam="2">  1        4 0.57293992E-01 0.12500495E+03</pdfrwt>
<pdfrwt beam="1">  1       -4 0.42615285E-02 0.12500495E+03</pdfrwt>
<totfact> 0.14622807E+03</totfact>
</mgrwt>
</event>
<event>
 5    1  0.1422067E-002  0.1250044E+03  0.7818608E-02  0.1235062E+00
          4   -1    0    0  501    0  0.00000000000E+00  0.00000000000E+00  0.88800406038E+02  0.88809487176E+02  0.12700000000E+01 0. -1.
         -4   -1    0    0    0  501 -0.00000000000E+00 -0.00000000000E+00 -0.43971696428E+02  0.43990032811E+02  0.12700000000E+01 0. -1.
         25    2    1    2    0    0  0.00000000000E+00  0.00000000000E+00  0.44828709610E+02  0.13279951999E+03  0.12500439714E+03 0.  0.
    9000005    1    3    3    0    0  0.53133211717E+02 -0.30541892834E+02  0.94214236090E+01  0.62013777728E+02  0.10000000000E+01 0.  0.
    9000005    1    3    3    0    0 -0.53133211717E+02  0.30541892834E+02  0.35407286001E+02  0.70785742260E+02  0.10000000000E+01 0.  0.
<mgrwt>
<rscale>  0 0.12500440E+03</rscale>
<asrwt>0</asrwt>
<pdfrwt beam="1">  1        4 0.22203529E-01 0.12500440E+03</pdfrwt>
<pdfrwt beam="2">  1       -4 0.10996351E-01 0.12500440E+03</pdfrwt>
<totfact> 0.19413034E+03</totfact>
</mgrwt>
</event>
<event>
 5    1  0.1422067E-002  0.1250027E+03  0.7818608E-02  0.1235065E+00
          4   -1    0    0  501    0  0.00000000000E+00  0.00000000000E+00  0.25253187560E+02  0.25285101976E+02  0.12700000000E+01 0. -1.
         -4   -1    0    0    0  501 -0.00000000000E+00 -0.00000000000E+00 -0.15455791221E+03  0.15456312991E+03  0.12700000000E+01 0. -1.
         25    2    1    2    0    0  0.00000000000E+00  0.00000000000E+00 -0.12930472465E+03  0.17984823189E+03  0.12500269875E+03 0.  0.
    9000005    1    3    3    0    0 -0.45237702023E+02  0.19152665398E+01 -0.12662413834E+03  0.13447970234E+03  0.10000000000E+01 0.  0.
    9000005    1    3    3    0    0  0.45237702023E+02 -0.19152665398E+01 -0.26805863095E+01  0.45368529546E+02  0.10000000000E+01 0.  0.
<mgrwt>
<rscale>  0 0.12500270E+03</rscale>
<asrwt>0</asrwt>
<pdfrwt beam="1">  1        4 0.63179388E-02 0.12500270E+03</pdfrwt>
<pdfrwt beam="2">  1       -4 0.38644117E-01 0.12500270E+03</pdfrwt>
<totfact> 0.17160711E+03</totfact>
</mgrwt>
</event>
<event>
 5    1  0.1422067E-002  0.1250024E+03  0.7818608E-02  0.1235066E+00
          4   -1    0    0  501    0  0.00000000000E+00  0.00000000000E+00  0.30761743296E+03  0.30762005455E+03  0.12700000000E+01 0.  1.
         -4   -1    0    0    0  501 -0.00000000000E+00 -0.00000000000E+00 -0.12664446003E+02  0.12727964981E+02  0.12700000000E+01 0.  1.
         25    2    1    2    0    0  0.00000000000E+00  0.00000000000E+00  0.29495298696E+03  0.32034801953E+03  0.12500235639E+03 0.  0.
    9000005    1    3    3    0    0 -0.16288847723E+02  0.45830608441E+01  0.30164728828E+03  0.30212318271E+03  0.10000000000E+01 0.  0.
    9000005    1    3    3    0    0  0.16288847723E+02 -0.45830608441E+01 -0.66943013218E+01  0.18224836818E+02  0.10000000000E+01 0.  0.
<mgrwt>
<rscale>  0 0.12500236E+03</rscale>
<asrwt>0</asrwt>
<pdfrwt beam="1">  1        4 0.76912626E-01 0.12500236E+03</pdfrwt>
<pdfrwt beam="2">  1       -4 0.31743790E-02 0.12500236E+03</pdfrwt>
<totfact> 0.12418666E+03</totfact>
</mgrwt>
</event>
<event>
 5    1  0.1422067E-002  0.1250021E+03  0.7818608E-02  0.1235066E+00
         -4   -1    0    0    0  501 -0.00000000000E+00  0.00000000000E+00  0.13775107241E+03  0.13775692669E+03  0.12700000000E+01 0. -1.
          4   -1    0    0  501    0  0.00000000000E+00 -0.00000000000E+00 -0.28337581501E+02  0.28366025900E+02  0.12700000000E+01 0. -1.
         25    2    1    2    0    0  0.00000000000E+00  0.00000000000E+00  0.10941349091E+03  0.16612295258E+03  0.12500209351E+03 0.  0.
    9000005    1    3    3    0    0 -0.43584244508E+02 -0.17126101599E+02 -0.28867402794E+00  0.46839866119E+02  0.10000000000E+01 0.  0.
    9000005    1    3    3    0    0  0.43584244508E+02  0.17126101599E+02  0.10970216494E+03  0.11928308647E+03  0.10000000000E+01 0.  0.
<mgrwt>
<rscale>  0 0.12500209E+03</rscale>
<asrwt>0</asrwt>
<pdfrwt beam="2">  1        4 0.70886828E-02 0.12500209E+03</pdfrwt>
<pdfrwt beam="1">  1       -4 0.34442055E-01 0.12500209E+03</pdfrwt>
<totfact> 0.17772485E+03</totfact>
</mgrwt>
</event>
<event>
 5    1  0.1422067E-002  0.1250025E+03  0.7818608E-02  0.1235065E+00
          4   -1    0    0  501    0  0.00000000000E+00  0.00000000000E+00  0.83403036519E+02  0.83412705271E+02  0.12700000000E+01 0. -1.
         -4   -1    0    0    0  501 -0.00000000000E+00 -0.00000000000E+00 -0.46816699048E+02  0.46833921571E+02  0.12700000000E+01 0. -1.
         25    2    1    2    0    0  0.00000000000E+00  0.00000000000E+00  0.36586337471E+02  0.13024662684E+03  0.12500249483E+03 0.  0.
    9000005    1    3    3    0    0  0.57485278709E+02 -0.83057665871E+01 -0.57364927670E+01  0.58373370437E+02  0.10000000000E+01 0.  0.
    9000005    1    3    3    0    0 -0.57485278709E+02  0.83057665871E+01  0.42322830238E+02  0.71873256405E+02  0.10000000000E+01 0.  0.
<mgrwt>
<rscale>  0 0.12500249E+03</rscale>
<asrwt>0</asrwt>
<pdfrwt beam="1">  1        4 0.20854120E-01 0.12500249E+03</pdfrwt>
<pdfrwt beam="2">  1       -4 0.11707536E-01 0.12500249E+03</pdfrwt>
<totfact> 0.19549995E+03</totfact>
</mgrwt>
</event>
<event>
 5    1  0.1422067E-002  0.1249887E+03  0.7818608E-02  0.1235087E+00
         -4   -1    0    0    0  501 -0.00000000000E+00  0.00000000000E+00  0.26278181685E+03  0.26278488573E+03  0.12700000000E+01 0. -1.
          4   -1    0    0  501    0  0.00000000000E+00 -0.00000000000E+00 -0.14832023847E+02  0.14886296766E+02  0.12700000000E+01 0. -1.
         25    2    1    2    0    0  0.00000000000E+00  0.00000000000E+00  0.24794979301E+03  0.27767118250E+03  0.12498874244E+03 0.  0.
    9000005    1    3    3    0    0  0.41759676475E+02  0.35059308578E+02  0.19177903074E+03  0.19938210132E+03  0.10000000000E+01 0.  0.
    9000005    1    3    3    0    0 -0.41759676475E+02 -0.35059308578E+02  0.56170762270E+02  0.78289081175E+02  0.10000000000E+01 0.  0.
<mgrwt>
<rscale>  0 0.12498874E+03</rscale>
<asrwt>0</asrwt>
<pdfrwt beam="2">  1        4 0.37151737E-02 0.12498874E+03</pdfrwt>
<pdfrwt beam="1">  1       -4 0.65702622E-01 0.12498874E+03</pdfrwt>
<totfact> 0.13624294E+03</totfact>
</mgrwt>
</event>
<event>
 5    1  0.1422067E-002  0.1249998E+03  0.7818608E-02  0.1235070E+00
          4   -1    0    0  501    0  0.00000000000E+00  0.00000000000E+00  0.33239657760E+03  0.33239900376E+03  0.12700000000E+01 0. -1.
         -4   -1    0    0    0  501 -0.00000000000E+00 -0.00000000000E+00 -0.11714943279E+02  0.11783581630E+02  0.12700000000E+01 0. -1.
         25    2    1    2    0    0  0.00000000000E+00  0.00000000000E+00  0.32068163432E+03  0.34418258539E+03  0.12499976598E+03 0.  0.
    9000005    1    3    3    0    0 -0.35425752142E+02 -0.49550700914E+02  0.19878885370E+03  0.20791407896E+03  0.10000000000E+01 0.  0.
    9000005    1    3    3    0    0  0.35425752142E+02  0.49550700914E+02  0.12189278062E+03  0.13626850643E+03  0.10000000000E+01 0.  0.
<mgrwt>
<rscale>  0 0.12499977E+03</rscale>
<asrwt>0</asrwt>
<pdfrwt beam="1">  1        4 0.83108024E-01 0.12499977E+03</pdfrwt>
<pdfrwt beam="2">  1       -4 0.29376190E-02 0.12499977E+03</pdfrwt>
<totfact> 0.11817354E+03</totfact>
</mgrwt>
</event>
<event>
 5    1  0.1422067E-002  0.1250056E+03  0.7818608E-02  0.1235060E+00
         -4   -1    0    0    0  501 -0.00000000000E+00  0.00000000000E+00  0.22599933431E+02  0.22635589038E+02  0.12700000000E+01 0.  1.
          4   -1    0    0  501    0  0.00000000000E+00 -0.00000000000E+00 -0.17268480429E+03  0.17268947429E+03  0.12700000000E+01 0.  1.
         25    2    1    2    0    0  0.00000000000E+00  0.00000000000E+00 -0.15008487086E+03  0.19532506333E+03  0.12500564749E+03 0.  0.
    9000005    1    3    3    0    0 -0.14576206091E+00 -0.62270204223E+02 -0.66773802943E+02  0.91309037559E+02  0.10000000000E+01 0.  0.
    9000005    1    3    3    0    0  0.14576206091E+00  0.62270204223E+02 -0.83311067913E+02  0.10401602577E+03  0.10000000000E+01 0.  0.
<mgrwt>
<rscale>  0 0.12500565E+03</rscale>
<asrwt>0</asrwt>
<pdfrwt beam="2">  1        4 0.43176238E-01 0.12500565E+03</pdfrwt>
<pdfrwt beam="1">  1       -4 0.56550246E-02 0.12500565E+03</pdfrwt>
<totfact> 0.16508804E+03</totfact>
</mgrwt>
</event>
<event>
 5    1  0.1422067E-002  0.1250109E+03  0.7818608E-02  0.1235052E+00
         -4   -1    0    0    0  501 -0.00000000000E+00  0.00000000000E+00  0.36956351689E+02  0.36978166939E+02  0.12700000000E+01 0. -1.
          4   -1    0    0  501    0  0.00000000000E+00 -0.00000000000E+00 -0.10566056658E+03  0.10566819876E+03  0.12700000000E+01 0. -1.
         25    2    1    2    0    0  0.00000000000E+00  0.00000000000E+00 -0.68704214891E+02  0.14264636570E+03  0.12501086555E+03 0.  0.
    9000005    1    3    3    0    0  0.62221805029E+02 -0.46490423695E+01 -0.38428546939E+02  0.73286559721E+02  0.10000000000E+01 0.  0.
    9000005    1    3    3    0    0 -0.62221805029E+02  0.46490423695E+01 -0.30275667953E+02  0.69359805983E+02  0.10000000000E+01 0.  0.
<mgrwt>
<rscale>  0 0.12501087E+03</rscale>
<asrwt>0</asrwt>
<pdfrwt beam="2">  1        4 0.26418822E-01 0.12501087E+03</pdfrwt>
<pdfrwt beam="1">  1       -4 0.92427691E-02 0.12501087E+03</pdfrwt>
<totfact> 0.18900979E+03</totfact>
</mgrwt>
</event>
<event>
 5    1  0.1422067E-002  0.1249992E+03  0.7818608E-02  0.1235070E+00
         -4   -1    0    0    0  501 -0.00000000000E+00  0.00000000000E+00  0.31767332184E+02  0.31792708190E+02  0.12700000000E+01 0. -1.
          4   -1    0    0  501    0  0.00000000000E+00 -0.00000000000E+00 -0.12288513220E+03  0.12289169466E+03  0.12700000000E+01 0. -1.
         25    2    1    2    0    0  0.00000000000E+00  0.00000000000E+00 -0.91117800020E+02  0.15468440285E+03  0.12499924402E+03 0.  0.
    9000005    1    3    3    0    0 -0.41840768360E+02  0.33137016447E+02 -0.85781675839E+02  0.10103567521E+03  0.10000000000E+01 0.  0.
    9000005    1    3    3    0    0  0.41840768360E+02 -0.33137016447E+02 -0.53361241807E+01  0.53648727639E+02  0.10000000000E+01 0.  0.
<mgrwt>
<rscale>  0 0.12499924E+03</rscale>
<asrwt>0</asrwt>
<pdfrwt beam="2">  1        4 0.30725274E-01 0.12499924E+03</pdfrwt>
<pdfrwt beam="1">  1       -4 0.79458257E-02 0.12499924E+03</pdfrwt>
<totfact> 0.18311143E+03</totfact>
</mgrwt>
</event>
<event>
 5    1  0.1422067E-002  0.1249997E+03  0.7818608E-02  0.1235070E+00
         -4   -1    0    0    0  501 -0.00000000000E+00  0.00000000000E+00  0.21799388714E+02  0.21836351533E+02  0.12700000000E+01 0. -1.
          4   -1    0    0  501    0  0.00000000000E+00 -0.00000000000E+00 -0.17899903938E+03  0.17900354466E+03  0.12700000000E+01 0. -1.
         25    2    1    2    0    0  0.00000000000E+00  0.00000000000E+00 -0.15719965067E+03  0.20083989619E+03  0.12499973493E+03 0.  0.
    9000005    1    3    3    0    0 -0.45815521852E+02 -0.26605552897E+02 -0.13184797740E+03  0.14209787695E+03  0.10000000000E+01 0.  0.
    9000005    1    3    3    0    0  0.45815521852E+02  0.26605552897E+02 -0.25351673267E+02  0.58742019245E+02  0.10000000000E+01 0.  0.
<mgrwt>
<rscale>  0 0.12499973E+03</rscale>
<asrwt>0</asrwt>
<pdfrwt beam="2">  1        4 0.44754939E-01 0.12499973E+03</pdfrwt>
<pdfrwt beam="1">  1       -4 0.54550312E-02 0.12499973E+03</pdfrwt>
<totfact> 0.16288566E+03</totfact>
</mgrwt>
</event>
<event>
 5    1  0.1422067E-002  0.1249979E+03  0.7818608E-02  0.1235073E+00
          4   -1    0    0  501    0  0.00000000000E+00  0.00000000000E+00  0.13388897065E+03  0.13389499378E+03  0.12700000000E+01 0.  1.
         -4   -1    0    0    0  501 -0.00000000000E+00 -0.00000000000E+00 -0.29153790941E+02  0.29181439756E+02  0.12700000000E+01 0.  1.
         25    2    1    2    0    0  0.00000000000E+00  0.00000000000E+00  0.10473517970E+03  0.16307643354E+03  0.12499786122E+03 0.  0.
    9000005    1    3    3    0    0 -0.77993151221E+01 -0.36115334850E+02  0.11811866856E+03  0.12376658107E+03  0.10000000000E+01 0.  0.
    9000005    1    3    3    0    0  0.77993151221E+01  0.36115334850E+02 -0.13383488850E+02  0.39309852474E+02  0.10000000000E+01 0.  0.
<mgrwt>
<rscale>  0 0.12499786E+03</rscale>
<asrwt>0</asrwt>
<pdfrwt beam="1">  1        4 0.33476451E-01 0.12499786E+03</pdfrwt>
<pdfrwt beam="2">  1       -4 0.72926569E-02 0.12499786E+03</pdfrwt>
<totfact> 0.17914817E+03</totfact>
</mgrwt>
</event>
<event>
 5    1  0.1422067E-002  0.1249937E+03  0.7818608E-02  0.1235079E+00
          4   -1    0    0  501    0  0.00000000000E+00  0.00000000000E+00  0.22234105921E+03  0.22234468627E+03  0.12700000000E+01 0.  1.
         -4   -1    0    0    0  501 -0.00000000000E+00 -0.00000000000E+00 -0.17540218265E+02  0.17586135357E+02  0.12700000000E+01 0.  1.
         25    2    1    2    0    0  0.00000000000E+00  0.00000000000E+00  0.20480084095E+03  0.23993082162E+03  0.12499365869E+03 0.  0.
    9000005    1    3    3    0    0 -0.11084086398E+02  0.78628226696E+01 -0.14678743606E+02  0.20028641129E+02  0.10000000000E+01 0.  0.
    9000005    1    3    3    0    0  0.11084086398E+02 -0.78628226696E+01  0.21947958455E+03  0.21990218050E+03  0.10000000000E+01 0.  0.
<mgrwt>
<rscale>  0 0.12499366E+03</rscale>
<asrwt>0</asrwt>
<pdfrwt beam="1">  1        4 0.55591458E-01 0.12499366E+03</pdfrwt>
<pdfrwt beam="2">  1       -4 0.43912476E-02 0.12499366E+03</pdfrwt>
<totfact> 0.14841002E+03</totfact>
</mgrwt>
</event>
<event>
 4    1  0.1422067E-002  0.1250703E+03  0.7818608E-02  0.1234960E+00
         -4   -1    0    0    0  501 -0.00000000000E+00  0.00000000000E+00  0.38497228610E+01  0.40537965054E+01  0.12700000000E+01 0.  1.
          4   -1    0    0  501    0  0.00000000000E+00 -0.00000000000E+00 -0.98939087857E+03  0.98939169367E+03  0.12700000000E+01 0.  1.
    9000005    1    1    2    0    0  0.25962025648E+02 -0.13885772010E+02 -0.93092457478E+03  0.93139057617E+03  0.10000000000E+01 0.  0.
    9000005    1    1    2    0    0 -0.25962025648E+02  0.13885772010E+02 -0.54616580929E+02  0.62054914007E+02  0.10000000000E+01 0.  0.
<mgrwt>
<rscale>  0 0.12507027E+03</rscale>
<asrwt>0</asrwt>
<pdfrwt beam="2">  1        4 0.24737248E+00 0.12507027E+03</pdfrwt>
<pdfrwt beam="1">  1       -4 0.98804519E-03 0.12507027E+03</pdfrwt>
<totfact> 0.37492957E+02</totfact>
</mgrwt>
</event>
<event>
 5    1  0.1422067E-002  0.1249907E+03  0.7818608E-02  0.1235084E+00
         -4   -1    0    0    0  501 -0.00000000000E+00  0.00000000000E+00  0.10834689281E+02  0.10908867577E+02  0.12700000000E+01 0.  1.
          4   -1    0    0  501    0  0.00000000000E+00 -0.00000000000E+00 -0.35917286379E+03  0.35917510908E+03  0.12700000000E+01 0.  1.
         25    2    1    2    0    0  0.00000000000E+00  0.00000000000E+00 -0.34833817450E+03  0.37008397665E+03  0.12499066348E+03 0.  0.
    9000005    1    3    3    0    0  0.37315876927E+02  0.21857771839E+02 -0.30771913411E+03  0.31074475435E+03  0.10000000000E+01 0.  0.
    9000005    1    3    3    0    0 -0.37315876927E+02 -0.21857771839E+02 -0.40619040396E+02  0.59339222301E+02  0.10000000000E+01 0.  0.
<mgrwt>
<rscale>  0 0.12499066E+03</rscale>
<asrwt>0</asrwt>
<pdfrwt beam="2">  1        4 0.89802729E-01 0.12499066E+03</pdfrwt>
<pdfrwt beam="1">  1       -4 0.27182265E-02 0.12499066E+03</pdfrwt>
<totfact> 0.11214937E+03</totfact>
</mgrwt>
</event>
<event>
 5    1  0.1422067E-002  0.1250002E+03  0.7818608E-02  0.1235069E+00
          4   -1    0    0  501    0  0.00000000000E+00  0.00000000000E+00  0.31085286870E+03  0.31085546301E+03  0.12700000000E+01 0.  1.
         -4   -1    0    0    0  501 -0.00000000000E+00 -0.00000000000E+00 -0.12531527631E+02  0.12595716922E+02  0.12700000000E+01 0.  1.
         25    2    1    2    0    0  0.00000000000E+00  0.00000000000E+00  0.29832134107E+03  0.32345117993E+03  0.12500017303E+03 0.  0.
    9000005    1    3    3    0    0  0.13687830945E+02 -0.31019933034E+02  0.13325710123E+02  0.36444032593E+02  0.10000000000E+01 0.  0.
    9000005    1    3    3    0    0 -0.13687830945E+02  0.31019933034E+02  0.28499563095E+03  0.28700714734E+03  0.10000000000E+01 0.  0.
<mgrwt>
<rscale>  0 0.12500017E+03</rscale>
<asrwt>0</asrwt>
<pdfrwt beam="1">  1        4 0.77721565E-01 0.12500017E+03</pdfrwt>
<pdfrwt beam="2">  1       -4 0.31412299E-02 0.12500017E+03</pdfrwt>
<totfact> 0.12338296E+03</totfact>
</mgrwt>
</event>
<event>
 5    1  0.1422067E-002  0.1250000E+03  0.7818608E-02  0.1235069E+00
          4   -1    0    0  501    0  0.00000000000E+00  0.00000000000E+00  0.58105283030E+03  0.58105421821E+03  0.12700000000E+01 0.  1.
         -4   -1    0    0    0  501 -0.00000000000E+00 -0.00000000000E+00 -0.66613192692E+01  0.67813032970E+01  0.12700000000E+01 0.  1.
         25    2    1    2    0    0  0.00000000000E+00  0.00000000000E+00  0.57439151103E+03  0.58783552151E+03  0.12499996960E+03 0.  0.
    9000005    1    3    3    0    0  0.98314512658E+01 -0.60955515035E+02  0.33255067553E+03  0.33823539738E+03  0.10000000000E+01 0.  0.
    9000005    1    3    3    0    0 -0.98314512658E+01  0.60955515035E+02  0.24184083550E+03  0.24960012413E+03  0.10000000000E+01 0.  0.
<mgrwt>
<rscale>  0 0.12499997E+03</rscale>
<asrwt>0</asrwt>
<pdfrwt beam="1">  1        4 0.14527838E+00 0.12499997E+03</pdfrwt>
<pdfrwt beam="2">  1       -4 0.16805013E-02 0.12499997E+03</pdfrwt>
<totfact> 0.75055124E+02</totfact>
</mgrwt>
</event>
<event>
 5    1  0.1422067E-002  0.1249992E+03  0.7818608E-02  0.1235071E+00
          4   -1    0    0  501    0  0.00000000000E+00  0.00000000000E+00  0.18888336438E+03  0.18888763390E+03  0.12700000000E+01 0. -1.
         -4   -1    0    0    0  501 -0.00000000000E+00 -0.00000000000E+00 -0.20656477039E+02  0.20695481238E+02  0.12700000000E+01 0. -1.
         25    2    1    2    0    0  0.00000000000E+00  0.00000000000E+00  0.16822688734E+03  0.20958311513E+03  0.12499918610E+03 0.  0.
    9000005    1    3    3    0    0 -0.11195593432E+02 -0.56361166157E+02  0.12529544105E+03  0.13784727024E+03  0.10000000000E+01 0.  0.
    9000005    1    3    3    0    0  0.11195593432E+02  0.56361166157E+02  0.42931446286E+02  0.71735844897E+02  0.10000000000E+01 0.  0.
<mgrwt>
<rscale>  0 0.12499919E+03</rscale>
<asrwt>0</asrwt>
<pdfrwt beam="1">  1        4 0.47226249E-01 0.12499919E+03</pdfrwt>
<pdfrwt beam="2">  1       -4 0.51695286E-02 0.12499919E+03</pdfrwt>
<totfact> 0.15945677E+03</totfact>
</mgrwt>
</event>
<event>
 5    1  0.1422067E-002  0.1249999E+03  0.7818608E-02  0.1235069E+00
         -4   -1    0    0    0  501 -0.00000000000E+00  0.00000000000E+00  0.24459416668E+02  0.24492365417E+02  0.12700000000E+01 0. -1.
          4   -1    0    0  501    0  0.00000000000E+00 -0.00000000000E+00 -0.15956012715E+03  0.15956518128E+03  0.12700000000E+01 0. -1.
         25    2    1    2    0    0  0.00000000000E+00  0.00000000000E+00 -0.13510071048E+03  0.18405754669E+03  0.12499991409E+03 0.  0.
    9000005    1    3    3    0    0  0.24927329690E+02 -0.49400872546E+01 -0.15161575880E+03  0.15373390825E+03  0.10000000000E+01 0.  0.
    9000005    1    3    3    0    0 -0.24927329690E+02  0.49400872546E+01  0.16515048321E+02  0.30323638446E+02  0.10000000000E+01 0.  0.
<mgrwt>
<rscale>  0 0.12499991E+03</rscale>
<asrwt>0</asrwt>
<pdfrwt beam="2">  1        4 0.39894779E-01 0.12499991E+03</pdfrwt>
<pdfrwt beam="1">  1       -4 0.61196050E-02 0.12499991E+03</pdfrwt>
<totfact> 0.16980989E+03</totfact>
</mgrwt>
</event>
<event>
 5    1  0.1422067E-002  0.1250299E+03  0.7818608E-02  0.1235023E+00
          4   -1    0    0  501    0  0.00000000000E+00  0.00000000000E+00  0.27087549854E+01  0.29916974397E+01  0.12700000000E+01 0.  1.
         -4   -1    0    0    0  501 -0.00000000000E+00 -0.00000000000E+00 -0.13708780344E+04  0.13708786227E+04  0.12700000000E+01 0.  1.
         25    2    1    2    0    0  0.00000000000E+00  0.00000000000E+00 -0.13681692795E+04  0.13738703202E+04  0.12502991383E+03 0.  0.
    9000005    1    3    3    0    0 -0.16986891694E+02  0.54231241021E+02 -0.97010608000E+03  0.97176971986E+03  0.10000000000E+01 0.  0.
    9000005    1    3    3    0    0  0.16986891694E+02 -0.54231241021E+02 -0.39806319947E+03  0.40210060030E+03  0.10000000000E+01 0.  0.
<mgrwt>
<rscale>  0 0.12502991E+03</rscale>
<asrwt>0</asrwt>
<pdfrwt beam="1">  1        4 0.71263479E-03 0.12502991E+03</pdfrwt>
<pdfrwt beam="2">  1       -4 0.34275269E+00 0.12502991E+03</pdfrwt>
<totfact> 0.17119904E+02</totfact>
</mgrwt>
</event>
<event>
 5    1  0.1422067E-002  0.1250030E+03  0.7818608E-02  0.1235065E+00
         -4   -1    0    0    0  501 -0.00000000000E+00  0.00000000000E+00  0.19375191440E+03  0.19375607664E+03  0.12700000000E+01 0. -1.
          4   -1    0    0  501    0  0.00000000000E+00 -0.00000000000E+00 -0.20137684464E+02  0.20177691532E+02  0.12700000000E+01 0. -1.
         25    2    1    2    0    0  0.00000000000E+00  0.00000000000E+00  0.17361422994E+03  0.21393376817E+03  0.12500302527E+03 0.  0.
    9000005    1    3    3    0    0  0.28644069174E+02  0.33473776898E+02  0.16266150218E+03  0.16852519317E+03  0.10000000000E+01 0.  0.
    9000005    1    3    3    0    0 -0.28644069174E+02 -0.33473776898E+02  0.10952727753E+02  0.45408575005E+02  0.10000000000E+01 0.  0.
<mgrwt>
<rscale>  0 0.12500303E+03</rscale>
<asrwt>0</asrwt>
<pdfrwt beam="2">  1        4 0.50399424E-02 0.12500303E+03</pdfrwt>
<pdfrwt beam="1">  1       -4 0.48443499E-01 0.12500303E+03</pdfrwt>
<totfact> 0.15777806E+03</totfact>
</mgrwt>
</event>
<event>
 5    1  0.1422067E-002  0.1250002E+03  0.7818608E-02  0.1235069E+00
          4   -1    0    0  501    0  0.00000000000E+00  0.00000000000E+00  0.45987251805E+03  0.45987427168E+03  0.12700000000E+01 0.  1.
         -4   -1    0    0    0  501 -0.00000000000E+00 -0.00000000000E+00 -0.84449756019E+01  0.85399363532E+01  0.12700000000E+01 0.  1.
         25    2    1    2    0    0  0.00000000000E+00  0.00000000000E+00  0.45142754245E+03  0.46841420804E+03  0.12500017684E+03 0.  0.
    9000005    1    3    3    0    0  0.20484800361E+02  0.56136367218E+02  0.29423341300E+03  0.30024193594E+03  0.10000000000E+01 0.  0.
    9000005    1    3    3    0    0 -0.20484800361E+02 -0.56136367218E+02  0.15719412945E+03  0.16817227210E+03  0.10000000000E+01 0.  0.
<mgrwt>
<rscale>  0 0.12500018E+03</rscale>
<asrwt>0</asrwt>
<pdfrwt beam="1">  1        4 0.11498022E+00 0.12500018E+03</pdfrwt>
<pdfrwt beam="2">  1       -4 0.21233332E-02 0.12500018E+03</pdfrwt>
<totfact> 0.92802061E+02</totfact>
</mgrwt>
</event>
<event>
 5    1  0.1422067E-002  0.1250084E+03  0.7818608E-02  0.1235056E+00
          4   -1    0    0  501    0  0.00000000000E+00  0.00000000000E+00  0.41294283804E+02  0.41313808525E+02  0.12700000000E+01 0. -1.
         -4   -1    0    0    0  501 -0.00000000000E+00 -0.00000000000E+00 -0.94561915650E+02  0.94570443540E+02  0.12700000000E+01 0. -1.
         25    2    1    2    0    0  0.00000000000E+00  0.00000000000E+00 -0.53267631846E+02  0.13588425207E+03  0.12500835715E+03 0.  0.
    9000005    1    3    3    0    0  0.32163445369E+02 -0.12358335587E+02  0.30042194988E+02  0.45724710564E+02  0.10000000000E+01 0.  0.
    9000005    1    3    3    0    0 -0.32163445369E+02  0.12358335587E+02 -0.83309826834E+02  0.90159541501E+02  0.10000000000E+01 0.  0.
<mgrwt>
<rscale>  0 0.12500836E+03</rscale>
<asrwt>0</asrwt>
<pdfrwt beam="1">  1        4 0.10327078E-01 0.12500836E+03</pdfrwt>
<pdfrwt beam="2">  1       -4 0.23643985E-01 0.12500836E+03</pdfrwt>
<totfact> 0.19249168E+03</totfact>
</mgrwt>
</event>
<event>
 5    1  0.1422067E-002  0.1249998E+03  0.7818608E-02  0.1235070E+00
         -4   -1    0    0    0  501 -0.00000000000E+00  0.00000000000E+00  0.10429259500E+03  0.10430032729E+03  0.12700000000E+01 0. -1.
          4   -1    0    0  501    0  0.00000000000E+00 -0.00000000000E+00 -0.37434721974E+02  0.37456258613E+02  0.12700000000E+01 0. -1.
         25    2    1    2    0    0  0.00000000000E+00  0.00000000000E+00  0.66857873029E+02  0.14175658590E+03  0.12499981784E+03 0.  0.
    9000005    1    3    3    0    0  0.28501331592E+02 -0.95318338371E+01 -0.28707067680E+02  0.41572556977E+02  0.10000000000E+01 0.  0.
    9000005    1    3    3    0    0 -0.28501331592E+02  0.95318338371E+01  0.95564940709E+02  0.10018402892E+03  0.10000000000E+01 0.  0.
<mgrwt>
<rscale>  0 0.12499982E+03</rscale>
<asrwt>0</asrwt>
<pdfrwt beam="2">  1        4 0.93623391E-02 0.12499982E+03</pdfrwt>
<pdfrwt beam="1">  1       -4 0.26076807E-01 0.12499982E+03</pdfrwt>
<totfact> 0.18950916E+03</totfact>
</mgrwt>
</event>
<event>
 5    1  0.1422067E-002  0.1250003E+03  0.7818608E-02  0.1235069E+00
         -4   -1    0    0    0  501 -0.00000000000E+00  0.00000000000E+00  0.72343425516E+01  0.73449718960E+01  0.12700000000E+01 0. -1.
          4   -1    0    0  501    0  0.00000000000E+00 -0.00000000000E+00 -0.53575315229E+03  0.53575465755E+03  0.12700000000E+01 0. -1.
         25    2    1    2    0    0  0.00000000000E+00  0.00000000000E+00 -0.52851880974E+03  0.54309962945E+03  0.12500030104E+03 0.  0.
    9000005    1    3    3    0    0  0.44901474148E+02  0.33509100696E+02 -0.14398910415E+03  0.15450846036E+03  0.10000000000E+01 0.  0.
    9000005    1    3    3    0    0 -0.44901474148E+02 -0.33509100696E+02 -0.38452970559E+03  0.38859116909E+03  0.10000000000E+01 0.  0.
<mgrwt>
<rscale>  0 0.12500030E+03</rscale>
<asrwt>0</asrwt>
<pdfrwt beam="2">  1        4 0.13395217E+00 0.12500030E+03</pdfrwt>
<pdfrwt beam="1">  1       -4 0.18226043E-02 0.12500030E+03</pdfrwt>
<totfact> 0.81135934E+02</totfact>
</mgrwt>
</event>
<event>
 5    1  0.1422067E-002  0.1250026E+03  0.7818608E-02  0.1235065E+00
          4   -1    0    0  501    0  0.00000000000E+00  0.00000000000E+00  0.13528055769E+03  0.13528651887E+03  0.12700000000E+01 0.  1.
         -4   -1    0    0    0  501 -0.00000000000E+00 -0.00000000000E+00 -0.28855807819E+02  0.28883741878E+02  0.12700000000E+01 0.  1.
         25    2    1    2    0    0  0.00000000000E+00  0.00000000000E+00  0.10642474987E+03  0.16417026075E+03  0.12500258849E+03 0.  0.
    9000005    1    3    3    0    0 -0.20367924329E+02 -0.30672792843E+02  0.11952914470E+03  0.12507553316E+03  0.10000000000E+01 0.  0.
    9000005    1    3    3    0    0  0.20367924329E+02  0.30672792843E+02 -0.13104394823E+02  0.39094727598E+02  0.10000000000E+01 0.  0.
<mgrwt>
<rscale>  0 0.12500259E+03</rscale>
<asrwt>0</asrwt>
<pdfrwt beam="1">  1        4 0.33824376E-01 0.12500259E+03</pdfrwt>
<pdfrwt beam="2">  1       -4 0.72181890E-02 0.12500259E+03</pdfrwt>
<totfact> 0.17862170E+03</totfact>
</mgrwt>
</event>
<event>
 5    1  0.1422067E-002  0.1249870E+03  0.7818608E-02  0.1235090E+00
          4   -1    0    0  501    0  0.00000000000E+00  0.00000000000E+00  0.54518315812E+02  0.54533106082E+02  0.12700000000E+01 0.  1.
         -4   -1    0    0    0  501 -0.00000000000E+00 -0.00000000000E+00 -0.71605238788E+02  0.71616500346E+02  0.12700000000E+01 0.  1.
         25    2    1    2    0    0  0.00000000000E+00  0.00000000000E+00 -0.17086922976E+02  0.12614960643E+03  0.12498704039E+03 0.  0.
    9000005    1    3    3    0    0 -0.59591275298E+02 -0.17789348217E+02 -0.14671099068E+02  0.63904789722E+02  0.10000000000E+01 0.  0.
    9000005    1    3    3    0    0  0.59591275298E+02  0.17789348217E+02 -0.24158239080E+01  0.62244816706E+02  0.10000000000E+01 0.  0.
<mgrwt>
<rscale>  0 0.12498704E+03</rscale>
<asrwt>0</asrwt>
<pdfrwt beam="1">  1        4 0.13632835E-01 0.12498704E+03</pdfrwt>
<pdfrwt beam="2">  1       -4 0.17904566E-01 0.12498704E+03</pdfrwt>
<totfact> 0.19778833E+03</totfact>
</mgrwt>
</event>
<event>
 5    1  0.1422067E-002  0.1249984E+03  0.7818608E-02  0.1235072E+00
          4   -1    0    0  501    0  0.00000000000E+00  0.00000000000E+00  0.20233422456E+03  0.20233821025E+03  0.12700000000E+01 0. -1.
         -4   -1    0    0    0  501 -0.00000000000E+00 -0.00000000000E+00 -0.19280365049E+02  0.19322147303E+02  0.12700000000E+01 0. -1.
         25    2    1    2    0    0  0.00000000000E+00  0.00000000000E+00  0.18305385951E+03  0.22166035755E+03  0.12499839451E+03 0.  0.
    9000005    1    3    3    0    0  0.32669731720E+02  0.43631359672E+02  0.14572579776E+03  0.15558925107E+03  0.10000000000E+01 0.  0.
    9000005    1    3    3    0    0 -0.32669731720E+02 -0.43631359672E+02  0.37328061754E+02  0.66071106482E+02  0.10000000000E+01 0.  0.
<mgrwt>
<rscale>  0 0.12499839E+03</rscale>
<asrwt>0</asrwt>
<pdfrwt beam="1">  1        4 0.50589276E-01 0.12499839E+03</pdfrwt>
<pdfrwt beam="2">  1       -4 0.48258123E-02 0.12499839E+03</pdfrwt>
<totfact> 0.15490529E+03</totfact>
</mgrwt>
</event>
<event>
 5    1  0.1422067E-002  0.1249994E+03  0.7818608E-02  0.1235070E+00
          4   -1    0    0  501    0  0.00000000000E+00  0.00000000000E+00  0.36932349715E+03  0.36932568073E+03  0.12700000000E+01 0. -1.
         -4   -1    0    0    0  501 -0.00000000000E+00 -0.00000000000E+00 -0.10536316883E+02  0.10612580904E+02  0.12700000000E+01 0. -1.
         25    2    1    2    0    0  0.00000000000E+00  0.00000000000E+00  0.35878718027E+03  0.37993826164E+03  0.12499936772E+03 0.  0.
    9000005    1    3    3    0    0 -0.45967322907E+01 -0.32270518437E+02  0.17335661034E+02  0.36932931801E+02  0.10000000000E+01 0.  0.
    9000005    1    3    3    0    0  0.45967322907E+01  0.32270518437E+02  0.34145151924E+03  0.34300532984E+03  0.10000000000E+01 0.  0.
<mgrwt>
<rscale>  0 0.12499937E+03</rscale>
<asrwt>0</asrwt>
<pdfrwt beam="1">  1        4 0.92340684E-01 0.12499937E+03</pdfrwt>
<pdfrwt beam="2">  1       -4 0.26438851E-02 0.12499937E+03</pdfrwt>
<totfact> 0.10994612E+03</totfact>
</mgrwt>
</event>
<event>
 5    1  0.1422067E-002  0.1249986E+03  0.7818608E-02  0.1235071E+00
          4   -1    0    0  501    0  0.00000000000E+00  0.00000000000E+00  0.39557572845E+02  0.39577954335E+02  0.12700000000E+01 0. -1.
         -4   -1    0    0    0  501 -0.00000000000E+00 -0.00000000000E+00 -0.98696340812E+02  0.98704511496E+02  0.12700000000E+01 0. -1.
         25    2    1    2    0    0  0.00000000000E+00  0.00000000000E+00 -0.59138767967E+02  0.13828246583E+03  0.12499858591E+03 0.  0.
    9000005    1    3    3    0    0  0.54304045409E+02  0.27284966220E+02 -0.13470827214E+02  0.62256420675E+02  0.10000000000E+01 0.  0.
    9000005    1    3    3    0    0 -0.54304045409E+02 -0.27284966220E+02 -0.45667940753E+02  0.76026045156E+02  0.10000000000E+01 0.  0.
<mgrwt>
<rscale>  0 0.12499859E+03</rscale>
<asrwt>0</asrwt>
<pdfrwt beam="1">  1        4 0.98929624E-02 0.12499859E+03</pdfrwt>
<pdfrwt beam="2">  1       -4 0.24677654E-01 0.12499859E+03</pdfrwt>
<totfact> 0.19129187E+03</totfact>
</mgrwt>
</event>
<event>
 5    1  0.1422067E-002  0.1250013E+03  0.7818608E-02  0.1235067E+00
         -4   -1    0    0    0  501 -0.00000000000E+00  0.00000000000E+00  0.34618946250E+02  0.34642233465E+02  0.12700000000E+01 0.  1.
          4   -1    0    0  501    0  0.00000000000E+00 -0.00000000000E+00 -0.11277309471E+03  0.11278024557E+03  0.12700000000E+01 0.  1.
         25    2    1    2    0    0  0.00000000000E+00  0.00000000000E+00 -0.78154148462E+02  0.14742247904E+03  0.12500126561E+03 0.  0.
    9000005    1    3    3    0    0 -0.14688560071E+01  0.37952122134E+02 -0.97605194551E+02  0.10473917660E+03  0.10000000000E+01 0.  0.
    9000005    1    3    3    0    0  0.14688560071E+01 -0.37952122134E+02  0.19451046089E+02  0.42683302431E+02  0.10000000000E+01 0.  0.
<mgrwt>
<rscale>  0 0.12500127E+03</rscale>
<asrwt>0</asrwt>
<pdfrwt beam="2">  1        4 0.28197078E-01 0.12500127E+03</pdfrwt>
<pdfrwt beam="1">  1       -4 0.86585416E-02 0.12500127E+03</pdfrwt>
<totfact> 0.18665698E+03</totfact>
</mgrwt>
</event>
<event>
 5    1  0.1422067E-002  0.1249918E+03  0.7818608E-02  0.1235082E+00
          4   -1    0    0  501    0  0.00000000000E+00  0.00000000000E+00  0.18907823778E+02  0.18950427436E+02  0.12700000000E+01 0.  1.
         -4   -1    0    0    0  501 -0.00000000000E+00 -0.00000000000E+00 -0.20629039761E+03  0.20629430686E+03  0.12700000000E+01 0.  1.
         25    2    1    2    0    0  0.00000000000E+00  0.00000000000E+00 -0.18738257383E+03  0.22524473430E+03  0.12499184516E+03 0.  0.
    9000005    1    3    3    0    0 -0.46765491699E+02 -0.40610826696E+02 -0.10860501328E+03  0.12502919407E+03  0.10000000000E+01 0.  0.
    9000005    1    3    3    0    0  0.46765491699E+02  0.40610826696E+02 -0.78777560548E+02  0.10021554024E+03  0.10000000000E+01 0.  0.
<mgrwt>
<rscale>  0 0.12499185E+03</rscale>
<asrwt>0</asrwt>
<pdfrwt beam="1">  1        4 0.47327707E-02 0.12499185E+03</pdfrwt>
<pdfrwt beam="2">  1       -4 0.51578406E-01 0.12499185E+03</pdfrwt>
<totfact> 0.15361619E+03</totfact>
</mgrwt>
</event>
<event>
 5    1  0.1422067E-002  0.1249996E+03  0.7818608E-02  0.1235070E+00
         -4   -1    0    0    0  501 -0.00000000000E+00  0.00000000000E+00  0.83296903792E+02  0.83306584861E+02  0.12700000000E+01 0. -1.
          4   -1    0    0  501    0  0.00000000000E+00 -0.00000000000E+00 -0.46874170229E+02  0.46891371644E+02  0.12700000000E+01 0. -1.
         25    2    1    2    0    0  0.00000000000E+00  0.00000000000E+00  0.36422733563E+02  0.13019795651E+03  0.12499956943E+03 0.  0.
    9000005    1    3    3    0    0  0.18293407028E+02 -0.88085890639E+01 -0.43347964511E+02  0.47877823773E+02  0.10000000000E+01 0.  0.
    9000005    1    3    3    0    0 -0.18293407028E+02  0.88085890639E+01  0.79770698073E+02  0.82320132732E+02  0.10000000000E+01 0.  0.
<mgrwt>
<rscale>  0 0.12499957E+03</rscale>
<asrwt>0</asrwt>
<pdfrwt beam="2">  1        4 0.11721903E-01 0.12499957E+03</pdfrwt>
<pdfrwt beam="1">  1       -4 0.20827586E-01 0.12499957E+03</pdfrwt>
<totfact> 0.19553943E+03</totfact>
</mgrwt>
</event>
<event>
 5    1  0.1422067E-002  0.1249989E+03  0.7818608E-02  0.1235071E+00
          4   -1    0    0  501    0  0.00000000000E+00  0.00000000000E+00  0.10264900159E+03  0.10265685767E+03  0.12700000000E+01 0.  1.
         -4   -1    0    0    0  501 -0.00000000000E+00 -0.00000000000E+00 -0.38033860469E+02  0.38055058037E+02  0.12700000000E+01 0.  1.
         25    2    1    2    0    0  0.00000000000E+00  0.00000000000E+00  0.64615141119E+02  0.14071191571E+03  0.12499890704E+03 0.  0.
    9000005    1    3    3    0    0 -0.21841389945E+02  0.58427343916E+02  0.28038659908E+02  0.68395667123E+02  0.10000000000E+01 0.  0.
    9000005    1    3    3    0    0  0.21841389945E+02 -0.58427343916E+02  0.36576481211E+02  0.72316248586E+02  0.10000000000E+01 0.  0.
<mgrwt>
<rscale>  0 0.12499891E+03</rscale>
<asrwt>0</asrwt>
<pdfrwt beam="1">  1        4 0.25665882E-01 0.12499891E+03</pdfrwt>
<pdfrwt beam="2">  1       -4 0.95120969E-02 0.12499891E+03</pdfrwt>
<totfact> 0.19004465E+03</totfact>
</mgrwt>
</event>
<event>
 5    1  0.1422067E-002  0.1249990E+03  0.7818608E-02  0.1235071E+00
         -4   -1    0    0    0  501 -0.00000000000E+00  0.00000000000E+00  0.27464392605E+03  0.27464686238E+03  0.12700000000E+01 0.  1.
          4   -1    0    0  501    0  0.00000000000E+00 -0.00000000000E+00 -0.14191360204E+02  0.14248073710E+02  0.12700000000E+01 0.  1.
         25    2    1    2    0    0  0.00000000000E+00  0.00000000000E+00  0.26045256584E+03  0.28889493609E+03  0.12499898017E+03 0.  0.
    9000005    1    3    3    0    0 -0.22192059340E+02 -0.22569261156E+02  0.25475842317E+03  0.25671913295E+03  0.10000000000E+01 0.  0.
    9000005    1    3    3    0    0  0.22192059340E+02  0.22569261156E+02  0.56941426752E+01  0.32175803140E+02  0.10000000000E+01 0.  0.
<mgrwt>
<rscale>  0 0.12499898E+03</rscale>
<asrwt>0</asrwt>
<pdfrwt beam="2">  1        4 0.35552963E-02 0.12499898E+03</pdfrwt>
<pdfrwt beam="1">  1       -4 0.68668437E-01 0.12499898E+03</pdfrwt>
<totfact> 0.13288415E+03</totfact>
</mgrwt>
</event>
<event>
 5    1  0.1422067E-002  0.1250015E+03  0.7818608E-02  0.1235067E+00
          4   -1    0    0  501    0  0.00000000000E+00  0.00000000000E+00  0.19202684962E+03  0.19203104924E+03  0.12700000000E+01 0. -1.
         -4   -1    0    0    0  501 -0.00000000000E+00 -0.00000000000E+00 -0.20318451542E+02  0.20358103376E+02  0.12700000000E+01 0. -1.
         25    2    1    2    0    0  0.00000000000E+00  0.00000000000E+00  0.17170839807E+03  0.21238915262E+03  0.12500151271E+03 0.  0.
    9000005    1    3    3    0    0 -0.40431855602E+02 -0.18870958721E+02  0.11510467897E+02  0.46090551110E+02  0.10000000000E+01 0.  0.
    9000005    1    3    3    0    0  0.40431855602E+02  0.18870958721E+02  0.16019793018E+03  0.16629860151E+03  0.10000000000E+01 0.  0.
<mgrwt>
<rscale>  0 0.12500151E+03</rscale>
<asrwt>0</asrwt>
<pdfrwt beam="1">  1        4 0.48012193E-01 0.12500151E+03</pdfrwt>
<pdfrwt beam="2">  1       -4 0.50850944E-02 0.12500151E+03</pdfrwt>
<totfact> 0.15837141E+03</totfact>
</mgrwt>
</event>
<event>
 5    1  0.1422067E-002  0.1249985E+03  0.7818608E-02  0.1235072E+00
          4   -1    0    0  501    0  0.00000000000E+00  0.00000000000E+00  0.62755593089E+02  0.62768442421E+02  0.12700000000E+01 0. -1.
         -4   -1    0    0    0  501 -0.00000000000E+00 -0.00000000000E+00 -0.62218234679E+02  0.62231194964E+02  0.12700000000E+01 0. -1.
         25    2    1    2    0    0  0.00000000000E+00  0.00000000000E+00  0.53735841001E+00  0.12499963739E+03  0.12499848236E+03 0.  0.
    9000005    1    3    3    0    0 -0.58809919636E+02 -0.13103525941E+02 -0.16309957283E+02  0.62428549128E+02  0.10000000000E+01 0.  0.
    9000005    1    3    3    0    0  0.58809919636E+02  0.13103525941E+02  0.16847315693E+02  0.62571088257E+02  0.10000000000E+01 0.  0.
<mgrwt>
<rscale>  0 0.12499848E+03</rscale>
<asrwt>0</asrwt>
<pdfrwt beam="1">  1        4 0.15692125E-01 0.12499848E+03</pdfrwt>
<pdfrwt beam="2">  1       -4 0.15557785E-01 0.12499848E+03</pdfrwt>
<totfact> 0.19835779E+03</totfact>
</mgrwt>
</event>
<event>
 5    1  0.1422067E-002  0.1250022E+03  0.7818608E-02  0.1235066E+00
         -4   -1    0    0    0  501 -0.00000000000E+00  0.00000000000E+00  0.68673575302E+01  0.69838026496E+01  0.12700000000E+01 0.  1.
          4   -1    0    0  501    0  0.00000000000E+00 -0.00000000000E+00 -0.56393489010E+03  0.56393632014E+03  0.12700000000E+01 0.  1.
         25    2    1    2    0    0  0.00000000000E+00  0.00000000000E+00 -0.55706753257E+03  0.57092012279E+03  0.12500220303E+03 0.  0.
    9000005    1    3    3    0    0  0.13697799510E+02 -0.60786503975E+02 -0.25674495958E+03  0.26419993006E+03  0.10000000000E+01 0.  0.
    9000005    1    3    3    0    0 -0.13697799510E+02  0.60786503975E+02 -0.30032257299E+03  0.30672019272E+03  0.10000000000E+01 0.  0.
<mgrwt>
<rscale>  0 0.12500220E+03</rscale>
<asrwt>0</asrwt>
<pdfrwt beam="2">  1        4 0.14099830E+00 0.12500220E+03</pdfrwt>
<pdfrwt beam="1">  1       -4 0.17315757E-02 0.12500220E+03</pdfrwt>
<totfact> 0.77284286E+02</totfact>
</mgrwt>
</event>
<event>
 5    1  0.1422067E-002  0.1249993E+03  0.7818608E-02  0.1235070E+00
          4   -1    0    0  501    0  0.00000000000E+00  0.00000000000E+00  0.31992419450E+03  0.31992671524E+03  0.12700000000E+01 0. -1.
         -4   -1    0    0    0  501 -0.00000000000E+00 -0.00000000000E+00 -0.12174188899E+02  0.12240252258E+02  0.12700000000E+01 0. -1.
         25    2    1    2    0    0  0.00000000000E+00  0.00000000000E+00  0.30775000560E+03  0.33216696750E+03  0.12499931341E+03 0.  0.
    9000005    1    3    3    0    0  0.12932595351E+02 -0.17876373672E+02  0.30924231038E+03  0.31003003610E+03  0.10000000000E+01 0.  0.
    9000005    1    3    3    0    0 -0.12932595351E+02  0.17876373672E+02 -0.14923047768E+01  0.22136931399E+02  0.10000000000E+01 0.  0.
<mgrwt>
<rscale>  0 0.12499931E+03</rscale>
<asrwt>0</asrwt>
<pdfrwt beam="1">  1        4 0.79989626E-01 0.12499931E+03</pdfrwt>
<pdfrwt beam="2">  1       -4 0.30521201E-02 0.12499931E+03</pdfrwt>
<totfact> 0.12115301E+03</totfact>
</mgrwt>
</event>
<event>
 5    1  0.1422067E-002  0.1249992E+03  0.7818608E-02  0.1235070E+00
          4   -1    0    0  501    0  0.00000000000E+00  0.00000000000E+00  0.23513323976E+02  0.23547596573E+02  0.12700000000E+01 0. -1.
         -4   -1    0    0    0  501 -0.00000000000E+00 -0.00000000000E+00 -0.16596951352E+03  0.16597437247E+03  0.12700000000E+01 0. -1.
         25    2    1    2    0    0  0.00000000000E+00  0.00000000000E+00 -0.14245618954E+03  0.18952196905E+03  0.12499924325E+03 0.  0.
    9000005    1    3    3    0    0  0.28278052264E+02 -0.31755657774E+02 -0.17952229927E+01  0.42571033182E+02  0.10000000000E+01 0.  0.
    9000005    1    3    3    0    0 -0.28278052264E+02  0.31755657774E+02 -0.14066096655E+03  0.14695093586E+03  0.10000000000E+01 0.  0.
<mgrwt>
<rscale>  0 0.12499924E+03</rscale>
<asrwt>0</asrwt>
<pdfrwt beam="1">  1        4 0.58832229E-02 0.12499924E+03</pdfrwt>
<pdfrwt beam="2">  1       -4 0.41497266E-01 0.12499924E+03</pdfrwt>
<totfact> 0.16750672E+03</totfact>
</mgrwt>
</event>
<event>
 5    1  0.1422067E-002  0.1249980E+03  0.7818608E-02  0.1235072E+00
          4   -1    0    0  501    0  0.00000000000E+00  0.00000000000E+00  0.59067091570E+02  0.59080743111E+02  0.12700000000E+01 0. -1.
         -4   -1    0    0    0  501 -0.00000000000E+00 -0.00000000000E+00 -0.66102935317E+02  0.66115134104E+02  0.12700000000E+01 0. -1.
         25    2    1    2    0    0  0.00000000000E+00  0.00000000000E+00 -0.70358437467E+01  0.12519587721E+03  0.12499801828E+03 0.  0.
    9000005    1    3    3    0    0  0.58539722949E+02  0.20477865981E+02 -0.11203658505E+02  0.63029866904E+02  0.10000000000E+01 0.  0.
    9000005    1    3    3    0    0 -0.58539722949E+02 -0.20477865981E+02  0.41678147588E+01  0.62166010311E+02  0.10000000000E+01 0.  0.
<mgrwt>
<rscale>  0 0.12499802E+03</rscale>
<asrwt>0</asrwt>
<pdfrwt beam="1">  1        4 0.14770004E-01 0.12499802E+03</pdfrwt>
<pdfrwt beam="2">  1       -4 0.16528965E-01 0.12499802E+03</pdfrwt>
<totfact> 0.19825355E+03</totfact>
</mgrwt>
</event>
<event>
 5    1  0.1422067E-002  0.1249963E+03  0.7818608E-02  0.1235075E+00
          4   -1    0    0  501    0  0.00000000000E+00  0.00000000000E+00  0.89991100047E+03  0.89991189661E+03  0.12700000000E+01 0.  1.
         -4   -1    0    0    0  501 -0.00000000000E+00 -0.00000000000E+00 -0.42466327947E+01  0.44324699766E+01  0.12700000000E+01 0.  1.
         25    2    1    2    0    0  0.00000000000E+00  0.00000000000E+00  0.89566436768E+03  0.90434436659E+03  0.12499629539E+03 0.  0.
    9000005    1    3    3    0    0 -0.50236058067E+02  0.36610742585E+02  0.40149986581E+03  0.40628456806E+03  0.10000000000E+01 0.  0.
    9000005    1    3    3    0    0  0.50236058067E+02 -0.36610742585E+02  0.49416450187E+03  0.49805979853E+03  0.10000000000E+01 0.  0.
<mgrwt>
<rscale>  0 0.12499630E+03</rscale>
<asrwt>0</asrwt>
<pdfrwt beam="1">  1        4 0.22500104E+00 0.12499630E+03</pdfrwt>
<pdfrwt beam="2">  1       -4 0.10850001E-02 0.12499630E+03</pdfrwt>
<totfact> 0.43947815E+02</totfact>
</mgrwt>
</event>
<event>
 5    1  0.1422067E-002  0.1249951E+03  0.7818608E-02  0.1235077E+00
         -4   -1    0    0    0  501 -0.00000000000E+00  0.00000000000E+00  0.21969009401E+03  0.21969376484E+03  0.12700000000E+01 0.  1.
          4   -1    0    0  501    0  0.00000000000E+00 -0.00000000000E+00 -0.17752825480E+02  0.17798194081E+02  0.12700000000E+01 0.  1.
         25    2    1    2    0    0  0.00000000000E+00  0.00000000000E+00  0.20193726853E+03  0.23749195892E+03  0.12499508041E+03 0.  0.
    9000005    1    3    3    0    0 -0.17752226035E+02  0.44809789459E+02  0.17653756458E+03  0.18300155865E+03  0.10000000000E+01 0.  0.
    9000005    1    3    3    0    0  0.17752226035E+02 -0.44809789459E+02  0.25399703958E+02  0.54490400271E+02  0.10000000000E+01 0.  0.
<mgrwt>
<rscale>  0 0.12499508E+03</rscale>
<asrwt>0</asrwt>
<pdfrwt beam="2">  1        4 0.44443364E-02 0.12499508E+03</pdfrwt>
<pdfrwt beam="1">  1       -4 0.54928652E-01 0.12499508E+03</pdfrwt>
<totfact> 0.14924943E+03</totfact>
</mgrwt>
</event>
<event>
 5    1  0.1422067E-002  0.1249601E+03  0.7818608E-02  0.1235132E+00
         -4   -1    0    0    0  501 -0.00000000000E+00  0.00000000000E+00  0.28570145091E+03  0.28570427359E+03  0.12700000000E+01 0. -1.
          4   -1    0    0  501    0  0.00000000000E+00 -0.00000000000E+00 -0.13631356004E+02  0.13690389568E+02  0.12700000000E+01 0. -1.
         25    2    1    2    0    0  0.00000000000E+00  0.00000000000E+00  0.27207009490E+03  0.29939466316E+03  0.12496010479E+03 0.  0.
    9000005    1    3    3    0    0 -0.21621785372E+02 -0.57615471905E+02  0.16180794612E+03  0.17311803960E+03  0.10000000000E+01 0.  0.
    9000005    1    3    3    0    0  0.21621785372E+02  0.57615471905E+02  0.11026214878E+03  0.12627662356E+03  0.10000000000E+01 0.  0.
<mgrwt>
<rscale>  0 0.12496010E+03</rscale>
<asrwt>0</asrwt>
<pdfrwt beam="2">  1        4 0.34155712E-02 0.12496010E+03</pdfrwt>
<pdfrwt beam="1">  1       -4 0.71433092E-01 0.12496010E+03</pdfrwt>
<totfact> 0.12999918E+03</totfact>
</mgrwt>
</event>
<event>
 5    1  0.1422067E-002  0.1249993E+03  0.7818608E-02  0.1235070E+00
          4   -1    0    0  501    0  0.00000000000E+00  0.00000000000E+00  0.44498235143E+02  0.44516354644E+02  0.12700000000E+01 0. -1.
         -4   -1    0    0    0  501 -0.00000000000E+00 -0.00000000000E+00 -0.87742874053E+02  0.87752064631E+02  0.12700000000E+01 0. -1.
         25    2    1    2    0    0  0.00000000000E+00  0.00000000000E+00 -0.43244638910E+02  0.13226841928E+03  0.12499934377E+03 0.  0.
    9000005    1    3    3    0    0 -0.53170195870E+02  0.31990137026E+02 -0.29453393798E+02  0.68694548561E+02  0.10000000000E+01 0.  0.
    9000005    1    3    3    0    0  0.53170195870E+02 -0.31990137026E+02 -0.13791245113E+02  0.63573870714E+02  0.10000000000E+01 0.  0.
<mgrwt>
<rscale>  0 0.12499934E+03</rscale>
<asrwt>0</asrwt>
<pdfrwt beam="1">  1        4 0.11127973E-01 0.12499934E+03</pdfrwt>
<pdfrwt beam="2">  1       -4 0.21939132E-01 0.12499934E+03</pdfrwt>
<totfact> 0.19443488E+03</totfact>
</mgrwt>
</event>
<event>
 5    1  0.1422067E-002  0.1250026E+03  0.7818608E-02  0.1235065E+00
         -4   -1    0    0    0  501 -0.00000000000E+00  0.00000000000E+00  0.61176522496E+02  0.61189703421E+02  0.12700000000E+01 0.  1.
          4   -1    0    0  501    0  0.00000000000E+00 -0.00000000000E+00 -0.63828412216E+02  0.63841045622E+02  0.12700000000E+01 0.  1.
         25    2    1    2    0    0  0.00000000000E+00  0.00000000000E+00 -0.26518897200E+01  0.12503074904E+03  0.12500262272E+03 0.  0.
    9000005    1    3    3    0    0  0.62846178190E+01 -0.52378897079E+02 -0.34835253674E+02  0.63226103620E+02  0.10000000000E+01 0.  0.
    9000005    1    3    3    0    0 -0.62846178190E+01  0.52378897079E+02  0.32183363954E+02  0.61804645423E+02  0.10000000000E+01 0.  0.
<mgrwt>
<rscale>  0 0.12500262E+03</rscale>
<asrwt>0</asrwt>
<pdfrwt beam="2">  1        4 0.15960330E-01 0.12500262E+03</pdfrwt>
<pdfrwt beam="1">  1       -4 0.15297357E-01 0.12500262E+03</pdfrwt>
<totfact> 0.19832171E+03</totfact>
</mgrwt>
</event>
<event>
 5    1  0.1422067E-002  0.1249990E+03  0.7818608E-02  0.1235071E+00
         -4   -1    0    0    0  501 -0.00000000000E+00  0.00000000000E+00  0.40137831672E+02  0.40157918663E+02  0.12700000000E+01 0.  1.
          4   -1    0    0  501    0  0.00000000000E+00 -0.00000000000E+00 -0.97270822008E+02  0.97279112424E+02  0.12700000000E+01 0.  1.
         25    2    1    2    0    0  0.00000000000E+00  0.00000000000E+00 -0.57132990335E+02  0.13743703109E+03  0.12499903571E+03 0.  0.
    9000005    1    3    3    0    0  0.51005002477E+02 -0.92622325710E+01 -0.66937327869E+02  0.84669386983E+02  0.10000000000E+01 0.  0.
    9000005    1    3    3    0    0 -0.51005002477E+02  0.92622325710E+01  0.98043375334E+01  0.52767644104E+02  0.10000000000E+01 0.  0.
<mgrwt>
<rscale>  0 0.12499904E+03</rscale>
<asrwt>0</asrwt>
<pdfrwt beam="2">  1        4 0.24321252E-01 0.12499904E+03</pdfrwt>
<pdfrwt beam="1">  1       -4 0.10038005E-01 0.12499904E+03</pdfrwt>
<totfact> 0.19172668E+03</totfact>
</mgrwt>
</event>
<event>
 5    1  0.1422067E-002  0.1249990E+03  0.7818608E-02  0.1235071E+00
          4   -1    0    0  501    0  0.00000000000E+00  0.00000000000E+00  0.65111952363E+02  0.65124336776E+02  0.12700000000E+01 0.  1.
         -4   -1    0    0    0  501 -0.00000000000E+00 -0.00000000000E+00 -0.59967047134E+02  0.59980493846E+02  0.12700000000E+01 0.  1.
         25    2    1    2    0    0  0.00000000000E+00  0.00000000000E+00  0.51449052289E+01  0.12510483062E+03  0.12499899438E+03 0.  0.
    9000005    1    3    3    0    0  0.55121359768E+02  0.11716269421E+02 -0.24460634859E+02  0.61440686272E+02  0.10000000000E+01 0.  0.
    9000005    1    3    3    0    0 -0.55121359768E+02 -0.11716269421E+02  0.29605540088E+02  0.63664144350E+02  0.10000000000E+01 0.  0.
<mgrwt>
<rscale>  0 0.12499899E+03</rscale>
<asrwt>0</asrwt>
<pdfrwt beam="1">  1        4 0.16281217E-01 0.12499899E+03</pdfrwt>
<pdfrwt beam="2">  1       -4 0.14994991E-01 0.12499899E+03</pdfrwt>
<totfact> 0.19829838E+03</totfact>
</mgrwt>
</event>
<event>
 5    1  0.1422067E-002  0.1250000E+03  0.7818608E-02  0.1235069E+00
         -4   -1    0    0    0  501 -0.00000000000E+00  0.00000000000E+00  0.15904713318E+02  0.15955337844E+02  0.12700000000E+01 0. -1.
          4   -1    0    0  501    0  0.00000000000E+00 -0.00000000000E+00 -0.24516080656E+03  0.24516409601E+03  0.12700000000E+01 0. -1.
         25    2    1    2    0    0  0.00000000000E+00  0.00000000000E+00 -0.22925609324E+03  0.26111943385E+03  0.12500000979E+03 0.  0.
    9000005    1    3    3    0    0  0.21877383352E+02 -0.48907483693E+02 -0.47433502522E+02  0.71564649269E+02  0.10000000000E+01 0.  0.
    9000005    1    3    3    0    0 -0.21877383352E+02  0.48907483693E+02 -0.18182259072E+03  0.18955478458E+03  0.10000000000E+01 0.  0.
<mgrwt>
<rscale>  0 0.12500001E+03</rscale>
<asrwt>0</asrwt>
<pdfrwt beam="2">  1        4 0.61296929E-01 0.12500001E+03</pdfrwt>
<pdfrwt beam="1">  1       -4 0.39829184E-02 0.12500001E+03</pdfrwt>
<totfact> 0.14135273E+03</totfact>
</mgrwt>
</event>
<event>
 5    1  0.1422067E-002  0.1249802E+03  0.7818608E-02  0.1235100E+00
         -4   -1    0    0    0  501 -0.00000000000E+00  0.00000000000E+00  0.89058878764E+03  0.89058969316E+03  0.12700000000E+01 0.  1.
          4   -1    0    0  501    0  0.00000000000E+00 -0.00000000000E+00 -0.42918690115E+01  0.44758283716E+01  0.12700000000E+01 0.  1.
         25    2    1    2    0    0  0.00000000000E+00  0.00000000000E+00  0.88629691863E+03  0.89506552154E+03  0.12498023792E+03 0.  0.
    9000005    1    3    3    0    0 -0.38787236061E+02 -0.47914363200E+02  0.51610570019E+03  0.51977526841E+03  0.10000000000E+01 0.  0.
    9000005    1    3    3    0    0  0.38787236061E+02  0.47914363200E+02  0.37019121844E+03  0.37529025313E+03  0.10000000000E+01 0.  0.
<mgrwt>
<rscale>  0 0.12498024E+03</rscale>
<asrwt>0</asrwt>
<pdfrwt beam="2">  1        4 0.10960752E-02 0.12498024E+03</pdfrwt>
<pdfrwt beam="1">  1       -4 0.22267033E+00 0.12498024E+03</pdfrwt>
<totfact> 0.44672544E+02</totfact>
</mgrwt>
</event>
<event>
 5    1  0.1422067E-002  0.1250010E+03  0.7818608E-02  0.1235068E+00
         -4   -1    0    0    0  501 -0.00000000000E+00  0.00000000000E+00  0.10960829230E+02  0.11034159569E+02  0.12700000000E+01 0.  1.
          4   -1    0    0  501    0  0.00000000000E+00 -0.00000000000E+00 -0.35512580316E+03  0.35512807404E+03  0.12700000000E+01 0.  1.
         25    2    1    2    0    0  0.00000000000E+00  0.00000000000E+00 -0.34416497393E+03  0.36616223360E+03  0.12500100816E+03 0.  0.
    9000005    1    3    3    0    0  0.12055194941E+02  0.74891474213E+01 -0.35035711523E+03  0.35064586586E+03  0.10000000000E+01 0.  0.
    9000005    1    3    3    0    0 -0.12055194941E+02 -0.74891474213E+01  0.61921412987E+01  0.15516367746E+02  0.10000000000E+01 0.  0.
<mgrwt>
<rscale>  0 0.12500101E+03</rscale>
<asrwt>0</asrwt>
<pdfrwt beam="2">  1        4 0.88790863E-01 0.12500101E+03</pdfrwt>
<pdfrwt beam="1">  1       -4 0.27496586E-02 0.12500101E+03</pdfrwt>
<totfact> 0.11300860E+03</totfact>
</mgrwt>
</event>
<event>
 5    1  0.1422067E-002  0.1250031E+03  0.7818608E-02  0.1235064E+00
          4   -1    0    0  501    0  0.00000000000E+00  0.00000000000E+00  0.53642138309E+02  0.53657170092E+02  0.12700000000E+01 0.  1.
         -4   -1    0    0    0  501 -0.00000000000E+00 -0.00000000000E+00 -0.72793420579E+02  0.72804498347E+02  0.12700000000E+01 0.  1.
         25    2    1    2    0    0  0.00000000000E+00  0.00000000000E+00 -0.19151282270E+02  0.12646166844E+03  0.12500312785E+03 0.  0.
    9000005    1    3    3    0    0  0.47609044324E+02  0.39373986845E+02 -0.19093579987E+02  0.64672225400E+02  0.10000000000E+01 0.  0.
    9000005    1    3    3    0    0 -0.47609044324E+02 -0.39373986845E+02 -0.57702283430E-01  0.61789443039E+02  0.10000000000E+01 0.  0.
<mgrwt>
<rscale>  0 0.12500313E+03</rscale>
<asrwt>0</asrwt>
<pdfrwt beam="1">  1        4 0.13413798E-01 0.12500313E+03</pdfrwt>
<pdfrwt beam="2">  1       -4 0.18201619E-01 0.12500313E+03</pdfrwt>
<totfact> 0.19754547E+03</totfact>
</mgrwt>
</event>
<event>
 5    1  0.1422067E-002  0.1249995E+03  0.7818608E-02  0.1235070E+00
          4   -1    0    0  501    0  0.00000000000E+00  0.00000000000E+00  0.75325455403E+02  0.75336160851E+02  0.12700000000E+01 0.  1.
         -4   -1    0    0    0  501 -0.00000000000E+00 -0.00000000000E+00 -0.51835737432E+02  0.51851292898E+02  0.12700000000E+01 0.  1.
         25    2    1    2    0    0  0.00000000000E+00  0.00000000000E+00  0.23489717971E+02  0.12718745375E+03  0.12499952616E+03 0.  0.
    9000005    1    3    3    0    0  0.51885506967E+02 -0.18935883509E+02 -0.17999447646E+02  0.58100375499E+02  0.10000000000E+01 0.  0.
    9000005    1    3    3    0    0 -0.51885506967E+02  0.18935883509E+02  0.41489165617E+02  0.69087078250E+02  0.10000000000E+01 0.  0.
<mgrwt>
<rscale>  0 0.12499953E+03</rscale>
<asrwt>0</asrwt>
<pdfrwt beam="1">  1        4 0.18834646E-01 0.12499953E+03</pdfrwt>
<pdfrwt beam="2">  1       -4 0.12962217E-01 0.12499953E+03</pdfrwt>
<totfact> 0.19717048E+03</totfact>
</mgrwt>
</event>
<event>
 5    1  0.1422067E-002  0.1249947E+03  0.7818608E-02  0.1235078E+00
         -4   -1    0    0    0  501 -0.00000000000E+00  0.00000000000E+00  0.37539360921E+03  0.37539575748E+03  0.12700000000E+01 0. -1.
          4   -1    0    0  501    0  0.00000000000E+00 -0.00000000000E+00 -0.10363926229E+02  0.10441449462E+02  0.12700000000E+01 0. -1.
         25    2    1    2    0    0  0.00000000000E+00  0.00000000000E+00  0.36502968298E+03  0.38583720694E+03  0.12499472311E+03 0.  0.
    9000005    1    3    3    0    0  0.25951052610E+02 -0.56140841276E+02  0.21006709577E+03  0.21898501299E+03  0.10000000000E+01 0.  0.
    9000005    1    3    3    0    0 -0.25951052610E+02  0.56140841276E+02  0.15496258721E+03  0.16685219395E+03  0.10000000000E+01 0.  0.
<mgrwt>
<rscale>  0 0.12499472E+03</rscale>
<asrwt>0</asrwt>
<pdfrwt beam="2">  1        4 0.26009406E-02 0.12499472E+03</pdfrwt>
<pdfrwt beam="1">  1       -4 0.93858359E-01 0.12499472E+03</pdfrwt>
<totfact> 0.10868171E+03</totfact>
</mgrwt>
</event>
<event>
 5    1  0.1422067E-002  0.1249976E+03  0.7818608E-02  0.1235073E+00
          4   -1    0    0  501    0  0.00000000000E+00  0.00000000000E+00  0.10665597777E+03  0.10666353873E+03  0.12700000000E+01 0. -1.
         -4   -1    0    0    0  501 -0.00000000000E+00 -0.00000000000E+00 -0.36603508731E+02  0.36625534145E+02  0.12700000000E+01 0. -1.
         25    2    1    2    0    0  0.00000000000E+00  0.00000000000E+00  0.70052469040E+02  0.14328907287E+03  0.12499763992E+03 0.  0.
    9000005    1    3    3    0    0 -0.52040824044E+02 -0.11065435940E+02 -0.25485530900E+01  0.53274631510E+02  0.10000000000E+01 0.  0.
    9000005    1    3    3    0    0  0.52040824044E+02  0.11065435940E+02  0.72601022130E+02  0.90014441364E+02  0.10000000000E+01 0.  0.
<mgrwt>
<rscale>  0 0.12499764E+03</rscale>
<asrwt>0</asrwt>
<pdfrwt beam="1">  1        4 0.26667693E-01 0.12499764E+03</pdfrwt>
<pdfrwt beam="2">  1       -4 0.91545756E-02 0.12499764E+03</pdfrwt>
<totfact> 0.18874362E+03</totfact>
</mgrwt>
</event>
<event>
 5    1  0.1422067E-002  0.1250050E+03  0.7818608E-02  0.1235061E+00
         -4   -1    0    0    0  501 -0.00000000000E+00  0.00000000000E+00  0.83758798826E+03  0.83758895108E+03  0.12700000000E+01 0. -1.
          4   -1    0    0  501    0  0.00000000000E+00 -0.00000000000E+00 -0.45766259335E+01  0.47495689210E+01  0.12700000000E+01 0. -1.
         25    2    1    2    0    0  0.00000000000E+00  0.00000000000E+00  0.83301136233E+03  0.84233852000E+03  0.12500500997E+03 0.  0.
    9000005    1    3    3    0    0 -0.40773030261E+02 -0.15702645400E+02  0.71759776973E+03  0.71892737616E+03  0.10000000000E+01 0.  0.
    9000005    1    3    3    0    0  0.40773030261E+02  0.15702645400E+02  0.11541359259E+03  0.12341114384E+03  0.10000000000E+01 0.  0.
<mgrwt>
<rscale>  0 0.12500501E+03</rscale>
<asrwt>0</asrwt>
<pdfrwt beam="2">  1        4 0.11658948E-02 0.12500501E+03</pdfrwt>
<pdfrwt beam="1">  1       -4 0.20941872E+00 0.12500501E+03</pdfrwt>
<totfact> 0.48856371E+02</totfact>
</mgrwt>
</event>
<event>
 5    1  0.1422067E-002  0.1249985E+03  0.7818608E-02  0.1235072E+00
         -4   -1    0    0    0  501 -0.00000000000E+00  0.00000000000E+00  0.20629775215E+02  0.20668829803E+02  0.12700000000E+01 0.  1.
          4   -1    0    0  501    0  0.00000000000E+00 -0.00000000000E+00 -0.18912520349E+03  0.18912946755E+03  0.12700000000E+01 0.  1.
         25    2    1    2    0    0  0.00000000000E+00  0.00000000000E+00 -0.16849542828E+03  0.20979829736E+03  0.12499846488E+03 0.  0.
    9000005    1    3    3    0    0  0.28049400446E+01  0.24374475799E+02 -0.18071117248E+03  0.18237190194E+03  0.10000000000E+01 0.  0.
    9000005    1    3    3    0    0 -0.28049400446E+01 -0.24374475799E+02  0.12215744199E+02  0.27426395415E+02  0.10000000000E+01 0.  0.
<mgrwt>
<rscale>  0 0.12499846E+03</rscale>
<asrwt>0</asrwt>
<pdfrwt beam="2">  1        4 0.47286711E-01 0.12499846E+03</pdfrwt>
<pdfrwt beam="1">  1       -4 0.51628592E-02 0.12499846E+03</pdfrwt>
<totfact> 0.15937644E+03</totfact>
</mgrwt>
</event>
<event>
 5    1  0.1422067E-002  0.1250010E+03  0.7818608E-02  0.1235068E+00
         -4   -1    0    0    0  501 -0.00000000000E+00  0.00000000000E+00  0.20710666037E+02  0.20749568374E+02  0.12700000000E+01 0.  1.
          4   -1    0    0  501    0  0.00000000000E+00 -0.00000000000E+00 -0.18839540027E+03  0.18839968085E+03  0.12700000000E+01 0.  1.
         25    2    1    2    0    0  0.00000000000E+00  0.00000000000E+00 -0.16768473423E+03  0.20914924922E+03  0.12500095341E+03 0.  0.
    9000005    1    3    3    0    0  0.45420218934E+02  0.39155021690E+02 -0.11326361069E+03  0.12816301151E+03  0.10000000000E+01 0.  0.
    9000005    1    3    3    0    0 -0.45420218934E+02 -0.39155021690E+02 -0.54421123540E+02  0.80986237713E+02  0.10000000000E+01 0.  0.
<mgrwt>
<rscale>  0 0.12500095E+03</rscale>
<asrwt>0</asrwt>
<pdfrwt beam="2">  1        4 0.47104243E-01 0.12500095E+03</pdfrwt>
<pdfrwt beam="1">  1       -4 0.51830650E-02 0.12500095E+03</pdfrwt>
<totfact> 0.15961780E+03</totfact>
</mgrwt>
</event>
<event>
 5    1  0.1422067E-002  0.1249955E+03  0.7818608E-02  0.1235076E+00
          4   -1    0    0  501    0  0.00000000000E+00  0.00000000000E+00  0.72309694141E+02  0.72320846005E+02  0.12700000000E+01 0.  1.
         -4   -1    0    0    0  501 -0.00000000000E+00 -0.00000000000E+00 -0.53994417791E+02  0.54009351529E+02  0.12700000000E+01 0.  1.
         25    2    1    2    0    0  0.00000000000E+00  0.00000000000E+00  0.18315276350E+02  0.12633019753E+03  0.12499547776E+03 0.  0.
    9000005    1    3    3    0    0  0.12355394005E+02 -0.29519971387E+02  0.63404632076E+02  0.71029795442E+02  0.10000000000E+01 0.  0.
    9000005    1    3    3    0    0 -0.12355394005E+02  0.29519971387E+02 -0.45089355726E+02  0.55300402092E+02  0.10000000000E+01 0.  0.
<mgrwt>
<rscale>  0 0.12499548E+03</rscale>
<asrwt>0</asrwt>
<pdfrwt beam="1">  1        4 0.18080684E-01 0.12499548E+03</pdfrwt>
<pdfrwt beam="2">  1       -4 0.13501865E-01 0.12499548E+03</pdfrwt>
<totfact> 0.19765178E+03</totfact>
</mgrwt>
</event>
<event>
 5    1  0.1422067E-002  0.1250010E+03  0.7818608E-02  0.1235068E+00
          4   -1    0    0  501    0  0.00000000000E+00  0.00000000000E+00  0.95827874924E+02  0.95836290164E+02  0.12700000000E+01 0.  1.
         -4   -1    0    0    0  501 -0.00000000000E+00 -0.00000000000E+00 -0.40743728341E+02  0.40763516766E+02  0.12700000000E+01 0.  1.
         25    2    1    2    0    0  0.00000000000E+00  0.00000000000E+00  0.55084146583E+02  0.13659980693E+03  0.12500097619E+03 0.  0.
    9000005    1    3    3    0    0 -0.19782669518E+02 -0.47831391731E+02  0.65807122596E+02  0.83730361474E+02  0.10000000000E+01 0.  0.
    9000005    1    3    3    0    0  0.19782669518E+02  0.47831391731E+02 -0.10722976013E+02  0.52869445456E+02  0.10000000000E+01 0.  0.
<mgrwt>
<rscale>  0 0.12500098E+03</rscale>
<asrwt>0</asrwt>
<pdfrwt beam="1">  1        4 0.23960494E-01 0.12500098E+03</pdfrwt>
<pdfrwt beam="2">  1       -4 0.10189458E-01 0.12500098E+03</pdfrwt>
<totfact> 0.19215228E+03</totfact>
</mgrwt>
</event>
<event>
 5    1  0.1422067E-002  0.1250000E+03  0.7818608E-02  0.1235069E+00
         -4   -1    0    0    0  501 -0.00000000000E+00  0.00000000000E+00  0.35501537875E+03  0.35501765033E+03  0.12700000000E+01 0. -1.
          4   -1    0    0  501    0  0.00000000000E+00 -0.00000000000E+00 -0.10964083995E+02  0.11037392711E+02  0.12700000000E+01 0. -1.
         25    2    1    2    0    0  0.00000000000E+00  0.00000000000E+00  0.34405129475E+03  0.36605504304E+03  0.12500000446E+03 0.  0.
    9000005    1    3    3    0    0  0.55631121151E+01 -0.55669352679E+02  0.90489475677E+02  0.10639252912E+03  0.10000000000E+01 0.  0.
    9000005    1    3    3    0    0 -0.55631121151E+01  0.55669352679E+02  0.25356181908E+03  0.25966251392E+03  0.10000000000E+01 0.  0.
<mgrwt>
<rscale>  0 0.12500000E+03</rscale>
<asrwt>0</asrwt>
<pdfrwt beam="2">  1        4 0.27504687E-02 0.12500000E+03</pdfrwt>
<pdfrwt beam="1">  1       -4 0.88763287E-01 0.12500000E+03</pdfrwt>
<totfact> 0.11303552E+03</totfact>
</mgrwt>
</event>
<event>
 5    1  0.1422067E-002  0.1250040E+03  0.7818608E-02  0.1235063E+00
          4   -1    0    0  501    0  0.00000000000E+00  0.00000000000E+00  0.21128450955E+03  0.21128832641E+03  0.12700000000E+01 0.  1.
         -4   -1    0    0    0  501 -0.00000000000E+00 -0.00000000000E+00 -0.18463502582E+02  0.18507129102E+02  0.12700000000E+01 0.  1.
         25    2    1    2    0    0  0.00000000000E+00  0.00000000000E+00  0.19282100697E+03  0.22979545551E+03  0.12500404251E+03 0.  0.
    9000005    1    3    3    0    0  0.61356383437E+02  0.10737816601E+02  0.87110034518E+02  0.10709371880E+03  0.10000000000E+01 0.  0.
    9000005    1    3    3    0    0 -0.61356383437E+02 -0.10737816601E+02  0.10571097245E+03  0.12270173671E+03  0.10000000000E+01 0.  0.
<mgrwt>
<rscale>  0 0.12500404E+03</rscale>
<asrwt>0</asrwt>
<pdfrwt beam="1">  1        4 0.52827058E-01 0.12500404E+03</pdfrwt>
<pdfrwt beam="2">  1       -4 0.46218061E-02 0.12500404E+03</pdfrwt>
<totfact> 0.15193207E+03</totfact>
</mgrwt>
</event>
<event>
 5    1  0.1422067E-002  0.1250002E+03  0.7818608E-02  0.1235069E+00
         -4   -1    0    0    0  501 -0.00000000000E+00  0.00000000000E+00  0.68770541902E+02  0.68782267581E+02  0.12700000000E+01 0. -1.
          4   -1    0    0  501    0  0.00000000000E+00 -0.00000000000E+00 -0.56777733322E+02  0.56791935177E+02  0.12700000000E+01 0. -1.
         25    2    1    2    0    0  0.00000000000E+00  0.00000000000E+00  0.11992808581E+02  0.12557420276E+03  0.12500021176E+03 0.  0.
    9000005    1    3    3    0    0 -0.39423337666E+02 -0.23492813866E+02 -0.36614773053E+02  0.58717573705E+02  0.10000000000E+01 0.  0.
    9000005    1    3    3    0    0  0.39423337666E+02  0.23492813866E+02  0.48607581634E+02  0.66856629053E+02  0.10000000000E+01 0.  0.
<mgrwt>
<rscale>  0 0.12500021E+03</rscale>
<asrwt>0</asrwt>
<pdfrwt beam="2">  1        4 0.14197674E-01 0.12500021E+03</pdfrwt>
<pdfrwt beam="1">  1       -4 0.17195876E-01 0.12500021E+03</pdfrwt>
<totfact> 0.19803849E+03</totfact>
</mgrwt>
</event>
<event>
 5    1  0.1422067E-002  0.1250054E+03  0.7818608E-02  0.1235061E+00
          4   -1    0    0  501    0  0.00000000000E+00  0.00000000000E+00  0.70465624734E+03  0.70465739180E+03  0.12700000000E+01 0. -1.
         -4   -1    0    0    0  501 -0.00000000000E+00 -0.00000000000E+00 -0.54700666497E+01  0.56155613390E+01  0.12700000000E+01 0. -1.
         25    2    1    2    0    0  0.00000000000E+00  0.00000000000E+00  0.69918618069E+03  0.71027295314E+03  0.12500541064E+03 0.  0.
    9000005    1    3    3    0    0  0.36817729365E+02 -0.46583877004E+02  0.46035231577E+03  0.46416684223E+03  0.10000000000E+01 0.  0.
    9000005    1    3    3    0    0 -0.36817729365E+02  0.46583877004E+02  0.23883386492E+03  0.24610611091E+03  0.10000000000E+01 0.  0.
<mgrwt>
<rscale>  0 0.12500541E+03</rscale>
<asrwt>0</asrwt>
<pdfrwt beam="1">  1        4 0.17618237E+00 0.12500541E+03</pdfrwt>
<pdfrwt beam="2">  1       -4 0.13858467E-02 0.12500541E+03</pdfrwt>
<totfact> 0.60994955E+02</totfact>
</mgrwt>
</event>
<event>
 5    1  0.1422067E-002  0.1249974E+03  0.7818608E-02  0.1235073E+00
          4   -1    0    0  501    0  0.00000000000E+00  0.00000000000E+00  0.39106809877E+02  0.39127426171E+02  0.12700000000E+01 0.  1.
         -4   -1    0    0    0  501 -0.00000000000E+00 -0.00000000000E+00 -0.99831549411E+02  0.99839627192E+02  0.12700000000E+01 0.  1.
         25    2    1    2    0    0  0.00000000000E+00  0.00000000000E+00 -0.60724739534E+02  0.13896705336E+03  0.12499739169E+03 0.  0.
    9000005    1    3    3    0    0  0.60244742096E+02 -0.15348316827E+02 -0.23323324247E+02  0.66407659449E+02  0.10000000000E+01 0.  0.
    9000005    1    3    3    0    0 -0.60244742096E+02  0.15348316827E+02 -0.37401415287E+02  0.72559393913E+02  0.10000000000E+01 0.  0.
<mgrwt>
<rscale>  0 0.12499739E+03</rscale>
<asrwt>0</asrwt>
<pdfrwt beam="1">  1        4 0.97802894E-02 0.12499739E+03</pdfrwt>
<pdfrwt beam="2">  1       -4 0.24961474E-01 0.12499739E+03</pdfrwt>
<totfact> 0.19094473E+03</totfact>
</mgrwt>
</event>
<event>
 5    1  0.1422067E-002  0.1249895E+03  0.7818608E-02  0.1235086E+00
          4   -1    0    0  501    0  0.00000000000E+00  0.00000000000E+00  0.13164252921E+03  0.13164865513E+03  0.12700000000E+01 0.  1.
         -4   -1    0    0    0  501 -0.00000000000E+00 -0.00000000000E+00 -0.29647758646E+02  0.29674947224E+02  0.12700000000E+01 0.  1.
         25    2    1    2    0    0  0.00000000000E+00  0.00000000000E+00  0.10199477057E+03  0.16132360235E+03  0.12498948537E+03 0.  0.
    9000005    1    3    3    0    0  0.12434740734E+02 -0.43416635655E+02  0.10673647493E+03  0.11590212297E+03  0.10000000000E+01 0.  0.
    9000005    1    3    3    0    0 -0.12434740734E+02  0.43416635655E+02 -0.47417043673E+01  0.45421479379E+02  0.10000000000E+01 0.  0.
<mgrwt>
<rscale>  0 0.12498949E+03</rscale>
<asrwt>0</asrwt>
<pdfrwt beam="1">  1        4 0.32914796E-01 0.12498949E+03</pdfrwt>
<pdfrwt beam="2">  1       -4 0.74161040E-02 0.12498949E+03</pdfrwt>
<totfact> 0.18000039E+03</totfact>
</mgrwt>
</event>
<event>
 5    1  0.1422067E-002  0.1250017E+03  0.7818608E-02  0.1235067E+00
         -4   -1    0    0    0  501 -0.00000000000E+00  0.00000000000E+00  0.60199620911E+01  0.61524664630E+01  0.12700000000E+01 0. -1.
          4   -1    0    0  501    0  0.00000000000E+00 -0.00000000000E+00 -0.64170340278E+03  0.64170465952E+03  0.12700000000E+01 0. -1.
         25    2    1    2    0    0  0.00000000000E+00  0.00000000000E+00 -0.63568344069E+03  0.64785712598E+03  0.12500167563E+03 0.  0.
    9000005    1    3    3    0    0 -0.40032289627E+02 -0.67258724405E+01 -0.56409412154E+03  0.56555371056E+03  0.10000000000E+01 0.  0.
    9000005    1    3    3    0    0  0.40032289627E+02  0.67258724405E+01 -0.71589319157E+02  0.82303415423E+02  0.10000000000E+01 0.  0.
<mgrwt>
<rscale>  0 0.12500168E+03</rscale>
<asrwt>0</asrwt>
<pdfrwt beam="2">  1        4 0.16044234E+00 0.12500168E+03</pdfrwt>
<pdfrwt beam="1">  1       -4 0.15217128E-02 0.12500168E+03</pdfrwt>
<totfact> 0.67754176E+02</totfact>
</mgrwt>
</event>
<event>
 5    1  0.1422067E-002  0.1250020E+03  0.7818608E-02  0.1235066E+00
          4   -1    0    0  501    0  0.00000000000E+00  0.00000000000E+00  0.49488274063E+01  0.51091870878E+01  0.12700000000E+01 0. -1.
         -4   -1    0    0    0  501 -0.00000000000E+00 -0.00000000000E+00 -0.77660776399E+03  0.77660880241E+03  0.12700000000E+01 0. -1.
         25    2    1    2    0    0  0.00000000000E+00  0.00000000000E+00 -0.77165893658E+03  0.78171798950E+03  0.12500200280E+03 0.  0.
    9000005    1    3    3    0    0 -0.40830663342E+02 -0.47299037969E+02 -0.39218581090E+03  0.39713354471E+03  0.10000000000E+01 0.  0.
    9000005    1    3    3    0    0  0.40830663342E+02  0.47299037969E+02 -0.37947312568E+03  0.38458444479E+03  0.10000000000E+01 0.  0.
<mgrwt>
<rscale>  0 0.12500200E+03</rscale>
<asrwt>0</asrwt>
<pdfrwt beam="1">  1        4 0.12573843E-02 0.12500200E+03</pdfrwt>
<pdfrwt beam="2">  1       -4 0.19417171E+00 0.12500200E+03</pdfrwt>
<totfact> 0.54114992E+02</totfact>
</mgrwt>
</event>
<event>
 5    1  0.1422067E-002  0.1250018E+03  0.7818608E-02  0.1235066E+00
         -4   -1    0    0    0  501 -0.00000000000E+00  0.00000000000E+00  0.20134937116E+03  0.20135337635E+03  0.12700000000E+01 0. -1.
          4   -1    0    0  501    0  0.00000000000E+00 -0.00000000000E+00 -0.19375945416E+02  0.19417522004E+02  0.12700000000E+01 0. -1.
         25    2    1    2    0    0  0.00000000000E+00  0.00000000000E+00  0.18197342575E+03  0.22077089835E+03  0.12500184751E+03 0.  0.
    9000005    1    3    3    0    0  0.18319378250E+02 -0.57292318171E+02  0.12092559813E+03  0.13506298391E+03  0.10000000000E+01 0.  0.
    9000005    1    3    3    0    0 -0.18319378250E+02  0.57292318171E+02  0.61047827619E+02  0.85707914441E+02  0.10000000000E+01 0.  0.
<mgrwt>
<rscale>  0 0.12500185E+03</rscale>
<asrwt>0</asrwt>
<pdfrwt beam="2">  1        4 0.48496840E-02 0.12500185E+03</pdfrwt>
<pdfrwt beam="1">  1       -4 0.50343041E-01 0.12500185E+03</pdfrwt>
<totfact> 0.15522130E+03</totfact>
</mgrwt>
</event>
<event>
 5    1  0.1422067E-002  0.1250017E+03  0.7818608E-02  0.1235067E+00
         -4   -1    0    0    0  501 -0.00000000000E+00  0.00000000000E+00  0.32151122700E+02  0.32176196029E+02  0.12700000000E+01 0. -1.
          4   -1    0    0  501    0  0.00000000000E+00 -0.00000000000E+00 -0.12142410895E+03  0.12143075036E+03  0.12700000000E+01 0. -1.
         25    2    1    2    0    0  0.00000000000E+00  0.00000000000E+00 -0.89272986248E+02  0.15360694639E+03  0.12500171161E+03 0.  0.
    9000005    1    3    3    0    0 -0.41773424344E+02  0.37260216289E+02 -0.78779955709E+02  0.96646904352E+02  0.10000000000E+01 0.  0.
    9000005    1    3    3    0    0  0.41773424344E+02 -0.37260216289E+02 -0.10493030538E+02  0.56960042040E+02  0.10000000000E+01 0.  0.
<mgrwt>
<rscale>  0 0.12500171E+03</rscale>
<asrwt>0</asrwt>
<pdfrwt beam="2">  1        4 0.30359990E-01 0.12500171E+03</pdfrwt>
<pdfrwt beam="1">  1       -4 0.80417453E-02 0.12500171E+03</pdfrwt>
<totfact> 0.18362107E+03</totfact>
</mgrwt>
</event>
<event>
 5    1  0.1422067E-002  0.1250040E+03  0.7818608E-02  0.1235063E+00
         -4   -1    0    0    0  501 -0.00000000000E+00  0.00000000000E+00  0.31782372165E+03  0.31782625905E+03  0.12700000000E+01 0. -1.
          4   -1    0    0  501    0  0.00000000000E+00 -0.00000000000E+00 -0.12255997295E+02  0.12321622040E+02  0.12700000000E+01 0. -1.
         25    2    1    2    0    0  0.00000000000E+00  0.00000000000E+00  0.30556772435E+03  0.33014788109E+03  0.12500395683E+03 0.  0.
    9000005    1    3    3    0    0  0.61431620417E+00  0.47699223157E+02  0.46157210628E+02  0.66385852161E+02  0.10000000000E+01 0.  0.
    9000005    1    3    3    0    0 -0.61431620417E+00 -0.47699223157E+02  0.25941051372E+03  0.26376202893E+03  0.10000000000E+01 0.  0.
<mgrwt>
<rscale>  0 0.12500396E+03</rscale>
<asrwt>0</asrwt>
<pdfrwt beam="2">  1        4 0.30725195E-02 0.12500396E+03</pdfrwt>
<pdfrwt beam="1">  1       -4 0.79464453E-01 0.12500396E+03</pdfrwt>
<totfact> 0.12165176E+03</totfact>
</mgrwt>
</event>
<event>
 5    1  0.1422067E-002  0.1249989E+03  0.7818608E-02  0.1235071E+00
         -4   -1    0    0    0  501 -0.00000000000E+00  0.00000000000E+00  0.50897711847E+02  0.50913553905E+02  0.12700000000E+01 0.  1.
          4   -1    0    0  501    0  0.00000000000E+00 -0.00000000000E+00 -0.76712660011E+02  0.76723171897E+02  0.12700000000E+01 0.  1.
         25    2    1    2    0    0  0.00000000000E+00  0.00000000000E+00 -0.25814948164E+02  0.12763672580E+03  0.12499888889E+03 0.  0.
    9000005    1    3    3    0    0  0.57408062186E+02  0.14077557081E+02 -0.33616420814E+02  0.68006815582E+02  0.10000000000E+01 0.  0.
    9000005    1    3    3    0    0 -0.57408062186E+02 -0.14077557081E+02  0.78014726492E+01  0.59629910220E+02  0.10000000000E+01 0.  0.
<mgrwt>
<rscale>  0 0.12499889E+03</rscale>
<asrwt>0</asrwt>
<pdfrwt beam="2">  1        4 0.19181459E-01 0.12499889E+03</pdfrwt>
<pdfrwt beam="1">  1       -4 0.12727722E-01 0.12499889E+03</pdfrwt>
<totfact> 0.19692834E+03</totfact>
</mgrwt>
</event>
<event>
 5    1  0.1422067E-002  0.1249999E+03  0.7818608E-02  0.1235070E+00
         -4   -1    0    0    0  501 -0.00000000000E+00  0.00000000000E+00  0.58408480018E+02  0.58422285457E+02  0.12700000000E+01 0. -1.
          4   -1    0    0  501    0  0.00000000000E+00 -0.00000000000E+00 -0.66850233756E+02  0.66862296201E+02  0.12700000000E+01 0. -1.
         25    2    1    2    0    0  0.00000000000E+00  0.00000000000E+00 -0.84417537384E+01  0.12528458166E+03  0.12499985278E+03 0.  0.
    9000005    1    3    3    0    0  0.25225583835E+01 -0.27110893046E+02  0.52155598396E+02  0.58843608545E+02  0.10000000000E+01 0.  0.
    9000005    1    3    3    0    0 -0.25225583835E+01  0.27110893046E+02 -0.60597352134E+02  0.66440973113E+02  0.10000000000E+01 0.  0.
<mgrwt>
<rscale>  0 0.12499985E+03</rscale>
<asrwt>0</asrwt>
<pdfrwt beam="2">  1        4 0.16715792E-01 0.12499985E+03</pdfrwt>
<pdfrwt beam="1">  1       -4 0.14605354E-01 0.12499985E+03</pdfrwt>
<totfact> 0.19819698E+03</totfact>
</mgrwt>
</event>
<event>
 5    1  0.1422067E-002  0.1249846E+03  0.7818608E-02  0.1235093E+00
         -4   -1    0    0    0  501 -0.00000000000E+00  0.00000000000E+00  0.61150460545E+01  0.62455334639E+01  0.12700000000E+01 0. -1.
          4   -1    0    0  501    0  0.00000000000E+00 -0.00000000000E+00 -0.63176244104E+03  0.63176371755E+03  0.12700000000E+01 0. -1.
         25    2    1    2    0    0  0.00000000000E+00  0.00000000000E+00 -0.62564739499E+03  0.63800925101E+03  0.12498456514E+03 0.  0.
    9000005    1    3    3    0    0 -0.40970656324E+02 -0.40767896205E+02 -0.19162922887E+03  0.20015838078E+03  0.10000000000E+01 0.  0.
    9000005    1    3    3    0    0  0.40970656324E+02  0.40767896205E+02 -0.43401816612E+03  0.43785087023E+03  0.10000000000E+01 0.  0.
<mgrwt>
<rscale>  0 0.12498457E+03</rscale>
<asrwt>0</asrwt>
<pdfrwt beam="2">  1        4 0.15795686E+00 0.12498457E+03</pdfrwt>
<pdfrwt beam="1">  1       -4 0.15452342E-02 0.12498457E+03</pdfrwt>
<totfact> 0.68924015E+02</totfact>
</mgrwt>
</event>
<event>
 5    1  0.1422067E-002  0.1250028E+03  0.7818608E-02  0.1235065E+00
         -4   -1    0    0    0  501 -0.00000000000E+00  0.00000000000E+00  0.62911903949E+02  0.62924721362E+02  0.12700000000E+01 0.  1.
          4   -1    0    0  501    0  0.00000000000E+00 -0.00000000000E+00 -0.62067902110E+02  0.62080893779E+02  0.12700000000E+01 0.  1.
         25    2    1    2    0    0  0.00000000000E+00  0.00000000000E+00  0.84400183909E+00  0.12500561514E+03  0.12500276588E+03 0.  0.
    9000005    1    3    3    0    0  0.34338856962E+01 -0.62398778599E+02  0.57604269746E+00  0.62503847616E+02  0.10000000000E+01 0.  0.
    9000005    1    3    3    0    0 -0.34338856962E+01  0.62398778599E+02  0.26795914164E+00  0.62501767525E+02  0.10000000000E+01 0.  0.
<mgrwt>
<rscale>  0 0.12500277E+03</rscale>
<asrwt>0</asrwt>
<pdfrwt beam="2">  1        4 0.15520202E-01 0.12500277E+03</pdfrwt>
<pdfrwt beam="1">  1       -4 0.15731202E-01 0.12500277E+03</pdfrwt>
<totfact> 0.19833467E+03</totfact>
</mgrwt>
</event>
<event>
 5    1  0.1422067E-002  0.1249986E+03  0.7818608E-02  0.1235071E+00
         -4   -1    0    0    0  501 -0.00000000000E+00  0.00000000000E+00  0.61329225507E+03  0.61329357003E+03  0.12700000000E+01 0. -1.
          4   -1    0    0  501    0  0.00000000000E+00 -0.00000000000E+00 -0.63045247609E+01  0.64311688254E+01  0.12700000000E+01 0. -1.
         25    2    1    2    0    0  0.00000000000E+00  0.00000000000E+00  0.60698773031E+03  0.61972473885E+03  0.12499858876E+03 0.  0.
    9000005    1    3    3    0    0  0.22446429282E+02 -0.56702214281E+02  0.23584531489E+03  0.24360417863E+03  0.10000000000E+01 0.  0.
    9000005    1    3    3    0    0 -0.22446429282E+02  0.56702214281E+02  0.37114241543E+03  0.37612056022E+03  0.10000000000E+01 0.  0.
<mgrwt>
<rscale>  0 0.12499859E+03</rscale>
<asrwt>0</asrwt>
<pdfrwt beam="2">  1        4 0.15921258E-02 0.12499859E+03</pdfrwt>
<pdfrwt beam="1">  1       -4 0.15333908E+00 0.12499859E+03</pdfrwt>
<totfact> 0.71077486E+02</totfact>
</mgrwt>
</event>
<event>
 5    1  0.1422067E-002  0.1250008E+03  0.7818608E-02  0.1235068E+00
          4   -1    0    0  501    0  0.00000000000E+00  0.00000000000E+00  0.22066996740E+02  0.22103512054E+02  0.12700000000E+01 0.  1.
         -4   -1    0    0    0  501 -0.00000000000E+00 -0.00000000000E+00 -0.17683485845E+03  0.17683941886E+03  0.12700000000E+01 0.  1.
         25    2    1    2    0    0  0.00000000000E+00  0.00000000000E+00 -0.15476786171E+03  0.19894293091E+03  0.12500079497E+03 0.  0.
    9000005    1    3    3    0    0 -0.57465763297E+02 -0.16449843257E+02 -0.48367856157E+02  0.76898379721E+02  0.10000000000E+01 0.  0.
    9000005    1    3    3    0    0  0.57465763297E+02  0.16449843257E+02 -0.10640000555E+03  0.12204455119E+03  0.10000000000E+01 0.  0.
<mgrwt>
<rscale>  0 0.12500079E+03</rscale>
<asrwt>0</asrwt>
<pdfrwt beam="1">  1        4 0.55218842E-02 0.12500079E+03</pdfrwt>
<pdfrwt beam="2">  1       -4 0.44213845E-01 0.12500079E+03</pdfrwt>
<totfact> 0.16364155E+03</totfact>
</mgrwt>
</event>
<event>
 5    1  0.1422067E-002  0.1249996E+03  0.7818608E-02  0.1235070E+00
         -4   -1    0    0    0  501 -0.00000000000E+00  0.00000000000E+00  0.21337389507E+02  0.21375151250E+02  0.12700000000E+01 0. -1.
          4   -1    0    0  501    0  0.00000000000E+00 -0.00000000000E+00 -0.18286767728E+03  0.18287208724E+03  0.12700000000E+01 0. -1.
         25    2    1    2    0    0  0.00000000000E+00  0.00000000000E+00 -0.16153028777E+03  0.20424723849E+03  0.12499960226E+03 0.  0.
    9000005    1    3    3    0    0 -0.56443303708E+02  0.45222688012E+01 -0.37567139278E+02  0.67960189833E+02  0.10000000000E+01 0.  0.
    9000005    1    3    3    0    0  0.56443303708E+02 -0.45222688012E+01 -0.12396314849E+03  0.13628704866E+03  0.10000000000E+01 0.  0.
<mgrwt>
<rscale>  0 0.12499960E+03</rscale>
<asrwt>0</asrwt>
<pdfrwt beam="2">  1        4 0.45722186E-01 0.12499960E+03</pdfrwt>
<pdfrwt beam="1">  1       -4 0.53396194E-02 0.12499960E+03</pdfrwt>
<totfact> 0.16153525E+03</totfact>
</mgrwt>
</event>
<event>
 5    1  0.1422067E-002  0.1250241E+03  0.7818608E-02  0.1235032E+00
          4   -1    0    0  501    0  0.00000000000E+00  0.00000000000E+00  0.10628613415E+03  0.10629372141E+03  0.12700000000E+01 0. -1.
         -4   -1    0    0    0  501 -0.00000000000E+00 -0.00000000000E+00 -0.36746535982E+02  0.36768475719E+02  0.12700000000E+01 0. -1.
         25    2    1    2    0    0  0.00000000000E+00  0.00000000000E+00  0.69539598166E+02  0.14306219713E+03  0.12502414381E+03 0.  0.
    9000005    1    3    3    0    0  0.41170620638E+02  0.32205913939E+02  0.73985581463E+02  0.90593085612E+02  0.10000000000E+01 0.  0.
    9000005    1    3    3    0    0 -0.41170620638E+02 -0.32205913939E+02 -0.44459832962E+01  0.52469111521E+02  0.10000000000E+01 0.  0.
<mgrwt>
<rscale>  0 0.12502414E+03</rscale>
<asrwt>0</asrwt>
<pdfrwt beam="1">  1        4 0.26575224E-01 0.12502414E+03</pdfrwt>
<pdfrwt beam="2">  1       -4 0.91903249E-02 0.12502414E+03</pdfrwt>
<totfact> 0.18874142E+03</totfact>
</mgrwt>
</event>
<event>
 4    1  0.1422067E-002  0.1251139E+03  0.7818608E-02  0.1234891E+00
          4   -1    0    0  501    0  0.00000000000E+00  0.00000000000E+00  0.56319570879E+03  0.56319714070E+03  0.12700000000E+01 0. -1.
         -4   -1    0    0    0  501 -0.00000000000E+00 -0.00000000000E+00 -0.68890259402E+01  0.70051108774E+01  0.12700000000E+01 0. -1.
    9000005    1    1    2    0    0  0.55920196146E+02 -0.24267157533E+02  0.34202412852E+03  0.34741541094E+03  0.10000000000E+01 0.  0.
    9000005    1    1    2    0    0 -0.55920196146E+02  0.24267157533E+02  0.21428255433E+03  0.22278684064E+03  0.10000000000E+01 0.  0.
<mgrwt>
<rscale>  0 0.12511388E+03</rscale>
<asrwt>0</asrwt>
<pdfrwt beam="1">  1        4 0.14081358E+00 0.12511388E+03</pdfrwt>
<pdfrwt beam="2">  1       -4 0.17369465E-02 0.12511388E+03</pdfrwt>
<totfact> 0.77185648E+02</totfact>
</mgrwt>
</event>
<event>
 5    1  0.1422067E-002  0.1249990E+03  0.7818608E-02  0.1235071E+00
          4   -1    0    0  501    0  0.00000000000E+00  0.00000000000E+00  0.70811314324E+03  0.70811428211E+03  0.12700000000E+01 0.  1.
         -4   -1    0    0    0  501 -0.00000000000E+00 -0.00000000000E+00 -0.54420756363E+01  0.55882991358E+01  0.12700000000E+01 0.  1.
         25    2    1    2    0    0  0.00000000000E+00  0.00000000000E+00  0.70267106760E+03  0.71370258125E+03  0.12499898092E+03 0.  0.
    9000005    1    3    3    0    0  0.43898325927E+02  0.42611653521E+02  0.42409073652E+03  0.42848193525E+03  0.10000000000E+01 0.  0.
    9000005    1    3    3    0    0 -0.43898325927E+02 -0.42611653521E+02  0.27858033109E+03  0.28522064600E+03  0.10000000000E+01 0.  0.
<mgrwt>
<rscale>  0 0.12499898E+03</rscale>
<asrwt>0</asrwt>
<pdfrwt beam="1">  1        4 0.17704665E+00 0.12499898E+03</pdfrwt>
<pdfrwt beam="2">  1       -4 0.13789396E-02 0.12499898E+03</pdfrwt>
<totfact> 0.60653128E+02</totfact>
</mgrwt>
</event>
<event>
 5    1  0.1422067E-002  0.1250042E+03  0.7818608E-02  0.1235063E+00
         -4   -1    0    0    0  501 -0.00000000000E+00  0.00000000000E+00  0.10354516176E+03  0.10355294985E+03  0.12700000000E+01 0. -1.
          4   -1    0    0  501    0  0.00000000000E+00 -0.00000000000E+00 -0.37707714565E+02  0.37729095374E+02  0.12700000000E+01 0. -1.
         25    2    1    2    0    0  0.00000000000E+00  0.00000000000E+00  0.65837447191E+02  0.14128204523E+03  0.12500418733E+03 0.  0.
    9000005    1    3    3    0    0 -0.41511687013E+02  0.41481171951E+02  0.57201433962E+02  0.81956768069E+02  0.10000000000E+01 0.  0.
    9000005    1    3    3    0    0  0.41511687013E+02 -0.41481171951E+02  0.86360132289E+01  0.59325277156E+02  0.10000000000E+01 0.  0.
<mgrwt>
<rscale>  0 0.12500419E+03</rscale>
<asrwt>0</asrwt>
<pdfrwt beam="2">  1        4 0.94305748E-02 0.12500419E+03</pdfrwt>
<pdfrwt beam="1">  1       -4 0.25889936E-01 0.12500419E+03</pdfrwt>
<totfact> 0.18973094E+03</totfact>
</mgrwt>
</event>
<event>
 5    1  0.1422067E-002  0.1249872E+03  0.7818608E-02  0.1235089E+00
         -4   -1    0    0    0  501 -0.00000000000E+00  0.00000000000E+00  0.27608548373E+02  0.27637743093E+02  0.12700000000E+01 0.  1.
          4   -1    0    0  501    0  0.00000000000E+00 -0.00000000000E+00 -0.14135121440E+03  0.14135691958E+03  0.12700000000E+01 0.  1.
         25    2    1    2    0    0  0.00000000000E+00  0.00000000000E+00 -0.11374266603E+03  0.16899466267E+03  0.12498720709E+03 0.  0.
    9000005    1    3    3    0    0  0.31725258533E+02  0.53656405840E+02 -0.50985666981E+02  0.80535955661E+02  0.10000000000E+01 0.  0.
    9000005    1    3    3    0    0 -0.31725258533E+02 -0.53656405840E+02 -0.62756999047E+02  0.88458707011E+02  0.10000000000E+01 0.  0.
<mgrwt>
<rscale>  0 0.12498721E+03</rscale>
<asrwt>0</asrwt>
<pdfrwt beam="2">  1        4 0.35342164E-01 0.12498721E+03</pdfrwt>
<pdfrwt beam="1">  1       -4 0.69065000E-02 0.12498721E+03</pdfrwt>
<totfact> 0.17647729E+03</totfact>
</mgrwt>
</event>
<event>
 5    1  0.1422067E-002  0.1250004E+03  0.7818608E-02  0.1235069E+00
         -4   -1    0    0    0  501 -0.00000000000E+00  0.00000000000E+00  0.13802488253E+02  0.13860792978E+02  0.12700000000E+01 0.  1.
          4   -1    0    0  501    0  0.00000000000E+00 -0.00000000000E+00 -0.28235621754E+03  0.28235907367E+03  0.12700000000E+01 0.  1.
         25    2    1    2    0    0  0.00000000000E+00  0.00000000000E+00 -0.26855372929E+03  0.29621986665E+03  0.12500041553E+03 0.  0.
    9000005    1    3    3    0    0 -0.21749650674E+02  0.33123262213E+02 -0.19764222049E+02  0.44292462985E+02  0.10000000000E+01 0.  0.
    9000005    1    3    3    0    0  0.21749650674E+02 -0.33123262213E+02 -0.24878950724E+03  0.25192740366E+03  0.10000000000E+01 0.  0.
<mgrwt>
<rscale>  0 0.12500042E+03</rscale>
<asrwt>0</asrwt>
<pdfrwt beam="2">  1        4 0.70596681E-01 0.12500042E+03</pdfrwt>
<pdfrwt beam="1">  1       -4 0.34582681E-02 0.12500042E+03</pdfrwt>
<totfact> 0.13077544E+03</totfact>
</mgrwt>
</event>
<event>
 5    1  0.1422067E-002  0.1250091E+03  0.7818608E-02  0.1235055E+00
          4   -1    0    0  501    0  0.00000000000E+00  0.00000000000E+00  0.14004276004E+03  0.14004851852E+03  0.12700000000E+01 0. -1.
         -4   -1    0    0    0  501 -0.00000000000E+00 -0.00000000000E+00 -0.27876553987E+02  0.27905468320E+02  0.12700000000E+01 0. -1.
         25    2    1    2    0    0  0.00000000000E+00  0.00000000000E+00  0.11216620605E+03  0.16795398684E+03  0.12500913533E+03 0.  0.
    9000005    1    3    3    0    0 -0.13175963314E+00 -0.11869781717E+02  0.13852082367E+03  0.13903211020E+03  0.10000000000E+01 0.  0.
    9000005    1    3    3    0    0  0.13175963314E+00  0.11869781717E+02 -0.26354617613E+02  0.28921876636E+02  0.10000000000E+01 0.  0.
<mgrwt>
<rscale>  0 0.12500914E+03</rscale>
<asrwt>0</asrwt>
<pdfrwt beam="1">  1        4 0.35015023E-01 0.12500914E+03</pdfrwt>
<pdfrwt beam="2">  1       -4 0.69734728E-02 0.12500914E+03</pdfrwt>
<totfact> 0.17685976E+03</totfact>
</mgrwt>
</event>
<event>
 5    1  0.1422067E-002  0.1250065E+03  0.7818608E-02  0.1235059E+00
          4   -1    0    0  501    0  0.00000000000E+00  0.00000000000E+00  0.26807871129E+03  0.26808171953E+03  0.12700000000E+01 0. -1.
         -4   -1    0    0    0  501 -0.00000000000E+00 -0.00000000000E+00 -0.14542027414E+02  0.14597378577E+02  0.12700000000E+01 0. -1.
         25    2    1    2    0    0  0.00000000000E+00  0.00000000000E+00  0.25353668388E+03  0.28267909811E+03  0.12500648958E+03 0.  0.
    9000005    1    3    3    0    0 -0.40823779241E+02  0.15485062242E+02  0.25657258648E+02  0.50652374332E+02  0.10000000000E+01 0.  0.
    9000005    1    3    3    0    0  0.40823779241E+02 -0.15485062242E+02  0.22787942523E+03  0.23202672378E+03  0.10000000000E+01 0.  0.
<mgrwt>
<rscale>  0 0.12500649E+03</rscale>
<asrwt>0</asrwt>
<pdfrwt beam="1">  1        4 0.67026975E-01 0.12500649E+03</pdfrwt>
<pdfrwt beam="2">  1       -4 0.36428017E-02 0.12500649E+03</pdfrwt>
<totfact> 0.13468773E+03</totfact>
</mgrwt>
</event>
<event>
 5    1  0.1422067E-002  0.1250020E+03  0.7818608E-02  0.1235066E+00
         -4   -1    0    0    0  501 -0.00000000000E+00  0.00000000000E+00  0.23658797582E+02  0.23692859748E+02  0.12700000000E+01 0. -1.
          4   -1    0    0  501    0  0.00000000000E+00 -0.00000000000E+00 -0.16495759114E+03  0.16496247990E+03  0.12700000000E+01 0. -1.
         25    2    1    2    0    0  0.00000000000E+00  0.00000000000E+00 -0.14129879356E+03  0.18865533965E+03  0.12500195245E+03 0.  0.
    9000005    1    3    3    0    0 -0.55969076697E+02  0.26897669952E+02 -0.60047217258E+02  0.86386865295E+02  0.10000000000E+01 0.  0.
    9000005    1    3    3    0    0  0.55969076697E+02 -0.26897669952E+02 -0.81251576303E+02  0.10226847436E+03  0.10000000000E+01 0.  0.
<mgrwt>
<rscale>  0 0.12500195E+03</rscale>
<asrwt>0</asrwt>
<pdfrwt beam="2">  1        4 0.41244263E-01 0.12500195E+03</pdfrwt>
<pdfrwt beam="1">  1       -4 0.59195687E-02 0.12500195E+03</pdfrwt>
<totfact> 0.16785851E+03</totfact>
</mgrwt>
</event>
<event>
 5    1  0.1422067E-002  0.1250015E+03  0.7818608E-02  0.1235067E+00
          4   -1    0    0  501    0  0.00000000000E+00  0.00000000000E+00  0.64981628964E+02  0.64994038210E+02  0.12700000000E+01 0.  1.
         -4   -1    0    0    0  501 -0.00000000000E+00 -0.00000000000E+00 -0.60089725089E+02  0.60103144354E+02  0.12700000000E+01 0.  1.
         25    2    1    2    0    0  0.00000000000E+00  0.00000000000E+00  0.48919038750E+01  0.12509718256E+03  0.12500149744E+03 0.  0.
    9000005    1    3    3    0    0  0.73861951758E+01  0.35489005234E+02  0.53389910356E+02  0.64540746041E+02  0.10000000000E+01 0.  0.
    9000005    1    3    3    0    0 -0.73861951758E+01 -0.35489005234E+02 -0.48498006481E+02  0.60556436523E+02  0.10000000000E+01 0.  0.
<mgrwt>
<rscale>  0 0.12500150E+03</rscale>
<asrwt>0</asrwt>
<pdfrwt beam="1">  1        4 0.16248636E-01 0.12500150E+03</pdfrwt>
<pdfrwt beam="2">  1       -4 0.15025660E-01 0.12500150E+03</pdfrwt>
<totfact> 0.19829091E+03</totfact>
</mgrwt>
</event>
<event>
 5    1  0.1422067E-002  0.1250006E+03  0.7818608E-02  0.1235068E+00
          4   -1    0    0  501    0  0.00000000000E+00  0.00000000000E+00  0.12892372324E+04  0.12892378580E+04  0.12700000000E+01 0. -1.
         -4   -1    0    0    0  501 -0.00000000000E+00 -0.00000000000E+00 -0.28961848116E+01  0.31624020085E+01  0.12700000000E+01 0. -1.
         25    2    1    2    0    0  0.00000000000E+00  0.00000000000E+00  0.12863410476E+04  0.12924002600E+04  0.12500056466E+03 0.  0.
    9000005    1    3    3    0    0  0.45411912712E+02  0.36604875262E+02  0.87508277603E+03  0.87702509862E+03  0.10000000000E+01 0.  0.
    9000005    1    3    3    0    0 -0.45411912712E+02 -0.36604875262E+02  0.41125827159E+03  0.41537516134E+03  0.10000000000E+01 0.  0.
<mgrwt>
<rscale>  0 0.12500056E+03</rscale>
<asrwt>0</asrwt>
<pdfrwt beam="1">  1        4 0.32234303E+00 0.12500056E+03</pdfrwt>
<pdfrwt beam="2">  1       -4 0.75740068E-03 0.12500056E+03</pdfrwt>
<totfact> 0.20663796E+02</totfact>
</mgrwt>
</event>
<event>
 5    1  0.1422067E-002  0.1250009E+03  0.7818608E-02  0.1235068E+00
         -4   -1    0    0    0  501 -0.00000000000E+00  0.00000000000E+00  0.78147764483E+01  0.79172994725E+01  0.12700000000E+01 0.  1.
          4   -1    0    0  501    0  0.00000000000E+00 -0.00000000000E+00 -0.49650081883E+03  0.49650244310E+03  0.12700000000E+01 0.  1.
         25    2    1    2    0    0  0.00000000000E+00  0.00000000000E+00 -0.48868604238E+03  0.50441974257E+03  0.12500091469E+03 0.  0.
    9000005    1    3    3    0    0  0.51836103768E+02 -0.19739901716E+01 -0.10371724649E+03  0.11597045103E+03  0.10000000000E+01 0.  0.
    9000005    1    3    3    0    0 -0.51836103768E+02  0.19739901716E+01 -0.38496879589E+03  0.38844929154E+03  0.10000000000E+01 0.  0.
<mgrwt>
<rscale>  0 0.12500091E+03</rscale>
<asrwt>0</asrwt>
<pdfrwt beam="2">  1        4 0.12413812E+00 0.12500091E+03</pdfrwt>
<pdfrwt beam="1">  1       -4 0.19667142E-02 0.12500091E+03</pdfrwt>
<totfact> 0.86906505E+02</totfact>
</mgrwt>
</event>
<event>
 5    1  0.1422067E-002  0.1249949E+03  0.7818608E-02  0.1235077E+00
          4   -1    0    0  501    0  0.00000000000E+00  0.00000000000E+00  0.85941967488E+01  0.86875265616E+01  0.12700000000E+01 0.  1.
         -4   -1    0    0    0  501 -0.00000000000E+00 -0.00000000000E+00 -0.45193578068E+03  0.45193756512E+03  0.12700000000E+01 0.  1.
         25    2    1    2    0    0  0.00000000000E+00  0.00000000000E+00 -0.44334158394E+03  0.46062509168E+03  0.12499486004E+03 0.  0.
    9000005    1    3    3    0    0 -0.35467105732E+02  0.45709317341E+02 -0.13464566737E+03  0.14655276532E+03  0.10000000000E+01 0.  0.
    9000005    1    3    3    0    0  0.35467105732E+02 -0.45709317341E+02 -0.30869591656E+03  0.31407232636E+03  0.10000000000E+01 0.  0.
<mgrwt>
<rscale>  0 0.12499486E+03</rscale>
<asrwt>0</asrwt>
<pdfrwt beam="1">  1        4 0.21604400E-02 0.12499486E+03</pdfrwt>
<pdfrwt beam="2">  1       -4 0.11299575E+00 0.12499486E+03</pdfrwt>
<totfact> 0.94151269E+02</totfact>
</mgrwt>
</event>
<event>
 5    1  0.1422067E-002  0.1250039E+03  0.7818608E-02  0.1235063E+00
          4   -1    0    0  501    0  0.00000000000E+00  0.00000000000E+00  0.22650223942E+03  0.22650579984E+03  0.12700000000E+01 0.  1.
         -4   -1    0    0    0  501 -0.00000000000E+00 -0.00000000000E+00 -0.17219972343E+02  0.17266741080E+02  0.12700000000E+01 0.  1.
         25    2    1    2    0    0  0.00000000000E+00  0.00000000000E+00  0.20928226708E+03  0.24377254092E+03  0.12500393752E+03 0.  0.
    9000005    1    3    3    0    0  0.20607799045E+02  0.23978361786E+01  0.21960002397E+03  0.22058014762E+03  0.10000000000E+01 0.  0.
    9000005    1    3    3    0    0 -0.20607799045E+02 -0.23978361786E+01 -0.10317756887E+02  0.23192393300E+02  0.10000000000E+01 0.  0.
<mgrwt>
<rscale>  0 0.12500394E+03</rscale>
<asrwt>0</asrwt>
<pdfrwt beam="1">  1        4 0.56631848E-01 0.12500394E+03</pdfrwt>
<pdfrwt beam="2">  1       -4 0.43112844E-02 0.12500394E+03</pdfrwt>
<totfact> 0.14706029E+03</totfact>
</mgrwt>
</event>
<event>
 5    1  0.1422067E-002  0.1249970E+03  0.7818608E-02  0.1235074E+00
          4   -1    0    0  501    0  0.00000000000E+00  0.00000000000E+00  0.67647602856E+02  0.67659523145E+02  0.12700000000E+01 0.  1.
         -4   -1    0    0    0  501 -0.00000000000E+00 -0.00000000000E+00 -0.57717335054E+02  0.57731305769E+02  0.12700000000E+01 0.  1.
         25    2    1    2    0    0  0.00000000000E+00  0.00000000000E+00  0.99302678019E+01  0.12539082891E+03  0.12499699899E+03 0.  0.
    9000005    1    3    3    0    0  0.16091389726E+02 -0.48527350999E+02  0.41011981311E+02  0.65550127607E+02  0.10000000000E+01 0.  0.
    9000005    1    3    3    0    0 -0.16091389726E+02  0.48527350999E+02 -0.31081713509E+02  0.59840701307E+02  0.10000000000E+01 0.  0.
<mgrwt>
<rscale>  0 0.12499700E+03</rscale>
<asrwt>0</asrwt>
<pdfrwt beam="1">  1        4 0.16915137E-01 0.12499700E+03</pdfrwt>
<pdfrwt beam="2">  1       -4 0.14432570E-01 0.12499700E+03</pdfrwt>
<totfact> 0.19815266E+03</totfact>
</mgrwt>
</event>
<event>
 5    1  0.1422067E-002  0.1249994E+03  0.7818608E-02  0.1235070E+00
          4   -1    0    0  501    0  0.00000000000E+00  0.00000000000E+00  0.17954072287E+03  0.17954521456E+03  0.12700000000E+01 0.  1.
         -4   -1    0    0    0  501 -0.00000000000E+00 -0.00000000000E+00 -0.21733378407E+02  0.21770453302E+02  0.12700000000E+01 0.  1.
         25    2    1    2    0    0  0.00000000000E+00  0.00000000000E+00  0.15780734447E+03  0.20131566786E+03  0.12499936063E+03 0.  0.
    9000005    1    3    3    0    0  0.61644569556E+02 -0.10233347822E+02  0.77840627328E+02  0.99824534190E+02  0.10000000000E+01 0.  0.
    9000005    1    3    3    0    0 -0.61644569556E+02  0.10233347822E+02  0.79966717138E+02  0.10149113367E+03  0.10000000000E+01 0.  0.
<mgrwt>
<rscale>  0 0.12499936E+03</rscale>
<asrwt>0</asrwt>
<pdfrwt beam="1">  1        4 0.44890376E-01 0.12499936E+03</pdfrwt>
<pdfrwt beam="2">  1       -4 0.54385405E-02 0.12499936E+03</pdfrwt>
<totfact> 0.16269735E+03</totfact>
</mgrwt>
</event>
<event>
 5    1  0.1422067E-002  0.1250006E+03  0.7818608E-02  0.1235068E+00
          4   -1    0    0  501    0  0.00000000000E+00  0.00000000000E+00  0.92465372691E+02  0.92474093923E+02  0.12700000000E+01 0.  1.
         -4   -1    0    0    0  501 -0.00000000000E+00 -0.00000000000E+00 -0.42225699629E+02  0.42244793871E+02  0.12700000000E+01 0.  1.
         25    2    1    2    0    0  0.00000000000E+00  0.00000000000E+00  0.50239673062E+02  0.13471888779E+03  0.12500061591E+03 0.  0.
    9000005    1    3    3    0    0  0.33885427893E+02  0.52019745160E+02  0.32817415432E+02  0.70230042472E+02  0.10000000000E+01 0.  0.
    9000005    1    3    3    0    0 -0.33885427893E+02 -0.52019745160E+02  0.17422257630E+02  0.64488845321E+02  0.10000000000E+01 0.  0.
<mgrwt>
<rscale>  0 0.12500062E+03</rscale>
<asrwt>0</asrwt>
<pdfrwt beam="1">  1        4 0.23119820E-01 0.12500062E+03</pdfrwt>
<pdfrwt beam="2">  1       -4 0.10559902E-01 0.12500062E+03</pdfrwt>
<totfact> 0.19313594E+03</totfact>
</mgrwt>
</event>
<event>
 5    1  0.1422067E-002  0.1250037E+03  0.7818608E-02  0.1235064E+00
         -4   -1    0    0    0  501 -0.00000000000E+00  0.00000000000E+00  0.40506956427E+02  0.40526860462E+02  0.12700000000E+01 0.  1.
          4   -1    0    0  501    0  0.00000000000E+00 -0.00000000000E+00 -0.96391918169E+02  0.96400284171E+02  0.12700000000E+01 0.  1.
         25    2    1    2    0    0  0.00000000000E+00  0.00000000000E+00 -0.55884961742E+02  0.13692714463E+03  0.12500365590E+03 0.  0.
    9000005    1    3    3    0    0  0.37900886306E+02 -0.47100288791E+02 -0.45281569614E+02  0.75540286825E+02  0.10000000000E+01 0.  0.
    9000005    1    3    3    0    0 -0.37900886306E+02  0.47100288791E+02 -0.10603392128E+02  0.61386857808E+02  0.10000000000E+01 0.  0.
<mgrwt>
<rscale>  0 0.12500366E+03</rscale>
<asrwt>0</asrwt>
<pdfrwt beam="2">  1        4 0.24101513E-01 0.12500366E+03</pdfrwt>
<pdfrwt beam="1">  1       -4 0.10130273E-01 0.12500366E+03</pdfrwt>
<totfact> 0.19197028E+03</totfact>
</mgrwt>
</event>
<event>
 5    1  0.1422067E-002  0.1249879E+03  0.7818608E-02  0.1235088E+00
          4   -1    0    0  501    0  0.00000000000E+00  0.00000000000E+00  0.36602094778E+02  0.36624121042E+02  0.12700000000E+01 0.  1.
         -4   -1    0    0    0  501 -0.00000000000E+00 -0.00000000000E+00 -0.10664352978E+03  0.10665109162E+03  0.12700000000E+01 0.  1.
         25    2    1    2    0    0  0.00000000000E+00  0.00000000000E+00 -0.70041434998E+02  0.14327521266E+03  0.12498793520E+03 0.  0.
    9000005    1    3    3    0    0 -0.25329203874E+02  0.38882622044E+02  0.12947614044E+02  0.48187836384E+02  0.10000000000E+01 0.  0.
    9000005    1    3    3    0    0  0.25329203874E+02 -0.38882622044E+02 -0.82989049042E+02  0.95087376275E+02  0.10000000000E+01 0.  0.
<mgrwt>
<rscale>  0 0.12498794E+03</rscale>
<asrwt>0</asrwt>
<pdfrwt beam="1">  1        4 0.91542224E-02 0.12498794E+03</pdfrwt>
<pdfrwt beam="2">  1       -4 0.26664580E-01 0.12498794E+03</pdfrwt>
<totfact> 0.18879331E+03</totfact>
</mgrwt>
</event>
<event>
 5    1  0.1422067E-002  0.1249988E+03  0.7818608E-02  0.1235071E+00
         -4   -1    0    0    0  501 -0.00000000000E+00  0.00000000000E+00  0.16375457486E+04  0.16375462410E+04  0.12700000000E+01 0. -1.
          4   -1    0    0  501    0  0.00000000000E+00 -0.00000000000E+00 -0.22158175700E+01  0.25539670130E+01  0.12700000000E+01 0. -1.
         25    2    1    2    0    0  0.00000000000E+00  0.00000000000E+00  0.16353299310E+04  0.16401002081E+04  0.12499883698E+03 0.  0.
    9000005    1    3    3    0    0 -0.62162072533E+02  0.61678622452E+01  0.84043468464E+03  0.84275359681E+03  0.10000000000E+01 0.  0.
    9000005    1    3    3    0    0  0.62162072533E+02 -0.61678622452E+01  0.79489524636E+03  0.79734661125E+03  0.10000000000E+01 0.  0.
<mgrwt>
<rscale>  0 0.12499884E+03</rscale>
<asrwt>0</asrwt>
<pdfrwt beam="2">  1        4 0.59628509E-03 0.12499884E+03</pdfrwt>
<pdfrwt beam="1">  1       -4 0.40942846E+00 0.12499884E+03</pdfrwt>
<totfact> 0.84627699E+01</totfact>
</mgrwt>
</event>
<event>
 5    1  0.1422067E-002  0.1250022E+03  0.7818608E-02  0.1235066E+00
          4   -1    0    0  501    0  0.00000000000E+00  0.00000000000E+00  0.29840546435E+03  0.29840816687E+03  0.12700000000E+01 0.  1.
         -4   -1    0    0    0  501 -0.00000000000E+00 -0.00000000000E+00 -0.13057302224E+02  0.13118919215E+02  0.12700000000E+01 0.  1.
         25    2    1    2    0    0  0.00000000000E+00  0.00000000000E+00  0.28534816212E+03  0.31152708608E+03  0.12500220692E+03 0.  0.
    9000005    1    3    3    0    0 -0.40301431045E+02 -0.15839001811E+02  0.25496875556E+03  0.25862162638E+03  0.10000000000E+01 0.  0.
    9000005    1    3    3    0    0  0.40301431045E+02  0.15839001811E+02  0.30379406569E+02  0.52905459700E+02  0.10000000000E+01 0.  0.
<mgrwt>
<rscale>  0 0.12500221E+03</rscale>
<asrwt>0</asrwt>
<pdfrwt beam="1">  1        4 0.74609407E-01 0.12500221E+03</pdfrwt>
<pdfrwt beam="2">  1       -4 0.32723654E-02 0.12500221E+03</pdfrwt>
<totfact> 0.12653389E+03</totfact>
</mgrwt>
</event>
<event>
 5    1  0.1422067E-002  0.1249991E+03  0.7818608E-02  0.1235071E+00
         -4   -1    0    0    0  501 -0.00000000000E+00  0.00000000000E+00  0.19376150623E+02  0.19417726772E+02  0.12700000000E+01 0.  1.
          4   -1    0    0  501    0  0.00000000000E+00 -0.00000000000E+00 -0.20133853569E+03  0.20134254109E+03  0.12700000000E+01 0.  1.
         25    2    1    2    0    0  0.00000000000E+00  0.00000000000E+00 -0.18196238506E+03  0.22076026786E+03  0.12499914515E+03 0.  0.
    9000005    1    3    3    0    0  0.25165909209E+02  0.41546686180E+02 -0.16041692141E+03  0.16761276441E+03  0.10000000000E+01 0.  0.
    9000005    1    3    3    0    0 -0.25165909209E+02 -0.41546686180E+02 -0.21545463651E+02  0.53147503448E+02  0.10000000000E+01 0.  0.
<mgrwt>
<rscale>  0 0.12499915E+03</rscale>
<asrwt>0</asrwt>
<pdfrwt beam="2">  1        4 0.50340325E-01 0.12499915E+03</pdfrwt>
<pdfrwt beam="1">  1       -4 0.48497360E-02 0.12499915E+03</pdfrwt>
<totfact> 0.15523492E+03</totfact>
</mgrwt>
</event>
<event>
 5    1  0.1422067E-002  0.1249997E+03  0.7818608E-02  0.1235070E+00
         -4   -1    0    0    0  501 -0.00000000000E+00  0.00000000000E+00  0.33714185788E+03  0.33714424989E+03  0.12700000000E+01 0. -1.
          4   -1    0    0  501    0  0.00000000000E+00 -0.00000000000E+00 -0.11549064962E+02  0.11618683294E+02  0.12700000000E+01 0. -1.
         25    2    1    2    0    0  0.00000000000E+00  0.00000000000E+00  0.32559279291E+03  0.34876293318E+03  0.12499966705E+03 0.  0.
    9000005    1    3    3    0    0  0.20680530083E+02  0.25408998859E+02  0.31127454440E+03  0.31299543693E+03  0.10000000000E+01 0.  0.
    9000005    1    3    3    0    0 -0.20680530083E+02 -0.25408998859E+02  0.14318248514E+02  0.35767496251E+02  0.10000000000E+01 0.  0.
<mgrwt>
<rscale>  0 0.12499967E+03</rscale>
<asrwt>0</asrwt>
<pdfrwt beam="2">  1        4 0.28962676E-02 0.12499967E+03</pdfrwt>
<pdfrwt beam="1">  1       -4 0.84294464E-01 0.12499967E+03</pdfrwt>
<totfact> 0.11706971E+03</totfact>
</mgrwt>
</event>
<event>
 5    1  0.1422067E-002  0.1249806E+03  0.7818608E-02  0.1235100E+00
          4   -1    0    0  501    0  0.00000000000E+00  0.00000000000E+00  0.16924920857E+02  0.16972502645E+02  0.12700000000E+01 0.  1.
         -4   -1    0    0    0  501 -0.00000000000E+00 -0.00000000000E+00 -0.23035377860E+03  0.23035727949E+03  0.12700000000E+01 0.  1.
         25    2    1    2    0    0  0.00000000000E+00  0.00000000000E+00 -0.21342885774E+03  0.24732978214E+03  0.12498057375E+03 0.  0.
    9000005    1    3    3    0    0 -0.51680277453E+02  0.18544522587E+02 -0.47700501122E+02  0.72739866668E+02  0.10000000000E+01 0.  0.
    9000005    1    3    3    0    0  0.51680277453E+02 -0.18544522587E+02 -0.16572835662E+03  0.17458991547E+03  0.10000000000E+01 0.  0.
<mgrwt>
<rscale>  0 0.12498057E+03</rscale>
<asrwt>0</asrwt>
<pdfrwt beam="1">  1        4 0.42376163E-02 0.12498057E+03</pdfrwt>
<pdfrwt beam="2">  1       -4 0.57594820E-01 0.12498057E+03</pdfrwt>
<totfact> 0.14593751E+03</totfact>
</mgrwt>
</event>
<event>
 5    1  0.1422067E-002  0.1250015E+03  0.7818608E-02  0.1235067E+00
          4   -1    0    0  501    0  0.00000000000E+00  0.00000000000E+00  0.13392420308E+03  0.13393022464E+03  0.12700000000E+01 0.  1.
         -4   -1    0    0    0  501 -0.00000000000E+00 -0.00000000000E+00 -0.29147816214E+02  0.29175470691E+02  0.12700000000E+01 0.  1.
         25    2    1    2    0    0  0.00000000000E+00  0.00000000000E+00  0.10477638687E+03  0.16310569533E+03  0.12500150640E+03 0.  0.
    9000005    1    3    3    0    0 -0.14807343951E+02  0.60259918877E+02  0.62050006208E+02  0.87759435552E+02  0.10000000000E+01 0.  0.
    9000005    1    3    3    0    0  0.14807343951E+02 -0.60259918877E+02  0.42726380658E+02  0.75346259775E+02  0.10000000000E+01 0.  0.
<mgrwt>
<rscale>  0 0.12500151E+03</rscale>
<asrwt>0</asrwt>
<pdfrwt beam="1">  1        4 0.33485260E-01 0.12500151E+03</pdfrwt>
<pdfrwt beam="2">  1       -4 0.72911637E-02 0.12500151E+03</pdfrwt>
<totfact> 0.17911941E+03</totfact>
</mgrwt>
</event>
<event>
 5    1  0.1422067E-002  0.1249999E+03  0.7818608E-02  0.1235069E+00
         -4   -1    0    0    0  501 -0.00000000000E+00  0.00000000000E+00  0.53051559122E+02  0.53066758194E+02  0.12700000000E+01 0.  1.
          4   -1    0    0  501    0  0.00000000000E+00 -0.00000000000E+00 -0.73599879797E+02  0.73610836200E+02  0.12700000000E+01 0.  1.
         25    2    1    2    0    0  0.00000000000E+00  0.00000000000E+00 -0.20548320675E+02  0.12667759439E+03  0.12499991776E+03 0.  0.
    9000005    1    3    3    0    0  0.32626441771E+02  0.12080416400E+02 -0.62882580380E+02  0.71872387454E+02  0.10000000000E+01 0.  0.
    9000005    1    3    3    0    0 -0.32626441771E+02 -0.12080416400E+02  0.42334259705E+02  0.54805206941E+02  0.10000000000E+01 0.  0.
<mgrwt>
<rscale>  0 0.12499992E+03</rscale>
<asrwt>0</asrwt>
<pdfrwt beam="2">  1        4 0.18403239E-01 0.12499992E+03</pdfrwt>
<pdfrwt beam="1">  1       -4 0.13266159E-01 0.12499992E+03</pdfrwt>
<totfact> 0.19744386E+03</totfact>
</mgrwt>
</event>
<event>
 5    1  0.1422067E-002  0.1249981E+03  0.7818608E-02  0.1235072E+00
         -4   -1    0    0    0  501 -0.00000000000E+00  0.00000000000E+00  0.65389757834E+02  0.65402089642E+02  0.12700000000E+01 0. -1.
          4   -1    0    0  501    0  0.00000000000E+00 -0.00000000000E+00 -0.59711398296E+02  0.59724902566E+02  0.12700000000E+01 0. -1.
         25    2    1    2    0    0  0.00000000000E+00  0.00000000000E+00  0.56783595380E+01  0.12512699221E+03  0.12499808163E+03 0.  0.
    9000005    1    3    3    0    0 -0.55983366349E+02 -0.20210246621E+02  0.21899265943E+02  0.63428457534E+02  0.10000000000E+01 0.  0.
    9000005    1    3    3    0    0  0.55983366349E+02  0.20210246621E+02 -0.16220906405E+02  0.61698534674E+02  0.10000000000E+01 0.  0.
<mgrwt>
<rscale>  0 0.12499808E+03</rscale>
<asrwt>0</asrwt>
<pdfrwt beam="2">  1        4 0.14931079E-01 0.12499808E+03</pdfrwt>
<pdfrwt beam="1">  1       -4 0.16350669E-01 0.12499808E+03</pdfrwt>
<totfact> 0.19829060E+03</totfact>
</mgrwt>
</event>
<event>
 5    1  0.1422067E-002  0.1250000E+03  0.7818608E-02  0.1235069E+00
         -4   -1    0    0    0  501 -0.00000000000E+00  0.00000000000E+00  0.32377786120E+03  0.32378035195E+03  0.12700000000E+01 0. -1.
          4   -1    0    0  501    0  0.00000000000E+00 -0.00000000000E+00 -0.12028632018E+02  0.12095490408E+02  0.12700000000E+01 0. -1.
         25    2    1    2    0    0  0.00000000000E+00  0.00000000000E+00  0.31174922919E+03  0.33587584235E+03  0.12499999831E+03 0.  0.
    9000005    1    3    3    0    0  0.36163389935E+02 -0.90286569608E+01  0.21096581183E+02  0.42841255300E+02  0.10000000000E+01 0.  0.
    9000005    1    3    3    0    0 -0.36163389935E+02  0.90286569608E+01  0.29065264800E+03  0.29303458705E+03  0.10000000000E+01 0.  0.
<mgrwt>
<rscale>  0 0.12500000E+03</rscale>
<asrwt>0</asrwt>
<pdfrwt beam="2">  1        4 0.30158270E-02 0.12500000E+03</pdfrwt>
<pdfrwt beam="1">  1       -4 0.80953125E-01 0.12500000E+03</pdfrwt>
<totfact> 0.12021975E+03</totfact>
</mgrwt>
</event>
<event>
 5    1  0.1422067E-002  0.1249966E+03  0.7818608E-02  0.1235075E+00
         -4   -1    0    0    0  501 -0.00000000000E+00  0.00000000000E+00  0.16405260543E+03  0.16405752116E+03  0.12700000000E+01 0. -1.
          4   -1    0    0  501    0  0.00000000000E+00 -0.00000000000E+00 -0.23787456386E+02  0.23821334583E+02  0.12700000000E+01 0. -1.
         25    2    1    2    0    0  0.00000000000E+00  0.00000000000E+00  0.14026514905E+03  0.18787885574E+03  0.12499660955E+03 0.  0.
    9000005    1    3    3    0    0 -0.43652327773E+02 -0.11230452185E+02  0.50756252943E+01  0.45369711795E+02  0.10000000000E+01 0.  0.
    9000005    1    3    3    0    0  0.43652327773E+02  0.11230452185E+02  0.13518952375E+03  0.14250914395E+03  0.10000000000E+01 0.  0.
<mgrwt>
<rscale>  0 0.12499661E+03</rscale>
<asrwt>0</asrwt>
<pdfrwt beam="2">  1        4 0.59517135E-02 0.12499661E+03</pdfrwt>
<pdfrwt beam="1">  1       -4 0.41017999E-01 0.12499661E+03</pdfrwt>
<totfact> 0.16820500E+03</totfact>
</mgrwt>
</event>
<event>
 5    1  0.1422067E-002  0.1249985E+03  0.7818608E-02  0.1235072E+00
         -4   -1    0    0    0  501 -0.00000000000E+00  0.00000000000E+00  0.25327626623E+03  0.25327945028E+03  0.12700000000E+01 0.  1.
          4   -1    0    0  501    0  0.00000000000E+00 -0.00000000000E+00 -0.15393085955E+02  0.15445387506E+02  0.12700000000E+01 0.  1.
         25    2    1    2    0    0  0.00000000000E+00  0.00000000000E+00  0.23788318027E+03  0.26872483779E+03  0.12499852394E+03 0.  0.
    9000005    1    3    3    0    0  0.32624846287E+02 -0.44075606846E+02  0.18336884586E+03  0.19139533261E+03  0.10000000000E+01 0.  0.
    9000005    1    3    3    0    0 -0.32624846287E+02  0.44075606846E+02  0.54514334414E+02  0.77329505176E+02  0.10000000000E+01 0.  0.
<mgrwt>
<rscale>  0 0.12499852E+03</rscale>
<asrwt>0</asrwt>
<pdfrwt beam="2">  1        4 0.38552073E-02 0.12499852E+03</pdfrwt>
<pdfrwt beam="1">  1       -4 0.63326001E-01 0.12499852E+03</pdfrwt>
<totfact> 0.13895680E+03</totfact>
</mgrwt>
</event>
<event>
 5    1  0.1422067E-002  0.1249561E+03  0.7818608E-02  0.1235138E+00
         -4   -1    0    0    0  501 -0.00000000000E+00  0.00000000000E+00  0.68383348332E+02  0.68395140391E+02  0.12700000000E+01 0.  1.
          4   -1    0    0  501    0  0.00000000000E+00 -0.00000000000E+00 -0.57058925673E+02  0.57073057557E+02  0.12700000000E+01 0.  1.
         25    2    1    2    0    0  0.00000000000E+00  0.00000000000E+00  0.11324422659E+02  0.12546819795E+03  0.12495609688E+03 0.  0.
    9000005    1    3    3    0    0  0.32207348383E+02  0.42600707651E+02  0.38204491121E+02  0.65671277771E+02  0.10000000000E+01 0.  0.
    9000005    1    3    3    0    0 -0.32207348383E+02 -0.42600707651E+02 -0.26880068462E+02  0.59796920178E+02  0.10000000000E+01 0.  0.
<mgrwt>
<rscale>  0 0.12495610E+03</rscale>
<asrwt>0</asrwt>
<pdfrwt beam="2">  1        4 0.14267972E-01 0.12495610E+03</pdfrwt>
<pdfrwt beam="1">  1       -4 0.17099078E-01 0.12495610E+03</pdfrwt>
<totfact> 0.19830046E+03</totfact>
</mgrwt>
</event>
<event>
 5    1  0.1422067E-002  0.1250043E+03  0.7818608E-02  0.1235063E+00
         -4   -1    0    0    0  501 -0.00000000000E+00  0.00000000000E+00  0.47399663149E+02  0.47416673931E+02  0.12700000000E+01 0. -1.
          4   -1    0    0  501    0  0.00000000000E+00 -0.00000000000E+00 -0.82379912731E+02  0.82389701551E+02  0.12700000000E+01 0. -1.
         25    2    1    2    0    0  0.00000000000E+00  0.00000000000E+00 -0.34980249582E+02  0.12980637548E+03  0.12500430895E+03 0.  0.
    9000005    1    3    3    0    0 -0.27632478868E+02 -0.50137244888E+02  0.85370869448E+01  0.57889369205E+02  0.10000000000E+01 0.  0.
    9000005    1    3    3    0    0  0.27632478868E+02  0.50137244888E+02 -0.43517336527E+02  0.71917006277E+02  0.10000000000E+01 0.  0.
<mgrwt>
<rscale>  0 0.12500431E+03</rscale>
<asrwt>0</asrwt>
<pdfrwt beam="2">  1        4 0.20598328E-01 0.12500431E+03</pdfrwt>
<pdfrwt beam="1">  1       -4 0.11853266E-01 0.12500431E+03</pdfrwt>
<totfact> 0.19572828E+03</totfact>
</mgrwt>
</event>
<event>
 5    1  0.1422067E-002  0.1250021E+03  0.7818608E-02  0.1235066E+00
         -4   -1    0    0    0  501 -0.00000000000E+00  0.00000000000E+00  0.95258468626E+02  0.95266934164E+02  0.12700000000E+01 0.  1.
          4   -1    0    0  501    0  0.00000000000E+00 -0.00000000000E+00 -0.40988113157E+02  0.41007783653E+02  0.12700000000E+01 0.  1.
         25    2    1    2    0    0  0.00000000000E+00  0.00000000000E+00  0.54270355469E+02  0.13627471782E+03  0.12500210892E+03 0.  0.
    9000005    1    3    3    0    0  0.32434050492E+02  0.11386095337E+02 -0.29761020481E+02  0.45478886732E+02  0.10000000000E+01 0.  0.
    9000005    1    3    3    0    0 -0.32434050492E+02 -0.11386095337E+02  0.84031375950E+02  0.90795831085E+02  0.10000000000E+01 0.  0.
<mgrwt>
<rscale>  0 0.12500211E+03</rscale>
<asrwt>0</asrwt>
<pdfrwt beam="2">  1        4 0.10250545E-01 0.12500211E+03</pdfrwt>
<pdfrwt beam="1">  1       -4 0.23818134E-01 0.12500211E+03</pdfrwt>
<totfact> 0.19231629E+03</totfact>
</mgrwt>
</event>
<event>
 5    1  0.1422067E-002  0.1250028E+03  0.7818608E-02  0.1235065E+00
         -4   -1    0    0    0  501 -0.00000000000E+00  0.00000000000E+00  0.12549054699E+03  0.12549697321E+03  0.12700000000E+01 0. -1.
          4   -1    0    0  501    0  0.00000000000E+00 -0.00000000000E+00 -0.31109071159E+02  0.31134983674E+02  0.12700000000E+01 0. -1.
         25    2    1    2    0    0  0.00000000000E+00  0.00000000000E+00  0.94381475834E+02  0.15663195688E+03  0.12500282771E+03 0.  0.
    9000005    1    3    3    0    0  0.36615422218E+01  0.52664717204E+02  0.89095976679E+02  0.10356675330E+03  0.10000000000E+01 0.  0.
    9000005    1    3    3    0    0 -0.36615422218E+01 -0.52664717204E+02  0.52854991552E+01  0.53065203580E+02  0.10000000000E+01 0.  0.
<mgrwt>
<rscale>  0 0.12500283E+03</rscale>
<asrwt>0</asrwt>
<pdfrwt beam="2">  1        4 0.77813102E-02 0.12500283E+03</pdfrwt>
<pdfrwt beam="1">  1       -4 0.31376679E-01 0.12500283E+03</pdfrwt>
<totfact> 0.18216223E+03</totfact>
</mgrwt>
</event>
<event>
 5    1  0.1422067E-002  0.1249988E+03  0.7818608E-02  0.1235071E+00
          4   -1    0    0  501    0  0.00000000000E+00  0.00000000000E+00  0.35421813646E+03  0.35422041315E+03  0.12700000000E+01 0. -1.
         -4   -1    0    0    0  501 -0.00000000000E+00 -0.00000000000E+00 -0.10988711001E+02  0.11061856511E+02  0.12700000000E+01 0. -1.
         25    2    1    2    0    0  0.00000000000E+00  0.00000000000E+00  0.34322942546E+03  0.36528226967E+03  0.12499879213E+03 0.  0.
    9000005    1    3    3    0    0  0.34644355729E+02  0.51491225295E+02  0.15022069372E+03  0.16253871689E+03  0.10000000000E+01 0.  0.
    9000005    1    3    3    0    0 -0.34644355729E+02 -0.51491225295E+02  0.19300873173E+03  0.20274355277E+03  0.10000000000E+01 0.  0.
<mgrwt>
<rscale>  0 0.12499879E+03</rscale>
<asrwt>0</asrwt>
<pdfrwt beam="1">  1        4 0.88563964E-01 0.12499879E+03</pdfrwt>
<pdfrwt beam="2">  1       -4 0.27566055E-02 0.12499879E+03</pdfrwt>
<totfact> 0.11321444E+03</totfact>
</mgrwt>
</event>
<event>
 5    1  0.1422067E-002  0.1250038E+03  0.7818608E-02  0.1235063E+00
          4   -1    0    0  501    0  0.00000000000E+00  0.00000000000E+00  0.76335537891E+01  0.77384781095E+01  0.12700000000E+01 0.  1.
         -4   -1    0    0    0  501 -0.00000000000E+00 -0.00000000000E+00 -0.50815354165E+03  0.50815512866E+03  0.12700000000E+01 0.  1.
         25    2    1    2    0    0  0.00000000000E+00  0.00000000000E+00 -0.50051998786E+03  0.51589360677E+03  0.12500382100E+03 0.  0.
    9000005    1    3    3    0    0 -0.52911006934E+01 -0.60202740364E+02 -0.18459970837E+03  0.19424319299E+03  0.10000000000E+01 0.  0.
    9000005    1    3    3    0    0  0.52911006934E+01  0.60202740364E+02 -0.31592027949E+03  0.32165041378E+03  0.10000000000E+01 0.  0.
<mgrwt>
<rscale>  0 0.12500382E+03</rscale>
<asrwt>0</asrwt>
<pdfrwt beam="1">  1        4 0.19217041E-02 0.12500382E+03</pdfrwt>
<pdfrwt beam="2">  1       -4 0.12705159E+00 0.12500382E+03</pdfrwt>
<totfact> 0.85125790E+02</totfact>
</mgrwt>
</event>
<event>
 5    1  0.1422067E-002  0.1250005E+03  0.7818608E-02  0.1235069E+00
          4   -1    0    0  501    0  0.00000000000E+00  0.00000000000E+00  0.15954205106E+03  0.15954710576E+03  0.12700000000E+01 0. -1.
         -4   -1    0    0    0  501 -0.00000000000E+00 -0.00000000000E+00 -0.24462412627E+02  0.24495357346E+02  0.12700000000E+01 0. -1.
         25    2    1    2    0    0  0.00000000000E+00  0.00000000000E+00  0.13507963843E+03  0.18404246310E+03  0.12500047803E+03 0.  0.
    9000005    1    3    3    0    0 -0.32045690477E+02  0.28486053984E+02  0.13447676925E+03  0.14115021438E+03  0.10000000000E+01 0.  0.
    9000005    1    3    3    0    0  0.32045690477E+02 -0.28486053984E+02  0.60286917918E+00  0.42892248729E+02  0.10000000000E+01 0.  0.
<mgrwt>
<rscale>  0 0.12500048E+03</rscale>
<asrwt>0</asrwt>
<pdfrwt beam="1">  1        4 0.39890262E-01 0.12500048E+03</pdfrwt>
<pdfrwt beam="2">  1       -4 0.61203532E-02 0.12500048E+03</pdfrwt>
<totfact> 0.16981410E+03</totfact>
</mgrwt>
</event>
<event>
 5    1  0.1422067E-002  0.1249918E+03  0.7818608E-02  0.1235082E+00
         -4   -1    0    0    0  501 -0.00000000000E+00  0.00000000000E+00  0.13823605245E+04  0.13823611079E+04  0.12700000000E+01 0.  1.
          4   -1    0    0  501    0  0.00000000000E+00 -0.00000000000E+00 -0.26820837383E+01  0.29675702484E+01  0.12700000000E+01 0.  1.
         25    2    1    2    0    0  0.00000000000E+00  0.00000000000E+00  0.13796784408E+04  0.13853286782E+04  0.12499178597E+03 0.  0.
    9000005    1    3    3    0    0 -0.15411297544E+01 -0.36297017908E+02  0.12634142589E+03  0.13146484125E+03  0.10000000000E+01 0.  0.
    9000005    1    3    3    0    0  0.15411297544E+01  0.36297017908E+02  0.12533370149E+04  0.12538638369E+04  0.10000000000E+01 0.  0.
<mgrwt>
<rscale>  0 0.12499179E+03</rscale>
<asrwt>0</asrwt>
<pdfrwt beam="2">  1        4 0.70627981E-03 0.12499179E+03</pdfrwt>
<pdfrwt beam="1">  1       -4 0.34562582E+00 0.12499179E+03</pdfrwt>
<totfact> 0.16671668E+02</totfact>
</mgrwt>
</event>
<event>
 5    1  0.1422067E-002  0.1250156E+03  0.7818608E-02  0.1235045E+00
         -4   -1    0    0    0  501 -0.00000000000E+00  0.00000000000E+00  0.71649283312E+02  0.71660537949E+02  0.12700000000E+01 0.  1.
          4   -1    0    0  501    0  0.00000000000E+00 -0.00000000000E+00 -0.54509726882E+02  0.54524519482E+02  0.12700000000E+01 0.  1.
         25    2    1    2    0    0  0.00000000000E+00  0.00000000000E+00  0.17139556430E+02  0.12618505743E+03  0.12501561632E+03 0.  0.
    9000005    1    3    3    0    0 -0.32855776305E+02  0.17136316499E+02 -0.42230643702E+02  0.56192371789E+02  0.10000000000E+01 0.  0.
    9000005    1    3    3    0    0  0.32855776305E+02 -0.17136316499E+02  0.59370200131E+02  0.69992685642E+02  0.10000000000E+01 0.  0.
<mgrwt>
<rscale>  0 0.12501562E+03</rscale>
<asrwt>0</asrwt>
<pdfrwt beam="2">  1        4 0.13630688E-01 0.12501562E+03</pdfrwt>
<pdfrwt beam="1">  1       -4 0.17915577E-01 0.12501562E+03</pdfrwt>
<totfact> 0.19763703E+03</totfact>
</mgrwt>
</event>
<event>
 5    1  0.1422067E-002  0.1249988E+03  0.7818608E-02  0.1235071E+00
         -4   -1    0    0    0  501 -0.00000000000E+00  0.00000000000E+00  0.12077881535E+02  0.12144468798E+02  0.12700000000E+01 0. -1.
          4   -1    0    0  501    0  0.00000000000E+00 -0.00000000000E+00 -0.32245879469E+03  0.32246129562E+03  0.12700000000E+01 0. -1.
         25    2    1    2    0    0  0.00000000000E+00  0.00000000000E+00 -0.31038091316E+03  0.33460576442E+03  0.12499882532E+03 0.  0.
    9000005    1    3    3    0    0 -0.44239958080E+02  0.98607559034E+00 -0.27330784797E+03  0.27686878841E+03  0.10000000000E+01 0.  0.
    9000005    1    3    3    0    0  0.44239958080E+02 -0.98607559034E+00 -0.37073065189E+02  0.57736976008E+02  0.10000000000E+01 0.  0.
<mgrwt>
<rscale>  0 0.12499883E+03</rscale>
<asrwt>0</asrwt>
<pdfrwt beam="2">  1        4 0.80623306E-01 0.12499883E+03</pdfrwt>
<pdfrwt beam="1">  1       -4 0.30281075E-02 0.12499883E+03</pdfrwt>
<totfact> 0.12054072E+03</totfact>
</mgrwt>
</event>
<event>
 5    1  0.1422067E-002  0.1250006E+03  0.7818608E-02  0.1235068E+00
         -4   -1    0    0    0  501 -0.00000000000E+00  0.00000000000E+00  0.13110185245E+03  0.13110800363E+03  0.12700000000E+01 0. -1.
          4   -1    0    0  501    0  0.00000000000E+00 -0.00000000000E+00 -0.29775425541E+02  0.29802497650E+02  0.12700000000E+01 0. -1.
         25    2    1    2    0    0  0.00000000000E+00  0.00000000000E+00  0.10132642691E+03  0.16091050128E+03  0.12500057853E+03 0.  0.
    9000005    1    3    3    0    0 -0.35569091939E+02 -0.15214714801E+02 -0.12513664393E+02  0.40672344958E+02  0.10000000000E+01 0.  0.
    9000005    1    3    3    0    0  0.35569091939E+02  0.15214714801E+02  0.11384009130E+03  0.12023815632E+03  0.10000000000E+01 0.  0.
<mgrwt>
<rscale>  0 0.12500058E+03</rscale>
<asrwt>0</asrwt>
<pdfrwt beam="2">  1        4 0.74480094E-02 0.12500058E+03</pdfrwt>
<pdfrwt beam="1">  1       -4 0.32779615E-01 0.12500058E+03</pdfrwt>
<totfact> 0.18014747E+03</totfact>
</mgrwt>
</event>
<event>
 5    1  0.1422067E-002  0.1249981E+03  0.7818608E-02  0.1235072E+00
         -4   -1    0    0    0  501 -0.00000000000E+00  0.00000000000E+00  0.21217759314E+02  0.21255733586E+02  0.12700000000E+01 0. -1.
          4   -1    0    0  501    0  0.00000000000E+00 -0.00000000000E+00 -0.18389236590E+03  0.18389675130E+03  0.12700000000E+01 0. -1.
         25    2    1    2    0    0  0.00000000000E+00  0.00000000000E+00 -0.16267460659E+03  0.20515248488E+03  0.12499805768E+03 0.  0.
    9000005    1    3    3    0    0  0.36154756154E+02 -0.19534308433E+02 -0.15860446213E+03  0.16384483820E+03  0.10000000000E+01 0.  0.
    9000005    1    3    3    0    0 -0.36154756154E+02  0.19534308433E+02 -0.40701444627E+01  0.41307646682E+02  0.10000000000E+01 0.  0.
<mgrwt>
<rscale>  0 0.12499806E+03</rscale>
<asrwt>0</asrwt>
<pdfrwt beam="2">  1        4 0.45978382E-01 0.12499806E+03</pdfrwt>
<pdfrwt beam="1">  1       -4 0.53097353E-02 0.12499806E+03</pdfrwt>
<totfact> 0.16118510E+03</totfact>
</mgrwt>
</event>
<event>
 5    1  0.1422067E-002  0.1249999E+03  0.7818608E-02  0.1235069E+00
          4   -1    0    0  501    0  0.00000000000E+00  0.00000000000E+00  0.12444526235E+02  0.12509161971E+02  0.12700000000E+01 0.  1.
         -4   -1    0    0    0  501 -0.00000000000E+00 -0.00000000000E+00 -0.31301368715E+03  0.31301626354E+03  0.12700000000E+01 0.  1.
         25    2    1    2    0    0  0.00000000000E+00  0.00000000000E+00 -0.30056916091E+03  0.32552542552E+03  0.12499992866E+03 0.  0.
    9000005    1    3    3    0    0  0.59251111238E+02 -0.16696702999E+02 -0.12226407800E+03  0.13689038989E+03  0.10000000000E+01 0.  0.
    9000005    1    3    3    0    0 -0.59251111238E+02  0.16696702999E+02 -0.17830508291E+03  0.18863503563E+03  0.10000000000E+01 0.  0.
<mgrwt>
<rscale>  0 0.12499993E+03</rscale>
<asrwt>0</asrwt>
<pdfrwt beam="1">  1        4 0.31195341E-02 0.12499993E+03</pdfrwt>
<pdfrwt beam="2">  1       -4 0.78261797E-01 0.12499993E+03</pdfrwt>
<totfact> 0.12284677E+03</totfact>
</mgrwt>
</event>
<event>
 5    1  0.1422067E-002  0.1250069E+03  0.7818608E-02  0.1235059E+00
         -4   -1    0    0    0  501 -0.00000000000E+00  0.00000000000E+00  0.20032962644E+02  0.20073178431E+02  0.12700000000E+01 0. -1.
          4   -1    0    0  501    0  0.00000000000E+00 -0.00000000000E+00 -0.19477476118E+03  0.19477890156E+03  0.12700000000E+01 0. -1.
         25    2    1    2    0    0  0.00000000000E+00  0.00000000000E+00 -0.17474179853E+03  0.21485207999E+03  0.12500688029E+03 0.  0.
    9000005    1    3    3    0    0 -0.30465078450E+02 -0.34819557805E+02 -0.15160895647E+02  0.48696769580E+02  0.10000000000E+01 0.  0.
    9000005    1    3    3    0    0  0.30465078450E+02  0.34819557805E+02 -0.15958090289E+03  0.16615531041E+03  0.10000000000E+01 0.  0.
<mgrwt>
<rscale>  0 0.12500688E+03</rscale>
<asrwt>0</asrwt>
<pdfrwt beam="2">  1        4 0.48699229E-01 0.12500688E+03</pdfrwt>
<pdfrwt beam="1">  1       -4 0.50137858E-02 0.12500688E+03</pdfrwt>
<totfact> 0.15741623E+03</totfact>
</mgrwt>
</event>
<event>
 5    1  0.1422067E-002  0.1250065E+03  0.7818608E-02  0.1235059E+00
         -4   -1    0    0    0  501 -0.00000000000E+00  0.00000000000E+00  0.40483131276E+02  0.40503047020E+02  0.12700000000E+01 0. -1.
          4   -1    0    0  501    0  0.00000000000E+00 -0.00000000000E+00 -0.96453047832E+02  0.96461408532E+02  0.12700000000E+01 0. -1.
         25    2    1    2    0    0  0.00000000000E+00  0.00000000000E+00 -0.55969916556E+02  0.13696445555E+03  0.12500652193E+03 0.  0.
    9000005    1    3    3    0    0 -0.33621805581E+02 -0.41942964258E+02  0.69392235091E+01  0.54210615973E+02  0.10000000000E+01 0.  0.
    9000005    1    3    3    0    0  0.33621805581E+02  0.41942964258E+02 -0.62909140065E+02  0.82753839579E+02  0.10000000000E+01 0.  0.
<mgrwt>
<rscale>  0 0.12500652E+03</rscale>
<asrwt>0</asrwt>
<pdfrwt beam="2">  1        4 0.24116796E-01 0.12500652E+03</pdfrwt>
<pdfrwt beam="1">  1       -4 0.10124318E-01 0.12500652E+03</pdfrwt>
<totfact> 0.19193809E+03</totfact>
</mgrwt>
</event>
<event>
 5    1  0.1422067E-002  0.1250080E+03  0.7818608E-02  0.1235057E+00
          4   -1    0    0  501    0  0.00000000000E+00  0.00000000000E+00  0.18744421180E+04  0.18744425483E+04  0.12700000000E+01 0. -1.
         -4   -1    0    0    0  501 -0.00000000000E+00 -0.00000000000E+00 -0.18902833120E+01  0.22772946668E+01  0.12700000000E+01 0. -1.
         25    2    1    2    0    0  0.00000000000E+00  0.00000000000E+00  0.18725518347E+04  0.18767198429E+04  0.12500798033E+03 0.  0.
    9000005    1    3    3    0    0  0.19913783622E+02  0.50986090159E+02  0.48349408710E+03  0.48658367465E+03  0.10000000000E+01 0.  0.
    9000005    1    3    3    0    0 -0.19913783622E+02 -0.50986090159E+02  0.13890577476E+04  0.13901361683E+04  0.10000000000E+01 0.  0.
<mgrwt>
<rscale>  0 0.12500798E+03</rscale>
<asrwt>0</asrwt>
<pdfrwt beam="1">  1        4 0.46865854E+00 0.12500798E+03</pdfrwt>
<pdfrwt beam="2">  1       -4 0.52100149E-03 0.12500798E+03</pdfrwt>
<totfact> 0.39760019E+01</totfact>
</mgrwt>
</event>
<event>
 5    1  0.1422067E-002  0.1250038E+03  0.7818608E-02  0.1235063E+00
          4   -1    0    0  501    0  0.00000000000E+00  0.00000000000E+00  0.49196742667E+03  0.49196906590E+03  0.12700000000E+01 0.  1.
         -4   -1    0    0    0  501 -0.00000000000E+00 -0.00000000000E+00 -0.78881012432E+01  0.79896834245E+01  0.12700000000E+01 0.  1.
         25    2    1    2    0    0  0.00000000000E+00  0.00000000000E+00  0.48407932543E+03  0.49995874933E+03  0.12500383083E+03 0.  0.
    9000005    1    3    3    0    0  0.15184582441E+02  0.54180989550E+02  0.35079045772E+03  0.35527608475E+03  0.10000000000E+01 0.  0.
    9000005    1    3    3    0    0 -0.15184582441E+02 -0.54180989550E+02  0.13328886771E+03  0.14468266457E+03  0.10000000000E+01 0.  0.
<mgrwt>
<rscale>  0 0.12500383E+03</rscale>
<asrwt>0</asrwt>
<pdfrwt beam="1">  1        4 0.12300476E+00 0.12500383E+03</pdfrwt>
<pdfrwt beam="2">  1       -4 0.19849280E-02 0.12500383E+03</pdfrwt>
<totfact> 0.87605916E+02</totfact>
</mgrwt>
</event>
<event>
 5    1  0.1422067E-002  0.1250004E+03  0.7818608E-02  0.1235069E+00
          4   -1    0    0  501    0  0.00000000000E+00  0.00000000000E+00  0.20202936868E+02  0.20242814974E+02  0.12700000000E+01 0.  1.
         -4   -1    0    0    0  501 -0.00000000000E+00 -0.00000000000E+00 -0.19311930868E+03  0.19312348456E+03  0.12700000000E+01 0.  1.
         25    2    1    2    0    0  0.00000000000E+00  0.00000000000E+00 -0.17291637182E+03  0.21336629953E+03  0.12500042453E+03 0.  0.
    9000005    1    3    3    0    0 -0.26901199175E+02 -0.39643752087E+02 -0.15494767000E+03  0.16218841523E+03  0.10000000000E+01 0.  0.
    9000005    1    3    3    0    0  0.26901199175E+02  0.39643752087E+02 -0.17968701821E+02  0.51177884303E+02  0.10000000000E+01 0.  0.
<mgrwt>
<rscale>  0 0.12500042E+03</rscale>
<asrwt>0</asrwt>
<pdfrwt beam="1">  1        4 0.50562415E-02 0.12500042E+03</pdfrwt>
<pdfrwt beam="2">  1       -4 0.48285328E-01 0.12500042E+03</pdfrwt>
<totfact> 0.15800311E+03</totfact>
</mgrwt>
</event>
<event>
 5    1  0.1422067E-002  0.1250362E+03  0.7818608E-02  0.1235013E+00
          4   -1    0    0  501    0  0.00000000000E+00  0.00000000000E+00  0.16566617288E+03  0.16567104073E+03  0.12700000000E+01 0. -1.
         -4   -1    0    0    0  501 -0.00000000000E+00 -0.00000000000E+00 -0.23570378114E+02  0.23604567872E+02  0.12700000000E+01 0. -1.
         25    2    1    2    0    0  0.00000000000E+00  0.00000000000E+00  0.14209579477E+03  0.18927560860E+03  0.12503615926E+03 0.  0.
    9000005    1    3    3    0    0 -0.18483332877E+02  0.49554784413E+02  0.12148610480E+03  0.13250352415E+03  0.10000000000E+01 0.  0.
    9000005    1    3    3    0    0  0.18483332877E+02 -0.49554784413E+02  0.20609689963E+02  0.56772084450E+02  0.10000000000E+01 0.  0.
<mgrwt>
<rscale>  0 0.12503616E+03</rscale>
<asrwt>0</asrwt>
<pdfrwt beam="1">  1        4 0.41421425E-01 0.12503616E+03</pdfrwt>
<pdfrwt beam="2">  1       -4 0.58974768E-02 0.12503616E+03</pdfrwt>
<totfact> 0.16746642E+03</totfact>
</mgrwt>
</event>
<event>
 5    1  0.1422067E-002  0.1250082E+03  0.7818608E-02  0.1235057E+00
          4   -1    0    0  501    0  0.00000000000E+00  0.00000000000E+00  0.76914816856E+01  0.77956263712E+01  0.12700000000E+01 0.  1.
         -4   -1    0    0    0  501 -0.00000000000E+00 -0.00000000000E+00 -0.50441271833E+03  0.50441431712E+03  0.12700000000E+01 0.  1.
         25    2    1    2    0    0  0.00000000000E+00  0.00000000000E+00 -0.49672123665E+03  0.51220994349E+03  0.12500815683E+03 0.  0.
    9000005    1    3    3    0    0  0.51721667342E+02  0.32939477902E+02 -0.29780532234E+03  0.30405451829E+03  0.10000000000E+01 0.  0.
    9000005    1    3    3    0    0 -0.51721667342E+02 -0.32939477902E+02 -0.19891591430E+03  0.20815542520E+03  0.10000000000E+01 0.  0.
<mgrwt>
<rscale>  0 0.12500816E+03</rscale>
<asrwt>0</asrwt>
<pdfrwt beam="1">  1        4 0.19360901E-02 0.12500816E+03</pdfrwt>
<pdfrwt beam="2">  1       -4 0.12611629E+00 0.12500816E+03</pdfrwt>
<totfact> 0.85681194E+02</totfact>
</mgrwt>
</event>
<event>
 5    1  0.1422067E-002  0.1250090E+03  0.7818608E-02  0.1235055E+00
          4   -1    0    0  501    0  0.00000000000E+00  0.00000000000E+00  0.29087460621E+02  0.29115172426E+02  0.12700000000E+01 0. -1.
         -4   -1    0    0    0  501 -0.00000000000E+00 -0.00000000000E+00 -0.13421793665E+03  0.13422394503E+03  0.12700000000E+01 0. -1.
         25    2    1    2    0    0  0.00000000000E+00  0.00000000000E+00 -0.10513047603E+03  0.16333911746E+03  0.12500900088E+03 0.  0.
    9000005    1    3    3    0    0  0.37742674510E+02  0.49809851870E+02 -0.53258796202E+02  0.82115955790E+02  0.10000000000E+01 0.  0.
    9000005    1    3    3    0    0 -0.37742674510E+02 -0.49809851870E+02 -0.51871679829E+02  0.81223161665E+02  0.10000000000E+01 0.  0.
<mgrwt>
<rscale>  0 0.12500900E+03</rscale>
<asrwt>0</asrwt>
<pdfrwt beam="1">  1        4 0.72760805E-02 0.12500900E+03</pdfrwt>
<pdfrwt beam="2">  1       -4 0.33558698E-01 0.12500900E+03</pdfrwt>
<totfact> 0.17897991E+03</totfact>
</mgrwt>
</event>
<event>
 5    1  0.1422067E-002  0.1249973E+03  0.7818608E-02  0.1235074E+00
         -4   -1    0    0    0  501 -0.00000000000E+00  0.00000000000E+00  0.34546982446E+03  0.34547215881E+03  0.12700000000E+01 0.  1.
          4   -1    0    0  501    0  0.00000000000E+00 -0.00000000000E+00 -0.11268531511E+02  0.11339872240E+02  0.12700000000E+01 0.  1.
         25    2    1    2    0    0  0.00000000000E+00  0.00000000000E+00  0.33420129295E+03  0.35681203105E+03  0.12499728514E+03 0.  0.
    9000005    1    3    3    0    0  0.55156786645E+01  0.54994096809E+02  0.83861662998E+02  0.10044178371E+03  0.10000000000E+01 0.  0.
    9000005    1    3    3    0    0 -0.55156786645E+01 -0.54994096809E+02  0.25033962995E+03  0.25637024733E+03  0.10000000000E+01 0.  0.
<mgrwt>
<rscale>  0 0.12499729E+03</rscale>
<asrwt>0</asrwt>
<pdfrwt beam="2">  1        4 0.28263423E-02 0.12499729E+03</pdfrwt>
<pdfrwt beam="1">  1       -4 0.86376663E-01 0.12499729E+03</pdfrwt>
<totfact> 0.11517232E+03</totfact>
</mgrwt>
</event>
<event>
 5    1  0.1422067E-002  0.1250005E+03  0.7818608E-02  0.1235069E+00
         -4   -1    0    0    0  501 -0.00000000000E+00  0.00000000000E+00  0.75175858088E+02  0.75186584836E+02  0.12700000000E+01 0.  1.
          4   -1    0    0  501    0  0.00000000000E+00 -0.00000000000E+00 -0.51939703719E+02  0.51955228056E+02  0.12700000000E+01 0.  1.
         25    2    1    2    0    0  0.00000000000E+00  0.00000000000E+00  0.23236154370E+02  0.12714181289E+03  0.12500048686E+03 0.  0.
    9000005    1    3    3    0    0  0.25555017384E+01  0.39737171218E+02  0.60606478572E+02  0.72523917506E+02  0.10000000000E+01 0.  0.
    9000005    1    3    3    0    0 -0.25555017384E+01 -0.39737171218E+02 -0.37370324202E+02  0.54617895387E+02  0.10000000000E+01 0.  0.
<mgrwt>
<rscale>  0 0.12500049E+03</rscale>
<asrwt>0</asrwt>
<pdfrwt beam="2">  1        4 0.12988207E-01 0.12500049E+03</pdfrwt>
<pdfrwt beam="1">  1       -4 0.18797246E-01 0.12500049E+03</pdfrwt>
<totfact> 0.19719084E+03</totfact>
</mgrwt>
</event>
<event>
 5    1  0.1422067E-002  0.1250050E+03  0.7818608E-02  0.1235062E+00
         -4   -1    0    0    0  501 -0.00000000000E+00  0.00000000000E+00  0.31753032192E+02  0.31778419617E+02  0.12700000000E+01 0.  1.
          4   -1    0    0  501    0  0.00000000000E+00 -0.00000000000E+00 -0.12295171604E+03  0.12295827495E+03  0.12700000000E+01 0.  1.
         25    2    1    2    0    0  0.00000000000E+00  0.00000000000E+00 -0.91198683851E+02  0.15473669456E+03  0.12500497873E+03 0.  0.
    9000005    1    3    3    0    0  0.11181999936E+02 -0.10364043998E+02 -0.12062036982E+03  0.12158422655E+03  0.10000000000E+01 0.  0.
    9000005    1    3    3    0    0 -0.11181999936E+02  0.10364043998E+02  0.29421685965E+02  0.33152468017E+02  0.10000000000E+01 0.  0.
<mgrwt>
<rscale>  0 0.12500498E+03</rscale>
<asrwt>0</asrwt>
<pdfrwt beam="2">  1        4 0.30741921E-01 0.12500498E+03</pdfrwt>
<pdfrwt beam="1">  1       -4 0.79422516E-02 0.12500498E+03</pdfrwt>
<totfact> 0.18306183E+03</totfact>
</mgrwt>
</event>
<event>
 5    1  0.1422067E-002  0.1250014E+03  0.7818608E-02  0.1235067E+00
          4   -1    0    0  501    0  0.00000000000E+00  0.00000000000E+00  0.22721626543E+03  0.22721981466E+03  0.12700000000E+01 0.  1.
         -4   -1    0    0    0  501 -0.00000000000E+00 -0.00000000000E+00 -0.17165024438E+02  0.17211942481E+02  0.12700000000E+01 0.  1.
         25    2    1    2    0    0  0.00000000000E+00  0.00000000000E+00  0.21005124099E+03  0.24443175714E+03  0.12500144023E+03 0.  0.
    9000005    1    3    3    0    0  0.27065373145E+02  0.31282852930E+02  0.13428968377E+02  0.43502741323E+02  0.10000000000E+01 0.  0.
    9000005    1    3    3    0    0 -0.27065373145E+02 -0.31282852930E+02  0.19662227261E+03  0.20092901582E+03  0.10000000000E+01 0.  0.
<mgrwt>
<rscale>  0 0.12500144E+03</rscale>
<asrwt>0</asrwt>
<pdfrwt beam="1">  1        4 0.56810374E-01 0.12500144E+03</pdfrwt>
<pdfrwt beam="2">  1       -4 0.42975646E-02 0.12500144E+03</pdfrwt>
<totfact> 0.14684497E+03</totfact>
</mgrwt>
</event>
<event>
 5    1  0.1422067E-002  0.1249923E+03  0.7818608E-02  0.1235081E+00
          4   -1    0    0  501    0  0.00000000000E+00  0.00000000000E+00  0.36213794095E+02  0.36236056391E+02  0.12700000000E+01 0.  1.
         -4   -1    0    0    0  501 -0.00000000000E+00 -0.00000000000E+00 -0.10779387204E+03  0.10780135319E+03  0.12700000000E+01 0.  1.
         25    2    1    2    0    0  0.00000000000E+00  0.00000000000E+00 -0.71580077949E+02  0.14403740958E+03  0.12499227096E+03 0.  0.
    9000005    1    3    3    0    0 -0.13086268210E+02  0.26038414979E+02 -0.99489319900E+02  0.10367436638E+03  0.10000000000E+01 0.  0.
    9000005    1    3    3    0    0  0.13086268210E+02 -0.26038414979E+02  0.27909241951E+02  0.40363043203E+02  0.10000000000E+01 0.  0.
<mgrwt>
<rscale>  0 0.12499227E+03</rscale>
<asrwt>0</asrwt>
<pdfrwt beam="1">  1        4 0.90571667E-02 0.12499227E+03</pdfrwt>
<pdfrwt beam="2">  1       -4 0.26952185E-01 0.12499227E+03</pdfrwt>
<totfact> 0.18839057E+03</totfact>
</mgrwt>
</event>
<event>
 4    1  0.1422067E-002  0.1248842E+03  0.7818608E-02  0.1235250E+00
         -4   -1    0    0    0  501 -0.00000000000E+00  0.00000000000E+00  0.94963891823E+02  0.94972383618E+02  0.12700000000E+01 0.  1.
          4   -1    0    0  501    0  0.00000000000E+00 -0.00000000000E+00 -0.41037700831E+02  0.41057347570E+02  0.12700000000E+01 0.  1.
    9000005    1    1    2    0    0  0.24767861346E+02 -0.25898618432E+02 -0.28725335830E+02  0.45938331608E+02  0.10000000000E+01 0.  0.
    9000005    1    1    2    0    0 -0.24767861346E+02  0.25898618432E+02  0.82651526822E+02  0.90091399581E+02  0.10000000000E+01 0.  0.
<mgrwt>
<rscale>  0 0.12488416E+03</rscale>
<asrwt>0</asrwt>
<pdfrwt beam="2">  1        4 0.10262943E-01 0.12488416E+03</pdfrwt>
<pdfrwt beam="1">  1       -4 0.23744490E-01 0.12488416E+03</pdfrwt>
<totfact> 0.19297438E+03</totfact>
</mgrwt>
</event>
<event>
 5    1  0.1422067E-002  0.1249987E+03  0.7818608E-02  0.1235071E+00
          4   -1    0    0  501    0  0.00000000000E+00  0.00000000000E+00  0.23096509301E+02  0.23131399480E+02  0.12700000000E+01 0. -1.
         -4   -1    0    0    0  501 -0.00000000000E+00 -0.00000000000E+00 -0.16895892694E+03  0.16896369992E+03  0.12700000000E+01 0. -1.
         25    2    1    2    0    0  0.00000000000E+00  0.00000000000E+00 -0.14586241764E+03  0.19209509940E+03  0.12499872934E+03 0.  0.
    9000005    1    3    3    0    0 -0.23097778956E+02  0.31273777835E+02  0.22549238199E+01  0.38956915357E+02  0.10000000000E+01 0.  0.
    9000005    1    3    3    0    0  0.23097778956E+02 -0.31273777835E+02 -0.14811734146E+03  0.15313818405E+03  0.10000000000E+01 0.  0.
<mgrwt>
<rscale>  0 0.12499873E+03</rscale>
<asrwt>0</asrwt>
<pdfrwt beam="1">  1        4 0.57790857E-02 0.12499873E+03</pdfrwt>
<pdfrwt beam="2">  1       -4 0.42244686E-01 0.12499873E+03</pdfrwt>
<totfact> 0.16644027E+03</totfact>
</mgrwt>
</event>
<event>
 5    1  0.1422067E-002  0.1249994E+03  0.7818608E-02  0.1235070E+00
          4   -1    0    0  501    0  0.00000000000E+00  0.00000000000E+00  0.20694936577E+03  0.20695326258E+03  0.12700000000E+01 0.  1.
         -4   -1    0    0    0  501 -0.00000000000E+00 -0.00000000000E+00 -0.18849773840E+02  0.18892508405E+02  0.12700000000E+01 0.  1.
         25    2    1    2    0    0  0.00000000000E+00  0.00000000000E+00  0.18809959193E+03  0.22584577098E+03  0.12499942315E+03 0.  0.
    9000005    1    3    3    0    0 -0.45789803175E+02  0.25987578576E+02  0.15487006703E+03  0.16357810971E+03  0.10000000000E+01 0.  0.
    9000005    1    3    3    0    0  0.45789803175E+02 -0.25987578576E+02  0.33229524894E+02  0.62267661268E+02  0.10000000000E+01 0.  0.
<mgrwt>
<rscale>  0 0.12499942E+03</rscale>
<asrwt>0</asrwt>
<pdfrwt beam="1">  1        4 0.51743170E-01 0.12499942E+03</pdfrwt>
<pdfrwt beam="2">  1       -4 0.47182725E-02 0.12499942E+03</pdfrwt>
<totfact> 0.15337100E+03</totfact>
</mgrwt>
</event>
<event>
 5    1  0.1422067E-002  0.1249965E+03  0.7818608E-02  0.1235075E+00
          4   -1    0    0  501    0  0.00000000000E+00  0.00000000000E+00  0.79614007799E+02  0.79624136654E+02  0.12700000000E+01 0.  1.
         -4   -1    0    0    0  501 -0.00000000000E+00 -0.00000000000E+00 -0.49040651503E+02  0.49057093267E+02  0.12700000000E+01 0.  1.
         25    2    1    2    0    0  0.00000000000E+00  0.00000000000E+00  0.30573356296E+02  0.12868122992E+03  0.12499651523E+03 0.  0.
    9000005    1    3    3    0    0 -0.40837974279E+02 -0.17765247720E+02 -0.29842636763E+02  0.53618347035E+02  0.10000000000E+01 0.  0.
    9000005    1    3    3    0    0  0.40837974279E+02  0.17765247720E+02  0.60415993059E+02  0.75062882886E+02  0.10000000000E+01 0.  0.
<mgrwt>
<rscale>  0 0.12499652E+03</rscale>
<asrwt>0</asrwt>
<pdfrwt beam="1">  1        4 0.19906823E-01 0.12499652E+03</pdfrwt>
<pdfrwt beam="2">  1       -4 0.12263484E-01 0.12499652E+03</pdfrwt>
<totfact> 0.19637146E+03</totfact>
</mgrwt>
</event>
<event>
 5    1  0.1422067E-002  0.1249984E+03  0.7818608E-02  0.1235072E+00
         -4   -1    0    0    0  501 -0.00000000000E+00  0.00000000000E+00  0.84271795369E+02  0.84281364457E+02  0.12700000000E+01 0. -1.
          4   -1    0    0  501    0  0.00000000000E+00 -0.00000000000E+00 -0.46330877674E+02  0.46348280724E+02  0.12700000000E+01 0. -1.
         25    2    1    2    0    0  0.00000000000E+00  0.00000000000E+00  0.37940917695E+02  0.13062964518E+03  0.12499836385E+03 0.  0.
    9000005    1    3    3    0    0  0.15106780826E+02 -0.26828738055E+02 -0.37859091918E+02  0.48808880886E+02  0.10000000000E+01 0.  0.
    9000005    1    3    3    0    0 -0.15106780826E+02  0.26828738055E+02  0.75800009612E+02  0.81820764295E+02  0.10000000000E+01 0.  0.
<mgrwt>
<rscale>  0 0.12499836E+03</rscale>
<asrwt>0</asrwt>
<pdfrwt beam="2">  1        4 0.11586091E-01 0.12499836E+03</pdfrwt>
<pdfrwt beam="1">  1       -4 0.21071320E-01 0.12499836E+03</pdfrwt>
<totfact> 0.19531339E+03</totfact>
</mgrwt>
</event>
<event>
 5    1  0.1422067E-002  0.1249998E+03  0.7818608E-02  0.1235070E+00
         -4   -1    0    0    0  501 -0.00000000000E+00  0.00000000000E+00  0.21669465835E+03  0.21669837992E+03  0.12700000000E+01 0.  1.
          4   -1    0    0  501    0  0.00000000000E+00 -0.00000000000E+00 -0.18000204178E+02  0.18044950830E+02  0.12700000000E+01 0.  1.
         25    2    1    2    0    0  0.00000000000E+00  0.00000000000E+00  0.19869445418E+03  0.23474333075E+03  0.12499978084E+03 0.  0.
    9000005    1    3    3    0    0 -0.17627291608E+01  0.25565115369E+02  0.20638302568E+03  0.20797027583E+03  0.10000000000E+01 0.  0.
    9000005    1    3    3    0    0  0.17627291608E+01 -0.25565115369E+02 -0.76885715078E+01  0.26773054920E+02  0.10000000000E+01 0.  0.
<mgrwt>
<rscale>  0 0.12499978E+03</rscale>
<asrwt>0</asrwt>
<pdfrwt beam="2">  1        4 0.45061096E-02 0.12499978E+03</pdfrwt>
<pdfrwt beam="1">  1       -4 0.54179723E-01 0.12499978E+03</pdfrwt>
<totfact> 0.15019366E+03</totfact>
</mgrwt>
</event>
<event>
 5    1  0.1422067E-002  0.1250012E+03  0.7818608E-02  0.1235067E+00
         -4   -1    0    0    0  501 -0.00000000000E+00  0.00000000000E+00  0.15306306920E+02  0.15358903982E+02  0.12700000000E+01 0. -1.
          4   -1    0    0  501    0  0.00000000000E+00 -0.00000000000E+00 -0.25471810386E+03  0.25472126989E+03  0.12700000000E+01 0. -1.
         25    2    1    2    0    0  0.00000000000E+00  0.00000000000E+00 -0.23941179694E+03  0.27008017387E+03  0.12500116721E+03 0.  0.
    9000005    1    3    3    0    0  0.17550322631E+02 -0.43985144035E+02 -0.20780564201E+03  0.21313585238E+03  0.10000000000E+01 0.  0.
    9000005    1    3    3    0    0 -0.17550322631E+02  0.43985144035E+02 -0.31606154928E+02  0.56944321486E+02  0.10000000000E+01 0.  0.
<mgrwt>
<rscale>  0 0.12500117E+03</rscale>
<asrwt>0</asrwt>
<pdfrwt beam="2">  1        4 0.63686483E-01 0.12500117E+03</pdfrwt>
<pdfrwt beam="1">  1       -4 0.38335479E-02 0.12500117E+03</pdfrwt>
<totfact> 0.13852719E+03</totfact>
</mgrwt>
</event>
<event>
 5    1  0.1422067E-002  0.1250013E+03  0.7818608E-02  0.1235067E+00
          4   -1    0    0  501    0  0.00000000000E+00  0.00000000000E+00  0.57301664166E+03  0.57301804903E+03  0.12700000000E+01 0. -1.
         -4   -1    0    0    0  501 -0.00000000000E+00 -0.00000000000E+00 -0.67565556805E+01  0.68748777927E+01  0.12700000000E+01 0. -1.
         25    2    1    2    0    0  0.00000000000E+00  0.00000000000E+00  0.56626008598E+03  0.57989292683E+03  0.12500128644E+03 0.  0.
    9000005    1    3    3    0    0  0.89358502806E+01 -0.65556259587E+01  0.56844403486E+03  0.56855294073E+03  0.10000000000E+01 0.  0.
    9000005    1    3    3    0    0 -0.89358502806E+01  0.65556259587E+01 -0.21839488762E+01  0.11339986095E+02  0.10000000000E+01 0.  0.
<mgrwt>
<rscale>  0 0.12500129E+03</rscale>
<asrwt>0</asrwt>
<pdfrwt beam="1">  1        4 0.14326916E+00 0.12500129E+03</pdfrwt>
<pdfrwt beam="2">  1       -4 0.17041048E-02 0.12500129E+03</pdfrwt>
<totfact> 0.76090287E+02</totfact>
</mgrwt>
</event>
<event>
 5    1  0.1422067E-002  0.1250031E+03  0.7818608E-02  0.1235064E+00
          4   -1    0    0  501    0  0.00000000000E+00  0.00000000000E+00  0.50195466574E+02  0.50211530195E+02  0.12700000000E+01 0. -1.
         -4   -1    0    0    0  501 -0.00000000000E+00 -0.00000000000E+00 -0.77790897165E+02  0.77801263369E+02  0.12700000000E+01 0. -1.
         25    2    1    2    0    0  0.00000000000E+00  0.00000000000E+00 -0.27595430591E+02  0.12801279356E+03  0.12500307007E+03 0.  0.
    9000005    1    3    3    0    0 -0.30442550285E+02  0.48906804238E+02 -0.38605285492E+02  0.69354109010E+02  0.10000000000E+01 0.  0.
    9000005    1    3    3    0    0  0.30442550285E+02 -0.48906804238E+02  0.11009854901E+02  0.58658684554E+02  0.10000000000E+01 0.  0.
<mgrwt>
<rscale>  0 0.12500307E+03</rscale>
<asrwt>0</asrwt>
<pdfrwt beam="1">  1        4 0.12552170E-01 0.12500307E+03</pdfrwt>
<pdfrwt beam="2">  1       -4 0.19451028E-01 0.12500307E+03</pdfrwt>
<totfact> 0.19670428E+03</totfact>
</mgrwt>
</event>
<event>
 5    1  0.1422067E-002  0.1249981E+03  0.7818608E-02  0.1235072E+00
         -4   -1    0    0    0  501 -0.00000000000E+00  0.00000000000E+00  0.72769247917E+01  0.73869164354E+01  0.12700000000E+01 0. -1.
          4   -1    0    0  501    0  0.00000000000E+00 -0.00000000000E+00 -0.53264576243E+03  0.53264727647E+03  0.12700000000E+01 0. -1.
         25    2    1    2    0    0  0.00000000000E+00  0.00000000000E+00 -0.52536883763E+03  0.54003419291E+03  0.12499805578E+03 0.  0.
    9000005    1    3    3    0    0 -0.18975310079E+02  0.14657796516E+02 -0.13366126775E+02  0.27469378156E+02  0.10000000000E+01 0.  0.
    9000005    1    3    3    0    0  0.18975310079E+02 -0.14657796516E+02 -0.51200271086E+03  0.51256481475E+03  0.10000000000E+01 0.  0.
<mgrwt>
<rscale>  0 0.12499806E+03</rscale>
<asrwt>0</asrwt>
<pdfrwt beam="2">  1        4 0.13317525E+00 0.12499806E+03</pdfrwt>
<pdfrwt beam="1">  1       -4 0.18331712E-02 0.12499806E+03</pdfrwt>
<totfact> 0.81576284E+02</totfact>
</mgrwt>
</event>
<event>
 5    1  0.1422067E-002  0.1249963E+03  0.7818608E-02  0.1235075E+00
         -4   -1    0    0    0  501 -0.00000000000E+00  0.00000000000E+00  0.20911337889E+03  0.20911723537E+03  0.12700000000E+01 0.  1.
          4   -1    0    0  501    0  0.00000000000E+00 -0.00000000000E+00 -0.18653335889E+02  0.18696519456E+02  0.12700000000E+01 0.  1.
         25    2    1    2    0    0  0.00000000000E+00  0.00000000000E+00  0.19046004300E+03  0.22781375483E+03  0.12499631559E+03 0.  0.
    9000005    1    3    3    0    0 -0.52254247024E+02  0.30378128389E+02  0.66315938587E+02  0.89733721237E+02  0.10000000000E+01 0.  0.
    9000005    1    3    3    0    0  0.52254247024E+02 -0.30378128389E+02  0.12414410441E+03  0.13808003359E+03  0.10000000000E+01 0.  0.
<mgrwt>
<rscale>  0 0.12499632E+03</rscale>
<asrwt>0</asrwt>
<pdfrwt beam="2">  1        4 0.46692140E-02 0.12499632E+03</pdfrwt>
<pdfrwt beam="1">  1       -4 0.52284224E-01 0.12499632E+03</pdfrwt>
<totfact> 0.15267044E+03</totfact>
</mgrwt>
</event>
<event>
 5    1  0.1422067E-002  0.1249932E+03  0.7818608E-02  0.1235080E+00
          4   -1    0    0  501    0  0.00000000000E+00  0.00000000000E+00  0.20612448015E+03  0.20612839255E+03  0.12700000000E+01 0. -1.
         -4   -1    0    0    0  501 -0.00000000000E+00 -0.00000000000E+00 -0.18923474525E+02  0.18966043027E+02  0.12700000000E+01 0. -1.
         25    2    1    2    0    0  0.00000000000E+00  0.00000000000E+00  0.18720100562E+03  0.22509443558E+03  0.12499315350E+03 0.  0.
    9000005    1    3    3    0    0 -0.61287289667E+02 -0.11914932814E+02  0.88930555445E+02  0.10866343079E+03  0.10000000000E+01 0.  0.
    9000005    1    3    3    0    0  0.61287289667E+02  0.11914932814E+02  0.98270450175E+02  0.11643100479E+03  0.10000000000E+01 0.  0.
<mgrwt>
<rscale>  0 0.12499315E+03</rscale>
<asrwt>0</asrwt>
<pdfrwt beam="1">  1        4 0.51536930E-01 0.12499315E+03</pdfrwt>
<pdfrwt beam="2">  1       -4 0.47366788E-02 0.12499315E+03</pdfrwt>
<totfact> 0.15366623E+03</totfact>
</mgrwt>
</event>
<event>
 5    1  0.1422067E-002  0.1249990E+03  0.7818608E-02  0.1235071E+00
         -4   -1    0    0    0  501 -0.00000000000E+00  0.00000000000E+00  0.18058731423E+02  0.18103333412E+02  0.12700000000E+01 0. -1.
          4   -1    0    0  501    0  0.00000000000E+00 -0.00000000000E+00 -0.21599130911E+03  0.21599504279E+03  0.12700000000E+01 0. -1.
         25    2    1    2    0    0  0.00000000000E+00  0.00000000000E+00 -0.19793257768E+03  0.23409837620E+03  0.12499897772E+03 0.  0.
    9000005    1    3    3    0    0 -0.62051473649E+02 -0.72522456323E+01 -0.10174767401E+03  0.11940087778E+03  0.10000000000E+01 0.  0.
    9000005    1    3    3    0    0  0.62051473649E+02  0.72522456323E+01 -0.96184903671E+02  0.11469749842E+03  0.10000000000E+01 0.  0.
<mgrwt>
<rscale>  0 0.12499898E+03</rscale>
<asrwt>0</asrwt>
<pdfrwt beam="2">  1        4 0.54003861E-01 0.12499898E+03</pdfrwt>
<pdfrwt beam="1">  1       -4 0.45207255E-02 0.12499898E+03</pdfrwt>
<totfact> 0.15042320E+03</totfact>
</mgrwt>
</event>
<event>
 5    1  0.1422067E-002  0.1250006E+03  0.7818608E-02  0.1235068E+00
          4   -1    0    0  501    0  0.00000000000E+00  0.00000000000E+00  0.15180980974E+02  0.15234010744E+02  0.12700000000E+01 0.  1.
         -4   -1    0    0    0  501 -0.00000000000E+00 -0.00000000000E+00 -0.25681148469E+03  0.25681462491E+03  0.12700000000E+01 0.  1.
         25    2    1    2    0    0  0.00000000000E+00  0.00000000000E+00 -0.24163050372E+03  0.27204863566E+03  0.12500063934E+03 0.  0.
    9000005    1    3    3    0    0 -0.61051255329E+01 -0.53151503312E+02 -0.19110030204E+03  0.19845069993E+03  0.10000000000E+01 0.  0.
    9000005    1    3    3    0    0  0.61051255329E+01  0.53151503312E+02 -0.50530201677E+02  0.73597935729E+02  0.10000000000E+01 0.  0.
<mgrwt>
<rscale>  0 0.12500064E+03</rscale>
<asrwt>0</asrwt>
<pdfrwt beam="1">  1        4 0.38022673E-02 0.12500064E+03</pdfrwt>
<pdfrwt beam="2">  1       -4 0.64209879E-01 0.12500064E+03</pdfrwt>
<totfact> 0.13792062E+03</totfact>
</mgrwt>
</event>
<event>
 5    1  0.1422067E-002  0.1250036E+03  0.7818608E-02  0.1235064E+00
          4   -1    0    0  501    0  0.00000000000E+00  0.00000000000E+00  0.20712606688E+03  0.20712996037E+03  0.12700000000E+01 0. -1.
         -4   -1    0    0    0  501 -0.00000000000E+00 -0.00000000000E+00 -0.18834908756E+02  0.18877676971E+02  0.12700000000E+01 0. -1.
         25    2    1    2    0    0  0.00000000000E+00  0.00000000000E+00  0.18829115813E+03  0.22600763734E+03  0.12500356758E+03 0.  0.
    9000005    1    3    3    0    0 -0.68872834593E-01  0.42205041929E+02  0.17747506113E+03  0.18242715706E+03  0.10000000000E+01 0.  0.
    9000005    1    3    3    0    0  0.68872834593E-01 -0.42205041929E+02  0.10816096996E+02  0.43580480285E+02  0.10000000000E+01 0.  0.
<mgrwt>
<rscale>  0 0.12500357E+03</rscale>
<asrwt>0</asrwt>
<pdfrwt beam="1">  1        4 0.51787350E-01 0.12500357E+03</pdfrwt>
<pdfrwt beam="2">  1       -4 0.47145599E-02 0.12500357E+03</pdfrwt>
<totfact> 0.15329763E+03</totfact>
</mgrwt>
</event>
<event>
 4    1  0.1422067E-002  0.1253659E+03  0.7818608E-02  0.1234499E+00
          4   -1    0    0  501    0  0.00000000000E+00  0.00000000000E+00  0.33910211738E+02  0.33933985326E+02  0.12700000000E+01 0.  1.
         -4   -1    0    0    0  501 -0.00000000000E+00 -0.00000000000E+00 -0.11580139496E+03  0.11580835883E+03  0.12700000000E+01 0.  1.
    9000005    1    1    2    0    0 -0.12867698856E+02 -0.32971747416E+02  0.20836506256E+02  0.41083741242E+02  0.10000000000E+01 0.  0.
    9000005    1    1    2    0    0  0.12867698856E+02  0.32971747416E+02 -0.10272768948E+03  0.10865860291E+03  0.10000000000E+01 0.  0.
<mgrwt>
<rscale>  0 0.12536588E+03</rscale>
<asrwt>0</asrwt>
<pdfrwt beam="1">  1        4 0.84813954E-02 0.12536588E+03</pdfrwt>
<pdfrwt beam="2">  1       -4 0.28954190E-01 0.12536588E+03</pdfrwt>
<totfact> 0.18394366E+03</totfact>
</mgrwt>
</event>
<event>
 5    1  0.1422067E-002  0.1249966E+03  0.7818608E-02  0.1235075E+00
          4   -1    0    0  501    0  0.00000000000E+00  0.00000000000E+00  0.57987152141E+02  0.58001057865E+02  0.12700000000E+01 0. -1.
         -4   -1    0    0    0  501 -0.00000000000E+00 -0.00000000000E+00 -0.67332451004E+02  0.67344427076E+02  0.12700000000E+01 0. -1.
         25    2    1    2    0    0  0.00000000000E+00  0.00000000000E+00 -0.93452988625E+01  0.12534548494E+03  0.12499662389E+03 0.  0.
    9000005    1    3    3    0    0 -0.59100052130E+02  0.14620722171E+02 -0.18799455074E+02  0.63725985200E+02  0.10000000000E+01 0.  0.
    9000005    1    3    3    0    0  0.59100052130E+02 -0.14620722171E+02  0.94541562119E+01  0.61619499741E+02  0.10000000000E+01 0.  0.
<mgrwt>
<rscale>  0 0.12499662E+03</rscale>
<asrwt>0</asrwt>
<pdfrwt beam="1">  1        4 0.14500023E-01 0.12499662E+03</pdfrwt>
<pdfrwt beam="2">  1       -4 0.16836348E-01 0.12499662E+03</pdfrwt>
<totfact> 0.19817896E+03</totfact>
</mgrwt>
</event>
<event>
 5    1  0.1422067E-002  0.1249971E+03  0.7818608E-02  0.1235074E+00
          4   -1    0    0  501    0  0.00000000000E+00  0.00000000000E+00  0.24201999674E+03  0.24202332888E+03  0.12700000000E+01 0. -1.
         -4   -1    0    0    0  501 -0.00000000000E+00 -0.00000000000E+00 -0.16111016795E+02  0.16160995086E+02  0.12700000000E+01 0. -1.
         25    2    1    2    0    0  0.00000000000E+00  0.00000000000E+00  0.22590897994E+03  0.25818432396E+03  0.12499711165E+03 0.  0.
    9000005    1    3    3    0    0  0.19715809929E+02 -0.39277023755E+02  0.21191543151E+02  0.48800402225E+02  0.10000000000E+01 0.  0.
    9000005    1    3    3    0    0 -0.19715809929E+02  0.39277023755E+02  0.20471743679E+03  0.20938392174E+03  0.10000000000E+01 0.  0.
<mgrwt>
<rscale>  0 0.12499711E+03</rscale>
<asrwt>0</asrwt>
<pdfrwt beam="1">  1        4 0.60511663E-01 0.12499711E+03</pdfrwt>
<pdfrwt beam="2">  1       -4 0.40344180E-02 0.12499711E+03</pdfrwt>
<totfact> 0.14230585E+03</totfact>
</mgrwt>
</event>
<event>
 5    1  0.1422067E-002  0.1249998E+03  0.7818608E-02  0.1235070E+00
          4   -1    0    0  501    0  0.00000000000E+00  0.00000000000E+00  0.72374456579E+03  0.72374568007E+03  0.12700000000E+01 0. -1.
         -4   -1    0    0    0  501 -0.00000000000E+00 -0.00000000000E+00 -0.53214180961E+01  0.54708674406E+01  0.12700000000E+01 0. -1.
         25    2    1    2    0    0  0.00000000000E+00  0.00000000000E+00  0.71842314770E+03  0.72921654751E+03  0.12499981605E+03 0.  0.
    9000005    1    3    3    0    0 -0.54320200839E+02 -0.26850974403E+02  0.44837042499E+03  0.45244745226E+03  0.10000000000E+01 0.  0.
    9000005    1    3    3    0    0  0.54320200839E+02  0.26850974403E+02  0.27005272270E+03  0.27676909525E+03  0.10000000000E+01 0.  0.
<mgrwt>
<rscale>  0 0.12499982E+03</rscale>
<asrwt>0</asrwt>
<pdfrwt beam="1">  1        4 0.18095494E+00 0.12499982E+03</pdfrwt>
<pdfrwt beam="2">  1       -4 0.13491751E-02 0.12499982E+03</pdfrwt>
<totfact> 0.59092552E+02</totfact>
</mgrwt>
</event>
<event>
 5    1  0.1422067E-002  0.1250049E+03  0.7818608E-02  0.1235062E+00
          4   -1    0    0  501    0  0.00000000000E+00  0.00000000000E+00  0.72971877161E+02  0.72982927842E+02  0.12700000000E+01 0. -1.
         -4   -1    0    0    0  501 -0.00000000000E+00 -0.00000000000E+00 -0.53512490631E+02  0.53527558823E+02  0.12700000000E+01 0. -1.
         25    2    1    2    0    0  0.00000000000E+00  0.00000000000E+00  0.19459386530E+02  0.12651048666E+03  0.12500494195E+03 0.  0.
    9000005    1    3    3    0    0 -0.61787152628E+02  0.84573672199E+01  0.13825607248E+02  0.63885262041E+02  0.10000000000E+01 0.  0.
    9000005    1    3    3    0    0  0.61787152628E+02 -0.84573672199E+01  0.56337792821E+01  0.62625224624E+02  0.10000000000E+01 0.  0.
<mgrwt>
<rscale>  0 0.12500494E+03</rscale>
<asrwt>0</asrwt>
<pdfrwt beam="1">  1        4 0.18246234E-01 0.12500494E+03</pdfrwt>
<pdfrwt beam="2">  1       -4 0.13381388E-01 0.12500494E+03</pdfrwt>
<totfact> 0.19751076E+03</totfact>
</mgrwt>
</event>
<event>
 4    1  0.1422067E-002  0.1251286E+03  0.7818608E-02  0.1234868E+00
          4   -1    0    0  501    0  0.00000000000E+00  0.00000000000E+00  0.97356992612E+02  0.97365275692E+02  0.12700000000E+01 0. -1.
         -4   -1    0    0    0  501 -0.00000000000E+00 -0.00000000000E+00 -0.40185549781E+02  0.40205612932E+02  0.12700000000E+01 0. -1.
    9000005    1    1    2    0    0  0.45567193916E+02  0.51764211510E+01  0.75361889515E+02  0.88224593445E+02  0.10000000000E+01 0.  0.
    9000005    1    1    2    0    0 -0.45567193916E+02 -0.51764211510E+01 -0.18190446684E+02  0.49346295179E+02  0.10000000000E+01 0.  0.
<mgrwt>
<rscale>  0 0.12512864E+03</rscale>
<asrwt>0</asrwt>
<pdfrwt beam="1">  1        4 0.24342791E-01 0.12512864E+03</pdfrwt>
<pdfrwt beam="2">  1       -4 0.10049931E-01 0.12512864E+03</pdfrwt>
<totfact> 0.19107916E+03</totfact>
</mgrwt>
</event>
<event>
 5    1  0.1422067E-002  0.1250043E+03  0.7818608E-02  0.1235063E+00
         -4   -1    0    0    0  501 -0.00000000000E+00  0.00000000000E+00  0.22154126191E+02  0.22190498131E+02  0.12700000000E+01 0. -1.
          4   -1    0    0  501    0  0.00000000000E+00 -0.00000000000E+00 -0.17615039168E+03  0.17615496981E+03  0.12700000000E+01 0. -1.
         25    2    1    2    0    0  0.00000000000E+00  0.00000000000E+00 -0.15399626549E+03  0.19834546795E+03  0.12500429940E+03 0.  0.
    9000005    1    3    3    0    0  0.61304533164E+01  0.59788722383E+02 -0.49826696763E+02  0.78076715430E+02  0.10000000000E+01 0.  0.
    9000005    1    3    3    0    0 -0.61304533164E+01 -0.59788722383E+02 -0.10416956873E+03  0.12026875252E+03  0.10000000000E+01 0.  0.
<mgrwt>
<rscale>  0 0.12500430E+03</rscale>
<asrwt>0</asrwt>
<pdfrwt beam="2">  1        4 0.44042713E-01 0.12500430E+03</pdfrwt>
<pdfrwt beam="1">  1       -4 0.55436508E-02 0.12500430E+03</pdfrwt>
<totfact> 0.16386877E+03</totfact>
</mgrwt>
</event>
<event>
 5    1  0.1422067E-002  0.1250013E+03  0.7818608E-02  0.1235067E+00
          4   -1    0    0  501    0  0.00000000000E+00  0.00000000000E+00  0.12952762955E+02  0.13014874881E+02  0.12700000000E+01 0.  1.
         -4   -1    0    0    0  501 -0.00000000000E+00 -0.00000000000E+00 -0.30079817092E+03  0.30080085194E+03  0.12700000000E+01 0.  1.
         25    2    1    2    0    0  0.00000000000E+00  0.00000000000E+00 -0.28784540796E+03  0.31381572682E+03  0.12500132605E+03 0.  0.
    9000005    1    3    3    0    0  0.84757670951E+01  0.61168617582E+02 -0.16798875215E+03  0.17898228754E+03  0.10000000000E+01 0.  0.
    9000005    1    3    3    0    0 -0.84757670951E+01 -0.61168617582E+02 -0.11985665581E+03  0.13483343928E+03  0.10000000000E+01 0.  0.
<mgrwt>
<rscale>  0 0.12500133E+03</rscale>
<asrwt>0</asrwt>
<pdfrwt beam="1">  1        4 0.32462908E-02 0.12500133E+03</pdfrwt>
<pdfrwt beam="2">  1       -4 0.75207619E-01 0.12500133E+03</pdfrwt>
<totfact> 0.12592112E+03</totfact>
</mgrwt>
</event>
<event>
 4    1  0.1422067E-002  0.1248693E+03  0.7818608E-02  0.1235274E+00
          4   -1    0    0  501    0  0.00000000000E+00  0.00000000000E+00  0.71691177711E+02  0.71702425772E+02  0.12700000000E+01 0. -1.
         -4   -1    0    0    0  501 -0.00000000000E+00 -0.00000000000E+00 -0.54350331625E+02  0.54365167596E+02  0.12700000000E+01 0. -1.
    9000005    1    1    2    0    0  0.14983633660E+02 -0.21023399037E+02 -0.48713320771E+02  0.55140549556E+02  0.10000000000E+01 0.  0.
    9000005    1    1    2    0    0 -0.14983633660E+02  0.21023399037E+02  0.66054166857E+02  0.70927043812E+02  0.10000000000E+01 0.  0.
<mgrwt>
<rscale>  0 0.12486926E+03</rscale>
<asrwt>0</asrwt>
<pdfrwt beam="1">  1        4 0.17926055E-01 0.12486926E+03</pdfrwt>
<pdfrwt beam="2">  1       -4 0.13590843E-01 0.12486926E+03</pdfrwt>
<totfact> 0.19837869E+03</totfact>
</mgrwt>
</event>
<event>
 5    1  0.1422067E-002  0.1250107E+03  0.7818608E-02  0.1235053E+00
          4   -1    0    0  501    0  0.00000000000E+00  0.00000000000E+00  0.38490888326E+03  0.38491097843E+03  0.12700000000E+01 0. -1.
         -4   -1    0    0    0  501 -0.00000000000E+00 -0.00000000000E+00 -0.10108386346E+02  0.10187854265E+02  0.12700000000E+01 0. -1.
         25    2    1    2    0    0  0.00000000000E+00  0.00000000000E+00  0.37480049692E+03  0.39509883269E+03  0.12501069997E+03 0.  0.
    9000005    1    3    3    0    0  0.15769199552E+02  0.59293436029E+02  0.22500108345E+03  0.23321849576E+03  0.10000000000E+01 0.  0.
    9000005    1    3    3    0    0 -0.15769199552E+02 -0.59293436029E+02  0.14979941346E+03  0.16188033693E+03  0.10000000000E+01 0.  0.
<mgrwt>
<rscale>  0 0.12501070E+03</rscale>
<asrwt>0</asrwt>
<pdfrwt beam="1">  1        4 0.96237405E-01 0.12501070E+03</pdfrwt>
<pdfrwt beam="2">  1       -4 0.25372923E-02 0.12501070E+03</pdfrwt>
<totfact> 0.10668257E+03</totfact>
</mgrwt>
</event>
<event>
 5    1  0.1422067E-002  0.1250003E+03  0.7818608E-02  0.1235069E+00
          4   -1    0    0  501    0  0.00000000000E+00  0.00000000000E+00  0.24316613005E+03  0.24316944649E+03  0.12700000000E+01 0.  1.
         -4   -1    0    0    0  501 -0.00000000000E+00 -0.00000000000E+00 -0.16035664458E+02  0.16085876868E+02  0.12700000000E+01 0.  1.
         25    2    1    2    0    0  0.00000000000E+00  0.00000000000E+00  0.22713046560E+03  0.25925532336E+03  0.12500029715E+03 0.  0.
    9000005    1    3    3    0    0  0.21543827458E+02  0.49286133173E+02  0.17954470790E+03  0.18743148497E+03  0.10000000000E+01 0.  0.
    9000005    1    3    3    0    0 -0.21543827458E+02 -0.49286133173E+02  0.47585757699E+02  0.71823838386E+02  0.10000000000E+01 0.  0.
<mgrwt>
<rscale>  0 0.12500030E+03</rscale>
<asrwt>0</asrwt>
<pdfrwt beam="1">  1        4 0.60798223E-01 0.12500030E+03</pdfrwt>
<pdfrwt beam="2">  1       -4 0.40156072E-02 0.12500030E+03</pdfrwt>
<totfact> 0.14194998E+03</totfact>
</mgrwt>
</event>
<event>
 5    1  0.1422067E-002  0.1250014E+03  0.7818608E-02  0.1235067E+00
          4   -1    0    0  501    0  0.00000000000E+00  0.00000000000E+00  0.12293357754E+03  0.12294013741E+03  0.12700000000E+01 0. -1.
         -4   -1    0    0    0  501 -0.00000000000E+00 -0.00000000000E+00 -0.31755894522E+02  0.31781279661E+02  0.12700000000E+01 0. -1.
         25    2    1    2    0    0  0.00000000000E+00  0.00000000000E+00  0.91177683019E+02  0.15472141707E+03  0.12500138807E+03 0.  0.
    9000005    1    3    3    0    0 -0.61854402437E+02  0.87169616591E+01  0.43311827124E+02  0.76018858780E+02  0.10000000000E+01 0.  0.
    9000005    1    3    3    0    0  0.61854402437E+02 -0.87169616591E+01  0.47865855895E+02  0.78702558293E+02  0.10000000000E+01 0.  0.
<mgrwt>
<rscale>  0 0.12500139E+03</rscale>
<asrwt>0</asrwt>
<pdfrwt beam="1">  1        4 0.30737387E-01 0.12500139E+03</pdfrwt>
<pdfrwt beam="2">  1       -4 0.79429668E-02 0.12500139E+03</pdfrwt>
<totfact> 0.18308448E+03</totfact>
</mgrwt>
</event>
<event>
 5    1  0.1422067E-002  0.1249539E+03  0.7818608E-02  0.1235141E+00
         -4   -1    0    0    0  501 -0.00000000000E+00  0.00000000000E+00  0.66706327231E+02  0.66718415693E+02  0.12700000000E+01 0.  1.
          4   -1    0    0  501    0  0.00000000000E+00 -0.00000000000E+00 -0.58491482831E+02  0.58505268684E+02  0.12700000000E+01 0.  1.
         25    2    1    2    0    0  0.00000000000E+00  0.00000000000E+00  0.82148444001E+01  0.12522368438E+03  0.12495394136E+03 0.  0.
    9000005    1    3    3    0    0 -0.11681471774E+02  0.51264482720E+02 -0.29697694532E+02  0.60394180448E+02  0.10000000000E+01 0.  0.
    9000005    1    3    3    0    0  0.11681471774E+02 -0.51264482720E+02  0.37912538932E+02  0.64829503929E+02  0.10000000000E+01 0.  0.
<mgrwt>
<rscale>  0 0.12495394E+03</rscale>
<asrwt>0</asrwt>
<pdfrwt beam="2">  1        4 0.14626105E-01 0.12495394E+03</pdfrwt>
<pdfrwt beam="1">  1       -4 0.16679816E-01 0.12495394E+03</pdfrwt>
<totfact> 0.19844306E+03</totfact>
</mgrwt>
</event>
<event>
 5    1  0.1422067E-002  0.1249920E+03  0.7818608E-02  0.1235082E+00
          4   -1    0    0  501    0  0.00000000000E+00  0.00000000000E+00  0.83467781927E+02  0.83477443180E+02  0.12700000000E+01 0.  1.
         -4   -1    0    0    0  501 -0.00000000000E+00 -0.00000000000E+00 -0.46772515431E+02  0.46789754217E+02  0.12700000000E+01 0.  1.
         25    2    1    2    0    0  0.00000000000E+00  0.00000000000E+00  0.36695266496E+02  0.13026719740E+03  0.12499200028E+03 0.  0.
    9000005    1    3    3    0    0  0.40103529950E+02 -0.18236685888E+02 -0.27838366411E+02  0.52123358210E+02  0.10000000000E+01 0.  0.
    9000005    1    3    3    0    0 -0.40103529950E+02  0.18236685888E+02  0.64533632908E+02  0.78143839187E+02  0.10000000000E+01 0.  0.
<mgrwt>
<rscale>  0 0.12499200E+03</rscale>
<asrwt>0</asrwt>
<pdfrwt beam="1">  1        4 0.20870308E-01 0.12499200E+03</pdfrwt>
<pdfrwt beam="2">  1       -4 0.11696491E-01 0.12499200E+03</pdfrwt>
<totfact> 0.19553680E+03</totfact>
</mgrwt>
</event>
<event>
 5    1  0.1422067E-002  0.1249725E+03  0.7818608E-02  0.1235112E+00
          4   -1    0    0  501    0  0.00000000000E+00  0.00000000000E+00  0.59632485363E+02  0.59646007499E+02  0.12700000000E+01 0.  1.
         -4   -1    0    0    0  501 -0.00000000000E+00 -0.00000000000E+00 -0.65449462325E+02  0.65461782886E+02  0.12700000000E+01 0.  1.
         25    2    1    2    0    0  0.00000000000E+00  0.00000000000E+00 -0.58169769625E+01  0.12510779039E+03  0.12497248495E+03 0.  0.
    9000005    1    3    3    0    0 -0.43515953057E+02  0.26570771303E+02 -0.39056951202E+02  0.64234644043E+02  0.10000000000E+01 0.  0.
    9000005    1    3    3    0    0  0.43515953057E+02 -0.26570771303E+02  0.33239974239E+02  0.60873146342E+02  0.10000000000E+01 0.  0.
<mgrwt>
<rscale>  0 0.12497248E+03</rscale>
<asrwt>0</asrwt>
<pdfrwt beam="1">  1        4 0.14911352E-01 0.12497248E+03</pdfrwt>
<pdfrwt beam="2">  1       -4 0.16365596E-01 0.12497248E+03</pdfrwt>
<totfact> 0.19841982E+03</totfact>
</mgrwt>
</event>
<event>
 5    1  0.1422067E-002  0.1250016E+03  0.7818608E-02  0.1235067E+00
          4   -1    0    0  501    0  0.00000000000E+00  0.00000000000E+00  0.45599637321E+01  0.47335155264E+01  0.12700000000E+01 0.  1.
         -4   -1    0    0    0  501 -0.00000000000E+00 -0.00000000000E+00 -0.84049133557E+03  0.84049229507E+03  0.12700000000E+01 0.  1.
         25    2    1    2    0    0  0.00000000000E+00  0.00000000000E+00 -0.83593137184E+03  0.84522581060E+03  0.12500164988E+03 0.  0.
    9000005    1    3    3    0    0 -0.54952203902E+02 -0.10722496249E+01 -0.21687322876E+03  0.22373174068E+03  0.10000000000E+01 0.  0.
    9000005    1    3    3    0    0  0.54952203902E+02  0.10722496249E+01 -0.61905814308E+03  0.62149406992E+03  0.10000000000E+01 0.  0.
<mgrwt>
<rscale>  0 0.12500165E+03</rscale>
<asrwt>0</asrwt>
<pdfrwt beam="1">  1        4 0.11618077E-02 0.12500165E+03</pdfrwt>
<pdfrwt beam="2">  1       -4 0.21014413E+00 0.12500165E+03</pdfrwt>
<totfact> 0.48622144E+02</totfact>
</mgrwt>
</event>
<event>
 5    1  0.1422067E-002  0.1249999E+03  0.7818608E-02  0.1235069E+00
         -4   -1    0    0    0  501 -0.00000000000E+00  0.00000000000E+00  0.92400153659E+02  0.92408881046E+02  0.12700000000E+01 0.  1.
          4   -1    0    0  501    0  0.00000000000E+00 -0.00000000000E+00 -0.42255019097E+02  0.42274100096E+02  0.12700000000E+01 0.  1.
         25    2    1    2    0    0  0.00000000000E+00  0.00000000000E+00  0.50145134562E+02  0.13468298114E+03  0.12499988356E+03 0.  0.
    9000005    1    3    3    0    0  0.41627592385E+02 -0.36554677561E+02  0.56228667039E+02  0.78941522004E+02  0.10000000000E+01 0.  0.
    9000005    1    3    3    0    0 -0.41627592385E+02  0.36554677561E+02 -0.60835324777E+01  0.55741459137E+02  0.10000000000E+01 0.  0.
<mgrwt>
<rscale>  0 0.12499988E+03</rscale>
<asrwt>0</asrwt>
<pdfrwt beam="2">  1        4 0.10567231E-01 0.12499988E+03</pdfrwt>
<pdfrwt beam="1">  1       -4 0.23103514E-01 0.12499988E+03</pdfrwt>
<totfact> 0.19315807E+03</totfact>
</mgrwt>
</event>
<event>
 5    1  0.1422067E-002  0.1250022E+03  0.7818608E-02  0.1235066E+00
         -4   -1    0    0    0  501 -0.00000000000E+00  0.00000000000E+00  0.58076432313E+03  0.58076571173E+03  0.12700000000E+01 0. -1.
          4   -1    0    0  501    0  0.00000000000E+00 -0.00000000000E+00 -0.66649349825E+01  0.67848550700E+01  0.12700000000E+01 0. -1.
         25    2    1    2    0    0  0.00000000000E+00  0.00000000000E+00  0.57409938815E+03  0.58755056680E+03  0.12500224428E+03 0.  0.
    9000005    1    3    3    0    0 -0.36297420864E+01 -0.90290454014E+01  0.57720421344E+03  0.57728710595E+03  0.10000000000E+01 0.  0.
    9000005    1    3    3    0    0  0.36297420864E+01  0.90290454014E+01 -0.31048252905E+01  0.10263460847E+02  0.10000000000E+01 0.  0.
<mgrwt>
<rscale>  0 0.12500224E+03</rscale>
<asrwt>0</asrwt>
<pdfrwt beam="2">  1        4 0.16813974E-02 0.12500224E+03</pdfrwt>
<pdfrwt beam="1">  1       -4 0.14520623E+00 0.12500224E+03</pdfrwt>
<totfact> 0.75088150E+02</totfact>
</mgrwt>
</event>
<event>
 5    1  0.1422067E-002  0.1250060E+03  0.7818608E-02  0.1235060E+00
         -4   -1    0    0    0  501 -0.00000000000E+00  0.00000000000E+00  0.51350385094E+02  0.51366087541E+02  0.12700000000E+01 0. -1.
          4   -1    0    0  501    0  0.00000000000E+00 -0.00000000000E+00 -0.76045121897E+02  0.76055726045E+02  0.12700000000E+01 0. -1.
         25    2    1    2    0    0  0.00000000000E+00  0.00000000000E+00 -0.24694736803E+02  0.12742181359E+03  0.12500595407E+03 0.  0.
    9000005    1    3    3    0    0 -0.37779879240E+02  0.41638591392E+02  0.15466048785E+02  0.58320581560E+02  0.10000000000E+01 0.  0.
    9000005    1    3    3    0    0  0.37779879240E+02 -0.41638591392E+02 -0.40160785588E+02  0.69101232026E+02  0.10000000000E+01 0.  0.
<mgrwt>
<rscale>  0 0.12500595E+03</rscale>
<asrwt>0</asrwt>
<pdfrwt beam="2">  1        4 0.19014569E-01 0.12500595E+03</pdfrwt>
<pdfrwt beam="1">  1       -4 0.12840885E-01 0.12500595E+03</pdfrwt>
<totfact> 0.19701316E+03</totfact>
</mgrwt>
</event>
<event>
 5    1  0.1422067E-002  0.1249984E+03  0.7818608E-02  0.1235072E+00
         -4   -1    0    0    0  501 -0.00000000000E+00  0.00000000000E+00  0.44119351701E+02  0.44137626743E+02  0.12700000000E+01 0. -1.
          4   -1    0    0  501    0  0.00000000000E+00 -0.00000000000E+00 -0.88494826857E+02  0.88503939350E+02  0.12700000000E+01 0. -1.
         25    2    1    2    0    0  0.00000000000E+00  0.00000000000E+00 -0.44375475156E+02  0.13264156609E+03  0.12499840903E+03 0.  0.
    9000005    1    3    3    0    0 -0.58885104900E+01 -0.56873448039E+02 -0.48946443124E+02  0.75272956246E+02  0.10000000000E+01 0.  0.
    9000005    1    3    3    0    0  0.58885104900E+01  0.56873448039E+02  0.45709679677E+01  0.57368609847E+02  0.10000000000E+01 0.  0.
<mgrwt>
<rscale>  0 0.12499841E+03</rscale>
<asrwt>0</asrwt>
<pdfrwt beam="2">  1        4 0.22127130E-01 0.12499841E+03</pdfrwt>
<pdfrwt beam="1">  1       -4 0.11033262E-01 0.12499841E+03</pdfrwt>
<totfact> 0.19424116E+03</totfact>
</mgrwt>
</event>
<event>
 5    1  0.1422067E-002  0.1250151E+03  0.7818608E-02  0.1235046E+00
         -4   -1    0    0    0  501 -0.00000000000E+00  0.00000000000E+00  0.27412167010E+03  0.27412461202E+03  0.12700000000E+01 0. -1.
          4   -1    0    0  501    0  0.00000000000E+00 -0.00000000000E+00 -0.14222180705E+02  0.14278771796E+02  0.12700000000E+01 0. -1.
         25    2    1    2    0    0  0.00000000000E+00  0.00000000000E+00  0.25989948939E+03  0.28840338382E+03  0.12501506794E+03 0.  0.
    9000005    1    3    3    0    0  0.27911594407E+01  0.34470717634E+02  0.98515923857E+01  0.35973251421E+02  0.10000000000E+01 0.  0.
    9000005    1    3    3    0    0 -0.27911594407E+01 -0.34470717634E+02  0.25004789701E+03  0.25243013240E+03  0.10000000000E+01 0.  0.
<mgrwt>
<rscale>  0 0.12501507E+03</rscale>
<asrwt>0</asrwt>
<pdfrwt beam="2">  1        4 0.35629869E-02 0.12501507E+03</pdfrwt>
<pdfrwt beam="1">  1       -4 0.68537857E-01 0.12501507E+03</pdfrwt>
<totfact> 0.13297817E+03</totfact>
</mgrwt>
</event>
<event>
 5    1  0.1422067E-002  0.1250016E+03  0.7818608E-02  0.1235067E+00
         -4   -1    0    0    0  501 -0.00000000000E+00  0.00000000000E+00  0.62326789108E+02  0.62339726824E+02  0.12700000000E+01 0.  1.
          4   -1    0    0  501    0  0.00000000000E+00 -0.00000000000E+00 -0.62649410277E+02  0.62662281382E+02  0.12700000000E+01 0.  1.
         25    2    1    2    0    0  0.00000000000E+00  0.00000000000E+00 -0.32262116861E+00  0.12500200821E+03  0.12500159187E+03 0.  0.
    9000005    1    3    3    0    0 -0.58512480342E+02  0.11649971773E+02  0.18437603335E+02  0.62453001648E+02  0.10000000000E+01 0.  0.
    9000005    1    3    3    0    0  0.58512480342E+02 -0.11649971773E+02 -0.18760224504E+02  0.62549006559E+02  0.10000000000E+01 0.  0.
<mgrwt>
<rscale>  0 0.12500159E+03</rscale>
<asrwt>0</asrwt>
<pdfrwt beam="2">  1        4 0.15665579E-01 0.12500159E+03</pdfrwt>
<pdfrwt beam="1">  1       -4 0.15584923E-01 0.12500159E+03</pdfrwt>
<totfact> 0.19834208E+03</totfact>
</mgrwt>
</event>
<event>
 5    1  0.1422067E-002  0.1250002E+03  0.7818608E-02  0.1235069E+00
         -4   -1    0    0    0  501 -0.00000000000E+00  0.00000000000E+00  0.38392351592E+02  0.38413351335E+02  0.12700000000E+01 0. -1.
          4   -1    0    0  501    0  0.00000000000E+00 -0.00000000000E+00 -0.10169305147E+03  0.10170098140E+03  0.12700000000E+01 0. -1.
         25    2    1    2    0    0  0.00000000000E+00  0.00000000000E+00 -0.63300699877E+02  0.14011433273E+03  0.12500019053E+03 0.  0.
    9000005    1    3    3    0    0 -0.37950490805E+02  0.23072761938E+02 -0.80928082871E+02  0.92319806613E+02  0.10000000000E+01 0.  0.
    9000005    1    3    3    0    0  0.37950490805E+02 -0.23072761938E+02  0.17627382994E+02  0.47794526120E+02  0.10000000000E+01 0.  0.
<mgrwt>
<rscale>  0 0.12500019E+03</rscale>
<asrwt>0</asrwt>
<pdfrwt beam="2">  1        4 0.25426879E-01 0.12500019E+03</pdfrwt>
<pdfrwt beam="1">  1       -4 0.96017043E-02 0.12500019E+03</pdfrwt>
<totfact> 0.19034410E+03</totfact>
</mgrwt>
</event>
<event>
 5    1  0.1422067E-002  0.1250041E+03  0.7818608E-02  0.1235063E+00
          4   -1    0    0  501    0  0.00000000000E+00  0.00000000000E+00  0.14197312875E+03  0.14197880894E+03  0.12700000000E+01 0.  1.
         -4   -1    0    0    0  501 -0.00000000000E+00 -0.00000000000E+00 -0.27494930841E+02  0.27524246075E+02  0.12700000000E+01 0.  1.
         25    2    1    2    0    0  0.00000000000E+00  0.00000000000E+00  0.11447819791E+03  0.16950305501E+03  0.12500411138E+03 0.  0.
    9000005    1    3    3    0    0  0.37611797218E+02 -0.19326466026E+02 -0.51558295581E+01  0.42611526110E+02  0.10000000000E+01 0.  0.
    9000005    1    3    3    0    0 -0.37611797218E+02  0.19326466026E+02  0.11963402747E+03  0.12689152890E+03  0.10000000000E+01 0.  0.
<mgrwt>
<rscale>  0 0.12500411E+03</rscale>
<asrwt>0</asrwt>
<pdfrwt beam="1">  1        4 0.35497656E-01 0.12500411E+03</pdfrwt>
<pdfrwt beam="2">  1       -4 0.68781072E-02 0.12500411E+03</pdfrwt>
<totfact> 0.17617803E+03</totfact>
</mgrwt>
</event>
<event>
 5    1  0.1422067E-002  0.1249995E+03  0.7818608E-02  0.1235070E+00
          4   -1    0    0  501    0  0.00000000000E+00  0.00000000000E+00  0.70566615367E+02  0.70578042650E+02  0.12700000000E+01 0. -1.
         -4   -1    0    0    0  501 -0.00000000000E+00 -0.00000000000E+00 -0.55331839578E+02  0.55346412450E+02  0.12700000000E+01 0. -1.
         25    2    1    2    0    0  0.00000000000E+00  0.00000000000E+00  0.15234775789E+02  0.12592445510E+03  0.12499947999E+03 0.  0.
    9000005    1    3    3    0    0  0.56133364996E+02  0.47972500837E+01 -0.19624335789E+02  0.59666429668E+02  0.10000000000E+01 0.  0.
    9000005    1    3    3    0    0 -0.56133364996E+02 -0.47972500837E+01  0.34859111578E+02  0.66258025432E+02  0.10000000000E+01 0.  0.
<mgrwt>
<rscale>  0 0.12499948E+03</rscale>
<asrwt>0</asrwt>
<pdfrwt beam="1">  1        4 0.17644904E-01 0.12499948E+03</pdfrwt>
<pdfrwt beam="2">  1       -4 0.13836210E-01 0.12499948E+03</pdfrwt>
<totfact> 0.19785244E+03</totfact>
</mgrwt>
</event>
<event>
 5    1  0.1422067E-002  0.1249973E+03  0.7818608E-02  0.1235074E+00
         -4   -1    0    0    0  501 -0.00000000000E+00  0.00000000000E+00  0.83804802440E+02  0.83814424844E+02  0.12700000000E+01 0. -1.
          4   -1    0    0  501    0  0.00000000000E+00 -0.00000000000E+00 -0.46588292827E+02  0.46605599755E+02  0.12700000000E+01 0. -1.
         25    2    1    2    0    0  0.00000000000E+00  0.00000000000E+00  0.37216509613E+02  0.13042002460E+03  0.12499725689E+03 0.  0.
    9000005    1    3    3    0    0 -0.53118019916E+02  0.28346867690E+02  0.11488166737E+01  0.60227806929E+02  0.10000000000E+01 0.  0.
    9000005    1    3    3    0    0  0.53118019916E+02 -0.28346867690E+02  0.36067692939E+02  0.70192217671E+02  0.10000000000E+01 0.  0.
<mgrwt>
<rscale>  0 0.12499726E+03</rscale>
<asrwt>0</asrwt>
<pdfrwt beam="2">  1        4 0.11650439E-01 0.12499726E+03</pdfrwt>
<pdfrwt beam="1">  1       -4 0.20954567E-01 0.12499726E+03</pdfrwt>
<totfact> 0.19543080E+03</totfact>
</mgrwt>
</event>
<event>
 5    1  0.1422067E-002  0.1250110E+03  0.7818608E-02  0.1235052E+00
          4   -1    0    0  501    0  0.00000000000E+00  0.00000000000E+00  0.15900329572E+02  0.15950968011E+02  0.12700000000E+01 0. -1.
         -4   -1    0    0    0  501 -0.00000000000E+00 -0.00000000000E+00 -0.24527134782E+03  0.24527463578E+03  0.12700000000E+01 0. -1.
         25    2    1    2    0    0  0.00000000000E+00  0.00000000000E+00 -0.22937101824E+03  0.26122560380E+03  0.12501100779E+03 0.  0.
    9000005    1    3    3    0    0  0.15064138505E+02 -0.26313112593E+02 -0.22888342717E+03  0.23088510432E+03  0.10000000000E+01 0.  0.
    9000005    1    3    3    0    0 -0.15064138505E+02  0.26313112593E+02 -0.48759106925E+00  0.30340499473E+02  0.10000000000E+01 0.  0.
<mgrwt>
<rscale>  0 0.12501101E+03</rscale>
<asrwt>0</asrwt>
<pdfrwt beam="1">  1        4 0.39818240E-02 0.12501101E+03</pdfrwt>
<pdfrwt beam="2">  1       -4 0.61324566E-01 0.12501101E+03</pdfrwt>
<totfact> 0.14128307E+03</totfact>
</mgrwt>
</event>
<event>
 5    1  0.1422067E-002  0.1249999E+03  0.7818608E-02  0.1235070E+00
          4   -1    0    0  501    0  0.00000000000E+00  0.00000000000E+00  0.77368525982E+02  0.77378948769E+02  0.12700000000E+01 0. -1.
         -4   -1    0    0    0  501 -0.00000000000E+00 -0.00000000000E+00 -0.50466945758E+02  0.50482922995E+02  0.12700000000E+01 0. -1.
         25    2    1    2    0    0  0.00000000000E+00  0.00000000000E+00  0.26901580224E+02  0.12786187176E+03  0.12499985293E+03 0.  0.
    9000005    1    3    3    0    0 -0.39790916550E+02  0.18194410103E+02  0.59091762015E+02  0.73533597334E+02  0.10000000000E+01 0.  0.
    9000005    1    3    3    0    0  0.39790916550E+02 -0.18194410103E+02 -0.32190181791E+02  0.54328274430E+02  0.10000000000E+01 0.  0.
<mgrwt>
<rscale>  0 0.12499985E+03</rscale>
<asrwt>0</asrwt>
<pdfrwt beam="1">  1        4 0.19345431E-01 0.12499985E+03</pdfrwt>
<pdfrwt beam="2">  1       -4 0.12620036E-01 0.12499985E+03</pdfrwt>
<totfact> 0.19680121E+03</totfact>
</mgrwt>
</event>
<event>
 5    1  0.1422067E-002  0.1250013E+03  0.7818608E-02  0.1235067E+00
          4   -1    0    0  501    0  0.00000000000E+00  0.00000000000E+00  0.24382461528E+03  0.24382792275E+03  0.12700000000E+01 0.  1.
         -4   -1    0    0    0  501 -0.00000000000E+00 -0.00000000000E+00 -0.15992468139E+02  0.16042815750E+02  0.12700000000E+01 0.  1.
         25    2    1    2    0    0  0.00000000000E+00  0.00000000000E+00  0.22783214714E+03  0.25987073850E+03  0.12500125384E+03 0.  0.
    9000005    1    3    3    0    0  0.36704633908E+02  0.44225100629E+02  0.62897614478E+02  0.85206804793E+02  0.10000000000E+01 0.  0.
    9000005    1    3    3    0    0 -0.36704633908E+02 -0.44225100629E+02  0.16493453266E+03  0.17466393371E+03  0.10000000000E+01 0.  0.
<mgrwt>
<rscale>  0 0.12500125E+03</rscale>
<asrwt>0</asrwt>
<pdfrwt beam="1">  1        4 0.60962861E-01 0.12500125E+03</pdfrwt>
<pdfrwt beam="2">  1       -4 0.40048239E-02 0.12500125E+03</pdfrwt>
<totfact> 0.14174894E+03</totfact>
</mgrwt>
</event>
<event>
 5    1  0.1422067E-002  0.1249996E+03  0.7818608E-02  0.1235070E+00
          4   -1    0    0  501    0  0.00000000000E+00  0.00000000000E+00  0.10999780359E+04  0.10999787691E+04  0.12700000000E+01 0.  1.
         -4   -1    0    0    0  501 -0.00000000000E+00 -0.00000000000E+00 -0.34368789519E+01  0.36640192317E+01  0.12700000000E+01 0.  1.
         25    2    1    2    0    0  0.00000000000E+00  0.00000000000E+00  0.10965411570E+04  0.11036427883E+04  0.12499958099E+03 0.  0.
    9000005    1    3    3    0    0 -0.49138825987E+01 -0.30905882497E+02  0.10258548424E+04  0.10263325375E+04  0.10000000000E+01 0.  0.
    9000005    1    3    3    0    0  0.49138825987E+01  0.30905882497E+02  0.70686314579E+02  0.77310250833E+02  0.10000000000E+01 0.  0.
<mgrwt>
<rscale>  0 0.12499958E+03</rscale>
<asrwt>0</asrwt>
<pdfrwt beam="1">  1        4 0.27502294E+00 0.12499958E+03</pdfrwt>
<pdfrwt beam="2">  1       -4 0.88770410E-03 0.12499958E+03</pdfrwt>
<totfact> 0.30567316E+02</totfact>
</mgrwt>
</event>
<event>
 5    1  0.1422067E-002  0.1250026E+03  0.7818608E-02  0.1235065E+00
          4   -1    0    0  501    0  0.00000000000E+00  0.00000000000E+00  0.10143263681E+02  0.10222460472E+02  0.12700000000E+01 0.  1.
         -4   -1    0    0    0  501 -0.00000000000E+00 -0.00000000000E+00 -0.38354583525E+03  0.38354793787E+03  0.12700000000E+01 0.  1.
         25    2    1    2    0    0  0.00000000000E+00  0.00000000000E+00 -0.37340257157E+03  0.39377039834E+03  0.12500258457E+03 0.  0.
    9000005    1    3    3    0    0 -0.53028921565E+02 -0.83495358027E+01 -0.85916348093E+02  0.10131337592E+03  0.10000000000E+01 0.  0.
    9000005    1    3    3    0    0  0.53028921565E+02  0.83495358027E+01 -0.28748622348E+03  0.29245702242E+03  0.10000000000E+01 0.  0.
<mgrwt>
<rscale>  0 0.12500258E+03</rscale>
<asrwt>0</asrwt>
<pdfrwt beam="1">  1        4 0.25459796E-02 0.12500258E+03</pdfrwt>
<pdfrwt beam="2">  1       -4 0.95896573E-01 0.12500258E+03</pdfrwt>
<totfact> 0.10698028E+03</totfact>
</mgrwt>
</event>
<event>
 5    1  0.1422067E-002  0.1249954E+03  0.7818608E-02  0.1235076E+00
          4   -1    0    0  501    0  0.00000000000E+00  0.00000000000E+00  0.19817937068E+02  0.19858588309E+02  0.12700000000E+01 0. -1.
         -4   -1    0    0    0  501 -0.00000000000E+00 -0.00000000000E+00 -0.19684758963E+03  0.19685168641E+03  0.12700000000E+01 0. -1.
         25    2    1    2    0    0  0.00000000000E+00  0.00000000000E+00 -0.17702965256E+03  0.21671027472E+03  0.12499538105E+03 0.  0.
    9000005    1    3    3    0    0 -0.15810092664E+01  0.31226697435E+02  0.52895805065E+01  0.31726737698E+02  0.10000000000E+01 0.  0.
    9000005    1    3    3    0    0  0.15810092664E+01 -0.31226697435E+02 -0.18231923307E+03  0.18498353702E+03  0.10000000000E+01 0.  0.
<mgrwt>
<rscale>  0 0.12499538E+03</rscale>
<asrwt>0</asrwt>
<pdfrwt beam="1">  1        4 0.49600784E-02 0.12499538E+03</pdfrwt>
<pdfrwt beam="2">  1       -4 0.49217485E-01 0.12499538E+03</pdfrwt>
<totfact> 0.15675775E+03</totfact>
</mgrwt>
</event>
<event>
 5    1  0.1422067E-002  0.1250030E+03  0.7818608E-02  0.1235065E+00
         -4   -1    0    0    0  501 -0.00000000000E+00  0.00000000000E+00  0.18281894146E+02  0.18325953005E+02  0.12700000000E+01 0. -1.
          4   -1    0    0  501    0  0.00000000000E+00 -0.00000000000E+00 -0.21337491961E+03  0.21337869907E+03  0.12700000000E+01 0. -1.
         25    2    1    2    0    0  0.00000000000E+00  0.00000000000E+00 -0.19509302546E+03  0.23170465208E+03  0.12500302880E+03 0.  0.
    9000005    1    3    3    0    0 -0.19973183442E+02  0.28620153435E+02 -0.19363696055E+03  0.19675953275E+03  0.10000000000E+01 0.  0.
    9000005    1    3    3    0    0  0.19973183442E+02 -0.28620153435E+02 -0.14560649141E+01  0.34945119323E+02  0.10000000000E+01 0.  0.
<mgrwt>
<rscale>  0 0.12500303E+03</rscale>
<asrwt>0</asrwt>
<pdfrwt beam="2">  1        4 0.53349702E-01 0.12500303E+03</pdfrwt>
<pdfrwt beam="1">  1       -4 0.45764540E-02 0.12500303E+03</pdfrwt>
<totfact> 0.15125536E+03</totfact>
</mgrwt>
</event>
<event>
 5    1  0.1422067E-002  0.1250053E+03  0.7818608E-02  0.1235061E+00
         -4   -1    0    0    0  501 -0.00000000000E+00  0.00000000000E+00  0.39950122512E+02  0.39970303836E+02  0.12700000000E+01 0.  1.
          4   -1    0    0  501    0  0.00000000000E+00 -0.00000000000E+00 -0.97737499164E+02  0.97745749999E+02  0.12700000000E+01 0.  1.
         25    2    1    2    0    0  0.00000000000E+00  0.00000000000E+00 -0.57787376652E+02  0.13771605383E+03  0.12500532222E+03 0.  0.
    9000005    1    3    3    0    0  0.18902328162E+02 -0.30065776211E+02 -0.85545551659E+02  0.92629856514E+02  0.10000000000E+01 0.  0.
    9000005    1    3    3    0    0 -0.18902328162E+02  0.30065776211E+02  0.27758175007E+02  0.45086197321E+02  0.10000000000E+01 0.  0.
<mgrwt>
<rscale>  0 0.12500532E+03</rscale>
<asrwt>0</asrwt>
<pdfrwt beam="2">  1        4 0.24437928E-01 0.12500532E+03</pdfrwt>
<pdfrwt beam="1">  1       -4 0.99910848E-02 0.12500532E+03</pdfrwt>
<totfact> 0.19155424E+03</totfact>
</mgrwt>
</event>
<event>
 5    1  0.1422067E-002  0.1249975E+03  0.7818608E-02  0.1235073E+00
          4   -1    0    0  501    0  0.00000000000E+00  0.00000000000E+00  0.34548134708E+03  0.34548368136E+03  0.12700000000E+01 0.  1.
         -4   -1    0    0    0  501 -0.00000000000E+00 -0.00000000000E+00 -0.11268189099E+02  0.11339531982E+02  0.12700000000E+01 0.  1.
         25    2    1    2    0    0  0.00000000000E+00  0.00000000000E+00  0.33421315798E+03  0.35682321334E+03  0.12499748240E+03 0.  0.
    9000005    1    3    3    0    0 -0.44439263897E+01  0.39616911894E+02  0.29731951479E+02  0.49741704117E+02  0.10000000000E+01 0.  0.
    9000005    1    3    3    0    0  0.44439263897E+01 -0.39616911894E+02  0.30448120651E+03  0.30708150922E+03  0.10000000000E+01 0.  0.
<mgrwt>
<rscale>  0 0.12499748E+03</rscale>
<asrwt>0</asrwt>
<pdfrwt beam="1">  1        4 0.86379547E-01 0.12499748E+03</pdfrwt>
<pdfrwt beam="2">  1       -4 0.28262569E-02 0.12499748E+03</pdfrwt>
<totfact> 0.11516918E+03</totfact>
</mgrwt>
</event>
<event>
 5    1  0.1422067E-002  0.1249919E+03  0.7818608E-02  0.1235082E+00
         -4   -1    0    0    0  501 -0.00000000000E+00  0.00000000000E+00  0.61002703917E+02  0.61015922391E+02  0.12700000000E+01 0.  1.
          4   -1    0    0  501    0  0.00000000000E+00 -0.00000000000E+00 -0.63999257511E+02  0.64011857198E+02  0.12700000000E+01 0.  1.
         25    2    1    2    0    0  0.00000000000E+00  0.00000000000E+00 -0.29965535938E+01  0.12502777959E+03  0.12499186508E+03 0.  0.
    9000005    1    3    3    0    0 -0.48037087345E+02  0.12105947560E+02  0.36599749495E+02  0.61600790498E+02  0.10000000000E+01 0.  0.
    9000005    1    3    3    0    0  0.48037087345E+02 -0.12105947560E+02 -0.39596303089E+02  0.63426989091E+02  0.10000000000E+01 0.  0.
<mgrwt>
<rscale>  0 0.12499187E+03</rscale>
<asrwt>0</asrwt>
<pdfrwt beam="2">  1        4 0.16003042E-01 0.12499187E+03</pdfrwt>
<pdfrwt beam="1">  1       -4 0.15253903E-01 0.12499187E+03</pdfrwt>
<totfact> 0.19837325E+03</totfact>
</mgrwt>
</event>
<event>
 5    1  0.1422067E-002  0.1250003E+03  0.7818608E-02  0.1235069E+00
         -4   -1    0    0    0  501 -0.00000000000E+00  0.00000000000E+00  0.28795800335E+02  0.28823792550E+02  0.12700000000E+01 0.  1.
          4   -1    0    0  501    0  0.00000000000E+00 -0.00000000000E+00 -0.13555718670E+03  0.13556313572E+03  0.12700000000E+01 0.  1.
         25    2    1    2    0    0  0.00000000000E+00  0.00000000000E+00 -0.10676138637E+03  0.16438692827E+03  0.12500027427E+03 0.  0.
    9000005    1    3    3    0    0  0.57024267590E+02  0.35126888912E+01 -0.20081026607E+02  0.60566935757E+02  0.10000000000E+01 0.  0.
    9000005    1    3    3    0    0 -0.57024267590E+02 -0.35126888912E+01 -0.86680359762E+02  0.10381999252E+03  0.10000000000E+01 0.  0.
<mgrwt>
<rscale>  0 0.12500027E+03</rscale>
<asrwt>0</asrwt>
<pdfrwt beam="2">  1        4 0.33893538E-01 0.12500027E+03</pdfrwt>
<pdfrwt beam="1">  1       -4 0.72031931E-02 0.12500027E+03</pdfrwt>
<totfact> 0.17853119E+03</totfact>
</mgrwt>
</event>
<event>
 5    1  0.1422067E-002  0.1250043E+03  0.7818608E-02  0.1235063E+00
          4   -1    0    0  501    0  0.00000000000E+00  0.00000000000E+00  0.24585633594E+02  0.24618413418E+02  0.12700000000E+01 0. -1.
         -4   -1    0    0    0  501 -0.00000000000E+00 -0.00000000000E+00 -0.15875329186E+03  0.15875837167E+03  0.12700000000E+01 0. -1.
         25    2    1    2    0    0  0.00000000000E+00  0.00000000000E+00 -0.13416765827E+03  0.18337678509E+03  0.12500433907E+03 0.  0.
    9000005    1    3    3    0    0  0.59481350668E+02  0.70759415234E+01 -0.40947944112E+02  0.72566067503E+02  0.10000000000E+01 0.  0.
    9000005    1    3    3    0    0 -0.59481350668E+02 -0.70759415234E+01 -0.93219714154E+02  0.11081071759E+03  0.10000000000E+01 0.  0.
<mgrwt>
<rscale>  0 0.12500434E+03</rscale>
<asrwt>0</asrwt>
<pdfrwt beam="1">  1        4 0.61511413E-02 0.12500434E+03</pdfrwt>
<pdfrwt beam="2">  1       -4 0.39693052E-01 0.12500434E+03</pdfrwt>
<totfact> 0.17008311E+03</totfact>
</mgrwt>
</event>
<event>
 5    1  0.1422067E-002  0.1250092E+03  0.7818608E-02  0.1235055E+00
         -4   -1    0    0    0  501 -0.00000000000E+00  0.00000000000E+00  0.54687221445E+02  0.54701966046E+02  0.12700000000E+01 0. -1.
          4   -1    0    0  501    0  0.00000000000E+00 -0.00000000000E+00 -0.71409465013E+02  0.71420757441E+02  0.12700000000E+01 0. -1.
         25    2    1    2    0    0  0.00000000000E+00  0.00000000000E+00 -0.16722243568E+02  0.12612272349E+03  0.12500923146E+03 0.  0.
    9000005    1    3    3    0    0  0.26900134903E+02 -0.88799549519E+01  0.47842857282E+02  0.55609440302E+02  0.10000000000E+01 0.  0.
    9000005    1    3    3    0    0 -0.26900134903E+02  0.88799549519E+01 -0.64565100850E+02  0.70513283185E+02  0.10000000000E+01 0.  0.
<mgrwt>
<rscale>  0 0.12500923E+03</rscale>
<asrwt>0</asrwt>
<pdfrwt beam="2">  1        4 0.17855621E-01 0.12500923E+03</pdfrwt>
<pdfrwt beam="1">  1       -4 0.13675060E-01 0.12500923E+03</pdfrwt>
<totfact> 0.19770020E+03</totfact>
</mgrwt>
</event>
<event>
 5    1  0.1422067E-002  0.1249993E+03  0.7818608E-02  0.1235070E+00
          4   -1    0    0  501    0  0.00000000000E+00  0.00000000000E+00  0.28730822759E+03  0.28731103449E+03  0.12700000000E+01 0.  1.
         -4   -1    0    0    0  501 -0.00000000000E+00 -0.00000000000E+00 -0.13563334694E+02  0.13622663029E+02  0.12700000000E+01 0.  1.
         25    2    1    2    0    0  0.00000000000E+00  0.00000000000E+00  0.27374489289E+03  0.30093369752E+03  0.12499929567E+03 0.  0.
    9000005    1    3    3    0    0 -0.30727172416E+02 -0.25782470139E+02  0.25223865415E+03  0.25540993234E+03  0.10000000000E+01 0.  0.
    9000005    1    3    3    0    0  0.30727172416E+02  0.25782470139E+02  0.21506238747E+02  0.45523765181E+02  0.10000000000E+01 0.  0.
<mgrwt>
<rscale>  0 0.12499930E+03</rscale>
<asrwt>0</asrwt>
<pdfrwt beam="1">  1        4 0.71834827E-01 0.12499930E+03</pdfrwt>
<pdfrwt beam="2">  1       -4 0.33986004E-02 0.12499930E+03</pdfrwt>
<totfact> 0.12945136E+03</totfact>
</mgrwt>
</event>
<event>
 4    1  0.1422067E-002  0.1251242E+03  0.7818608E-02  0.1234875E+00
         -4   -1    0    0    0  501 -0.00000000000E+00  0.00000000000E+00  0.29858042582E+03  0.29858312675E+03  0.12700000000E+01 0. -1.
          4   -1    0    0  501    0  0.00000000000E+00 -0.00000000000E+00 -0.13075216707E+02  0.13136749672E+02  0.12700000000E+01 0. -1.
    9000005    1    1    2    0    0 -0.52711311022E+01  0.40711633678E+02  0.26033996674E+03  0.26355857076E+03  0.10000000000E+01 0.  0.
    9000005    1    1    2    0    0  0.52711311022E+01 -0.40711633678E+02  0.25165242376E+02  0.48161305668E+02  0.10000000000E+01 0.  0.
<mgrwt>
<rscale>  0 0.12512417E+03</rscale>
<asrwt>0</asrwt>
<pdfrwt beam="2">  1        4 0.32768334E-02 0.12512417E+03</pdfrwt>
<pdfrwt beam="1">  1       -4 0.74653136E-01 0.12512417E+03</pdfrwt>
<totfact> 0.12612941E+03</totfact>
</mgrwt>
</event>
<event>
 5    1  0.1422067E-002  0.1249952E+03  0.7818608E-02  0.1235077E+00
          4   -1    0    0  501    0  0.00000000000E+00  0.00000000000E+00  0.15016177947E+03  0.15016714991E+03  0.12700000000E+01 0.  1.
         -4   -1    0    0    0  501 -0.00000000000E+00 -0.00000000000E+00 -0.25990263530E+02  0.26021273958E+02  0.12700000000E+01 0.  1.
         25    2    1    2    0    0  0.00000000000E+00  0.00000000000E+00  0.12417151594E+03  0.17618842387E+03  0.12499518125E+03 0.  0.
    9000005    1    3    3    0    0 -0.22932273621E+02  0.36284795121E+02 -0.19287287786E+01  0.42979012612E+02  0.10000000000E+01 0.  0.
    9000005    1    3    3    0    0  0.22932273621E+02 -0.36284795121E+02  0.12610024472E+03  0.13320941126E+03  0.10000000000E+01 0.  0.
<mgrwt>
<rscale>  0 0.12499518E+03</rscale>
<asrwt>0</asrwt>
<pdfrwt beam="1">  1        4 0.37544992E-01 0.12499518E+03</pdfrwt>
<pdfrwt beam="2">  1       -4 0.65021136E-02 0.12499518E+03</pdfrwt>
<totfact> 0.17323418E+03</totfact>
</mgrwt>
</event>
<event>
 5    1  0.1422067E-002  0.1250004E+03  0.7818608E-02  0.1235069E+00
         -4   -1    0    0    0  501 -0.00000000000E+00  0.00000000000E+00  0.77238920520E+01  0.78276055362E+01  0.12700000000E+01 0.  1.
          4   -1    0    0  501    0  0.00000000000E+00 -0.00000000000E+00 -0.50226184776E+03  0.50226345339E+03  0.12700000000E+01 0.  1.
         25    2    1    2    0    0  0.00000000000E+00  0.00000000000E+00 -0.49453795571E+03  0.51009105893E+03  0.12500039506E+03 0.  0.
    9000005    1    3    3    0    0 -0.67929142393E+00 -0.48254335637E+02 -0.85252114767E+02  0.97968696107E+02  0.10000000000E+01 0.  0.
    9000005    1    3    3    0    0  0.67929142393E+00  0.48254335637E+02 -0.40928584094E+03  0.41212236282E+03  0.10000000000E+01 0.  0.
<mgrwt>
<rscale>  0 0.12500040E+03</rscale>
<asrwt>0</asrwt>
<pdfrwt beam="2">  1        4 0.12557852E+00 0.12500040E+03</pdfrwt>
<pdfrwt beam="1">  1       -4 0.19441396E-02 0.12500040E+03</pdfrwt>
<totfact> 0.86023186E+02</totfact>
</mgrwt>
</event>
<event>
 5    1  0.1422067E-002  0.1250009E+03  0.7818608E-02  0.1235068E+00
          4   -1    0    0  501    0  0.00000000000E+00  0.00000000000E+00  0.17197981529E+03  0.17198450444E+03  0.12700000000E+01 0.  1.
         -4   -1    0    0    0  501 -0.00000000000E+00 -0.00000000000E+00 -0.22691007626E+02  0.22726520347E+02  0.12700000000E+01 0.  1.
         25    2    1    2    0    0  0.00000000000E+00  0.00000000000E+00  0.14928880766E+03  0.19471102479E+03  0.12500094031E+03 0.  0.
    9000005    1    3    3    0    0 -0.62581984793E+01 -0.58965443579E+02  0.10537527982E+03  0.12091748501E+03  0.10000000000E+01 0.  0.
    9000005    1    3    3    0    0  0.62581984793E+01  0.58965443579E+02  0.43913527847E+02  0.73793539776E+02  0.10000000000E+01 0.  0.
<mgrwt>
<rscale>  0 0.12500094E+03</rscale>
<asrwt>0</asrwt>
<pdfrwt beam="1">  1        4 0.42999978E-01 0.12500094E+03</pdfrwt>
<pdfrwt beam="2">  1       -4 0.56777772E-02 0.12500094E+03</pdfrwt>
<totfact> 0.16535674E+03</totfact>
</mgrwt>
</event>
<event>
 5    1  0.1422067E-002  0.1250035E+03  0.7818608E-02  0.1235064E+00
         -4   -1    0    0    0  501 -0.00000000000E+00  0.00000000000E+00  0.81945372720E+03  0.81945471133E+03  0.12700000000E+01 0.  1.
          4   -1    0    0  501    0  0.00000000000E+00 -0.00000000000E+00 -0.46815763701E+01  0.48507790415E+01  0.12700000000E+01 0.  1.
         25    2    1    2    0    0  0.00000000000E+00  0.00000000000E+00  0.81477215083E+03  0.82430549037E+03  0.12500353471E+03 0.  0.
    9000005    1    3    3    0    0  0.80540803470E+01 -0.19551487129E+02  0.79517899229E+03  0.79546072099E+03  0.10000000000E+01 0.  0.
    9000005    1    3    3    0    0 -0.80540803470E+01  0.19551487129E+02  0.19593158543E+02  0.28844769385E+02  0.10000000000E+01 0.  0.
<mgrwt>
<rscale>  0 0.12500353E+03</rscale>
<asrwt>0</asrwt>
<pdfrwt beam="2">  1        4 0.11916680E-02 0.12500353E+03</pdfrwt>
<pdfrwt beam="1">  1       -4 0.20488460E+00 0.12500353E+03</pdfrwt>
<totfact> 0.50368906E+02</totfact>
</mgrwt>
</event>
<event>
 5    1  0.1422067E-002  0.1250015E+03  0.7818608E-02  0.1235067E+00
          4   -1    0    0  501    0  0.00000000000E+00  0.00000000000E+00  0.39383662182E+02  0.39404133627E+02  0.12700000000E+01 0.  1.
         -4   -1    0    0    0  501 -0.00000000000E+00 -0.00000000000E+00 -0.99136535023E+02  0.99144669430E+02  0.12700000000E+01 0.  1.
         25    2    1    2    0    0  0.00000000000E+00  0.00000000000E+00 -0.59752872841E+02  0.13854880306E+03  0.12500146005E+03 0.  0.
    9000005    1    3    3    0    0  0.94474792035E+01  0.61193706297E+02 -0.39243157379E+02  0.73314050187E+02  0.10000000000E+01 0.  0.
    9000005    1    3    3    0    0 -0.94474792035E+01 -0.61193706297E+02 -0.20509715462E+02  0.65234752870E+02  0.10000000000E+01 0.  0.
<mgrwt>
<rscale>  0 0.12500146E+03</rscale>
<asrwt>0</asrwt>
<pdfrwt beam="1">  1        4 0.98494915E-02 0.12500146E+03</pdfrwt>
<pdfrwt beam="2">  1       -4 0.24787709E-01 0.12500146E+03</pdfrwt>
<totfact> 0.19114180E+03</totfact>
</mgrwt>
</event>
<event>
 5    1  0.1422067E-002  0.1250048E+03  0.7818608E-02  0.1235062E+00
          4   -1    0    0  501    0  0.00000000000E+00  0.00000000000E+00  0.14537012864E+02  0.14592383047E+02  0.12700000000E+01 0.  1.
         -4   -1    0    0    0  501 -0.00000000000E+00 -0.00000000000E+00 -0.26816362803E+03  0.26816663532E+03  0.12700000000E+01 0.  1.
         25    2    1    2    0    0  0.00000000000E+00  0.00000000000E+00 -0.25362661516E+03  0.28275901836E+03  0.12500481009E+03 0.  0.
    9000005    1    3    3    0    0 -0.57298616890E+01  0.47579710942E+02 -0.36082876442E+02  0.59996951428E+02  0.10000000000E+01 0.  0.
    9000005    1    3    3    0    0  0.57298616890E+01 -0.47579710942E+02 -0.21754373872E+03  0.22276206694E+03  0.10000000000E+01 0.  0.
<mgrwt>
<rscale>  0 0.12500481E+03</rscale>
<asrwt>0</asrwt>
<pdfrwt beam="1">  1        4 0.36415513E-02 0.12500481E+03</pdfrwt>
<pdfrwt beam="2">  1       -4 0.67048188E-01 0.12500481E+03</pdfrwt>
<totfact> 0.13466921E+03</totfact>
</mgrwt>
</event>
<event>
 5    1  0.1422067E-002  0.1250000E+03  0.7818608E-02  0.1235069E+00
         -4   -1    0    0    0  501 -0.00000000000E+00  0.00000000000E+00  0.31524339070E+03  0.31524594888E+03  0.12700000000E+01 0. -1.
          4   -1    0    0  501    0  0.00000000000E+00 -0.00000000000E+00 -0.12356059429E+02  0.12421155526E+02  0.12700000000E+01 0. -1.
         25    2    1    2    0    0  0.00000000000E+00  0.00000000000E+00  0.30288733127E+03  0.32766710440E+03  0.12499998344E+03 0.  0.
    9000005    1    3    3    0    0  0.59358355537E+02 -0.19489250568E+02  0.15515422865E+03  0.16726350447E+03  0.10000000000E+01 0.  0.
    9000005    1    3    3    0    0 -0.59358355537E+02  0.19489250568E+02  0.14773310262E+03  0.16040359993E+03  0.10000000000E+01 0.  0.
<mgrwt>
<rscale>  0 0.12499998E+03</rscale>
<asrwt>0</asrwt>
<pdfrwt beam="2">  1        4 0.30974719E-02 0.12499998E+03</pdfrwt>
<pdfrwt beam="1">  1       -4 0.78819297E-01 0.12499998E+03</pdfrwt>
<totfact> 0.12229596E+03</totfact>
</mgrwt>
</event>
<event>
 5    1  0.1422067E-002  0.1249805E+03  0.7818608E-02  0.1235100E+00
         -4   -1    0    0    0  501 -0.00000000000E+00  0.00000000000E+00  0.62253134587E+03  0.62253264130E+03  0.12700000000E+01 0.  1.
          4   -1    0    0  501    0  0.00000000000E+00 -0.00000000000E+00 -0.62072258133E+01  0.63358150460E+01  0.12700000000E+01 0.  1.
         25    2    1    2    0    0  0.00000000000E+00  0.00000000000E+00  0.61632412005E+03  0.62886845635E+03  0.12498045619E+03 0.  0.
    9000005    1    3    3    0    0 -0.71683459947E+00  0.51123073190E+02  0.12744319310E+03  0.13732024589E+03  0.10000000000E+01 0.  0.
    9000005    1    3    3    0    0  0.71683459947E+00 -0.51123073190E+02  0.48888092695E+03  0.49154821045E+03  0.10000000000E+01 0.  0.
<mgrwt>
<rscale>  0 0.12498046E+03</rscale>
<asrwt>0</asrwt>
<pdfrwt beam="2">  1        4 0.15680417E-02 0.12498046E+03</pdfrwt>
<pdfrwt beam="1">  1       -4 0.15564911E+00 0.12498046E+03</pdfrwt>
<totfact> 0.70012679E+02</totfact>
</mgrwt>
</event>
<event>
 5    1  0.1422067E-002  0.1250010E+03  0.7818608E-02  0.1235068E+00
         -4   -1    0    0    0  501 -0.00000000000E+00  0.00000000000E+00  0.47073704323E+03  0.47073875639E+03  0.12700000000E+01 0.  1.
          4   -1    0    0  501    0  0.00000000000E+00 -0.00000000000E+00 -0.82479589243E+01  0.83451618569E+01  0.12700000000E+01 0.  1.
         25    2    1    2    0    0  0.00000000000E+00  0.00000000000E+00  0.46248908431E+03  0.47908391825E+03  0.12500099049E+03 0.  0.
    9000005    1    3    3    0    0  0.45354588161E+02  0.25071759151E+02  0.97393698414E+02  0.11032753176E+03  0.10000000000E+01 0.  0.
    9000005    1    3    3    0    0 -0.45354588161E+02 -0.25071759151E+02  0.36509538589E+03  0.36875638649E+03  0.10000000000E+01 0.  0.
<mgrwt>
<rscale>  0 0.12500099E+03</rscale>
<asrwt>0</asrwt>
<pdfrwt beam="2">  1        4 0.20743544E-02 0.12500099E+03</pdfrwt>
<pdfrwt beam="1">  1       -4 0.11769661E+00 0.12500099E+03</pdfrwt>
<totfact> 0.91016945E+02</totfact>
</mgrwt>
</event>
<event>
 5    1  0.1422067E-002  0.1250023E+03  0.7818608E-02  0.1235066E+00
          4   -1    0    0  501    0  0.00000000000E+00  0.00000000000E+00  0.15142445637E+02  0.15195609888E+02  0.12700000000E+01 0. -1.
         -4   -1    0    0    0  501 -0.00000000000E+00 -0.00000000000E+00 -0.25746948832E+03  0.25747262052E+03  0.12700000000E+01 0. -1.
         25    2    1    2    0    0  0.00000000000E+00  0.00000000000E+00 -0.24232704268E+03  0.27266823040E+03  0.12500227301E+03 0.  0.
    9000005    1    3    3    0    0 -0.52068619033E+02 -0.31087821260E+02 -0.88241089124E+02  0.10707513030E+03  0.10000000000E+01 0.  0.
    9000005    1    3    3    0    0  0.52068619033E+02  0.31087821260E+02 -0.15408595356E+03  0.16559310011E+03  0.10000000000E+01 0.  0.
<mgrwt>
<rscale>  0 0.12500227E+03</rscale>
<asrwt>0</asrwt>
<pdfrwt beam="1">  1        4 0.37926493E-02 0.12500227E+03</pdfrwt>
<pdfrwt beam="2">  1       -4 0.64374395E-01 0.12500227E+03</pdfrwt>
<totfact> 0.13772486E+03</totfact>
</mgrwt>
</event>
<event>
 5    1  0.1422067E-002  0.1249992E+03  0.7818608E-02  0.1235071E+00
         -4   -1    0    0    0  501 -0.00000000000E+00  0.00000000000E+00  0.10422927103E+03  0.10423700801E+03  0.12700000000E+01 0. -1.
          4   -1    0    0  501    0  0.00000000000E+00 -0.00000000000E+00 -0.37457116407E+02  0.37478640177E+02  0.12700000000E+01 0. -1.
         25    2    1    2    0    0  0.00000000000E+00  0.00000000000E+00  0.66772154620E+02  0.14171564819E+03  0.12499921723E+03 0.  0.
    9000005    1    3    3    0    0  0.57296441525E+02  0.22411416428E+02  0.45807938595E+02  0.76710631832E+02  0.10000000000E+01 0.  0.
    9000005    1    3    3    0    0 -0.57296441525E+02 -0.22411416428E+02  0.20964216026E+02  0.65005016355E+02  0.10000000000E+01 0.  0.
<mgrwt>
<rscale>  0 0.12499922E+03</rscale>
<asrwt>0</asrwt>
<pdfrwt beam="2">  1        4 0.93679368E-02 0.12499922E+03</pdfrwt>
<pdfrwt beam="1">  1       -4 0.26060975E-01 0.12499922E+03</pdfrwt>
<totfact> 0.18953260E+03</totfact>
</mgrwt>
</event>
<event>
 5    1  0.1422067E-002  0.1249965E+03  0.7818608E-02  0.1235075E+00
          4   -1    0    0  501    0  0.00000000000E+00  0.00000000000E+00  0.28637189110E+03  0.28637470718E+03  0.12700000000E+01 0.  1.
         -4   -1    0    0    0  501 -0.00000000000E+00 -0.00000000000E+00 -0.13607261398E+02  0.13666399041E+02  0.12700000000E+01 0.  1.
         25    2    1    2    0    0  0.00000000000E+00  0.00000000000E+00  0.27276462970E+03  0.30004110622E+03  0.12499648877E+03 0.  0.
    9000005    1    3    3    0    0  0.12873633257E+01  0.23792216282E+01 -0.13478416673E+02  0.13783530604E+02  0.10000000000E+01 0.  0.
    9000005    1    3    3    0    0 -0.12873633257E+01 -0.23792216282E+01  0.28624304638E+03  0.28625757562E+03  0.10000000000E+01 0.  0.
<mgrwt>
<rscale>  0 0.12499649E+03</rscale>
<asrwt>0</asrwt>
<pdfrwt beam="1">  1        4 0.71600718E-01 0.12499649E+03</pdfrwt>
<pdfrwt beam="2">  1       -4 0.34095595E-02 0.12499649E+03</pdfrwt>
<totfact> 0.12970947E+03</totfact>
</mgrwt>
</event>
<event>
 5    1  0.1422067E-002  0.1249971E+03  0.7818608E-02  0.1235074E+00
         -4   -1    0    0    0  501 -0.00000000000E+00  0.00000000000E+00  0.44323618790E+03  0.44323800736E+03  0.12700000000E+01 0. -1.
          4   -1    0    0  501    0  0.00000000000E+00 -0.00000000000E+00 -0.87650065903E+01  0.88565365989E+01  0.12700000000E+01 0. -1.
         25    2    1    2    0    0  0.00000000000E+00  0.00000000000E+00  0.43447118131E+03  0.45209454396E+03  0.12499707710E+03 0.  0.
    9000005    1    3    3    0    0  0.73910481339E+01  0.54470322117E+02  0.32473694614E+03  0.32935805406E+03  0.10000000000E+01 0.  0.
    9000005    1    3    3    0    0 -0.73910481339E+01 -0.54470322117E+02  0.10973423517E+03  0.12273648990E+03  0.10000000000E+01 0.  0.
<mgrwt>
<rscale>  0 0.12499708E+03</rscale>
<asrwt>0</asrwt>
<pdfrwt beam="2">  1        4 0.22029203E-02 0.12499708E+03</pdfrwt>
<pdfrwt beam="1">  1       -4 0.11082071E+00 0.12499708E+03</pdfrwt>
<totfact> 0.95648468E+02</totfact>
</mgrwt>
</event>
<event>
 5    1  0.1422067E-002  0.1249976E+03  0.7818608E-02  0.1235073E+00
          4   -1    0    0  501    0  0.00000000000E+00  0.00000000000E+00  0.23572725635E+03  0.23573067744E+03  0.12700000000E+01 0.  1.
         -4   -1    0    0    0  501 -0.00000000000E+00 -0.00000000000E+00 -0.16542528070E+02  0.16591206554E+02  0.12700000000E+01 0.  1.
         25    2    1    2    0    0  0.00000000000E+00  0.00000000000E+00  0.21918472828E+03  0.25232188400E+03  0.12499755210E+03 0.  0.
    9000005    1    3    3    0    0 -0.32401359955E+02  0.43851114118E+02  0.47955869651E+02  0.72619100588E+02  0.10000000000E+01 0.  0.
    9000005    1    3    3    0    0  0.32401359955E+02 -0.43851114118E+02  0.17122885863E+03  0.17970278341E+03  0.10000000000E+01 0.  0.
<mgrwt>
<rscale>  0 0.12499755E+03</rscale>
<asrwt>0</asrwt>
<pdfrwt beam="1">  1        4 0.58938326E-01 0.12499755E+03</pdfrwt>
<pdfrwt beam="2">  1       -4 0.41421445E-02 0.12499755E+03</pdfrwt>
<totfact> 0.14421877E+03</totfact>
</mgrwt>
</event>
<event>
 5    1  0.1422067E-002  0.1250019E+03  0.7818608E-02  0.1235066E+00
          4   -1    0    0  501    0  0.00000000000E+00  0.00000000000E+00  0.74989411607E+01  0.76057227488E+01  0.12700000000E+01 0. -1.
         -4   -1    0    0    0  501 -0.00000000000E+00 -0.00000000000E+00 -0.51713276961E+03  0.51713432908E+03  0.12700000000E+01 0. -1.
         25    2    1    2    0    0  0.00000000000E+00  0.00000000000E+00 -0.50963382845E+03  0.52474005182E+03  0.12500193152E+03 0.  0.
    9000005    1    3    3    0    0  0.39319359795E+02 -0.44556688786E+02 -0.17362772351E+03  0.18351811066E+03  0.10000000000E+01 0.  0.
    9000005    1    3    3    0    0 -0.39319359795E+02  0.44556688786E+02 -0.33600610495E+03  0.34122194116E+03  0.10000000000E+01 0.  0.
<mgrwt>
<rscale>  0 0.12500193E+03</rscale>
<asrwt>0</asrwt>
<pdfrwt beam="1">  1        4 0.18882797E-02 0.12500193E+03</pdfrwt>
<pdfrwt beam="2">  1       -4 0.12929662E+00 0.12500193E+03</pdfrwt>
<totfact> 0.83798080E+02</totfact>
</mgrwt>
</event>
<event>
 5    1  0.1422067E-002  0.1249985E+03  0.7818608E-02  0.1235072E+00
          4   -1    0    0  501    0  0.00000000000E+00  0.00000000000E+00  0.47903665915E+03  0.47903834263E+03  0.12700000000E+01 0.  1.
         -4   -1    0    0    0  501 -0.00000000000E+00 -0.00000000000E+00 -0.81030362136E+01  0.82019568323E+01  0.12700000000E+01 0.  1.
         25    2    1    2    0    0  0.00000000000E+00  0.00000000000E+00  0.47093362293E+03  0.48724029946E+03  0.12499852882E+03 0.  0.
    9000005    1    3    3    0    0  0.42887184354E+02 -0.44921624073E+02  0.20849040371E+03  0.21754657278E+03  0.10000000000E+01 0.  0.
    9000005    1    3    3    0    0 -0.42887184354E+02  0.44921624073E+02  0.26244321923E+03  0.26969372668E+03  0.10000000000E+01 0.  0.
<mgrwt>
<rscale>  0 0.12499853E+03</rscale>
<asrwt>0</asrwt>
<pdfrwt beam="1">  1        4 0.11977174E+00 0.12499853E+03</pdfrwt>
<pdfrwt beam="2">  1       -4 0.20383345E-02 0.12499853E+03</pdfrwt>
<totfact> 0.89674436E+02</totfact>
</mgrwt>
</event>
<event>
 5    1  0.1422067E-002  0.1249986E+03  0.7818608E-02  0.1235071E+00
          4   -1    0    0  501    0  0.00000000000E+00  0.00000000000E+00  0.13124804006E+03  0.13125418439E+03  0.12700000000E+01 0. -1.
         -4   -1    0    0    0  501 -0.00000000000E+00 -0.00000000000E+00 -0.29741294624E+02  0.29768397772E+02  0.12700000000E+01 0. -1.
         25    2    1    2    0    0  0.00000000000E+00  0.00000000000E+00  0.10150674543E+03  0.16102258216E+03  0.12499861038E+03 0.  0.
    9000005    1    3    3    0    0 -0.60749840293E+02  0.57543601919E+00  0.69610757667E+02  0.92398765172E+02  0.10000000000E+01 0.  0.
    9000005    1    3    3    0    0  0.60749840293E+02 -0.57543601919E+00  0.31895987767E+02  0.68623816987E+02  0.10000000000E+01 0.  0.
<mgrwt>
<rscale>  0 0.12499861E+03</rscale>
<asrwt>0</asrwt>
<pdfrwt beam="1">  1        4 0.32816166E-01 0.12499861E+03</pdfrwt>
<pdfrwt beam="2">  1       -4 0.74394797E-02 0.12499861E+03</pdfrwt>
<totfact> 0.18010318E+03</totfact>
</mgrwt>
</event>
<event>
 5    1  0.1422067E-002  0.1250002E+03  0.7818608E-02  0.1235069E+00
         -4   -1    0    0    0  501 -0.00000000000E+00  0.00000000000E+00  0.36414837880E+02  0.36436977343E+02  0.12700000000E+01 0. -1.
          4   -1    0    0  501    0  0.00000000000E+00 -0.00000000000E+00 -0.10721261594E+03  0.10722013764E+03  0.12700000000E+01 0. -1.
         25    2    1    2    0    0  0.00000000000E+00  0.00000000000E+00 -0.70797778057E+02  0.14365711499E+03  0.12500016523E+03 0.  0.
    9000005    1    3    3    0    0 -0.42730842872E+02 -0.45575297424E+02 -0.37114192362E+02  0.72673901385E+02  0.10000000000E+01 0.  0.
    9000005    1    3    3    0    0  0.42730842872E+02  0.45575297424E+02 -0.33683585695E+02  0.70983213601E+02  0.10000000000E+01 0.  0.
<mgrwt>
<rscale>  0 0.12500017E+03</rscale>
<asrwt>0</asrwt>
<pdfrwt beam="2">  1        4 0.26806861E-01 0.12500017E+03</pdfrwt>
<pdfrwt beam="1">  1       -4 0.91074174E-02 0.12500017E+03</pdfrwt>
<totfact> 0.18854714E+03</totfact>
</mgrwt>
</event>
<event>
 5    1  0.1422067E-002  0.1250013E+03  0.7818608E-02  0.1235067E+00
          4   -1    0    0  501    0  0.00000000000E+00  0.00000000000E+00  0.16118439075E+03  0.16118939395E+03  0.12700000000E+01 0. -1.
         -4   -1    0    0    0  501 -0.00000000000E+00 -0.00000000000E+00 -0.24213142085E+02  0.24246425502E+02  0.12700000000E+01 0. -1.
         25    2    1    2    0    0  0.00000000000E+00  0.00000000000E+00  0.13697124866E+03  0.18543581945E+03  0.12500128069E+03 0.  0.
    9000005    1    3    3    0    0 -0.11649546210E+02 -0.56502055206E+02  0.32847224130E+02  0.66393782107E+02  0.10000000000E+01 0.  0.
    9000005    1    3    3    0    0  0.11649546210E+02  0.56502055206E+02  0.10412402454E+03  0.11904203734E+03  0.10000000000E+01 0.  0.
<mgrwt>
<rscale>  0 0.12500128E+03</rscale>
<asrwt>0</asrwt>
<pdfrwt beam="1">  1        4 0.40300883E-01 0.12500128E+03</pdfrwt>
<pdfrwt beam="2">  1       -4 0.60580714E-02 0.12500128E+03</pdfrwt>
<totfact> 0.16921816E+03</totfact>
</mgrwt>
</event>
<event>
 5    1  0.1422067E-002  0.1250009E+03  0.7818608E-02  0.1235068E+00
          4   -1    0    0  501    0  0.00000000000E+00  0.00000000000E+00  0.28475789199E+02  0.28504095679E+02  0.12700000000E+01 0.  1.
         -4   -1    0    0    0  501 -0.00000000000E+00 -0.00000000000E+00 -0.13708047928E+03  0.13708636219E+03  0.12700000000E+01 0.  1.
         25    2    1    2    0    0  0.00000000000E+00  0.00000000000E+00 -0.10860469008E+03  0.16559045787E+03  0.12500088412E+03 0.  0.
    9000005    1    3    3    0    0  0.16336098776E+02  0.45664939650E+02 -0.20953157279E+01  0.48554558844E+02  0.10000000000E+01 0.  0.
    9000005    1    3    3    0    0 -0.16336098776E+02 -0.45664939650E+02 -0.10650937435E+03  0.11703589903E+03  0.10000000000E+01 0.  0.
<mgrwt>
<rscale>  0 0.12500088E+03</rscale>
<asrwt>0</asrwt>
<pdfrwt beam="1">  1        4 0.71232214E-02 0.12500088E+03</pdfrwt>
<pdfrwt beam="2">  1       -4 0.34274392E-01 0.12500088E+03</pdfrwt>
<totfact> 0.17797424E+03</totfact>
</mgrwt>
</event>
<event>
 5    1  0.1422067E-002  0.1250023E+03  0.7818608E-02  0.1235066E+00
          4   -1    0    0  501    0  0.00000000000E+00  0.00000000000E+00  0.21951900144E+04  0.21951903817E+04  0.12700000000E+01 0. -1.
         -4   -1    0    0    0  501 -0.00000000000E+00 -0.00000000000E+00 -0.15525188365E+01  0.20057952881E+01  0.12700000000E+01 0. -1.
         25    2    1    2    0    0  0.00000000000E+00  0.00000000000E+00  0.21936374955E+04  0.21971961770E+04  0.12500231415E+03 0.  0.
    9000005    1    3    3    0    0  0.25137492637E+02  0.51445877113E+02  0.15368901871E+04  0.15379567676E+04  0.10000000000E+01 0.  0.
    9000005    1    3    3    0    0 -0.25137492637E+02 -0.51445877113E+02  0.65674730846E+03  0.65923940945E+03  0.10000000000E+01 0.  0.
<mgrwt>
<rscale>  0 0.12500231E+03</rscale>
<asrwt>0</asrwt>
<pdfrwt beam="1">  1        4 0.54885515E+00 0.12500231E+03</pdfrwt>
<pdfrwt beam="2">  1       -4 0.44483443E-03 0.12500231E+03</pdfrwt>
<totfact> 0.11822418E+01</totfact>
</mgrwt>
</event>
<event>
 5    1  0.1422067E-002  0.1249964E+03  0.7818608E-02  0.1235075E+00
         -4   -1    0    0    0  501 -0.00000000000E+00  0.00000000000E+00  0.71940625453E+01  0.73053019038E+01  0.12700000000E+01 0. -1.
          4   -1    0    0  501    0  0.00000000000E+00 -0.00000000000E+00 -0.53867339834E+03  0.53867489544E+03  0.12700000000E+01 0. -1.
         25    2    1    2    0    0  0.00000000000E+00  0.00000000000E+00 -0.53147933579E+03  0.54598019734E+03  0.12499636601E+03 0.  0.
    9000005    1    3    3    0    0 -0.36104616141E+02 -0.86701430471E+01 -0.48528422229E+03  0.48670369948E+03  0.10000000000E+01 0.  0.
    9000005    1    3    3    0    0  0.36104616141E+02  0.86701430471E+01 -0.46195113506E+02  0.59276497864E+02  0.10000000000E+01 0.  0.
<mgrwt>
<rscale>  0 0.12499637E+03</rscale>
<asrwt>0</asrwt>
<pdfrwt beam="2">  1        4 0.13468231E+00 0.12499637E+03</pdfrwt>
<pdfrwt beam="1">  1       -4 0.18126095E-02 0.12499637E+03</pdfrwt>
<totfact> 0.80736314E+02</totfact>
</mgrwt>
</event>
<event>
 5    1  0.1422067E-002  0.1249992E+03  0.7818608E-02  0.1235071E+00
         -4   -1    0    0    0  501 -0.00000000000E+00  0.00000000000E+00  0.24427236991E+02  0.24460229088E+02  0.12700000000E+01 0.  1.
          4   -1    0    0  501    0  0.00000000000E+00 -0.00000000000E+00 -0.15976824504E+03  0.15977329259E+03  0.12700000000E+01 0.  1.
         25    2    1    2    0    0  0.00000000000E+00  0.00000000000E+00 -0.13534100805E+03  0.18423352168E+03  0.12499920819E+03 0.  0.
    9000005    1    3    3    0    0  0.55521921059E+02  0.15012488831E+02 -0.31654113126E+02  0.65658521281E+02  0.10000000000E+01 0.  0.
    9000005    1    3    3    0    0 -0.55521921059E+02 -0.15012488831E+02 -0.10368689493E+03  0.11857500040E+03  0.10000000000E+01 0.  0.
<mgrwt>
<rscale>  0 0.12499921E+03</rscale>
<asrwt>0</asrwt>
<pdfrwt beam="2">  1        4 0.39946813E-01 0.12499921E+03</pdfrwt>
<pdfrwt beam="1">  1       -4 0.61115647E-02 0.12499921E+03</pdfrwt>
<totfact> 0.16973761E+03</totfact>
</mgrwt>
</event>
<event>
 5    1  0.1422067E-002  0.1249932E+03  0.7818608E-02  0.1235080E+00
          4   -1    0    0  501    0  0.00000000000E+00  0.00000000000E+00  0.19013671458E+02  0.19056038474E+02  0.12700000000E+01 0.  1.
         -4   -1    0    0    0  501 -0.00000000000E+00 -0.00000000000E+00 -0.20514911151E+03  0.20515304252E+03  0.12700000000E+01 0.  1.
         25    2    1    2    0    0  0.00000000000E+00  0.00000000000E+00 -0.18613544006E+03  0.22420908099E+03  0.12499323964E+03 0.  0.
    9000005    1    3    3    0    0  0.39479505786E+01 -0.61982483523E+02 -0.80716354185E+02  0.10185059848E+03  0.10000000000E+01 0.  0.
    9000005    1    3    3    0    0 -0.39479505786E+01  0.61982483523E+02 -0.10541908587E+03  0.12235848252E+03  0.10000000000E+01 0.  0.
<mgrwt>
<rscale>  0 0.12499324E+03</rscale>
<asrwt>0</asrwt>
<pdfrwt beam="1">  1        4 0.47592058E-02 0.12499324E+03</pdfrwt>
<pdfrwt beam="2">  1       -4 0.51293058E-01 0.12499324E+03</pdfrwt>
<totfact> 0.15398867E+03</totfact>
</mgrwt>
</event>
<event>
 5    1  0.1422067E-002  0.1249999E+03  0.7818608E-02  0.1235069E+00
         -4   -1    0    0    0  501 -0.00000000000E+00  0.00000000000E+00  0.69765055082E+02  0.69776613637E+02  0.12700000000E+01 0. -1.
          4   -1    0    0  501    0  0.00000000000E+00 -0.00000000000E+00 -0.55967999464E+02  0.55982406737E+02  0.12700000000E+01 0. -1.
         25    2    1    2    0    0  0.00000000000E+00  0.00000000000E+00  0.13797055618E+02  0.12575902037E+03  0.12499988985E+03 0.  0.
    9000005    1    3    3    0    0  0.61719399985E+02  0.40077728277E+01  0.15891298011E+02  0.63866109400E+02  0.10000000000E+01 0.  0.
    9000005    1    3    3    0    0 -0.61719399985E+02 -0.40077728277E+01 -0.20942423926E+01  0.61892910973E+02  0.10000000000E+01 0.  0.
<mgrwt>
<rscale>  0 0.12499989E+03</rscale>
<asrwt>0</asrwt>
<pdfrwt beam="2">  1        4 0.13995246E-01 0.12499989E+03</pdfrwt>
<pdfrwt beam="1">  1       -4 0.17444509E-01 0.12499989E+03</pdfrwt>
<totfact> 0.19793999E+03</totfact>
</mgrwt>
</event>
<event>
 5    1  0.1422067E-002  0.1250018E+03  0.7818608E-02  0.1235066E+00
          4   -1    0    0  501    0  0.00000000000E+00  0.00000000000E+00  0.45600602596E+01  0.47336085148E+01  0.12700000000E+01 0.  1.
         -4   -1    0    0    0  501 -0.00000000000E+00 -0.00000000000E+00 -0.84047659351E+03  0.84047755303E+03  0.12700000000E+01 0.  1.
         25    2    1    2    0    0  0.00000000000E+00  0.00000000000E+00 -0.83591653325E+03  0.84521116154E+03  0.12500182810E+03 0.  0.
    9000005    1    3    3    0    0  0.18659373768E+02 -0.19812030950E+01 -0.14904696882E+02  0.23984315380E+02  0.10000000000E+01 0.  0.
    9000005    1    3    3    0    0 -0.18659373768E+02  0.19812030950E+01 -0.82101183637E+03  0.82122684616E+03  0.10000000000E+01 0.  0.
<mgrwt>
<rscale>  0 0.12500183E+03</rscale>
<asrwt>0</asrwt>
<pdfrwt beam="1">  1        4 0.11618314E-02 0.12500183E+03</pdfrwt>
<pdfrwt beam="2">  1       -4 0.21014044E+00 0.12500183E+03</pdfrwt>
<totfact> 0.48623154E+02</totfact>
</mgrwt>
</event>
<event>
 5    1  0.1422067E-002  0.1249945E+03  0.7818608E-02  0.1235078E+00
          4   -1    0    0  501    0  0.00000000000E+00  0.00000000000E+00  0.71813082903E+02  0.71824311873E+02  0.12700000000E+01 0.  1.
         -4   -1    0    0    0  501 -0.00000000000E+00 -0.00000000000E+00 -0.54367014481E+02  0.54381845901E+02  0.12700000000E+01 0.  1.
         25    2    1    2    0    0  0.00000000000E+00  0.00000000000E+00  0.17446068422E+02  0.12620615777E+03  0.12499451571E+03 0.  0.
    9000005    1    3    3    0    0 -0.44295965798E+02  0.43250044169E+02  0.14311408081E+00  0.61917036333E+02  0.10000000000E+01 0.  0.
    9000005    1    3    3    0    0  0.44295965798E+02 -0.43250044169E+02  0.17302954341E+02  0.64289121441E+02  0.10000000000E+01 0.  0.
<mgrwt>
<rscale>  0 0.12499452E+03</rscale>
<asrwt>0</asrwt>
<pdfrwt beam="1">  1        4 0.17956528E-01 0.12499452E+03</pdfrwt>
<pdfrwt beam="2">  1       -4 0.13595011E-01 0.12499452E+03</pdfrwt>
<totfact> 0.19772320E+03</totfact>
</mgrwt>
</event>
<event>
 4    1  0.1422067E-002  0.1248582E+03  0.7818608E-02  0.1235291E+00
         -4   -1    0    0    0  501 -0.00000000000E+00  0.00000000000E+00  0.11357788685E+03  0.11358498704E+03  0.12700000000E+01 0. -1.
          4   -1    0    0  501    0  0.00000000000E+00 -0.00000000000E+00 -0.34294769099E+02  0.34318276290E+02  0.12700000000E+01 0. -1.
    9000005    1    1    2    0    0  0.32559511690E+02  0.12792279678E+01  0.10270957445E+03  0.10775905953E+03  0.10000000000E+01 0.  0.
    9000005    1    1    2    0    0 -0.32559511690E+02 -0.12792279678E+01 -0.23426456701E+02  0.40144203807E+02  0.10000000000E+01 0.  0.
<mgrwt>
<rscale>  0 0.12485817E+03</rscale>
<asrwt>0</asrwt>
<pdfrwt beam="2">  1        4 0.85775183E-02 0.12485817E+03</pdfrwt>
<pdfrwt beam="1">  1       -4 0.28398297E-01 0.12485817E+03</pdfrwt>
<totfact> 0.18704040E+03</totfact>
</mgrwt>
</event>
<event>
 5    1  0.1422067E-002  0.1249971E+03  0.7818608E-02  0.1235074E+00
         -4   -1    0    0    0  501 -0.00000000000E+00  0.00000000000E+00  0.32493143267E+03  0.32493391457E+03  0.12700000000E+01 0. -1.
          4   -1    0    0  501    0  0.00000000000E+00 -0.00000000000E+00 -0.11985124639E+02  0.12052224385E+02  0.12700000000E+01 0. -1.
         25    2    1    2    0    0  0.00000000000E+00  0.00000000000E+00  0.31294630803E+03  0.33698613895E+03  0.12499706451E+03 0.  0.
    9000005    1    3    3    0    0 -0.41869641667E+02  0.21916559917E+02  0.26669983334E+03  0.27085642617E+03  0.10000000000E+01 0.  0.
    9000005    1    3    3    0    0  0.41869641667E+02 -0.21916559917E+02  0.46246474688E+02  0.66129712785E+02  0.10000000000E+01 0.  0.
<mgrwt>
<rscale>  0 0.12499706E+03</rscale>
<asrwt>0</asrwt>
<pdfrwt beam="2">  1        4 0.30049789E-02 0.12499706E+03</pdfrwt>
<pdfrwt beam="1">  1       -4 0.81241555E-01 0.12499706E+03</pdfrwt>
<totfact> 0.11995108E+03</totfact>
</mgrwt>
</event>
<event>
 5    1  0.1422067E-002  0.1249955E+03  0.7818608E-02  0.1235076E+00
          4   -1    0    0  501    0  0.00000000000E+00  0.00000000000E+00  0.33224412542E+02  0.33248676497E+02  0.12700000000E+01 0. -1.
         -4   -1    0    0    0  501 -0.00000000000E+00 -0.00000000000E+00 -0.11749251768E+03  0.11749938132E+03  0.12700000000E+01 0. -1.
         25    2    1    2    0    0  0.00000000000E+00  0.00000000000E+00 -0.84268105133E+02  0.15074805781E+03  0.12499545348E+03 0.  0.
    9000005    1    3    3    0    0  0.18108228490E+02  0.39960244122E+02 -0.95802134286E+02  0.10537446552E+03  0.10000000000E+01 0.  0.
    9000005    1    3    3    0    0 -0.18108228490E+02 -0.39960244122E+02  0.11534029152E+02  0.45373592296E+02  0.10000000000E+01 0.  0.
<mgrwt>
<rscale>  0 0.12499545E+03</rscale>
<asrwt>0</asrwt>
<pdfrwt beam="1">  1        4 0.83099943E-02 0.12499545E+03</pdfrwt>
<pdfrwt beam="2">  1       -4 0.29377019E-01 0.12499545E+03</pdfrwt>
<totfact> 0.18504018E+03</totfact>
</mgrwt>
</event>
<event>
 5    1  0.1422067E-002  0.1250008E+03  0.7818608E-02  0.1235068E+00
         -4   -1    0    0    0  501 -0.00000000000E+00  0.00000000000E+00  0.55225472827E+02  0.55240073759E+02  0.12700000000E+01 0.  1.
          4   -1    0    0  501    0  0.00000000000E+00 -0.00000000000E+00 -0.70704032441E+02  0.70715437519E+02  0.12700000000E+01 0.  1.
         25    2    1    2    0    0  0.00000000000E+00  0.00000000000E+00 -0.15478559615E+02  0.12595551128E+03  0.12500082005E+03 0.  0.
    9000005    1    3    3    0    0  0.65596710494E+01 -0.13564996680E+02 -0.68851166595E+02  0.70487740500E+02  0.10000000000E+01 0.  0.
    9000005    1    3    3    0    0 -0.65596710494E+01  0.13564996680E+02  0.53372606981E+02  0.55467770778E+02  0.10000000000E+01 0.  0.
<mgrwt>
<rscale>  0 0.12500082E+03</rscale>
<asrwt>0</asrwt>
<pdfrwt beam="2">  1        4 0.17679259E-01 0.12500082E+03</pdfrwt>
<pdfrwt beam="1">  1       -4 0.13809619E-01 0.12500082E+03</pdfrwt>
<totfact> 0.19782945E+03</totfact>
</mgrwt>
</event>
<event>
 5    1  0.1422067E-002  0.1249981E+03  0.7818608E-02  0.1235072E+00
          4   -1    0    0  501    0  0.00000000000E+00  0.00000000000E+00  0.21103941984E+03  0.21104324113E+03  0.12700000000E+01 0.  1.
         -4   -1    0    0    0  501 -0.00000000000E+00 -0.00000000000E+00 -0.18483246282E+02  0.18526826310E+02  0.12700000000E+01 0.  1.
         25    2    1    2    0    0  0.00000000000E+00  0.00000000000E+00  0.19255617356E+03  0.22957006744E+03  0.12499814354E+03 0.  0.
    9000005    1    3    3    0    0 -0.14473383448E+02 -0.15243123966E+02  0.20436096478E+03  0.20544156246E+03  0.10000000000E+01 0.  0.
    9000005    1    3    3    0    0  0.14473383448E+02  0.15243123966E+02 -0.11804791229E+02  0.24128504982E+02  0.10000000000E+01 0.  0.
<mgrwt>
<rscale>  0 0.12499814E+03</rscale>
<asrwt>0</asrwt>
<pdfrwt beam="1">  1        4 0.52765780E-01 0.12499814E+03</pdfrwt>
<pdfrwt beam="2">  1       -4 0.46267367E-02 0.12499814E+03</pdfrwt>
<totfact> 0.15203337E+03</totfact>
</mgrwt>
</event>
<event>
 5    1  0.1422067E-002  0.1250014E+03  0.7818608E-02  0.1235067E+00
          4   -1    0    0  501    0  0.00000000000E+00  0.00000000000E+00  0.55008526351E+03  0.55008672955E+03  0.12700000000E+01 0.  1.
         -4   -1    0    0    0  501 -0.00000000000E+00 -0.00000000000E+00 -0.70430587621E+01  0.71566456337E+01  0.12700000000E+01 0.  1.
         25    2    1    2    0    0  0.00000000000E+00  0.00000000000E+00  0.54304220474E+03  0.55724337518E+03  0.12500137220E+03 0.  0.
    9000005    1    3    3    0    0  0.22388909006E+02 -0.50979908968E+02  0.39801244962E+03  0.40188944303E+03  0.10000000000E+01 0.  0.
    9000005    1    3    3    0    0 -0.22388909006E+02  0.50979908968E+02  0.14502975513E+03  0.15535393216E+03  0.10000000000E+01 0.  0.
<mgrwt>
<rscale>  0 0.12500137E+03</rscale>
<asrwt>0</asrwt>
<pdfrwt beam="1">  1        4 0.13753568E+00 0.12500137E+03</pdfrwt>
<pdfrwt beam="2">  1       -4 0.17751466E-02 0.12500137E+03</pdfrwt>
<totfact> 0.79157174E+02</totfact>
</mgrwt>
</event>
<event>
 5    1  0.1422067E-002  0.1249992E+03  0.7818608E-02  0.1235071E+00
          4   -1    0    0  501    0  0.00000000000E+00  0.00000000000E+00  0.11252931423E+02  0.11324370428E+02  0.12700000000E+01 0. -1.
         -4   -1    0    0    0  501 -0.00000000000E+00 -0.00000000000E+00 -0.34595613325E+03  0.34595846432E+03  0.12700000000E+01 0. -1.
         25    2    1    2    0    0  0.00000000000E+00  0.00000000000E+00 -0.33470320183E+03  0.35728283475E+03  0.12499916276E+03 0.  0.
    9000005    1    3    3    0    0 -0.28149434743E+02 -0.41350083350E+02 -0.60290817633E+02  0.78346683148E+02  0.10000000000E+01 0.  0.
    9000005    1    3    3    0    0  0.28149434743E+02  0.41350083350E+02 -0.27441238420E+03  0.27893615160E+03  0.10000000000E+01 0.  0.
<mgrwt>
<rscale>  0 0.12499916E+03</rscale>
<asrwt>0</asrwt>
<pdfrwt beam="1">  1        4 0.28224553E-02 0.12499916E+03</pdfrwt>
<pdfrwt beam="2">  1       -4 0.86498219E-01 0.12499916E+03</pdfrwt>
<totfact> 0.11505749E+03</totfact>
</mgrwt>
</event>
<event>
 5    1  0.1422067E-002  0.1249993E+03  0.7818608E-02  0.1235070E+00
         -4   -1    0    0    0  501 -0.00000000000E+00  0.00000000000E+00  0.43080850920E+02  0.43099566309E+02  0.12700000000E+01 0.  1.
          4   -1    0    0  501    0  0.00000000000E+00 -0.00000000000E+00 -0.90628703905E+02  0.90637601863E+02  0.12700000000E+01 0.  1.
         25    2    1    2    0    0  0.00000000000E+00  0.00000000000E+00 -0.47547852984E+02  0.13373716817E+03  0.12499932731E+03 0.  0.
    9000005    1    3    3    0    0 -0.35431526232E+01 -0.13211098647E+02  0.41464909065E+02  0.43674085471E+02  0.10000000000E+01 0.  0.
    9000005    1    3    3    0    0  0.35431526232E+01  0.13211098647E+02 -0.89012762049E+02  0.90063082701E+02  0.10000000000E+01 0.  0.
<mgrwt>
<rscale>  0 0.12499933E+03</rscale>
<asrwt>0</asrwt>
<pdfrwt beam="2">  1        4 0.22660627E-01 0.12499933E+03</pdfrwt>
<pdfrwt beam="1">  1       -4 0.10773665E-01 0.12499933E+03</pdfrwt>
<totfact> 0.19365792E+03</totfact>
</mgrwt>
</event>
<event>
 5    1  0.1422067E-002  0.1250017E+03  0.7818608E-02  0.1235067E+00
          4   -1    0    0  501    0  0.00000000000E+00  0.00000000000E+00  0.24157244726E+03  0.24157578558E+03  0.12700000000E+01 0.  1.
         -4   -1    0    0    0  501 -0.00000000000E+00 -0.00000000000E+00 -0.16142141075E+02  0.16192023298E+02  0.12700000000E+01 0.  1.
         25    2    1    2    0    0  0.00000000000E+00  0.00000000000E+00  0.22543030619E+03  0.25776780887E+03  0.12500168136E+03 0.  0.
    9000005    1    3    3    0    0 -0.22671583327E+02  0.44635839140E+02  0.18984475715E+03  0.19633744076E+03  0.10000000000E+01 0.  0.
    9000005    1    3    3    0    0  0.22671583327E+02 -0.44635839140E+02  0.35585549033E+02  0.61430368111E+02  0.10000000000E+01 0.  0.
<mgrwt>
<rscale>  0 0.12500168E+03</rscale>
<asrwt>0</asrwt>
<pdfrwt beam="1">  1        4 0.60399763E-01 0.12500168E+03</pdfrwt>
<pdfrwt beam="2">  1       -4 0.40421879E-02 0.12500168E+03</pdfrwt>
<totfact> 0.14242560E+03</totfact>
</mgrwt>
</event>
<event>
 5    1  0.1422067E-002  0.1250004E+03  0.7818608E-02  0.1235069E+00
          4   -1    0    0  501    0  0.00000000000E+00  0.00000000000E+00  0.66719555357E+02  0.66731641423E+02  0.12700000000E+01 0.  1.
         -4   -1    0    0    0  501 -0.00000000000E+00 -0.00000000000E+00 -0.58523368876E+02  0.58537147220E+02  0.12700000000E+01 0.  1.
         25    2    1    2    0    0  0.00000000000E+00  0.00000000000E+00  0.81961864809E+01  0.12526878864E+03  0.12500036774E+03 0.  0.
    9000005    1    3    3    0    0 -0.38062724598E+02 -0.47551858650E+02  0.18103894765E+02  0.63550777104E+02  0.10000000000E+01 0.  0.
    9000005    1    3    3    0    0  0.38062724598E+02  0.47551858650E+02 -0.99077082841E+01  0.61718011539E+02  0.10000000000E+01 0.  0.
<mgrwt>
<rscale>  0 0.12500037E+03</rscale>
<asrwt>0</asrwt>
<pdfrwt beam="1">  1        4 0.16683122E-01 0.12500037E+03</pdfrwt>
<pdfrwt beam="2">  1       -4 0.14634075E-01 0.12500037E+03</pdfrwt>
<totfact> 0.19820315E+03</totfact>
</mgrwt>
</event>
<event>
 5    1  0.1422067E-002  0.1250124E+03  0.7818608E-02  0.1235050E+00
         -4   -1    0    0    0  501 -0.00000000000E+00  0.00000000000E+00  0.91694863777E+02  0.91703658286E+02  0.12700000000E+01 0. -1.
          4   -1    0    0  501    0  0.00000000000E+00 -0.00000000000E+00 -0.42588649965E+02  0.42607581553E+02  0.12700000000E+01 0. -1.
         25    2    1    2    0    0  0.00000000000E+00  0.00000000000E+00  0.49106213812E+02  0.13431123984E+03  0.12501235504E+03 0.  0.
    9000005    1    3    3    0    0 -0.97070199120E+01 -0.56899315799E+02 -0.11932130554E+01  0.57742377257E+02  0.10000000000E+01 0.  0.
    9000005    1    3    3    0    0  0.97070199120E+01  0.56899315799E+02  0.50299426868E+02  0.76568862582E+02  0.10000000000E+01 0.  0.
<mgrwt>
<rscale>  0 0.12501236E+03</rscale>
<asrwt>0</asrwt>
<pdfrwt beam="2">  1        4 0.10650628E-01 0.12501236E+03</pdfrwt>
<pdfrwt beam="1">  1       -4 0.22927182E-01 0.12501236E+03</pdfrwt>
<totfact> 0.19329701E+03</totfact>
</mgrwt>
</event>
<event>
 5    1  0.1422067E-002  0.1250025E+03  0.7818608E-02  0.1235065E+00
         -4   -1    0    0    0  501 -0.00000000000E+00  0.00000000000E+00  0.75478264773E+01  0.76539260861E+01  0.12700000000E+01 0. -1.
          4   -1    0    0  501    0  0.00000000000E+00 -0.00000000000E+00 -0.51383488494E+03  0.51383645441E+03  0.12700000000E+01 0. -1.
         25    2    1    2    0    0  0.00000000000E+00  0.00000000000E+00 -0.50628705846E+03  0.52149038050E+03  0.12500252551E+03 0.  0.
    9000005    1    3    3    0    0  0.19561828232E+02  0.52898811109E+02 -0.36543176855E+03  0.36975982313E+03  0.10000000000E+01 0.  0.
    9000005    1    3    3    0    0 -0.19561828232E+02 -0.52898811109E+02 -0.14085528992E+03  0.15173055736E+03  0.10000000000E+01 0.  0.
<mgrwt>
<rscale>  0 0.12500253E+03</rscale>
<asrwt>0</asrwt>
<pdfrwt beam="2">  1        4 0.12847206E+00 0.12500253E+03</pdfrwt>
<pdfrwt beam="1">  1       -4 0.19004170E-02 0.12500253E+03</pdfrwt>
<totfact> 0.84282320E+02</totfact>
</mgrwt>
</event>
<event>
 5    1  0.1422067E-002  0.1249974E+03  0.7818608E-02  0.1235073E+00
         -4   -1    0    0    0  501 -0.00000000000E+00  0.00000000000E+00  0.23496366939E+03  0.23496710159E+03  0.12700000000E+01 0.  1.
          4   -1    0    0  501    0  0.00000000000E+00 -0.00000000000E+00 -0.16596415304E+02  0.16644936195E+02  0.12700000000E+01 0.  1.
         25    2    1    2    0    0  0.00000000000E+00  0.00000000000E+00  0.21836725408E+03  0.25161203779E+03  0.12499743959E+03 0.  0.
    9000005    1    3    3    0    0 -0.47911046066E+02  0.23438900443E+02  0.17472753105E+03  0.18268979308E+03  0.10000000000E+01 0.  0.
    9000005    1    3    3    0    0  0.47911046066E+02 -0.23438900443E+02  0.43639723029E+02  0.68922244705E+02  0.10000000000E+01 0.  0.
<mgrwt>
<rscale>  0 0.12499744E+03</rscale>
<asrwt>0</asrwt>
<pdfrwt beam="2">  1        4 0.41555980E-02 0.12499744E+03</pdfrwt>
<pdfrwt beam="1">  1       -4 0.58747411E-01 0.12499744E+03</pdfrwt>
<totfact> 0.14445365E+03</totfact>
</mgrwt>
</event>
<event>
 5    1  0.1422067E-002  0.1250020E+03  0.7818608E-02  0.1235066E+00
          4   -1    0    0  501    0  0.00000000000E+00  0.00000000000E+00  0.41470644571E+02  0.41490086300E+02  0.12700000000E+01 0. -1.
         -4   -1    0    0    0  501 -0.00000000000E+00 -0.00000000000E+00 -0.94150398868E+02  0.94158964029E+02  0.12700000000E+01 0. -1.
         25    2    1    2    0    0  0.00000000000E+00  0.00000000000E+00 -0.52679754296E+02  0.13564905033E+03  0.12500203335E+03 0.  0.
    9000005    1    3    3    0    0 -0.26865095205E+02 -0.52489420472E+02 -0.48803374122E+02  0.76548298005E+02  0.10000000000E+01 0.  0.
    9000005    1    3    3    0    0  0.26865095205E+02  0.52489420472E+02 -0.38763801748E+01  0.59100752323E+02  0.10000000000E+01 0.  0.
<mgrwt>
<rscale>  0 0.12500203E+03</rscale>
<asrwt>0</asrwt>
<pdfrwt beam="1">  1        4 0.10371162E-01 0.12500203E+03</pdfrwt>
<pdfrwt beam="2">  1       -4 0.23541100E-01 0.12500203E+03</pdfrwt>
<totfact> 0.19264281E+03</totfact>
</mgrwt>
</event>
<event>
 5    1  0.1422067E-002  0.1249994E+03  0.7818608E-02  0.1235070E+00
          4   -1    0    0  501    0  0.00000000000E+00  0.00000000000E+00  0.13570967283E+03  0.13571561516E+03  0.12700000000E+01 0.  1.
         -4   -1    0    0    0  501 -0.00000000000E+00 -0.00000000000E+00 -0.28763007133E+02  0.28791031231E+02  0.12700000000E+01 0.  1.
         25    2    1    2    0    0  0.00000000000E+00  0.00000000000E+00  0.10694666570E+03  0.16450664639E+03  0.12499938962E+03 0.  0.
    9000005    1    3    3    0    0  0.45138001378E+02 -0.40433729593E+02  0.33389461610E+02  0.69196689255E+02  0.10000000000E+01 0.  0.
    9000005    1    3    3    0    0 -0.45138001378E+02  0.40433729593E+02  0.73557204085E+02  0.95309957140E+02  0.10000000000E+01 0.  0.
<mgrwt>
<rscale>  0 0.12499939E+03</rscale>
<asrwt>0</asrwt>
<pdfrwt beam="1">  1        4 0.33931664E-01 0.12499939E+03</pdfrwt>
<pdfrwt beam="2">  1       -4 0.71949976E-02 0.12499939E+03</pdfrwt>
<totfact> 0.17847958E+03</totfact>
</mgrwt>
</event>
<event>
 5    1  0.1422067E-002  0.1249996E+03  0.7818608E-02  0.1235070E+00
         -4   -1    0    0    0  501 -0.00000000000E+00  0.00000000000E+00  0.13800852732E+02  0.13859164337E+02  0.12700000000E+01 0.  1.
          4   -1    0    0  501    0  0.00000000000E+00 -0.00000000000E+00 -0.28238586310E+03  0.28238871892E+03  0.12700000000E+01 0.  1.
         25    2    1    2    0    0  0.00000000000E+00  0.00000000000E+00 -0.26858501036E+03  0.29624788326E+03  0.12499960218E+03 0.  0.
    9000005    1    3    3    0    0  0.59490407364E+02 -0.14057566969E+02 -0.10352811190E+03  0.12023224904E+03  0.10000000000E+01 0.  0.
    9000005    1    3    3    0    0 -0.59490407364E+02  0.14057566969E+02 -0.16505689847E+03  0.17601563422E+03  0.10000000000E+01 0.  0.
<mgrwt>
<rscale>  0 0.12499960E+03</rscale>
<asrwt>0</asrwt>
<pdfrwt beam="2">  1        4 0.70604093E-01 0.12499960E+03</pdfrwt>
<pdfrwt beam="1">  1       -4 0.34578600E-02 0.12499960E+03</pdfrwt>
<totfact> 0.13076993E+03</totfact>
</mgrwt>
</event>
<event>
 5    1  0.1422067E-002  0.1249956E+03  0.7818608E-02  0.1235076E+00
         -4   -1    0    0    0  501 -0.00000000000E+00  0.00000000000E+00  0.30512275631E+01  0.33049795221E+01  0.12700000000E+01 0. -1.
          4   -1    0    0  501    0  0.00000000000E+00 -0.00000000000E+00 -0.12287726747E+04  0.12287733310E+04  0.12700000000E+01 0. -1.
         25    2    1    2    0    0  0.00000000000E+00  0.00000000000E+00 -0.12257214471E+04  0.12320783105E+04  0.12499558912E+03 0.  0.
    9000005    1    3    3    0    0  0.10521001342E+02  0.37907850442E+02 -0.13428683297E+03  0.13993444931E+03  0.10000000000E+01 0.  0.
    9000005    1    3    3    0    0 -0.10521001342E+02 -0.37907850442E+02 -0.10914346141E+04  0.10921438612E+04  0.10000000000E+01 0.  0.
<mgrwt>
<rscale>  0 0.12499559E+03</rscale>
<asrwt>0</asrwt>
<pdfrwt beam="2">  1        4 0.30722334E+00 0.12499559E+03</pdfrwt>
<pdfrwt beam="1">  1       -4 0.79461214E-03 0.12499559E+03</pdfrwt>
<totfact> 0.23564411E+02</totfact>
</mgrwt>
</event>
<event>
 5    1  0.1422067E-002  0.1249993E+03  0.7818608E-02  0.1235070E+00
         -4   -1    0    0    0  501 -0.00000000000E+00  0.00000000000E+00  0.50011594434E+02  0.50027717095E+02  0.12700000000E+01 0.  1.
          4   -1    0    0  501    0  0.00000000000E+00 -0.00000000000E+00 -0.78072192395E+02  0.78082521253E+02  0.12700000000E+01 0.  1.
         25    2    1    2    0    0  0.00000000000E+00  0.00000000000E+00 -0.28060597961E+02  0.12811023835E+03  0.12499934405E+03 0.  0.
    9000005    1    3    3    0    0 -0.58243497769E+02  0.21364178264E+02 -0.63282278876E+01  0.62368097722E+02  0.10000000000E+01 0.  0.
    9000005    1    3    3    0    0  0.58243497769E+02 -0.21364178264E+02 -0.21732370073E+02  0.65742140627E+02  0.10000000000E+01 0.  0.
<mgrwt>
<rscale>  0 0.12499934E+03</rscale>
<asrwt>0</asrwt>
<pdfrwt beam="2">  1        4 0.19521354E-01 0.12499934E+03</pdfrwt>
<pdfrwt beam="1">  1       -4 0.12506205E-01 0.12499934E+03</pdfrwt>
<totfact> 0.19666839E+03</totfact>
</mgrwt>
</event>
<event>
 5    1  0.1422067E-002  0.1250023E+03  0.7818608E-02  0.1235066E+00
         -4   -1    0    0    0  501 -0.00000000000E+00  0.00000000000E+00  0.10615949588E+03  0.10616709220E+03  0.12700000000E+01 0.  1.
          4   -1    0    0  501    0  0.00000000000E+00 -0.00000000000E+00 -0.36777510573E+02  0.36799431843E+02  0.12700000000E+01 0.  1.
         25    2    1    2    0    0  0.00000000000E+00  0.00000000000E+00  0.69381985310E+02  0.14296652404E+03  0.12500226842E+03 0.  0.
    9000005    1    3    3    0    0 -0.33824748105E+02 -0.64793559034E+01 -0.24949979949E+02  0.42539359854E+02  0.10000000000E+01 0.  0.
    9000005    1    3    3    0    0  0.33824748105E+02  0.64793559034E+01  0.94331965260E+02  0.10042716419E+03  0.10000000000E+01 0.  0.
<mgrwt>
<rscale>  0 0.12500227E+03</rscale>
<asrwt>0</asrwt>
<pdfrwt beam="2">  1        4 0.91980675E-02 0.12500227E+03</pdfrwt>
<pdfrwt beam="1">  1       -4 0.26543563E-01 0.12500227E+03</pdfrwt>
<totfact> 0.18888595E+03</totfact>
</mgrwt>
</event>
<event>
 5    1  0.1422067E-002  0.1250011E+03  0.7818608E-02  0.1235068E+00
         -4   -1    0    0    0  501 -0.00000000000E+00  0.00000000000E+00  0.69130395725E+02  0.69142060377E+02  0.12700000000E+01 0.  1.
          4   -1    0    0  501    0  0.00000000000E+00 -0.00000000000E+00 -0.56482974111E+02  0.56497250061E+02  0.12700000000E+01 0.  1.
         25    2    1    2    0    0  0.00000000000E+00  0.00000000000E+00  0.12647421614E+02  0.12563931044E+03  0.12500111621E+03 0.  0.
    9000005    1    3    3    0    0 -0.28955436995E+02  0.10577196700E+02  0.60961391766E+02  0.68319731466E+02  0.10000000000E+01 0.  0.
    9000005    1    3    3    0    0  0.28955436995E+02 -0.10577196700E+02 -0.48313970152E+02  0.57319578971E+02  0.10000000000E+01 0.  0.
<mgrwt>
<rscale>  0 0.12500112E+03</rscale>
<asrwt>0</asrwt>
<pdfrwt beam="2">  1        4 0.14123986E-01 0.12500112E+03</pdfrwt>
<pdfrwt beam="1">  1       -4 0.17285841E-01 0.12500112E+03</pdfrwt>
<totfact> 0.19799907E+03</totfact>
</mgrwt>
</event>
<event>
 5    1  0.1422067E-002  0.1249980E+03  0.7818608E-02  0.1235072E+00
          4   -1    0    0  501    0  0.00000000000E+00  0.00000000000E+00  0.65142034998E+02  0.65154413693E+02  0.12700000000E+01 0.  1.
         -4   -1    0    0    0  501 -0.00000000000E+00 -0.00000000000E+00 -0.59938373375E+02  0.59951826518E+02  0.12700000000E+01 0.  1.
         25    2    1    2    0    0  0.00000000000E+00  0.00000000000E+00  0.52036616230E+01  0.12510624021E+03  0.12499797297E+03 0.  0.
    9000005    1    3    3    0    0 -0.41726091613E+02 -0.42147755409E+02 -0.17103373483E+02  0.61733502993E+02  0.10000000000E+01 0.  0.
    9000005    1    3    3    0    0  0.41726091613E+02  0.42147755409E+02  0.22307035106E+02  0.63372737218E+02  0.10000000000E+01 0.  0.
<mgrwt>
<rscale>  0 0.12499797E+03</rscale>
<asrwt>0</asrwt>
<pdfrwt beam="1">  1        4 0.16288738E-01 0.12499797E+03</pdfrwt>
<pdfrwt beam="2">  1       -4 0.14987822E-01 0.12499797E+03</pdfrwt>
<totfact> 0.19830235E+03</totfact>
</mgrwt>
</event>
<event>
 5    1  0.1422067E-002  0.1250043E+03  0.7818608E-02  0.1235063E+00
         -4   -1    0    0    0  501 -0.00000000000E+00  0.00000000000E+00  0.55736464333E+02  0.55750931439E+02  0.12700000000E+01 0.  1.
          4   -1    0    0  501    0  0.00000000000E+00 -0.00000000000E+00 -0.70059783298E+02  0.70071293236E+02  0.12700000000E+01 0.  1.
         25    2    1    2    0    0  0.00000000000E+00  0.00000000000E+00 -0.14323318965E+02  0.12582222467E+03  0.12500429895E+03 0.  0.
    9000005    1    3    3    0    0  0.18600923408E+01  0.47374924507E+02 -0.48142620693E+02  0.67576292757E+02  0.10000000000E+01 0.  0.
    9000005    1    3    3    0    0 -0.18600923408E+01 -0.47374924507E+02  0.33819301728E+02  0.58245931918E+02  0.10000000000E+01 0.  0.
<mgrwt>
<rscale>  0 0.12500430E+03</rscale>
<asrwt>0</asrwt>
<pdfrwt beam="2">  1        4 0.17518193E-01 0.12500430E+03</pdfrwt>
<pdfrwt beam="1">  1       -4 0.13937363E-01 0.12500430E+03</pdfrwt>
<totfact> 0.19788540E+03</totfact>
</mgrwt>
</event>
<event>
 5    1  0.1422067E-002  0.1249970E+03  0.7818608E-02  0.1235074E+00
         -4   -1    0    0    0  501 -0.00000000000E+00  0.00000000000E+00  0.32913891555E+02  0.32938384254E+02  0.12700000000E+01 0.  1.
          4   -1    0    0  501    0  0.00000000000E+00 -0.00000000000E+00 -0.11860316216E+03  0.11860996153E+03  0.12700000000E+01 0.  1.
         25    2    1    2    0    0  0.00000000000E+00  0.00000000000E+00 -0.85689270607E+02  0.15154834579E+03  0.12499700002E+03 0.  0.
    9000005    1    3    3    0    0  0.60912480091E+02 -0.13874859507E+02 -0.44651316483E+02  0.76795716162E+02  0.10000000000E+01 0.  0.
    9000005    1    3    3    0    0 -0.60912480091E+02  0.13874859507E+02 -0.41037954124E+02  0.74752629625E+02  0.10000000000E+01 0.  0.
<mgrwt>
<rscale>  0 0.12499700E+03</rscale>
<asrwt>0</asrwt>
<pdfrwt beam="2">  1        4 0.29654701E-01 0.12499700E+03</pdfrwt>
<pdfrwt beam="1">  1       -4 0.82323847E-02 0.12499700E+03</pdfrwt>
<totfact> 0.18464199E+03</totfact>
</mgrwt>
</event>
<event>
 5    1  0.1422067E-002  0.1249975E+03  0.7818608E-02  0.1235073E+00
          4   -1    0    0  501    0  0.00000000000E+00  0.00000000000E+00  0.83643449850E+02  0.83653090815E+02  0.12700000000E+01 0. -1.
         -4   -1    0    0    0  501 -0.00000000000E+00 -0.00000000000E+00 -0.46678344601E+02  0.46695618153E+02  0.12700000000E+01 0. -1.
         25    2    1    2    0    0  0.00000000000E+00  0.00000000000E+00  0.36965105249E+02  0.13034870897E+03  0.12499746767E+03 0.  0.
    9000005    1    3    3    0    0 -0.61857977620E+01 -0.50906902725E+02 -0.18757838608E+02  0.54613490534E+02  0.10000000000E+01 0.  0.
    9000005    1    3    3    0    0  0.61857977620E+01  0.50906902725E+02  0.55722943858E+02  0.75735218434E+02  0.10000000000E+01 0.  0.
<mgrwt>
<rscale>  0 0.12499747E+03</rscale>
<asrwt>0</asrwt>
<pdfrwt beam="1">  1        4 0.20914227E-01 0.12499747E+03</pdfrwt>
<pdfrwt beam="2">  1       -4 0.11672951E-01 0.12499747E+03</pdfrwt>
<totfact> 0.19546810E+03</totfact>
</mgrwt>
</event>
<event>
 5    1  0.1422067E-002  0.1250147E+03  0.7818608E-02  0.1235046E+00
         -4   -1    0    0    0  501 -0.00000000000E+00  0.00000000000E+00  0.64784645432E+02  0.64797092402E+02  0.12700000000E+01 0. -1.
          4   -1    0    0  501    0  0.00000000000E+00 -0.00000000000E+00 -0.60285211019E+02  0.60298586779E+02  0.12700000000E+01 0. -1.
         25    2    1    2    0    0  0.00000000000E+00  0.00000000000E+00  0.44994344134E+01  0.12509567918E+03  0.12501473529E+03 0.  0.
    9000005    1    3    3    0    0  0.20087002044E+02  0.42768508710E+02  0.43185103738E+02  0.64020201291E+02  0.10000000000E+01 0.  0.
    9000005    1    3    3    0    0 -0.20087002044E+02 -0.42768508710E+02 -0.38685669325E+02  0.61075477890E+02  0.10000000000E+01 0.  0.
<mgrwt>
<rscale>  0 0.12501474E+03</rscale>
<asrwt>0</asrwt>
<pdfrwt beam="2">  1        4 0.15074531E-01 0.12501474E+03</pdfrwt>
<pdfrwt beam="1">  1       -4 0.16199389E-01 0.12501474E+03</pdfrwt>
<totfact> 0.19823032E+03</totfact>
</mgrwt>
</event>
<event>
 5    1  0.1422067E-002  0.1250002E+03  0.7818608E-02  0.1235069E+00
         -4   -1    0    0    0  501 -0.00000000000E+00  0.00000000000E+00  0.10841617248E+03  0.10842361069E+03  0.12700000000E+01 0. -1.
          4   -1    0    0  501    0  0.00000000000E+00 -0.00000000000E+00 -0.36010397221E+02  0.36032785182E+02  0.12700000000E+01 0. -1.
         25    2    1    2    0    0  0.00000000000E+00  0.00000000000E+00  0.72405775258E+02  0.14445639587E+03  0.12500021607E+03 0.  0.
    9000005    1    3    3    0    0 -0.19330436362E+02 -0.52933848441E+02  0.67418369130E+02  0.87874311246E+02  0.10000000000E+01 0.  0.
    9000005    1    3    3    0    0  0.19330436362E+02  0.52933848441E+02  0.49874061279E+01  0.56582084626E+02  0.10000000000E+01 0.  0.
<mgrwt>
<rscale>  0 0.12500022E+03</rscale>
<asrwt>0</asrwt>
<pdfrwt beam="2">  1        4 0.90063276E-02 0.12500022E+03</pdfrwt>
<pdfrwt beam="1">  1       -4 0.27107771E-01 0.12500022E+03</pdfrwt>
<totfact> 0.18814538E+03</totfact>
</mgrwt>
</event>
<event>
 5    1  0.1422067E-002  0.1250011E+03  0.7818608E-02  0.1235068E+00
          4   -1    0    0  501    0  0.00000000000E+00  0.00000000000E+00  0.34008052160E+02  0.34031757400E+02  0.12700000000E+01 0. -1.
         -4   -1    0    0    0  501 -0.00000000000E+00 -0.00000000000E+00 -0.11479721193E+03  0.11480423671E+03  0.12700000000E+01 0. -1.
         25    2    1    2    0    0  0.00000000000E+00  0.00000000000E+00 -0.80789159767E+02  0.14883599411E+03  0.12500105922E+03 0.  0.
    9000005    1    3    3    0    0  0.44586417888E+02 -0.16617166276E+02  0.78423848283E+01  0.48234654295E+02  0.10000000000E+01 0.  0.
    9000005    1    3    3    0    0 -0.44586417888E+02  0.16617166276E+02 -0.88631544595E+02  0.10060133981E+03  0.10000000000E+01 0.  0.
<mgrwt>
<rscale>  0 0.12500106E+03</rscale>
<asrwt>0</asrwt>
<pdfrwt beam="1">  1        4 0.85058546E-02 0.12500106E+03</pdfrwt>
<pdfrwt beam="2">  1       -4 0.28703143E-01 0.12500106E+03</pdfrwt>
<totfact> 0.18595705E+03</totfact>
</mgrwt>
</event>
<event>
 5    1  0.1422067E-002  0.1249999E+03  0.7818608E-02  0.1235069E+00
         -4   -1    0    0    0  501 -0.00000000000E+00  0.00000000000E+00  0.94838576553E+02  0.94847079568E+02  0.12700000000E+01 0.  1.
          4   -1    0    0  501    0  0.00000000000E+00 -0.00000000000E+00 -0.41168214170E+02  0.41187798654E+02  0.12700000000E+01 0.  1.
         25    2    1    2    0    0  0.00000000000E+00  0.00000000000E+00  0.53670362382E+02  0.13603487822E+03  0.12499992118E+03 0.  0.
    9000005    1    3    3    0    0  0.51964527626E+02 -0.33375189552E+02  0.37218399959E+02  0.72113970245E+02  0.10000000000E+01 0.  0.
    9000005    1    3    3    0    0 -0.51964527626E+02  0.33375189552E+02  0.16451962423E+02  0.63920907977E+02  0.10000000000E+01 0.  0.
<mgrwt>
<rscale>  0 0.12499992E+03</rscale>
<asrwt>0</asrwt>
<pdfrwt beam="2">  1        4 0.10295565E-01 0.12499992E+03</pdfrwt>
<pdfrwt beam="1">  1       -4 0.23713155E-01 0.12499992E+03</pdfrwt>
<totfact> 0.19245103E+03</totfact>
</mgrwt>
</event>
<event>
 5    1  0.1422067E-002  0.1249974E+03  0.7818608E-02  0.1235073E+00
          4   -1    0    0  501    0  0.00000000000E+00  0.00000000000E+00  0.21822022234E+02  0.21858946782E+02  0.12700000000E+01 0.  1.
         -4   -1    0    0    0  501 -0.00000000000E+00 -0.00000000000E+00 -0.17880689480E+03  0.17881140492E+03  0.12700000000E+01 0.  1.
         25    2    1    2    0    0  0.00000000000E+00  0.00000000000E+00 -0.15698487257E+03  0.20067035170E+03  0.12499735932E+03 0.  0.
    9000005    1    3    3    0    0  0.38049213629E+01  0.47744928735E+02 -0.14292925558E+03  0.15074424615E+03  0.10000000000E+01 0.  0.
    9000005    1    3    3    0    0 -0.38049213629E+01 -0.47744928735E+02 -0.14055616987E+02  0.49926105550E+02  0.10000000000E+01 0.  0.
<mgrwt>
<rscale>  0 0.12499736E+03</rscale>
<asrwt>0</asrwt>
<pdfrwt beam="1">  1        4 0.54606854E-02 0.12499736E+03</pdfrwt>
<pdfrwt beam="2">  1       -4 0.44706899E-01 0.12499736E+03</pdfrwt>
<totfact> 0.16296230E+03</totfact>
</mgrwt>
</event>
<event>
 5    1  0.1422067E-002  0.1249988E+03  0.7818608E-02  0.1235071E+00
          4   -1    0    0  501    0  0.00000000000E+00  0.00000000000E+00  0.47412238132E+02  0.47429244403E+02  0.12700000000E+01 0.  1.
         -4   -1    0    0    0  501 -0.00000000000E+00 -0.00000000000E+00 -0.82350812312E+02  0.82360604590E+02  0.12700000000E+01 0.  1.
         25    2    1    2    0    0  0.00000000000E+00  0.00000000000E+00 -0.34938574180E+02  0.12978984899E+03  0.12499880374E+03 0.  0.
    9000005    1    3    3    0    0 -0.76293922140E+01  0.34519405234E+02  0.36036168816E+02  0.50491607483E+02  0.10000000000E+01 0.  0.
    9000005    1    3    3    0    0  0.76293922140E+01 -0.34519405234E+02 -0.70974742996E+02  0.79298241510E+02  0.10000000000E+01 0.  0.
<mgrwt>
<rscale>  0 0.12499880E+03</rscale>
<asrwt>0</asrwt>
<pdfrwt beam="1">  1        4 0.11856409E-01 0.12499880E+03</pdfrwt>
<pdfrwt beam="2">  1       -4 0.20591053E-01 0.12499880E+03</pdfrwt>
<totfact> 0.19576233E+03</totfact>
</mgrwt>
</event>
<event>
 5    1  0.1422067E-002  0.1250034E+03  0.7818608E-02  0.1235064E+00
          4   -1    0    0  501    0  0.00000000000E+00  0.00000000000E+00  0.51215385515E+03  0.51215542978E+03  0.12700000000E+01 0.  1.
         -4   -1    0    0    0  501 -0.00000000000E+00 -0.00000000000E+00 -0.75730542295E+01  0.76788052692E+01  0.12700000000E+01 0.  1.
         25    2    1    2    0    0  0.00000000000E+00  0.00000000000E+00  0.50458080092E+03  0.51983423504E+03  0.12500338901E+03 0.  0.
    9000005    1    3    3    0    0 -0.45759794028E+02 -0.39717375146E+02  0.31590866316E+03  0.32166863711E+03  0.10000000000E+01 0.  0.
    9000005    1    3    3    0    0  0.45759794028E+02  0.39717375146E+02  0.18867213776E+03  0.19816559794E+03  0.10000000000E+01 0.  0.
<mgrwt>
<rscale>  0 0.12500339E+03</rscale>
<asrwt>0</asrwt>
<pdfrwt beam="1">  1        4 0.12805186E+00 0.12500339E+03</pdfrwt>
<pdfrwt beam="2">  1       -4 0.19066796E-02 0.12500339E+03</pdfrwt>
<totfact> 0.84529611E+02</totfact>
</mgrwt>
</event>
<event>
 5    1  0.1422067E-002  0.1250067E+03  0.7818608E-02  0.1235059E+00
          4   -1    0    0  501    0  0.00000000000E+00  0.00000000000E+00  0.39692819666E+02  0.39713131746E+02  0.12700000000E+01 0.  1.
         -4   -1    0    0    0  501 -0.00000000000E+00 -0.00000000000E+00 -0.98372973808E+02  0.98381171348E+02  0.12700000000E+01 0.  1.
         25    2    1    2    0    0  0.00000000000E+00  0.00000000000E+00 -0.58680154141E+02  0.13809430309E+03  0.12500670405E+03 0.  0.
    9000005    1    3    3    0    0 -0.48310469137E+02 -0.37992412851E+02 -0.41855066871E+02  0.74365122774E+02  0.10000000000E+01 0.  0.
    9000005    1    3    3    0    0  0.48310469137E+02  0.37992412851E+02 -0.16825087270E+02  0.63729180319E+02  0.10000000000E+01 0.  0.
<mgrwt>
<rscale>  0 0.12500670E+03</rscale>
<asrwt>0</asrwt>
<pdfrwt beam="1">  1        4 0.99267688E-02 0.12500670E+03</pdfrwt>
<pdfrwt beam="2">  1       -4 0.24596807E-01 0.12500670E+03</pdfrwt>
<totfact> 0.19135271E+03</totfact>
</mgrwt>
</event>
<event>
 5    1  0.1422067E-002  0.1249994E+03  0.7818608E-02  0.1235070E+00
         -4   -1    0    0    0  501 -0.00000000000E+00  0.00000000000E+00  0.57850734657E+03  0.57850874059E+03  0.12700000000E+01 0. -1.
          4   -1    0    0  501    0  0.00000000000E+00 -0.00000000000E+00 -0.66910919269E+01  0.68105514589E+01  0.12700000000E+01 0. -1.
         25    2    1    2    0    0  0.00000000000E+00  0.00000000000E+00  0.57181625465E+03  0.58531929205E+03  0.12499937827E+03 0.  0.
    9000005    1    3    3    0    0 -0.51142137050E+02 -0.35571621689E+02  0.30901591972E+03  0.31523435265E+03  0.10000000000E+01 0.  0.
    9000005    1    3    3    0    0  0.51142137050E+02  0.35571621689E+02  0.26280033493E+03  0.27008493940E+03  0.10000000000E+01 0.  0.
<mgrwt>
<rscale>  0 0.12499938E+03</rscale>
<asrwt>0</asrwt>
<pdfrwt beam="2">  1        4 0.16878798E-02 0.12499938E+03</pdfrwt>
<pdfrwt beam="1">  1       -4 0.14464194E+00 0.12499938E+03</pdfrwt>
<totfact> 0.75382716E+02</totfact>
</mgrwt>
</event>
<event>
 5    1  0.1422067E-002  0.1249995E+03  0.7818608E-02  0.1235070E+00
         -4   -1    0    0    0  501 -0.00000000000E+00  0.00000000000E+00  0.23778133006E+02  0.23812024468E+02  0.12700000000E+01 0.  1.
          4   -1    0    0  501    0  0.00000000000E+00 -0.00000000000E+00 -0.16412434113E+03  0.16412925471E+03  0.12700000000E+01 0.  1.
         25    2    1    2    0    0  0.00000000000E+00  0.00000000000E+00 -0.14034620813E+03  0.18794127918E+03  0.12499946514E+03 0.  0.
    9000005    1    3    3    0    0 -0.50274101138E+02 -0.15534753031E+02 -0.19488020554E+02  0.56121268179E+02  0.10000000000E+01 0.  0.
    9000005    1    3    3    0    0  0.50274101138E+02  0.15534753031E+02 -0.12085818757E+03  0.13182001100E+03  0.10000000000E+01 0.  0.
<mgrwt>
<rscale>  0 0.12499947E+03</rscale>
<asrwt>0</asrwt>
<pdfrwt beam="2">  1        4 0.41035933E-01 0.12499947E+03</pdfrwt>
<pdfrwt beam="1">  1       -4 0.59493844E-02 0.12499947E+03</pdfrwt>
<totfact> 0.16816766E+03</totfact>
</mgrwt>
</event>
<event>
 5    1  0.1422067E-002  0.1250039E+03  0.7818608E-02  0.1235063E+00
         -4   -1    0    0    0  501 -0.00000000000E+00  0.00000000000E+00  0.93023558079E+02  0.93032226985E+02  0.12700000000E+01 0. -1.
          4   -1    0    0  501    0  0.00000000000E+00 -0.00000000000E+00 -0.41974458877E+02  0.41993667356E+02  0.12700000000E+01 0. -1.
         25    2    1    2    0    0  0.00000000000E+00  0.00000000000E+00  0.51049099203E+02  0.13502589434E+03  0.12500392639E+03 0.  0.
    9000005    1    3    3    0    0 -0.15008696339E+00  0.29510439096E+02  0.85028339252E+02  0.90009482932E+02  0.10000000000E+01 0.  0.
    9000005    1    3    3    0    0  0.15008696339E+00 -0.29510439096E+02 -0.33979240050E+02  0.45016411408E+02  0.10000000000E+01 0.  0.
<mgrwt>
<rscale>  0 0.12500393E+03</rscale>
<asrwt>0</asrwt>
<pdfrwt beam="2">  1        4 0.10497099E-01 0.12500393E+03</pdfrwt>
<pdfrwt beam="1">  1       -4 0.23259374E-01 0.12500393E+03</pdfrwt>
<totfact> 0.19296013E+03</totfact>
</mgrwt>
</event>
<event>
 5    1  0.1422067E-002  0.1250128E+03  0.7818608E-02  0.1235049E+00
          4   -1    0    0  501    0  0.00000000000E+00  0.00000000000E+00  0.10202371839E+03  0.10203162262E+03  0.12700000000E+01 0.  1.
         -4   -1    0    0    0  501 -0.00000000000E+00 -0.00000000000E+00 -0.38275598621E+02  0.38296662385E+02  0.12700000000E+01 0.  1.
         25    2    1    2    0    0  0.00000000000E+00  0.00000000000E+00  0.63748119771E+02  0.14032828501E+03  0.12501281854E+03 0.  0.
    9000005    1    3    3    0    0  0.54130079255E+02 -0.30877964988E+02  0.37202973745E+02  0.72584953382E+02  0.10000000000E+01 0.  0.
    9000005    1    3    3    0    0 -0.54130079255E+02  0.30877964988E+02  0.26545146026E+02  0.67743331624E+02  0.10000000000E+01 0.  0.
<mgrwt>
<rscale>  0 0.12501282E+03</rscale>
<asrwt>0</asrwt>
<pdfrwt beam="1">  1        4 0.25509550E-01 0.12501282E+03</pdfrwt>
<pdfrwt beam="2">  1       -4 0.95725207E-02 0.12501282E+03</pdfrwt>
<totfact> 0.19017875E+03</totfact>
</mgrwt>
</event>
<event>
 5    1  0.1422067E-002  0.1249999E+03  0.7818608E-02  0.1235069E+00
          4   -1    0    0  501    0  0.00000000000E+00  0.00000000000E+00  0.54706121990E+02  0.54720861499E+02  0.12700000000E+01 0.  1.
         -4   -1    0    0    0  501 -0.00000000000E+00 -0.00000000000E+00 -0.71374182547E+02  0.71385480556E+02  0.12700000000E+01 0.  1.
         25    2    1    2    0    0  0.00000000000E+00  0.00000000000E+00 -0.16668060557E+02  0.12610634206E+03  0.12499994106E+03 0.  0.
    9000005    1    3    3    0    0  0.75705262108E+01 -0.58666233609E+02  0.11998926870E+02  0.60365669705E+02  0.10000000000E+01 0.  0.
    9000005    1    3    3    0    0 -0.75705262108E+01  0.58666233609E+02 -0.28666987427E+02  0.65740672350E+02  0.10000000000E+01 0.  0.
<mgrwt>
<rscale>  0 0.12499994E+03</rscale>
<asrwt>0</asrwt>
<pdfrwt beam="1">  1        4 0.13679785E-01 0.12499994E+03</pdfrwt>
<pdfrwt beam="2">  1       -4 0.17846800E-01 0.12499994E+03</pdfrwt>
<totfact> 0.19775202E+03</totfact>
</mgrwt>
</event>
<event>
 5    1  0.1422067E-002  0.1249995E+03  0.7818608E-02  0.1235070E+00
         -4   -1    0    0    0  501 -0.00000000000E+00  0.00000000000E+00  0.65140368184E+02  0.65152747196E+02  0.12700000000E+01 0.  1.
          4   -1    0    0  501    0  0.00000000000E+00 -0.00000000000E+00 -0.59941347284E+02  0.59954799760E+02  0.12700000000E+01 0.  1.
         25    2    1    2    0    0  0.00000000000E+00  0.00000000000E+00  0.51990208995E+01  0.12510754696E+03  0.12499947395E+03 0.  0.
    9000005    1    3    3    0    0  0.50972752832E+02  0.79304482324E+01  0.37901858595E+02  0.64020812440E+02  0.10000000000E+01 0.  0.
    9000005    1    3    3    0    0 -0.50972752832E+02 -0.79304482324E+01 -0.32702837695E+02  0.61086734516E+02  0.10000000000E+01 0.  0.
<mgrwt>
<rscale>  0 0.12499947E+03</rscale>
<asrwt>0</asrwt>
<pdfrwt beam="2">  1        4 0.14988566E-01 0.12499947E+03</pdfrwt>
<pdfrwt beam="1">  1       -4 0.16288321E-01 0.12499947E+03</pdfrwt>
<totfact> 0.19829468E+03</totfact>
</mgrwt>
</event>
<event>
 5    1  0.1422067E-002  0.1250005E+03  0.7818608E-02  0.1235069E+00
         -4   -1    0    0    0  501 -0.00000000000E+00  0.00000000000E+00  0.46839603306E+02  0.46856817410E+02  0.12700000000E+01 0. -1.
          4   -1    0    0  501    0  0.00000000000E+00 -0.00000000000E+00 -0.83359590045E+02  0.83369263836E+02  0.12700000000E+01 0. -1.
         25    2    1    2    0    0  0.00000000000E+00  0.00000000000E+00 -0.36519986740E+02  0.13022608125E+03  0.12500049122E+03 0.  0.
    9000005    1    3    3    0    0 -0.62396959721E+02 -0.23669560415E+01 -0.20874411820E+02  0.65846215777E+02  0.10000000000E+01 0.  0.
    9000005    1    3    3    0    0  0.62396959721E+02  0.23669560415E+01 -0.15645574919E+02  0.64379865469E+02  0.10000000000E+01 0.  0.
<mgrwt>
<rscale>  0 0.12500049E+03</rscale>
<asrwt>0</asrwt>
<pdfrwt beam="2">  1        4 0.20843258E-01 0.12500049E+03</pdfrwt>
<pdfrwt beam="1">  1       -4 0.11713262E-01 0.12500049E+03</pdfrwt>
<totfact> 0.19552012E+03</totfact>
</mgrwt>
</event>
<event>
 5    1  0.1422067E-002  0.1250022E+03  0.7818608E-02  0.1235066E+00
          4   -1    0    0  501    0  0.00000000000E+00  0.00000000000E+00  0.12367872673E+03  0.12368524708E+03  0.12700000000E+01 0.  1.
         -4   -1    0    0    0  501 -0.00000000000E+00 -0.00000000000E+00 -0.31564833878E+02  0.31590372549E+02  0.12700000000E+01 0.  1.
         25    2    1    2    0    0  0.00000000000E+00  0.00000000000E+00  0.92113892855E+02  0.15527561963E+03  0.12500219516E+03 0.  0.
    9000005    1    3    3    0    0 -0.19986282010E+02  0.24894782199E+01 -0.27428851123E+02  0.34043954593E+02  0.10000000000E+01 0.  0.
    9000005    1    3    3    0    0  0.19986282010E+02 -0.24894782199E+01  0.11954274398E+03  0.12123166504E+03  0.10000000000E+01 0.  0.
<mgrwt>
<rscale>  0 0.12500220E+03</rscale>
<asrwt>0</asrwt>
<pdfrwt beam="1">  1        4 0.30923689E-01 0.12500220E+03</pdfrwt>
<pdfrwt beam="2">  1       -4 0.78952159E-02 0.12500220E+03</pdfrwt>
<totfact> 0.18281450E+03</totfact>
</mgrwt>
</event>
<event>
 5    1  0.1422067E-002  0.1249972E+03  0.7818608E-02  0.1235074E+00
         -4   -1    0    0    0  501 -0.00000000000E+00  0.00000000000E+00  0.17819498152E+02  0.17864697434E+02  0.12700000000E+01 0.  1.
          4   -1    0    0  501    0  0.00000000000E+00 -0.00000000000E+00 -0.21887773342E+03  0.21888141787E+03  0.12700000000E+01 0.  1.
         25    2    1    2    0    0  0.00000000000E+00  0.00000000000E+00 -0.20105823527E+03  0.23674611530E+03  0.12499723653E+03 0.  0.
    9000005    1    3    3    0    0  0.11422073110E+02 -0.41496894655E+02 -0.18633891211E+03  0.19124760440E+03  0.10000000000E+01 0.  0.
    9000005    1    3    3    0    0 -0.11422073110E+02  0.41496894655E+02 -0.14719323154E+02  0.45498510901E+02  0.10000000000E+01 0.  0.
<mgrwt>
<rscale>  0 0.12499724E+03</rscale>
<asrwt>0</asrwt>
<pdfrwt beam="2">  1        4 0.54725535E-01 0.12499724E+03</pdfrwt>
<pdfrwt beam="1">  1       -4 0.44609857E-02 0.12499724E+03</pdfrwt>
<totfact> 0.14950169E+03</totfact>
</mgrwt>
</event>
<event>
 5    1  0.1422067E-002  0.1250008E+03  0.7818608E-02  0.1235068E+00
         -4   -1    0    0    0  501 -0.00000000000E+00  0.00000000000E+00  0.73562506051E+02  0.73573468020E+02  0.12700000000E+01 0.  1.
          4   -1    0    0  501    0  0.00000000000E+00 -0.00000000000E+00 -0.53079241274E+02  0.53094432422E+02  0.12700000000E+01 0.  1.
         25    2    1    2    0    0  0.00000000000E+00  0.00000000000E+00  0.20483264777E+02  0.12666790044E+03  0.12500077146E+03 0.  0.
    9000005    1    3    3    0    0  0.15740909523E+02  0.21131619951E+02 -0.47179592246E+02  0.54048455286E+02  0.10000000000E+01 0.  0.
    9000005    1    3    3    0    0 -0.15740909523E+02 -0.21131619951E+02  0.67662857023E+02  0.72619445156E+02  0.10000000000E+01 0.  0.
<mgrwt>
<rscale>  0 0.12500077E+03</rscale>
<asrwt>0</asrwt>
<pdfrwt beam="2">  1        4 0.13273080E-01 0.12500077E+03</pdfrwt>
<pdfrwt beam="1">  1       -4 0.18393895E-01 0.12500077E+03</pdfrwt>
<totfact> 0.19744514E+03</totfact>
</mgrwt>
</event>
<event>
 5    1  0.1422067E-002  0.1249957E+03  0.7818608E-02  0.1235076E+00
          4   -1    0    0  501    0  0.00000000000E+00  0.00000000000E+00  0.30302935780E+02  0.30329537037E+02  0.12700000000E+01 0.  1.
         -4   -1    0    0    0  501 -0.00000000000E+00 -0.00000000000E+00 -0.12881146909E+03  0.12881772964E+03  0.12700000000E+01 0.  1.
         25    2    1    2    0    0  0.00000000000E+00  0.00000000000E+00 -0.98508533308E+02  0.15914726667E+03  0.12499568535E+03 0.  0.
    9000005    1    3    3    0    0  0.53384766917E+02 -0.67127990266E+01 -0.87909297844E+01  0.54527749413E+02  0.10000000000E+01 0.  0.
    9000005    1    3    3    0    0 -0.53384766917E+02  0.67127990266E+01 -0.89717603523E+02  0.10461951726E+03  0.10000000000E+01 0.  0.
<mgrwt>
<rscale>  0 0.12499569E+03</rscale>
<asrwt>0</asrwt>
<pdfrwt beam="1">  1        4 0.75798420E-02 0.12499569E+03</pdfrwt>
<pdfrwt beam="2">  1       -4 0.32206974E-01 0.12499569E+03</pdfrwt>
<totfact> 0.18099774E+03</totfact>
</mgrwt>
</event>
<event>
 5    1  0.1422067E-002  0.1249964E+03  0.7818608E-02  0.1235075E+00
         -4   -1    0    0    0  501 -0.00000000000E+00  0.00000000000E+00  0.16687129023E+02  0.16735386911E+02  0.12700000000E+01 0.  1.
          4   -1    0    0  501    0  0.00000000000E+00 -0.00000000000E+00 -0.23368631773E+03  0.23368976870E+03  0.12700000000E+01 0.  1.
         25    2    1    2    0    0  0.00000000000E+00  0.00000000000E+00 -0.21699918870E+03  0.25042515561E+03  0.12499644260E+03 0.  0.
    9000005    1    3    3    0    0 -0.84652476329E+01 -0.55881057406E+02 -0.55090438016E+02  0.78932308689E+02  0.10000000000E+01 0.  0.
    9000005    1    3    3    0    0  0.84652476329E+01  0.55881057406E+02 -0.16190875069E+03  0.17149284692E+03  0.10000000000E+01 0.  0.
<mgrwt>
<rscale>  0 0.12499644E+03</rscale>
<asrwt>0</asrwt>
<pdfrwt beam="2">  1        4 0.58428033E-01 0.12499644E+03</pdfrwt>
<pdfrwt beam="1">  1       -4 0.41782466E-02 0.12499644E+03</pdfrwt>
<totfact> 0.14485041E+03</totfact>
</mgrwt>
</event>
<event>
 5    1  0.1422067E-002  0.1249958E+03  0.7818608E-02  0.1235076E+00
         -4   -1    0    0    0  501 -0.00000000000E+00  0.00000000000E+00  0.17179572526E+02  0.17226450946E+02  0.12700000000E+01 0. -1.
          4   -1    0    0  501    0  0.00000000000E+00 -0.00000000000E+00 -0.22700392450E+03  0.22700747705E+03  0.12700000000E+01 0. -1.
         25    2    1    2    0    0  0.00000000000E+00  0.00000000000E+00 -0.20982435197E+03  0.24423392800E+03  0.12499581155E+03 0.  0.
    9000005    1    3    3    0    0 -0.54191331122E+02  0.14159406219E+02 -0.50770172144E+02  0.75602906907E+02  0.10000000000E+01 0.  0.
    9000005    1    3    3    0    0  0.54191331122E+02 -0.14159406219E+02 -0.15905417983E+03  0.16863102109E+03  0.10000000000E+01 0.  0.
<mgrwt>
<rscale>  0 0.12499581E+03</rscale>
<asrwt>0</asrwt>
<pdfrwt beam="2">  1        4 0.56757275E-01 0.12499581E+03</pdfrwt>
<pdfrwt beam="1">  1       -4 0.43011977E-02 0.12499581E+03</pdfrwt>
<totfact> 0.14693111E+03</totfact>
</mgrwt>
</event>
<event>
 5    1  0.1422067E-002  0.1250014E+03  0.7818608E-02  0.1235067E+00
          4   -1    0    0  501    0  0.00000000000E+00  0.00000000000E+00  0.77187945634E+01  0.78225756315E+01  0.12700000000E+01 0.  1.
         -4   -1    0    0    0  501 -0.00000000000E+00 -0.00000000000E+00 -0.50259706229E+03  0.50259866685E+03  0.12700000000E+01 0.  1.
         25    2    1    2    0    0  0.00000000000E+00  0.00000000000E+00 -0.49487826772E+03  0.51042124248E+03  0.12500137964E+03 0.  0.
    9000005    1    3    3    0    0  0.50913230156E+02 -0.11978177474E+02 -0.10778569294E+03  0.11980980487E+03  0.10000000000E+01 0.  0.
    9000005    1    3    3    0    0 -0.50913230156E+02  0.11978177474E+02 -0.38709257478E+03  0.39061143761E+03  0.10000000000E+01 0.  0.
<mgrwt>
<rscale>  0 0.12500138E+03</rscale>
<asrwt>0</asrwt>
<pdfrwt beam="1">  1        4 0.19428735E-02 0.12500138E+03</pdfrwt>
<pdfrwt beam="2">  1       -4 0.12566233E+00 0.12500138E+03</pdfrwt>
<totfact> 0.85970200E+02</totfact>
</mgrwt>
</event>
<event>
 5    1  0.1422067E-002  0.1249989E+03  0.7818608E-02  0.1235071E+00
         -4   -1    0    0    0  501 -0.00000000000E+00  0.00000000000E+00  0.65568717318E+01  0.66787324327E+01  0.12700000000E+01 0. -1.
          4   -1    0    0  501    0  0.00000000000E+00 -0.00000000000E+00 -0.59013094422E+03  0.59013231078E+03  0.12700000000E+01 0. -1.
         25    2    1    2    0    0  0.00000000000E+00  0.00000000000E+00 -0.58357407249E+03  0.59681104321E+03  0.12499889287E+03 0.  0.
    9000005    1    3    3    0    0 -0.45301598105E+02  0.42227155173E+02 -0.25189373130E+03  0.25939703023E+03  0.10000000000E+01 0.  0.
    9000005    1    3    3    0    0  0.45301598105E+02 -0.42227155173E+02 -0.33168034119E+03  0.33741401298E+03  0.10000000000E+01 0.  0.
<mgrwt>
<rscale>  0 0.12499889E+03</rscale>
<asrwt>0</asrwt>
<pdfrwt beam="2">  1        4 0.14754796E+00 0.12499889E+03</pdfrwt>
<pdfrwt beam="1">  1       -4 0.16546233E-02 0.12499889E+03</pdfrwt>
<totfact> 0.73907535E+02</totfact>
</mgrwt>
</event>
<event>
 5    1  0.1422067E-002  0.1249959E+03  0.7818608E-02  0.1235076E+00
          4   -1    0    0  501    0  0.00000000000E+00  0.00000000000E+00  0.12251097629E+02  0.12316748480E+02  0.12700000000E+01 0.  1.
         -4   -1    0    0    0  501 -0.00000000000E+00 -0.00000000000E+00 -0.31790920594E+03  0.31791174266E+03  0.12700000000E+01 0.  1.
         25    2    1    2    0    0  0.00000000000E+00  0.00000000000E+00 -0.30565810831E+03  0.33022849114E+03  0.12499590867E+03 0.  0.
    9000005    1    3    3    0    0  0.45044299359E+02  0.40955491364E+02 -0.19006534689E+03  0.19958000217E+03  0.10000000000E+01 0.  0.
    9000005    1    3    3    0    0 -0.45044299359E+02 -0.40955491364E+02 -0.11559276142E+03  0.13064848897E+03  0.10000000000E+01 0.  0.
<mgrwt>
<rscale>  0 0.12499591E+03</rscale>
<asrwt>0</asrwt>
<pdfrwt beam="1">  1        4 0.30712989E-02 0.12499591E+03</pdfrwt>
<pdfrwt beam="2">  1       -4 0.79485798E-01 0.12499591E+03</pdfrwt>
<totfact> 0.12165368E+03</totfact>
</mgrwt>
</event>
<event>
 5    1  0.1422067E-002  0.1250007E+03  0.7818608E-02  0.1235068E+00
         -4   -1    0    0    0  501 -0.00000000000E+00  0.00000000000E+00  0.21209419942E+01  0.24721033438E+01  0.12700000000E+01 0.  1.
          4   -1    0    0  501    0  0.00000000000E+00 -0.00000000000E+00 -0.17006079801E+04  0.17006084543E+04  0.12700000000E+01 0.  1.
         25    2    1    2    0    0  0.00000000000E+00  0.00000000000E+00 -0.16984870381E+04  0.17030805577E+04  0.12500066902E+03 0.  0.
    9000005    1    3    3    0    0  0.54873968225E+02  0.29659544716E+02 -0.79745073208E+03  0.79988718647E+03  0.10000000000E+01 0.  0.
    9000005    1    3    3    0    0 -0.54873968225E+02 -0.29659544716E+02 -0.90103630603E+03  0.90319337120E+03  0.10000000000E+01 0.  0.
<mgrwt>
<rscale>  0 0.12500067E+03</rscale>
<asrwt>0</asrwt>
<pdfrwt beam="2">  1        4 0.42519163E+00 0.12500067E+03</pdfrwt>
<pdfrwt beam="1">  1       -4 0.57419578E-03 0.12500067E+03</pdfrwt>
<totfact> 0.70059140E+01</totfact>
</mgrwt>
</event>
<event>
 5    1  0.1422067E-002  0.1250003E+03  0.7818608E-02  0.1235069E+00
          4   -1    0    0  501    0  0.00000000000E+00  0.00000000000E+00  0.41838947270E+02  0.41858217934E+02  0.12700000000E+01 0. -1.
         -4   -1    0    0    0  501 -0.00000000000E+00 -0.00000000000E+00 -0.93319254913E+02  0.93327896352E+02  0.12700000000E+01 0. -1.
         25    2    1    2    0    0  0.00000000000E+00  0.00000000000E+00 -0.51480307643E+02  0.13518611429E+03  0.12500025368E+03 0.  0.
    9000005    1    3    3    0    0 -0.17088843357E+02 -0.55905377461E+02 -0.49626718163E+02  0.76689314457E+02  0.10000000000E+01 0.  0.
    9000005    1    3    3    0    0  0.17088843357E+02  0.55905377461E+02 -0.18535894805E+01  0.58496799829E+02  0.10000000000E+01 0.  0.
<mgrwt>
<rscale>  0 0.12500025E+03</rscale>
<asrwt>0</asrwt>
<pdfrwt beam="1">  1        4 0.10463226E-01 0.12500025E+03</pdfrwt>
<pdfrwt beam="2">  1       -4 0.23333302E-01 0.12500025E+03</pdfrwt>
<totfact> 0.19289279E+03</totfact>
</mgrwt>
</event>
<event>
 5    1  0.1422067E-002  0.1250000E+03  0.7818608E-02  0.1235069E+00
          4   -1    0    0  501    0  0.00000000000E+00  0.00000000000E+00  0.63240409233E+02  0.63253160079E+02  0.12700000000E+01 0. -1.
         -4   -1    0    0    0  501 -0.00000000000E+00 -0.00000000000E+00 -0.61742716889E+02  0.61755776967E+02  0.12700000000E+01 0. -1.
         25    2    1    2    0    0  0.00000000000E+00  0.00000000000E+00  0.14976923443E+01  0.12500893705E+03  0.12499996504E+03 0.  0.
    9000005    1    3    3    0    0  0.57955519580E+02 -0.23341554016E+02 -0.50719823730E+00  0.62489420254E+02  0.10000000000E+01 0.  0.
    9000005    1    3    3    0    0 -0.57955519580E+02  0.23341554016E+02  0.20048905816E+01  0.62519516792E+02  0.10000000000E+01 0.  0.
<mgrwt>
<rscale>  0 0.12499997E+03</rscale>
<asrwt>0</asrwt>
<pdfrwt beam="1">  1        4 0.15813329E-01 0.12499997E+03</pdfrwt>
<pdfrwt beam="2">  1       -4 0.15438906E-01 0.12499997E+03</pdfrwt>
<totfact> 0.19834587E+03</totfact>
</mgrwt>
</event>
<event>
 5    1  0.1422067E-002  0.1249967E+03  0.7818608E-02  0.1235075E+00
          4   -1    0    0  501    0  0.00000000000E+00  0.00000000000E+00  0.10204470325E+04  0.10204478228E+04  0.12700000000E+01 0.  1.
         -4   -1    0    0    0  501 -0.00000000000E+00 -0.00000000000E+00 -0.37216188888E+01  0.39323462657E+01  0.12700000000E+01 0.  1.
         25    2    1    2    0    0  0.00000000000E+00  0.00000000000E+00  0.10167254136E+04  0.10243801691E+04  0.12499665625E+03 0.  0.
    9000005    1    3    3    0    0 -0.52340679649E+02 -0.11565228074E+02  0.77160026465E+03  0.77346058054E+03  0.10000000000E+01 0.  0.
    9000005    1    3    3    0    0  0.52340679649E+02  0.11565228074E+02  0.24512514898E+03  0.25091958854E+03  0.10000000000E+01 0.  0.
<mgrwt>
<rscale>  0 0.12499666E+03</rscale>
<asrwt>0</asrwt>
<pdfrwt beam="1">  1        4 0.25513824E+00 0.12499666E+03</pdfrwt>
<pdfrwt beam="2">  1       -4 0.95684426E-03 0.12499666E+03</pdfrwt>
<totfact> 0.35496119E+02</totfact>
</mgrwt>
</event>
<event>
 5    1  0.1422067E-002  0.1250035E+03  0.7818608E-02  0.1235064E+00
         -4   -1    0    0    0  501 -0.00000000000E+00  0.00000000000E+00  0.17696077511E+03  0.17696533228E+03  0.12700000000E+01 0.  1.
          4   -1    0    0  501    0  0.00000000000E+00 -0.00000000000E+00 -0.22052237736E+02  0.22088777448E+02  0.12700000000E+01 0.  1.
         25    2    1    2    0    0  0.00000000000E+00  0.00000000000E+00  0.15490853738E+03  0.19905410973E+03  0.12500353454E+03 0.  0.
    9000005    1    3    3    0    0 -0.22245901043E+02  0.46464293216E+02  0.13379105721E+03  0.14336965385E+03  0.10000000000E+01 0.  0.
    9000005    1    3    3    0    0  0.22245901043E+02 -0.46464293216E+02  0.21117480169E+02  0.55684455873E+02  0.10000000000E+01 0.  0.
<mgrwt>
<rscale>  0 0.12500353E+03</rscale>
<asrwt>0</asrwt>
<pdfrwt beam="2">  1        4 0.55181966E-02 0.12500353E+03</pdfrwt>
<pdfrwt beam="1">  1       -4 0.44245330E-01 0.12500353E+03</pdfrwt>
<totfact> 0.16358649E+03</totfact>
</mgrwt>
</event>
<event>
 5    1  0.1422067E-002  0.1249948E+03  0.7818608E-02  0.1235077E+00
          4   -1    0    0  501    0  0.00000000000E+00  0.00000000000E+00  0.25400165786E+02  0.25431895760E+02  0.12700000000E+01 0. -1.
         -4   -1    0    0    0  501 -0.00000000000E+00 -0.00000000000E+00 -0.15364529243E+03  0.15365054112E+03  0.12700000000E+01 0. -1.
         25    2    1    2    0    0  0.00000000000E+00  0.00000000000E+00 -0.12824512664E+03  0.17908243688E+03  0.12499482665E+03 0.  0.
    9000005    1    3    3    0    0  0.39729815536E+02 -0.14571894811E+02  0.17533467395E+01  0.42365936620E+02  0.10000000000E+01 0.  0.
    9000005    1    3    3    0    0 -0.39729815536E+02  0.14571894811E+02 -0.12999847338E+03  0.13671650026E+03  0.10000000000E+01 0.  0.
<mgrwt>
<rscale>  0 0.12499483E+03</rscale>
<asrwt>0</asrwt>
<pdfrwt beam="1">  1        4 0.63546642E-02 0.12499483E+03</pdfrwt>
<pdfrwt beam="2">  1       -4 0.38415943E-01 0.12499483E+03</pdfrwt>
<totfact> 0.17197067E+03</totfact>
</mgrwt>
</event>
<event>
 5    1  0.1422067E-002  0.1249987E+03  0.7818608E-02  0.1235071E+00
         -4   -1    0    0    0  501 -0.00000000000E+00  0.00000000000E+00  0.28889670671E+02  0.28917572020E+02  0.12700000000E+01 0. -1.
          4   -1    0    0  501    0  0.00000000000E+00 -0.00000000000E+00 -0.13511374076E+03  0.13511970931E+03  0.12700000000E+01 0. -1.
         25    2    1    2    0    0  0.00000000000E+00  0.00000000000E+00 -0.10622407009E+03  0.16403728133E+03  0.12499870639E+03 0.  0.
    9000005    1    3    3    0    0 -0.84235314118E+01 -0.56859354292E+02 -0.20934237308E+02  0.61181568659E+02  0.10000000000E+01 0.  0.
    9000005    1    3    3    0    0  0.84235314118E+01  0.56859354292E+02 -0.85289832785E+02  0.10285571267E+03  0.10000000000E+01 0.  0.
<mgrwt>
<rscale>  0 0.12499871E+03</rscale>
<asrwt>0</asrwt>
<pdfrwt beam="2">  1        4 0.33782667E-01 0.12499871E+03</pdfrwt>
<pdfrwt beam="1">  1       -4 0.72266518E-02 0.12499871E+03</pdfrwt>
<totfact> 0.17869930E+03</totfact>
</mgrwt>
</event>
<event>
 5    1  0.1422067E-002  0.1250018E+03  0.7818608E-02  0.1235066E+00
          4   -1    0    0  501    0  0.00000000000E+00  0.00000000000E+00  0.72518338165E+02  0.72529457948E+02  0.12700000000E+01 0.  1.
         -4   -1    0    0    0  501 -0.00000000000E+00 -0.00000000000E+00 -0.53844525904E+02  0.53859501203E+02  0.12700000000E+01 0.  1.
         25    2    1    2    0    0  0.00000000000E+00  0.00000000000E+00  0.18673812261E+02  0.12638895915E+03  0.12500183091E+03 0.  0.
    9000005    1    3    3    0    0 -0.41226538492E+02 -0.18422029170E+02  0.53017762756E+02  0.69648272071E+02  0.10000000000E+01 0.  0.
    9000005    1    3    3    0    0  0.41226538492E+02  0.18422029170E+02 -0.34343950495E+02  0.56740687081E+02  0.10000000000E+01 0.  0.
<mgrwt>
<rscale>  0 0.12500183E+03</rscale>
<asrwt>0</asrwt>
<pdfrwt beam="1">  1        4 0.18132846E-01 0.12500183E+03</pdfrwt>
<pdfrwt beam="2">  1       -4 0.13464393E-01 0.12500183E+03</pdfrwt>
<totfact> 0.19759070E+03</totfact>
</mgrwt>
</event>
<event>
 5    1  0.1422067E-002  0.1249998E+03  0.7818608E-02  0.1235070E+00
         -4   -1    0    0    0  501 -0.00000000000E+00  0.00000000000E+00  0.27227617134E+02  0.27257219865E+02  0.12700000000E+01 0. -1.
          4   -1    0    0  501    0  0.00000000000E+00 -0.00000000000E+00 -0.14335574533E+03  0.14336137074E+03  0.12700000000E+01 0. -1.
         25    2    1    2    0    0  0.00000000000E+00  0.00000000000E+00 -0.11612812820E+03  0.17061859060E+03  0.12499984520E+03 0.  0.
    9000005    1    3    3    0    0 -0.29815550451E+02 -0.53604775730E+02 -0.41752975437E+02  0.74207479323E+02  0.10000000000E+01 0.  0.
    9000005    1    3    3    0    0  0.29815550451E+02  0.53604775730E+02 -0.74375152760E+02  0.96411111278E+02  0.10000000000E+01 0.  0.
<mgrwt>
<rscale>  0 0.12499985E+03</rscale>
<asrwt>0</asrwt>
<pdfrwt beam="2">  1        4 0.35843338E-01 0.12499985E+03</pdfrwt>
<pdfrwt beam="1">  1       -4 0.68113082E-02 0.12499985E+03</pdfrwt>
<totfact> 0.17569246E+03</totfact>
</mgrwt>
</event>
<event>
 5    1  0.1422067E-002  0.1250008E+03  0.7818608E-02  0.1235068E+00
          4   -1    0    0  501    0  0.00000000000E+00  0.00000000000E+00  0.68961858984E+02  0.68973552138E+02  0.12700000000E+01 0.  1.
         -4   -1    0    0    0  501 -0.00000000000E+00 -0.00000000000E+00 -0.56620731496E+02  0.56634972722E+02  0.12700000000E+01 0.  1.
         25    2    1    2    0    0  0.00000000000E+00  0.00000000000E+00  0.12341127487E+02  0.12560852486E+03  0.12500079236E+03 0.  0.
    9000005    1    3    3    0    0  0.38556881375E+02 -0.36368124172E+02 -0.27096676216E+02  0.59535732288E+02  0.10000000000E+01 0.  0.
    9000005    1    3    3    0    0 -0.38556881375E+02  0.36368124172E+02  0.39437803703E+02  0.66072792571E+02  0.10000000000E+01 0.  0.
<mgrwt>
<rscale>  0 0.12500079E+03</rscale>
<asrwt>0</asrwt>
<pdfrwt beam="1">  1        4 0.17243707E-01 0.12500079E+03</pdfrwt>
<pdfrwt beam="2">  1       -4 0.14158425E-01 0.12500079E+03</pdfrwt>
<totfact> 0.19801723E+03</totfact>
</mgrwt>
</event>
<event>
 5    1  0.1422067E-002  0.1250037E+03  0.7818608E-02  0.1235063E+00
         -4   -1    0    0    0  501 -0.00000000000E+00  0.00000000000E+00  0.16449555313E+03  0.16450045562E+03  0.12700000000E+01 0.  1.
          4   -1    0    0  501    0  0.00000000000E+00 -0.00000000000E+00 -0.23726017976E+02  0.23759983775E+02  0.12700000000E+01 0.  1.
         25    2    1    2    0    0  0.00000000000E+00  0.00000000000E+00  0.14076953516E+03  0.18826043940E+03  0.12500372400E+03 0.  0.
    9000005    1    3    3    0    0 -0.20072268875E+02  0.51602438963E+02  0.26741465186E+02  0.61496452296E+02  0.10000000000E+01 0.  0.
    9000005    1    3    3    0    0  0.20072268875E+02 -0.51602438963E+02  0.11402806997E+03  0.12676398710E+03  0.10000000000E+01 0.  0.
<mgrwt>
<rscale>  0 0.12500372E+03</rscale>
<asrwt>0</asrwt>
<pdfrwt beam="2">  1        4 0.59363631E-02 0.12500372E+03</pdfrwt>
<pdfrwt beam="1">  1       -4 0.41128746E-01 0.12500372E+03</pdfrwt>
<totfact> 0.16801713E+03</totfact>
</mgrwt>
</event>
<event>
 5    1  0.1422067E-002  0.1249991E+03  0.7818608E-02  0.1235071E+00
          4   -1    0    0  501    0  0.00000000000E+00  0.00000000000E+00  0.12098891375E+03  0.12099557905E+03  0.12700000000E+01 0. -1.
         -4   -1    0    0    0  501 -0.00000000000E+00 -0.00000000000E+00 -0.32265524276E+02  0.32290508773E+02  0.12700000000E+01 0. -1.
         25    2    1    2    0    0  0.00000000000E+00  0.00000000000E+00  0.88723389471E+02  0.15328608782E+03  0.12499913952E+03 0.  0.
    9000005    1    3    3    0    0  0.47721271829E+02 -0.16390439235E+02 -0.84910428805E+00  0.50474619972E+02  0.10000000000E+01 0.  0.
    9000005    1    3    3    0    0 -0.47721271829E+02  0.16390439235E+02  0.89572493759E+02  0.10281146785E+03  0.10000000000E+01 0.  0.
<mgrwt>
<rscale>  0 0.12499914E+03</rscale>
<asrwt>0</asrwt>
<pdfrwt beam="1">  1        4 0.30251185E-01 0.12499914E+03</pdfrwt>
<pdfrwt beam="2">  1       -4 0.80703373E-02 0.12499914E+03</pdfrwt>
<totfact> 0.18378743E+03</totfact>
</mgrwt>
</event>
<event>
 5    1  0.1422067E-002  0.1249984E+03  0.7818608E-02  0.1235072E+00
         -4   -1    0    0    0  501 -0.00000000000E+00  0.00000000000E+00  0.71553704866E+02  0.71564974534E+02  0.12700000000E+01 0. -1.
          4   -1    0    0  501    0  0.00000000000E+00 -0.00000000000E+00 -0.54567516926E+02  0.54582293864E+02  0.12700000000E+01 0. -1.
         25    2    1    2    0    0  0.00000000000E+00  0.00000000000E+00  0.16986187940E+02  0.12614726840E+03  0.12499841096E+03 0.  0.
    9000005    1    3    3    0    0 -0.28200876346E+02  0.11888433271E+02 -0.46491853870E+02  0.55669711231E+02  0.10000000000E+01 0.  0.
    9000005    1    3    3    0    0  0.28200876346E+02 -0.11888433271E+02  0.63478041809E+02  0.70477557167E+02  0.10000000000E+01 0.  0.
<mgrwt>
<rscale>  0 0.12499841E+03</rscale>
<asrwt>0</asrwt>
<pdfrwt beam="2">  1        4 0.13645135E-01 0.12499841E+03</pdfrwt>
<pdfrwt beam="1">  1       -4 0.17891682E-01 0.12499841E+03</pdfrwt>
<totfact> 0.19773699E+03</totfact>
</mgrwt>
</event>
<event>
 5    1  0.1422067E-002  0.1250049E+03  0.7818608E-02  0.1235062E+00
         -4   -1    0    0    0  501 -0.00000000000E+00  0.00000000000E+00  0.12033964076E+03  0.12034634202E+03  0.12700000000E+01 0. -1.
          4   -1    0    0  501    0  0.00000000000E+00 -0.00000000000E+00 -0.32442704033E+02  0.32467552186E+02  0.12700000000E+01 0. -1.
         25    2    1    2    0    0  0.00000000000E+00  0.00000000000E+00  0.87896936724E+02  0.15281389421E+03  0.12500485901E+03 0.  0.
    9000005    1    3    3    0    0  0.28564058642E+02  0.55178544015E+02  0.52146864788E+02  0.81122578071E+02  0.10000000000E+01 0.  0.
    9000005    1    3    3    0    0 -0.28564058642E+02 -0.55178544015E+02  0.35750071936E+02  0.71691316135E+02  0.10000000000E+01 0.  0.
<mgrwt>
<rscale>  0 0.12500486E+03</rscale>
<asrwt>0</asrwt>
<pdfrwt beam="2">  1        4 0.81146198E-02 0.12500486E+03</pdfrwt>
<pdfrwt beam="1">  1       -4 0.30088854E-01 0.12500486E+03</pdfrwt>
<totfact> 0.18399202E+03</totfact>
</mgrwt>
</event>
<event>
 5    1  0.1422067E-002  0.1249951E+03  0.7818608E-02  0.1235077E+00
          4   -1    0    0  501    0  0.00000000000E+00  0.00000000000E+00  0.29669434354E+03  0.29669706165E+03  0.12700000000E+01 0. -1.
         -4   -1    0    0    0  501 -0.00000000000E+00 -0.00000000000E+00 -0.13131467388E+02  0.13192737993E+02  0.12700000000E+01 0. -1.
         25    2    1    2    0    0  0.00000000000E+00  0.00000000000E+00  0.28356287615E+03  0.30988979964E+03  0.12499513266E+03 0.  0.
    9000005    1    3    3    0    0  0.28898452998E+02 -0.79190653586E+01  0.58283433741E+01  0.30541803620E+02  0.10000000000E+01 0.  0.
    9000005    1    3    3    0    0 -0.28898452998E+02  0.79190653586E+01  0.27773453278E+03  0.27934799602E+03  0.10000000000E+01 0.  0.
<mgrwt>
<rscale>  0 0.12499513E+03</rscale>
<asrwt>0</asrwt>
<pdfrwt beam="1">  1        4 0.74181579E-01 0.12499513E+03</pdfrwt>
<pdfrwt beam="2">  1       -4 0.32908657E-02 0.12499513E+03</pdfrwt>
<totfact> 0.12699749E+03</totfact>
</mgrwt>
</event>
<event>
 5    1  0.1422067E-002  0.1250001E+03  0.7818608E-02  0.1235069E+00
         -4   -1    0    0    0  501 -0.00000000000E+00  0.00000000000E+00  0.13897786395E+03  0.13898366655E+03  0.12700000000E+01 0. -1.
          4   -1    0    0  501    0  0.00000000000E+00 -0.00000000000E+00 -0.28086280842E+02  0.28114979487E+02  0.12700000000E+01 0. -1.
         25    2    1    2    0    0  0.00000000000E+00  0.00000000000E+00  0.11089158311E+03  0.16709864604E+03  0.12500005721E+03 0.  0.
    9000005    1    3    3    0    0  0.43588059010E+02 -0.39726993249E+02  0.27819164929E+02  0.65215479897E+02  0.10000000000E+01 0.  0.
    9000005    1    3    3    0    0 -0.43588059010E+02  0.39726993249E+02  0.83072418178E+02  0.10188316614E+03  0.10000000000E+01 0.  0.
<mgrwt>
<rscale>  0 0.12500006E+03</rscale>
<asrwt>0</asrwt>
<pdfrwt beam="2">  1        4 0.70258830E-02 0.12500006E+03</pdfrwt>
<pdfrwt beam="1">  1       -4 0.34748778E-01 0.12500006E+03</pdfrwt>
<totfact> 0.17728686E+03</totfact>
</mgrwt>
</event>
<event>
 5    1  0.1422067E-002  0.1250022E+03  0.7818608E-02  0.1235066E+00
          4   -1    0    0  501    0  0.00000000000E+00  0.00000000000E+00  0.44024660728E+01  0.45819872896E+01  0.12700000000E+01 0. -1.
         -4   -1    0    0    0  501 -0.00000000000E+00 -0.00000000000E+00 -0.86940777168E+03  0.86940869926E+03  0.12700000000E+01 0. -1.
         25    2    1    2    0    0  0.00000000000E+00  0.00000000000E+00 -0.86500530560E+03  0.87399068655E+03  0.12500216580E+03 0.  0.
    9000005    1    3    3    0    0  0.23553962748E+02 -0.34065162097E+02 -0.75971319017E+03  0.76084187303E+03  0.10000000000E+01 0.  0.
    9000005    1    3    3    0    0 -0.23553962748E+02  0.34065162097E+02 -0.10529211543E+03  0.11314881353E+03  0.10000000000E+01 0.  0.
<mgrwt>
<rscale>  0 0.12500217E+03</rscale>
<asrwt>0</asrwt>
<pdfrwt beam="1">  1        4 0.11231756E-02 0.12500217E+03</pdfrwt>
<pdfrwt beam="2">  1       -4 0.21737392E+00 0.12500217E+03</pdfrwt>
<totfact> 0.46294758E+02</totfact>
</mgrwt>
</event>
<event>
 5    1  0.1422067E-002  0.1249992E+03  0.7818608E-02  0.1235071E+00
         -4   -1    0    0    0  501 -0.00000000000E+00  0.00000000000E+00  0.37833326179E+03  0.37833539337E+03  0.12700000000E+01 0. -1.
          4   -1    0    0  501    0  0.00000000000E+00 -0.00000000000E+00 -0.10283529666E+02  0.10361654423E+02  0.12700000000E+01 0. -1.
         25    2    1    2    0    0  0.00000000000E+00  0.00000000000E+00  0.36804973212E+03  0.38869704779E+03  0.12499915858E+03 0.  0.
    9000005    1    3    3    0    0 -0.49720189252E+02 -0.17278255139E+02  0.79283487193E+02  0.95170933911E+02  0.10000000000E+01 0.  0.
    9000005    1    3    3    0    0  0.49720189252E+02  0.17278255139E+02  0.28876624493E+03  0.29352611388E+03  0.10000000000E+01 0.  0.
<mgrwt>
<rscale>  0 0.12499916E+03</rscale>
<asrwt>0</asrwt>
<pdfrwt beam="2">  1        4 0.25809146E-02 0.12499916E+03</pdfrwt>
<pdfrwt beam="1">  1       -4 0.94593342E-01 0.12499916E+03</pdfrwt>
<totfact> 0.10805993E+03</totfact>
</mgrwt>
</event>
<event>
 5    1  0.1422067E-002  0.1249993E+03  0.7818608E-02  0.1235070E+00
          4   -1    0    0  501    0  0.00000000000E+00  0.00000000000E+00  0.14981467105E+03  0.14982005394E+03  0.12700000000E+01 0. -1.
         -4   -1    0    0    0  501 -0.00000000000E+00 -0.00000000000E+00 -0.26052261904E+02  0.26083198621E+02  0.12700000000E+01 0. -1.
         25    2    1    2    0    0  0.00000000000E+00  0.00000000000E+00  0.12376240915E+03  0.17590325256E+03  0.12499928137E+03 0.  0.
    9000005    1    3    3    0    0 -0.27971764915E+00  0.26629561017E+02 -0.17674126130E+02  0.31977906379E+02  0.10000000000E+01 0.  0.
    9000005    1    3    3    0    0  0.27971764915E+00 -0.26629561017E+02  0.14143653528E+03  0.14392534618E+03  0.10000000000E+01 0.  0.
<mgrwt>
<rscale>  0 0.12499928E+03</rscale>
<asrwt>0</asrwt>
<pdfrwt beam="1">  1        4 0.37458207E-01 0.12499928E+03</pdfrwt>
<pdfrwt beam="2">  1       -4 0.65176055E-02 0.12499928E+03</pdfrwt>
<totfact> 0.17334315E+03</totfact>
</mgrwt>
</event>
<event>
 5    1  0.1422067E-002  0.1250049E+03  0.7818608E-02  0.1235062E+00
          4   -1    0    0  501    0  0.00000000000E+00  0.00000000000E+00  0.12083773687E+03  0.12084441051E+03  0.12700000000E+01 0. -1.
         -4   -1    0    0    0  501 -0.00000000000E+00 -0.00000000000E+00 -0.32308890839E+02  0.32333841827E+02  0.12700000000E+01 0. -1.
         25    2    1    2    0    0  0.00000000000E+00  0.00000000000E+00  0.88528846033E+02  0.15317825234E+03  0.12500488155E+03 0.  0.
    9000005    1    3    3    0    0 -0.45857116819E+01  0.32208598802E+02  0.10964879818E+03  0.11437780174E+03  0.10000000000E+01 0.  0.
    9000005    1    3    3    0    0  0.45857116819E+01 -0.32208598802E+02 -0.21119952145E+02  0.38800450603E+02  0.10000000000E+01 0.  0.
<mgrwt>
<rscale>  0 0.12500488E+03</rscale>
<asrwt>0</asrwt>
<pdfrwt beam="1">  1        4 0.30213387E-01 0.12500488E+03</pdfrwt>
<pdfrwt beam="2">  1       -4 0.80811759E-02 0.12500488E+03</pdfrwt>
<totfact> 0.18381515E+03</totfact>
</mgrwt>
</event>
<event>
 5    1  0.1422067E-002  0.1250030E+03  0.7818608E-02  0.1235065E+00
         -4   -1    0    0    0  501 -0.00000000000E+00  0.00000000000E+00  0.17511405845E+03  0.17511866368E+03  0.12700000000E+01 0. -1.
          4   -1    0    0  501    0  0.00000000000E+00 -0.00000000000E+00 -0.22284965548E+02  0.22321124288E+02  0.12700000000E+01 0. -1.
         25    2    1    2    0    0  0.00000000000E+00  0.00000000000E+00  0.15282909291E+03  0.19743978797E+03  0.12500295290E+03 0.  0.
    9000005    1    3    3    0    0 -0.60655076518E+02 -0.12366060691E+02  0.89953637301E+02  0.10919988383E+03  0.10000000000E+01 0.  0.
    9000005    1    3    3    0    0  0.60655076518E+02  0.12366060691E+02  0.62875455605E+02  0.88239904137E+02  0.10000000000E+01 0.  0.
<mgrwt>
<rscale>  0 0.12500295E+03</rscale>
<asrwt>0</asrwt>
<pdfrwt beam="2">  1        4 0.55763369E-02 0.12500295E+03</pdfrwt>
<pdfrwt beam="1">  1       -4 0.43783610E-01 0.12500295E+03</pdfrwt>
<totfact> 0.16423950E+03</totfact>
</mgrwt>
</event>
<event>
 5    1  0.1422067E-002  0.1249994E+03  0.7818608E-02  0.1235070E+00
         -4   -1    0    0    0  501 -0.00000000000E+00  0.00000000000E+00  0.46611935557E+02  0.46629233710E+02  0.12700000000E+01 0. -1.
          4   -1    0    0  501    0  0.00000000000E+00 -0.00000000000E+00 -0.83765183741E+02  0.83774810696E+02  0.12700000000E+01 0. -1.
         25    2    1    2    0    0  0.00000000000E+00  0.00000000000E+00 -0.37153248184E+02  0.13040404441E+03  0.12499940379E+03 0.  0.
    9000005    1    3    3    0    0 -0.26070177325E+02  0.56688053526E+02 -0.22193992689E+02  0.66232642027E+02  0.10000000000E+01 0.  0.
    9000005    1    3    3    0    0  0.26070177325E+02 -0.56688053526E+02 -0.14959255495E+02  0.64171402379E+02  0.10000000000E+01 0.  0.
<mgrwt>
<rscale>  0 0.12499940E+03</rscale>
<asrwt>0</asrwt>
<pdfrwt beam="2">  1        4 0.20944661E-01 0.12499940E+03</pdfrwt>
<pdfrwt beam="1">  1       -4 0.11656350E-01 0.12499940E+03</pdfrwt>
<totfact> 0.19542958E+03</totfact>
</mgrwt>
</event>
<event>
 5    1  0.1422067E-002  0.1249996E+03  0.7818608E-02  0.1235070E+00
         -4   -1    0    0    0  501 -0.00000000000E+00  0.00000000000E+00  0.65512221008E+02  0.65524529768E+02  0.12700000000E+01 0.  1.
          4   -1    0    0  501    0  0.00000000000E+00 -0.00000000000E+00 -0.59601183924E+02  0.59614713160E+02  0.12700000000E+01 0.  1.
         25    2    1    2    0    0  0.00000000000E+00  0.00000000000E+00  0.59110370838E+01  0.12513924293E+03  0.12499955904E+03 0.  0.
    9000005    1    3    3    0    0  0.37974626935E+02 -0.49340486935E+02 -0.24045749702E+01  0.62316433809E+02  0.10000000000E+01 0.  0.
    9000005    1    3    3    0    0 -0.37974626935E+02  0.49340486935E+02  0.83156120540E+01  0.62822809119E+02  0.10000000000E+01 0.  0.
<mgrwt>
<rscale>  0 0.12499956E+03</rscale>
<asrwt>0</asrwt>
<pdfrwt beam="2">  1        4 0.14903526E-01 0.12499956E+03</pdfrwt>
<pdfrwt beam="1">  1       -4 0.16381285E-01 0.12499956E+03</pdfrwt>
<totfact> 0.19827710E+03</totfact>
</mgrwt>
</event>
<event>
 5    1  0.1422067E-002  0.1250083E+03  0.7818608E-02  0.1235056E+00
         -4   -1    0    0    0  501 -0.00000000000E+00  0.00000000000E+00  0.28322564694E+02  0.28351024159E+02  0.12700000000E+01 0. -1.
          4   -1    0    0  501    0  0.00000000000E+00 -0.00000000000E+00 -0.13783778272E+03  0.13784363331E+03  0.12700000000E+01 0. -1.
         25    2    1    2    0    0  0.00000000000E+00  0.00000000000E+00 -0.10951521802E+03  0.16619465747E+03  0.12500832450E+03 0.  0.
    9000005    1    3    3    0    0  0.17624204328E+02  0.58019766633E+02 -0.34645053956E+02  0.69844009492E+02  0.10000000000E+01 0.  0.
    9000005    1    3    3    0    0 -0.17624204328E+02 -0.58019766633E+02 -0.74870164068E+02  0.96350647979E+02  0.10000000000E+01 0.  0.
<mgrwt>
<rscale>  0 0.12500832E+03</rscale>
<asrwt>0</asrwt>
<pdfrwt beam="2">  1        4 0.34463733E-01 0.12500832E+03</pdfrwt>
<pdfrwt beam="1">  1       -4 0.70849303E-02 0.12500832E+03</pdfrwt>
<totfact> 0.17766628E+03</totfact>
</mgrwt>
</event>
<event>
 5    1  0.1422067E-002  0.1250028E+03  0.7818608E-02  0.1235065E+00
         -4   -1    0    0    0  501 -0.00000000000E+00  0.00000000000E+00  0.31591689107E+02  0.31617206085E+02  0.12700000000E+01 0.  1.
          4   -1    0    0  501    0  0.00000000000E+00 -0.00000000000E+00 -0.12357477925E+03  0.12358130509E+03  0.12700000000E+01 0.  1.
         25    2    1    2    0    0  0.00000000000E+00  0.00000000000E+00 -0.91983090148E+02  0.15519851117E+03  0.12500275596E+03 0.  0.
    9000005    1    3    3    0    0  0.60258877497E+02 -0.12133882162E+02 -0.31996625768E+02  0.69304743518E+02  0.10000000000E+01 0.  0.
    9000005    1    3    3    0    0 -0.60258877497E+02  0.12133882162E+02 -0.59986464380E+02  0.85893767657E+02  0.10000000000E+01 0.  0.
<mgrwt>
<rscale>  0 0.12500276E+03</rscale>
<asrwt>0</asrwt>
<pdfrwt beam="2">  1        4 0.30897699E-01 0.12500276E+03</pdfrwt>
<pdfrwt beam="1">  1       -4 0.79019279E-02 0.12500276E+03</pdfrwt>
<totfact> 0.18284916E+03</totfact>
</mgrwt>
</event>
<event>
 5    1  0.1422067E-002  0.1249788E+03  0.7818608E-02  0.1235102E+00
         -4   -1    0    0    0  501 -0.00000000000E+00  0.00000000000E+00  0.10784147689E+04  0.10784155167E+04  0.12700000000E+01 0.  1.
          4   -1    0    0  501    0  0.00000000000E+00 -0.00000000000E+00 -0.35088549960E+01  0.37316167251E+01  0.12700000000E+01 0.  1.
         25    2    1    2    0    0  0.00000000000E+00  0.00000000000E+00  0.10749059139E+04  0.10821471334E+04  0.12497877682E+03 0.  0.
    9000005    1    3    3    0    0 -0.37395763994E+02  0.78206784308E+01  0.96553681396E+03  0.96629288794E+03  0.10000000000E+01 0.  0.
    9000005    1    3    3    0    0  0.37395763994E+02 -0.78206784308E+01  0.10936909991E+03  0.11585424546E+03  0.10000000000E+01 0.  0.
<mgrwt>
<rscale>  0 0.12497878E+03</rscale>
<asrwt>0</asrwt>
<pdfrwt beam="2">  1        4 0.90515206E-03 0.12497878E+03</pdfrwt>
<pdfrwt beam="1">  1       -4 0.26963175E+00 0.12497878E+03</pdfrwt>
<totfact> 0.31871148E+02</totfact>
</mgrwt>
</event>
<event>
 5    1  0.1422067E-002  0.1249974E+03  0.7818608E-02  0.1235073E+00
          4   -1    0    0  501    0  0.00000000000E+00  0.00000000000E+00  0.77487953725E+02  0.77498360450E+02  0.12700000000E+01 0.  1.
         -4   -1    0    0    0  501 -0.00000000000E+00 -0.00000000000E+00 -0.50387189958E+02  0.50403192477E+02  0.12700000000E+01 0.  1.
         25    2    1    2    0    0  0.00000000000E+00  0.00000000000E+00  0.27100763766E+02  0.12790155293E+03  0.12499742335E+03 0.  0.
    9000005    1    3    3    0    0 -0.22282618567E+02 -0.40370677048E+02 -0.29605118556E+02  0.54806657445E+02  0.10000000000E+01 0.  0.
    9000005    1    3    3    0    0  0.22282618567E+02  0.40370677048E+02  0.56705882323E+02  0.73094895482E+02  0.10000000000E+01 0.  0.
<mgrwt>
<rscale>  0 0.12499742E+03</rscale>
<asrwt>0</asrwt>
<pdfrwt beam="1">  1        4 0.19375289E-01 0.12499742E+03</pdfrwt>
<pdfrwt beam="2">  1       -4 0.12600099E-01 0.12499742E+03</pdfrwt>
<totfact> 0.19679076E+03</totfact>
</mgrwt>
</event>
<event>
 5    1  0.1422067E-002  0.1249995E+03  0.7818608E-02  0.1235070E+00
          4   -1    0    0  501    0  0.00000000000E+00  0.00000000000E+00  0.23351264054E+02  0.23385774157E+02  0.12700000000E+01 0. -1.
         -4   -1    0    0    0  501 -0.00000000000E+00 -0.00000000000E+00 -0.16712044525E+03  0.16712527075E+03  0.12700000000E+01 0. -1.
         25    2    1    2    0    0  0.00000000000E+00  0.00000000000E+00 -0.14376918120E+03  0.19051104490E+03  0.12499952307E+03 0.  0.
    9000005    1    3    3    0    0  0.59960754077E+00 -0.26514304852E+02 -0.15812532580E+03  0.16033710285E+03  0.10000000000E+01 0.  0.
    9000005    1    3    3    0    0 -0.59960754077E+00  0.26514304852E+02  0.14356144603E+02  0.30173942050E+02  0.10000000000E+01 0.  0.
<mgrwt>
<rscale>  0 0.12499952E+03</rscale>
<asrwt>0</asrwt>
<pdfrwt beam="1">  1        4 0.58427334E-02 0.12499952E+03</pdfrwt>
<pdfrwt beam="2">  1       -4 0.41785025E-01 0.12499952E+03</pdfrwt>
<totfact> 0.16709365E+03</totfact>
</mgrwt>
</event>
<event>
 5    1  0.1422067E-002  0.1249914E+03  0.7818608E-02  0.1235083E+00
          4   -1    0    0  501    0  0.00000000000E+00  0.00000000000E+00  0.30209965129E+02  0.30236648179E+02  0.12700000000E+01 0. -1.
         -4   -1    0    0    0  501 -0.00000000000E+00 -0.00000000000E+00 -0.12919875469E+03  0.12920499647E+03  0.12700000000E+01 0. -1.
         25    2    1    2    0    0  0.00000000000E+00  0.00000000000E+00 -0.98988789558E+02  0.15944164465E+03  0.12499143007E+03 0.  0.
    9000005    1    3    3    0    0 -0.60541116267E+02  0.84252040964E+01 -0.32935700516E+02  0.69440414684E+02  0.10000000000E+01 0.  0.
    9000005    1    3    3    0    0  0.60541116267E+02 -0.84252040964E+01 -0.66053089042E+02  0.90001229964E+02  0.10000000000E+01 0.  0.
<mgrwt>
<rscale>  0 0.12499143E+03</rscale>
<asrwt>0</asrwt>
<pdfrwt beam="1">  1        4 0.75566072E-02 0.12499143E+03</pdfrwt>
<pdfrwt beam="2">  1       -4 0.32303803E-01 0.12499143E+03</pdfrwt>
<totfact> 0.18087666E+03</totfact>
</mgrwt>
</event>
<event>
 5    1  0.1422067E-002  0.1249837E+03  0.7818608E-02  0.1235095E+00
          4   -1    0    0  501    0  0.00000000000E+00  0.00000000000E+00  0.15529654067E+03  0.15530173355E+03  0.12700000000E+01 0.  1.
         -4   -1    0    0    0  501 -0.00000000000E+00 -0.00000000000E+00 -0.25125275302E+02  0.25157351987E+02  0.12700000000E+01 0.  1.
         25    2    1    2    0    0  0.00000000000E+00  0.00000000000E+00  0.13017126537E+03  0.18045908554E+03  0.12498369184E+03 0.  0.
    9000005    1    3    3    0    0  0.19751083208E+02  0.34692667778E+02 -0.43180563301E+01  0.40166305480E+02  0.10000000000E+01 0.  0.
    9000005    1    3    3    0    0 -0.19751083208E+02 -0.34692667778E+02  0.13448932170E+03  0.14029278006E+03  0.10000000000E+01 0.  0.
<mgrwt>
<rscale>  0 0.12498369E+03</rscale>
<asrwt>0</asrwt>
<pdfrwt beam="1">  1        4 0.38828793E-01 0.12498369E+03</pdfrwt>
<pdfrwt beam="2">  1       -4 0.62859776E-02 0.12498369E+03</pdfrwt>
<totfact> 0.17141841E+03</totfact>
</mgrwt>
</event>
<event>
 5    1  0.1422067E-002  0.1249970E+03  0.7818608E-02  0.1235074E+00
         -4   -1    0    0    0  501 -0.00000000000E+00  0.00000000000E+00  0.53931819158E+02  0.53946770225E+02  0.12700000000E+01 0. -1.
          4   -1    0    0  501    0  0.00000000000E+00 -0.00000000000E+00 -0.72395391920E+02  0.72406530584E+02  0.12700000000E+01 0. -1.
         25    2    1    2    0    0  0.00000000000E+00  0.00000000000E+00 -0.18463572762E+02  0.12635330081E+03  0.12499701239E+03 0.  0.
    9000005    1    3    3    0    0  0.32316155054E+02  0.51274433124E+02  0.61538077744E+01  0.60928406509E+02  0.10000000000E+01 0.  0.
    9000005    1    3    3    0    0 -0.32316155054E+02 -0.51274433124E+02 -0.24617380536E+02  0.65424894299E+02  0.10000000000E+01 0.  0.
<mgrwt>
<rscale>  0 0.12499701E+03</rscale>
<asrwt>0</asrwt>
<pdfrwt beam="2">  1        4 0.18102109E-01 0.12499701E+03</pdfrwt>
<pdfrwt beam="1">  1       -4 0.13486216E-01 0.12499701E+03</pdfrwt>
<totfact> 0.19763221E+03</totfact>
</mgrwt>
</event>
<event>
 5    1  0.1422067E-002  0.1250014E+03  0.7818608E-02  0.1235067E+00
          4   -1    0    0  501    0  0.00000000000E+00  0.00000000000E+00  0.96522759856E+01  0.97354677187E+01  0.12700000000E+01 0.  1.
         -4   -1    0    0    0  501 -0.00000000000E+00 -0.00000000000E+00 -0.40288568161E+03  0.40288768329E+03  0.12700000000E+01 0.  1.
         25    2    1    2    0    0  0.00000000000E+00  0.00000000000E+00 -0.39323340562E+03  0.41262315100E+03  0.12500141379E+03 0.  0.
    9000005    1    3    3    0    0 -0.59987443070E+02  0.15338135006E+02 -0.16868774771E+03  0.17969504149E+03  0.10000000000E+01 0.  0.
    9000005    1    3    3    0    0  0.59987443070E+02 -0.15338135006E+02 -0.22454565791E+03  0.23292810951E+03  0.10000000000E+01 0.  0.
<mgrwt>
<rscale>  0 0.12500141E+03</rscale>
<asrwt>0</asrwt>
<pdfrwt beam="1">  1        4 0.24237195E-02 0.12500141E+03</pdfrwt>
<pdfrwt beam="2">  1       -4 0.10073201E+00 0.12500141E+03</pdfrwt>
<totfact> 0.10312680E+03</totfact>
</mgrwt>
</event>
<event>
 5    1  0.1422067E-002  0.1250001E+03  0.7818608E-02  0.1235069E+00
          4   -1    0    0  501    0  0.00000000000E+00  0.00000000000E+00  0.29446324289E+02  0.29473698684E+02  0.12700000000E+01 0.  1.
         -4   -1    0    0    0  501 -0.00000000000E+00 -0.00000000000E+00 -0.13256475918E+03  0.13257084249E+03  0.12700000000E+01 0.  1.
         25    2    1    2    0    0  0.00000000000E+00  0.00000000000E+00 -0.10311843490E+03  0.16204454117E+03  0.12500008683E+03 0.  0.
    9000005    1    3    3    0    0 -0.14064709949E+02 -0.20609809308E+02 -0.12583342769E+03  0.12828730190E+03  0.10000000000E+01 0.  0.
    9000005    1    3    3    0    0  0.14064709949E+02  0.20609809308E+02  0.22714992790E+02  0.33757239270E+02  0.10000000000E+01 0.  0.
<mgrwt>
<rscale>  0 0.12500009E+03</rscale>
<asrwt>0</asrwt>
<pdfrwt beam="1">  1        4 0.73657636E-02 0.12500009E+03</pdfrwt>
<pdfrwt beam="2">  1       -4 0.33145370E-01 0.12500009E+03</pdfrwt>
<totfact> 0.17961922E+03</totfact>
</mgrwt>
</event>
<event>
 5    1  0.1422067E-002  0.1249973E+03  0.7818608E-02  0.1235074E+00
          4   -1    0    0  501    0  0.00000000000E+00  0.00000000000E+00  0.70496334634E+01  0.71631160795E+01  0.12700000000E+01 0. -1.
         -4   -1    0    0    0  501 -0.00000000000E+00 -0.00000000000E+00 -0.54954446013E+03  0.54954592761E+03  0.12700000000E+01 0. -1.
         25    2    1    2    0    0  0.00000000000E+00  0.00000000000E+00 -0.54249482666E+03  0.55670904369E+03  0.12499728946E+03 0.  0.
    9000005    1    3    3    0    0  0.51028254124E+02  0.32426007066E+02 -0.20086208901E+03  0.20976631631E+03  0.10000000000E+01 0.  0.
    9000005    1    3    3    0    0 -0.51028254124E+02 -0.32426007066E+02 -0.34163273765E+03  0.34694272739E+03  0.10000000000E+01 0.  0.
<mgrwt>
<rscale>  0 0.12499729E+03</rscale>
<asrwt>0</asrwt>
<pdfrwt beam="1">  1        4 0.17767790E-02 0.12499729E+03</pdfrwt>
<pdfrwt beam="2">  1       -4 0.13740034E+00 0.12499729E+03</pdfrwt>
<totfact> 0.79238911E+02</totfact>
</mgrwt>
</event>
<event>
 5    1  0.1422067E-002  0.1250023E+03  0.7818608E-02  0.1235066E+00
          4   -1    0    0  501    0  0.00000000000E+00  0.00000000000E+00  0.47591747864E+03  0.47591917316E+03  0.12700000000E+01 0. -1.
         -4   -1    0    0    0  501 -0.00000000000E+00 -0.00000000000E+00 -0.81572828030E+01  0.82555534477E+01  0.12700000000E+01 0. -1.
         25    2    1    2    0    0  0.00000000000E+00  0.00000000000E+00  0.46776019584E+03  0.48417472661E+03  0.12500226026E+03 0.  0.
    9000005    1    3    3    0    0  0.16991088410E+02  0.41588454207E+02  0.40214017860E+03  0.40464307711E+03  0.10000000000E+01 0.  0.
    9000005    1    3    3    0    0 -0.16991088410E+02 -0.41588454207E+02  0.65620017239E+02  0.79531649494E+02  0.10000000000E+01 0.  0.
<mgrwt>
<rscale>  0 0.12500226E+03</rscale>
<asrwt>0</asrwt>
<pdfrwt beam="1">  1        4 0.11899186E+00 0.12500226E+03</pdfrwt>
<pdfrwt beam="2">  1       -4 0.20518164E-02 0.12500226E+03</pdfrwt>
<totfact> 0.90173393E+02</totfact>
</mgrwt>
</event>
<event>
 5    1  0.1422067E-002  0.1250055E+03  0.7818608E-02  0.1235061E+00
          4   -1    0    0  501    0  0.00000000000E+00  0.00000000000E+00  0.86175217273E+02  0.86184575024E+02  0.12700000000E+01 0.  1.
         -4   -1    0    0    0  501 -0.00000000000E+00 -0.00000000000E+00 -0.45312450586E+02  0.45330244629E+02  0.12700000000E+01 0.  1.
         25    2    1    2    0    0  0.00000000000E+00  0.00000000000E+00  0.40862766687E+02  0.13151481965E+03  0.12500552823E+03 0.  0.
    9000005    1    3    3    0    0 -0.40861006527E+01  0.61538700562E+02  0.98118308018E+01  0.62457825042E+02  0.10000000000E+01 0.  0.
    9000005    1    3    3    0    0  0.40861006527E+01 -0.61538700562E+02  0.31050935885E+02  0.69056994611E+02  0.10000000000E+01 0.  0.
<mgrwt>
<rscale>  0 0.12500553E+03</rscale>
<asrwt>0</asrwt>
<pdfrwt beam="1">  1        4 0.21547198E-01 0.12500553E+03</pdfrwt>
<pdfrwt beam="2">  1       -4 0.11331507E-01 0.12500553E+03</pdfrwt>
<totfact> 0.19480775E+03</totfact>
</mgrwt>
</event>
<event>
 5    1  0.1422067E-002  0.1250038E+03  0.7818608E-02  0.1235063E+00
         -4   -1    0    0    0  501 -0.00000000000E+00  0.00000000000E+00  0.34322412742E+03  0.34322647704E+03  0.12700000000E+01 0.  1.
          4   -1    0    0  501    0  0.00000000000E+00 -0.00000000000E+00 -0.11343920577E+02  0.11414790146E+02  0.12700000000E+01 0.  1.
         25    2    1    2    0    0  0.00000000000E+00  0.00000000000E+00  0.33188020684E+03  0.35464126718E+03  0.12500382674E+03 0.  0.
    9000005    1    3    3    0    0  0.57077102274E+02  0.23840921981E+02  0.14067543892E+03  0.15367746836E+03  0.10000000000E+01 0.  0.
    9000005    1    3    3    0    0 -0.57077102274E+02 -0.23840921981E+02  0.19120476792E+03  0.20096379883E+03  0.10000000000E+01 0.  0.
<mgrwt>
<rscale>  0 0.12500383E+03</rscale>
<asrwt>0</asrwt>
<pdfrwt beam="2">  1        4 0.28451325E-02 0.12500383E+03</pdfrwt>
<pdfrwt beam="1">  1       -4 0.85815186E-01 0.12500383E+03</pdfrwt>
<totfact> 0.11566389E+03</totfact>
</mgrwt>
</event>
<event>
 5    1  0.1422067E-002  0.1249972E+03  0.7818608E-02  0.1235074E+00
          4   -1    0    0  501    0  0.00000000000E+00  0.00000000000E+00  0.23373692048E+03  0.23374037070E+03  0.12700000000E+01 0.  1.
         -4   -1    0    0    0  501 -0.00000000000E+00 -0.00000000000E+00 -0.16683713395E+02  0.16731981134E+02  0.12700000000E+01 0.  1.
         25    2    1    2    0    0  0.00000000000E+00  0.00000000000E+00  0.21705320708E+03  0.25047235183E+03  0.12499721728E+03 0.  0.
    9000005    1    3    3    0    0 -0.54379098430E+02 -0.30651321344E+02  0.10268923660E+03  0.12017765666E+03  0.10000000000E+01 0.  0.
    9000005    1    3    3    0    0  0.54379098430E+02  0.30651321344E+02  0.11436397048E+03  0.13029469517E+03  0.10000000000E+01 0.  0.
<mgrwt>
<rscale>  0 0.12499722E+03</rscale>
<asrwt>0</asrwt>
<pdfrwt beam="1">  1        4 0.58440695E-01 0.12499722E+03</pdfrwt>
<pdfrwt beam="2">  1       -4 0.41773931E-02 0.12499722E+03</pdfrwt>
<totfact> 0.14483214E+03</totfact>
</mgrwt>
</event>
<event>
 5    1  0.1422067E-002  0.1250057E+03  0.7818608E-02  0.1235060E+00
         -4   -1    0    0    0  501 -0.00000000000E+00  0.00000000000E+00  0.47341462608E+03  0.47341632955E+03  0.12700000000E+01 0.  1.
          4   -1    0    0  501    0  0.00000000000E+00 -0.00000000000E+00 -0.82013775063E+01  0.82991260384E+01  0.12700000000E+01 0.  1.
         25    2    1    2    0    0  0.00000000000E+00  0.00000000000E+00  0.46521324857E+03  0.48171545559E+03  0.12500565390E+03 0.  0.
    9000005    1    3    3    0    0  0.60864085804E+02 -0.14108872453E+02  0.23819912395E+03  0.24625864426E+03  0.10000000000E+01 0.  0.
    9000005    1    3    3    0    0 -0.60864085804E+02  0.14108872453E+02  0.22701412462E+03  0.23545681132E+03  0.10000000000E+01 0.  0.
<mgrwt>
<rscale>  0 0.12500565E+03</rscale>
<asrwt>0</asrwt>
<pdfrwt beam="2">  1        4 0.20627758E-02 0.12500565E+03</pdfrwt>
<pdfrwt beam="1">  1       -4 0.11836609E+00 0.12500565E+03</pdfrwt>
<totfact> 0.90575755E+02</totfact>
</mgrwt>
</event>
<event>
 5    1  0.1422067E-002  0.1250042E+03  0.7818608E-02  0.1235063E+00
          4   -1    0    0  501    0  0.00000000000E+00  0.00000000000E+00  0.58700859922E+03  0.58700997304E+03  0.12700000000E+01 0.  1.
         -4   -1    0    0    0  501 -0.00000000000E+00 -0.00000000000E+00 -0.65929631163E+01  0.67141687983E+01  0.12700000000E+01 0.  1.
         25    2    1    2    0    0  0.00000000000E+00  0.00000000000E+00  0.58041563610E+03  0.59372414184E+03  0.12500418384E+03 0.  0.
    9000005    1    3    3    0    0  0.18409263472E+02 -0.11179952279E+00  0.65549094505E+01  0.19567327835E+02  0.10000000000E+01 0.  0.
    9000005    1    3    3    0    0 -0.18409263472E+02  0.11179952279E+00  0.57386072665E+03  0.57415681401E+03  0.10000000000E+01 0.  0.
<mgrwt>
<rscale>  0 0.12500418E+03</rscale>
<asrwt>0</asrwt>
<pdfrwt beam="1">  1        4 0.14676745E+00 0.12500418E+03</pdfrwt>
<pdfrwt beam="2">  1       -4 0.16635634E-02 0.12500418E+03</pdfrwt>
<totfact> 0.74291208E+02</totfact>
</mgrwt>
</event>
<event>
 5    1  0.1422067E-002  0.1249998E+03  0.7818608E-02  0.1235070E+00
          4   -1    0    0  501    0  0.00000000000E+00  0.00000000000E+00  0.51849607220E+02  0.51865158526E+02  0.12700000000E+01 0. -1.
         -4   -1    0    0    0  501 -0.00000000000E+00 -0.00000000000E+00 -0.75305672624E+02  0.75316380884E+02  0.12700000000E+01 0. -1.
         25    2    1    2    0    0  0.00000000000E+00  0.00000000000E+00 -0.23456065404E+02  0.12718153941E+03  0.12499982785E+03 0.  0.
    9000005    1    3    3    0    0  0.17044650020E+02 -0.22224964503E+02 -0.68566917803E+02  0.74073553705E+02  0.10000000000E+01 0.  0.
    9000005    1    3    3    0    0 -0.17044650020E+02  0.22224964503E+02  0.45110852399E+02  0.53107985705E+02  0.10000000000E+01 0.  0.
<mgrwt>
<rscale>  0 0.12499983E+03</rscale>
<asrwt>0</asrwt>
<pdfrwt beam="1">  1        4 0.12965684E-01 0.12499983E+03</pdfrwt>
<pdfrwt beam="2">  1       -4 0.18829700E-01 0.12499983E+03</pdfrwt>
<totfact> 0.19717230E+03</totfact>
</mgrwt>
</event>
<event>
 5    1  0.1422067E-002  0.1250103E+03  0.7818608E-02  0.1235053E+00
         -4   -1    0    0    0  501 -0.00000000000E+00  0.00000000000E+00  0.54998126705E+02  0.55012787977E+02  0.12700000000E+01 0.  1.
          4   -1    0    0  501    0  0.00000000000E+00 -0.00000000000E+00 -0.71007058434E+02  0.71018414848E+02  0.12700000000E+01 0.  1.
         25    2    1    2    0    0  0.00000000000E+00  0.00000000000E+00 -0.16008931729E+02  0.12603120282E+03  0.12501031234E+03 0.  0.
    9000005    1    3    3    0    0 -0.16751748308E+02  0.25776703118E+02  0.46853455508E+02  0.56047353087E+02  0.10000000000E+01 0.  0.
    9000005    1    3    3    0    0  0.16751748308E+02 -0.25776703118E+02 -0.62862387237E+02  0.69983849738E+02  0.10000000000E+01 0.  0.
<mgrwt>
<rscale>  0 0.12501031E+03</rscale>
<asrwt>0</asrwt>
<pdfrwt beam="2">  1        4 0.17755017E-01 0.12501031E+03</pdfrwt>
<pdfrwt beam="1">  1       -4 0.13752784E-01 0.12501031E+03</pdfrwt>
<totfact> 0.19774463E+03</totfact>
</mgrwt>
</event>
<event>
 5    1  0.1422067E-002  0.1250077E+03  0.7818608E-02  0.1235057E+00
         -4   -1    0    0    0  501 -0.00000000000E+00  0.00000000000E+00  0.14505839705E+03  0.14506395642E+03  0.12700000000E+01 0. -1.
          4   -1    0    0  501    0  0.00000000000E+00 -0.00000000000E+00 -0.26911087793E+02  0.26941038329E+02  0.12700000000E+01 0. -1.
         25    2    1    2    0    0  0.00000000000E+00  0.00000000000E+00  0.11814730925E+03  0.17200499475E+03  0.12500772591E+03 0.  0.
    9000005    1    3    3    0    0 -0.55891880502E+02  0.26785879218E+02  0.70111116279E+02  0.93583942306E+02  0.10000000000E+01 0.  0.
    9000005    1    3    3    0    0  0.55891880502E+02 -0.26785879218E+02  0.48036192973E+02  0.78421052447E+02  0.10000000000E+01 0.  0.
<mgrwt>
<rscale>  0 0.12500773E+03</rscale>
<asrwt>0</asrwt>
<pdfrwt beam="2">  1        4 0.67322107E-02 0.12500773E+03</pdfrwt>
<pdfrwt beam="1">  1       -4 0.36269038E-01 0.12500773E+03</pdfrwt>
<totfact> 0.17503852E+03</totfact>
</mgrwt>
</event>
<event>
 5    1  0.1422067E-002  0.1250026E+03  0.7818608E-02  0.1235065E+00
         -4   -1    0    0    0  501 -0.00000000000E+00  0.00000000000E+00  0.73936107676E+01  0.75018917736E+01  0.12700000000E+01 0.  1.
          4   -1    0    0  501    0  0.00000000000E+00 -0.00000000000E+00 -0.52439993339E+03  0.52440147124E+03  0.12700000000E+01 0.  1.
         25    2    1    2    0    0  0.00000000000E+00  0.00000000000E+00 -0.51700632262E+03  0.53190336302E+03  0.12500259979E+03 0.  0.
    9000005    1    3    3    0    0  0.48653164040E+02 -0.91882967371E+01 -0.42074938021E+03  0.42365386357E+03  0.10000000000E+01 0.  0.
    9000005    1    3    3    0    0 -0.48653164040E+02  0.91882967371E+01 -0.96256942414E+02  0.10824949945E+03  0.10000000000E+01 0.  0.
<mgrwt>
<rscale>  0 0.12500260E+03</rscale>
<asrwt>0</asrwt>
<pdfrwt beam="2">  1        4 0.13111359E+00 0.12500260E+03</pdfrwt>
<pdfrwt beam="1">  1       -4 0.18621318E-02 0.12500260E+03</pdfrwt>
<totfact> 0.82741675E+02</totfact>
</mgrwt>
</event>
<event>
 5    1  0.1422067E-002  0.1249845E+03  0.7818608E-02  0.1235094E+00
          4   -1    0    0  501    0  0.00000000000E+00  0.00000000000E+00  0.50624025656E+03  0.50624184958E+03  0.12700000000E+01 0.  1.
         -4   -1    0    0    0  501 -0.00000000000E+00 -0.00000000000E+00 -0.76603984736E+01  0.77649600626E+01  0.12700000000E+01 0.  1.
         25    2    1    2    0    0  0.00000000000E+00  0.00000000000E+00  0.49857985809E+03  0.51400680964E+03  0.12498450090E+03 0.  0.
    9000005    1    3    3    0    0 -0.12441000329E+02  0.70987860185E+01 -0.83751318547E+00  0.14383069229E+02  0.10000000000E+01 0.  0.
    9000005    1    3    3    0    0  0.12441000329E+02 -0.70987860185E+01  0.49941737127E+03  0.49962374041E+03  0.10000000000E+01 0.  0.
<mgrwt>
<rscale>  0 0.12498450E+03</rscale>
<asrwt>0</asrwt>
<pdfrwt beam="1">  1        4 0.12657332E+00 0.12498450E+03</pdfrwt>
<pdfrwt beam="2">  1       -4 0.19283691E-02 0.12498450E+03</pdfrwt>
<totfact> 0.85451239E+02</totfact>
</mgrwt>
</event>
<event>
 5    1  0.1422067E-002  0.1250000E+03  0.7818608E-02  0.1235069E+00
          4   -1    0    0  501    0  0.00000000000E+00  0.00000000000E+00  0.32029652329E+02  0.32054820672E+02  0.12700000000E+01 0.  1.
         -4   -1    0    0    0  501 -0.00000000000E+00 -0.00000000000E+00 -0.12188096798E+03  0.12188758450E+03  0.12700000000E+01 0.  1.
         25    2    1    2    0    0  0.00000000000E+00  0.00000000000E+00 -0.89851315649E+02  0.15394240517E+03  0.12500002075E+03 0.  0.
    9000005    1    3    3    0    0  0.57804664288E+02  0.16763970681E+02 -0.24213771743E+02  0.64882329401E+02  0.10000000000E+01 0.  0.
    9000005    1    3    3    0    0 -0.57804664288E+02 -0.16763970681E+02 -0.65637543906E+02  0.89060075772E+02  0.10000000000E+01 0.  0.
<mgrwt>
<rscale>  0 0.12500002E+03</rscale>
<asrwt>0</asrwt>
<pdfrwt beam="1">  1        4 0.80113865E-02 0.12500002E+03</pdfrwt>
<pdfrwt beam="2">  1       -4 0.30474214E-01 0.12500002E+03</pdfrwt>
<totfact> 0.18346608E+03</totfact>
</mgrwt>
</event>
<event>
 5    1  0.1422067E-002  0.1249994E+03  0.7818608E-02  0.1235070E+00
         -4   -1    0    0    0  501 -0.00000000000E+00  0.00000000000E+00  0.73558901430E+02  0.73569863936E+02  0.12700000000E+01 0.  1.
          4   -1    0    0  501    0  0.00000000000E+00 -0.00000000000E+00 -0.53080678552E+02  0.53095869288E+02  0.12700000000E+01 0.  1.
         25    2    1    2    0    0  0.00000000000E+00  0.00000000000E+00  0.20478222879E+02  0.12666573322E+03  0.12499940144E+03 0.  0.
    9000005    1    3    3    0    0  0.48289622510E+02  0.20605153133E+02  0.44584186042E+02  0.68885481946E+02  0.10000000000E+01 0.  0.
    9000005    1    3    3    0    0 -0.48289622510E+02 -0.20605153133E+02 -0.24105963163E+02  0.57780251279E+02  0.10000000000E+01 0.  0.
<mgrwt>
<rscale>  0 0.12499940E+03</rscale>
<asrwt>0</asrwt>
<pdfrwt beam="2">  1        4 0.13273439E-01 0.12499940E+03</pdfrwt>
<pdfrwt beam="1">  1       -4 0.18392994E-01 0.12499940E+03</pdfrwt>
<totfact> 0.19745264E+03</totfact>
</mgrwt>
</event>
<event>
 5    1  0.1422067E-002  0.1250008E+03  0.7818608E-02  0.1235068E+00
          4   -1    0    0  501    0  0.00000000000E+00  0.00000000000E+00  0.45590498272E+01  0.47326351356E+01  0.12700000000E+01 0.  1.
         -4   -1    0    0    0  501 -0.00000000000E+00 -0.00000000000E+00 -0.84064212376E+03  0.84064308309E+03  0.12700000000E+01 0.  1.
         25    2    1    2    0    0  0.00000000000E+00  0.00000000000E+00 -0.83608307393E+03  0.84537571822E+03  0.12500079376E+03 0.  0.
    9000005    1    3    3    0    0  0.66371989139E+01 -0.40865405723E+01 -0.83737508402E+03  0.83741195571E+03  0.10000000000E+01 0.  0.
    9000005    1    3    3    0    0 -0.66371989139E+01  0.40865405723E+01  0.12920100898E+01  0.79637625118E+01  0.10000000000E+01 0.  0.
<mgrwt>
<rscale>  0 0.12500079E+03</rscale>
<asrwt>0</asrwt>
<pdfrwt beam="1">  1        4 0.11615834E-02 0.12500079E+03</pdfrwt>
<pdfrwt beam="2">  1       -4 0.21018183E+00 0.12500079E+03</pdfrwt>
<totfact> 0.48610750E+02</totfact>
</mgrwt>
</event>
<event>
 4    1  0.1422067E-002  0.1250655E+03  0.7818608E-02  0.1234967E+00
          4   -1    0    0  501    0  0.00000000000E+00  0.00000000000E+00  0.32230172669E+03  0.32230422883E+03  0.12700000000E+01 0.  1.
         -4   -1    0    0    0  501 -0.00000000000E+00 -0.00000000000E+00 -0.12096777275E+02  0.12163261094E+02  0.12700000000E+01 0.  1.
    9000005    1    1    2    0    0 -0.16033236053E+02 -0.43921505196E+02  0.26611758997E+03  0.27019573455E+03  0.10000000000E+01 0.  0.
    9000005    1    1    2    0    0  0.16033236053E+02  0.43921505196E+02  0.44087359440E+02  0.64271755378E+02  0.10000000000E+01 0.  0.
<mgrwt>
<rscale>  0 0.12506555E+03</rscale>
<asrwt>0</asrwt>
<pdfrwt beam="1">  1        4 0.80584059E-01 0.12506555E+03</pdfrwt>
<pdfrwt beam="2">  1       -4 0.30328174E-02 0.12506555E+03</pdfrwt>
<totfact> 0.12039165E+03</totfact>
</mgrwt>
</event>
<event>
 5    1  0.1422067E-002  0.1250054E+03  0.7818608E-02  0.1235061E+00
          4   -1    0    0  501    0  0.00000000000E+00  0.00000000000E+00  0.91611501011E+02  0.91620303522E+02  0.12700000000E+01 0.  1.
         -4   -1    0    0    0  501 -0.00000000000E+00 -0.00000000000E+00 -0.42622701815E+02  0.42641618286E+02  0.12700000000E+01 0.  1.
         25    2    1    2    0    0  0.00000000000E+00  0.00000000000E+00  0.48988799196E+02  0.13426192181E+03  0.12500544468E+03 0.  0.
    9000005    1    3    3    0    0 -0.43774499878E+02  0.11535159447E+02 -0.21781062897E+02  0.50246208255E+02  0.10000000000E+01 0.  0.
    9000005    1    3    3    0    0  0.43774499878E+02 -0.11535159447E+02  0.70769862093E+02  0.84015713553E+02  0.10000000000E+01 0.  0.
<mgrwt>
<rscale>  0 0.12500544E+03</rscale>
<asrwt>0</asrwt>
<pdfrwt beam="1">  1        4 0.22906340E-01 0.12500544E+03</pdfrwt>
<pdfrwt beam="2">  1       -4 0.10659140E-01 0.12500544E+03</pdfrwt>
<totfact> 0.19335410E+03</totfact>
</mgrwt>
</event>
<event>
 5    1  0.1422067E-002  0.1250030E+03  0.7818608E-02  0.1235065E+00
         -4   -1    0    0    0  501 -0.00000000000E+00  0.00000000000E+00  0.18889641667E+03  0.18890068589E+03  0.12700000000E+01 0. -1.
          4   -1    0    0  501    0  0.00000000000E+00 -0.00000000000E+00 -0.20656309879E+02  0.20695314393E+02  0.12700000000E+01 0. -1.
         25    2    1    2    0    0  0.00000000000E+00  0.00000000000E+00  0.16824010679E+03  0.20959600029E+03  0.12500299918E+03 0.  0.
    9000005    1    3    3    0    0 -0.49980147420E+02  0.40049963600E+01  0.21576032561E+02  0.54594691254E+02  0.10000000000E+01 0.  0.
    9000005    1    3    3    0    0  0.49980147420E+02 -0.40049963600E+01  0.14666407423E+03  0.15500130903E+03  0.10000000000E+01 0.  0.
<mgrwt>
<rscale>  0 0.12500300E+03</rscale>
<asrwt>0</asrwt>
<pdfrwt beam="2">  1        4 0.51694867E-02 0.12500300E+03</pdfrwt>
<pdfrwt beam="1">  1       -4 0.47229513E-01 0.12500300E+03</pdfrwt>
<totfact> 0.15943776E+03</totfact>
</mgrwt>
</event>
<event>
 5    1  0.1422067E-002  0.1249994E+03  0.7818608E-02  0.1235070E+00
          4   -1    0    0  501    0  0.00000000000E+00  0.00000000000E+00  0.14515767656E+03  0.14516323214E+03  0.12700000000E+01 0. -1.
         -4   -1    0    0    0  501 -0.00000000000E+00 -0.00000000000E+00 -0.26889072828E+02  0.26919047857E+02  0.12700000000E+01 0. -1.
         25    2    1    2    0    0  0.00000000000E+00  0.00000000000E+00  0.11826860374E+03  0.17208228000E+03  0.12499939384E+03 0.  0.
    9000005    1    3    3    0    0  0.54815097940E+02 -0.19613691611E+01  0.17910825877E+02  0.57709094731E+02  0.10000000000E+01 0.  0.
    9000005    1    3    3    0    0 -0.54815097940E+02  0.19613691611E+01  0.10035777786E+03  0.11437318527E+03  0.10000000000E+01 0.  0.
<mgrwt>
<rscale>  0 0.12499939E+03</rscale>
<asrwt>0</asrwt>
<pdfrwt beam="1">  1        4 0.36293860E-01 0.12499939E+03</pdfrwt>
<pdfrwt beam="2">  1       -4 0.67267096E-02 0.12499939E+03</pdfrwt>
<totfact> 0.17503781E+03</totfact>
</mgrwt>
</event>
<event>
 5    1  0.1422067E-002  0.1249966E+03  0.7818608E-02  0.1235075E+00
         -4   -1    0    0    0  501 -0.00000000000E+00  0.00000000000E+00  0.63442770604E+03  0.63442897719E+03  0.12700000000E+01 0. -1.
          4   -1    0    0  501    0  0.00000000000E+00 -0.00000000000E+00 -0.60900085366E+01  0.62210211361E+01  0.12700000000E+01 0. -1.
         25    2    1    2    0    0  0.00000000000E+00  0.00000000000E+00  0.62833769750E+03  0.64064999832E+03  0.12499663293E+03 0.  0.
    9000005    1    3    3    0    0 -0.60358226301E+02 -0.55594318557E+01  0.39207007487E+03  0.39672908435E+03  0.10000000000E+01 0.  0.
    9000005    1    3    3    0    0  0.60358226301E+02  0.55594318557E+01  0.23626762264E+03  0.24392091397E+03  0.10000000000E+01 0.  0.
<mgrwt>
<rscale>  0 0.12499663E+03</rscale>
<asrwt>0</asrwt>
<pdfrwt beam="2">  1        4 0.15390376E-02 0.12499663E+03</pdfrwt>
<pdfrwt beam="1">  1       -4 0.15862347E+00 0.12499663E+03</pdfrwt>
<totfact> 0.68596260E+02</totfact>
</mgrwt>
</event>
<event>
 5    1  0.1422067E-002  0.1250106E+03  0.7818608E-02  0.1235053E+00
          4   -1    0    0  501    0  0.00000000000E+00  0.00000000000E+00  0.14684512658E+03  0.14685061832E+03  0.12700000000E+01 0. -1.
         -4   -1    0    0    0  501 -0.00000000000E+00 -0.00000000000E+00 -0.26584521699E+02  0.26614839732E+02  0.12700000000E+01 0. -1.
         25    2    1    2    0    0  0.00000000000E+00  0.00000000000E+00  0.12026060488E+03  0.17346545805E+03  0.12501060775E+03 0.  0.
    9000005    1    3    3    0    0 -0.41828268611E+02  0.10326620566E+02  0.12295177305E+03  0.13028576915E+03  0.10000000000E+01 0.  0.
    9000005    1    3    3    0    0  0.41828268611E+02 -0.10326620566E+02 -0.26911681677E+01  0.43179688899E+02  0.10000000000E+01 0.  0.
<mgrwt>
<rscale>  0 0.12501061E+03</rscale>
<asrwt>0</asrwt>
<pdfrwt beam="1">  1        4 0.36715758E-01 0.12501061E+03</pdfrwt>
<pdfrwt beam="2">  1       -4 0.66506067E-02 0.12501061E+03</pdfrwt>
<totfact> 0.17437571E+03</totfact>
</mgrwt>
</event>
<event>
 5    1  0.1422067E-002  0.1249998E+03  0.7818608E-02  0.1235070E+00
          4   -1    0    0  501    0  0.00000000000E+00  0.00000000000E+00  0.28310552224E+02  0.28339023752E+02  0.12700000000E+01 0. -1.
         -4   -1    0    0    0  501 -0.00000000000E+00 -0.00000000000E+00 -0.13787738158E+03  0.13788323049E+03  0.12700000000E+01 0. -1.
         25    2    1    2    0    0  0.00000000000E+00  0.00000000000E+00 -0.10956682935E+03  0.16622225424E+03  0.12499979084E+03 0.  0.
    9000005    1    3    3    0    0 -0.42510415503E+02 -0.41273812168E+02 -0.81198016930E+02  0.10052253951E+03  0.10000000000E+01 0.  0.
    9000005    1    3    3    0    0  0.42510415503E+02  0.41273812168E+02 -0.28368812423E+02  0.65699714729E+02  0.10000000000E+01 0.  0.
<mgrwt>
<rscale>  0 0.12499979E+03</rscale>
<asrwt>0</asrwt>
<pdfrwt beam="1">  1        4 0.70819285E-02 0.12499979E+03</pdfrwt>
<pdfrwt beam="2">  1       -4 0.34473634E-01 0.12499979E+03</pdfrwt>
<totfact> 0.17768884E+03</totfact>
</mgrwt>
</event>
<event>
 5    1  0.1422067E-002  0.1250060E+03  0.7818608E-02  0.1235060E+00
         -4   -1    0    0    0  501 -0.00000000000E+00  0.00000000000E+00  0.38814498821E+02  0.38835270293E+02  0.12700000000E+01 0.  1.
          4   -1    0    0  501    0  0.00000000000E+00 -0.00000000000E+00 -0.10059693100E+03  0.10060494733E+03  0.12700000000E+01 0.  1.
         25    2    1    2    0    0  0.00000000000E+00  0.00000000000E+00 -0.61782432178E+02  0.13944021762E+03  0.12500602131E+03 0.  0.
    9000005    1    3    3    0    0 -0.39607323282E+02 -0.48247497521E+02 -0.34249731929E+02  0.71208182197E+02  0.10000000000E+01 0.  0.
    9000005    1    3    3    0    0  0.39607323282E+02  0.48247497521E+02 -0.27532700249E+02  0.68232035421E+02  0.10000000000E+01 0.  0.
<mgrwt>
<rscale>  0 0.12500602E+03</rscale>
<asrwt>0</asrwt>
<pdfrwt beam="2">  1        4 0.25152831E-01 0.12500602E+03</pdfrwt>
<pdfrwt beam="1">  1       -4 0.97072234E-02 0.12500602E+03</pdfrwt>
<totfact> 0.19066339E+03</totfact>
</mgrwt>
</event>
<event>
 5    1  0.1422067E-002  0.1250307E+03  0.7818608E-02  0.1235021E+00
          4   -1    0    0  501    0  0.00000000000E+00  0.00000000000E+00  0.78605796147E+02  0.78616054899E+02  0.12700000000E+01 0.  1.
         -4   -1    0    0    0  501 -0.00000000000E+00 -0.00000000000E+00 -0.49696988824E+02  0.49713213516E+02  0.12700000000E+01 0.  1.
         25    2    1    2    0    0  0.00000000000E+00  0.00000000000E+00  0.28908807323E+02  0.12832926842E+03  0.12503072419E+03 0.  0.
    9000005    1    3    3    0    0  0.33596195838E+02 -0.52346639857E+02  0.20805992591E+02  0.65595460260E+02  0.10000000000E+01 0.  0.
    9000005    1    3    3    0    0 -0.33596195838E+02  0.52346639857E+02  0.81028147327E+01  0.62733808155E+02  0.10000000000E+01 0.  0.
<mgrwt>
<rscale>  0 0.12503072E+03</rscale>
<asrwt>0</asrwt>
<pdfrwt beam="1">  1        4 0.19654759E-01 0.12503072E+03</pdfrwt>
<pdfrwt beam="2">  1       -4 0.12427558E-01 0.12503072E+03</pdfrwt>
<totfact> 0.19640549E+03</totfact>
</mgrwt>
</event>
<event>
 5    1  0.1422067E-002  0.1250051E+03  0.7818608E-02  0.1235061E+00
         -4   -1    0    0    0  501 -0.00000000000E+00  0.00000000000E+00  0.29116218204E+03  0.29116495179E+03  0.12700000000E+01 0.  1.
          4   -1    0    0  501    0  0.00000000000E+00 -0.00000000000E+00 -0.13384261617E+02  0.13444380203E+02  0.12700000000E+01 0.  1.
         25    2    1    2    0    0  0.00000000000E+00  0.00000000000E+00  0.27777792042E+03  0.30460933199E+03  0.12500508814E+03 0.  0.
    9000005    1    3    3    0    0  0.60824306765E+02 -0.26736263973E+01  0.17324865597E+03  0.18363779939E+03  0.10000000000E+01 0.  0.
    9000005    1    3    3    0    0 -0.60824306765E+02  0.26736263973E+01  0.10452926445E+03  0.12097153260E+03  0.10000000000E+01 0.  0.
<mgrwt>
<rscale>  0 0.12500509E+03</rscale>
<asrwt>0</asrwt>
<pdfrwt beam="2">  1        4 0.33539264E-02 0.12500509E+03</pdfrwt>
<pdfrwt beam="1">  1       -4 0.72798407E-01 0.12500509E+03</pdfrwt>
<totfact> 0.12841351E+03</totfact>
</mgrwt>
</event>
<event>
 5    1  0.1422067E-002  0.1250082E+03  0.7818608E-02  0.1235057E+00
          4   -1    0    0  501    0  0.00000000000E+00  0.00000000000E+00  0.30130423141E+02  0.30157176570E+02  0.12700000000E+01 0.  1.
         -4   -1    0    0    0  501 -0.00000000000E+00 -0.00000000000E+00 -0.12957423783E+03  0.12958046152E+03  0.12700000000E+01 0.  1.
         25    2    1    2    0    0  0.00000000000E+00  0.00000000000E+00 -0.99443814684E+02  0.15973763809E+03  0.12500816271E+03 0.  0.
    9000005    1    3    3    0    0 -0.32724648165E+02  0.29784449293E+02  0.66723449320E+01  0.44760878053E+02  0.10000000000E+01 0.  0.
    9000005    1    3    3    0    0  0.32724648165E+02 -0.29784449293E+02 -0.10611615962E+03  0.11497676004E+03  0.10000000000E+01 0.  0.
<mgrwt>
<rscale>  0 0.12500816E+03</rscale>
<asrwt>0</asrwt>
<pdfrwt beam="1">  1        4 0.75367283E-02 0.12500816E+03</pdfrwt>
<pdfrwt beam="2">  1       -4 0.32397680E-01 0.12500816E+03</pdfrwt>
<totfact> 0.18066681E+03</totfact>
</mgrwt>
</event>
<event>
 5    1  0.1422067E-002  0.1249910E+03  0.7818608E-02  0.1235083E+00
         -4   -1    0    0    0  501 -0.00000000000E+00  0.00000000000E+00  0.29010571462E+01  0.31668647849E+01  0.12700000000E+01 0.  1.
          4   -1    0    0  501    0  0.00000000000E+00 -0.00000000000E+00 -0.12870573132E+04  0.12870579397E+04  0.12700000000E+01 0.  1.
         25    2    1    2    0    0  0.00000000000E+00  0.00000000000E+00 -0.12841562560E+04  0.12902248045E+04  0.12499102513E+03 0.  0.
    9000005    1    3    3    0    0 -0.21496963301E+02  0.93736274749E+01 -0.44198562987E+02  0.50044952726E+02  0.10000000000E+01 0.  0.
    9000005    1    3    3    0    0  0.21496963301E+02 -0.93736274749E+01 -0.12399576930E+04  0.12401798518E+04  0.10000000000E+01 0.  0.
<mgrwt>
<rscale>  0 0.12499103E+03</rscale>
<asrwt>0</asrwt>
<pdfrwt beam="2">  1        4 0.32179576E+00 0.12499103E+03</pdfrwt>
<pdfrwt beam="1">  1       -4 0.75857298E-03 0.12499103E+03</pdfrwt>
<totfact> 0.20769023E+02</totfact>
</mgrwt>
</event>
<event>
 5    1  0.1422067E-002  0.1250104E+03  0.7818608E-02  0.1235053E+00
         -4   -1    0    0    0  501 -0.00000000000E+00  0.00000000000E+00  0.51725899159E+03  0.51726055068E+03  0.12700000000E+01 0. -1.
          4   -1    0    0  501    0  0.00000000000E+00 -0.00000000000E+00 -0.74981202794E+01  0.76049133936E+01  0.12700000000E+01 0. -1.
         25    2    1    2    0    0  0.00000000000E+00  0.00000000000E+00  0.50976087132E+03  0.52486546407E+03  0.12501043736E+03 0.  0.
    9000005    1    3    3    0    0  0.57649547277E+02  0.17210719483E+02  0.18384842045E+03  0.19344487811E+03  0.10000000000E+01 0.  0.
    9000005    1    3    3    0    0 -0.57649547277E+02 -0.17210719483E+02  0.32591245087E+03  0.33142058596E+03  0.10000000000E+01 0.  0.
<mgrwt>
<rscale>  0 0.12501044E+03</rscale>
<asrwt>0</asrwt>
<pdfrwt beam="2">  1        4 0.18880741E-02 0.12501044E+03</pdfrwt>
<pdfrwt beam="1">  1       -4 0.12932829E+00 0.12501044E+03</pdfrwt>
<totfact> 0.83763213E+02</totfact>
</mgrwt>
</event>
<event>
 5    1  0.1422067E-002  0.1249998E+03  0.7818608E-02  0.1235070E+00
         -4   -1    0    0    0  501 -0.00000000000E+00  0.00000000000E+00  0.47879547214E+01  0.49535250493E+01  0.12700000000E+01 0.  1.
          4   -1    0    0  501    0  0.00000000000E+00 -0.00000000000E+00 -0.80181373196E+03  0.80181473775E+03  0.12700000000E+01 0.  1.
         25    2    1    2    0    0  0.00000000000E+00  0.00000000000E+00 -0.79702577724E+03  0.80676826280E+03  0.12499976106E+03 0.  0.
    9000005    1    3    3    0    0 -0.77860817896E+01  0.61682660783E+02 -0.35776401096E+03  0.36312733476E+03  0.10000000000E+01 0.  0.
    9000005    1    3    3    0    0  0.77860817896E+01 -0.61682660783E+02 -0.43926176628E+03  0.44364092804E+03  0.10000000000E+01 0.  0.
<mgrwt>
<rscale>  0 0.12499976E+03</rscale>
<asrwt>0</asrwt>
<pdfrwt beam="2">  1        4 0.20047380E+00 0.12499976E+03</pdfrwt>
<pdfrwt beam="1">  1       -4 0.12178134E-02 0.12499976E+03</pdfrwt>
<totfact> 0.51884199E+02</totfact>
</mgrwt>
</event>
<event>
 5    1  0.1422067E-002  0.1249993E+03  0.7818608E-02  0.1235070E+00
         -4   -1    0    0    0  501 -0.00000000000E+00  0.00000000000E+00  0.72357795598E+03  0.72357907051E+03  0.12700000000E+01 0.  1.
          4   -1    0    0  501    0  0.00000000000E+00 -0.00000000000E+00 -0.53226316085E+01  0.54720478105E+01  0.12700000000E+01 0.  1.
         25    2    1    2    0    0  0.00000000000E+00  0.00000000000E+00  0.71825532437E+03  0.72905111832E+03  0.12499928854E+03 0.  0.
    9000005    1    3    3    0    0  0.35197466303E+02  0.23811281578E+01  0.58280248237E+02  0.68133095776E+02  0.10000000000E+01 0.  0.
    9000005    1    3    3    0    0 -0.35197466303E+02 -0.23811281578E+01  0.65997507613E+03  0.66091802254E+03  0.10000000000E+01 0.  0.
<mgrwt>
<rscale>  0 0.12499929E+03</rscale>
<asrwt>0</asrwt>
<pdfrwt beam="2">  1        4 0.13494745E-02 0.12499929E+03</pdfrwt>
<pdfrwt beam="1">  1       -4 0.18091327E+00 0.12499929E+03</pdfrwt>
<totfact> 0.59109661E+02</totfact>
</mgrwt>
</event>
<event>
 5    1  0.1422067E-002  0.1249994E+03  0.7818608E-02  0.1235070E+00
          4   -1    0    0  501    0  0.00000000000E+00  0.00000000000E+00  0.19561513282E+02  0.19602696291E+02  0.12700000000E+01 0. -1.
         -4   -1    0    0    0  501 -0.00000000000E+00 -0.00000000000E+00 -0.19943541826E+03  0.19943946188E+03  0.12700000000E+01 0. -1.
         25    2    1    2    0    0  0.00000000000E+00  0.00000000000E+00 -0.17987390497E+03  0.21904215817E+03  0.12499938146E+03 0.  0.
    9000005    1    3    3    0    0  0.47024972794E+02 -0.30811235895E+02 -0.13775163138E+03  0.14878572604E+03  0.10000000000E+01 0.  0.
    9000005    1    3    3    0    0 -0.47024972794E+02  0.30811235895E+02 -0.42122273590E+02  0.70256432133E+02  0.10000000000E+01 0.  0.
<mgrwt>
<rscale>  0 0.12499938E+03</rscale>
<asrwt>0</asrwt>
<pdfrwt beam="1">  1        4 0.48960323E-02 0.12499938E+03</pdfrwt>
<pdfrwt beam="2">  1       -4 0.49864502E-01 0.12499938E+03</pdfrwt>
<totfact> 0.15587151E+03</totfact>
</mgrwt>
</event>
<event>
 5    1  0.1422067E-002  0.1249978E+03  0.7818608E-02  0.1235073E+00
          4   -1    0    0  501    0  0.00000000000E+00  0.00000000000E+00  0.10859333007E+03  0.10860075614E+03  0.12700000000E+01 0.  1.
         -4   -1    0    0    0  501 -0.00000000000E+00 -0.00000000000E+00 -0.35950220585E+02  0.35972645998E+02  0.12700000000E+01 0.  1.
         25    2    1    2    0    0  0.00000000000E+00  0.00000000000E+00  0.72643109483E+02  0.14457340214E+03  0.12499778899E+03 0.  0.
    9000005    1    3    3    0    0 -0.42582292524E+02 -0.45021530967E+02  0.45640822003E+02  0.76969308951E+02  0.10000000000E+01 0.  0.
    9000005    1    3    3    0    0  0.42582292524E+02  0.45021530967E+02  0.27002287480E+02  0.67604093192E+02  0.10000000000E+01 0.  0.
<mgrwt>
<rscale>  0 0.12499779E+03</rscale>
<asrwt>0</asrwt>
<pdfrwt beam="1">  1        4 0.27152064E-01 0.12499779E+03</pdfrwt>
<pdfrwt beam="2">  1       -4 0.89912867E-02 0.12499779E+03</pdfrwt>
<totfact> 0.18809736E+03</totfact>
</mgrwt>
</event>
<event>
 5    1  0.1422067E-002  0.1250180E+03  0.7818608E-02  0.1235041E+00
         -4   -1    0    0    0  501 -0.00000000000E+00  0.00000000000E+00  0.65857583149E+02  0.65869827373E+02  0.12700000000E+01 0.  1.
          4   -1    0    0  501    0  0.00000000000E+00 -0.00000000000E+00 -0.59306097320E+02  0.59319693857E+02  0.12700000000E+01 0.  1.
         25    2    1    2    0    0  0.00000000000E+00  0.00000000000E+00  0.65514858287E+01  0.12518952123E+03  0.12501797574E+03 0.  0.
    9000005    1    3    3    0    0  0.50715485311E+02  0.22208025860E+02 -0.25766064709E+02  0.61074929009E+02  0.10000000000E+01 0.  0.
    9000005    1    3    3    0    0 -0.50715485311E+02 -0.22208025860E+02  0.32317550537E+02  0.64114592221E+02  0.10000000000E+01 0.  0.
<mgrwt>
<rscale>  0 0.12501798E+03</rscale>
<asrwt>0</asrwt>
<pdfrwt beam="2">  1        4 0.14829754E-01 0.12501798E+03</pdfrwt>
<pdfrwt beam="1">  1       -4 0.16467626E-01 0.12501798E+03</pdfrwt>
<totfact> 0.19816445E+03</totfact>
</mgrwt>
</event>
<event>
 5    1  0.1422067E-002  0.1250024E+03  0.7818608E-02  0.1235065E+00
         -4   -1    0    0    0  501 -0.00000000000E+00  0.00000000000E+00  0.18138393390E+02  0.18182799971E+02  0.12700000000E+01 0.  1.
          4   -1    0    0  501    0  0.00000000000E+00 -0.00000000000E+00 -0.21505689410E+03  0.21506064401E+03  0.12700000000E+01 0.  1.
         25    2    1    2    0    0  0.00000000000E+00  0.00000000000E+00 -0.19691850071E+03  0.23324344398E+03  0.12500243292E+03 0.  0.
    9000005    1    3    3    0    0  0.34638637270E+02  0.63549009627E+01 -0.19478766740E+03  0.19794811272E+03  0.10000000000E+01 0.  0.
    9000005    1    3    3    0    0 -0.34638637270E+02 -0.63549009627E+01 -0.21308333134E+01  0.35295331260E+02  0.10000000000E+01 0.  0.
<mgrwt>
<rscale>  0 0.12500243E+03</rscale>
<asrwt>0</asrwt>
<pdfrwt beam="2">  1        4 0.53770235E-01 0.12500243E+03</pdfrwt>
<pdfrwt beam="1">  1       -4 0.45406186E-02 0.12500243E+03</pdfrwt>
<totfact> 0.15071261E+03</totfact>
</mgrwt>
</event>
<event>
 5    1  0.1422067E-002  0.1249788E+03  0.7818608E-02  0.1235102E+00
          4   -1    0    0  501    0  0.00000000000E+00  0.00000000000E+00  0.80883195900E+02  0.80893165837E+02  0.12700000000E+01 0. -1.
         -4   -1    0    0    0  501 -0.00000000000E+00 -0.00000000000E+00 -0.48257302400E+02  0.48274010967E+02  0.12700000000E+01 0. -1.
         25    2    1    2    0    0  0.00000000000E+00  0.00000000000E+00  0.32625893501E+02  0.12916717680E+03  0.12497884076E+03 0.  0.
    9000005    1    3    3    0    0  0.57557106509E+02 -0.23255328856E+02  0.23642643034E+02  0.66434971209E+02  0.10000000000E+01 0.  0.
    9000005    1    3    3    0    0 -0.57557106509E+02  0.23255328856E+02  0.89832504671E+01  0.62732205595E+02  0.10000000000E+01 0.  0.
<mgrwt>
<rscale>  0 0.12497884E+03</rscale>
<asrwt>0</asrwt>
<pdfrwt beam="1">  1        4 0.20224134E-01 0.12497884E+03</pdfrwt>
<pdfrwt beam="2">  1       -4 0.12067660E-01 0.12497884E+03</pdfrwt>
<totfact> 0.19618948E+03</totfact>
</mgrwt>
</event>
<event>
 5    1  0.1422067E-002  0.1249953E+03  0.7818608E-02  0.1235077E+00
          4   -1    0    0  501    0  0.00000000000E+00  0.00000000000E+00  0.35641643059E+02  0.35664262503E+02  0.12700000000E+01 0.  1.
         -4   -1    0    0    0  501 -0.00000000000E+00 -0.00000000000E+00 -0.10952866327E+03  0.10953602593E+03  0.12700000000E+01 0.  1.
         25    2    1    2    0    0  0.00000000000E+00  0.00000000000E+00 -0.73887020209E+02  0.14520028844E+03  0.12499532794E+03 0.  0.
    9000005    1    3    3    0    0 -0.50462653559E+02 -0.19943252414E+02 -0.93726540266E+00  0.54277906993E+02  0.10000000000E+01 0.  0.
    9000005    1    3    3    0    0  0.50462653559E+02  0.19943252414E+02 -0.72949754807E+02  0.90922381444E+02  0.10000000000E+01 0.  0.
<mgrwt>
<rscale>  0 0.12499533E+03</rscale>
<asrwt>0</asrwt>
<pdfrwt beam="1">  1        4 0.89141588E-02 0.12499533E+03</pdfrwt>
<pdfrwt beam="2">  1       -4 0.27385913E-01 0.12499533E+03</pdfrwt>
<totfact> 0.18779360E+03</totfact>
</mgrwt>
</event>
<event>
 5    1  0.1422067E-002  0.1250075E+03  0.7818608E-02  0.1235058E+00
          4   -1    0    0  501    0  0.00000000000E+00  0.00000000000E+00  0.15316538103E+02  0.15369100151E+02  0.12700000000E+01 0. -1.
         -4   -1    0    0    0  501 -0.00000000000E+00 -0.00000000000E+00 -0.25457428843E+03  0.25457745625E+03  0.12700000000E+01 0. -1.
         25    2    1    2    0    0  0.00000000000E+00  0.00000000000E+00 -0.23925775033E+03  0.26994655640E+03  0.12500748866E+03 0.  0.
    9000005    1    3    3    0    0  0.83690421268E+01  0.60200053206E+01 -0.25273602046E+03  0.25294817131E+03  0.10000000000E+01 0.  0.
    9000005    1    3    3    0    0 -0.83690421268E+01 -0.60200053206E+01  0.13478270128E+02  0.16998385095E+02  0.10000000000E+01 0.  0.
<mgrwt>
<rscale>  0 0.12500749E+03</rscale>
<asrwt>0</asrwt>
<pdfrwt beam="1">  1        4 0.38361016E-02 0.12500749E+03</pdfrwt>
<pdfrwt beam="2">  1       -4 0.63650525E-01 0.12500749E+03</pdfrwt>
<totfact> 0.13854851E+03</totfact>
</mgrwt>
</event>
<event>
 5    1  0.1422067E-002  0.1250016E+03  0.7818608E-02  0.1235067E+00
         -4   -1    0    0    0  501 -0.00000000000E+00  0.00000000000E+00  0.71283025634E+02  0.71294338089E+02  0.12700000000E+01 0. -1.
          4   -1    0    0  501    0  0.00000000000E+00 -0.00000000000E+00 -0.54777547142E+02  0.54792267437E+02  0.12700000000E+01 0. -1.
         25    2    1    2    0    0  0.00000000000E+00  0.00000000000E+00  0.16505478492E+02  0.12608660553E+03  0.12500160508E+03 0.  0.
    9000005    1    3    3    0    0  0.16018394041E+02 -0.49210422123E+02  0.43586721360E+02  0.67668728909E+02  0.10000000000E+01 0.  0.
    9000005    1    3    3    0    0 -0.16018394041E+02  0.49210422123E+02 -0.27081242868E+02  0.58417876617E+02  0.10000000000E+01 0.  0.
<mgrwt>
<rscale>  0 0.12500161E+03</rscale>
<asrwt>0</asrwt>
<pdfrwt beam="2">  1        4 0.13697641E-01 0.12500161E+03</pdfrwt>
<pdfrwt beam="1">  1       -4 0.17824010E-01 0.12500161E+03</pdfrwt>
<totfact> 0.19775498E+03</totfact>
</mgrwt>
</event>
<event>
 5    1  0.1422067E-002  0.1250049E+03  0.7818608E-02  0.1235062E+00
         -4   -1    0    0    0  501 -0.00000000000E+00  0.00000000000E+00  0.13813637754E+03  0.13814221549E+03  0.12700000000E+01 0.  1.
          4   -1    0    0  501    0  0.00000000000E+00 -0.00000000000E+00 -0.28259753766E+02  0.28288276422E+02  0.12700000000E+01 0.  1.
         25    2    1    2    0    0  0.00000000000E+00  0.00000000000E+00  0.10987662377E+03  0.16643049191E+03  0.12500494464E+03 0.  0.
    9000005    1    3    3    0    0  0.39063628608E+02  0.33948666439E+02  0.83000726485E+01  0.52424900943E+02  0.10000000000E+01 0.  0.
    9000005    1    3    3    0    0 -0.39063628608E+02 -0.33948666439E+02  0.10157655112E+03  0.11400559096E+03  0.10000000000E+01 0.  0.
<mgrwt>
<rscale>  0 0.12500494E+03</rscale>
<asrwt>0</asrwt>
<pdfrwt beam="2">  1        4 0.70692336E-02 0.12500494E+03</pdfrwt>
<pdfrwt beam="1">  1       -4 0.34538389E-01 0.12500494E+03</pdfrwt>
<totfact> 0.17757220E+03</totfact>
</mgrwt>
</event>
<event>
 5    1  0.1422067E-002  0.1249977E+03  0.7818608E-02  0.1235073E+00
         -4   -1    0    0    0  501 -0.00000000000E+00  0.00000000000E+00  0.82454620716E+02  0.82464400668E+02  0.12700000000E+01 0.  1.
          4   -1    0    0  501    0  0.00000000000E+00 -0.00000000000E+00 -0.47351688564E+02  0.47368716574E+02  0.12700000000E+01 0.  1.
         25    2    1    2    0    0  0.00000000000E+00  0.00000000000E+00  0.35102932153E+02  0.12983311724E+03  0.12499768993E+03 0.  0.
    9000005    1    3    3    0    0 -0.96066715390E+01  0.20460540634E+02 -0.42961880742E+02  0.48555587300E+02  0.10000000000E+01 0.  0.
    9000005    1    3    3    0    0  0.96066715390E+01 -0.20460540634E+02  0.78064812895E+02  0.81277529942E+02  0.10000000000E+01 0.  0.
<mgrwt>
<rscale>  0 0.12499769E+03</rscale>
<asrwt>0</asrwt>
<pdfrwt beam="2">  1        4 0.11841273E-01 0.12499769E+03</pdfrwt>
<pdfrwt beam="1">  1       -4 0.20617006E-01 0.12499769E+03</pdfrwt>
<totfact> 0.19574413E+03</totfact>
</mgrwt>
</event>
<event>
 5    1  0.1422067E-002  0.1250088E+03  0.7818608E-02  0.1235056E+00
         -4   -1    0    0    0  501 -0.00000000000E+00  0.00000000000E+00  0.15518956368E+02  0.15570835134E+02  0.12700000000E+01 0. -1.
          4   -1    0    0  501    0  0.00000000000E+00 -0.00000000000E+00 -0.25127018967E+03  0.25127339914E+03  0.12700000000E+01 0. -1.
         25    2    1    2    0    0  0.00000000000E+00  0.00000000000E+00 -0.23575123330E+03  0.26684423427E+03  0.12500880514E+03 0.  0.
    9000005    1    3    3    0    0  0.50486001146E+02  0.33114533426E+02 -0.83430251582E+02  0.10299036613E+03  0.10000000000E+01 0.  0.
    9000005    1    3    3    0    0 -0.50486001146E+02 -0.33114533426E+02 -0.15232098172E+03  0.16385386815E+03  0.10000000000E+01 0.  0.
<mgrwt>
<rscale>  0 0.12500881E+03</rscale>
<asrwt>0</asrwt>
<pdfrwt beam="2">  1        4 0.62824420E-01 0.12500881E+03</pdfrwt>
<pdfrwt beam="1">  1       -4 0.38866259E-02 0.12500881E+03</pdfrwt>
<totfact> 0.13951161E+03</totfact>
</mgrwt>
</event>
<event>
 5    1  0.1422067E-002  0.1249982E+03  0.7818608E-02  0.1235072E+00
         -4   -1    0    0    0  501 -0.00000000000E+00  0.00000000000E+00  0.76656710846E+02  0.76667230403E+02  0.12700000000E+01 0.  1.
          4   -1    0    0  501    0  0.00000000000E+00 -0.00000000000E+00 -0.50934327805E+02  0.50950158478E+02  0.12700000000E+01 0.  1.
         25    2    1    2    0    0  0.00000000000E+00  0.00000000000E+00  0.25722383041E+02  0.12761738888E+03  0.12499822781E+03 0.  0.
    9000005    1    3    3    0    0  0.42702231621E+01  0.41491240068E+02  0.60369897647E+02  0.73384483034E+02  0.10000000000E+01 0.  0.
    9000005    1    3    3    0    0 -0.42702231621E+01 -0.41491240068E+02 -0.34647514606E+02  0.54232905847E+02  0.10000000000E+01 0.  0.
<mgrwt>
<rscale>  0 0.12499823E+03</rscale>
<asrwt>0</asrwt>
<pdfrwt beam="2">  1        4 0.12736876E-01 0.12499823E+03</pdfrwt>
<pdfrwt beam="1">  1       -4 0.19167471E-01 0.12499823E+03</pdfrwt>
<totfact> 0.19694193E+03</totfact>
</mgrwt>
</event>
<event>
 5    1  0.1422067E-002  0.1250052E+03  0.7818608E-02  0.1235061E+00
         -4   -1    0    0    0  501 -0.00000000000E+00  0.00000000000E+00  0.51787233858E+02  0.51802803888E+02  0.12700000000E+01 0. -1.
          4   -1    0    0  501    0  0.00000000000E+00 -0.00000000000E+00 -0.75402872417E+02  0.75413566875E+02  0.12700000000E+01 0. -1.
         25    2    1    2    0    0  0.00000000000E+00  0.00000000000E+00 -0.23615638559E+02  0.12721637076E+03  0.12500522631E+03 0.  0.
    9000005    1    3    3    0    0 -0.51747232687E+02  0.51645933599E+01 -0.47078138700E+02  0.70155543322E+02  0.10000000000E+01 0.  0.
    9000005    1    3    3    0    0  0.51747232687E+02 -0.51645933599E+01  0.23462500141E+02  0.57060827441E+02  0.10000000000E+01 0.  0.
<mgrwt>
<rscale>  0 0.12500523E+03</rscale>
<asrwt>0</asrwt>
<pdfrwt beam="2">  1        4 0.18854001E-01 0.12500523E+03</pdfrwt>
<pdfrwt beam="1">  1       -4 0.12950092E-01 0.12500523E+03</pdfrwt>
<totfact> 0.19712853E+03</totfact>
</mgrwt>
</event>
<event>
 5    1  0.1422067E-002  0.1249995E+03  0.7818608E-02  0.1235070E+00
          4   -1    0    0  501    0  0.00000000000E+00  0.00000000000E+00  0.11518356059E+04  0.11518363060E+04  0.12700000000E+01 0.  1.
         -4   -1    0    0    0  501 -0.00000000000E+00 -0.00000000000E+00 -0.32716741971E+01  0.35095230520E+01  0.12700000000E+01 0.  1.
         25    2    1    2    0    0  0.00000000000E+00  0.00000000000E+00  0.11485639317E+04  0.11553458291E+04  0.12499951839E+03 0.  0.
    9000005    1    3    3    0    0 -0.10942398088E+02 -0.46664014985E+02  0.20365210401E+03  0.20921865557E+03  0.10000000000E+01 0.  0.
    9000005    1    3    3    0    0  0.10942398088E+02  0.46664014985E+02  0.94491182765E+03  0.94612717349E+03  0.10000000000E+01 0.  0.
<mgrwt>
<rscale>  0 0.12499952E+03</rscale>
<asrwt>0</asrwt>
<pdfrwt beam="1">  1        4 0.28798877E+00 0.12499952E+03</pdfrwt>
<pdfrwt beam="2">  1       -4 0.84773702E-03 0.12499952E+03</pdfrwt>
<totfact> 0.27607188E+02</totfact>
</mgrwt>
</event>
<event>
 5    1  0.1422067E-002  0.1250030E+03  0.7818608E-02  0.1235065E+00
          4   -1    0    0  501    0  0.00000000000E+00  0.00000000000E+00  0.11421559818E+03  0.11422265873E+03  0.12700000000E+01 0. -1.
         -4   -1    0    0    0  501 -0.00000000000E+00 -0.00000000000E+00 -0.34182382902E+02  0.34205967328E+02  0.12700000000E+01 0. -1.
         25    2    1    2    0    0  0.00000000000E+00  0.00000000000E+00  0.80033215275E+02  0.14842862606E+03  0.12500296591E+03 0.  0.
    9000005    1    3    3    0    0 -0.28360907676E+02 -0.34983041054E+02 -0.11430623563E+02  0.46473792622E+02  0.10000000000E+01 0.  0.
    9000005    1    3    3    0    0  0.28360907676E+02  0.34983041054E+02  0.91463838838E+02  0.10195483343E+03  0.10000000000E+01 0.  0.
<mgrwt>
<rscale>  0 0.12500297E+03</rscale>
<asrwt>0</asrwt>
<pdfrwt beam="1">  1        4 0.28557730E-01 0.12500297E+03</pdfrwt>
<pdfrwt beam="2">  1       -4 0.85494264E-02 0.12500297E+03</pdfrwt>
<totfact> 0.18615031E+03</totfact>
</mgrwt>
</event>
<event>
 5    1  0.1422067E-002  0.1250020E+03  0.7818608E-02  0.1235066E+00
         -4   -1    0    0    0  501 -0.00000000000E+00  0.00000000000E+00  0.14221921446E+03  0.14222488482E+03  0.12700000000E+01 0. -1.
          4   -1    0    0  501    0  0.00000000000E+00 -0.00000000000E+00 -0.27446399603E+02  0.27475766616E+02  0.12700000000E+01 0. -1.
         25    2    1    2    0    0  0.00000000000E+00  0.00000000000E+00  0.11477281486E+03  0.16970065144E+03  0.12500204825E+03 0.  0.
    9000005    1    3    3    0    0 -0.28966180306E+02 -0.26906302705E+02  0.12309102880E+03  0.12928801220E+03  0.10000000000E+01 0.  0.
    9000005    1    3    3    0    0  0.28966180306E+02  0.26906302705E+02 -0.83182139451E+01  0.40412639236E+02  0.10000000000E+01 0.  0.
<mgrwt>
<rscale>  0 0.12500205E+03</rscale>
<asrwt>0</asrwt>
<pdfrwt beam="2">  1        4 0.68659798E-02 0.12500205E+03</pdfrwt>
<pdfrwt beam="1">  1       -4 0.35559182E-01 0.12500205E+03</pdfrwt>
<totfact> 0.17609720E+03</totfact>
</mgrwt>
</event>
<event>
 5    1  0.1422067E-002  0.1250027E+03  0.7818608E-02  0.1235065E+00
         -4   -1    0    0    0  501 -0.00000000000E+00  0.00000000000E+00  0.13504125364E+03  0.13504722538E+03  0.12700000000E+01 0. -1.
          4   -1    0    0  501    0  0.00000000000E+00 -0.00000000000E+00 -0.28907025027E+02  0.28934909640E+02  0.12700000000E+01 0. -1.
         25    2    1    2    0    0  0.00000000000E+00  0.00000000000E+00  0.10613422861E+03  0.16398213502E+03  0.12500266447E+03 0.  0.
    9000005    1    3    3    0    0  0.54541563143E+02  0.30479873556E+02  0.54732532409E+02  0.83068976796E+02  0.10000000000E+01 0.  0.
    9000005    1    3    3    0    0 -0.54541563143E+02 -0.30479873556E+02  0.51401696201E+02  0.80913158228E+02  0.10000000000E+01 0.  0.
<mgrwt>
<rscale>  0 0.12500266E+03</rscale>
<asrwt>0</asrwt>
<pdfrwt beam="2">  1        4 0.72309884E-02 0.12500266E+03</pdfrwt>
<pdfrwt beam="1">  1       -4 0.33764545E-01 0.12500266E+03</pdfrwt>
<totfact> 0.17870838E+03</totfact>
</mgrwt>
</event>
<event>
 5    1  0.1422067E-002  0.1250020E+03  0.7818608E-02  0.1235066E+00
          4   -1    0    0  501    0  0.00000000000E+00  0.00000000000E+00  0.42406565863E+03  0.42406756034E+03  0.12700000000E+01 0. -1.
         -4   -1    0    0    0  501 -0.00000000000E+00 -0.00000000000E+00 -0.91660101393E+01  0.92535745458E+01  0.12700000000E+01 0. -1.
         25    2    1    2    0    0  0.00000000000E+00  0.00000000000E+00  0.41489964849E+03  0.43332113489E+03  0.12500195046E+03 0.  0.
    9000005    1    3    3    0    0 -0.48973960184E+02  0.37397368459E+02  0.24353489005E+03  0.25121157341E+03  0.10000000000E+01 0.  0.
    9000005    1    3    3    0    0  0.48973960184E+02 -0.37397368459E+02  0.17136475844E+03  0.18210956147E+03  0.10000000000E+01 0.  0.
<mgrwt>
<rscale>  0 0.12500195E+03</rscale>
<asrwt>0</asrwt>
<pdfrwt beam="1">  1        4 0.10602760E+00 0.12500195E+03</pdfrwt>
<pdfrwt beam="2">  1       -4 0.23026857E-02 0.12500195E+03</pdfrwt>
<totfact> 0.99085937E+02</totfact>
</mgrwt>
</event>
<event>
 5    1  0.1422067E-002  0.1249825E+03  0.7818608E-02  0.1235097E+00
         -4   -1    0    0    0  501 -0.00000000000E+00  0.00000000000E+00  0.16523483048E+03  0.16523971104E+03  0.12700000000E+01 0. -1.
          4   -1    0    0  501    0  0.00000000000E+00 -0.00000000000E+00 -0.23611682105E+02  0.23645812141E+02  0.12700000000E+01 0. -1.
         25    2    1    2    0    0  0.00000000000E+00  0.00000000000E+00  0.14162314838E+03  0.18888552318E+03  0.12498249762E+03 0.  0.
    9000005    1    3    3    0    0 -0.20036305194E+02 -0.44945818358E+02  0.12620286678E+02  0.50811925268E+02  0.10000000000E+01 0.  0.
    9000005    1    3    3    0    0  0.20036305194E+02  0.44945818358E+02  0.12900286170E+03  0.13807359791E+03  0.10000000000E+01 0.  0.
<mgrwt>
<rscale>  0 0.12498250E+03</rscale>
<asrwt>0</asrwt>
<pdfrwt beam="2">  1        4 0.59077969E-02 0.12498250E+03</pdfrwt>
<pdfrwt beam="1">  1       -4 0.41313583E-01 0.12498250E+03</pdfrwt>
<totfact> 0.16783774E+03</totfact>
</mgrwt>
</event>
<event>
 5    1  0.1422067E-002  0.1250028E+03  0.7818608E-02  0.1235065E+00
         -4   -1    0    0    0  501 -0.00000000000E+00  0.00000000000E+00  0.19816186819E+02  0.19856841643E+02  0.12700000000E+01 0.  1.
          4   -1    0    0  501    0  0.00000000000E+00 -0.00000000000E+00 -0.19688825555E+03  0.19689235149E+03  0.12700000000E+01 0.  1.
         25    2    1    2    0    0  0.00000000000E+00  0.00000000000E+00 -0.17707206873E+03  0.21674919313E+03  0.12500278076E+03 0.  0.
    9000005    1    3    3    0    0 -0.40656074038E+02 -0.39862635703E+02 -0.13319935268E+03  0.14486205037E+03  0.10000000000E+01 0.  0.
    9000005    1    3    3    0    0  0.40656074038E+02  0.39862635703E+02 -0.43872716051E+02  0.71887142766E+02  0.10000000000E+01 0.  0.
<mgrwt>
<rscale>  0 0.12500278E+03</rscale>
<asrwt>0</asrwt>
<pdfrwt beam="2">  1        4 0.49227652E-01 0.12500278E+03</pdfrwt>
<pdfrwt beam="1">  1       -4 0.49596412E-02 0.12500278E+03</pdfrwt>
<totfact> 0.15671637E+03</totfact>
</mgrwt>
</event>
<event>
 5    1  0.1422067E-002  0.1249968E+03  0.7818608E-02  0.1235074E+00
          4   -1    0    0  501    0  0.00000000000E+00  0.00000000000E+00  0.98680881929E+01  0.99494755933E+01  0.12700000000E+01 0. -1.
         -4   -1    0    0    0  501 -0.00000000000E+00 -0.00000000000E+00 -0.39411843603E+03  0.39412048224E+03  0.12700000000E+01 0. -1.
         25    2    1    2    0    0  0.00000000000E+00  0.00000000000E+00 -0.38425034784E+03  0.40406995784E+03  0.12499680399E+03 0.  0.
    9000005    1    3    3    0    0 -0.16127721072E+02 -0.57872547568E+02 -0.13653546417E+03  0.14917194148E+03  0.10000000000E+01 0.  0.
    9000005    1    3    3    0    0  0.16127721072E+02  0.57872547568E+02 -0.24771488367E+03  0.25489801635E+03  0.10000000000E+01 0.  0.
<mgrwt>
<rscale>  0 0.12499680E+03</rscale>
<asrwt>0</asrwt>
<pdfrwt beam="1">  1        4 0.24774526E-02 0.12499680E+03</pdfrwt>
<pdfrwt beam="2">  1       -4 0.98539986E-01 0.12499680E+03</pdfrwt>
<totfact> 0.10486610E+03</totfact>
</mgrwt>
</event>
<event>
 5    1  0.1422067E-002  0.1250010E+03  0.7818608E-02  0.1235068E+00
          4   -1    0    0  501    0  0.00000000000E+00  0.00000000000E+00  0.13426974823E+03  0.13427575429E+03  0.12700000000E+01 0. -1.
         -4   -1    0    0    0  501 -0.00000000000E+00 -0.00000000000E+00 -0.29072504833E+02  0.29100230880E+02  0.12700000000E+01 0. -1.
         25    2    1    2    0    0  0.00000000000E+00  0.00000000000E+00  0.10519724339E+03  0.16337598517E+03  0.12500101004E+03 0.  0.
    9000005    1    3    3    0    0  0.58853450749E+02  0.11110347025E+02  0.75911023003E+02  0.96698768811E+02  0.10000000000E+01 0.  0.
    9000005    1    3    3    0    0 -0.58853450749E+02 -0.11110347025E+02  0.29286220391E+02  0.66677216355E+02  0.10000000000E+01 0.  0.
<mgrwt>
<rscale>  0 0.12500101E+03</rscale>
<asrwt>0</asrwt>
<pdfrwt beam="1">  1        4 0.33571653E-01 0.12500101E+03</pdfrwt>
<pdfrwt beam="2">  1       -4 0.72723428E-02 0.12500101E+03</pdfrwt>
<totfact> 0.17899603E+03</totfact>
</mgrwt>
</event>
<event>
 5    1  0.1422067E-002  0.1249974E+03  0.7818608E-02  0.1235073E+00
         -4   -1    0    0    0  501 -0.00000000000E+00  0.00000000000E+00  0.28617431877E+02  0.28645598392E+02  0.12700000000E+01 0. -1.
          4   -1    0    0  501    0  0.00000000000E+00 -0.00000000000E+00 -0.13639510436E+03  0.13640101683E+03  0.12700000000E+01 0. -1.
         25    2    1    2    0    0  0.00000000000E+00  0.00000000000E+00 -0.10777767248E+03  0.16504661523E+03  0.12499743402E+03 0.  0.
    9000005    1    3    3    0    0 -0.49269504786E+01 -0.47630828979E+02 -0.10690448272E+03  0.11714324196E+03  0.10000000000E+01 0.  0.
    9000005    1    3    3    0    0  0.49269504786E+01  0.47630828979E+02 -0.87318976292E+00  0.47903373270E+02  0.10000000000E+01 0.  0.
<mgrwt>
<rscale>  0 0.12499743E+03</rscale>
<asrwt>0</asrwt>
<pdfrwt beam="2">  1        4 0.34103034E-01 0.12499743E+03</pdfrwt>
<pdfrwt beam="1">  1       -4 0.71586182E-02 0.12499743E+03</pdfrwt>
<totfact> 0.17823870E+03</totfact>
</mgrwt>
</event>
<event>
 5    1  0.1422067E-002  0.1249986E+03  0.7818608E-02  0.1235071E+00
          4   -1    0    0  501    0  0.00000000000E+00  0.00000000000E+00  0.89053193969E+02  0.89062249332E+02  0.12700000000E+01 0.  1.
         -4   -1    0    0    0  501 -0.00000000000E+00 -0.00000000000E+00 -0.43842757301E+02  0.43861147588E+02  0.12700000000E+01 0.  1.
         25    2    1    2    0    0  0.00000000000E+00  0.00000000000E+00  0.45210436668E+02  0.13292339692E+03  0.12499858345E+03 0.  0.
    9000005    1    3    3    0    0 -0.66958529012E+01  0.56234549239E+02 -0.54895093246E+01  0.56906007476E+02  0.10000000000E+01 0.  0.
    9000005    1    3    3    0    0  0.66958529012E+01 -0.56234549239E+02  0.50699945993E+02  0.76017389444E+02  0.10000000000E+01 0.  0.
<mgrwt>
<rscale>  0 0.12499858E+03</rscale>
<asrwt>0</asrwt>
<pdfrwt beam="1">  1        4 0.22266729E-01 0.12499858E+03</pdfrwt>
<pdfrwt beam="2">  1       -4 0.10964120E-01 0.12499858E+03</pdfrwt>
<totfact> 0.19409110E+03</totfact>
</mgrwt>
</event>
<event>
 5    1  0.1422067E-002  0.1249956E+03  0.7818608E-02  0.1235076E+00
         -4   -1    0    0    0  501 -0.00000000000E+00  0.00000000000E+00  0.36614484073E+02  0.36636502889E+02  0.12700000000E+01 0. -1.
          4   -1    0    0  501    0  0.00000000000E+00 -0.00000000000E+00 -0.10662061930E+03  0.10662818276E+03  0.12700000000E+01 0. -1.
         25    2    1    2    0    0  0.00000000000E+00  0.00000000000E+00 -0.70006135225E+02  0.14326468565E+03  0.12499564467E+03 0.  0.
    9000005    1    3    3    0    0  0.22250926198E+02 -0.57616398900E+02 -0.45890034244E+02  0.76952247412E+02  0.10000000000E+01 0.  0.
    9000005    1    3    3    0    0 -0.22250926198E+02  0.57616398900E+02 -0.24116100981E+02  0.66312438241E+02  0.10000000000E+01 0.  0.
<mgrwt>
<rscale>  0 0.12499564E+03</rscale>
<asrwt>0</asrwt>
<pdfrwt beam="2">  1        4 0.26658852E-01 0.12499564E+03</pdfrwt>
<pdfrwt beam="1">  1       -4 0.91573190E-02 0.12499564E+03</pdfrwt>
<totfact> 0.18876469E+03</totfact>
</mgrwt>
</event>
<event>
 5    1  0.1422067E-002  0.1249980E+03  0.7818608E-02  0.1235072E+00
         -4   -1    0    0    0  501 -0.00000000000E+00  0.00000000000E+00  0.98893013200E+02  0.98901167636E+02  0.12700000000E+01 0.  1.
          4   -1    0    0  501    0  0.00000000000E+00 -0.00000000000E+00 -0.39478467560E+02  0.39498889869E+02  0.12700000000E+01 0.  1.
         25    2    1    2    0    0  0.00000000000E+00  0.00000000000E+00  0.59414545639E+02  0.13840005751E+03  0.12499795072E+03 0.  0.
    9000005    1    3    3    0    0  0.39539421695E+02 -0.47035710991E+02  0.42302240760E+02  0.74606993974E+02  0.10000000000E+01 0.  0.
    9000005    1    3    3    0    0 -0.39539421695E+02  0.47035710991E+02  0.17112304879E+02  0.63793063532E+02  0.10000000000E+01 0.  0.
<mgrwt>
<rscale>  0 0.12499795E+03</rscale>
<asrwt>0</asrwt>
<pdfrwt beam="2">  1        4 0.98731891E-02 0.12499795E+03</pdfrwt>
<pdfrwt beam="1">  1       -4 0.24726825E-01 0.12499795E+03</pdfrwt>
<totfact> 0.19123408E+03</totfact>
</mgrwt>
</event>
<event>
 5    1  0.1422067E-002  0.1249781E+03  0.7818608E-02  0.1235104E+00
         -4   -1    0    0    0  501 -0.00000000000E+00  0.00000000000E+00  0.42321570770E+02  0.42340621777E+02  0.12700000000E+01 0.  1.
          4   -1    0    0  501    0  0.00000000000E+00 -0.00000000000E+00 -0.92222729544E+02  0.92231473720E+02  0.12700000000E+01 0.  1.
         25    2    1    2    0    0  0.00000000000E+00  0.00000000000E+00 -0.49901158774E+02  0.13457209550E+03  0.12497809104E+03 0.  0.
    9000005    1    3    3    0    0  0.19804031447E+00 -0.16381853016E+02 -0.89874060493E+02  0.91360555371E+02  0.10000000000E+01 0.  0.
    9000005    1    3    3    0    0 -0.19804031447E+00  0.16381853016E+02  0.39972901719E+02  0.43211540126E+02  0.10000000000E+01 0.  0.
<mgrwt>
<rscale>  0 0.12497809E+03</rscale>
<asrwt>0</asrwt>
<pdfrwt beam="2">  1        4 0.23059156E-01 0.12497809E+03</pdfrwt>
<pdfrwt beam="1">  1       -4 0.10583867E-01 0.12497809E+03</pdfrwt>
<totfact> 0.19331454E+03</totfact>
</mgrwt>
</event>
<event>
 5    1  0.1422067E-002  0.1249999E+03  0.7818608E-02  0.1235069E+00
         -4   -1    0    0    0  501 -0.00000000000E+00  0.00000000000E+00  0.45060069352E+01  0.46815594090E+01  0.12700000000E+01 0. -1.
          4   -1    0    0  501    0  0.00000000000E+00 -0.00000000000E+00 -0.85015726913E+03  0.85015821772E+03  0.12700000000E+01 0. -1.
         25    2    1    2    0    0  0.00000000000E+00  0.00000000000E+00 -0.84565126220E+03  0.85483977713E+03  0.12499994923E+03 0.  0.
    9000005    1    3    3    0    0 -0.11553817679E+02 -0.23561926410E+02 -0.34967538367E+02  0.43730810861E+02  0.10000000000E+01 0.  0.
    9000005    1    3    3    0    0  0.11553817679E+02  0.23561926410E+02 -0.81068372383E+03  0.81110896627E+03  0.10000000000E+01 0.  0.
<mgrwt>
<rscale>  0 0.12499995E+03</rscale>
<asrwt>0</asrwt>
<pdfrwt beam="2">  1        4 0.21256084E+00 0.12499995E+03</pdfrwt>
<pdfrwt beam="1">  1       -4 0.11485673E-02 0.12499995E+03</pdfrwt>
<totfact> 0.47835389E+02</totfact>
</mgrwt>
</event>
<event>
 5    1  0.1422067E-002  0.1250112E+03  0.7818608E-02  0.1235052E+00
         -4   -1    0    0    0  501 -0.00000000000E+00  0.00000000000E+00  0.97165071056E+02  0.97173370495E+02  0.12700000000E+01 0. -1.
          4   -1    0    0  501    0  0.00000000000E+00 -0.00000000000E+00 -0.40189366909E+02  0.40209428155E+02  0.12700000000E+01 0. -1.
         25    2    1    2    0    0  0.00000000000E+00  0.00000000000E+00  0.56975704147E+02  0.13738279865E+03  0.12501120950E+03 0.  0.
    9000005    1    3    3    0    0 -0.51215008924E+02  0.18023541467E+02 -0.55290365297E+01  0.54583838552E+02  0.10000000000E+01 0.  0.
    9000005    1    3    3    0    0  0.51215008924E+02 -0.18023541467E+02  0.62504740677E+02  0.82798960097E+02  0.10000000000E+01 0.  0.
<mgrwt>
<rscale>  0 0.12501121E+03</rscale>
<asrwt>0</asrwt>
<pdfrwt beam="2">  1        4 0.10050887E-01 0.12501121E+03</pdfrwt>
<pdfrwt beam="1">  1       -4 0.24294813E-01 0.12501121E+03</pdfrwt>
<totfact> 0.19170032E+03</totfact>
</mgrwt>
</event>
<event>
 4    1  0.1422067E-002  0.1249322E+03  0.7818608E-02  0.1235175E+00
          4   -1    0    0  501    0  0.00000000000E+00  0.00000000000E+00  0.36316158954E+03  0.36316381017E+03  0.12700000000E+01 0.  1.
         -4   -1    0    0    0  501 -0.00000000000E+00 -0.00000000000E+00 -0.10704773785E+02  0.10779846093E+02  0.12700000000E+01 0.  1.
    9000005    1    1    2    0    0 -0.30902586815E+02  0.44854279892E+02  0.26771069132E+03  0.27319753027E+03  0.10000000000E+01 0.  0.
    9000005    1    1    2    0    0  0.30902586815E+02 -0.44854279892E+02  0.84746124434E+02  0.10074612599E+03  0.10000000000E+01 0.  0.
<mgrwt>
<rscale>  0 0.12493219E+03</rscale>
<asrwt>0</asrwt>
<pdfrwt beam="1">  1        4 0.90800056E-01 0.12493219E+03</pdfrwt>
<pdfrwt beam="2">  1       -4 0.26858552E-02 0.12493219E+03</pdfrwt>
<totfact> 0.11143595E+03</totfact>
</mgrwt>
</event>
<event>
 5    1  0.1422067E-002  0.1250020E+03  0.7818608E-02  0.1235066E+00
          4   -1    0    0  501    0  0.00000000000E+00  0.00000000000E+00  0.74038969365E+01  0.75120296755E+01  0.12700000000E+01 0. -1.
         -4   -1    0    0    0  501 -0.00000000000E+00 -0.00000000000E+00 -0.52367691256E+03  0.52367845253E+03  0.12700000000E+01 0. -1.
         25    2    1    2    0    0  0.00000000000E+00  0.00000000000E+00 -0.51627301562E+03  0.53119048220E+03  0.12500200690E+03 0.  0.
    9000005    1    3    3    0    0 -0.17424663216E+02  0.65561458528E+01 -0.46332920267E+01  0.19211177258E+02  0.10000000000E+01 0.  0.
    9000005    1    3    3    0    0  0.17424663216E+02 -0.65561458528E+01 -0.51163972359E+03  0.51197930495E+03  0.10000000000E+01 0.  0.
<mgrwt>
<rscale>  0 0.12500201E+03</rscale>
<asrwt>0</asrwt>
<pdfrwt beam="1">  1        4 0.18646851E-02 0.12500201E+03</pdfrwt>
<pdfrwt beam="2">  1       -4 0.13093281E+00 0.12500201E+03</pdfrwt>
<totfact> 0.82846897E+02</totfact>
</mgrwt>
</event>
<event>
 5    1  0.1422067E-002  0.1250003E+03  0.7818608E-02  0.1235069E+00
         -4   -1    0    0    0  501 -0.00000000000E+00  0.00000000000E+00  0.33427787126E+01  0.35759012181E+01  0.12700000000E+01 0.  1.
          4   -1    0    0  501    0  0.00000000000E+00 -0.00000000000E+00 -0.11289604933E+04  0.11289612076E+04  0.12700000000E+01 0.  1.
         25    2    1    2    0    0  0.00000000000E+00  0.00000000000E+00 -0.11256177146E+04  0.11325371088E+04  0.12500025409E+03 0.  0.
    9000005    1    3    3    0    0  0.51077752895E+02  0.33261730709E+02 -0.43792603658E+03  0.44214872281E+03  0.10000000000E+01 0.  0.
    9000005    1    3    3    0    0 -0.51077752895E+02 -0.33261730709E+02 -0.68769167799E+03  0.69038838602E+03  0.10000000000E+01 0.  0.
<mgrwt>
<rscale>  0 0.12500025E+03</rscale>
<asrwt>0</asrwt>
<pdfrwt beam="2">  1        4 0.28226809E+00 0.12500025E+03</pdfrwt>
<pdfrwt beam="1">  1       -4 0.86492815E-03 0.12500025E+03</pdfrwt>
<totfact> 0.28889472E+02</totfact>
</mgrwt>
</event>
<event>
 5    1  0.1422067E-002  0.1250016E+03  0.7818608E-02  0.1235067E+00
          4   -1    0    0  501    0  0.00000000000E+00  0.00000000000E+00  0.74575545351E+03  0.74575653490E+03  0.12700000000E+01 0. -1.
         -4   -1    0    0    0  501 -0.00000000000E+00 -0.00000000000E+00 -0.51600340353E+01  0.53140240163E+01  0.12700000000E+01 0. -1.
         25    2    1    2    0    0  0.00000000000E+00  0.00000000000E+00  0.74059541948E+03  0.75107055892E+03  0.12500163646E+03 0.  0.
    9000005    1    3    3    0    0 -0.59919725831E+01  0.62200542054E+02  0.37471757197E+03  0.37989349811E+03  0.10000000000E+01 0.  0.
    9000005    1    3    3    0    0  0.59919725831E+01 -0.62200542054E+02  0.36587784751E+03  0.37117706080E+03  0.10000000000E+01 0.  0.
<mgrwt>
<rscale>  0 0.12500164E+03</rscale>
<asrwt>0</asrwt>
<pdfrwt beam="1">  1        4 0.18645825E+00 0.12500164E+03</pdfrwt>
<pdfrwt beam="2">  1       -4 0.13093924E-02 0.12500164E+03</pdfrwt>
<totfact> 0.56966015E+02</totfact>
</mgrwt>
</event>
<event>
 5    1  0.1422067E-002  0.1250002E+03  0.7818608E-02  0.1235069E+00
         -4   -1    0    0    0  501 -0.00000000000E+00  0.00000000000E+00  0.94745471471E+02  0.94753982841E+02  0.12700000000E+01 0.  1.
          4   -1    0    0  501    0  0.00000000000E+00 -0.00000000000E+00 -0.41208872000E+02  0.41228437170E+02  0.12700000000E+01 0.  1.
         25    2    1    2    0    0  0.00000000000E+00  0.00000000000E+00  0.53536599471E+02  0.13598242001E+03  0.12500020428E+03 0.  0.
    9000005    1    3    3    0    0 -0.12072939231E+02 -0.50101801622E+02  0.65219354725E+02  0.83129481041E+02  0.10000000000E+01 0.  0.
    9000005    1    3    3    0    0  0.12072939231E+02  0.50101801622E+02 -0.11682755254E+02  0.52852938970E+02  0.10000000000E+01 0.  0.
<mgrwt>
<rscale>  0 0.12500020E+03</rscale>
<asrwt>0</asrwt>
<pdfrwt beam="2">  1        4 0.10305728E-01 0.12500020E+03</pdfrwt>
<pdfrwt beam="1">  1       -4 0.23689877E-01 0.12500020E+03</pdfrwt>
<totfact> 0.19247710E+03</totfact>
</mgrwt>
</event>
<event>
 5    1  0.1422067E-002  0.1250224E+03  0.7818608E-02  0.1235034E+00
         -4   -1    0    0    0  501 -0.00000000000E+00  0.00000000000E+00  0.13194971499E+02  0.13255948584E+02  0.12700000000E+01 0.  1.
          4   -1    0    0  501    0  0.00000000000E+00 -0.00000000000E+00 -0.29540187321E+03  0.29540460321E+03  0.12700000000E+01 0.  1.
         25    2    1    2    0    0  0.00000000000E+00  0.00000000000E+00 -0.28220690172E+03  0.30866055180E+03  0.12502240143E+03 0.  0.
    9000005    1    3    3    0    0 -0.10138979504E+02 -0.61337874665E+02 -0.12519589894E+03  0.13978607544E+03  0.10000000000E+01 0.  0.
    9000005    1    3    3    0    0  0.10138979504E+02  0.61337874665E+02 -0.15701100277E+03  0.16887447636E+03  0.10000000000E+01 0.  0.
<mgrwt>
<rscale>  0 0.12502240E+03</rscale>
<asrwt>0</asrwt>
<pdfrwt beam="2">  1        4 0.73858410E-01 0.12502240E+03</pdfrwt>
<pdfrwt beam="1">  1       -4 0.33067072E-02 0.12502240E+03</pdfrwt>
<totfact> 0.12725227E+03</totfact>
</mgrwt>
</event>
<event>
 5    1  0.1422067E-002  0.1250037E+03  0.7818608E-02  0.1235063E+00
         -4   -1    0    0    0  501 -0.00000000000E+00  0.00000000000E+00  0.21059239900E+03  0.21059622840E+03  0.12700000000E+01 0.  1.
          4   -1    0    0  501    0  0.00000000000E+00 -0.00000000000E+00 -0.18524228261E+02  0.18567712101E+02  0.12700000000E+01 0.  1.
         25    2    1    2    0    0  0.00000000000E+00  0.00000000000E+00  0.19206817074E+03  0.22916394050E+03  0.12500371761E+03 0.  0.
    9000005    1    3    3    0    0  0.38969880415E+02  0.44770298390E+02  0.60182254294E+02  0.84533631943E+02  0.10000000000E+01 0.  0.
    9000005    1    3    3    0    0 -0.38969880415E+02 -0.44770298390E+02  0.13188591644E+03  0.14463030856E+03  0.10000000000E+01 0.  0.
<mgrwt>
<rscale>  0 0.12500372E+03</rscale>
<asrwt>0</asrwt>
<pdfrwt beam="2">  1        4 0.46369713E-02 0.12500372E+03</pdfrwt>
<pdfrwt beam="1">  1       -4 0.52654013E-01 0.12500372E+03</pdfrwt>
<totfact> 0.15215928E+03</totfact>
</mgrwt>
</event>
<event>
 5    1  0.1422067E-002  0.1250076E+03  0.7818608E-02  0.1235057E+00
         -4   -1    0    0    0  501 -0.00000000000E+00  0.00000000000E+00  0.53335348557E+02  0.53350466781E+02  0.12700000000E+01 0. -1.
          4   -1    0    0  501    0  0.00000000000E+00 -0.00000000000E+00 -0.73217281243E+02  0.73228294890E+02  0.12700000000E+01 0. -1.
         25    2    1    2    0    0  0.00000000000E+00  0.00000000000E+00 -0.19881932685E+02  0.12657876167E+03  0.12500756641E+03 0.  0.
    9000005    1    3    3    0    0  0.48893929833E+02  0.29214331807E+02  0.16104487270E+02  0.59198378928E+02  0.10000000000E+01 0.  0.
    9000005    1    3    3    0    0 -0.48893929833E+02 -0.29214331807E+02 -0.35986419955E+02  0.67380382743E+02  0.10000000000E+01 0.  0.
<mgrwt>
<rscale>  0 0.12500757E+03</rscale>
<asrwt>0</asrwt>
<pdfrwt beam="2">  1        4 0.18307587E-01 0.12500757E+03</pdfrwt>
<pdfrwt beam="1">  1       -4 0.13337104E-01 0.12500757E+03</pdfrwt>
<totfact> 0.19746182E+03</totfact>
</mgrwt>
</event>
<event>
 5    1  0.1422067E-002  0.1250014E+03  0.7818608E-02  0.1235067E+00
          4   -1    0    0  501    0  0.00000000000E+00  0.00000000000E+00  0.16946638569E+02  0.16994159549E+02  0.12700000000E+01 0.  1.
         -4   -1    0    0    0  501 -0.00000000000E+00 -0.00000000000E+00 -0.23013615171E+03  0.23013965591E+03  0.12700000000E+01 0.  1.
         25    2    1    2    0    0  0.00000000000E+00  0.00000000000E+00 -0.21318951314E+03  0.24713381546E+03  0.12500141692E+03 0.  0.
    9000005    1    3    3    0    0  0.13222119871E+02 -0.34757389707E+02 -0.20588978066E+03  0.20922357031E+03  0.10000000000E+01 0.  0.
    9000005    1    3    3    0    0 -0.13222119871E+02  0.34757389707E+02 -0.72997324801E+01  0.37910245151E+02  0.10000000000E+01 0.  0.
<mgrwt>
<rscale>  0 0.12500142E+03</rscale>
<asrwt>0</asrwt>
<pdfrwt beam="1">  1        4 0.42430385E-02 0.12500142E+03</pdfrwt>
<pdfrwt beam="2">  1       -4 0.57540406E-01 0.12500142E+03</pdfrwt>
<totfact> 0.14593331E+03</totfact>
</mgrwt>
</event>
<event>
 5    1  0.1422067E-002  0.1249917E+03  0.7818608E-02  0.1235082E+00
         -4   -1    0    0    0  501 -0.00000000000E+00  0.00000000000E+00  0.71249927025E+02  0.71261244734E+02  0.12700000000E+01 0. -1.
          4   -1    0    0  501    0  0.00000000000E+00 -0.00000000000E+00 -0.54794284017E+02  0.54808999817E+02  0.12700000000E+01 0. -1.
         25    2    1    2    0    0  0.00000000000E+00  0.00000000000E+00  0.16455643008E+02  0.12607024455E+03  0.12499167322E+03 0.  0.
    9000005    1    3    3    0    0  0.54837068293E+02 -0.73520777430E+01  0.37522768529E+02  0.66858920603E+02  0.10000000000E+01 0.  0.
    9000005    1    3    3    0    0 -0.54837068293E+02  0.73520777430E+01 -0.21067125521E+02  0.59211323949E+02  0.10000000000E+01 0.  0.
<mgrwt>
<rscale>  0 0.12499167E+03</rscale>
<asrwt>0</asrwt>
<pdfrwt beam="2">  1        4 0.13701825E-01 0.12499167E+03</pdfrwt>
<pdfrwt beam="1">  1       -4 0.17815736E-01 0.12499167E+03</pdfrwt>
<totfact> 0.19780977E+03</totfact>
</mgrwt>
</event>
<event>
 5    1  0.1422067E-002  0.1250532E+03  0.7818608E-02  0.1234986E+00
         -4   -1    0    0    0  501 -0.00000000000E+00  0.00000000000E+00  0.16318714622E+02  0.16368058740E+02  0.12700000000E+01 0. -1.
          4   -1    0    0  501    0  0.00000000000E+00 -0.00000000000E+00 -0.23916337635E+03  0.23916674829E+03  0.12700000000E+01 0. -1.
         25    2    1    2    0    0  0.00000000000E+00  0.00000000000E+00 -0.22284466173E+03  0.25553480703E+03  0.12505316607E+03 0.  0.
    9000005    1    3    3    0    0 -0.34046841180E+02  0.26154845856E+02 -0.18558195102E+02  0.46783223077E+02  0.10000000000E+01 0.  0.
    9000005    1    3    3    0    0  0.34046841180E+02 -0.26154845856E+02 -0.20428646662E+03  0.20875158395E+03  0.10000000000E+01 0.  0.
<mgrwt>
<rscale>  0 0.12505317E+03</rscale>
<asrwt>0</asrwt>
<pdfrwt beam="2">  1        4 0.59797422E-01 0.12505317E+03</pdfrwt>
<pdfrwt beam="1">  1       -4 0.40862689E-02 0.12505317E+03</pdfrwt>
<totfact> 0.14298181E+03</totfact>
</mgrwt>
</event>
<event>
 5    1  0.1422067E-002  0.1250075E+03  0.7818608E-02  0.1235058E+00
          4   -1    0    0  501    0  0.00000000000E+00  0.00000000000E+00  0.28867379820E+02  0.28895302692E+02  0.12700000000E+01 0.  1.
         -4   -1    0    0    0  501 -0.00000000000E+00 -0.00000000000E+00 -0.13523704829E+03  0.13524301139E+03  0.12700000000E+01 0.  1.
         25    2    1    2    0    0  0.00000000000E+00  0.00000000000E+00 -0.10636966847E+03  0.16413831409E+03  0.12500751889E+03 0.  0.
    9000005    1    3    3    0    0 -0.57388708672E+02  0.22633938689E+02 -0.66312541121E+02  0.90576554215E+02  0.10000000000E+01 0.  0.
    9000005    1    3    3    0    0  0.57388708672E+02 -0.22633938689E+02 -0.40057127352E+02  0.73561759871E+02  0.10000000000E+01 0.  0.
<mgrwt>
<rscale>  0 0.12500752E+03</rscale>
<asrwt>0</asrwt>
<pdfrwt beam="1">  1        4 0.72210811E-02 0.12500752E+03</pdfrwt>
<pdfrwt beam="2">  1       -4 0.33813496E-01 0.12500752E+03</pdfrwt>
<totfact> 0.17861601E+03</totfact>
</mgrwt>
</event>
<event>
 5    1  0.1422067E-002  0.1249995E+03  0.7818608E-02  0.1235070E+00
          4   -1    0    0  501    0  0.00000000000E+00  0.00000000000E+00  0.39908999280E+02  0.39929201388E+02  0.12700000000E+01 0.  1.
         -4   -1    0    0    0  501 -0.00000000000E+00 -0.00000000000E+00 -0.97829063435E+02  0.97837306548E+02  0.12700000000E+01 0.  1.
         25    2    1    2    0    0  0.00000000000E+00  0.00000000000E+00 -0.57920064156E+02  0.13776650794E+03  0.12499950751E+03 0.  0.
    9000005    1    3    3    0    0  0.24676059741E+01  0.46184008843E+02  0.17358126863E+02  0.49410083184E+02  0.10000000000E+01 0.  0.
    9000005    1    3    3    0    0 -0.24676059741E+01 -0.46184008843E+02 -0.75278191018E+02  0.88356424752E+02  0.10000000000E+01 0.  0.
<mgrwt>
<rscale>  0 0.12499951E+03</rscale>
<asrwt>0</asrwt>
<pdfrwt beam="1">  1        4 0.99808056E-02 0.12499951E+03</pdfrwt>
<pdfrwt beam="2">  1       -4 0.24460821E-01 0.12499951E+03</pdfrwt>
<totfact> 0.19155413E+03</totfact>
</mgrwt>
</event>
<event>
 5    1  0.1422067E-002  0.1250103E+03  0.7818608E-02  0.1235053E+00
          4   -1    0    0  501    0  0.00000000000E+00  0.00000000000E+00  0.94663620433E+01  0.95511732439E+01  0.12700000000E+01 0. -1.
         -4   -1    0    0    0  501 -0.00000000000E+00 -0.00000000000E+00 -0.41078705070E+03  0.41078901388E+03  0.12700000000E+01 0. -1.
         25    2    1    2    0    0  0.00000000000E+00  0.00000000000E+00 -0.40132068866E+03  0.42034018712E+03  0.12501031064E+03 0.  0.
    9000005    1    3    3    0    0  0.38191732048E+02 -0.42081119249E+02 -0.28811398387E+03  0.29366664212E+03  0.10000000000E+01 0.  0.
    9000005    1    3    3    0    0 -0.38191732048E+02  0.42081119249E+02 -0.11320670479E+03  0.12667354500E+03  0.10000000000E+01 0.  0.
<mgrwt>
<rscale>  0 0.12501031E+03</rscale>
<asrwt>0</asrwt>
<pdfrwt beam="1">  1        4 0.23774387E-02 0.12501031E+03</pdfrwt>
<pdfrwt beam="2">  1       -4 0.10270755E+00 0.12501031E+03</pdfrwt>
<totfact> 0.10157051E+03</totfact>
</mgrwt>
</event>
<event>
 5    1  0.1422067E-002  0.1250010E+03  0.7818608E-02  0.1235068E+00
          4   -1    0    0  501    0  0.00000000000E+00  0.00000000000E+00  0.20593359064E+03  0.20593750667E+03  0.12700000000E+01 0.  1.
         -4   -1    0    0    0  501 -0.00000000000E+00 -0.00000000000E+00 -0.18943430107E+02  0.18985953866E+02  0.12700000000E+01 0.  1.
         25    2    1    2    0    0  0.00000000000E+00  0.00000000000E+00  0.18699016053E+03  0.22492346053E+03  0.12500097185E+03 0.  0.
    9000005    1    3    3    0    0  0.54802818344E+02 -0.16251944556E+02  0.48051145391E+02  0.74681906601E+02  0.10000000000E+01 0.  0.
    9000005    1    3    3    0    0 -0.54802818344E+02  0.16251944556E+02  0.13893901514E+03  0.15024155393E+03  0.10000000000E+01 0.  0.
<mgrwt>
<rscale>  0 0.12500097E+03</rscale>
<asrwt>0</asrwt>
<pdfrwt beam="1">  1        4 0.51489202E-01 0.12500097E+03</pdfrwt>
<pdfrwt beam="2">  1       -4 0.47416625E-02 0.12500097E+03</pdfrwt>
<totfact> 0.15370075E+03</totfact>
</mgrwt>
</event>
<event>
 5    1  0.1422067E-002  0.1250279E+03  0.7818608E-02  0.1235026E+00
         -4   -1    0    0    0  501 -0.00000000000E+00  0.00000000000E+00  0.35826721110E+03  0.35826946206E+03  0.12700000000E+01 0. -1.
          4   -1    0    0  501    0  0.00000000000E+00 -0.00000000000E+00 -0.10868786418E+02  0.10942733580E+02  0.12700000000E+01 0. -1.
         25    2    1    2    0    0  0.00000000000E+00  0.00000000000E+00  0.34739842468E+03  0.36921219564E+03  0.12502791665E+03 0.  0.
    9000005    1    3    3    0    0 -0.20347701922E+02 -0.56359251556E+02  0.22624344220E+03  0.23404591290E+03  0.10000000000E+01 0.  0.
    9000005    1    3    3    0    0  0.20347701922E+02  0.56359251556E+02  0.12115498248E+03  0.13516628274E+03  0.10000000000E+01 0.  0.
<mgrwt>
<rscale>  0 0.12502792E+03</rscale>
<asrwt>0</asrwt>
<pdfrwt beam="2">  1        4 0.27267214E-02 0.12502792E+03</pdfrwt>
<pdfrwt beam="1">  1       -4 0.89576326E-01 0.12502792E+03</pdfrwt>
<totfact> 0.11224997E+03</totfact>
</mgrwt>
</event>
<event>
 5    1  0.1422067E-002  0.1249904E+03  0.7818608E-02  0.1235084E+00
          4   -1    0    0  501    0  0.00000000000E+00  0.00000000000E+00  0.34772981750E+03  0.34773213668E+03  0.12700000000E+01 0. -1.
         -4   -1    0    0    0  501 -0.00000000000E+00 -0.00000000000E+00 -0.11193583197E+02  0.11265398564E+02  0.12700000000E+01 0. -1.
         25    2    1    2    0    0  0.00000000000E+00  0.00000000000E+00  0.33653623430E+03  0.35899753524E+03  0.12499037287E+03 0.  0.
    9000005    1    3    3    0    0  0.36640752005E+02 -0.15037043721E+02  0.30708761845E+03  0.30963278702E+03  0.10000000000E+01 0.  0.
    9000005    1    3    3    0    0 -0.36640752005E+02  0.15037043721E+02  0.29448615849E+02  0.49364748220E+02  0.10000000000E+01 0.  0.
<mgrwt>
<rscale>  0 0.12499037E+03</rscale>
<asrwt>0</asrwt>
<pdfrwt beam="1">  1        4 0.86941721E-01 0.12499037E+03</pdfrwt>
<pdfrwt beam="2">  1       -4 0.28076626E-02 0.12499037E+03</pdfrwt>
<totfact> 0.11468146E+03</totfact>
</mgrwt>
</event>
<event>
 5    1  0.1422067E-002  0.1249947E+03  0.7818608E-02  0.1235078E+00
         -4   -1    0    0    0  501 -0.00000000000E+00  0.00000000000E+00  0.15695892389E+03  0.15696406177E+03  0.12700000000E+01 0.  1.
          4   -1    0    0  501    0  0.00000000000E+00 -0.00000000000E+00 -0.24863204392E+02  0.24895618743E+02  0.12700000000E+01 0.  1.
         25    2    1    2    0    0  0.00000000000E+00  0.00000000000E+00  0.13209571949E+03  0.18185968051E+03  0.12499465704E+03 0.  0.
    9000005    1    3    3    0    0 -0.92858885353E+01  0.26349075977E+01 -0.23779147132E+02  0.25683035301E+02  0.10000000000E+01 0.  0.
    9000005    1    3    3    0    0  0.92858885353E+01 -0.26349075977E+01  0.15587486663E+03  0.15617664521E+03  0.10000000000E+01 0.  0.
<mgrwt>
<rscale>  0 0.12499466E+03</rscale>
<asrwt>0</asrwt>
<pdfrwt beam="2">  1        4 0.62204953E-02 0.12499466E+03</pdfrwt>
<pdfrwt beam="1">  1       -4 0.39244424E-01 0.12499466E+03</pdfrwt>
<totfact> 0.17077137E+03</totfact>
</mgrwt>
</event>
<event>
 5    1  0.1422067E-002  0.1250489E+03  0.7818608E-02  0.1234993E+00
          4   -1    0    0  501    0  0.00000000000E+00  0.00000000000E+00  0.87050101971E+02  0.87059365683E+02  0.12700000000E+01 0. -1.
         -4   -1    0    0    0  501 -0.00000000000E+00 -0.00000000000E+00 -0.44888083811E+02  0.44906046010E+02  0.12700000000E+01 0. -1.
         25    2    1    2    0    0  0.00000000000E+00  0.00000000000E+00  0.42162018160E+02  0.13196541169E+03  0.12504892686E+03 0.  0.
    9000005    1    3    3    0    0  0.50569119718E+02  0.93789135224E+01  0.58586987610E+02  0.77965601422E+02  0.10000000000E+01 0.  0.
    9000005    1    3    3    0    0 -0.50569119718E+02 -0.93789135224E+01 -0.16424969450E+02  0.53999810271E+02  0.10000000000E+01 0.  0.
<mgrwt>
<rscale>  0 0.12504893E+03</rscale>
<asrwt>0</asrwt>
<pdfrwt beam="1">  1        4 0.21765928E-01 0.12504893E+03</pdfrwt>
<pdfrwt beam="2">  1       -4 0.11225424E-01 0.12504893E+03</pdfrwt>
<totfact> 0.19437090E+03</totfact>
</mgrwt>
</event>
<event>
 5    1  0.1422067E-002  0.1249983E+03  0.7818608E-02  0.1235072E+00
          4   -1    0    0  501    0  0.00000000000E+00  0.00000000000E+00  0.25300913753E+02  0.25332768043E+02  0.12700000000E+01 0.  1.
         -4   -1    0    0    0  501 -0.00000000000E+00 -0.00000000000E+00 -0.15425595515E+03  0.15426118306E+03  0.12700000000E+01 0.  1.
         25    2    1    2    0    0  0.00000000000E+00  0.00000000000E+00 -0.12895504140E+03  0.17959395110E+03  0.12499833827E+03 0.  0.
    9000005    1    3    3    0    0  0.20456665802E+02  0.48895086875E+02 -0.11204182417E+03  0.12394988930E+03  0.10000000000E+01 0.  0.
    9000005    1    3    3    0    0 -0.20456665802E+02 -0.48895086875E+02 -0.16913217230E+02  0.55644061798E+02  0.10000000000E+01 0.  0.
<mgrwt>
<rscale>  0 0.12499834E+03</rscale>
<asrwt>0</asrwt>
<pdfrwt beam="1">  1        4 0.63298642E-02 0.12499834E+03</pdfrwt>
<pdfrwt beam="2">  1       -4 0.38568621E-01 0.12499834E+03</pdfrwt>
<totfact> 0.17173466E+03</totfact>
</mgrwt>
</event>
<event>
 5    1  0.1422067E-002  0.1249999E+03  0.7818608E-02  0.1235069E+00
         -4   -1    0    0    0  501 -0.00000000000E+00  0.00000000000E+00  0.64145825644E+02  0.64158396547E+02  0.12700000000E+01 0. -1.
          4   -1    0    0  501    0  0.00000000000E+00 -0.00000000000E+00 -0.60871186591E+02  0.60884433618E+02  0.12700000000E+01 0. -1.
         25    2    1    2    0    0  0.00000000000E+00  0.00000000000E+00  0.32746390530E+01  0.12504283016E+03  0.12499994446E+03 0.  0.
    9000005    1    3    3    0    0  0.33805526277E+02 -0.88035929895E+00  0.54206827662E+02  0.63898112684E+02  0.10000000000E+01 0.  0.
    9000005    1    3    3    0    0 -0.33805526277E+02  0.88035929895E+00 -0.50932188609E+02  0.61144717481E+02  0.10000000000E+01 0.  0.
<mgrwt>
<rscale>  0 0.12499994E+03</rscale>
<asrwt>0</asrwt>
<pdfrwt beam="2">  1        4 0.15221024E-01 0.12499994E+03</pdfrwt>
<pdfrwt beam="1">  1       -4 0.16039684E-01 0.12499994E+03</pdfrwt>
<totfact> 0.19832759E+03</totfact>
</mgrwt>
</event>
<event>
 5    1  0.1422067E-002  0.1249922E+03  0.7818608E-02  0.1235081E+00
          4   -1    0    0  501    0  0.00000000000E+00  0.00000000000E+00  0.39704263618E+02  0.39724569846E+02  0.12700000000E+01 0.  1.
         -4   -1    0    0    0  501 -0.00000000000E+00 -0.00000000000E+00 -0.98321855600E+02  0.98330057402E+02  0.12700000000E+01 0.  1.
         25    2    1    2    0    0  0.00000000000E+00  0.00000000000E+00 -0.58617591982E+02  0.13805462725E+03  0.12499223182E+03 0.  0.
    9000005    1    3    3    0    0  0.37395219346E+02  0.24170317833E+02 -0.77732997169E+02  0.89588088176E+02  0.10000000000E+01 0.  0.
    9000005    1    3    3    0    0 -0.37395219346E+02 -0.24170317833E+02  0.19115405187E+02  0.48466539071E+02  0.10000000000E+01 0.  0.
<mgrwt>
<rscale>  0 0.12499223E+03</rscale>
<asrwt>0</asrwt>
<pdfrwt beam="1">  1        4 0.99296296E-02 0.12499223E+03</pdfrwt>
<pdfrwt beam="2">  1       -4 0.24584027E-01 0.12499223E+03</pdfrwt>
<totfact> 0.19143779E+03</totfact>
</mgrwt>
</event>
<event>
 5    1  0.1422067E-002  0.1250018E+03  0.7818608E-02  0.1235066E+00
          4   -1    0    0  501    0  0.00000000000E+00  0.00000000000E+00  0.64732192571E+02  0.64744649625E+02  0.12700000000E+01 0. -1.
         -4   -1    0    0    0  501 -0.00000000000E+00 -0.00000000000E+00 -0.60321617540E+02  0.60334985229E+02  0.12700000000E+01 0. -1.
         25    2    1    2    0    0  0.00000000000E+00  0.00000000000E+00  0.44105750316E+01  0.12507963485E+03  0.12500184752E+03 0.  0.
    9000005    1    3    3    0    0  0.40163897082E+02  0.47160133342E+02 -0.60550700954E+01  0.62248539578E+02  0.10000000000E+01 0.  0.
    9000005    1    3    3    0    0 -0.40163897082E+02 -0.47160133342E+02  0.10465645127E+02  0.62831095276E+02  0.10000000000E+01 0.  0.
<mgrwt>
<rscale>  0 0.12500185E+03</rscale>
<asrwt>0</asrwt>
<pdfrwt beam="1">  1        4 0.16186276E-01 0.12500185E+03</pdfrwt>
<pdfrwt beam="2">  1       -4 0.15083632E-01 0.12500185E+03</pdfrwt>
<totfact> 0.19829880E+03</totfact>
</mgrwt>
</event>
<event>
 5    1  0.1422067E-002  0.1250003E+03  0.7818608E-02  0.1235069E+00
         -4   -1    0    0    0  501 -0.00000000000E+00  0.00000000000E+00  0.21050563590E+02  0.21088838931E+02  0.12700000000E+01 0. -1.
          4   -1    0    0  501    0  0.00000000000E+00 -0.00000000000E+00 -0.18535704364E+03  0.18536139438E+03  0.12700000000E+01 0. -1.
         25    2    1    2    0    0  0.00000000000E+00  0.00000000000E+00 -0.16430648005E+03  0.20645023331E+03  0.12500031779E+03 0.  0.
    9000005    1    3    3    0    0  0.62115560094E+01  0.38597433630E+02 -0.16267475904E+03  0.16730936178E+03  0.10000000000E+01 0.  0.
    9000005    1    3    3    0    0 -0.62115560094E+01 -0.38597433630E+02 -0.16317210112E+01  0.39140871533E+02  0.10000000000E+01 0.  0.
<mgrwt>
<rscale>  0 0.12500032E+03</rscale>
<asrwt>0</asrwt>
<pdfrwt beam="2">  1        4 0.46344584E-01 0.12500032E+03</pdfrwt>
<pdfrwt beam="1">  1       -4 0.52679697E-02 0.12500032E+03</pdfrwt>
<totfact> 0.16066864E+03</totfact>
</mgrwt>
</event>
<event>
 4    1  0.1422067E-002  0.1250805E+03  0.7818608E-02  0.1234944E+00
         -4   -1    0    0    0  501 -0.00000000000E+00  0.00000000000E+00  0.27997131611E+03  0.27997419657E+03  0.12700000000E+01 0. -1.
          4   -1    0    0  501    0  0.00000000000E+00 -0.00000000000E+00 -0.13938469875E+02  0.13996208146E+02  0.12700000000E+01 0. -1.
    9000005    1    1    2    0    0 -0.20075320069E+02 -0.78497114573E+01  0.27097520209E+03  0.27183303072E+03  0.10000000000E+01 0.  0.
    9000005    1    1    2    0    0  0.20075320069E+02  0.78497114573E+01 -0.49423558536E+01  0.22137373991E+02  0.10000000000E+01 0.  0.
<mgrwt>
<rscale>  0 0.12508047E+03</rscale>
<asrwt>0</asrwt>
<pdfrwt beam="2">  1        4 0.34921947E-02 0.12508047E+03</pdfrwt>
<pdfrwt beam="1">  1       -4 0.70000409E-01 0.12508047E+03</pdfrwt>
<totfact> 0.13117536E+03</totfact>
</mgrwt>
</event>
<event>
 5    1  0.1422067E-002  0.1250011E+03  0.7818608E-02  0.1235068E+00
         -4   -1    0    0    0  501 -0.00000000000E+00  0.00000000000E+00  0.19049547691E+03  0.19049971029E+03  0.12700000000E+01 0.  1.
          4   -1    0    0  501    0  0.00000000000E+00 -0.00000000000E+00 -0.20481955915E+02  0.20521291823E+02  0.12700000000E+01 0.  1.
         25    2    1    2    0    0  0.00000000000E+00  0.00000000000E+00  0.17001352099E+03  0.21102100212E+03  0.12500106405E+03 0.  0.
    9000005    1    3    3    0    0  0.53383107161E+02 -0.26645047924E+02  0.53623362413E+02  0.80225804487E+02  0.10000000000E+01 0.  0.
    9000005    1    3    3    0    0 -0.53383107161E+02  0.26645047924E+02  0.11639015858E+03  0.13079519763E+03  0.10000000000E+01 0.  0.
<mgrwt>
<rscale>  0 0.12500106E+03</rscale>
<asrwt>0</asrwt>
<pdfrwt beam="2">  1        4 0.51259351E-02 0.12500106E+03</pdfrwt>
<pdfrwt beam="1">  1       -4 0.47629316E-01 0.12500106E+03</pdfrwt>
<totfact> 0.15889662E+03</totfact>
</mgrwt>
</event>
<event>
 5    1  0.1422067E-002  0.1249984E+03  0.7818608E-02  0.1235072E+00
         -4   -1    0    0    0  501 -0.00000000000E+00  0.00000000000E+00  0.99044396521E+02  0.99052538494E+02  0.12700000000E+01 0.  1.
          4   -1    0    0  501    0  0.00000000000E+00 -0.00000000000E+00 -0.39418385011E+02  0.39438838433E+02  0.12700000000E+01 0.  1.
         25    2    1    2    0    0  0.00000000000E+00  0.00000000000E+00  0.59626011509E+02  0.13849137693E+03  0.12499840093E+03 0.  0.
    9000005    1    3    3    0    0 -0.83410254760E+01 -0.21790617632E+02 -0.34416731118E+02  0.41592248119E+02  0.10000000000E+01 0.  0.
    9000005    1    3    3    0    0  0.83410254760E+01  0.21790617632E+02  0.94042742627E+02  0.96899128807E+02  0.10000000000E+01 0.  0.
<mgrwt>
<rscale>  0 0.12499840E+03</rscale>
<asrwt>0</asrwt>
<pdfrwt beam="2">  1        4 0.98581707E-02 0.12499840E+03</pdfrwt>
<pdfrwt beam="1">  1       -4 0.24764673E-01 0.12499840E+03</pdfrwt>
<totfact> 0.19118502E+03</totfact>
</mgrwt>
</event>
<event>
 5    1  0.1422067E-002  0.1249977E+03  0.7818608E-02  0.1235073E+00
         -4   -1    0    0    0  501 -0.00000000000E+00  0.00000000000E+00  0.24530879409E+02  0.24563732302E+02  0.12700000000E+01 0. -1.
          4   -1    0    0  501    0  0.00000000000E+00 -0.00000000000E+00 -0.15909020875E+03  0.15909527780E+03  0.12700000000E+01 0. -1.
         25    2    1    2    0    0  0.00000000000E+00  0.00000000000E+00 -0.13455932934E+03  0.18365901011E+03  0.12499767550E+03 0.  0.
    9000005    1    3    3    0    0 -0.16757308294E+02  0.35884434842E+02 -0.13830330413E+03  0.14386557607E+03  0.10000000000E+01 0.  0.
    9000005    1    3    3    0    0  0.16757308294E+02 -0.35884434842E+02  0.37439747890E+01  0.39793434036E+02  0.10000000000E+01 0.  0.
<mgrwt>
<rscale>  0 0.12499768E+03</rscale>
<asrwt>0</asrwt>
<pdfrwt beam="2">  1        4 0.39777289E-01 0.12499768E+03</pdfrwt>
<pdfrwt beam="1">  1       -4 0.61374606E-02 0.12499768E+03</pdfrwt>
<totfact> 0.16998884E+03</totfact>
</mgrwt>
</event>
<event>
 5    1  0.1422067E-002  0.1250004E+03  0.7818608E-02  0.1235069E+00
          4   -1    0    0  501    0  0.00000000000E+00  0.00000000000E+00  0.77091284281E+03  0.77091388890E+03  0.12700000000E+01 0. -1.
         -4   -1    0    0    0  501 -0.00000000000E+00 -0.00000000000E+00 -0.49864344163E+01  0.51456222352E+01  0.12700000000E+01 0. -1.
         25    2    1    2    0    0  0.00000000000E+00  0.00000000000E+00  0.76592640839E+03  0.77605951114E+03  0.12500040704E+03 0.  0.
    9000005    1    3    3    0    0  0.56123745425E+02  0.27388908023E+02  0.36874007151E+03  0.37399233604E+03  0.10000000000E+01 0.  0.
    9000005    1    3    3    0    0 -0.56123745425E+02 -0.27388908023E+02  0.39718633688E+03  0.40206717510E+03  0.10000000000E+01 0.  0.
<mgrwt>
<rscale>  0 0.12500041E+03</rscale>
<asrwt>0</asrwt>
<pdfrwt beam="1">  1        4 0.19274825E+00 0.12500041E+03</pdfrwt>
<pdfrwt beam="2">  1       -4 0.12666378E-02 0.12500041E+03</pdfrwt>
<totfact> 0.54634076E+02</totfact>
</mgrwt>
</event>
<event>
 5    1  0.1422067E-002  0.1250095E+03  0.7818608E-02  0.1235055E+00
         -4   -1    0    0    0  501 -0.00000000000E+00  0.00000000000E+00  0.38851959056E+02  0.38872710511E+02  0.12700000000E+01 0.  1.
          4   -1    0    0  501    0  0.00000000000E+00 -0.00000000000E+00 -0.10050550280E+03  0.10051352642E+03  0.12700000000E+01 0.  1.
         25    2    1    2    0    0  0.00000000000E+00  0.00000000000E+00 -0.61653543743E+02  0.13938623693E+03  0.12500945400E+03 0.  0.
    9000005    1    3    3    0    0  0.53193483412E+02  0.43838404652E+01 -0.67078621912E+02  0.85728094883E+02  0.10000000000E+01 0.  0.
    9000005    1    3    3    0    0 -0.53193483412E+02 -0.43838404652E+01  0.54250781681E+01  0.53658142046E+02  0.10000000000E+01 0.  0.
<mgrwt>
<rscale>  0 0.12500945E+03</rscale>
<asrwt>0</asrwt>
<pdfrwt beam="2">  1        4 0.25129972E-01 0.12500945E+03</pdfrwt>
<pdfrwt beam="1">  1       -4 0.97165869E-02 0.12500945E+03</pdfrwt>
<totfact> 0.19067581E+03</totfact>
</mgrwt>
</event>
<event>
 5    1  0.1422067E-002  0.1249991E+03  0.7818608E-02  0.1235071E+00
          4   -1    0    0  501    0  0.00000000000E+00  0.00000000000E+00  0.17805377992E+02  0.17850613027E+02  0.12700000000E+01 0.  1.
         -4   -1    0    0    0  501 -0.00000000000E+00 -0.00000000000E+00 -0.21905756634E+03  0.21906124776E+03  0.12700000000E+01 0.  1.
         25    2    1    2    0    0  0.00000000000E+00  0.00000000000E+00 -0.20125218834E+03  0.23691186078E+03  0.12499914587E+03 0.  0.
    9000005    1    3    3    0    0  0.27665804419E+02 -0.50293104299E+02 -0.53799962591E+02  0.78678008674E+02  0.10000000000E+01 0.  0.
    9000005    1    3    3    0    0 -0.27665804419E+02  0.50293104299E+02 -0.14745222575E+03  0.15823385211E+03  0.10000000000E+01 0.  0.
<mgrwt>
<rscale>  0 0.12499915E+03</rscale>
<asrwt>0</asrwt>
<pdfrwt beam="1">  1        4 0.44574597E-02 0.12499915E+03</pdfrwt>
<pdfrwt beam="2">  1       -4 0.54770498E-01 0.12499915E+03</pdfrwt>
<totfact> 0.14943735E+03</totfact>
</mgrwt>
</event>
<event>
 5    1  0.1422067E-002  0.1250010E+03  0.7818608E-02  0.1235068E+00
         -4   -1    0    0    0  501 -0.00000000000E+00  0.00000000000E+00  0.11367180693E+02  0.11437906142E+02  0.12700000000E+01 0. -1.
          4   -1    0    0  501    0  0.00000000000E+00 -0.00000000000E+00 -0.34251089807E+03  0.34251325259E+03  0.12700000000E+01 0. -1.
         25    2    1    2    0    0  0.00000000000E+00  0.00000000000E+00 -0.33114371738E+03  0.35395115873E+03  0.12500104482E+03 0.  0.
    9000005    1    3    3    0    0 -0.13992593866E+02 -0.19723948823E+02 -0.24054769470E+01  0.24323099301E+02  0.10000000000E+01 0.  0.
    9000005    1    3    3    0    0  0.13992593866E+02  0.19723948823E+02 -0.32873824043E+03  0.32962805943E+03  0.10000000000E+01 0.  0.
<mgrwt>
<rscale>  0 0.12500104E+03</rscale>
<asrwt>0</asrwt>
<pdfrwt beam="2">  1        4 0.85636825E-01 0.12500104E+03</pdfrwt>
<pdfrwt beam="1">  1       -4 0.28509313E-02 0.12500104E+03</pdfrwt>
<totfact> 0.11583372E+03</totfact>
</mgrwt>
</event>
<event>
 5    1  0.1422067E-002  0.1249974E+03  0.7818608E-02  0.1235073E+00
          4   -1    0    0  501    0  0.00000000000E+00  0.00000000000E+00  0.52164007447E+03  0.52164162046E+03  0.12700000000E+01 0. -1.
         -4   -1    0    0    0  501 -0.00000000000E+00 -0.00000000000E+00 -0.74326738991E+01  0.75403939745E+01  0.12700000000E+01 0. -1.
         25    2    1    2    0    0  0.00000000000E+00  0.00000000000E+00  0.51420740057E+03  0.52918201443E+03  0.12499741436E+03 0.  0.
    9000005    1    3    3    0    0 -0.24366061686E+02  0.38410739251E+02  0.75702476624E+02  0.88323014095E+02  0.10000000000E+01 0.  0.
    9000005    1    3    3    0    0  0.24366061686E+02 -0.38410739251E+02  0.43850492395E+03  0.44085900034E+03  0.10000000000E+01 0.  0.
<mgrwt>
<rscale>  0 0.12499741E+03</rscale>
<asrwt>0</asrwt>
<pdfrwt beam="1">  1        4 0.13042366E+00 0.12499741E+03</pdfrwt>
<pdfrwt beam="2">  1       -4 0.18718269E-02 0.12499741E+03</pdfrwt>
<totfact> 0.83149865E+02</totfact>
</mgrwt>
</event>
<event>
 5    1  0.1422067E-002  0.1250003E+03  0.7818608E-02  0.1235069E+00
         -4   -1    0    0    0  501 -0.00000000000E+00  0.00000000000E+00  0.40245523719E+03  0.40245724101E+03  0.12700000000E+01 0. -1.
          4   -1    0    0  501    0  0.00000000000E+00 -0.00000000000E+00 -0.96625183567E+01  0.97456226581E+01  0.12700000000E+01 0. -1.
         25    2    1    2    0    0  0.00000000000E+00  0.00000000000E+00  0.39279271884E+03  0.41220286367E+03  0.12500032339E+03 0.  0.
    9000005    1    3    3    0    0 -0.14755271174E+02 -0.43274086080E+02  0.55912349402E+02  0.72232647530E+02  0.10000000000E+01 0.  0.
    9000005    1    3    3    0    0  0.14755271174E+02  0.43274086080E+02  0.33688036943E+03  0.33997021614E+03  0.10000000000E+01 0.  0.
<mgrwt>
<rscale>  0 0.12500032E+03</rscale>
<asrwt>0</asrwt>
<pdfrwt beam="2">  1        4 0.24262681E-02 0.12500032E+03</pdfrwt>
<pdfrwt beam="1">  1       -4 0.10062445E+00 0.12500032E+03</pdfrwt>
<totfact> 0.10321397E+03</totfact>
</mgrwt>
</event>
<event>
 5    1  0.1422067E-002  0.1250005E+03  0.7818608E-02  0.1235068E+00
          4   -1    0    0  501    0  0.00000000000E+00  0.00000000000E+00  0.80212429760E+03  0.80212530299E+03  0.12700000000E+01 0. -1.
         -4   -1    0    0    0  501 -0.00000000000E+00 -0.00000000000E+00 -0.47860990877E+01  0.49517314625E+01  0.12700000000E+01 0. -1.
         25    2    1    2    0    0  0.00000000000E+00  0.00000000000E+00  0.79733819851E+03  0.80707703445E+03  0.12500054695E+03 0.  0.
    9000005    1    3    3    0    0 -0.14088831949E+01  0.55111710114E+02  0.20866556408E+03  0.21582771642E+03  0.10000000000E+01 0.  0.
    9000005    1    3    3    0    0  0.14088831949E+01 -0.55111710114E+02  0.58867263443E+03  0.59124931803E+03  0.10000000000E+01 0.  0.
<mgrwt>
<rscale>  0 0.12500055E+03</rscale>
<asrwt>0</asrwt>
<pdfrwt beam="1">  1        4 0.20055189E+00 0.12500055E+03</pdfrwt>
<pdfrwt beam="2">  1       -4 0.12173546E-02 0.12500055E+03</pdfrwt>
<totfact> 0.51856158E+02</totfact>
</mgrwt>
</event>
<event>
 5    1  0.1422067E-002  0.1250020E+03  0.7818608E-02  0.1235066E+00
         -4   -1    0    0    0  501 -0.00000000000E+00  0.00000000000E+00  0.45193901251E+02  0.45211741951E+02  0.12700000000E+01 0. -1.
          4   -1    0    0  501    0  0.00000000000E+00 -0.00000000000E+00 -0.86396340554E+02  0.86405674358E+02  0.12700000000E+01 0. -1.
         25    2    1    2    0    0  0.00000000000E+00  0.00000000000E+00 -0.41202439304E+02  0.13161741631E+03  0.12500201307E+03 0.  0.
    9000005    1    3    3    0    0  0.22100996875E+02  0.17009331618E+02 -0.79485891798E+02  0.84242379002E+02  0.10000000000E+01 0.  0.
    9000005    1    3    3    0    0 -0.22100996875E+02 -0.17009331618E+02  0.38283452494E+02  0.47375037307E+02  0.10000000000E+01 0.  0.
<mgrwt>
<rscale>  0 0.12500201E+03</rscale>
<asrwt>0</asrwt>
<pdfrwt beam="2">  1        4 0.21602482E-01 0.12500201E+03</pdfrwt>
<pdfrwt beam="1">  1       -4 0.11301872E-01 0.12500201E+03</pdfrwt>
<totfact> 0.19476905E+03</totfact>
</mgrwt>
</event>
<event>
 5    1  0.1422067E-002  0.1250002E+03  0.7818608E-02  0.1235069E+00
          4   -1    0    0  501    0  0.00000000000E+00  0.00000000000E+00  0.37884176421E+03  0.37884389293E+03  0.12700000000E+01 0.  1.
         -4   -1    0    0    0  501 -0.00000000000E+00 -0.00000000000E+00 -0.10269792411E+02  0.10348020882E+02  0.12700000000E+01 0.  1.
         25    2    1    2    0    0  0.00000000000E+00  0.00000000000E+00  0.36857197180E+03  0.38919191381E+03  0.12500018952E+03 0.  0.
    9000005    1    3    3    0    0 -0.23979733323E+02 -0.29024977218E+02  0.33958172982E+03  0.34166391109E+03  0.10000000000E+01 0.  0.
    9000005    1    3    3    0    0  0.23979733323E+02  0.29024977218E+02  0.28990241979E+02  0.47528002722E+02  0.10000000000E+01 0.  0.
<mgrwt>
<rscale>  0 0.12500019E+03</rscale>
<asrwt>0</asrwt>
<pdfrwt beam="1">  1        4 0.94720487E-01 0.12500019E+03</pdfrwt>
<pdfrwt beam="2">  1       -4 0.25774927E-02 0.12500019E+03</pdfrwt>
<totfact> 0.10795220E+03</totfact>
</mgrwt>
</event>
<event>
 4    1  0.1422067E-002  0.1251025E+03  0.7818608E-02  0.1234909E+00
          4   -1    0    0  501    0  0.00000000000E+00  0.00000000000E+00  0.27918825683E+02  0.27947696283E+02  0.12700000000E+01 0. -1.
         -4   -1    0    0    0  501 -0.00000000000E+00 -0.00000000000E+00 -0.14003983952E+03  0.14004559812E+03  0.12700000000E+01 0. -1.
    9000005    1    1    2    0    0 -0.52889805466E+02  0.61706391837E+01 -0.12006818210E+02  0.54594615062E+02  0.10000000000E+01 0.  0.
    9000005    1    1    2    0    0  0.52889805466E+02 -0.61706391837E+01 -0.10011419563E+03  0.11339867934E+03  0.10000000000E+01 0.  0.
<mgrwt>
<rscale>  0 0.12510246E+03</rscale>
<asrwt>0</asrwt>
<pdfrwt beam="1">  1        4 0.69840354E-02 0.12510246E+03</pdfrwt>
<pdfrwt beam="2">  1       -4 0.35014287E-01 0.12510246E+03</pdfrwt>
<totfact> 0.17645926E+03</totfact>
</mgrwt>
</event>
<event>
 5    1  0.1422067E-002  0.1249995E+03  0.7818608E-02  0.1235070E+00
          4   -1    0    0  501    0  0.00000000000E+00  0.00000000000E+00  0.13198649474E+02  0.13259609645E+02  0.12700000000E+01 0. -1.
         -4   -1    0    0    0  501 -0.00000000000E+00 -0.00000000000E+00 -0.29521161301E+03  0.29521434477E+03  0.12700000000E+01 0. -1.
         25    2    1    2    0    0  0.00000000000E+00  0.00000000000E+00 -0.28201296353E+03  0.30847395441E+03  0.12499947579E+03 0.  0.
    9000005    1    3    3    0    0  0.21339948554E+02  0.21135637101E+02 -0.27624357687E+03  0.27787339261E+03  0.10000000000E+01 0.  0.
    9000005    1    3    3    0    0 -0.21339948554E+02 -0.21135637101E+02 -0.57693866655E+01  0.30600561800E+02  0.10000000000E+01 0.  0.
<mgrwt>
<rscale>  0 0.12499948E+03</rscale>
<asrwt>0</asrwt>
<pdfrwt beam="1">  1        4 0.33076248E-02 0.12499948E+03</pdfrwt>
<pdfrwt beam="2">  1       -4 0.73810843E-01 0.12499948E+03</pdfrwt>
<totfact> 0.12736993E+03</totfact>
</mgrwt>
</event>
<event>
 5    1  0.1422067E-002  0.1250004E+03  0.7818608E-02  0.1235069E+00
          4   -1    0    0  501    0  0.00000000000E+00  0.00000000000E+00  0.91724878011E+01  0.92599909537E+01  0.12700000000E+01 0. -1.
         -4   -1    0    0    0  501 -0.00000000000E+00 -0.00000000000E+00 -0.42375857452E+03  0.42376047760E+03  0.12700000000E+01 0. -1.
         25    2    1    2    0    0  0.00000000000E+00  0.00000000000E+00 -0.41458608672E+03  0.43302046855E+03  0.12500041156E+03 0.  0.
    9000005    1    3    3    0    0 -0.31520549393E+01  0.49222728805E+02 -0.34022188295E+03  0.34378007813E+03  0.10000000000E+01 0.  0.
    9000005    1    3    3    0    0  0.31520549393E+01 -0.49222728805E+02 -0.74364203765E+02  0.89240390424E+02  0.10000000000E+01 0.  0.
<mgrwt>
<rscale>  0 0.12500041E+03</rscale>
<asrwt>0</asrwt>
<pdfrwt beam="1">  1        4 0.23042992E-02 0.12500041E+03</pdfrwt>
<pdfrwt beam="2">  1       -4 0.10595075E+00 0.12500041E+03</pdfrwt>
<totfact> 0.99146332E+02</totfact>
</mgrwt>
</event>
<event>
 5    1  0.1422067E-002  0.1250021E+03  0.7818608E-02  0.1235066E+00
         -4   -1    0    0    0  501 -0.00000000000E+00  0.00000000000E+00  0.10445631807E+02  0.10522553105E+02  0.12700000000E+01 0. -1.
          4   -1    0    0  501    0  0.00000000000E+00 -0.00000000000E+00 -0.37252282481E+03  0.37252498964E+03  0.12700000000E+01 0. -1.
         25    2    1    2    0    0  0.00000000000E+00  0.00000000000E+00 -0.36207719301E+03  0.38304754274E+03  0.12500210521E+03 0.  0.
    9000005    1    3    3    0    0 -0.52375828544E+02  0.28232769754E+02 -0.12248947583E+03  0.13617998529E+03  0.10000000000E+01 0.  0.
    9000005    1    3    3    0    0  0.52375828544E+02 -0.28232769754E+02 -0.23958771717E+03  0.24686755745E+03  0.10000000000E+01 0.  0.
<mgrwt>
<rscale>  0 0.12500211E+03</rscale>
<asrwt>0</asrwt>
<pdfrwt beam="2">  1        4 0.93140548E-01 0.12500211E+03</pdfrwt>
<pdfrwt beam="1">  1       -4 0.26212950E-02 0.12500211E+03</pdfrwt>
<totfact> 0.10926411E+03</totfact>
</mgrwt>
</event>
<event>
 5    1  0.1422067E-002  0.1249990E+03  0.7818608E-02  0.1235071E+00
          4   -1    0    0  501    0  0.00000000000E+00  0.00000000000E+00  0.74134879375E+01  0.75214827926E+01  0.12700000000E+01 0.  1.
         -4   -1    0    0    0  501 -0.00000000000E+00 -0.00000000000E+00 -0.52298411711E+03  0.52298565913E+03  0.12700000000E+01 0.  1.
         25    2    1    2    0    0  0.00000000000E+00  0.00000000000E+00 -0.51557062918E+03  0.53050714192E+03  0.12499901583E+03 0.  0.
    9000005    1    3    3    0    0 -0.22881962117E+02  0.11308585490E+02 -0.15696489535E+02  0.29980795183E+02  0.10000000000E+01 0.  0.
    9000005    1    3    3    0    0  0.22881962117E+02 -0.11308585490E+02 -0.49987413964E+03  0.50052634674E+03  0.10000000000E+01 0.  0.
<mgrwt>
<rscale>  0 0.12499902E+03</rscale>
<asrwt>0</asrwt>
<pdfrwt beam="1">  1        4 0.18670659E-02 0.12499902E+03</pdfrwt>
<pdfrwt beam="2">  1       -4 0.13075960E+00 0.12499902E+03</pdfrwt>
<totfact> 0.82952500E+02</totfact>
</mgrwt>
</event>
<event>
 5    1  0.1422067E-002  0.1249999E+03  0.7818608E-02  0.1235070E+00
         -4   -1    0    0    0  501 -0.00000000000E+00  0.00000000000E+00  0.11417142281E+02  0.11487560135E+02  0.12700000000E+01 0.  1.
          4   -1    0    0  501    0  0.00000000000E+00 -0.00000000000E+00 -0.34101474681E+03  0.34101711165E+03  0.12700000000E+01 0.  1.
         25    2    1    2    0    0  0.00000000000E+00  0.00000000000E+00 -0.32959760453E+03  0.35250467179E+03  0.12499985089E+03 0.  0.
    9000005    1    3    3    0    0  0.47366263650E+02 -0.27640817270E+02 -0.24929011097E+03  0.25525308449E+03  0.10000000000E+01 0.  0.
    9000005    1    3    3    0    0 -0.47366263650E+02  0.27640817270E+02 -0.80307493552E+02  0.97251587299E+02  0.10000000000E+01 0.  0.
<mgrwt>
<rscale>  0 0.12499985E+03</rscale>
<asrwt>0</asrwt>
<pdfrwt beam="2">  1        4 0.85262751E-01 0.12499985E+03</pdfrwt>
<pdfrwt beam="1">  1       -4 0.28633845E-02 0.12499985E+03</pdfrwt>
<totfact> 0.11617850E+03</totfact>
</mgrwt>
</event>
<event>
 5    1  0.1422067E-002  0.1250001E+03  0.7818608E-02  0.1235069E+00
         -4   -1    0    0    0  501 -0.00000000000E+00  0.00000000000E+00  0.52801550398E+02  0.52816821416E+02  0.12700000000E+01 0.  1.
          4   -1    0    0  501    0  0.00000000000E+00 -0.00000000000E+00 -0.73948485661E+02  0.73959390421E+02  0.12700000000E+01 0.  1.
         25    2    1    2    0    0  0.00000000000E+00  0.00000000000E+00 -0.21146935262E+02  0.12677621184E+03  0.12500006007E+03 0.  0.
    9000005    1    3    3    0    0  0.40583812988E+02 -0.17816786981E+02 -0.55253613442E+02  0.70840987948E+02  0.10000000000E+01 0.  0.
    9000005    1    3    3    0    0 -0.40583812988E+02  0.17816786981E+02  0.34106678180E+02  0.55935223889E+02  0.10000000000E+01 0.  0.
<mgrwt>
<rscale>  0 0.12500006E+03</rscale>
<asrwt>0</asrwt>
<pdfrwt beam="2">  1        4 0.18490393E-01 0.12500006E+03</pdfrwt>
<pdfrwt beam="1">  1       -4 0.13203660E-01 0.12500006E+03</pdfrwt>
<totfact> 0.19739005E+03</totfact>
</mgrwt>
</event>
<event>
 5    1  0.1422067E-002  0.1250044E+03  0.7818608E-02  0.1235062E+00
          4   -1    0    0  501    0  0.00000000000E+00  0.00000000000E+00  0.17620270823E+03  0.17620728500E+03  0.12700000000E+01 0. -1.
         -4   -1    0    0    0  501 -0.00000000000E+00 -0.00000000000E+00 -0.22147570114E+02  0.22183952802E+02  0.12700000000E+01 0. -1.
         25    2    1    2    0    0  0.00000000000E+00  0.00000000000E+00  0.15405513811E+03  0.19839123780E+03  0.12500439055E+03 0.  0.
    9000005    1    3    3    0    0  0.32965004606E+02 -0.24746541753E+02  0.24782923344E+01  0.41306473951E+02  0.10000000000E+01 0.  0.
    9000005    1    3    3    0    0 -0.32965004606E+02  0.24746541753E+02  0.15157684578E+03  0.15708476385E+03  0.10000000000E+01 0.  0.
<mgrwt>
<rscale>  0 0.12500439E+03</rscale>
<asrwt>0</asrwt>
<pdfrwt beam="1">  1        4 0.44055796E-01 0.12500439E+03</pdfrwt>
<pdfrwt beam="2">  1       -4 0.55420125E-02 0.12500439E+03</pdfrwt>
<totfact> 0.16384998E+03</totfact>
</mgrwt>
</event>
<event>
 5    1  0.1422067E-002  0.1250420E+03  0.7818608E-02  0.1235004E+00
          4   -1    0    0  501    0  0.00000000000E+00  0.00000000000E+00  0.73032864993E+02  0.73043906447E+02  0.12700000000E+01 0. -1.
         -4   -1    0    0    0  501 -0.00000000000E+00 -0.00000000000E+00 -0.53499491219E+02  0.53514563071E+02  0.12700000000E+01 0. -1.
         25    2    1    2    0    0  0.00000000000E+00  0.00000000000E+00  0.19533373774E+02  0.12655846952E+03  0.12504196702E+03 0.  0.
    9000005    1    3    3    0    0  0.20647502661E+02  0.59004597295E+02  0.96580971020E+01  0.63262474720E+02  0.10000000000E+01 0.  0.
    9000005    1    3    3    0    0 -0.20647502661E+02 -0.59004597295E+02  0.98752766722E+01  0.63295994798E+02  0.10000000000E+01 0.  0.
<mgrwt>
<rscale>  0 0.12504197E+03</rscale>
<asrwt>0</asrwt>
<pdfrwt beam="1">  1        4 0.18261480E-01 0.12504197E+03</pdfrwt>
<pdfrwt beam="2">  1       -4 0.13378137E-01 0.12504197E+03</pdfrwt>
<totfact> 0.19731397E+03</totfact>
</mgrwt>
</event>
<event>
 5    1  0.1422067E-002  0.1250001E+03  0.7818608E-02  0.1235069E+00
          4   -1    0    0  501    0  0.00000000000E+00  0.00000000000E+00  0.13093473575E+03  0.13094089478E+03  0.12700000000E+01 0.  1.
         -4   -1    0    0    0  501 -0.00000000000E+00 -0.00000000000E+00 -0.29813216969E+02  0.29840254791E+02  0.12700000000E+01 0.  1.
         25    2    1    2    0    0  0.00000000000E+00  0.00000000000E+00  0.10112151878E+03  0.16078114957E+03  0.12500006599E+03 0.  0.
    9000005    1    3    3    0    0  0.20791623120E+02 -0.56891035878E+02  0.30785443719E+02  0.67953109570E+02  0.10000000000E+01 0.  0.
    9000005    1    3    3    0    0 -0.20791623120E+02  0.56891035878E+02  0.70336075060E+02  0.92828040000E+02  0.10000000000E+01 0.  0.
<mgrwt>
<rscale>  0 0.12500007E+03</rscale>
<asrwt>0</asrwt>
<pdfrwt beam="1">  1        4 0.32737833E-01 0.12500007E+03</pdfrwt>
<pdfrwt beam="2">  1       -4 0.74574539E-02 0.12500007E+03</pdfrwt>
<totfact> 0.18021026E+03</totfact>
</mgrwt>
</event>
<event>
 5    1  0.1422067E-002  0.1249979E+03  0.7818608E-02  0.1235073E+00
          4   -1    0    0  501    0  0.00000000000E+00  0.00000000000E+00  0.15246819462E+02  0.15299621032E+02  0.12700000000E+01 0. -1.
         -4   -1    0    0    0  501 -0.00000000000E+00 -0.00000000000E+00 -0.25569508169E+03  0.25569823562E+03  0.12700000000E+01 0. -1.
         25    2    1    2    0    0  0.00000000000E+00  0.00000000000E+00 -0.24044826223E+03  0.27099785665E+03  0.12499788599E+03 0.  0.
    9000005    1    3    3    0    0  0.36374722002E+02 -0.45110463708E+02 -0.17093185705E+03  0.18049037119E+03  0.10000000000E+01 0.  0.
    9000005    1    3    3    0    0 -0.36374722002E+02  0.45110463708E+02 -0.69516405180E+02  0.90507485469E+02  0.10000000000E+01 0.  0.
<mgrwt>
<rscale>  0 0.12499789E+03</rscale>
<asrwt>0</asrwt>
<pdfrwt beam="1">  1        4 0.38187001E-02 0.12499789E+03</pdfrwt>
<pdfrwt beam="2">  1       -4 0.63930751E-01 0.12499789E+03</pdfrwt>
<totfact> 0.13825353E+03</totfact>
</mgrwt>
</event>
<event>
 5    1  0.1422067E-002  0.1249965E+03  0.7818608E-02  0.1235075E+00
         -4   -1    0    0    0  501 -0.00000000000E+00  0.00000000000E+00  0.35905842035E+02  0.35928295148E+02  0.12700000000E+01 0. -1.
          4   -1    0    0  501    0  0.00000000000E+00 -0.00000000000E+00 -0.10872524449E+03  0.10873266156E+03  0.12700000000E+01 0. -1.
         25    2    1    2    0    0  0.00000000000E+00  0.00000000000E+00 -0.72819402456E+02  0.14466095671E+03  0.12499650804E+03 0.  0.
    9000005    1    3    3    0    0 -0.47091485006E+02 -0.38595370765E+02 -0.52687280329E+02  0.80524282754E+02  0.10000000000E+01 0.  0.
    9000005    1    3    3    0    0  0.47091485006E+02  0.38595370765E+02 -0.20132122127E+02  0.64136673954E+02  0.10000000000E+01 0.  0.
<mgrwt>
<rscale>  0 0.12499651E+03</rscale>
<asrwt>0</asrwt>
<pdfrwt beam="2">  1        4 0.27185044E-01 0.12499651E+03</pdfrwt>
<pdfrwt beam="1">  1       -4 0.89801945E-02 0.12499651E+03</pdfrwt>
<totfact> 0.18805910E+03</totfact>
</mgrwt>
</event>
<event>
 5    1  0.1422067E-002  0.1249941E+03  0.7818608E-02  0.1235078E+00
          4   -1    0    0  501    0  0.00000000000E+00  0.00000000000E+00  0.74739274980E+02  0.74750064378E+02  0.12700000000E+01 0. -1.
         -4   -1    0    0    0  501 -0.00000000000E+00 -0.00000000000E+00 -0.52237825524E+02  0.52253261290E+02  0.12700000000E+01 0. -1.
         25    2    1    2    0    0  0.00000000000E+00  0.00000000000E+00  0.22501449456E+02  0.12700332567E+03  0.12499411787E+03 0.  0.
    9000005    1    3    3    0    0  0.52235691950E+02  0.27585573506E+02 -0.94570363680E+01  0.59832824737E+02  0.10000000000E+01 0.  0.
    9000005    1    3    3    0    0 -0.52235691950E+02 -0.27585573506E+02  0.31958485824E+02  0.67170500931E+02  0.10000000000E+01 0.  0.
<mgrwt>
<rscale>  0 0.12499412E+03</rscale>
<asrwt>0</asrwt>
<pdfrwt beam="1">  1        4 0.18688097E-01 0.12499412E+03</pdfrwt>
<pdfrwt beam="2">  1       -4 0.13062735E-01 0.12499412E+03</pdfrwt>
<totfact> 0.19729512E+03</totfact>
</mgrwt>
</event>
<event>
 5    1  0.1422067E-002  0.1249994E+03  0.7818608E-02  0.1235070E+00
         -4   -1    0    0    0  501 -0.00000000000E+00  0.00000000000E+00  0.49883555163E+01  0.51474839249E+01  0.12700000000E+01 0.  1.
          4   -1    0    0  501    0  0.00000000000E+00 -0.00000000000E+00 -0.77061282077E+03  0.77061386727E+03  0.12700000000E+01 0.  1.
         25    2    1    2    0    0  0.00000000000E+00  0.00000000000E+00 -0.76562446525E+03  0.77576135120E+03  0.12499940887E+03 0.  0.
    9000005    1    3    3    0    0 -0.17551552661E+02  0.25380703578E+02 -0.72006081598E+03  0.72072242633E+03  0.10000000000E+01 0.  0.
    9000005    1    3    3    0    0  0.17551552661E+02 -0.25380703578E+02 -0.45563649277E+02  0.55038924866E+02  0.10000000000E+01 0.  0.
<mgrwt>
<rscale>  0 0.12499941E+03</rscale>
<asrwt>0</asrwt>
<pdfrwt beam="2">  1        4 0.19267283E+00 0.12499941E+03</pdfrwt>
<pdfrwt beam="1">  1       -4 0.12671134E-02 0.12499941E+03</pdfrwt>
<totfact> 0.54662848E+02</totfact>
</mgrwt>
</event>
<event>
 5    1  0.1422067E-002  0.1250004E+03  0.7818608E-02  0.1235069E+00
         -4   -1    0    0    0  501 -0.00000000000E+00  0.00000000000E+00  0.50323982886E+02  0.50340005498E+02  0.12700000000E+01 0. -1.
          4   -1    0    0  501    0  0.00000000000E+00 -0.00000000000E+00 -0.77588989919E+02  0.77599383094E+02  0.12700000000E+01 0. -1.
         25    2    1    2    0    0  0.00000000000E+00  0.00000000000E+00 -0.27265007033E+02  0.12793938859E+03  0.12500042618E+03 0.  0.
    9000005    1    3    3    0    0  0.28620548038E+02  0.29759390653E+02  0.34380114904E+02  0.53737783754E+02  0.10000000000E+01 0.  0.
    9000005    1    3    3    0    0 -0.28620548038E+02 -0.29759390653E+02 -0.61645121936E+02  0.74201604838E+02  0.10000000000E+01 0.  0.
<mgrwt>
<rscale>  0 0.12500043E+03</rscale>
<asrwt>0</asrwt>
<pdfrwt beam="2">  1        4 0.19400549E-01 0.12500043E+03</pdfrwt>
<pdfrwt beam="1">  1       -4 0.12584298E-01 0.12500043E+03</pdfrwt>
<totfact> 0.19675637E+03</totfact>
</mgrwt>
</event>
<event>
 5    1  0.1422067E-002  0.1249994E+03  0.7818608E-02  0.1235070E+00
         -4   -1    0    0    0  501 -0.00000000000E+00  0.00000000000E+00  0.41091150810E+01  0.43008983653E+01  0.12700000000E+01 0. -1.
          4   -1    0    0  501    0  0.00000000000E+00 -0.00000000000E+00 -0.92875151202E+03  0.92875238033E+03  0.12700000000E+01 0. -1.
         25    2    1    2    0    0  0.00000000000E+00  0.00000000000E+00 -0.92464239694E+03  0.93305327870E+03  0.12499943471E+03 0.  0.
    9000005    1    3    3    0    0 -0.17183091807E+02  0.45937987290E+02 -0.75138546893E+03  0.75298517929E+03  0.10000000000E+01 0.  0.
    9000005    1    3    3    0    0  0.17183091807E+02 -0.45937987290E+02 -0.17325692801E+03  0.18006809941E+03  0.10000000000E+01 0.  0.
<mgrwt>
<rscale>  0 0.12499943E+03</rscale>
<asrwt>0</asrwt>
<pdfrwt beam="2">  1        4 0.23221126E+00 0.12499943E+03</pdfrwt>
<pdfrwt beam="1">  1       -4 0.10513634E-02 0.12499943E+03</pdfrwt>
<totfact> 0.41805107E+02</totfact>
</mgrwt>
</event>
<event>
 5    1  0.1422067E-002  0.1250097E+03  0.7818608E-02  0.1235054E+00
         -4   -1    0    0    0  501 -0.00000000000E+00  0.00000000000E+00  0.14176540916E+03  0.14177109767E+03  0.12700000000E+01 0. -1.
          4   -1    0    0  501    0  0.00000000000E+00 -0.00000000000E+00 -0.27537716113E+02  0.27566985848E+02  0.12700000000E+01 0. -1.
         25    2    1    2    0    0  0.00000000000E+00  0.00000000000E+00  0.11422769304E+03  0.16933808351E+03  0.12500968230E+03 0.  0.
    9000005    1    3    3    0    0  0.59396749270E+02 -0.38013101362E+01  0.31289924398E+02  0.67249410045E+02  0.10000000000E+01 0.  0.
    9000005    1    3    3    0    0 -0.59396749270E+02  0.38013101362E+01  0.82937768645E+02  0.10208867347E+03  0.10000000000E+01 0.  0.
<mgrwt>
<rscale>  0 0.12500968E+03</rscale>
<asrwt>0</asrwt>
<pdfrwt beam="2">  1        4 0.68887990E-02 0.12500968E+03</pdfrwt>
<pdfrwt beam="1">  1       -4 0.35445721E-01 0.12500968E+03</pdfrwt>
<totfact> 0.17622982E+03</totfact>
</mgrwt>
</event>
<event>
 5    1  0.1422067E-002  0.1250157E+03  0.7818608E-02  0.1235045E+00
          4   -1    0    0  501    0  0.00000000000E+00  0.00000000000E+00  0.38596871310E+03  0.38597080251E+03  0.12700000000E+01 0.  1.
         -4   -1    0    0    0  501 -0.00000000000E+00 -0.00000000000E+00 -0.10081216390E+02  0.10160896806E+02  0.12700000000E+01 0.  1.
         25    2    1    2    0    0  0.00000000000E+00  0.00000000000E+00  0.37588749671E+03  0.39613169932E+03  0.12501565111E+03 0.  0.
    9000005    1    3    3    0    0 -0.55798838713E+01 -0.33339497840E+02  0.21368478318E+02  0.40003363432E+02  0.10000000000E+01 0.  0.
    9000005    1    3    3    0    0  0.55798838713E+01  0.33339497840E+02  0.35451901839E+03  0.35612833589E+03  0.10000000000E+01 0.  0.
<mgrwt>
<rscale>  0 0.12501565E+03</rscale>
<asrwt>0</asrwt>
<pdfrwt beam="1">  1        4 0.96502398E-01 0.12501565E+03</pdfrwt>
<pdfrwt beam="2">  1       -4 0.25305254E-02 0.12501565E+03</pdfrwt>
<totfact> 0.10645521E+03</totfact>
</mgrwt>
</event>
<event>
 5    1  0.1422067E-002  0.1249992E+03  0.7818608E-02  0.1235071E+00
         -4   -1    0    0    0  501 -0.00000000000E+00  0.00000000000E+00  0.20179048237E+02  0.20218973459E+02  0.12700000000E+01 0.  1.
          4   -1    0    0  501    0  0.00000000000E+00 -0.00000000000E+00 -0.19334370541E+03  0.19334787643E+03  0.12700000000E+01 0.  1.
         25    2    1    2    0    0  0.00000000000E+00  0.00000000000E+00 -0.17316465717E+03  0.21356684989E+03  0.12499920351E+03 0.  0.
    9000005    1    3    3    0    0 -0.69158823411E+00 -0.24010232984E+02 -0.18514972910E+03  0.18670402183E+03  0.10000000000E+01 0.  0.
    9000005    1    3    3    0    0  0.69158823411E+00  0.24010232984E+02  0.11985071929E+02  0.26862828060E+02  0.10000000000E+01 0.  0.
<mgrwt>
<rscale>  0 0.12499920E+03</rscale>
<asrwt>0</asrwt>
<pdfrwt beam="2">  1        4 0.48341433E-01 0.12499920E+03</pdfrwt>
<pdfrwt beam="1">  1       -4 0.50502747E-02 0.12499920E+03</pdfrwt>
<totfact> 0.15793133E+03</totfact>
</mgrwt>
</event>
<event>
 5    1  0.1422067E-002  0.1250010E+03  0.7818608E-02  0.1235068E+00
          4   -1    0    0  501    0  0.00000000000E+00  0.00000000000E+00  0.20257838658E+03  0.20258236747E+03  0.12700000000E+01 0. -1.
         -4   -1    0    0    0  501 -0.00000000000E+00 -0.00000000000E+00 -0.19257875008E+02  0.19299705952E+02  0.12700000000E+01 0. -1.
         25    2    1    2    0    0  0.00000000000E+00  0.00000000000E+00  0.18332051157E+03  0.22188207342E+03  0.12500097817E+03 0.  0.
    9000005    1    3    3    0    0  0.99375547193E+01 -0.56779034829E+02  0.13450823296E+03  0.14634233333E+03  0.10000000000E+01 0.  0.
    9000005    1    3    3    0    0 -0.99375547193E+01  0.56779034829E+02  0.48812278609E+02  0.75539740090E+02  0.10000000000E+01 0.  0.
<mgrwt>
<rscale>  0 0.12500098E+03</rscale>
<asrwt>0</asrwt>
<pdfrwt beam="1">  1        4 0.50650322E-01 0.12500098E+03</pdfrwt>
<pdfrwt beam="2">  1       -4 0.48201953E-02 0.12500098E+03</pdfrwt>
<totfact> 0.15481438E+03</totfact>
</mgrwt>
</event>
<event>
 5    1  0.1422067E-002  0.1250003E+03  0.7818608E-02  0.1235069E+00
         -4   -1    0    0    0  501 -0.00000000000E+00  0.00000000000E+00  0.20832402936E+02  0.20871078365E+02  0.12700000000E+01 0.  1.
          4   -1    0    0  501    0  0.00000000000E+00 -0.00000000000E+00 -0.18729454836E+03  0.18729885409E+03  0.12700000000E+01 0.  1.
         25    2    1    2    0    0  0.00000000000E+00  0.00000000000E+00 -0.16646214542E+03  0.20816993246E+03  0.12500029968E+03 0.  0.
    9000005    1    3    3    0    0 -0.33416458034E+02 -0.32362791978E+02 -0.15272367964E+03  0.15965441520E+03  0.10000000000E+01 0.  0.
    9000005    1    3    3    0    0  0.33416458034E+02  0.32362791978E+02 -0.13738465783E+02  0.48515517252E+02  0.10000000000E+01 0.  0.
<mgrwt>
<rscale>  0 0.12500030E+03</rscale>
<asrwt>0</asrwt>
<pdfrwt beam="2">  1        4 0.46829005E-01 0.12500030E+03</pdfrwt>
<pdfrwt beam="1">  1       -4 0.52134739E-02 0.12500030E+03</pdfrwt>
<totfact> 0.15999939E+03</totfact>
</mgrwt>
</event>
<event>
 5    1  0.1422067E-002  0.1249907E+03  0.7818608E-02  0.1235084E+00
          4   -1    0    0  501    0  0.00000000000E+00  0.00000000000E+00  0.29087146839E+03  0.29087424090E+03  0.12700000000E+01 0.  1.
         -4   -1    0    0    0  501 -0.00000000000E+00 -0.00000000000E+00 -0.13394608008E+02  0.13454680364E+02  0.12700000000E+01 0.  1.
         25    2    1    2    0    0  0.00000000000E+00  0.00000000000E+00  0.27747686038E+03  0.30432892127E+03  0.12499073675E+03 0.  0.
    9000005    1    3    3    0    0  0.24405366795E+02 -0.26338206454E+02  0.26325585853E+03  0.26569525795E+03  0.10000000000E+01 0.  0.
    9000005    1    3    3    0    0 -0.24405366795E+02  0.26338206454E+02  0.14221001848E+02  0.38633663316E+02  0.10000000000E+01 0.  0.
<mgrwt>
<rscale>  0 0.12499074E+03</rscale>
<asrwt>0</asrwt>
<pdfrwt beam="1">  1        4 0.72725718E-01 0.12499074E+03</pdfrwt>
<pdfrwt beam="2">  1       -4 0.33565078E-02 0.12499074E+03</pdfrwt>
<totfact> 0.12853319E+03</totfact>
</mgrwt>
</event>
<event>
 5    1  0.1422067E-002  0.1250007E+03  0.7818608E-02  0.1235068E+00
          4   -1    0    0  501    0  0.00000000000E+00  0.00000000000E+00  0.21782686870E+03  0.21783057092E+03  0.12700000000E+01 0.  1.
         -4   -1    0    0    0  501 -0.00000000000E+00 -0.00000000000E+00 -0.17906678572E+02  0.17951658349E+02  0.12700000000E+01 0.  1.
         25    2    1    2    0    0  0.00000000000E+00  0.00000000000E+00  0.19992019013E+03  0.23578222927E+03  0.12500070887E+03 0.  0.
    9000005    1    3    3    0    0  0.28327482795E+02  0.46244510093E+02  0.41386326028E+02  0.68226307077E+02  0.10000000000E+01 0.  0.
    9000005    1    3    3    0    0 -0.28327482795E+02 -0.46244510093E+02  0.15853386410E+03  0.16755592219E+03  0.10000000000E+01 0.  0.
<mgrwt>
<rscale>  0 0.12500071E+03</rscale>
<asrwt>0</asrwt>
<pdfrwt beam="1">  1        4 0.54462802E-01 0.12500071E+03</pdfrwt>
<pdfrwt beam="2">  1       -4 0.44827549E-02 0.12500071E+03</pdfrwt>
<totfact> 0.14982632E+03</totfact>
</mgrwt>
</event>
<event>
 5    1  0.1422067E-002  0.1250004E+03  0.7818608E-02  0.1235069E+00
          4   -1    0    0  501    0  0.00000000000E+00  0.00000000000E+00  0.17757518336E+03  0.17757972476E+03  0.12700000000E+01 0. -1.
         -4   -1    0    0    0  501 -0.00000000000E+00 -0.00000000000E+00 -0.21974723190E+02  0.22011391580E+02  0.12700000000E+01 0. -1.
         25    2    1    2    0    0  0.00000000000E+00  0.00000000000E+00  0.15560046017E+03  0.19959111633E+03  0.12500044206E+03 0.  0.
    9000005    1    3    3    0    0  0.20871855767E+02 -0.58887545361E+02  0.75599144241E+02  0.98079600182E+02  0.10000000000E+01 0.  0.
    9000005    1    3    3    0    0 -0.20871855767E+02  0.58887545361E+02  0.80001315925E+02  0.10151151615E+03  0.10000000000E+01 0.  0.
<mgrwt>
<rscale>  0 0.12500044E+03</rscale>
<asrwt>0</asrwt>
<pdfrwt beam="1">  1        4 0.44398947E-01 0.12500044E+03</pdfrwt>
<pdfrwt beam="2">  1       -4 0.54988321E-02 0.12500044E+03</pdfrwt>
<totfact> 0.16338259E+03</totfact>
</mgrwt>
</event>
<event>
 5    1  0.1422067E-002  0.1249968E+03  0.7818608E-02  0.1235074E+00
         -4   -1    0    0    0  501 -0.00000000000E+00  0.00000000000E+00  0.18181660694E+03  0.18182104240E+03  0.12700000000E+01 0. -1.
          4   -1    0    0  501    0  0.00000000000E+00 -0.00000000000E+00 -0.21459980387E+02  0.21497526793E+02  0.12700000000E+01 0. -1.
         25    2    1    2    0    0  0.00000000000E+00  0.00000000000E+00  0.16035662656E+03  0.20331856920E+03  0.12499677155E+03 0.  0.
    9000005    1    3    3    0    0  0.28844448464E+02  0.23671742856E+02 -0.13574427682E+01  0.37352326138E+02  0.10000000000E+01 0.  0.
    9000005    1    3    3    0    0 -0.28844448464E+02 -0.23671742856E+02  0.16171406933E+03  0.16596624306E+03  0.10000000000E+01 0.  0.
<mgrwt>
<rscale>  0 0.12499677E+03</rscale>
<asrwt>0</asrwt>
<pdfrwt beam="2">  1        4 0.53702429E-02 0.12499677E+03</pdfrwt>
<pdfrwt beam="1">  1       -4 0.45459399E-01 0.12499677E+03</pdfrwt>
<totfact> 0.16191226E+03</totfact>
</mgrwt>
</event>
<event>
 5    1  0.1422067E-002  0.1249973E+03  0.7818608E-02  0.1235074E+00
         -4   -1    0    0    0  501 -0.00000000000E+00  0.00000000000E+00  0.42794439165E+02  0.42813279756E+02  0.12700000000E+01 0. -1.
          4   -1    0    0  501    0  0.00000000000E+00 -0.00000000000E+00 -0.91232081532E+02  0.91240920647E+02  0.12700000000E+01 0. -1.
         25    2    1    2    0    0  0.00000000000E+00  0.00000000000E+00 -0.48437642366E+02  0.13405420040E+03  0.12499729376E+03 0.  0.
    9000005    1    3    3    0    0  0.47174063133E+02  0.99617407172E+01  0.18416596264E+02  0.51621696296E+02  0.10000000000E+01 0.  0.
    9000005    1    3    3    0    0 -0.47174063133E+02 -0.99617407172E+01 -0.66854238630E+02  0.82432504107E+02  0.10000000000E+01 0.  0.
<mgrwt>
<rscale>  0 0.12499729E+03</rscale>
<asrwt>0</asrwt>
<pdfrwt beam="2">  1        4 0.22811480E-01 0.12499729E+03</pdfrwt>
<pdfrwt beam="1">  1       -4 0.10702070E-01 0.12499729E+03</pdfrwt>
<totfact> 0.19350014E+03</totfact>
</mgrwt>
</event>
<event>
 5    1  0.1422067E-002  0.1250046E+03  0.7818608E-02  0.1235062E+00
         -4   -1    0    0    0  501 -0.00000000000E+00  0.00000000000E+00  0.29085548482E+03  0.29085825749E+03  0.12700000000E+01 0.  1.
          4   -1    0    0  501    0  0.00000000000E+00 -0.00000000000E+00 -0.13398324340E+02  0.13458380107E+02  0.12700000000E+01 0.  1.
         25    2    1    2    0    0  0.00000000000E+00  0.00000000000E+00  0.27745716048E+03  0.30431663759E+03  0.12500455998E+03 0.  0.
    9000005    1    3    3    0    0 -0.42036066037E+02 -0.20487537094E+02  0.37801411772E+02  0.60139144956E+02  0.10000000000E+01 0.  0.
    9000005    1    3    3    0    0  0.42036066037E+02  0.20487537094E+02  0.23965574870E+03  0.24417749264E+03  0.10000000000E+01 0.  0.
<mgrwt>
<rscale>  0 0.12500456E+03</rscale>
<asrwt>0</asrwt>
<pdfrwt beam="2">  1        4 0.33574347E-02 0.12500456E+03</pdfrwt>
<pdfrwt beam="1">  1       -4 0.72721724E-01 0.12500456E+03</pdfrwt>
<totfact> 0.12849589E+03</totfact>
</mgrwt>
</event>
<event>
 5    1  0.1422067E-002  0.1250007E+03  0.7818608E-02  0.1235068E+00
          4   -1    0    0  501    0  0.00000000000E+00  0.00000000000E+00  0.37001740532E+03  0.37001958480E+03  0.12700000000E+01 0. -1.
         -4   -1    0    0    0  501 -0.00000000000E+00 -0.00000000000E+00 -0.10516647748E+02  0.10593053377E+02  0.12700000000E+01 0. -1.
         25    2    1    2    0    0  0.00000000000E+00  0.00000000000E+00  0.35950075757E+03  0.38061263818E+03  0.12500074260E+03 0.  0.
    9000005    1    3    3    0    0 -0.53559730011E+01  0.59115532473E+02  0.12024150838E+03  0.13409829591E+03  0.10000000000E+01 0.  0.
    9000005    1    3    3    0    0  0.53559730011E+01 -0.59115532473E+02  0.23925924919E+03  0.24651434228E+03  0.10000000000E+01 0.  0.
<mgrwt>
<rscale>  0 0.12500074E+03</rscale>
<asrwt>0</asrwt>
<pdfrwt beam="1">  1        4 0.92514167E-01 0.12500074E+03</pdfrwt>
<pdfrwt beam="2">  1       -4 0.26389853E-02 0.12500074E+03</pdfrwt>
<totfact> 0.10979571E+03</totfact>
</mgrwt>
</event>
<event>
 5    1  0.1422067E-002  0.1249999E+03  0.7818608E-02  0.1235070E+00
          4   -1    0    0  501    0  0.00000000000E+00  0.00000000000E+00  0.90057068858E+02  0.90066023290E+02  0.12700000000E+01 0. -1.
         -4   -1    0    0    0  501 -0.00000000000E+00 -0.00000000000E+00 -0.43354762727E+02  0.43373359924E+02  0.12700000000E+01 0. -1.
         25    2    1    2    0    0  0.00000000000E+00  0.00000000000E+00  0.46702306131E+02  0.13343938321E+03  0.12499985438E+03 0.  0.
    9000005    1    3    3    0    0  0.62207096061E+02  0.58420312806E+01  0.24609178687E+02  0.67159986640E+02  0.10000000000E+01 0.  0.
    9000005    1    3    3    0    0 -0.62207096061E+02 -0.58420312806E+01  0.22093127444E+02  0.66279396573E+02  0.10000000000E+01 0.  0.
<mgrwt>
<rscale>  0 0.12499985E+03</rscale>
<asrwt>0</asrwt>
<pdfrwt beam="1">  1        4 0.22517711E-01 0.12499985E+03</pdfrwt>
<pdfrwt beam="2">  1       -4 0.10842135E-01 0.12499985E+03</pdfrwt>
<totfact> 0.19381261E+03</totfact>
</mgrwt>
</event>
<event>
 5    1  0.1422067E-002  0.1249989E+03  0.7818608E-02  0.1235071E+00
          4   -1    0    0  501    0  0.00000000000E+00  0.00000000000E+00  0.61640140506E+01  0.62934862530E+01  0.12700000000E+01 0. -1.
         -4   -1    0    0    0  501 -0.00000000000E+00 -0.00000000000E+00 -0.62699115536E+03  0.62699244158E+03  0.12700000000E+01 0. -1.
         25    2    1    2    0    0  0.00000000000E+00  0.00000000000E+00 -0.62082714131E+03  0.63328592783E+03  0.12499890802E+03 0.  0.
    9000005    1    3    3    0    0  0.50610721175E+02  0.31142440655E+02 -0.40837670343E+03  0.41267884439E+03  0.10000000000E+01 0.  0.
    9000005    1    3    3    0    0 -0.50610721175E+02 -0.31142440655E+02 -0.21245043788E+03  0.22060708344E+03  0.10000000000E+01 0.  0.
<mgrwt>
<rscale>  0 0.12499891E+03</rscale>
<asrwt>0</asrwt>
<pdfrwt beam="1">  1        4 0.15573504E-02 0.12499891E+03</pdfrwt>
<pdfrwt beam="2">  1       -4 0.15676392E+00 0.12499891E+03</pdfrwt>
<totfact> 0.69458204E+02</totfact>
</mgrwt>
</event>
<event>
 5    1  0.1422067E-002  0.1250008E+03  0.7818608E-02  0.1235068E+00
         -4   -1    0    0    0  501 -0.00000000000E+00  0.00000000000E+00  0.32983754493E+03  0.32983998991E+03  0.12700000000E+01 0.  1.
          4   -1    0    0  501    0  0.00000000000E+00 -0.00000000000E+00 -0.11806565525E+02  0.11874674291E+02  0.12700000000E+01 0.  1.
         25    2    1    2    0    0  0.00000000000E+00  0.00000000000E+00  0.31803097940E+03  0.34171466420E+03  0.12500083148E+03 0.  0.
    9000005    1    3    3    0    0 -0.61160478063E+02  0.12826146116E+02  0.16020037234E+03  0.17196009246E+03  0.10000000000E+01 0.  0.
    9000005    1    3    3    0    0  0.61160478063E+02 -0.12826146116E+02  0.15783060706E+03  0.16975457174E+03  0.10000000000E+01 0.  0.
<mgrwt>
<rscale>  0 0.12500083E+03</rscale>
<asrwt>0</asrwt>
<pdfrwt beam="2">  1        4 0.29604606E-02 0.12500083E+03</pdfrwt>
<pdfrwt beam="1">  1       -4 0.82468206E-01 0.12500083E+03</pdfrwt>
<totfact> 0.11877308E+03</totfact>
</mgrwt>
</event>
<event>
 5    1  0.1422067E-002  0.1250012E+03  0.7818608E-02  0.1235067E+00
         -4   -1    0    0    0  501 -0.00000000000E+00  0.00000000000E+00  0.37418477277E+03  0.37418692798E+03  0.12700000000E+01 0. -1.
          4   -1    0    0  501    0  0.00000000000E+00 -0.00000000000E+00 -0.10398751770E+02  0.10476017296E+02  0.12700000000E+01 0. -1.
         25    2    1    2    0    0  0.00000000000E+00  0.00000000000E+00  0.36378602100E+03  0.38466294528E+03  0.12500124957E+03 0.  0.
    9000005    1    3    3    0    0  0.21245789099E+02 -0.12764121838E+02  0.53577862472E+01  0.25377396127E+02  0.10000000000E+01 0.  0.
    9000005    1    3    3    0    0 -0.21245789099E+02  0.12764121838E+02  0.35842823475E+03  0.35928554915E+03  0.10000000000E+01 0.  0.
<mgrwt>
<rscale>  0 0.12500125E+03</rscale>
<asrwt>0</asrwt>
<pdfrwt beam="2">  1        4 0.26096158E-02 0.12500125E+03</pdfrwt>
<pdfrwt beam="1">  1       -4 0.93556113E-01 0.12500125E+03</pdfrwt>
<totfact> 0.10891780E+03</totfact>
</mgrwt>
</event>
<event>
 5    1  0.1422067E-002  0.1250031E+03  0.7818608E-02  0.1235064E+00
         -4   -1    0    0    0  501 -0.00000000000E+00  0.00000000000E+00  0.25122816798E+02  0.25154896618E+02  0.12700000000E+01 0.  1.
          4   -1    0    0  501    0  0.00000000000E+00 -0.00000000000E+00 -0.15535997069E+03  0.15536516145E+03  0.12700000000E+01 0.  1.
         25    2    1    2    0    0  0.00000000000E+00  0.00000000000E+00 -0.13023715389E+03  0.18052005807E+03  0.12500310041E+03 0.  0.
    9000005    1    3    3    0    0 -0.42032065788E+02 -0.42346092701E+02 -0.91963671611E+02  0.10962756504E+03  0.10000000000E+01 0.  0.
    9000005    1    3    3    0    0  0.42032065788E+02  0.42346092701E+02 -0.38273482282E+02  0.70892493026E+02  0.10000000000E+01 0.  0.
<mgrwt>
<rscale>  0 0.12500310E+03</rscale>
<asrwt>0</asrwt>
<pdfrwt beam="2">  1        4 0.38844649E-01 0.12500310E+03</pdfrwt>
<pdfrwt beam="1">  1       -4 0.62853635E-02 0.12500310E+03</pdfrwt>
<totfact> 0.17131496E+03</totfact>
</mgrwt>
</event>
<event>
 5    1  0.1422067E-002  0.1250049E+03  0.7818608E-02  0.1235062E+00
          4   -1    0    0  501    0  0.00000000000E+00  0.00000000000E+00  0.14174460774E+03  0.14175029708E+03  0.12700000000E+01 0.  1.
         -4   -1    0    0    0  501 -0.00000000000E+00 -0.00000000000E+00 -0.27539666454E+02  0.27568934117E+02  0.12700000000E+01 0.  1.
         25    2    1    2    0    0  0.00000000000E+00  0.00000000000E+00  0.11420494128E+03  0.16931923120E+03  0.12500493366E+03 0.  0.
    9000005    1    3    3    0    0 -0.44155868890E+02 -0.44214776336E+02  0.58366703686E+02  0.85512334216E+02  0.10000000000E+01 0.  0.
    9000005    1    3    3    0    0  0.44155868890E+02  0.44214776336E+02  0.55838237598E+02  0.83806896983E+02  0.10000000000E+01 0.  0.
<mgrwt>
<rscale>  0 0.12500493E+03</rscale>
<asrwt>0</asrwt>
<pdfrwt beam="1">  1        4 0.35440521E-01 0.12500493E+03</pdfrwt>
<pdfrwt beam="2">  1       -4 0.68892863E-02 0.12500493E+03</pdfrwt>
<totfact> 0.17625778E+03</totfact>
</mgrwt>
</event>
<event>
 5    1  0.1422067E-002  0.1249999E+03  0.7818608E-02  0.1235069E+00
          4   -1    0    0  501    0  0.00000000000E+00  0.00000000000E+00  0.65907721842E+02  0.65919956754E+02  0.12700000000E+01 0.  1.
         -4   -1    0    0    0  501 -0.00000000000E+00 -0.00000000000E+00 -0.59243880189E+02  0.59257491002E+02  0.12700000000E+01 0.  1.
         25    2    1    2    0    0  0.00000000000E+00  0.00000000000E+00  0.66638416537E+01  0.12517744776E+03  0.12499994656E+03 0.  0.
    9000005    1    3    3    0    0  0.33906916688E+02  0.24266433977E+01 -0.49179923091E+02  0.59793247383E+02  0.10000000000E+01 0.  0.
    9000005    1    3    3    0    0 -0.33906916688E+02 -0.24266433977E+01  0.55843764744E+02  0.65384200372E+02  0.10000000000E+01 0.  0.
<mgrwt>
<rscale>  0 0.12499995E+03</rscale>
<asrwt>0</asrwt>
<pdfrwt beam="1">  1        4 0.16480161E-01 0.12499995E+03</pdfrwt>
<pdfrwt beam="2">  1       -4 0.14814201E-01 0.12499995E+03</pdfrwt>
<totfact> 0.19825460E+03</totfact>
</mgrwt>
</event>
<event>
 5    1  0.1422067E-002  0.1250025E+03  0.7818608E-02  0.1235065E+00
         -4   -1    0    0    0  501 -0.00000000000E+00  0.00000000000E+00  0.90092953455E+02  0.90101904321E+02  0.12700000000E+01 0.  1.
          4   -1    0    0  501    0  0.00000000000E+00 -0.00000000000E+00 -0.43339310221E+02  0.43357914046E+02  0.12700000000E+01 0.  1.
         25    2    1    2    0    0  0.00000000000E+00  0.00000000000E+00  0.46753643235E+02  0.13345981837E+03  0.12500247983E+03 0.  0.
    9000005    1    3    3    0    0  0.37452788844E+02  0.22492042516E+02  0.71085716977E+02  0.83443289286E+02  0.10000000000E+01 0.  0.
    9000005    1    3    3    0    0 -0.37452788844E+02 -0.22492042516E+02 -0.24332073742E+02  0.50016529081E+02  0.10000000000E+01 0.  0.
<mgrwt>
<rscale>  0 0.12500248E+03</rscale>
<asrwt>0</asrwt>
<pdfrwt beam="2">  1        4 0.10838272E-01 0.12500248E+03</pdfrwt>
<pdfrwt beam="1">  1       -4 0.22526683E-01 0.12500248E+03</pdfrwt>
<totfact> 0.19378995E+03</totfact>
</mgrwt>
</event>
<event>
 5    1  0.1422067E-002  0.1250007E+03  0.7818608E-02  0.1235068E+00
          4   -1    0    0  501    0  0.00000000000E+00  0.00000000000E+00  0.60949908860E+02  0.60963138781E+02  0.12700000000E+01 0. -1.
         -4   -1    0    0    0  501 -0.00000000000E+00 -0.00000000000E+00 -0.64063747191E+02  0.64076334197E+02  0.12700000000E+01 0. -1.
         25    2    1    2    0    0  0.00000000000E+00  0.00000000000E+00 -0.31138383314E+01  0.12503947298E+03  0.12500069525E+03 0.  0.
    9000005    1    3    3    0    0  0.38487514572E+01 -0.61693325477E+02 -0.10747487119E+02  0.62748607758E+02  0.10000000000E+01 0.  0.
    9000005    1    3    3    0    0 -0.38487514572E+01  0.61693325477E+02  0.76336487880E+01  0.62290865221E+02  0.10000000000E+01 0.  0.
<mgrwt>
<rscale>  0 0.12500070E+03</rscale>
<asrwt>0</asrwt>
<pdfrwt beam="1">  1        4 0.15240704E-01 0.12500070E+03</pdfrwt>
<pdfrwt beam="2">  1       -4 0.16019164E-01 0.12500070E+03</pdfrwt>
<totfact> 0.19832592E+03</totfact>
</mgrwt>
</event>
<event>
 5    1  0.1422067E-002  0.1250014E+03  0.7818608E-02  0.1235067E+00
          4   -1    0    0  501    0  0.00000000000E+00  0.00000000000E+00  0.26992837473E+03  0.26993136235E+03  0.12700000000E+01 0.  1.
         -4   -1    0    0    0  501 -0.00000000000E+00 -0.00000000000E+00 -0.14440829505E+02  0.14496567070E+02  0.12700000000E+01 0.  1.
         25    2    1    2    0    0  0.00000000000E+00  0.00000000000E+00  0.25548754522E+03  0.28442792942E+03  0.12500144508E+03 0.  0.
    9000005    1    3    3    0    0 -0.54553751261E+02  0.24305989996E+02  0.16960411651E+03  0.17981504182E+03  0.10000000000E+01 0.  0.
    9000005    1    3    3    0    0  0.54553751261E+02 -0.24305989996E+02  0.85883428710E+02  0.10461288761E+03  0.10000000000E+01 0.  0.
<mgrwt>
<rscale>  0 0.12500145E+03</rscale>
<asrwt>0</asrwt>
<pdfrwt beam="1">  1        4 0.67489430E-01 0.12500145E+03</pdfrwt>
<pdfrwt beam="2">  1       -4 0.36175482E-02 0.12500145E+03</pdfrwt>
<totfact> 0.13418551E+03</totfact>
</mgrwt>
</event>
<event>
 5    1  0.1422067E-002  0.1250020E+03  0.7818608E-02  0.1235066E+00
          4   -1    0    0  501    0  0.00000000000E+00  0.00000000000E+00  0.28371840546E+02  0.28400250632E+02  0.12700000000E+01 0. -1.
         -4   -1    0    0    0  501 -0.00000000000E+00 -0.00000000000E+00 -0.13758475529E+03  0.13759061664E+03  0.12700000000E+01 0. -1.
         25    2    1    2    0    0  0.00000000000E+00  0.00000000000E+00 -0.10921291474E+03  0.16599086727E+03  0.12500202907E+03 0.  0.
    9000005    1    3    3    0    0 -0.25054911282E+02  0.24466712637E+01  0.21347432642E+02  0.33021926958E+02  0.10000000000E+01 0.  0.
    9000005    1    3    3    0    0  0.25054911282E+02 -0.24466712637E+01 -0.13056034738E+03  0.13296894031E+03  0.10000000000E+01 0.  0.
<mgrwt>
<rscale>  0 0.12500203E+03</rscale>
<asrwt>0</asrwt>
<pdfrwt beam="1">  1        4 0.70972444E-02 0.12500203E+03</pdfrwt>
<pdfrwt beam="2">  1       -4 0.34400471E-01 0.12500203E+03</pdfrwt>
<totfact> 0.17778569E+03</totfact>
</mgrwt>
</event>
<event>
 5    1  0.1422067E-002  0.1249978E+03  0.7818608E-02  0.1235073E+00
         -4   -1    0    0    0  501 -0.00000000000E+00  0.00000000000E+00  0.90187848473E+02  0.90196789922E+02  0.12700000000E+01 0.  1.
          4   -1    0    0  501    0  0.00000000000E+00 -0.00000000000E+00 -0.43290462164E+02  0.43309086972E+02  0.12700000000E+01 0.  1.
         25    2    1    2    0    0  0.00000000000E+00  0.00000000000E+00  0.46897386309E+02  0.13350587689E+03  0.12499781727E+03 0.  0.
    9000005    1    3    3    0    0  0.32824417867E+01 -0.12584825961E+02 -0.41834161896E+02  0.43820650042E+02  0.10000000000E+01 0.  0.
    9000005    1    3    3    0    0 -0.32824417867E+01  0.12584825961E+02  0.88731548205E+02  0.89685226852E+02  0.10000000000E+01 0.  0.
<mgrwt>
<rscale>  0 0.12499782E+03</rscale>
<asrwt>0</asrwt>
<pdfrwt beam="2">  1        4 0.10826061E-01 0.12499782E+03</pdfrwt>
<pdfrwt beam="1">  1       -4 0.22550408E-01 0.12499782E+03</pdfrwt>
<totfact> 0.19378673E+03</totfact>
</mgrwt>
</event>
<event>
 5    1  0.1422067E-002  0.1249757E+03  0.7818608E-02  0.1235107E+00
          4   -1    0    0  501    0  0.00000000000E+00  0.00000000000E+00  0.23367424458E+02  0.23401910730E+02  0.12700000000E+01 0.  1.
         -4   -1    0    0    0  501 -0.00000000000E+00 -0.00000000000E+00 -0.16694135365E+03  0.16694618432E+03  0.12700000000E+01 0.  1.
         25    2    1    2    0    0  0.00000000000E+00  0.00000000000E+00 -0.14357392919E+03  0.19034809505E+03  0.12497569422E+03 0.  0.
    9000005    1    3    3    0    0 -0.30135651694E+02  0.43391281591E+02 -0.20979710565E+02  0.56851640930E+02  0.10000000000E+01 0.  0.
    9000005    1    3    3    0    0  0.30135651694E+02 -0.43391281591E+02 -0.12259421863E+03  0.13349645412E+03  0.10000000000E+01 0.  0.
<mgrwt>
<rscale>  0 0.12497569E+03</rscale>
<asrwt>0</asrwt>
<pdfrwt beam="1">  1        4 0.58467712E-02 0.12497569E+03</pdfrwt>
<pdfrwt beam="2">  1       -4 0.41740250E-01 0.12497569E+03</pdfrwt>
<totfact> 0.16725365E+03</totfact>
</mgrwt>
</event>
<event>
 5    1  0.1422067E-002  0.1249990E+03  0.7818608E-02  0.1235071E+00
          4   -1    0    0  501    0  0.00000000000E+00  0.00000000000E+00  0.34210989657E+03  0.34211225385E+03  0.12700000000E+01 0.  1.
         -4   -1    0    0    0  501 -0.00000000000E+00 -0.00000000000E+00 -0.11380210290E+02  0.11450855263E+02  0.12700000000E+01 0.  1.
         25    2    1    2    0    0  0.00000000000E+00  0.00000000000E+00  0.33072968628E+03  0.35356310911E+03  0.12499898694E+03 0.  0.
    9000005    1    3    3    0    0  0.59933421324E+02  0.11542187230E+02  0.20330821320E+03  0.21227450773E+03  0.10000000000E+01 0.  0.
    9000005    1    3    3    0    0 -0.59933421324E+02 -0.11542187230E+02  0.12742147309E+03  0.14128860139E+03  0.10000000000E+01 0.  0.
<mgrwt>
<rscale>  0 0.12499899E+03</rscale>
<asrwt>0</asrwt>
<pdfrwt beam="1">  1        4 0.85536602E-01 0.12499899E+03</pdfrwt>
<pdfrwt beam="2">  1       -4 0.28541778E-02 0.12499899E+03</pdfrwt>
<totfact> 0.11593063E+03</totfact>
</mgrwt>
</event>
<event>
 5    1  0.1422067E-002  0.1249979E+03  0.7818608E-02  0.1235072E+00
          4   -1    0    0  501    0  0.00000000000E+00  0.00000000000E+00  0.98376730484E+01  0.99193100066E+01  0.12700000000E+01 0.  1.
         -4   -1    0    0    0  501 -0.00000000000E+00 -0.00000000000E+00 -0.39533415134E+03  0.39533619125E+03  0.12700000000E+01 0.  1.
         25    2    1    2    0    0  0.00000000000E+00  0.00000000000E+00 -0.38549647829E+03  0.40525550126E+03  0.12499794609E+03 0.  0.
    9000005    1    3    3    0    0 -0.41879342345E+02 -0.43217033212E+02 -0.24733983931E+03  0.25455763077E+03  0.10000000000E+01 0.  0.
    9000005    1    3    3    0    0  0.41879342345E+02  0.43217033212E+02 -0.13815663898E+03  0.15069787049E+03  0.10000000000E+01 0.  0.
<mgrwt>
<rscale>  0 0.12499795E+03</rscale>
<asrwt>0</asrwt>
<pdfrwt beam="1">  1        4 0.24698792E-02 0.12499795E+03</pdfrwt>
<pdfrwt beam="2">  1       -4 0.98843945E-01 0.12499795E+03</pdfrwt>
<totfact> 0.10462233E+03</totfact>
</mgrwt>
</event>
<event>
 5    1  0.1422067E-002  0.1250009E+03  0.7818608E-02  0.1235068E+00
         -4   -1    0    0    0  501 -0.00000000000E+00  0.00000000000E+00  0.63062473013E+01  0.64328574541E+01  0.12700000000E+01 0.  1.
          4   -1    0    0  501    0  0.00000000000E+00 -0.00000000000E+00 -0.61315075263E+03  0.61315206788E+03  0.12700000000E+01 0.  1.
         25    2    1    2    0    0  0.00000000000E+00  0.00000000000E+00 -0.60684450532E+03  0.61958492533E+03  0.12500090423E+03 0.  0.
    9000005    1    3    3    0    0  0.33924430944E+01 -0.50601509097E+02 -0.12243449288E+03  0.13252632358E+03  0.10000000000E+01 0.  0.
    9000005    1    3    3    0    0 -0.33924430944E+01  0.50601509097E+02 -0.48441001244E+03  0.48705860176E+03  0.10000000000E+01 0.  0.
<mgrwt>
<rscale>  0 0.12500090E+03</rscale>
<asrwt>0</asrwt>
<pdfrwt beam="2">  1        4 0.15330348E+00 0.12500090E+03</pdfrwt>
<pdfrwt beam="1">  1       -4 0.15925546E-02 0.12500090E+03</pdfrwt>
<totfact> 0.71090709E+02</totfact>
</mgrwt>
</event>
<event>
 5    1  0.1422067E-002  0.1250020E+03  0.7818608E-02  0.1235066E+00
          4   -1    0    0  501    0  0.00000000000E+00  0.00000000000E+00  0.51139697327E+02  0.51155464446E+02  0.12700000000E+01 0.  1.
         -4   -1    0    0    0  501 -0.00000000000E+00 -0.00000000000E+00 -0.76353505512E+02  0.76364066837E+02  0.12700000000E+01 0.  1.
         25    2    1    2    0    0  0.00000000000E+00  0.00000000000E+00 -0.25213808185E+02  0.12751953128E+03  0.12500197893E+03 0.  0.
    9000005    1    3    3    0    0  0.37458383175E+02  0.41133318089E+02 -0.41645857402E+02  0.69501494703E+02  0.10000000000E+01 0.  0.
    9000005    1    3    3    0    0 -0.37458383175E+02 -0.41133318089E+02  0.16432049217E+02  0.58018036580E+02  0.10000000000E+01 0.  0.
<mgrwt>
<rscale>  0 0.12500198E+03</rscale>
<asrwt>0</asrwt>
<pdfrwt beam="1">  1        4 0.12788215E-01 0.12500198E+03</pdfrwt>
<pdfrwt beam="2">  1       -4 0.19091667E-01 0.12500198E+03</pdfrwt>
<totfact> 0.19697808E+03</totfact>
</mgrwt>
</event>
<event>
 5    1  0.1422067E-002  0.1249998E+03  0.7818608E-02  0.1235070E+00
         -4   -1    0    0    0  501 -0.00000000000E+00  0.00000000000E+00  0.33065068433E+02  0.33089449232E+02  0.12700000000E+01 0. -1.
          4   -1    0    0  501    0  0.00000000000E+00 -0.00000000000E+00 -0.11806653718E+03  0.11807336746E+03  0.12700000000E+01 0. -1.
         25    2    1    2    0    0  0.00000000000E+00  0.00000000000E+00 -0.85001468750E+02  0.15116281669E+03  0.12499978984E+03 0.  0.
    9000005    1    3    3    0    0 -0.35563192891E+02 -0.45989560412E+02 -0.14780041507E+02  0.59993582844E+02  0.10000000000E+01 0.  0.
    9000005    1    3    3    0    0  0.35563192891E+02  0.45989560412E+02 -0.70221427243E+02  0.91169233843E+02  0.10000000000E+01 0.  0.
<mgrwt>
<rscale>  0 0.12499979E+03</rscale>
<asrwt>0</asrwt>
<pdfrwt beam="2">  1        4 0.29520535E-01 0.12499979E+03</pdfrwt>
<pdfrwt beam="1">  1       -4 0.82701688E-02 0.12499979E+03</pdfrwt>
<totfact> 0.18481843E+03</totfact>
</mgrwt>
</event>
<event>
 5    1  0.1422067E-002  0.1250354E+03  0.7818608E-02  0.1235014E+00
          4   -1    0    0  501    0  0.00000000000E+00  0.00000000000E+00  0.16362212230E+03  0.16362705096E+03  0.12700000000E+01 0.  1.
         -4   -1    0    0    0  501 -0.00000000000E+00 -0.00000000000E+00 -0.23864968018E+02  0.23898736337E+02  0.12700000000E+01 0.  1.
         25    2    1    2    0    0  0.00000000000E+00  0.00000000000E+00  0.13975715428E+03  0.18752578730E+03  0.12503542989E+03 0.  0.
    9000005    1    3    3    0    0 -0.20350552888E+02  0.32519711240E+02 -0.41411797675E+01  0.38598264104E+02  0.10000000000E+01 0.  0.
    9000005    1    3    3    0    0  0.20350552888E+02 -0.32519711240E+02  0.14389833405E+03  0.14892752319E+03  0.10000000000E+01 0.  0.
<mgrwt>
<rscale>  0 0.12503543E+03</rscale>
<asrwt>0</asrwt>
<pdfrwt beam="1">  1        4 0.40910367E-01 0.12503543E+03</pdfrwt>
<pdfrwt beam="2">  1       -4 0.59710792E-02 0.12503543E+03</pdfrwt>
<totfact> 0.16820220E+03</totfact>
</mgrwt>
</event>
<event>
 5    1  0.1422067E-002  0.1250046E+03  0.7818608E-02  0.1235062E+00
          4   -1    0    0  501    0  0.00000000000E+00  0.00000000000E+00  0.22101908299E+02  0.22138366029E+02  0.12700000000E+01 0. -1.
         -4   -1    0    0    0  501 -0.00000000000E+00 -0.00000000000E+00 -0.17656676650E+03  0.17657133383E+03  0.12700000000E+01 0. -1.
         25    2    1    2    0    0  0.00000000000E+00  0.00000000000E+00 -0.15446485820E+03  0.19870969986E+03  0.12500460952E+03 0.  0.
    9000005    1    3    3    0    0  0.96501720585E+01 -0.21867465124E+01  0.20856599455E+02  0.23106393529E+02  0.10000000000E+01 0.  0.
    9000005    1    3    3    0    0 -0.96501720585E+01  0.21867465124E+01 -0.17532145765E+03  0.17560330633E+03  0.10000000000E+01 0.  0.
<mgrwt>
<rscale>  0 0.12500461E+03</rscale>
<asrwt>0</asrwt>
<pdfrwt beam="1">  1        4 0.55306057E-02 0.12500461E+03</pdfrwt>
<pdfrwt beam="2">  1       -4 0.44146816E-01 0.12500461E+03</pdfrwt>
<totfact> 0.16372092E+03</totfact>
</mgrwt>
</event>
<event>
 5    1  0.1422067E-002  0.1250016E+03  0.7818608E-02  0.1235067E+00
          4   -1    0    0  501    0  0.00000000000E+00  0.00000000000E+00  0.95204660648E+02  0.95213130970E+02  0.12700000000E+01 0.  1.
         -4   -1    0    0    0  501 -0.00000000000E+00 -0.00000000000E+00 -0.41010950194E+02  0.41030609742E+02  0.12700000000E+01 0.  1.
         25    2    1    2    0    0  0.00000000000E+00  0.00000000000E+00  0.54193710454E+02  0.13624374071E+03  0.12500159451E+03 0.  0.
    9000005    1    3    3    0    0 -0.62222052653E+02 -0.57852471174E+01  0.26503128205E+02  0.67885703394E+02  0.10000000000E+01 0.  0.
    9000005    1    3    3    0    0  0.62222052653E+02  0.57852471174E+01  0.27690582250E+02  0.68358037318E+02  0.10000000000E+01 0.  0.
<mgrwt>
<rscale>  0 0.12500159E+03</rscale>
<asrwt>0</asrwt>
<pdfrwt beam="1">  1        4 0.23804681E-01 0.12500159E+03</pdfrwt>
<pdfrwt beam="2">  1       -4 0.10256254E-01 0.12500159E+03</pdfrwt>
<totfact> 0.19233473E+03</totfact>
</mgrwt>
</event>
<event>
 5    1  0.1422067E-002  0.1250010E+03  0.7818608E-02  0.1235068E+00
          4   -1    0    0  501    0  0.00000000000E+00  0.00000000000E+00  0.31206514636E+02  0.31232346305E+02  0.12700000000E+01 0. -1.
         -4   -1    0    0    0  501 -0.00000000000E+00 -0.00000000000E+00 -0.12509524605E+03  0.12510169257E+03  0.12700000000E+01 0. -1.
         25    2    1    2    0    0  0.00000000000E+00  0.00000000000E+00 -0.93888731414E+02  0.15633403888E+03  0.12500095130E+03 0.  0.
    9000005    1    3    3    0    0  0.60380061727E+01 -0.22017193338E+02 -0.11969914233E+03  0.12186098226E+03  0.10000000000E+01 0.  0.
    9000005    1    3    3    0    0 -0.60380061727E+01  0.22017193338E+02  0.25810410919E+02  0.34473056621E+02  0.10000000000E+01 0.  0.
<mgrwt>
<rscale>  0 0.12500095E+03</rscale>
<asrwt>0</asrwt>
<pdfrwt beam="1">  1        4 0.78056637E-02 0.12500095E+03</pdfrwt>
<pdfrwt beam="2">  1       -4 0.31277845E-01 0.12500095E+03</pdfrwt>
<totfact> 0.18231254E+03</totfact>
</mgrwt>
</event>
<event>
 5    1  0.1422067E-002  0.1250054E+03  0.7818608E-02  0.1235061E+00
          4   -1    0    0  501    0  0.00000000000E+00  0.00000000000E+00  0.22258094821E+03  0.22258457136E+03  0.12700000000E+01 0. -1.
         -4   -1    0    0    0  501 -0.00000000000E+00 -0.00000000000E+00 -0.17524570162E+02  0.17570528147E+02  0.12700000000E+01 0. -1.
         25    2    1    2    0    0  0.00000000000E+00  0.00000000000E+00  0.20505637805E+03  0.24015509951E+03  0.12500541444E+03 0.  0.
    9000005    1    3    3    0    0 -0.58207629848E+02  0.11016202417E+02  0.14076373893E+03  0.15272496549E+03  0.10000000000E+01 0.  0.
    9000005    1    3    3    0    0  0.58207629848E+02 -0.11016202417E+02  0.64292639123E+02  0.87430134013E+02  0.10000000000E+01 0.  0.
<mgrwt>
<rscale>  0 0.12500541E+03</rscale>
<asrwt>0</asrwt>
<pdfrwt beam="1">  1        4 0.55651432E-01 0.12500541E+03</pdfrwt>
<pdfrwt beam="2">  1       -4 0.43873404E-02 0.12500541E+03</pdfrwt>
<totfact> 0.14829261E+03</totfact>
</mgrwt>
</event>
<event>
 5    1  0.1422067E-002  0.1250151E+03  0.7818608E-02  0.1235046E+00
         -4   -1    0    0    0  501 -0.00000000000E+00  0.00000000000E+00  0.24970071960E+03  0.24970394924E+03  0.12700000000E+01 0.  1.
          4   -1    0    0  501    0  0.00000000000E+00 -0.00000000000E+00 -0.15618398777E+02  0.15669948320E+02  0.12700000000E+01 0.  1.
         25    2    1    2    0    0  0.00000000000E+00  0.00000000000E+00  0.23408232082E+03  0.26537389756E+03  0.12501508944E+03 0.  0.
    9000005    1    3    3    0    0 -0.17180264730E+02 -0.59013816341E+02  0.92987554424E+02  0.11146962498E+03  0.10000000000E+01 0.  0.
    9000005    1    3    3    0    0  0.17180264730E+02  0.59013816341E+02  0.14109476640E+03  0.15390427258E+03  0.10000000000E+01 0.  0.
<mgrwt>
<rscale>  0 0.12501509E+03</rscale>
<asrwt>0</asrwt>
<pdfrwt beam="2">  1        4 0.39114472E-02 0.12501509E+03</pdfrwt>
<pdfrwt beam="1">  1       -4 0.62432026E-01 0.12501509E+03</pdfrwt>
<totfact> 0.13995348E+03</totfact>
</mgrwt>
</event>
<event>
 5    1  0.1422067E-002  0.1250008E+03  0.7818608E-02  0.1235068E+00
          4   -1    0    0  501    0  0.00000000000E+00  0.00000000000E+00  0.41727034059E+01  0.43616916114E+01  0.12700000000E+01 0. -1.
         -4   -1    0    0    0  501 -0.00000000000E+00 -0.00000000000E+00 -0.91523624311E+03  0.91523712425E+03  0.12700000000E+01 0. -1.
         25    2    1    2    0    0  0.00000000000E+00  0.00000000000E+00 -0.91106353971E+03  0.91959881586E+03  0.12500083501E+03 0.  0.
    9000005    1    3    3    0    0 -0.27571465995E+02  0.51848140417E+02 -0.29828208339E+03  0.30400923781E+03  0.10000000000E+01 0.  0.
    9000005    1    3    3    0    0  0.27571465995E+02 -0.51848140417E+02 -0.61278145632E+03  0.61558957805E+03  0.10000000000E+01 0.  0.
<mgrwt>
<rscale>  0 0.12500084E+03</rscale>
<asrwt>0</asrwt>
<pdfrwt beam="1">  1        4 0.10669127E-02 0.12500084E+03</pdfrwt>
<pdfrwt beam="2">  1       -4 0.22883212E+00 0.12500084E+03</pdfrwt>
<totfact> 0.42798029E+02</totfact>
</mgrwt>
</event>
<event>
 5    1  0.1422067E-002  0.1250006E+03  0.7818608E-02  0.1235068E+00
         -4   -1    0    0    0  501 -0.00000000000E+00  0.00000000000E+00  0.91999102893E+02  0.92007868321E+02  0.12700000000E+01 0.  1.
          4   -1    0    0  501    0  0.00000000000E+00 -0.00000000000E+00 -0.42439782631E+02  0.42458780596E+02  0.12700000000E+01 0.  1.
         25    2    1    2    0    0  0.00000000000E+00  0.00000000000E+00  0.49559320262E+02  0.13446664892E+03  0.12500061378E+03 0.  0.
    9000005    1    3    3    0    0  0.30186069008E+02  0.39811866369E+02  0.65160383845E+02  0.82116131720E+02  0.10000000000E+01 0.  0.
    9000005    1    3    3    0    0 -0.30186069008E+02 -0.39811866369E+02 -0.15601063583E+02  0.52350517197E+02  0.10000000000E+01 0.  0.
<mgrwt>
<rscale>  0 0.12500061E+03</rscale>
<asrwt>0</asrwt>
<pdfrwt beam="2">  1        4 0.10613416E-01 0.12500061E+03</pdfrwt>
<pdfrwt beam="1">  1       -4 0.23003246E-01 0.12500061E+03</pdfrwt>
<totfact> 0.19326833E+03</totfact>
</mgrwt>
</event>
<event>
 5    1  0.1422067E-002  0.1250007E+03  0.7818608E-02  0.1235068E+00
          4   -1    0    0  501    0  0.00000000000E+00  0.00000000000E+00  0.43589015212E+03  0.43589200224E+03  0.12700000000E+01 0.  1.
         -4   -1    0    0    0  501 -0.00000000000E+00 -0.00000000000E+00 -0.89147778480E+01  0.90047856210E+01  0.12700000000E+01 0.  1.
         25    2    1    2    0    0  0.00000000000E+00  0.00000000000E+00  0.42697537427E+03  0.44489678786E+03  0.12500072645E+03 0.  0.
    9000005    1    3    3    0    0  0.10415892511E+02  0.50373610004E+02  0.33979020981E+03  0.34366317534E+03  0.10000000000E+01 0.  0.
    9000005    1    3    3    0    0 -0.10415892511E+02 -0.50373610004E+02  0.87185164467E+02  0.10123361252E+03  0.10000000000E+01 0.  0.
<mgrwt>
<rscale>  0 0.12500073E+03</rscale>
<asrwt>0</asrwt>
<pdfrwt beam="1">  1        4 0.10898402E+00 0.12500073E+03</pdfrwt>
<pdfrwt beam="2">  1       -4 0.22401768E-02 0.12500073E+03</pdfrwt>
<totfact> 0.96938867E+02</totfact>
</mgrwt>
</event>
<event>
 5    1  0.1422067E-002  0.1250010E+03  0.7818608E-02  0.1235068E+00
          4   -1    0    0  501    0  0.00000000000E+00  0.00000000000E+00  0.11376694651E+02  0.11447361320E+02  0.12700000000E+01 0. -1.
         -4   -1    0    0    0  501 -0.00000000000E+00 -0.00000000000E+00 -0.34222589320E+03  0.34222824968E+03  0.12700000000E+01 0. -1.
         25    2    1    2    0    0  0.00000000000E+00  0.00000000000E+00 -0.33084919855E+03  0.35367561100E+03  0.12500098253E+03 0.  0.
    9000005    1    3    3    0    0  0.56708857994E+02  0.25267530152E+02 -0.18562424217E+03  0.19573375267E+03  0.10000000000E+01 0.  0.
    9000005    1    3    3    0    0 -0.56708857994E+02 -0.25267530152E+02 -0.14522495638E+03  0.15794185833E+03  0.10000000000E+01 0.  0.
<mgrwt>
<rscale>  0 0.12500098E+03</rscale>
<asrwt>0</asrwt>
<pdfrwt beam="1">  1        4 0.28533027E-02 0.12500098E+03</pdfrwt>
<pdfrwt beam="2">  1       -4 0.85565567E-01 0.12500098E+03</pdfrwt>
<totfact> 0.11589884E+03</totfact>
</mgrwt>
</event>
<event>
 5    1  0.1422067E-002  0.1249918E+03  0.7818608E-02  0.1235082E+00
          4   -1    0    0  501    0  0.00000000000E+00  0.00000000000E+00  0.56363627051E+02  0.56377933222E+02  0.12700000000E+01 0. -1.
         -4   -1    0    0    0  501 -0.00000000000E+00 -0.00000000000E+00 -0.69266422812E+02  0.69278064560E+02  0.12700000000E+01 0. -1.
         25    2    1    2    0    0  0.00000000000E+00  0.00000000000E+00 -0.12902795761E+02  0.12565599778E+03  0.12499179029E+03 0.  0.
    9000005    1    3    3    0    0 -0.24268362709E+02 -0.45323028733E+02  0.29256452110E+02  0.59161392413E+02  0.10000000000E+01 0.  0.
    9000005    1    3    3    0    0  0.24268362709E+02  0.45323028733E+02 -0.42159247871E+02  0.66494605369E+02  0.10000000000E+01 0.  0.
<mgrwt>
<rscale>  0 0.12499179E+03</rscale>
<asrwt>0</asrwt>
<pdfrwt beam="1">  1        4 0.14094150E-01 0.12499179E+03</pdfrwt>
<pdfrwt beam="2">  1       -4 0.17319849E-01 0.12499179E+03</pdfrwt>
<totfact> 0.19803324E+03</totfact>
</mgrwt>
</event>
<event>
 4    1  0.1422067E-002  0.1250621E+03  0.7818608E-02  0.1234972E+00
         -4   -1    0    0    0  501 -0.00000000000E+00  0.00000000000E+00  0.83589045224E+02  0.83598692463E+02  0.12700000000E+01 0. -1.
          4   -1    0    0  501    0  0.00000000000E+00 -0.00000000000E+00 -0.46757111252E+02  0.46774355716E+02  0.12700000000E+01 0. -1.
    9000005    1    1    2    0    0 -0.35641425101E+02  0.42602917081E+02 -0.11505086801E+02  0.56733471155E+02  0.10000000000E+01 0.  0.
    9000005    1    1    2    0    0  0.35641425101E+02 -0.42602917081E+02  0.48337020773E+02  0.73639577024E+02  0.10000000000E+01 0.  0.
<mgrwt>
<rscale>  0 0.12506215E+03</rscale>
<asrwt>0</asrwt>
<pdfrwt beam="2">  1        4 0.11692639E-01 0.12506215E+03</pdfrwt>
<pdfrwt beam="1">  1       -4 0.20900623E-01 0.12506215E+03</pdfrwt>
<totfact> 0.19516026E+03</totfact>
</mgrwt>
</event>
<event>
 5    1  0.1422067E-002  0.1249757E+03  0.7818608E-02  0.1235107E+00
          4   -1    0    0  501    0  0.00000000000E+00  0.00000000000E+00  0.37438181068E+03  0.37438396475E+03  0.12700000000E+01 0.  1.
         -4   -1    0    0    0  501 -0.00000000000E+00 -0.00000000000E+00 -0.10388957519E+02  0.10466295349E+02  0.12700000000E+01 0.  1.
         25    2    1    2    0    0  0.00000000000E+00  0.00000000000E+00  0.36399285316E+03  0.38485026010E+03  0.12497569985E+03 0.  0.
    9000005    1    3    3    0    0 -0.62306992374E+02 -0.46267915162E+01  0.18075359305E+03  0.19124965333E+03  0.10000000000E+01 0.  0.
    9000005    1    3    3    0    0  0.62306992374E+02  0.46267915162E+01  0.18323926011E+03  0.19360060677E+03  0.10000000000E+01 0.  0.
<mgrwt>
<rscale>  0 0.12497570E+03</rscale>
<asrwt>0</asrwt>
<pdfrwt beam="1">  1        4 0.93605381E-01 0.12497570E+03</pdfrwt>
<pdfrwt beam="2">  1       -4 0.26071761E-02 0.12497570E+03</pdfrwt>
<totfact> 0.10894092E+03</totfact>
</mgrwt>
</event>
<event>
 5    1  0.1422067E-002  0.1249978E+03  0.7818608E-02  0.1235073E+00
          4   -1    0    0  501    0  0.00000000000E+00  0.00000000000E+00  0.15760665809E+02  0.15811751539E+02  0.12700000000E+01 0. -1.
         -4   -1    0    0    0  501 -0.00000000000E+00 -0.00000000000E+00 -0.24738560564E+03  0.24738886551E+03  0.12700000000E+01 0. -1.
         25    2    1    2    0    0  0.00000000000E+00  0.00000000000E+00 -0.23162493983E+03  0.26320061705E+03  0.12499780823E+03 0.  0.
    9000005    1    3    3    0    0  0.64311252620E+01 -0.45190017079E+02 -0.20568209320E+03  0.21068844411E+03  0.10000000000E+01 0.  0.
    9000005    1    3    3    0    0 -0.64311252620E+01  0.45190017079E+02 -0.25942846625E+02  0.52512172939E+02  0.10000000000E+01 0.  0.
<mgrwt>
<rscale>  0 0.12499781E+03</rscale>
<asrwt>0</asrwt>
<pdfrwt beam="1">  1        4 0.39469604E-02 0.12499781E+03</pdfrwt>
<pdfrwt beam="2">  1       -4 0.61853182E-01 0.12499781E+03</pdfrwt>
<totfact> 0.14069659E+03</totfact>
</mgrwt>
</event>
<event>
 5    1  0.1422067E-002  0.1250154E+03  0.7818608E-02  0.1235045E+00
          4   -1    0    0  501    0  0.00000000000E+00  0.00000000000E+00  0.22694189645E+02  0.22729697394E+02  0.12700000000E+01 0.  1.
         -4   -1    0    0    0  501 -0.00000000000E+00 -0.00000000000E+00 -0.17199554963E+03  0.17200023835E+03  0.12700000000E+01 0.  1.
         25    2    1    2    0    0  0.00000000000E+00  0.00000000000E+00 -0.14930135999E+03  0.19472993575E+03  0.12501540618E+03 0.  0.
    9000005    1    3    3    0    0  0.12696056030E+02  0.56551163698E+02 -0.38220738216E+02  0.69433772647E+02  0.10000000000E+01 0.  0.
    9000005    1    3    3    0    0 -0.12696056030E+02 -0.56551163698E+02 -0.11108062177E+03  0.12529616310E+03  0.10000000000E+01 0.  0.
<mgrwt>
<rscale>  0 0.12501541E+03</rscale>
<asrwt>0</asrwt>
<pdfrwt beam="1">  1        4 0.56785725E-02 0.12501541E+03</pdfrwt>
<pdfrwt beam="2">  1       -4 0.43003908E-01 0.12501541E+03</pdfrwt>
<totfact> 0.16529368E+03</totfact>
</mgrwt>
</event>
<event>
 5    1  0.1422067E-002  0.1250011E+03  0.7818608E-02  0.1235068E+00
         -4   -1    0    0    0  501 -0.00000000000E+00  0.00000000000E+00  0.23024201879E+01  0.26294559745E+01  0.12700000000E+01 0.  1.
          4   -1    0    0  501    0  0.00000000000E+00 -0.00000000000E+00 -0.15837832715E+04  0.15837837807E+04  0.12700000000E+01 0.  1.
         25    2    1    2    0    0  0.00000000000E+00  0.00000000000E+00 -0.15814808513E+04  0.15864132367E+04  0.12500109761E+03 0.  0.
    9000005    1    3    3    0    0 -0.32882346822E+02 -0.37754775725E+02 -0.12653718877E+04  0.12663623834E+04  0.10000000000E+01 0.  0.
    9000005    1    3    3    0    0  0.32882346822E+02  0.37754775725E+02 -0.31610896361E+03  0.32005085330E+03  0.10000000000E+01 0.  0.
<mgrwt>
<rscale>  0 0.12500110E+03</rscale>
<asrwt>0</asrwt>
<pdfrwt beam="2">  1        4 0.39598327E+00 0.12500110E+03</pdfrwt>
<pdfrwt beam="1">  1       -4 0.61655360E-03 0.12500110E+03</pdfrwt>
<totfact> 0.98737691E+01</totfact>
</mgrwt>
</event>
<event>
 5    1  0.1422067E-002  0.1250012E+03  0.7818608E-02  0.1235067E+00
          4   -1    0    0  501    0  0.00000000000E+00  0.00000000000E+00  0.39242539014E+03  0.39242744517E+03  0.12700000000E+01 0. -1.
         -4   -1    0    0    0  501 -0.00000000000E+00 -0.00000000000E+00 -0.99117121977E+01  0.99927443022E+01  0.12700000000E+01 0. -1.
         25    2    1    2    0    0  0.00000000000E+00  0.00000000000E+00  0.38251367794E+03  0.40242018947E+03  0.12500118034E+03 0.  0.
    9000005    1    3    3    0    0 -0.15993557932E+02 -0.54955840652E+02  0.11049169005E+03  0.12444015384E+03  0.10000000000E+01 0.  0.
    9000005    1    3    3    0    0  0.15993557932E+02  0.54955840652E+02  0.27202198789E+03  0.27798003564E+03  0.10000000000E+01 0.  0.
<mgrwt>
<rscale>  0 0.12500118E+03</rscale>
<asrwt>0</asrwt>
<pdfrwt beam="1">  1        4 0.98116724E-01 0.12500118E+03</pdfrwt>
<pdfrwt beam="2">  1       -4 0.24883142E-02 0.12500118E+03</pdfrwt>
<totfact> 0.10519235E+03</totfact>
</mgrwt>
</event>
<event>
 5    1  0.1422067E-002  0.1249948E+03  0.7818608E-02  0.1235077E+00
         -4   -1    0    0    0  501 -0.00000000000E+00  0.00000000000E+00  0.28616707580E+03  0.28616989389E+03  0.12700000000E+01 0. -1.
          4   -1    0    0  501    0  0.00000000000E+00 -0.00000000000E+00 -0.13616673835E+02  0.13675770776E+02  0.12700000000E+01 0. -1.
         25    2    1    2    0    0  0.00000000000E+00  0.00000000000E+00  0.27255040196E+03  0.29984566467E+03  0.12499480393E+03 0.  0.
    9000005    1    3    3    0    0 -0.54405334773E+02 -0.23410766382E+02  0.18406748138E+03  0.19336453174E+03  0.10000000000E+01 0.  0.
    9000005    1    3    3    0    0  0.54405334773E+02  0.23410766382E+02  0.88482920585E+02  0.10648113293E+03  0.10000000000E+01 0.  0.
<mgrwt>
<rscale>  0 0.12499480E+03</rscale>
<asrwt>0</asrwt>
<pdfrwt beam="2">  1        4 0.34119081E-02 0.12499480E+03</pdfrwt>
<pdfrwt beam="1">  1       -4 0.71549504E-01 0.12499480E+03</pdfrwt>
<totfact> 0.12976928E+03</totfact>
</mgrwt>
</event>
<event>
 5    1  0.1422067E-002  0.1249984E+03  0.7818608E-02  0.1235072E+00
         -4   -1    0    0    0  501 -0.00000000000E+00  0.00000000000E+00  0.26259364303E+02  0.26290057314E+02  0.12700000000E+01 0. -1.
          4   -1    0    0  501    0  0.00000000000E+00 -0.00000000000E+00 -0.14863224358E+03  0.14863766929E+03  0.12700000000E+01 0. -1.
         25    2    1    2    0    0  0.00000000000E+00  0.00000000000E+00 -0.12237287927E+03  0.17492772660E+03  0.12499835180E+03 0.  0.
    9000005    1    3    3    0    0  0.50442062619E+01 -0.34661450059E+02 -0.13361050679E+03  0.13812902541E+03  0.10000000000E+01 0.  0.
    9000005    1    3    3    0    0 -0.50442062619E+01  0.34661450059E+02  0.11237627514E+02  0.36798701188E+02  0.10000000000E+01 0.  0.
<mgrwt>
<rscale>  0 0.12499835E+03</rscale>
<asrwt>0</asrwt>
<pdfrwt beam="2">  1        4 0.37162573E-01 0.12499835E+03</pdfrwt>
<pdfrwt beam="1">  1       -4 0.65693563E-02 0.12499835E+03</pdfrwt>
<totfact> 0.17377714E+03</totfact>
</mgrwt>
</event>
<event>
 5    1  0.1422067E-002  0.1250063E+03  0.7818608E-02  0.1235059E+00
          4   -1    0    0  501    0  0.00000000000E+00  0.00000000000E+00  0.48406775952E+02  0.48423432944E+02  0.12700000000E+01 0.  1.
         -4   -1    0    0    0  501 -0.00000000000E+00 -0.00000000000E+00 -0.80668895858E+02  0.80678892276E+02  0.12700000000E+01 0.  1.
         25    2    1    2    0    0  0.00000000000E+00  0.00000000000E+00 -0.32262119905E+02  0.12910232522E+03  0.12500626383E+03 0.  0.
    9000005    1    3    3    0    0 -0.10993340307E+02  0.61499605980E+02 -0.14470124156E+02  0.64136101845E+02  0.10000000000E+01 0.  0.
    9000005    1    3    3    0    0  0.10993340307E+02 -0.61499605980E+02 -0.17791995749E+02  0.64966223375E+02  0.10000000000E+01 0.  0.
<mgrwt>
<rscale>  0 0.12500626E+03</rscale>
<asrwt>0</asrwt>
<pdfrwt beam="1">  1        4 0.12105026E-01 0.12500626E+03</pdfrwt>
<pdfrwt beam="2">  1       -4 0.20170555E-01 0.12500626E+03</pdfrwt>
<totfact> 0.19609897E+03</totfact>
</mgrwt>
</event>
<event>
 5    1  0.1422067E-002  0.1250012E+03  0.7818608E-02  0.1235067E+00
         -4   -1    0    0    0  501 -0.00000000000E+00  0.00000000000E+00  0.14758009956E+03  0.14758556395E+03  0.12700000000E+01 0.  1.
          4   -1    0    0  501    0  0.00000000000E+00 -0.00000000000E+00 -0.26448000680E+02  0.26478475031E+02  0.12700000000E+01 0.  1.
         25    2    1    2    0    0  0.00000000000E+00  0.00000000000E+00  0.12113209888E+03  0.17406403898E+03  0.12500121714E+03 0.  0.
    9000005    1    3    3    0    0 -0.75579233851E+01 -0.31134691849E+02 -0.14148157173E+02  0.35038002138E+02  0.10000000000E+01 0.  0.
    9000005    1    3    3    0    0  0.75579233851E+01  0.31134691849E+02  0.13528025605E+03  0.13902603684E+03  0.10000000000E+01 0.  0.
<mgrwt>
<rscale>  0 0.12500122E+03</rscale>
<asrwt>0</asrwt>
<pdfrwt beam="2">  1        4 0.66164926E-02 0.12500122E+03</pdfrwt>
<pdfrwt beam="1">  1       -4 0.36899517E-01 0.12500122E+03</pdfrwt>
<totfact> 0.17414793E+03</totfact>
</mgrwt>
</event>
<event>
 5    1  0.1422067E-002  0.1250039E+03  0.7818608E-02  0.1235063E+00
         -4   -1    0    0    0  501 -0.00000000000E+00  0.00000000000E+00  0.38006294994E+02  0.38027507928E+02  0.12700000000E+01 0.  1.
          4   -1    0    0  501    0  0.00000000000E+00 -0.00000000000E+00 -0.10273169376E+03  0.10273954352E+03  0.12700000000E+01 0.  1.
         25    2    1    2    0    0  0.00000000000E+00  0.00000000000E+00 -0.64725398764E+02  0.14076705145E+03  0.12500394205E+03 0.  0.
    9000005    1    3    3    0    0 -0.24017381914E+02 -0.49546753637E+02 -0.65650001023E+02  0.85689194560E+02  0.10000000000E+01 0.  0.
    9000005    1    3    3    0    0  0.24017381914E+02  0.49546753637E+02  0.92460225889E+00  0.55077856887E+02  0.10000000000E+01 0.  0.
<mgrwt>
<rscale>  0 0.12500394E+03</rscale>
<asrwt>0</asrwt>
<pdfrwt beam="2">  1        4 0.25686556E-01 0.12500394E+03</pdfrwt>
<pdfrwt beam="1">  1       -4 0.95052068E-02 0.12500394E+03</pdfrwt>
<totfact> 0.18999423E+03</totfact>
</mgrwt>
</event>
<event>
 5    1  0.1422067E-002  0.1249918E+03  0.7818608E-02  0.1235082E+00
          4   -1    0    0  501    0  0.00000000000E+00  0.00000000000E+00  0.22623138897E+03  0.22623495366E+03  0.12700000000E+01 0.  1.
         -4   -1    0    0    0  501 -0.00000000000E+00 -0.00000000000E+00 -0.17237280948E+02  0.17284002849E+02  0.12700000000E+01 0.  1.
         25    2    1    2    0    0  0.00000000000E+00  0.00000000000E+00  0.20899410802E+03  0.24351895651E+03  0.12499177969E+03 0.  0.
    9000005    1    3    3    0    0 -0.40234394402E+02 -0.21475012937E+02  0.21272124925E+02  0.50333745861E+02  0.10000000000E+01 0.  0.
    9000005    1    3    3    0    0  0.40234394402E+02  0.21475012937E+02  0.18772198310E+03  0.19318521065E+03  0.10000000000E+01 0.  0.
<mgrwt>
<rscale>  0 0.12499178E+03</rscale>
<asrwt>0</asrwt>
<pdfrwt beam="1">  1        4 0.56564132E-01 0.12499178E+03</pdfrwt>
<pdfrwt beam="2">  1       -4 0.43156061E-02 0.12499178E+03</pdfrwt>
<totfact> 0.14718769E+03</totfact>
</mgrwt>
</event>
<event>
 5    1  0.1422067E-002  0.1250010E+03  0.7818608E-02  0.1235068E+00
          4   -1    0    0  501    0  0.00000000000E+00  0.00000000000E+00  0.25686382882E+02  0.25717759730E+02  0.12700000000E+01 0.  1.
         -4   -1    0    0    0  501 -0.00000000000E+00 -0.00000000000E+00 -0.15195020754E+03  0.15195551478E+03  0.12700000000E+01 0.  1.
         25    2    1    2    0    0  0.00000000000E+00  0.00000000000E+00 -0.12626382466E+03  0.17767327451E+03  0.12500095622E+03 0.  0.
    9000005    1    3    3    0    0 -0.52742200524E+02  0.26532658992E+02 -0.92247149299E+02  0.10952743155E+03  0.10000000000E+01 0.  0.
    9000005    1    3    3    0    0  0.52742200524E+02 -0.26532658992E+02 -0.34016675359E+02  0.68145842952E+02  0.10000000000E+01 0.  0.
<mgrwt>
<rscale>  0 0.12500096E+03</rscale>
<asrwt>0</asrwt>
<pdfrwt beam="1">  1        4 0.64261817E-02 0.12500096E+03</pdfrwt>
<pdfrwt beam="2">  1       -4 0.37992135E-01 0.12500096E+03</pdfrwt>
<totfact> 0.17256019E+03</totfact>
</mgrwt>
</event>
<event>
 5    1  0.1422067E-002  0.1250034E+03  0.7818608E-02  0.1235064E+00
          4   -1    0    0  501    0  0.00000000000E+00  0.00000000000E+00  0.91715677814E+01  0.92590796286E+01  0.12700000000E+01 0.  1.
         -4   -1    0    0    0  501 -0.00000000000E+00 -0.00000000000E+00 -0.42382125958E+03  0.42382316238E+03  0.12700000000E+01 0.  1.
         25    2    1    2    0    0  0.00000000000E+00  0.00000000000E+00 -0.41464969179E+03  0.43308224201E+03  0.12500344570E+03 0.  0.
    9000005    1    3    3    0    0  0.14611840574E+02  0.34340465609E+02 -0.38099212955E+03  0.38281689649E+03  0.10000000000E+01 0.  0.
    9000005    1    3    3    0    0 -0.14611840574E+02 -0.34340465609E+02 -0.33657562246E+02  0.50265345513E+02  0.10000000000E+01 0.  0.
<mgrwt>
<rscale>  0 0.12500345E+03</rscale>
<asrwt>0</asrwt>
<pdfrwt beam="1">  1        4 0.23040702E-02 0.12500345E+03</pdfrwt>
<pdfrwt beam="2">  1       -4 0.10596643E+00 0.12500345E+03</pdfrwt>
<totfact> 0.99127804E+02</totfact>
</mgrwt>
</event>
<event>
 5    1  0.1422067E-002  0.1250029E+03  0.7818608E-02  0.1235065E+00
         -4   -1    0    0    0  501 -0.00000000000E+00  0.00000000000E+00  0.10608627247E+03  0.10609387403E+03  0.12700000000E+01 0. -1.
          4   -1    0    0  501    0  0.00000000000E+00 -0.00000000000E+00 -0.36803282423E+02  0.36825188352E+02  0.12700000000E+01 0. -1.
         25    2    1    2    0    0  0.00000000000E+00  0.00000000000E+00  0.69282990043E+02  0.14291906238E+03  0.12500290269E+03 0.  0.
    9000005    1    3    3    0    0 -0.50369651528E+02  0.34730905774E+02  0.49197871347E+02  0.78516037573E+02  0.10000000000E+01 0.  0.
    9000005    1    3    3    0    0  0.50369651528E+02 -0.34730905774E+02  0.20085118695E+02  0.64403024805E+02  0.10000000000E+01 0.  0.
<mgrwt>
<rscale>  0 0.12500290E+03</rscale>
<asrwt>0</asrwt>
<pdfrwt beam="2">  1        4 0.92045091E-02 0.12500290E+03</pdfrwt>
<pdfrwt beam="1">  1       -4 0.26525256E-01 0.12500290E+03</pdfrwt>
<totfact> 0.18890712E+03</totfact>
</mgrwt>
</event>
<event>
 5    1  0.1422067E-002  0.1249938E+03  0.7818608E-02  0.1235079E+00
          4   -1    0    0  501    0  0.00000000000E+00  0.00000000000E+00  0.31760488902E+02  0.31785870372E+02  0.12700000000E+01 0. -1.
         -4   -1    0    0    0  501 -0.00000000000E+00 -0.00000000000E+00 -0.12290082616E+03  0.12290738778E+03  0.12700000000E+01 0. -1.
         25    2    1    2    0    0  0.00000000000E+00  0.00000000000E+00 -0.91140337260E+02  0.15469325815E+03  0.12499377201E+03 0.  0.
    9000005    1    3    3    0    0  0.11442466185E+02 -0.24192685565E+02 -0.11545550776E+03  0.11852084348E+03  0.10000000000E+01 0.  0.
    9000005    1    3    3    0    0 -0.11442466185E+02  0.24192685565E+02  0.24315170497E+02  0.36172414677E+02  0.10000000000E+01 0.  0.
<mgrwt>
<rscale>  0 0.12499377E+03</rscale>
<asrwt>0</asrwt>
<pdfrwt beam="1">  1        4 0.79441154E-02 0.12499377E+03</pdfrwt>
<pdfrwt beam="2">  1       -4 0.30729198E-01 0.12499377E+03</pdfrwt>
<totfact> 0.18313047E+03</totfact>
</mgrwt>
</event>
<event>
 5    1  0.1422067E-002  0.1249956E+03  0.7818608E-02  0.1235076E+00
          4   -1    0    0  501    0  0.00000000000E+00  0.00000000000E+00  0.27302381238E+02  0.27331902994E+02  0.12700000000E+01 0.  1.
         -4   -1    0    0    0  501 -0.00000000000E+00 -0.00000000000E+00 -0.14295380249E+03  0.14295944371E+03  0.12700000000E+01 0.  1.
         25    2    1    2    0    0  0.00000000000E+00  0.00000000000E+00 -0.11565142125E+03  0.17029134670E+03  0.12499556602E+03 0.  0.
    9000005    1    3    3    0    0 -0.47429745920E+02 -0.13981497493E+02 -0.57708861912E+01  0.49793234457E+02  0.10000000000E+01 0.  0.
    9000005    1    3    3    0    0  0.47429745920E+02  0.13981497493E+02 -0.10988053506E+03  0.12049811225E+03  0.10000000000E+01 0.  0.
<mgrwt>
<rscale>  0 0.12499557E+03</rscale>
<asrwt>0</asrwt>
<pdfrwt beam="1">  1        4 0.68299911E-02 0.12499557E+03</pdfrwt>
<pdfrwt beam="2">  1       -4 0.35742844E-01 0.12499557E+03</pdfrwt>
<totfact> 0.17585724E+03</totfact>
</mgrwt>
</event>
<event>
 5    1  0.1422067E-002  0.1249995E+03  0.7818608E-02  0.1235070E+00
         -4   -1    0    0    0  501 -0.00000000000E+00  0.00000000000E+00  0.21209001450E+03  0.21209381686E+03  0.12700000000E+01 0.  1.
          4   -1    0    0  501    0  0.00000000000E+00 -0.00000000000E+00 -0.18391881933E+02  0.18435677938E+02  0.12700000000E+01 0.  1.
         25    2    1    2    0    0  0.00000000000E+00  0.00000000000E+00  0.19369813257E+03  0.23052949480E+03  0.12499952565E+03 0.  0.
    9000005    1    3    3    0    0 -0.13320937546E+02 -0.57414834556E+02  0.13515030068E+03  0.14744664926E+03  0.10000000000E+01 0.  0.
    9000005    1    3    3    0    0  0.13320937546E+02  0.57414834556E+02  0.58547831889E+02  0.83082845540E+02  0.10000000000E+01 0.  0.
<mgrwt>
<rscale>  0 0.12499953E+03</rscale>
<asrwt>0</asrwt>
<pdfrwt beam="2">  1        4 0.46039203E-02 0.12499953E+03</pdfrwt>
<pdfrwt beam="1">  1       -4 0.53028453E-01 0.12499953E+03</pdfrwt>
<totfact> 0.15168576E+03</totfact>
</mgrwt>
</event>
<event>
 5    1  0.1422067E-002  0.1250007E+03  0.7818608E-02  0.1235068E+00
         -4   -1    0    0    0  501 -0.00000000000E+00  0.00000000000E+00  0.11880356057E+02  0.11948044193E+02  0.12700000000E+01 0. -1.
          4   -1    0    0  501    0  0.00000000000E+00 -0.00000000000E+00 -0.32779967550E+03  0.32780213568E+03  0.12700000000E+01 0. -1.
         25    2    1    2    0    0  0.00000000000E+00  0.00000000000E+00 -0.31591931945E+03  0.33975017988E+03  0.12500067331E+03 0.  0.
    9000005    1    3    3    0    0  0.57624723095E+02 -0.13741312875E+02 -0.21203733125E+03  0.22015962899E+03  0.10000000000E+01 0.  0.
    9000005    1    3    3    0    0 -0.57624723095E+02  0.13741312875E+02 -0.10388198819E+03  0.11959055089E+03  0.10000000000E+01 0.  0.
<mgrwt>
<rscale>  0 0.12500067E+03</rscale>
<asrwt>0</asrwt>
<pdfrwt beam="2">  1        4 0.81958658E-01 0.12500067E+03</pdfrwt>
<pdfrwt beam="1">  1       -4 0.29788586E-02 0.12500067E+03</pdfrwt>
<totfact> 0.11925655E+03</totfact>
</mgrwt>
</event>
<event>
 5    1  0.1422067E-002  0.1249768E+03  0.7818608E-02  0.1235106E+00
          4   -1    0    0  501    0  0.00000000000E+00  0.00000000000E+00  0.56778650588E+02  0.56792852214E+02  0.12700000000E+01 0. -1.
         -4   -1    0    0    0  501 -0.00000000000E+00 -0.00000000000E+00 -0.68743659680E+02  0.68755389943E+02  0.12700000000E+01 0. -1.
         25    2    1    2    0    0  0.00000000000E+00  0.00000000000E+00 -0.11965009092E+02  0.12554824216E+03  0.12497679651E+03 0.  0.
    9000005    1    3    3    0    0 -0.24306558345E+02 -0.56479842058E+02 -0.17124592985E+02  0.63835985325E+02  0.10000000000E+01 0.  0.
    9000005    1    3    3    0    0  0.24306558345E+02  0.56479842058E+02  0.51595838929E+01  0.61712256833E+02  0.10000000000E+01 0.  0.
<mgrwt>
<rscale>  0 0.12497680E+03</rscale>
<asrwt>0</asrwt>
<pdfrwt beam="1">  1        4 0.14197904E-01 0.12497680E+03</pdfrwt>
<pdfrwt beam="2">  1       -4 0.17189156E-01 0.12497680E+03</pdfrwt>
<totfact> 0.19816107E+03</totfact>
</mgrwt>
</event>
<event>
 5    1  0.1422067E-002  0.1249959E+03  0.7818608E-02  0.1235076E+00
         -4   -1    0    0    0  501 -0.00000000000E+00  0.00000000000E+00  0.33169309959E+03  0.33169553090E+03  0.12700000000E+01 0. -1.
          4   -1    0    0  501    0  0.00000000000E+00 -0.00000000000E+00 -0.11739210638E+02  0.11807707923E+02  0.12700000000E+01 0. -1.
         25    2    1    2    0    0  0.00000000000E+00  0.00000000000E+00  0.31995388895E+03  0.34350323882E+03  0.12499593602E+03 0.  0.
    9000005    1    3    3    0    0 -0.11303913269E+02 -0.59503450116E+02  0.20224408055E+03  0.21112107225E+03  0.10000000000E+01 0.  0.
    9000005    1    3    3    0    0  0.11303913269E+02  0.59503450116E+02  0.11770980841E+03  0.13238216657E+03  0.10000000000E+01 0.  0.
<mgrwt>
<rscale>  0 0.12499594E+03</rscale>
<asrwt>0</asrwt>
<pdfrwt beam="2">  1        4 0.29436688E-02 0.12499594E+03</pdfrwt>
<pdfrwt beam="1">  1       -4 0.82932140E-01 0.12499594E+03</pdfrwt>
<totfact> 0.11834913E+03</totfact>
</mgrwt>
</event>
<event>
 5    1  0.1422067E-002  0.1250085E+03  0.7818608E-02  0.1235056E+00
         -4   -1    0    0    0  501 -0.00000000000E+00  0.00000000000E+00  0.42937930065E+02  0.42956707722E+02  0.12700000000E+01 0. -1.
          4   -1    0    0  501    0  0.00000000000E+00 -0.00000000000E+00 -0.90943642148E+02  0.90952509295E+02  0.12700000000E+01 0. -1.
         25    2    1    2    0    0  0.00000000000E+00  0.00000000000E+00 -0.48005712083E+02  0.13390921702E+03  0.12500851975E+03 0.  0.
    9000005    1    3    3    0    0  0.51355089849E+02 -0.32146420044E+02 -0.40425621835E+02  0.72842079019E+02  0.10000000000E+01 0.  0.
    9000005    1    3    3    0    0 -0.51355089849E+02  0.32146420044E+02 -0.75800902473E+01  0.61067137998E+02  0.10000000000E+01 0.  0.
<mgrwt>
<rscale>  0 0.12500852E+03</rscale>
<asrwt>0</asrwt>
<pdfrwt beam="2">  1        4 0.22739366E-01 0.12500852E+03</pdfrwt>
<pdfrwt beam="1">  1       -4 0.10737938E-01 0.12500852E+03</pdfrwt>
<totfact> 0.19352576E+03</totfact>
</mgrwt>
</event>
<event>
 5    1  0.1422067E-002  0.1250020E+03  0.7818608E-02  0.1235066E+00
         -4   -1    0    0    0  501 -0.00000000000E+00  0.00000000000E+00  0.40171898524E+03  0.40172099273E+03  0.12700000000E+01 0.  1.
          4   -1    0    0  501    0  0.00000000000E+00 -0.00000000000E+00 -0.96806342151E+01  0.97635843217E+01  0.12700000000E+01 0.  1.
         25    2    1    2    0    0  0.00000000000E+00  0.00000000000E+00  0.39203835103E+03  0.41148457706E+03  0.12500195390E+03 0.  0.
    9000005    1    3    3    0    0  0.17560394689E+02  0.53765270248E+02  0.10853460212E+03  0.12239212231E+03  0.10000000000E+01 0.  0.
    9000005    1    3    3    0    0 -0.17560394689E+02 -0.53765270248E+02  0.28350374890E+03  0.28909245474E+03  0.10000000000E+01 0.  0.
<mgrwt>
<rscale>  0 0.12500195E+03</rscale>
<asrwt>0</asrwt>
<pdfrwt beam="2">  1        4 0.24307786E-02 0.12500195E+03</pdfrwt>
<pdfrwt beam="1">  1       -4 0.10044035E+00 0.12500195E+03</pdfrwt>
<totfact> 0.10335506E+03</totfact>
</mgrwt>
</event>
<event>
 5    1  0.1422067E-002  0.1249998E+03  0.7818608E-02  0.1235070E+00
         -4   -1    0    0    0  501 -0.00000000000E+00  0.00000000000E+00  0.15740848747E+03  0.15741361068E+03  0.12700000000E+01 0. -1.
          4   -1    0    0  501    0  0.00000000000E+00 -0.00000000000E+00 -0.24794139131E+02  0.24826643657E+02  0.12700000000E+01 0. -1.
         25    2    1    2    0    0  0.00000000000E+00  0.00000000000E+00  0.13261434834E+03  0.18224025434E+03  0.12499977966E+03 0.  0.
    9000005    1    3    3    0    0  0.27681059313E+01 -0.52111317948E+02  0.11643062123E+03  0.12759444122E+03  0.10000000000E+01 0.  0.
    9000005    1    3    3    0    0 -0.27681059313E+01  0.52111317948E+02  0.16183727109E+02  0.54645813123E+02  0.10000000000E+01 0.  0.
<mgrwt>
<rscale>  0 0.12499978E+03</rscale>
<asrwt>0</asrwt>
<pdfrwt beam="2">  1        4 0.62032383E-02 0.12499978E+03</pdfrwt>
<pdfrwt beam="1">  1       -4 0.39356825E-01 0.12499978E+03</pdfrwt>
<totfact> 0.17058772E+03</totfact>
</mgrwt>
</event>
<event>
 5    1  0.1422067E-002  0.1250005E+03  0.7818608E-02  0.1235068E+00
         -4   -1    0    0    0  501 -0.00000000000E+00  0.00000000000E+00  0.54614218078E+02  0.54628982384E+02  0.12700000000E+01 0. -1.
          4   -1    0    0  501    0  0.00000000000E+00 -0.00000000000E+00 -0.71494940959E+02  0.71506219888E+02  0.12700000000E+01 0. -1.
         25    2    1    2    0    0  0.00000000000E+00  0.00000000000E+00 -0.16880722881E+02  0.12613520227E+03  0.12500052179E+03 0.  0.
    9000005    1    3    3    0    0 -0.21797835292E+02 -0.68043537256E+01 -0.67139164860E+02  0.70923284689E+02  0.10000000000E+01 0.  0.
    9000005    1    3    3    0    0  0.21797835292E+02  0.68043537256E+01  0.50258441979E+02  0.55211917583E+02  0.10000000000E+01 0.  0.
<mgrwt>
<rscale>  0 0.12500052E+03</rscale>
<asrwt>0</asrwt>
<pdfrwt beam="2">  1        4 0.17876991E-01 0.12500052E+03</pdfrwt>
<pdfrwt beam="1">  1       -4 0.13656810E-01 0.12500052E+03</pdfrwt>
<totfact> 0.19773374E+03</totfact>
</mgrwt>
</event>
<event>
 5    1  0.1422067E-002  0.1250004E+03  0.7818608E-02  0.1235069E+00
          4   -1    0    0  501    0  0.00000000000E+00  0.00000000000E+00  0.21176191958E+02  0.21214240638E+02  0.12700000000E+01 0. -1.
         -4   -1    0    0    0  501 -0.00000000000E+00 -0.00000000000E+00 -0.18425950794E+03  0.18426388459E+03  0.12700000000E+01 0. -1.
         25    2    1    2    0    0  0.00000000000E+00  0.00000000000E+00 -0.16308331598E+03  0.20547812523E+03  0.12500036799E+03 0.  0.
    9000005    1    3    3    0    0  0.51467010776E+02  0.33531343056E+02 -0.10043263741E+03  0.11773240345E+03  0.10000000000E+01 0.  0.
    9000005    1    3    3    0    0 -0.51467010776E+02 -0.33531343056E+02 -0.62650678569E+02  0.87745721779E+02  0.10000000000E+01 0.  0.
<mgrwt>
<rscale>  0 0.12500037E+03</rscale>
<asrwt>0</asrwt>
<pdfrwt beam="1">  1        4 0.52993517E-02 0.12500037E+03</pdfrwt>
<pdfrwt beam="2">  1       -4 0.46070175E-01 0.12500037E+03</pdfrwt>
<totfact> 0.16104878E+03</totfact>
</mgrwt>
</event>
<event>
 5    1  0.1422067E-002  0.1249962E+03  0.7818608E-02  0.1235075E+00
         -4   -1    0    0    0  501 -0.00000000000E+00  0.00000000000E+00  0.15888427791E+03  0.15888935353E+03  0.12700000000E+01 0. -1.
          4   -1    0    0  501    0  0.00000000000E+00 -0.00000000000E+00 -0.24562134973E+02  0.24594946115E+02  0.12700000000E+01 0. -1.
         25    2    1    2    0    0  0.00000000000E+00  0.00000000000E+00  0.13432214293E+03  0.18348429965E+03  0.12499620048E+03 0.  0.
    9000005    1    3    3    0    0  0.22434323173E+02  0.58265141677E+02  0.71013329202E+02  0.94562246775E+02  0.10000000000E+01 0.  0.
    9000005    1    3    3    0    0 -0.22434323173E+02 -0.58265141677E+02  0.63308813732E+02  0.88922052872E+02  0.10000000000E+01 0.  0.
<mgrwt>
<rscale>  0 0.12499620E+03</rscale>
<asrwt>0</asrwt>
<pdfrwt beam="2">  1        4 0.61452697E-02 0.12499620E+03</pdfrwt>
<pdfrwt beam="1">  1       -4 0.39725805E-01 0.12499620E+03</pdfrwt>
<totfact> 0.17006925E+03</totfact>
</mgrwt>
</event>
<event>
 5    1  0.1422067E-002  0.1250039E+03  0.7818608E-02  0.1235063E+00
          4   -1    0    0  501    0  0.00000000000E+00  0.00000000000E+00  0.23590818234E+01  0.26792101540E+01  0.12700000000E+01 0. -1.
         -4   -1    0    0    0  501 -0.00000000000E+00 -0.00000000000E+00 -0.15504007648E+04  0.15504012850E+04  0.12700000000E+01 0. -1.
         25    2    1    2    0    0  0.00000000000E+00  0.00000000000E+00 -0.15480416830E+04  0.15530804951E+04  0.12500388817E+03 0.  0.
    9000005    1    3    3    0    0 -0.30483012619E+02 -0.40363706684E+01 -0.98069675860E+02  0.10278213692E+03  0.10000000000E+01 0.  0.
    9000005    1    3    3    0    0  0.30483012619E+02  0.40363706684E+01 -0.14499720072E+04  0.14502983582E+04  0.10000000000E+01 0.  0.
<mgrwt>
<rscale>  0 0.12500389E+03</rscale>
<asrwt>0</asrwt>
<pdfrwt beam="1">  1        4 0.62985684E-03 0.12500389E+03</pdfrwt>
<pdfrwt beam="2">  1       -4 0.38763700E+00 0.12500389E+03</pdfrwt>
<totfact> 0.10831344E+02</totfact>
</mgrwt>
</event>
<event>
 5    1  0.1422067E-002  0.1249999E+03  0.7818608E-02  0.1235069E+00
         -4   -1    0    0    0  501 -0.00000000000E+00  0.00000000000E+00  0.39550608937E+02  0.39570994015E+02  0.12700000000E+01 0. -1.
          4   -1    0    0  501    0  0.00000000000E+00 -0.00000000000E+00 -0.98715776631E+02  0.98723945706E+02  0.12700000000E+01 0. -1.
         25    2    1    2    0    0  0.00000000000E+00  0.00000000000E+00 -0.59165167693E+02  0.13829493972E+03  0.12499989314E+03 0.  0.
    9000005    1    3    3    0    0 -0.18446235996E+02  0.43832599295E+02 -0.74437047824E+02  0.88337050393E+02  0.10000000000E+01 0.  0.
    9000005    1    3    3    0    0  0.18446235996E+02 -0.43832599295E+02  0.15271880131E+02  0.49957889328E+02  0.10000000000E+01 0.  0.
<mgrwt>
<rscale>  0 0.12499989E+03</rscale>
<asrwt>0</asrwt>
<pdfrwt beam="2">  1        4 0.24682513E-01 0.12499989E+03</pdfrwt>
<pdfrwt beam="1">  1       -4 0.98912217E-02 0.12499989E+03</pdfrwt>
<totfact> 0.19127960E+03</totfact>
</mgrwt>
</event>
<event>
 5    1  0.1422067E-002  0.1250006E+03  0.7818608E-02  0.1235068E+00
          4   -1    0    0  501    0  0.00000000000E+00  0.00000000000E+00  0.11511985726E+03  0.11512686235E+03  0.12700000000E+01 0.  1.
         -4   -1    0    0    0  501 -0.00000000000E+00 -0.00000000000E+00 -0.33912445931E+02  0.33936217954E+02  0.12700000000E+01 0.  1.
         25    2    1    2    0    0  0.00000000000E+00  0.00000000000E+00  0.81207411330E+02  0.14906308031E+03  0.12500063302E+03 0.  0.
    9000005    1    3    3    0    0  0.59976292960E+02 -0.25134867775E+01  0.19886595529E+02  0.63245158034E+02  0.10000000000E+01 0.  0.
    9000005    1    3    3    0    0 -0.59976292960E+02  0.25134867775E+01  0.61320815801E+02  0.85817922275E+02  0.10000000000E+01 0.  0.
<mgrwt>
<rscale>  0 0.12500063E+03</rscale>
<asrwt>0</asrwt>
<pdfrwt beam="1">  1        4 0.28783811E-01 0.12500063E+03</pdfrwt>
<pdfrwt beam="2">  1       -4 0.84819587E-02 0.12500063E+03</pdfrwt>
<totfact> 0.18584671E+03</totfact>
</mgrwt>
</event>
<event>
 5    1  0.1422067E-002  0.1249995E+03  0.7818608E-02  0.1235070E+00
          4   -1    0    0  501    0  0.00000000000E+00  0.00000000000E+00  0.88508569222E+03  0.88508660337E+03  0.12700000000E+01 0. -1.
         -4   -1    0    0    0  501 -0.00000000000E+00 -0.00000000000E+00 -0.43210796891E+01  0.45038460986E+01  0.12700000000E+01 0. -1.
         25    2    1    2    0    0  0.00000000000E+00  0.00000000000E+00  0.88076461253E+03  0.88959044947E+03  0.12499946042E+03 0.  0.
    9000005    1    3    3    0    0 -0.28883873045E+02 -0.24261828608E+02  0.79495824951E+03  0.79585333631E+03  0.10000000000E+01 0.  0.
    9000005    1    3    3    0    0  0.28883873045E+02  0.24261828608E+02  0.85806363018E+02  0.93737113162E+02  0.10000000000E+01 0.  0.
<mgrwt>
<rscale>  0 0.12499946E+03</rscale>
<asrwt>0</asrwt>
<pdfrwt beam="1">  1        4 0.22129439E+00 0.12499946E+03</pdfrwt>
<pdfrwt beam="2">  1       -4 0.11032296E-02 0.12499946E+03</pdfrwt>
<totfact> 0.45075554E+02</totfact>
</mgrwt>
</event>
<event>
 5    1  0.1422067E-002  0.1249977E+03  0.7818608E-02  0.1235073E+00
          4   -1    0    0  501    0  0.00000000000E+00  0.00000000000E+00  0.84586005843E+02  0.84595539389E+02  0.12700000000E+01 0. -1.
         -4   -1    0    0    0  501 -0.00000000000E+00 -0.00000000000E+00 -0.46158209757E+02  0.46175677883E+02  0.12700000000E+01 0. -1.
         25    2    1    2    0    0  0.00000000000E+00  0.00000000000E+00  0.38427796086E+02  0.13077121727E+03  0.12499766300E+03 0.  0.
    9000005    1    3    3    0    0 -0.54393832094E+01 -0.60180153391E+02  0.35883019186E+02  0.70283915783E+02  0.10000000000E+01 0.  0.
    9000005    1    3    3    0    0  0.54393832094E+01  0.60180153391E+02  0.25447768992E+01  0.60487301489E+02  0.10000000000E+01 0.  0.
<mgrwt>
<rscale>  0 0.12499766E+03</rscale>
<asrwt>0</asrwt>
<pdfrwt beam="1">  1        4 0.21149876E-01 0.12499766E+03</pdfrwt>
<pdfrwt beam="2">  1       -4 0.11542928E-01 0.12499766E+03</pdfrwt>
<totfact> 0.19524077E+03</totfact>
</mgrwt>
</event>
<event>
 5    1  0.1422067E-002  0.1250011E+03  0.7818608E-02  0.1235068E+00
         -4   -1    0    0    0  501 -0.00000000000E+00  0.00000000000E+00  0.64051166482E+02  0.64063755960E+02  0.12700000000E+01 0. -1.
          4   -1    0    0  501    0  0.00000000000E+00 -0.00000000000E+00 -0.60962292320E+02  0.60975519554E+02  0.12700000000E+01 0. -1.
         25    2    1    2    0    0  0.00000000000E+00  0.00000000000E+00  0.30888741625E+01  0.12503927551E+03  0.12500111711E+03 0.  0.
    9000005    1    3    3    0    0  0.35695419199E+02  0.51070910733E+02  0.63332719384E+01  0.62637937453E+02  0.10000000000E+01 0.  0.
    9000005    1    3    3    0    0 -0.35695419199E+02 -0.51070910733E+02 -0.32443977758E+01  0.62401338061E+02  0.10000000000E+01 0.  0.
<mgrwt>
<rscale>  0 0.12500112E+03</rscale>
<asrwt>0</asrwt>
<pdfrwt beam="2">  1        4 0.15243800E-01 0.12500112E+03</pdfrwt>
<pdfrwt beam="1">  1       -4 0.16016019E-01 0.12500112E+03</pdfrwt>
<totfact> 0.19832407E+03</totfact>
</mgrwt>
</event>
<event>
 5    1  0.1422067E-002  0.1249982E+03  0.7818608E-02  0.1235072E+00
         -4   -1    0    0    0  501 -0.00000000000E+00  0.00000000000E+00  0.31073159572E+02  0.31099102009E+02  0.12700000000E+01 0.  1.
          4   -1    0    0  501    0  0.00000000000E+00 -0.00000000000E+00 -0.12562606555E+03  0.12563248483E+03  0.12700000000E+01 0.  1.
         25    2    1    2    0    0  0.00000000000E+00  0.00000000000E+00 -0.94552905974E+02  0.15673158684E+03  0.12499815313E+03 0.  0.
    9000005    1    3    3    0    0 -0.18472424323E+02  0.50724838499E+02 -0.78064895187E+01  0.54554385522E+02  0.10000000000E+01 0.  0.
    9000005    1    3    3    0    0  0.18472424323E+02 -0.50724838499E+02 -0.86746416456E+02  0.10217720132E+03  0.10000000000E+01 0.  0.
<mgrwt>
<rscale>  0 0.12499815E+03</rscale>
<asrwt>0</asrwt>
<pdfrwt beam="2">  1        4 0.31410560E-01 0.12499815E+03</pdfrwt>
<pdfrwt beam="1">  1       -4 0.77723354E-02 0.12499815E+03</pdfrwt>
<totfact> 0.18213446E+03</totfact>
</mgrwt>
</event>
<event>
 5    1  0.1422067E-002  0.1250004E+03  0.7818608E-02  0.1235069E+00
          4   -1    0    0  501    0  0.00000000000E+00  0.00000000000E+00  0.65004454911E+02  0.65016859800E+02  0.12700000000E+01 0. -1.
         -4   -1    0    0    0  501 -0.00000000000E+00 -0.00000000000E+00 -0.60067570647E+02  0.60080994860E+02  0.12700000000E+01 0. -1.
         25    2    1    2    0    0  0.00000000000E+00  0.00000000000E+00  0.49368842644E+01  0.12509785466E+03  0.12500040166E+03 0.  0.
    9000005    1    3    3    0    0 -0.59758960831E+01 -0.18864192297E+02  0.61791177031E+02  0.64890050423E+02  0.10000000000E+01 0.  0.
    9000005    1    3    3    0    0  0.59758960831E+01  0.18864192297E+02 -0.56854292767E+02  0.60207804237E+02  0.10000000000E+01 0.  0.
<mgrwt>
<rscale>  0 0.12500040E+03</rscale>
<asrwt>0</asrwt>
<pdfrwt beam="1">  1        4 0.16254342E-01 0.12500040E+03</pdfrwt>
<pdfrwt beam="2">  1       -4 0.15020121E-01 0.12500040E+03</pdfrwt>
<totfact> 0.19829563E+03</totfact>
</mgrwt>
</event>
<event>
 5    1  0.1422067E-002  0.1249918E+03  0.7818608E-02  0.1235082E+00
         -4   -1    0    0    0  501 -0.00000000000E+00  0.00000000000E+00  0.64364125475E+02  0.64376653751E+02  0.12700000000E+01 0. -1.
          4   -1    0    0  501    0  0.00000000000E+00 -0.00000000000E+00 -0.60656835487E+02  0.60670129317E+02  0.12700000000E+01 0. -1.
         25    2    1    2    0    0  0.00000000000E+00  0.00000000000E+00  0.37072899879E+01  0.12504678307E+03  0.12499181556E+03 0.  0.
    9000005    1    3    3    0    0 -0.12980839326E+01 -0.41262221991E+02  0.48783575066E+02  0.63914733683E+02  0.10000000000E+01 0.  0.
    9000005    1    3    3    0    0  0.12980839326E+01  0.41262221991E+02 -0.45076285078E+02  0.61132049385E+02  0.10000000000E+01 0.  0.
<mgrwt>
<rscale>  0 0.12499182E+03</rscale>
<asrwt>0</asrwt>
<pdfrwt beam="2">  1        4 0.15167437E-01 0.12499182E+03</pdfrwt>
<pdfrwt beam="1">  1       -4 0.16094259E-01 0.12499182E+03</pdfrwt>
<totfact> 0.19836317E+03</totfact>
</mgrwt>
</event>
<event>
 5    1  0.1422067E-002  0.1250004E+03  0.7818608E-02  0.1235069E+00
          4   -1    0    0  501    0  0.00000000000E+00  0.00000000000E+00  0.42452408821E+02  0.42471401139E+02  0.12700000000E+01 0.  1.
         -4   -1    0    0    0  501 -0.00000000000E+00 -0.00000000000E+00 -0.91971479364E+02  0.91980247425E+02  0.12700000000E+01 0.  1.
         25    2    1    2    0    0  0.00000000000E+00  0.00000000000E+00 -0.49519070543E+02  0.13445164856E+03  0.12500042982E+03 0.  0.
    9000005    1    3    3    0    0 -0.36760892810E+02 -0.43431488127E+02 -0.52551491667E+02  0.77461711041E+02  0.10000000000E+01 0.  0.
    9000005    1    3    3    0    0  0.36760892810E+02  0.43431488127E+02  0.30324211239E+01  0.56989937524E+02  0.10000000000E+01 0.  0.
<mgrwt>
<rscale>  0 0.12500043E+03</rscale>
<asrwt>0</asrwt>
<pdfrwt beam="1">  1        4 0.10616572E-01 0.12500043E+03</pdfrwt>
<pdfrwt beam="2">  1       -4 0.22996340E-01 0.12500043E+03</pdfrwt>
<totfact> 0.19327704E+03</totfact>
</mgrwt>
</event>
<event>
 5    1  0.1422067E-002  0.1250141E+03  0.7818608E-02  0.1235047E+00
         -4   -1    0    0    0  501 -0.00000000000E+00  0.00000000000E+00  0.31690818809E+02  0.31716256034E+02  0.12700000000E+01 0.  1.
          4   -1    0    0  501    0  0.00000000000E+00 -0.00000000000E+00 -0.12321084500E+03  0.12321739011E+03  0.12700000000E+01 0.  1.
         25    2    1    2    0    0  0.00000000000E+00  0.00000000000E+00 -0.91520026186E+02  0.15493364614E+03  0.12501407726E+03 0.  0.
    9000005    1    3    3    0    0  0.89183705113E+01  0.56341175971E+00 -0.12242109045E+03  0.12275087842E+03  0.10000000000E+01 0.  0.
    9000005    1    3    3    0    0 -0.89183705113E+01 -0.56341175971E+00  0.30901064266E+02  0.32182767720E+02  0.10000000000E+01 0.  0.
<mgrwt>
<rscale>  0 0.12501408E+03</rscale>
<asrwt>0</asrwt>
<pdfrwt beam="2">  1        4 0.30806708E-01 0.12501408E+03</pdfrwt>
<pdfrwt beam="1">  1       -4 0.79267028E-02 0.12501408E+03</pdfrwt>
<totfact> 0.18292834E+03</totfact>
</mgrwt>
</event>
<event>
 5    1  0.1422067E-002  0.1250153E+03  0.7818608E-02  0.1235045E+00
          4   -1    0    0  501    0  0.00000000000E+00  0.00000000000E+00  0.39032586455E+03  0.39032793064E+03  0.12700000000E+01 0.  1.
         -4   -1    0    0    0  501 -0.00000000000E+00 -0.00000000000E+00 -0.99677250982E+01  0.10048305511E+02  0.12700000000E+01 0.  1.
         25    2    1    2    0    0  0.00000000000E+00  0.00000000000E+00  0.38035813945E+03  0.40037623615E+03  0.12501526397E+03 0.  0.
    9000005    1    3    3    0    0  0.47349292688E+02  0.39934287400E+02  0.16347967044E+03  0.17482364106E+03  0.10000000000E+01 0.  0.
    9000005    1    3    3    0    0 -0.47349292688E+02 -0.39934287400E+02  0.21687846902E+03  0.22555259509E+03  0.10000000000E+01 0.  0.
<mgrwt>
<rscale>  0 0.12501526E+03</rscale>
<asrwt>0</asrwt>
<pdfrwt beam="1">  1        4 0.97591788E-01 0.12501526E+03</pdfrwt>
<pdfrwt beam="2">  1       -4 0.25022623E-02 0.12501526E+03</pdfrwt>
<totfact> 0.10557785E+03</totfact>
</mgrwt>
</event>
<event>
 5    1  0.1422067E-002  0.1250277E+03  0.7818608E-02  0.1235026E+00
         -4   -1    0    0    0  501 -0.00000000000E+00  0.00000000000E+00  0.29289752560E+03  0.29290027894E+03  0.12700000000E+01 0.  1.
          4   -1    0    0  501    0  0.00000000000E+00 -0.00000000000E+00 -0.13309436365E+02  0.13369891411E+02  0.12700000000E+01 0.  1.
         25    2    1    2    0    0  0.00000000000E+00  0.00000000000E+00  0.27958808924E+03  0.30627017035E+03  0.12502766736E+03 0.  0.
    9000005    1    3    3    0    0 -0.29632568760E+02 -0.45366758739E+02  0.21611638960E+03  0.22280827135E+03  0.10000000000E+01 0.  0.
    9000005    1    3    3    0    0  0.29632568760E+02  0.45366758739E+02  0.63471699638E+02  0.83461899000E+02  0.10000000000E+01 0.  0.
<mgrwt>
<rscale>  0 0.12502767E+03</rscale>
<asrwt>0</asrwt>
<pdfrwt beam="2">  1        4 0.33352601E-02 0.12502767E+03</pdfrwt>
<pdfrwt beam="1">  1       -4 0.73232284E-01 0.12502767E+03</pdfrwt>
<totfact> 0.12789020E+03</totfact>
</mgrwt>
</event>
<event>
 5    1  0.1422067E-002  0.1250015E+03  0.7818608E-02  0.1235067E+00
         -4   -1    0    0    0  501 -0.00000000000E+00  0.00000000000E+00  0.22188776831E+02  0.22225092064E+02  0.12700000000E+01 0. -1.
          4   -1    0    0  501    0  0.00000000000E+00 -0.00000000000E+00 -0.17586794128E+03  0.17587252676E+03  0.12700000000E+01 0. -1.
         25    2    1    2    0    0  0.00000000000E+00  0.00000000000E+00 -0.15367916444E+03  0.19809761882E+03  0.12500152399E+03 0.  0.
    9000005    1    3    3    0    0 -0.46038653740E+01  0.62311356069E+02 -0.74934847608E+02  0.97571164068E+02  0.10000000000E+01 0.  0.
    9000005    1    3    3    0    0  0.46038653740E+01 -0.62311356069E+02 -0.78744316837E+02  0.10052645475E+03  0.10000000000E+01 0.  0.
<mgrwt>
<rscale>  0 0.12500152E+03</rscale>
<asrwt>0</asrwt>
<pdfrwt beam="2">  1        4 0.43972094E-01 0.12500152E+03</pdfrwt>
<pdfrwt beam="1">  1       -4 0.55523073E-02 0.12500152E+03</pdfrwt>
<totfact> 0.16397922E+03</totfact>
</mgrwt>
</event>
<event>
 5    1  0.1422067E-002  0.1250008E+03  0.7818608E-02  0.1235068E+00
         -4   -1    0    0    0  501 -0.00000000000E+00  0.00000000000E+00  0.26725802512E+02  0.26755960456E+02  0.12700000000E+01 0.  1.
          4   -1    0    0  501    0  0.00000000000E+00 -0.00000000000E+00 -0.14604680101E+03  0.14605232277E+03  0.12700000000E+01 0.  1.
         25    2    1    2    0    0  0.00000000000E+00  0.00000000000E+00 -0.11932099850E+03  0.17280828322E+03  0.12500080827E+03 0.  0.
    9000005    1    3    3    0    0 -0.19310020354E+02 -0.54673221696E+02 -0.91882802641E+02  0.10865306014E+03  0.10000000000E+01 0.  0.
    9000005    1    3    3    0    0  0.19310020354E+02  0.54673221696E+02 -0.27438195857E+02  0.64155223081E+02  0.10000000000E+01 0.  0.
<mgrwt>
<rscale>  0 0.12500081E+03</rscale>
<asrwt>0</asrwt>
<pdfrwt beam="2">  1        4 0.36516158E-01 0.12500081E+03</pdfrwt>
<pdfrwt beam="1">  1       -4 0.66859110E-02 0.12500081E+03</pdfrwt>
<totfact> 0.17470793E+03</totfact>
</mgrwt>
</event>
<event>
 5    1  0.1422067E-002  0.1250125E+03  0.7818608E-02  0.1235050E+00
          4   -1    0    0  501    0  0.00000000000E+00  0.00000000000E+00  0.29132113059E+02  0.29159782429E+02  0.12700000000E+01 0.  1.
         -4   -1    0    0    0  501 -0.00000000000E+00 -0.00000000000E+00 -0.13401987725E+03  0.13402589451E+03  0.12700000000E+01 0.  1.
         25    2    1    2    0    0  0.00000000000E+00  0.00000000000E+00 -0.10488776419E+03  0.16318567694E+03  0.12501248770E+03 0.  0.
    9000005    1    3    3    0    0 -0.37968247919E+02  0.45269266538E+02 -0.25847416283E+02  0.64497932304E+02  0.10000000000E+01 0.  0.
    9000005    1    3    3    0    0  0.37968247919E+02 -0.45269266538E+02 -0.79040347908E+02  0.98687744632E+02  0.10000000000E+01 0.  0.
<mgrwt>
<rscale>  0 0.12501249E+03</rscale>
<asrwt>0</asrwt>
<pdfrwt beam="1">  1        4 0.72872394E-02 0.12501249E+03</pdfrwt>
<pdfrwt beam="2">  1       -4 0.33509179E-01 0.12501249E+03</pdfrwt>
<totfact> 0.17903660E+03</totfact>
</mgrwt>
</event>
<event>
 5    1  0.1422067E-002  0.1250005E+03  0.7818608E-02  0.1235068E+00
          4   -1    0    0  501    0  0.00000000000E+00  0.00000000000E+00  0.61380667675E+03  0.61380799059E+03  0.12700000000E+01 0. -1.
         -4   -1    0    0    0  501 -0.00000000000E+00 -0.00000000000E+00 -0.62993347063E+01  0.64260810563E+01  0.12700000000E+01 0. -1.
         25    2    1    2    0    0  0.00000000000E+00  0.00000000000E+00  0.60750734204E+03  0.62023407165E+03  0.12500053202E+03 0.  0.
    9000005    1    3    3    0    0 -0.67576049513E+01 -0.13289934409E+01 -0.44348996851E+01  0.82522592944E+01  0.10000000000E+01 0.  0.
    9000005    1    3    3    0    0  0.67576049513E+01  0.13289934409E+01  0.61194224172E+03  0.61198181236E+03  0.10000000000E+01 0.  0.
<mgrwt>
<rscale>  0 0.12500053E+03</rscale>
<asrwt>0</asrwt>
<pdfrwt beam="1">  1        4 0.15346767E+00 0.12500053E+03</pdfrwt>
<pdfrwt beam="2">  1       -4 0.15908413E-02 0.12500053E+03</pdfrwt>
<totfact> 0.71013070E+02</totfact>
</mgrwt>
</event>
<event>
 5    1  0.1422067E-002  0.1250035E+03  0.7818608E-02  0.1235064E+00
          4   -1    0    0  501    0  0.00000000000E+00  0.00000000000E+00  0.16892727090E+02  0.16940399303E+02  0.12700000000E+01 0. -1.
         -4   -1    0    0    0  501 -0.00000000000E+00 -0.00000000000E+00 -0.23087629467E+03  0.23087978764E+03  0.12700000000E+01 0. -1.
         25    2    1    2    0    0  0.00000000000E+00  0.00000000000E+00 -0.21398356758E+03  0.24782018695E+03  0.12500351140E+03 0.  0.
    9000005    1    3    3    0    0 -0.16007809215E+02  0.39346188158E+01 -0.22649821844E+03  0.22709948071E+03  0.10000000000E+01 0.  0.
    9000005    1    3    3    0    0  0.16007809215E+02 -0.39346188158E+01  0.12514650855E+02  0.20720706241E+02  0.10000000000E+01 0.  0.
<mgrwt>
<rscale>  0 0.12500351E+03</rscale>
<asrwt>0</asrwt>
<pdfrwt beam="1">  1        4 0.42295782E-02 0.12500351E+03</pdfrwt>
<pdfrwt beam="2">  1       -4 0.57725459E-01 0.12500351E+03</pdfrwt>
<totfact> 0.14569607E+03</totfact>
</mgrwt>
</event>
<event>
 5    1  0.1422067E-002  0.1250017E+03  0.7818608E-02  0.1235067E+00
         -4   -1    0    0    0  501 -0.00000000000E+00  0.00000000000E+00  0.27439324651E+01  0.30235848546E+01  0.12700000000E+01 0.  1.
          4   -1    0    0  501    0  0.00000000000E+00 -0.00000000000E+00 -0.13543255583E+04  0.13543261538E+04  0.12700000000E+01 0.  1.
         25    2    1    2    0    0  0.00000000000E+00  0.00000000000E+00 -0.13515816258E+04  0.13573497386E+04  0.12500168650E+03 0.  0.
    9000005    1    3    3    0    0 -0.60263860220E+02 -0.12489237749E+02 -0.79356664087E+03  0.79595020411E+03  0.10000000000E+01 0.  0.
    9000005    1    3    3    0    0  0.60263860220E+02  0.12489237749E+02 -0.55801498497E+03  0.56139953452E+03  0.10000000000E+01 0.  0.
<mgrwt>
<rscale>  0 0.12500169E+03</rscale>
<asrwt>0</asrwt>
<pdfrwt beam="2">  1        4 0.33861424E+00 0.12500169E+03</pdfrwt>
<pdfrwt beam="1">  1       -4 0.72101874E-03 0.12500169E+03</pdfrwt>
<totfact> 0.17812765E+02</totfact>
</mgrwt>
</event>
<event>
 5    1  0.1422067E-002  0.1250025E+03  0.7818608E-02  0.1235065E+00
          4   -1    0    0  501    0  0.00000000000E+00  0.00000000000E+00  0.15044776585E+03  0.15045312608E+03  0.12700000000E+01 0.  1.
         -4   -1    0    0    0  501 -0.00000000000E+00 -0.00000000000E+00 -0.25943828667E+02  0.25974894532E+02  0.12700000000E+01 0.  1.
         25    2    1    2    0    0  0.00000000000E+00  0.00000000000E+00  0.12450393718E+03  0.17642802061E+03  0.12500246432E+03 0.  0.
    9000005    1    3    3    0    0 -0.42364066296E+02  0.37472280180E+02  0.24736477049E+02  0.61739607966E+02  0.10000000000E+01 0.  0.
    9000005    1    3    3    0    0  0.42364066296E+02 -0.37472280180E+02  0.99767460129E+02  0.11468841265E+03  0.10000000000E+01 0.  0.
<mgrwt>
<rscale>  0 0.12500246E+03</rscale>
<asrwt>0</asrwt>
<pdfrwt beam="1">  1        4 0.37616494E-01 0.12500246E+03</pdfrwt>
<pdfrwt beam="2">  1       -4 0.64905106E-02 0.12500246E+03</pdfrwt>
<totfact> 0.17309964E+03</totfact>
</mgrwt>
</event>
<event>
 5    1  0.1422067E-002  0.1250011E+03  0.7818608E-02  0.1235068E+00
         -4   -1    0    0    0  501 -0.00000000000E+00  0.00000000000E+00  0.30079496504E+02  0.30106295188E+02  0.12700000000E+01 0. -1.
          4   -1    0    0  501    0  0.00000000000E+00 -0.00000000000E+00 -0.12977881472E+03  0.12978502860E+03  0.12700000000E+01 0. -1.
         25    2    1    2    0    0  0.00000000000E+00  0.00000000000E+00 -0.99699318214E+02  0.15989132379E+03  0.12500112548E+03 0.  0.
    9000005    1    3    3    0    0  0.61845148501E+02  0.42463953921E+01 -0.39740079705E+02  0.73641891623E+02  0.10000000000E+01 0.  0.
    9000005    1    3    3    0    0 -0.61845148501E+02 -0.42463953921E+01 -0.59959238509E+02  0.86249432169E+02  0.10000000000E+01 0.  0.
<mgrwt>
<rscale>  0 0.12500113E+03</rscale>
<asrwt>0</asrwt>
<pdfrwt beam="2">  1        4 0.32448829E-01 0.12500113E+03</pdfrwt>
<pdfrwt beam="1">  1       -4 0.75240010E-02 0.12500113E+03</pdfrwt>
<totfact> 0.18062398E+03</totfact>
</mgrwt>
</event>
<event>
 5    1  0.1422067E-002  0.1250004E+03  0.7818608E-02  0.1235069E+00
          4   -1    0    0  501    0  0.00000000000E+00  0.00000000000E+00  0.28521945575E+03  0.28522228321E+03  0.12700000000E+01 0. -1.
         -4   -1    0    0    0  501 -0.00000000000E+00 -0.00000000000E+00 -0.13663342712E+02  0.13722238668E+02  0.12700000000E+01 0. -1.
         25    2    1    2    0    0  0.00000000000E+00  0.00000000000E+00  0.27155611304E+03  0.29894452188E+03  0.12500041852E+03 0.  0.
    9000005    1    3    3    0    0 -0.32193829473E+02 -0.22486931555E+01  0.26376000612E+03  0.26572888459E+03  0.10000000000E+01 0.  0.
    9000005    1    3    3    0    0  0.32193829473E+02  0.22486931555E+01  0.77961069141E+01  0.33215637282E+02  0.10000000000E+01 0.  0.
<mgrwt>
<rscale>  0 0.12500042E+03</rscale>
<asrwt>0</asrwt>
<pdfrwt beam="1">  1        4 0.71312583E-01 0.12500042E+03</pdfrwt>
<pdfrwt beam="2">  1       -4 0.34235509E-02 0.12500042E+03</pdfrwt>
<totfact> 0.13000564E+03</totfact>
</mgrwt>
</event>
<event>
 5    1  0.1422067E-002  0.1249901E+03  0.7818608E-02  0.1235085E+00
         -4   -1    0    0    0  501 -0.00000000000E+00  0.00000000000E+00  0.22131010698E+03  0.22131375093E+03  0.12700000000E+01 0.  1.
          4   -1    0    0  501    0  0.00000000000E+00 -0.00000000000E+00 -0.17621120505E+02  0.17666827329E+02  0.12700000000E+01 0.  1.
         25    2    1    2    0    0  0.00000000000E+00  0.00000000000E+00  0.20368898647E+03  0.23898057826E+03  0.12499005390E+03 0.  0.
    9000005    1    3    3    0    0  0.40620187719E+02  0.37665362203E+02  0.15712564772E+03  0.16660776792E+03  0.10000000000E+01 0.  0.
    9000005    1    3    3    0    0 -0.40620187719E+02 -0.37665362203E+02  0.46563338752E+02  0.72372810336E+02  0.10000000000E+01 0.  0.
<mgrwt>
<rscale>  0 0.12499005E+03</rscale>
<asrwt>0</asrwt>
<pdfrwt beam="2">  1        4 0.44114490E-02 0.12499005E+03</pdfrwt>
<pdfrwt beam="1">  1       -4 0.55333695E-01 0.12499005E+03</pdfrwt>
<totfact> 0.14875044E+03</totfact>
</mgrwt>
</event>
<event>
 5    1  0.1422067E-002  0.1249991E+03  0.7818608E-02  0.1235071E+00
          4   -1    0    0  501    0  0.00000000000E+00  0.00000000000E+00  0.11428347682E+02  0.11498696915E+02  0.12700000000E+01 0.  1.
         -4   -1    0    0    0  501 -0.00000000000E+00 -0.00000000000E+00 -0.34067858997E+03  0.34068095715E+03  0.12700000000E+01 0.  1.
         25    2    1    2    0    0  0.00000000000E+00  0.00000000000E+00 -0.32925024229E+03  0.35217965407E+03  0.12499914676E+03 0.  0.
    9000005    1    3    3    0    0  0.35939412096E+02  0.24833157070E+02 -0.29052695939E+03  0.29379455605E+03  0.10000000000E+01 0.  0.
    9000005    1    3    3    0    0 -0.35939412096E+02 -0.24833157070E+02 -0.38723282898E+02  0.58385098015E+02  0.10000000000E+01 0.  0.
<mgrwt>
<rscale>  0 0.12499915E+03</rscale>
<asrwt>0</asrwt>
<pdfrwt beam="1">  1        4 0.28661776E-02 0.12499915E+03</pdfrwt>
<pdfrwt beam="2">  1       -4 0.85178703E-01 0.12499915E+03</pdfrwt>
<totfact> 0.11625734E+03</totfact>
</mgrwt>
</event>
<event>
 5    1  0.1422067E-002  0.1249933E+03  0.7818608E-02  0.1235080E+00
         -4   -1    0    0    0  501 -0.00000000000E+00  0.00000000000E+00  0.11322254590E+03  0.11322966837E+03  0.12700000000E+01 0. -1.
          4   -1    0    0  501    0  0.00000000000E+00 -0.00000000000E+00 -0.34477061840E+02  0.34500444825E+02  0.12700000000E+01 0. -1.
         25    2    1    2    0    0  0.00000000000E+00  0.00000000000E+00  0.78745484055E+02  0.14773011320E+03  0.12499334016E+03 0.  0.
    9000005    1    3    3    0    0 -0.27609510047E+01  0.18025815790E+01  0.11312545328E+03  0.11317791450E+03  0.10000000000E+01 0.  0.
    9000005    1    3    3    0    0  0.27609510047E+01 -0.18025815790E+01 -0.34379969224E+02  0.34552198695E+02  0.10000000000E+01 0.  0.
<mgrwt>
<rscale>  0 0.12499334E+03</rscale>
<asrwt>0</asrwt>
<pdfrwt beam="2">  1        4 0.86230787E-02 0.12499334E+03</pdfrwt>
<pdfrwt beam="1">  1       -4 0.28309450E-01 0.12499334E+03</pdfrwt>
<totfact> 0.18653849E+03</totfact>
</mgrwt>
</event>
<event>
 5    1  0.1422067E-002  0.1250043E+03  0.7818608E-02  0.1235062E+00
         -4   -1    0    0    0  501 -0.00000000000E+00  0.00000000000E+00  0.14405189611E+03  0.14405749433E+03  0.12700000000E+01 0. -1.
          4   -1    0    0  501    0  0.00000000000E+00 -0.00000000000E+00 -0.27097849336E+02  0.27127593676E+02  0.12700000000E+01 0. -1.
         25    2    1    2    0    0  0.00000000000E+00  0.00000000000E+00  0.11695404677E+03  0.17118508800E+03  0.12500434112E+03 0.  0.
    9000005    1    3    3    0    0  0.53523926007E+02 -0.21699231949E+02  0.25786442591E+02  0.63258263839E+02  0.10000000000E+01 0.  0.
    9000005    1    3    3    0    0 -0.53523926007E+02  0.21699231949E+02  0.91167604179E+02  0.10792682416E+03  0.10000000000E+01 0.  0.
<mgrwt>
<rscale>  0 0.12500434E+03</rscale>
<asrwt>0</asrwt>
<pdfrwt beam="2">  1        4 0.67788802E-02 0.12500434E+03</pdfrwt>
<pdfrwt beam="1">  1       -4 0.36017392E-01 0.12500434E+03</pdfrwt>
<totfact> 0.17541959E+03</totfact>
</mgrwt>
</event>
<event>
 5    1  0.1422067E-002  0.1250020E+03  0.7818608E-02  0.1235066E+00
          4   -1    0    0  501    0  0.00000000000E+00  0.00000000000E+00  0.87967511845E+03  0.87967603520E+03  0.12700000000E+01 0. -1.
         -4   -1    0    0    0  501 -0.00000000000E+00 -0.00000000000E+00 -0.43489605483E+01  0.45306023717E+01  0.12700000000E+01 0. -1.
         25    2    1    2    0    0  0.00000000000E+00  0.00000000000E+00  0.87532615790E+03  0.88420663758E+03  0.12500198092E+03 0.  0.
    9000005    1    3    3    0    0 -0.50740211959E+02 -0.10146811941E+02  0.18980162922E+03  0.19673125160E+03  0.10000000000E+01 0.  0.
    9000005    1    3    3    0    0  0.50740211959E+02  0.10146811941E+02  0.68552452868E+03  0.68747538597E+03  0.10000000000E+01 0.  0.
<mgrwt>
<rscale>  0 0.12500198E+03</rscale>
<asrwt>0</asrwt>
<pdfrwt beam="1">  1        4 0.21994157E+00 0.12500198E+03</pdfrwt>
<pdfrwt beam="2">  1       -4 0.11100601E-02 0.12500198E+03</pdfrwt>
<totfact> 0.45491568E+02</totfact>
</mgrwt>
</event>
<event>
 5    1  0.1422067E-002  0.1249992E+03  0.7818608E-02  0.1235070E+00
         -4   -1    0    0    0  501 -0.00000000000E+00  0.00000000000E+00  0.77312171014E+02  0.77322601397E+02  0.12700000000E+01 0. -1.
          4   -1    0    0  501    0  0.00000000000E+00 -0.00000000000E+00 -0.50503237419E+02  0.50519203179E+02  0.12700000000E+01 0. -1.
         25    2    1    2    0    0  0.00000000000E+00  0.00000000000E+00  0.26808933594E+02  0.12784180458E+03  0.12499923230E+03 0.  0.
    9000005    1    3    3    0    0  0.61001250389E+01 -0.28315262689E+02  0.70037309742E+02  0.75797034128E+02  0.10000000000E+01 0.  0.
    9000005    1    3    3    0    0 -0.61001250389E+01  0.28315262689E+02 -0.43228376148E+02  0.52044770448E+02  0.10000000000E+01 0.  0.
<mgrwt>
<rscale>  0 0.12499923E+03</rscale>
<asrwt>0</asrwt>
<pdfrwt beam="2">  1        4 0.12629109E-01 0.12499923E+03</pdfrwt>
<pdfrwt beam="1">  1       -4 0.19331342E-01 0.12499923E+03</pdfrwt>
<totfact> 0.19681499E+03</totfact>
</mgrwt>
</event>
<event>
 5    1  0.1422067E-002  0.1249993E+03  0.7818608E-02  0.1235070E+00
         -4   -1    0    0    0  501 -0.00000000000E+00  0.00000000000E+00  0.49991337382E+03  0.49991498700E+03  0.12700000000E+01 0.  1.
          4   -1    0    0  501    0  0.00000000000E+00 -0.00000000000E+00 -0.77605231081E+01  0.78637534875E+01  0.12700000000E+01 0.  1.
         25    2    1    2    0    0  0.00000000000E+00  0.00000000000E+00  0.49215285071E+03  0.50777874049E+03  0.12499928329E+03 0.  0.
    9000005    1    3    3    0    0  0.20780843786E+02 -0.28046852416E+02  0.45663817118E+03  0.45797149341E+03  0.10000000000E+01 0.  0.
    9000005    1    3    3    0    0 -0.20780843786E+02  0.28046852416E+02  0.35514679538E+02  0.49807247079E+02  0.10000000000E+01 0.  0.
<mgrwt>
<rscale>  0 0.12499928E+03</rscale>
<asrwt>0</asrwt>
<pdfrwt beam="2">  1        4 0.19532363E-02 0.12499928E+03</pdfrwt>
<pdfrwt beam="1">  1       -4 0.12499145E+00 0.12499928E+03</pdfrwt>
<totfact> 0.86384215E+02</totfact>
</mgrwt>
</event>
<event>
 5    1  0.1422067E-002  0.1249999E+03  0.7818608E-02  0.1235070E+00
          4   -1    0    0  501    0  0.00000000000E+00  0.00000000000E+00  0.19213419150E+02  0.19255346671E+02  0.12700000000E+01 0. -1.
         -4   -1    0    0    0  501 -0.00000000000E+00 -0.00000000000E+00 -0.20304244364E+03  0.20304641543E+03  0.12700000000E+01 0. -1.
         25    2    1    2    0    0  0.00000000000E+00  0.00000000000E+00 -0.18382902449E+03  0.22230176210E+03  0.12499985275E+03 0.  0.
    9000005    1    3    3    0    0 -0.38866234077E+02  0.32413005792E+02 -0.15711362929E+03  0.16506628852E+03  0.10000000000E+01 0.  0.
    9000005    1    3    3    0    0  0.38866234077E+02 -0.32413005792E+02 -0.26715395197E+02  0.57235473583E+02  0.10000000000E+01 0.  0.
<mgrwt>
<rscale>  0 0.12499985E+03</rscale>
<asrwt>0</asrwt>
<pdfrwt beam="1">  1        4 0.48090928E-02 0.12499985E+03</pdfrwt>
<pdfrwt beam="2">  1       -4 0.50766342E-01 0.12499985E+03</pdfrwt>
<totfact> 0.15466397E+03</totfact>
</mgrwt>
</event>
<event>
 5    1  0.1422067E-002  0.1249912E+03  0.7818608E-02  0.1235083E+00
         -4   -1    0    0    0  501 -0.00000000000E+00  0.00000000000E+00  0.70799395661E+03  0.70799509567E+03  0.12700000000E+01 0.  1.
          4   -1    0    0  501    0  0.00000000000E+00 -0.00000000000E+00 -0.54423193095E+01  0.55885364333E+01  0.12700000000E+01 0.  1.
         25    2    1    2    0    0  0.00000000000E+00  0.00000000000E+00  0.70255163730E+03  0.71358363210E+03  0.12499118743E+03 0.  0.
    9000005    1    3    3    0    0 -0.48335819000E+02  0.35736675039E+02  0.25384655374E+03  0.26086880647E+03  0.10000000000E+01 0.  0.
    9000005    1    3    3    0    0  0.48335819000E+02 -0.35736675039E+02  0.44870508355E+03  0.45271482563E+03  0.10000000000E+01 0.  0.
<mgrwt>
<rscale>  0 0.12499119E+03</rscale>
<asrwt>0</asrwt>
<pdfrwt beam="2">  1        4 0.13789998E-02 0.12499119E+03</pdfrwt>
<pdfrwt beam="1">  1       -4 0.17701685E+00 0.12499119E+03</pdfrwt>
<totfact> 0.60675942E+02</totfact>
</mgrwt>
</event>
<event>
 5    1  0.1422067E-002  0.1249999E+03  0.7818608E-02  0.1235069E+00
          4   -1    0    0  501    0  0.00000000000E+00  0.00000000000E+00  0.10464955067E+03  0.10465725658E+03  0.12700000000E+01 0. -1.
         -4   -1    0    0    0  501 -0.00000000000E+00 -0.00000000000E+00 -0.37307007045E+02  0.37328617369E+02  0.12700000000E+01 0. -1.
         25    2    1    2    0    0  0.00000000000E+00  0.00000000000E+00  0.67342543621E+02  0.14198587395E+03  0.12499988088E+03 0.  0.
    9000005    1    3    3    0    0 -0.53645799261E+02  0.22271545959E+02  0.59854638057E+02  0.83411457455E+02  0.10000000000E+01 0.  0.
    9000005    1    3    3    0    0  0.53645799261E+02 -0.22271545959E+02  0.74879055635E+01  0.58574416493E+02  0.10000000000E+01 0.  0.
<mgrwt>
<rscale>  0 0.12499988E+03</rscale>
<asrwt>0</asrwt>
<pdfrwt beam="1">  1        4 0.26166052E-01 0.12499988E+03</pdfrwt>
<pdfrwt beam="2">  1       -4 0.93304164E-02 0.12499988E+03</pdfrwt>
<totfact> 0.18939257E+03</totfact>
</mgrwt>
</event>
<event>
 5    1  0.1422067E-002  0.1250022E+03  0.7818608E-02  0.1235066E+00
         -4   -1    0    0    0  501 -0.00000000000E+00  0.00000000000E+00  0.64581355765E+02  0.64593841908E+02  0.12700000000E+01 0. -1.
          4   -1    0    0  501    0  0.00000000000E+00 -0.00000000000E+00 -0.60462850142E+02  0.60476186614E+02  0.12700000000E+01 0. -1.
         25    2    1    2    0    0  0.00000000000E+00  0.00000000000E+00  0.41185056222E+01  0.12507002852E+03  0.12500219976E+03 0.  0.
    9000005    1    3    3    0    0  0.39882678206E+02 -0.11747791370E+02 -0.44621704780E+02  0.60997829145E+02  0.10000000000E+01 0.  0.
    9000005    1    3    3    0    0 -0.39882678206E+02  0.11747791370E+02  0.48740210402E+02  0.64072199377E+02  0.10000000000E+01 0.  0.
<mgrwt>
<rscale>  0 0.12500220E+03</rscale>
<asrwt>0</asrwt>
<pdfrwt beam="2">  1        4 0.15118940E-01 0.12500220E+03</pdfrwt>
<pdfrwt beam="1">  1       -4 0.16148567E-01 0.12500220E+03</pdfrwt>
<totfact> 0.19830237E+03</totfact>
</mgrwt>
</event>
<event>
 5    1  0.1422067E-002  0.1250007E+03  0.7818608E-02  0.1235068E+00
         -4   -1    0    0    0  501 -0.00000000000E+00  0.00000000000E+00  0.43445326633E+02  0.43463885080E+02  0.12700000000E+01 0. -1.
          4   -1    0    0  501    0  0.00000000000E+00 -0.00000000000E+00 -0.89870577839E+02  0.89879550851E+02  0.12700000000E+01 0. -1.
         25    2    1    2    0    0  0.00000000000E+00  0.00000000000E+00 -0.46425251207E+02  0.13334343593E+03  0.12500067182E+03 0.  0.
    9000005    1    3    3    0    0 -0.30406752707E+02 -0.21662550655E+02 -0.76671771883E+02  0.85284214921E+02  0.10000000000E+01 0.  0.
    9000005    1    3    3    0    0  0.30406752707E+02  0.21662550655E+02  0.30246520676E+02  0.48059221010E+02  0.10000000000E+01 0.  0.
<mgrwt>
<rscale>  0 0.12500067E+03</rscale>
<asrwt>0</asrwt>
<pdfrwt beam="2">  1        4 0.22471086E-01 0.12500067E+03</pdfrwt>
<pdfrwt beam="1">  1       -4 0.10864773E-01 0.12500067E+03</pdfrwt>
<totfact> 0.19385957E+03</totfact>
</mgrwt>
</event>
<event>
 5    1  0.1422067E-002  0.1250002E+03  0.7818608E-02  0.1235069E+00
         -4   -1    0    0    0  501 -0.00000000000E+00  0.00000000000E+00  0.69934982413E+02  0.69946512887E+02  0.12700000000E+01 0. -1.
          4   -1    0    0  501    0  0.00000000000E+00 -0.00000000000E+00 -0.55832267025E+02  0.55846709314E+02  0.12700000000E+01 0. -1.
         25    2    1    2    0    0  0.00000000000E+00  0.00000000000E+00  0.14102715388E+02  0.12579322220E+03  0.12500019268E+03 0.  0.
    9000005    1    3    3    0    0  0.26762961643E+02 -0.54710692539E+02 -0.70283312840E+01  0.61318133000E+02  0.10000000000E+01 0.  0.
    9000005    1    3    3    0    0 -0.26762961643E+02  0.54710692539E+02  0.21131046672E+02  0.64475089201E+02  0.10000000000E+01 0.  0.
<mgrwt>
<rscale>  0 0.12500019E+03</rscale>
<asrwt>0</asrwt>
<pdfrwt beam="2">  1        4 0.13961313E-01 0.12500019E+03</pdfrwt>
<pdfrwt beam="1">  1       -4 0.17486992E-01 0.12500019E+03</pdfrwt>
<totfact> 0.19792009E+03</totfact>
</mgrwt>
</event>
<event>
 5    1  0.1422067E-002  0.1249974E+03  0.7818608E-02  0.1235073E+00
          4   -1    0    0  501    0  0.00000000000E+00  0.00000000000E+00  0.19079693010E+02  0.19121913747E+02  0.12700000000E+01 0. -1.
         -4   -1    0    0    0  501 -0.00000000000E+00 -0.00000000000E+00 -0.20445432046E+03  0.20445826482E+03  0.12700000000E+01 0. -1.
         25    2    1    2    0    0  0.00000000000E+00  0.00000000000E+00 -0.18537462745E+03  0.22358017857E+03  0.12499737496E+03 0.  0.
    9000005    1    3    3    0    0  0.79468068813E+01  0.55953812406E+02 -0.14038521770E+03  0.15133733912E+03  0.10000000000E+01 0.  0.
    9000005    1    3    3    0    0 -0.79468068813E+01 -0.55953812406E+02 -0.44989409742E+02  0.72242839447E+02  0.10000000000E+01 0.  0.
<mgrwt>
<rscale>  0 0.12499737E+03</rscale>
<asrwt>0</asrwt>
<pdfrwt beam="1">  1        4 0.47756945E-02 0.12499737E+03</pdfrwt>
<pdfrwt beam="2">  1       -4 0.51119344E-01 0.12499737E+03</pdfrwt>
<totfact> 0.15420386E+03</totfact>
</mgrwt>
</event>
<event>
 5    1  0.1422067E-002  0.1249990E+03  0.7818608E-02  0.1235071E+00
         -4   -1    0    0    0  501 -0.00000000000E+00  0.00000000000E+00  0.26218599087E+02  0.26249339765E+02  0.12700000000E+01 0. -1.
          4   -1    0    0  501    0  0.00000000000E+00 -0.00000000000E+00 -0.14886454762E+03  0.14886996486E+03  0.12700000000E+01 0. -1.
         25    2    1    2    0    0  0.00000000000E+00  0.00000000000E+00 -0.12264594853E+03  0.17511930462E+03  0.12499896864E+03 0.  0.
    9000005    1    3    3    0    0 -0.13904769005E+02 -0.60182920590E+02 -0.48042658377E+02  0.78258696359E+02  0.10000000000E+01 0.  0.
    9000005    1    3    3    0    0  0.13904769005E+02  0.60182920590E+02 -0.74603290151E+02  0.96860608264E+02  0.10000000000E+01 0.  0.
<mgrwt>
<rscale>  0 0.12499897E+03</rscale>
<asrwt>0</asrwt>
<pdfrwt beam="2">  1        4 0.37220654E-01 0.12499897E+03</pdfrwt>
<pdfrwt beam="1">  1       -4 0.65591699E-02 0.12499897E+03</pdfrwt>
<totfact> 0.17369002E+03</totfact>
</mgrwt>
</event>
<event>
 5    1  0.1422067E-002  0.1250001E+03  0.7818608E-02  0.1235069E+00
          4   -1    0    0  501    0  0.00000000000E+00  0.00000000000E+00  0.25236526069E+03  0.25236845624E+03  0.12700000000E+01 0.  1.
         -4   -1    0    0    0  501 -0.00000000000E+00 -0.00000000000E+00 -0.15449231084E+02  0.15501343202E+02  0.12700000000E+01 0.  1.
         25    2    1    2    0    0  0.00000000000E+00  0.00000000000E+00  0.23691602961E+03  0.26786979944E+03  0.12500009747E+03 0.  0.
    9000005    1    3    3    0    0 -0.40355571745E+02  0.26288073054E+02  0.33125781124E+02  0.58463256246E+02  0.10000000000E+01 0.  0.
    9000005    1    3    3    0    0  0.40355571745E+02 -0.26288073054E+02  0.20379024848E+03  0.20940654319E+03  0.10000000000E+01 0.  0.
<mgrwt>
<rscale>  0 0.12500010E+03</rscale>
<asrwt>0</asrwt>
<pdfrwt beam="1">  1        4 0.63098228E-01 0.12500010E+03</pdfrwt>
<pdfrwt beam="2">  1       -4 0.38692212E-02 0.12500010E+03</pdfrwt>
<totfact> 0.13921852E+03</totfact>
</mgrwt>
</event>
<event>
 5    1  0.1422067E-002  0.1250004E+03  0.7818608E-02  0.1235069E+00
         -4   -1    0    0    0  501 -0.00000000000E+00  0.00000000000E+00  0.19501427933E+03  0.19501841463E+03  0.12700000000E+01 0.  1.
          4   -1    0    0  501    0  0.00000000000E+00 -0.00000000000E+00 -0.20006217585E+02  0.20046487025E+02  0.12700000000E+01 0.  1.
         25    2    1    2    0    0  0.00000000000E+00  0.00000000000E+00  0.17500806175E+03  0.21506490165E+03  0.12500036098E+03 0.  0.
    9000005    1    3    3    0    0 -0.53572912965E+02 -0.20320292495E+02  0.44584139262E+02  0.72606588987E+02  0.10000000000E+01 0.  0.
    9000005    1    3    3    0    0  0.53572912965E+02  0.20320292495E+02  0.13042392249E+03  0.14245831266E+03  0.10000000000E+01 0.  0.
<mgrwt>
<rscale>  0 0.12500036E+03</rscale>
<asrwt>0</asrwt>
<pdfrwt beam="2">  1        4 0.50071050E-02 0.12500036E+03</pdfrwt>
<pdfrwt beam="1">  1       -4 0.48759120E-01 0.12500036E+03</pdfrwt>
<totfact> 0.15735947E+03</totfact>
</mgrwt>
</event>
<event>
 5    1  0.1422067E-002  0.1249995E+03  0.7818608E-02  0.1235070E+00
          4   -1    0    0  501    0  0.00000000000E+00  0.00000000000E+00  0.32052954839E+03  0.32053206437E+03  0.12700000000E+01 0.  1.
         -4   -1    0    0    0  501 -0.00000000000E+00 -0.00000000000E+00 -0.12151113483E+02  0.12217301620E+02  0.12700000000E+01 0.  1.
         25    2    1    2    0    0  0.00000000000E+00  0.00000000000E+00  0.30837843490E+03  0.33274936599E+03  0.12499952581E+03 0.  0.
    9000005    1    3    3    0    0  0.58413677866E+02 -0.57701516632E+01  0.21126846226E+03  0.21927338087E+03  0.10000000000E+01 0.  0.
    9000005    1    3    3    0    0 -0.58413677866E+02  0.57701516632E+01  0.97109972643E+02  0.11347598512E+03  0.10000000000E+01 0.  0.
<mgrwt>
<rscale>  0 0.12499953E+03</rscale>
<asrwt>0</asrwt>
<pdfrwt beam="1">  1        4 0.80140972E-01 0.12499953E+03</pdfrwt>
<pdfrwt beam="2">  1       -4 0.30463665E-02 0.12499953E+03</pdfrwt>
<totfact> 0.12100545E+03</totfact>
</mgrwt>
</event>
<event>
 5    1  0.1422067E-002  0.1249907E+03  0.7818608E-02  0.1235084E+00
          4   -1    0    0  501    0  0.00000000000E+00  0.00000000000E+00  0.60842336281E+02  0.60855589589E+02  0.12700000000E+01 0.  1.
         -4   -1    0    0    0  501 -0.00000000000E+00 -0.00000000000E+00 -0.64166771638E+02  0.64179338439E+02  0.12700000000E+01 0.  1.
         25    2    1    2    0    0  0.00000000000E+00  0.00000000000E+00 -0.33244353565E+01  0.12503492803E+03  0.12499072508E+03 0.  0.
    9000005    1    3    3    0    0 -0.81972170159E+01  0.60915056666E+02 -0.12928164935E+02  0.62817003622E+02  0.10000000000E+01 0.  0.
    9000005    1    3    3    0    0  0.81972170159E+01 -0.60915056666E+02  0.96037295784E+01  0.62217924405E+02  0.10000000000E+01 0.  0.
<mgrwt>
<rscale>  0 0.12499073E+03</rscale>
<asrwt>0</asrwt>
<pdfrwt beam="1">  1        4 0.15213812E-01 0.12499073E+03</pdfrwt>
<pdfrwt beam="2">  1       -4 0.16044920E-01 0.12499073E+03</pdfrwt>
<totfact> 0.19837466E+03</totfact>
</mgrwt>
</event>
<event>
 5    1  0.1422067E-002  0.1249986E+03  0.7818608E-02  0.1235071E+00
         -4   -1    0    0    0  501 -0.00000000000E+00  0.00000000000E+00  0.85522176902E+02  0.85531606100E+02  0.12700000000E+01 0. -1.
          4   -1    0    0  501    0  0.00000000000E+00 -0.00000000000E+00 -0.45653500688E+02  0.45671161853E+02  0.12700000000E+01 0. -1.
         25    2    1    2    0    0  0.00000000000E+00  0.00000000000E+00  0.39868676214E+02  0.13120276795E+03  0.12499861989E+03 0.  0.
    9000005    1    3    3    0    0  0.18431834147E+02 -0.54602983139E+02 -0.54300228405E+01  0.57893898001E+02  0.10000000000E+01 0.  0.
    9000005    1    3    3    0    0 -0.18431834147E+02  0.54602983139E+02  0.45298699054E+02  0.73308869952E+02  0.10000000000E+01 0.  0.
<mgrwt>
<rscale>  0 0.12499862E+03</rscale>
<asrwt>0</asrwt>
<pdfrwt beam="2">  1        4 0.11416762E-01 0.12499862E+03</pdfrwt>
<pdfrwt beam="1">  1       -4 0.21383930E-01 0.12499862E+03</pdfrwt>
<totfact> 0.19500567E+03</totfact>
</mgrwt>
</event>
<event>
 5    1  0.1422067E-002  0.1249874E+03  0.7818608E-02  0.1235089E+00
         -4   -1    0    0    0  501 -0.00000000000E+00  0.00000000000E+00  0.19416129696E+02  0.19457620419E+02  0.12700000000E+01 0.  1.
          4   -1    0    0  501    0  0.00000000000E+00 -0.00000000000E+00 -0.20088700093E+03  0.20089101534E+03  0.12700000000E+01 0.  1.
         25    2    1    2    0    0  0.00000000000E+00  0.00000000000E+00 -0.18147087124E+03  0.22034863576E+03  0.12498737605E+03 0.  0.
    9000005    1    3    3    0    0  0.11507396467E+02 -0.21378370206E+02 -0.19224019008E+03  0.19376982626E+03  0.10000000000E+01 0.  0.
    9000005    1    3    3    0    0 -0.11507396467E+02  0.21378370206E+02  0.10769318843E+02  0.26578809500E+02  0.10000000000E+01 0.  0.
<mgrwt>
<rscale>  0 0.12498738E+03</rscale>
<asrwt>0</asrwt>
<pdfrwt beam="2">  1        4 0.50227432E-01 0.12498738E+03</pdfrwt>
<pdfrwt beam="1">  1       -4 0.48597212E-02 0.12498738E+03</pdfrwt>
<totfact> 0.15542947E+03</totfact>
</mgrwt>
</event>
<event>
 5    1  0.1422067E-002  0.1250045E+03  0.7818608E-02  0.1235062E+00
          4   -1    0    0  501    0  0.00000000000E+00  0.00000000000E+00  0.83675559281E+02  0.83685196546E+02  0.12700000000E+01 0. -1.
         -4   -1    0    0    0  501 -0.00000000000E+00 -0.00000000000E+00 -0.46665657730E+02  0.46682935976E+02  0.12700000000E+01 0. -1.
         25    2    1    2    0    0  0.00000000000E+00  0.00000000000E+00  0.37009901551E+02  0.13036813252E+03  0.12500446858E+03 0.  0.
    9000005    1    3    3    0    0 -0.41990842946E+02  0.24535014560E+02  0.59436011469E+02  0.76803888509E+02  0.10000000000E+01 0.  0.
    9000005    1    3    3    0    0  0.41990842946E+02 -0.24535014560E+02 -0.22426109918E+02  0.53564244014E+02  0.10000000000E+01 0.  0.
<mgrwt>
<rscale>  0 0.12500447E+03</rscale>
<asrwt>0</asrwt>
<pdfrwt beam="1">  1        4 0.20922254E-01 0.12500447E+03</pdfrwt>
<pdfrwt beam="2">  1       -4 0.11669779E-01 0.12500447E+03</pdfrwt>
<totfact> 0.19542574E+03</totfact>
</mgrwt>
</event>
<event>
 5    1  0.1422067E-002  0.1250004E+03  0.7818608E-02  0.1235069E+00
         -4   -1    0    0    0  501 -0.00000000000E+00  0.00000000000E+00  0.12555028794E+04  0.12555035217E+04  0.12700000000E+01 0.  1.
          4   -1    0    0  501    0  0.00000000000E+00 -0.00000000000E+00 -0.29810556749E+01  0.32403075373E+01  0.12700000000E+01 0.  1.
         25    2    1    2    0    0  0.00000000000E+00  0.00000000000E+00  0.12525218237E+04  0.12587438293E+04  0.12500043526E+03 0.  0.
    9000005    1    3    3    0    0 -0.28673973841E+02 -0.86339993917E+01  0.11785968808E+04  0.11789776716E+04  0.10000000000E+01 0.  0.
    9000005    1    3    3    0    0  0.28673973841E+02  0.86339993917E+01  0.73924942917E+02  0.79766157652E+02  0.10000000000E+01 0.  0.
<mgrwt>
<rscale>  0 0.12500044E+03</rscale>
<asrwt>0</asrwt>
<pdfrwt beam="2">  1        4 0.77775092E-03 0.12500044E+03</pdfrwt>
<pdfrwt beam="1">  1       -4 0.31390812E+00 0.12500044E+03</pdfrwt>
<totfact> 0.22250370E+02</totfact>
</mgrwt>
</event>
<event>
 4    1  0.1422067E-002  0.1218941E+03  0.7818608E-02  0.1240005E+00
         -4   -1    0    0    0  501 -0.00000000000E+00  0.00000000000E+00  0.53685613850E+03  0.53685764067E+03  0.12700000000E+01 0.  1.
          4   -1    0    0  501    0  0.00000000000E+00 -0.00000000000E+00 -0.68592638684E+01  0.69758440934E+01  0.12700000000E+01 0.  1.
    9000005    1    1    2    0    0 -0.24143606174E+02  0.44726994797E+02  0.41498299182E+03  0.41808527992E+03  0.10000000000E+01 0.  0.
    9000005    1    1    2    0    0  0.24143606174E+02 -0.44726994797E+02  0.11501388281E+03  0.12574820484E+03  0.10000000000E+01 0.  0.
<mgrwt>
<rscale>  0 0.12189410E+03</rscale>
<asrwt>0</asrwt>
<pdfrwt beam="2">  1        4 0.17295764E-02 0.12189410E+03</pdfrwt>
<pdfrwt beam="1">  1       -4 0.13422878E+00 0.12189410E+03</pdfrwt>
<totfact> 0.87007811E+02</totfact>
</mgrwt>
</event>
<event>
 5    1  0.1422067E-002  0.1249991E+03  0.7818608E-02  0.1235071E+00
         -4   -1    0    0    0  501 -0.00000000000E+00  0.00000000000E+00  0.19980573829E+02  0.20020894849E+02  0.12700000000E+01 0.  1.
          4   -1    0    0  501    0  0.00000000000E+00 -0.00000000000E+00 -0.19526001700E+03  0.19526414709E+03  0.12700000000E+01 0.  1.
         25    2    1    2    0    0  0.00000000000E+00  0.00000000000E+00 -0.17527944317E+03  0.21528504194E+03  0.12499906433E+03 0.  0.
    9000005    1    3    3    0    0 -0.45491129491E+02  0.19902882492E+02 -0.15298761950E+03  0.16084706809E+03  0.10000000000E+01 0.  0.
    9000005    1    3    3    0    0  0.45491129491E+02 -0.19902882492E+02 -0.22291823671E+02  0.54437973846E+02  0.10000000000E+01 0.  0.
<mgrwt>
<rscale>  0 0.12499906E+03</rscale>
<asrwt>0</asrwt>
<pdfrwt beam="2">  1        4 0.48820555E-01 0.12499906E+03</pdfrwt>
<pdfrwt beam="1">  1       -4 0.50007004E-02 0.12499906E+03</pdfrwt>
<totfact> 0.15728104E+03</totfact>
</mgrwt>
</event>
<event>
 5    1  0.1422067E-002  0.1249991E+03  0.7818608E-02  0.1235071E+00
         -4   -1    0    0    0  501 -0.00000000000E+00  0.00000000000E+00  0.12039794716E+03  0.12040464518E+03  0.12700000000E+01 0.  1.
          4   -1    0    0  501    0  0.00000000000E+00 -0.00000000000E+00 -0.32423992755E+02  0.32448855237E+02  0.12700000000E+01 0.  1.
         25    2    1    2    0    0  0.00000000000E+00  0.00000000000E+00  0.87973954408E+02  0.15285350042E+03  0.12499910374E+03 0.  0.
    9000005    1    3    3    0    0 -0.54833160320E+02 -0.29933905211E+02  0.42061317126E+02  0.75318447609E+02  0.10000000000E+01 0.  0.
    9000005    1    3    3    0    0  0.54833160320E+02  0.29933905211E+02  0.45912637282E+02  0.77535052809E+02  0.10000000000E+01 0.  0.
<mgrwt>
<rscale>  0 0.12499910E+03</rscale>
<asrwt>0</asrwt>
<pdfrwt beam="2">  1        4 0.81099433E-02 0.12499910E+03</pdfrwt>
<pdfrwt beam="1">  1       -4 0.30103432E-01 0.12499910E+03</pdfrwt>
<totfact> 0.18399742E+03</totfact>
</mgrwt>
</event>
<event>
 5    1  0.1422067E-002  0.1250007E+03  0.7818608E-02  0.1235068E+00
         -4   -1    0    0    0  501 -0.00000000000E+00  0.00000000000E+00  0.89152323769E+02  0.89161369064E+02  0.12700000000E+01 0. -1.
          4   -1    0    0  501    0  0.00000000000E+00 -0.00000000000E+00 -0.43795472099E+02  0.43813882233E+02  0.12700000000E+01 0. -1.
         25    2    1    2    0    0  0.00000000000E+00  0.00000000000E+00  0.45356851670E+02  0.13297525130E+03  0.12500069385E+03 0.  0.
    9000005    1    3    3    0    0 -0.12491045007E+01  0.59467320894E+02  0.43068121443E+02  0.73442396482E+02  0.10000000000E+01 0.  0.
    9000005    1    3    3    0    0  0.12491045007E+01 -0.59467320894E+02  0.22887302268E+01  0.59532854815E+02  0.10000000000E+01 0.  0.
<mgrwt>
<rscale>  0 0.12500069E+03</rscale>
<asrwt>0</asrwt>
<pdfrwt beam="2">  1        4 0.10952300E-01 0.12500069E+03</pdfrwt>
<pdfrwt beam="1">  1       -4 0.22291513E-01 0.12500069E+03</pdfrwt>
<totfact> 0.19405410E+03</totfact>
</mgrwt>
</event>
<event>
 5    1  0.1422067E-002  0.1249897E+03  0.7818608E-02  0.1235085E+00
         -4   -1    0    0    0  501 -0.00000000000E+00  0.00000000000E+00  0.27662238413E+02  0.27691376528E+02  0.12700000000E+01 0.  1.
          4   -1    0    0  501    0  0.00000000000E+00 -0.00000000000E+00 -0.14108287062E+03  0.14108858664E+03  0.12700000000E+01 0.  1.
         25    2    1    2    0    0  0.00000000000E+00  0.00000000000E+00 -0.11342063220E+03  0.16877996317E+03  0.12498974422E+03 0.  0.
    9000005    1    3    3    0    0 -0.20058064957E+02 -0.17810510359E+02  0.19498623158E+02  0.33177350016E+02  0.10000000000E+01 0.  0.
    9000005    1    3    3    0    0  0.20058064957E+02  0.17810510359E+02 -0.13291925536E+03  0.13560261316E+03  0.10000000000E+01 0.  0.
<mgrwt>
<rscale>  0 0.12498974E+03</rscale>
<asrwt>0</asrwt>
<pdfrwt beam="2">  1        4 0.35275072E-01 0.12498974E+03</pdfrwt>
<pdfrwt beam="1">  1       -4 0.69199168E-02 0.12498974E+03</pdfrwt>
<totfact> 0.17656421E+03</totfact>
</mgrwt>
</event>
<event>
 5    1  0.1422067E-002  0.1249976E+03  0.7818608E-02  0.1235073E+00
          4   -1    0    0  501    0  0.00000000000E+00  0.00000000000E+00  0.55580501802E+01  0.57013000102E+01  0.12700000000E+01 0. -1.
         -4   -1    0    0    0  501 -0.00000000000E+00 -0.00000000000E+00 -0.69369740127E+03  0.69369856380E+03  0.12700000000E+01 0. -1.
         25    2    1    2    0    0  0.00000000000E+00  0.00000000000E+00 -0.68813935108E+03  0.69939986381E+03  0.12499761194E+03 0.  0.
    9000005    1    3    3    0    0  0.71620555457E+00  0.23219292470E+02 -0.19471896290E+02  0.30328258083E+02  0.10000000000E+01 0.  0.
    9000005    1    3    3    0    0 -0.71620555457E+00 -0.23219292470E+02 -0.66866745479E+03  0.66907160573E+03  0.10000000000E+01 0.  0.
<mgrwt>
<rscale>  0 0.12499761E+03</rscale>
<asrwt>0</asrwt>
<pdfrwt beam="1">  1        4 0.14075665E-02 0.12499761E+03</pdfrwt>
<pdfrwt beam="2">  1       -4 0.17344211E+00 0.12499761E+03</pdfrwt>
<totfact> 0.62131982E+02</totfact>
</mgrwt>
</event>
<event>
 5    1  0.1422067E-002  0.1249972E+03  0.7818608E-02  0.1235074E+00
          4   -1    0    0  501    0  0.00000000000E+00  0.00000000000E+00  0.20025668527E+02  0.20065898932E+02  0.12700000000E+01 0.  1.
         -4   -1    0    0    0  501 -0.00000000000E+00 -0.00000000000E+00 -0.19481546032E+03  0.19481959983E+03  0.12700000000E+01 0.  1.
         25    2    1    2    0    0  0.00000000000E+00  0.00000000000E+00 -0.17478979179E+03  0.21488549877E+03  0.12499722503E+03 0.  0.
    9000005    1    3    3    0    0  0.23360386078E+02 -0.38174225912E+02 -0.16237104206E+03  0.16842901906E+03  0.10000000000E+01 0.  0.
    9000005    1    3    3    0    0 -0.23360386078E+02  0.38174225912E+02 -0.12418749730E+02  0.46456479704E+02  0.10000000000E+01 0.  0.
<mgrwt>
<rscale>  0 0.12499723E+03</rscale>
<asrwt>0</asrwt>
<pdfrwt beam="1">  1        4 0.50119640E-02 0.12499723E+03</pdfrwt>
<pdfrwt beam="2">  1       -4 0.48709406E-01 0.12499723E+03</pdfrwt>
<totfact> 0.15743868E+03</totfact>
</mgrwt>
</event>
<event>
 5    1  0.1422067E-002  0.1249983E+03  0.7818608E-02  0.1235072E+00
         -4   -1    0    0    0  501 -0.00000000000E+00  0.00000000000E+00  0.11095211211E+02  0.11167659191E+02  0.12700000000E+01 0. -1.
          4   -1    0    0  501    0  0.00000000000E+00 -0.00000000000E+00 -0.35083751952E+03  0.35083981816E+03  0.12700000000E+01 0. -1.
         25    2    1    2    0    0  0.00000000000E+00  0.00000000000E+00 -0.33974230831E+03  0.36200747735E+03  0.12499831038E+03 0.  0.
    9000005    1    3    3    0    0 -0.28292240999E+02 -0.52043591624E+02 -0.22751429706E+03  0.23510155613E+03  0.10000000000E+01 0.  0.
    9000005    1    3    3    0    0  0.28292240999E+02  0.52043591624E+02 -0.11222801126E+03  0.12690592122E+03  0.10000000000E+01 0.  0.
<mgrwt>
<rscale>  0 0.12499831E+03</rscale>
<asrwt>0</asrwt>
<pdfrwt beam="2">  1        4 0.87718686E-01 0.12499831E+03</pdfrwt>
<pdfrwt beam="1">  1       -4 0.27831473E-02 0.12499831E+03</pdfrwt>
<totfact> 0.11396528E+03</totfact>
</mgrwt>
</event>
<event>
 5    1  0.1422067E-002  0.1250008E+03  0.7818608E-02  0.1235068E+00
          4   -1    0    0  501    0  0.00000000000E+00  0.00000000000E+00  0.18041550276E+03  0.18041997266E+03  0.12700000000E+01 0.  1.
         -4   -1    0    0    0  501 -0.00000000000E+00 -0.00000000000E+00 -0.21628315932E+02  0.21665570615E+02  0.12700000000E+01 0.  1.
         25    2    1    2    0    0  0.00000000000E+00  0.00000000000E+00  0.15878718683E+03  0.20208554328E+03  0.12500078440E+03 0.  0.
    9000005    1    3    3    0    0  0.46299283251E+01 -0.47537743406E+02  0.14454427480E+03  0.15223442667E+03  0.10000000000E+01 0.  0.
    9000005    1    3    3    0    0 -0.46299283251E+01  0.47537743406E+02  0.14242912024E+02  0.49851116611E+02  0.10000000000E+01 0.  0.
<mgrwt>
<rscale>  0 0.12500078E+03</rscale>
<asrwt>0</asrwt>
<pdfrwt beam="1">  1        4 0.45109091E-01 0.12500078E+03</pdfrwt>
<pdfrwt beam="2">  1       -4 0.54122946E-02 0.12500078E+03</pdfrwt>
<totfact> 0.16238578E+03</totfact>
</mgrwt>
</event>
<event>
 5    1  0.1422067E-002  0.1249962E+03  0.7818608E-02  0.1235075E+00
          4   -1    0    0  501    0  0.00000000000E+00  0.00000000000E+00  0.36728214643E+02  0.36750165317E+02  0.12700000000E+01 0.  1.
         -4   -1    0    0    0  501 -0.00000000000E+00 -0.00000000000E+00 -0.10629164867E+03  0.10629923554E+03  0.12700000000E+01 0.  1.
         25    2    1    2    0    0  0.00000000000E+00  0.00000000000E+00 -0.69563434025E+02  0.14304940086E+03  0.12499623887E+03 0.  0.
    9000005    1    3    3    0    0 -0.48556535285E+02  0.33499672905E+02 -0.58376118755E+02  0.82998412301E+02  0.10000000000E+01 0.  0.
    9000005    1    3    3    0    0  0.48556535285E+02 -0.33499672905E+02 -0.11187315270E+02  0.60050988556E+02  0.10000000000E+01 0.  0.
<mgrwt>
<rscale>  0 0.12499624E+03</rscale>
<asrwt>0</asrwt>
<pdfrwt beam="1">  1        4 0.91857461E-02 0.12499624E+03</pdfrwt>
<pdfrwt beam="2">  1       -4 0.26576604E-01 0.12499624E+03</pdfrwt>
<totfact> 0.18887067E+03</totfact>
</mgrwt>
</event>
<event>
 5    1  0.1422067E-002  0.1249498E+03  0.7818608E-02  0.1235148E+00
          4   -1    0    0  501    0  0.00000000000E+00  0.00000000000E+00  0.14217489864E+02  0.14274099552E+02  0.12700000000E+01 0. -1.
         -4   -1    0    0    0  501 -0.00000000000E+00 -0.00000000000E+00 -0.27392529603E+03  0.27392824007E+03  0.12700000000E+01 0. -1.
         25    2    1    2    0    0  0.00000000000E+00  0.00000000000E+00 -0.25970780617E+03  0.28820233962E+03  0.12494976581E+03 0.  0.
    9000005    1    3    3    0    0 -0.52770879299E+02  0.32896059705E+02 -0.11617032255E+03  0.13177048337E+03  0.10000000000E+01 0.  0.
    9000005    1    3    3    0    0  0.52770879299E+02 -0.32896059705E+02 -0.14353748362E+03  0.15643185625E+03  0.10000000000E+01 0.  0.
<mgrwt>
<rscale>  0 0.12494977E+03</rscale>
<asrwt>0</asrwt>
<pdfrwt beam="1">  1        4 0.35618176E-02 0.12494977E+03</pdfrwt>
<pdfrwt beam="2">  1       -4 0.68488751E-01 0.12494977E+03</pdfrwt>
<totfact> 0.13323613E+03</totfact>
</mgrwt>
</event>
<event>
 5    1  0.1422067E-002  0.1250000E+03  0.7818608E-02  0.1235069E+00
          4   -1    0    0  501    0  0.00000000000E+00  0.00000000000E+00  0.14174280182E+03  0.14174849124E+03  0.12700000000E+01 0.  1.
         -4   -1    0    0    0  501 -0.00000000000E+00 -0.00000000000E+00 -0.27537826618E+02  0.27567096236E+02  0.12700000000E+01 0.  1.
         25    2    1    2    0    0  0.00000000000E+00  0.00000000000E+00  0.11420497520E+03  0.16931558747E+03  0.12499996720E+03 0.  0.
    9000005    1    3    3    0    0  0.13061595266E+02 -0.25395688008E+02 -0.18188903157E+02  0.33873034088E+02  0.10000000000E+01 0.  0.
    9000005    1    3    3    0    0 -0.13061595266E+02  0.25395688008E+02  0.13239387836E+03  0.13544255339E+03  0.10000000000E+01 0.  0.
<mgrwt>
<rscale>  0 0.12499997E+03</rscale>
<asrwt>0</asrwt>
<pdfrwt beam="1">  1        4 0.35440070E-01 0.12499997E+03</pdfrwt>
<pdfrwt beam="2">  1       -4 0.68888267E-02 0.12499997E+03</pdfrwt>
<totfact> 0.17627975E+03</totfact>
</mgrwt>
</event>
<event>
 5    1  0.1422067E-002  0.1250014E+03  0.7818608E-02  0.1235067E+00
          4   -1    0    0  501    0  0.00000000000E+00  0.00000000000E+00  0.76381416234E+01  0.77430037750E+01  0.12700000000E+01 0.  1.
         -4   -1    0    0    0  501 -0.00000000000E+00 -0.00000000000E+00 -0.50783263197E+03  0.50783421999E+03  0.12700000000E+01 0.  1.
         25    2    1    2    0    0  0.00000000000E+00  0.00000000000E+00 -0.50019449035E+03  0.51557722377E+03  0.12500138196E+03 0.  0.
    9000005    1    3    3    0    0  0.31647881705E+02  0.49200027254E+02 -0.34075392279E+03  0.34574046190E+03  0.10000000000E+01 0.  0.
    9000005    1    3    3    0    0 -0.31647881705E+02 -0.49200027254E+02 -0.15944056756E+03  0.16983676187E+03  0.10000000000E+01 0.  0.
<mgrwt>
<rscale>  0 0.12500138E+03</rscale>
<asrwt>0</asrwt>
<pdfrwt beam="1">  1        4 0.19228434E-02 0.12500138E+03</pdfrwt>
<pdfrwt beam="2">  1       -4 0.12697135E+00 0.12500138E+03</pdfrwt>
<totfact> 0.85178704E+02</totfact>
</mgrwt>
</event>
<event>
 5    1  0.1422067E-002  0.1249990E+03  0.7818608E-02  0.1235071E+00
         -4   -1    0    0    0  501 -0.00000000000E+00  0.00000000000E+00  0.22389618375E+02  0.22425608375E+02  0.12700000000E+01 0. -1.
          4   -1    0    0  501    0  0.00000000000E+00 -0.00000000000E+00 -0.17428580009E+03  0.17429042719E+03  0.12700000000E+01 0. -1.
         25    2    1    2    0    0  0.00000000000E+00  0.00000000000E+00 -0.15189618171E+03  0.19671603557E+03  0.12499899452E+03 0.  0.
    9000005    1    3    3    0    0  0.60618986114E+02 -0.97399056548E+01 -0.57618236279E+02  0.84204444014E+02  0.10000000000E+01 0.  0.
    9000005    1    3    3    0    0 -0.60618986114E+02  0.97399056548E+01 -0.94277945432E+02  0.11251159156E+03  0.10000000000E+01 0.  0.
<mgrwt>
<rscale>  0 0.12499899E+03</rscale>
<asrwt>0</asrwt>
<pdfrwt beam="2">  1        4 0.43576523E-01 0.12499899E+03</pdfrwt>
<pdfrwt beam="1">  1       -4 0.56024822E-02 0.12499899E+03</pdfrwt>
<totfact> 0.16454769E+03</totfact>
</mgrwt>
</event>
<event>
 5    1  0.1422067E-002  0.1249994E+03  0.7818608E-02  0.1235070E+00
         -4   -1    0    0    0  501 -0.00000000000E+00  0.00000000000E+00  0.32944226448E+02  0.32968696612E+02  0.12700000000E+01 0. -1.
          4   -1    0    0  501    0  0.00000000000E+00 -0.00000000000E+00 -0.11849850627E+03  0.11850531165E+03  0.12700000000E+01 0. -1.
         25    2    1    2    0    0  0.00000000000E+00  0.00000000000E+00 -0.85554279823E+02  0.15147400826E+03  0.12499936153E+03 0.  0.
    9000005    1    3    3    0    0 -0.52705126385E+02  0.20153572788E+02 -0.10233796274E+02  0.57356145525E+02  0.10000000000E+01 0.  0.
    9000005    1    3    3    0    0  0.52705126385E+02 -0.20153572788E+02 -0.75320483549E+02  0.94117862733E+02  0.10000000000E+01 0.  0.
<mgrwt>
<rscale>  0 0.12499936E+03</rscale>
<asrwt>0</asrwt>
<pdfrwt beam="2">  1        4 0.29628535E-01 0.12499936E+03</pdfrwt>
<pdfrwt beam="1">  1       -4 0.82399663E-02 0.12499936E+03</pdfrwt>
<totfact> 0.18466815E+03</totfact>
</mgrwt>
</event>
<event>
 5    1  0.1422067E-002  0.1249942E+03  0.7818608E-02  0.1235078E+00
         -4   -1    0    0    0  501 -0.00000000000E+00  0.00000000000E+00  0.88432014977E+02  0.88441133942E+02  0.12700000000E+01 0.  1.
          4   -1    0    0  501    0  0.00000000000E+00 -0.00000000000E+00 -0.44147723500E+02  0.44165986802E+02  0.12700000000E+01 0.  1.
         25    2    1    2    0    0  0.00000000000E+00  0.00000000000E+00  0.44284291477E+02  0.13260712074E+03  0.12499419987E+03 0.  0.
    9000005    1    3    3    0    0 -0.61762526277E+02  0.38275068158E+01  0.12916040463E+02  0.63222492531E+02  0.10000000000E+01 0.  0.
    9000005    1    3    3    0    0  0.61762526277E+02 -0.38275068158E+01  0.31368251015E+02  0.69384628213E+02  0.10000000000E+01 0.  0.
<mgrwt>
<rscale>  0 0.12499420E+03</rscale>
<asrwt>0</asrwt>
<pdfrwt beam="2">  1        4 0.11040354E-01 0.12499420E+03</pdfrwt>
<pdfrwt beam="1">  1       -4 0.22111426E-01 0.12499420E+03</pdfrwt>
<totfact> 0.19427850E+03</totfact>
</mgrwt>
</event>
<event>
 5    1  0.1422067E-002  0.1249948E+03  0.7818608E-02  0.1235077E+00
         -4   -1    0    0    0  501 -0.00000000000E+00  0.00000000000E+00  0.18257915385E+03  0.18258357078E+03  0.12700000000E+01 0. -1.
          4   -1    0    0  501    0  0.00000000000E+00 -0.00000000000E+00 -0.21369507098E+02  0.21407212187E+02  0.12700000000E+01 0. -1.
         25    2    1    2    0    0  0.00000000000E+00  0.00000000000E+00  0.16120964675E+03  0.20399078297E+03  0.12499475722E+03 0.  0.
    9000005    1    3    3    0    0 -0.53340024598E+02  0.29829449382E+02  0.59328214789E+02  0.85180932987E+02  0.10000000000E+01 0.  0.
    9000005    1    3    3    0    0  0.53340024598E+02 -0.29829449382E+02  0.10188143196E+03  0.11880984998E+03  0.10000000000E+01 0.  0.
<mgrwt>
<rscale>  0 0.12499476E+03</rscale>
<asrwt>0</asrwt>
<pdfrwt beam="2">  1        4 0.53476421E-02 0.12499476E+03</pdfrwt>
<pdfrwt beam="1">  1       -4 0.45650053E-01 0.12499476E+03</pdfrwt>
<totfact> 0.16165441E+03</totfact>
</mgrwt>
</event>
<event>
 5    1  0.1422067E-002  0.1249990E+03  0.7818608E-02  0.1235071E+00
          4   -1    0    0  501    0  0.00000000000E+00  0.00000000000E+00  0.62634320667E+03  0.62634449422E+03  0.12700000000E+01 0. -1.
         -4   -1    0    0    0  501 -0.00000000000E+00 -0.00000000000E+00 -0.61705296022E+01  0.62998679011E+01  0.12700000000E+01 0. -1.
         25    2    1    2    0    0  0.00000000000E+00  0.00000000000E+00  0.62017267707E+03  0.63264436212E+03  0.12499895817E+03 0.  0.
    9000005    1    3    3    0    0  0.11492685443E+01 -0.34661151143E+02  0.46978623675E+02  0.58401261109E+02  0.10000000000E+01 0.  0.
    9000005    1    3    3    0    0 -0.11492685443E+01  0.34661151143E+02  0.57319405339E+03  0.57424310101E+03  0.10000000000E+01 0.  0.
<mgrwt>
<rscale>  0 0.12499896E+03</rscale>
<asrwt>0</asrwt>
<pdfrwt beam="1">  1        4 0.15660209E+00 0.12499896E+03</pdfrwt>
<pdfrwt beam="2">  1       -4 0.15589610E-02 0.12499896E+03</pdfrwt>
<totfact> 0.69534052E+02</totfact>
</mgrwt>
</event>
<event>
 5    1  0.1422067E-002  0.1250005E+03  0.7818608E-02  0.1235069E+00
          4   -1    0    0  501    0  0.00000000000E+00  0.00000000000E+00  0.11181161044E+03  0.11181882279E+03  0.12700000000E+01 0. -1.
         -4   -1    0    0    0  501 -0.00000000000E+00 -0.00000000000E+00 -0.34916367086E+02  0.34939456070E+02  0.12700000000E+01 0. -1.
         25    2    1    2    0    0  0.00000000000E+00  0.00000000000E+00  0.76895243356E+02  0.14675827886E+03  0.12500045585E+03 0.  0.
    9000005    1    3    3    0    0 -0.55429813888E+02  0.29824284510E+01  0.47473530572E+01  0.55721598219E+02  0.10000000000E+01 0.  0.
    9000005    1    3    3    0    0  0.55429813888E+02 -0.29824284510E+01  0.72147890299E+02  0.91036680639E+02  0.10000000000E+01 0.  0.
<mgrwt>
<rscale>  0 0.12500046E+03</rscale>
<asrwt>0</asrwt>
<pdfrwt beam="1">  1        4 0.27956690E-01 0.12500046E+03</pdfrwt>
<pdfrwt beam="2">  1       -4 0.87328795E-02 0.12500046E+03</pdfrwt>
<totfact> 0.18699135E+03</totfact>
</mgrwt>
</event>
<event>
 5    1  0.1422067E-002  0.1249963E+03  0.7818608E-02  0.1235075E+00
         -4   -1    0    0    0  501 -0.00000000000E+00  0.00000000000E+00  0.13272030218E+03  0.13272637835E+03  0.12700000000E+01 0.  1.
          4   -1    0    0  501    0  0.00000000000E+00 -0.00000000000E+00 -0.29410007210E+02  0.29437415377E+02  0.12700000000E+01 0.  1.
         25    2    1    2    0    0  0.00000000000E+00  0.00000000000E+00  0.10331029497E+03  0.16216379373E+03  0.12499631575E+03 0.  0.
    9000005    1    3    3    0    0  0.33350427155E+02  0.52501274422E+02  0.59480744077E+02  0.86067378973E+02  0.10000000000E+01 0.  0.
    9000005    1    3    3    0    0 -0.33350427155E+02 -0.52501274422E+02  0.43829550894E+02  0.76096414758E+02  0.10000000000E+01 0.  0.
<mgrwt>
<rscale>  0 0.12499632E+03</rscale>
<asrwt>0</asrwt>
<pdfrwt beam="2">  1        4 0.73566874E-02 0.12499632E+03</pdfrwt>
<pdfrwt beam="1">  1       -4 0.33184261E-01 0.12499632E+03</pdfrwt>
<totfact> 0.17957933E+03</totfact>
</mgrwt>
</event>
<event>
 5    1  0.1422067E-002  0.1250006E+03  0.7818608E-02  0.1235068E+00
          4   -1    0    0  501    0  0.00000000000E+00  0.00000000000E+00  0.29489204480E+02  0.29516539107E+02  0.12700000000E+01 0. -1.
         -4   -1    0    0    0  501 -0.00000000000E+00 -0.00000000000E+00 -0.13237317022E+03  0.13237926232E+03  0.12700000000E+01 0. -1.
         25    2    1    2    0    0  0.00000000000E+00  0.00000000000E+00 -0.10288396574E+03  0.16189580143E+03  0.12500056046E+03 0.  0.
    9000005    1    3    3    0    0  0.11523110750E+01 -0.27725115421E+02  0.21078628755E+02  0.34861417586E+02  0.10000000000E+01 0.  0.
    9000005    1    3    3    0    0 -0.11523110750E+01  0.27725115421E+02 -0.12396259449E+03  0.12703438385E+03  0.10000000000E+01 0.  0.
<mgrwt>
<rscale>  0 0.12500056E+03</rscale>
<asrwt>0</asrwt>
<pdfrwt beam="1">  1        4 0.73764798E-02 0.12500056E+03</pdfrwt>
<pdfrwt beam="2">  1       -4 0.33097469E-01 0.12500056E+03</pdfrwt>
<totfact> 0.17968665E+03</totfact>
</mgrwt>
</event>
<event>
 5    1  0.1422067E-002  0.1249954E+03  0.7818608E-02  0.1235077E+00
         -4   -1    0    0    0  501 -0.00000000000E+00  0.00000000000E+00  0.41311459257E+02  0.41330975865E+02  0.12700000000E+01 0.  1.
          4   -1    0    0  501    0  0.00000000000E+00 -0.00000000000E+00 -0.94502970995E+02  0.94511504204E+02  0.12700000000E+01 0.  1.
         25    2    1    2    0    0  0.00000000000E+00  0.00000000000E+00 -0.53191511738E+02  0.13584248007E+03  0.12499536980E+03 0.  0.
    9000005    1    3    3    0    0  0.16133678596E+02  0.12279471973E+02 -0.90834293183E+02  0.93074968896E+02  0.10000000000E+01 0.  0.
    9000005    1    3    3    0    0 -0.16133678596E+02 -0.12279471973E+02  0.37642781445E+02  0.42767511173E+02  0.10000000000E+01 0.  0.
<mgrwt>
<rscale>  0 0.12499537E+03</rscale>
<asrwt>0</asrwt>
<pdfrwt beam="2">  1        4 0.23629249E-01 0.12499537E+03</pdfrwt>
<pdfrwt beam="1">  1       -4 0.10331371E-01 0.12499537E+03</pdfrwt>
<totfact> 0.19257180E+03</totfact>
</mgrwt>
</event>
<event>
 5    1  0.1422067E-002  0.1250070E+03  0.7818608E-02  0.1235058E+00
          4   -1    0    0  501    0  0.00000000000E+00  0.00000000000E+00  0.21526684673E+03  0.21527059297E+03  0.12700000000E+01 0.  1.
         -4   -1    0    0    0  501 -0.00000000000E+00 -0.00000000000E+00 -0.18121988185E+02  0.18166434868E+02  0.12700000000E+01 0.  1.
         25    2    1    2    0    0  0.00000000000E+00  0.00000000000E+00  0.19714485854E+03  0.23343702784E+03  0.12500700268E+03 0.  0.
    9000005    1    3    3    0    0  0.49537053644E+02 -0.37357396660E+02  0.84574101214E+02  0.10489648881E+03  0.10000000000E+01 0.  0.
    9000005    1    3    3    0    0 -0.49537053644E+02  0.37357396660E+02  0.11257075733E+03  0.12854053903E+03  0.10000000000E+01 0.  0.
<mgrwt>
<rscale>  0 0.12500700E+03</rscale>
<asrwt>0</asrwt>
<pdfrwt beam="1">  1        4 0.53822735E-01 0.12500700E+03</pdfrwt>
<pdfrwt beam="2">  1       -4 0.45365212E-02 0.12500700E+03</pdfrwt>
<totfact> 0.15062841E+03</totfact>
</mgrwt>
</event>
<event>
 5    1  0.1422067E-002  0.1250030E+03  0.7818608E-02  0.1235065E+00
          4   -1    0    0  501    0  0.00000000000E+00  0.00000000000E+00  0.41129887463E+02  0.41149490188E+02  0.12700000000E+01 0. -1.
         -4   -1    0    0    0  501 -0.00000000000E+00 -0.00000000000E+00 -0.94931606752E+02  0.94940101435E+02  0.12700000000E+01 0. -1.
         25    2    1    2    0    0  0.00000000000E+00  0.00000000000E+00 -0.53801719289E+02  0.13608959162E+03  0.12500300776E+03 0.  0.
    9000005    1    3    3    0    0  0.42678883772E+02  0.42398357796E+02 -0.84788091524E+01  0.60761814229E+02  0.10000000000E+01 0.  0.
    9000005    1    3    3    0    0 -0.42678883772E+02 -0.42398357796E+02 -0.45322910137E+02  0.75327777394E+02  0.10000000000E+01 0.  0.
<mgrwt>
<rscale>  0 0.12500301E+03</rscale>
<asrwt>0</asrwt>
<pdfrwt beam="1">  1        4 0.10285984E-01 0.12500301E+03</pdfrwt>
<pdfrwt beam="2">  1       -4 0.23736414E-01 0.12500301E+03</pdfrwt>
<totfact> 0.19240867E+03</totfact>
</mgrwt>
</event>
<event>
 5    1  0.1422067E-002  0.1250023E+03  0.7818608E-02  0.1235066E+00
          4   -1    0    0  501    0  0.00000000000E+00  0.00000000000E+00  0.16290100091E+02  0.16339530623E+02  0.12700000000E+01 0. -1.
         -4   -1    0    0    0  501 -0.00000000000E+00 -0.00000000000E+00 -0.23938742416E+03  0.23939079295E+03  0.12700000000E+01 0. -1.
         25    2    1    2    0    0  0.00000000000E+00  0.00000000000E+00 -0.22309732407E+03  0.25573032357E+03  0.12500232952E+03 0.  0.
    9000005    1    3    3    0    0  0.57338189896E+02 -0.45020796910E+01 -0.16155420214E+03  0.17148964100E+03  0.10000000000E+01 0.  0.
    9000005    1    3    3    0    0 -0.57338189896E+02  0.45020796910E+01 -0.61543121935E+02  0.84240682569E+02  0.10000000000E+01 0.  0.
<mgrwt>
<rscale>  0 0.12500233E+03</rscale>
<asrwt>0</asrwt>
<pdfrwt beam="1">  1        4 0.40791257E-02 0.12500233E+03</pdfrwt>
<pdfrwt beam="2">  1       -4 0.59853445E-01 0.12500233E+03</pdfrwt>
<totfact> 0.14308524E+03</totfact>
</mgrwt>
</event>
<event>
 4    1  0.1422067E-002  0.1249337E+03  0.7818608E-02  0.1235173E+00
          4   -1    0    0  501    0  0.00000000000E+00  0.00000000000E+00  0.56776155898E+03  0.56776297938E+03  0.12700000000E+01 0. -1.
         -4   -1    0    0    0  501 -0.00000000000E+00 -0.00000000000E+00 -0.68126815686E+01  0.69300454656E+01  0.12700000000E+01 0. -1.
    9000005    1    1    2    0    0  0.61991952221E+02 -0.82564467122E+00  0.31533236497E+03  0.32137078932E+03  0.10000000000E+01 0.  0.
    9000005    1    1    2    0    0 -0.61991952221E+02  0.82564467122E+00  0.24561651243E+03  0.25332223552E+03  0.10000000000E+01 0.  0.
<mgrwt>
<rscale>  0 0.12493370E+03</rscale>
<asrwt>0</asrwt>
<pdfrwt beam="1">  1        4 0.14195525E+00 0.12493370E+03</pdfrwt>
<pdfrwt beam="2">  1       -4 0.17180182E-02 0.12493370E+03</pdfrwt>
<totfact> 0.76897620E+02</totfact>
</mgrwt>
</event>
<event>
 5    1  0.1422067E-002  0.1249977E+03  0.7818608E-02  0.1235073E+00
         -4   -1    0    0    0  501 -0.00000000000E+00  0.00000000000E+00  0.10409527939E+03  0.10410302633E+03  0.12700000000E+01 0. -1.
          4   -1    0    0  501    0  0.00000000000E+00 -0.00000000000E+00 -0.37504437091E+02  0.37525933720E+02  0.12700000000E+01 0. -1.
         25    2    1    2    0    0  0.00000000000E+00  0.00000000000E+00  0.66590842297E+02  0.14162896005E+03  0.12499768817E+03 0.  0.
    9000005    1    3    3    0    0 -0.16904715857E+02  0.17775762287E+02  0.98417451298E+02  0.10143343563E+03  0.10000000000E+01 0.  0.
    9000005    1    3    3    0    0  0.16904715857E+02 -0.17775762287E+02 -0.31826609001E+02  0.40195524422E+02  0.10000000000E+01 0.  0.
<mgrwt>
<rscale>  0 0.12499769E+03</rscale>
<asrwt>0</asrwt>
<pdfrwt beam="2">  1        4 0.93797648E-02 0.12499769E+03</pdfrwt>
<pdfrwt beam="1">  1       -4 0.26027475E-01 0.12499769E+03</pdfrwt>
<totfact> 0.18958337E+03</totfact>
</mgrwt>
</event>
<event>
 5    1  0.1422067E-002  0.1250370E+03  0.7818608E-02  0.1235012E+00
          4   -1    0    0  501    0  0.00000000000E+00  0.00000000000E+00  0.47728678301E+03  0.47728847267E+03  0.12700000000E+01 0.  1.
         -4   -1    0    0    0  501 -0.00000000000E+00 -0.00000000000E+00 -0.81381685669E+01  0.82366672643E+01  0.12700000000E+01 0.  1.
         25    2    1    2    0    0  0.00000000000E+00  0.00000000000E+00  0.46914861445E+03  0.48552513993E+03  0.12503695081E+03 0.  0.
    9000005    1    3    3    0    0  0.20435044202E+02 -0.10272974419E+02  0.46047440527E+03  0.46104316820E+03  0.10000000000E+01 0.  0.
    9000005    1    3    3    0    0 -0.20435044202E+02  0.10272974419E+02  0.86742091765E+01  0.24481971730E+02  0.10000000000E+01 0.  0.
<mgrwt>
<rscale>  0 0.12503695E+03</rscale>
<asrwt>0</asrwt>
<pdfrwt beam="1">  1        4 0.11933422E+00 0.12503695E+03</pdfrwt>
<pdfrwt beam="2">  1       -4 0.20470657E-02 0.12503695E+03</pdfrwt>
<totfact> 0.89878970E+02</totfact>
</mgrwt>
</event>
<event>
 5    1  0.1422067E-002  0.1250024E+03  0.7818608E-02  0.1235066E+00
         -4   -1    0    0    0  501 -0.00000000000E+00  0.00000000000E+00  0.16555313510E+03  0.16555800628E+03  0.12700000000E+01 0.  1.
          4   -1    0    0  501    0  0.00000000000E+00 -0.00000000000E+00 -0.23573730585E+02  0.23607915488E+02  0.12700000000E+01 0.  1.
         25    2    1    2    0    0  0.00000000000E+00  0.00000000000E+00  0.14197940452E+03  0.18916592176E+03  0.12500237858E+03 0.  0.
    9000005    1    3    3    0    0  0.46474295407E+02  0.41710117540E+02  0.74635660224E+02  0.97319452402E+02  0.10000000000E+01 0.  0.
    9000005    1    3    3    0    0 -0.46474295407E+02 -0.41710117540E+02  0.67343744294E+02  0.91846469362E+02  0.10000000000E+01 0.  0.
<mgrwt>
<rscale>  0 0.12500238E+03</rscale>
<asrwt>0</asrwt>
<pdfrwt beam="2">  1        4 0.58983146E-02 0.12500238E+03</pdfrwt>
<pdfrwt beam="1">  1       -4 0.41393166E-01 0.12500238E+03</pdfrwt>
<totfact> 0.16764325E+03</totfact>
</mgrwt>
</event>
<event>
 5    1  0.1422067E-002  0.1250021E+03  0.7818608E-02  0.1235066E+00
         -4   -1    0    0    0  501 -0.00000000000E+00  0.00000000000E+00  0.16717799373E+01  0.20994637789E+01  0.12700000000E+01 0.  1.
          4   -1    0    0  501    0  0.00000000000E+00 -0.00000000000E+00 -0.20712406245E+04  0.20712410139E+04  0.12700000000E+01 0.  1.
         25    2    1    2    0    0  0.00000000000E+00  0.00000000000E+00 -0.20695688446E+04  0.20733404777E+04  0.12500213524E+03 0.  0.
    9000005    1    3    3    0    0  0.31179568743E+02 -0.46685476003E+02 -0.14901371292E+04  0.14911946094E+04  0.10000000000E+01 0.  0.
    9000005    1    3    3    0    0 -0.31179568743E+02  0.46685476003E+02 -0.57943171541E+03  0.58214586832E+03  0.10000000000E+01 0.  0.
<mgrwt>
<rscale>  0 0.12500214E+03</rscale>
<asrwt>0</asrwt>
<pdfrwt beam="2">  1        4 0.51785585E+00 0.12500214E+03</pdfrwt>
<pdfrwt beam="1">  1       -4 0.47146125E-03 0.12500214E+03</pdfrwt>
<totfact> 0.19364752E+01</totfact>
</mgrwt>
</event>
<event>
 5    1  0.1422067E-002  0.1249931E+03  0.7818608E-02  0.1235080E+00
         -4   -1    0    0    0  501 -0.00000000000E+00  0.00000000000E+00  0.52846667917E+03  0.52846820518E+03  0.12700000000E+01 0. -1.
          4   -1    0    0  501    0  0.00000000000E+00 -0.00000000000E+00 -0.73347491627E+01  0.74438864365E+01  0.12700000000E+01 0. -1.
         25    2    1    2    0    0  0.00000000000E+00  0.00000000000E+00  0.52113193001E+03  0.53591209162E+03  0.12499312571E+03 0.  0.
    9000005    1    3    3    0    0  0.64479107133E+01 -0.37839094192E+01 -0.54313517928E+01  0.92947891507E+01  0.10000000000E+01 0.  0.
    9000005    1    3    3    0    0 -0.64479107133E+01  0.37839094192E+01  0.52656328180E+03  0.52661730247E+03  0.10000000000E+01 0.  0.
<mgrwt>
<rscale>  0 0.12499313E+03</rscale>
<asrwt>0</asrwt>
<pdfrwt beam="2">  1        4 0.18475203E-02 0.12499313E+03</pdfrwt>
<pdfrwt beam="1">  1       -4 0.13213049E+00 0.12499313E+03</pdfrwt>
<totfact> 0.82177430E+02</totfact>
</mgrwt>
</event>
<event>
 5    1  0.1422067E-002  0.1250012E+03  0.7818608E-02  0.1235067E+00
          4   -1    0    0  501    0  0.00000000000E+00  0.00000000000E+00  0.75423738829E+03  0.75423845752E+03  0.12700000000E+01 0.  1.
         -4   -1    0    0    0  501 -0.00000000000E+00 -0.00000000000E+00 -0.51002263601E+01  0.52559688854E+01  0.12700000000E+01 0.  1.
         25    2    1    2    0    0  0.00000000000E+00  0.00000000000E+00  0.74913716193E+03  0.75949442640E+03  0.12500118539E+03 0.  0.
    9000005    1    3    3    0    0  0.40741930162E+00  0.91921060076E+01  0.75012902347E+03  0.75018611868E+03  0.10000000000E+01 0.  0.
    9000005    1    3    3    0    0 -0.40741930162E+00 -0.91921060076E+01 -0.99186154104E+00  0.93083077226E+01  0.10000000000E+01 0.  0.
<mgrwt>
<rscale>  0 0.12500119E+03</rscale>
<asrwt>0</asrwt>
<pdfrwt beam="1">  1        4 0.18857900E+00 0.12500119E+03</pdfrwt>
<pdfrwt beam="2">  1       -4 0.12946577E-02 0.12500119E+03</pdfrwt>
<totfact> 0.56169410E+02</totfact>
</mgrwt>
</event>
<event>
 5    1  0.1422067E-002  0.1249988E+03  0.7818608E-02  0.1235071E+00
          4   -1    0    0  501    0  0.00000000000E+00  0.00000000000E+00  0.34032783202E+02  0.34056471228E+02  0.12700000000E+01 0. -1.
         -4   -1    0    0    0  501 -0.00000000000E+00 -0.00000000000E+00 -0.11470966420E+03  0.11471669434E+03  0.12700000000E+01 0. -1.
         25    2    1    2    0    0  0.00000000000E+00  0.00000000000E+00 -0.80676880997E+02  0.14877316557E+03  0.12499878266E+03 0.  0.
    9000005    1    3    3    0    0 -0.25213929159E+02 -0.41146680162E+02  0.69167599567E+01  0.48760979074E+02  0.10000000000E+01 0.  0.
    9000005    1    3    3    0    0  0.25213929159E+02  0.41146680162E+02 -0.87593640954E+02  0.10001218650E+03  0.10000000000E+01 0.  0.
<mgrwt>
<rscale>  0 0.12499878E+03</rscale>
<asrwt>0</asrwt>
<pdfrwt beam="1">  1        4 0.85120358E-02 0.12499878E+03</pdfrwt>
<pdfrwt beam="2">  1       -4 0.28681255E-01 0.12499878E+03</pdfrwt>
<totfact> 0.18599796E+03</totfact>
</mgrwt>
</event>
<event>
 5    1  0.1422067E-002  0.1249963E+03  0.7818608E-02  0.1235075E+00
         -4   -1    0    0    0  501 -0.00000000000E+00  0.00000000000E+00  0.28429765926E+03  0.28430049588E+03  0.12700000000E+01 0.  1.
          4   -1    0    0  501    0  0.00000000000E+00 -0.00000000000E+00 -0.13706924462E+02  0.13765633956E+02  0.12700000000E+01 0.  1.
         25    2    1    2    0    0  0.00000000000E+00  0.00000000000E+00  0.27059073480E+03  0.29806612984E+03  0.12499628795E+03 0.  0.
    9000005    1    3    3    0    0  0.50292934783E+02  0.12865046037E+02  0.21824823452E+03  0.22433943160E+03  0.10000000000E+01 0.  0.
    9000005    1    3    3    0    0 -0.50292934783E+02 -0.12865046037E+02  0.52342500280E+02  0.73726698246E+02  0.10000000000E+01 0.  0.
<mgrwt>
<rscale>  0 0.12499629E+03</rscale>
<asrwt>0</asrwt>
<pdfrwt beam="2">  1        4 0.34344244E-02 0.12499629E+03</pdfrwt>
<pdfrwt beam="1">  1       -4 0.71082108E-01 0.12499629E+03</pdfrwt>
<totfact> 0.13026538E+03</totfact>
</mgrwt>
</event>
<event>
 5    1  0.1422067E-002  0.1249988E+03  0.7818608E-02  0.1235071E+00
          4   -1    0    0  501    0  0.00000000000E+00  0.00000000000E+00  0.27383721839E+02  0.27413155998E+02  0.12700000000E+01 0.  1.
         -4   -1    0    0    0  501 -0.00000000000E+00 -0.00000000000E+00 -0.14253709935E+03  0.14254275706E+03  0.12700000000E+01 0.  1.
         25    2    1    2    0    0  0.00000000000E+00  0.00000000000E+00 -0.11515337751E+03  0.16995591306E+03  0.12499884812E+03 0.  0.
    9000005    1    3    3    0    0  0.44474049008E+02  0.51848542991E+01  0.16950342676E+01  0.44818488265E+02  0.10000000000E+01 0.  0.
    9000005    1    3    3    0    0 -0.44474049008E+02 -0.51848542991E+01 -0.11684841178E+03  0.12513742480E+03  0.10000000000E+01 0.  0.
<mgrwt>
<rscale>  0 0.12499885E+03</rscale>
<asrwt>0</asrwt>
<pdfrwt beam="1">  1        4 0.68503173E-02 0.12499885E+03</pdfrwt>
<pdfrwt beam="2">  1       -4 0.35638659E-01 0.12499885E+03</pdfrwt>
<totfact> 0.17599507E+03</totfact>
</mgrwt>
</event>
<event>
 5    1  0.1422067E-002  0.1250003E+03  0.7818608E-02  0.1235069E+00
         -4   -1    0    0    0  501 -0.00000000000E+00  0.00000000000E+00  0.43552077462E+03  0.43552262631E+03  0.12700000000E+01 0.  1.
          4   -1    0    0  501    0  0.00000000000E+00 -0.00000000000E+00 -0.89223582226E+01  0.90122902890E+01  0.12700000000E+01 0.  1.
         25    2    1    2    0    0  0.00000000000E+00  0.00000000000E+00  0.42659841640E+03  0.44453491660E+03  0.12500033280E+03 0.  0.
    9000005    1    3    3    0    0  0.55778760768E+02 -0.15729443659E+02  0.29644182004E+03  0.30205535622E+03  0.10000000000E+01 0.  0.
    9000005    1    3    3    0    0 -0.55778760768E+02  0.15729443659E+02  0.13015659636E+03  0.14247956038E+03  0.10000000000E+01 0.  0.
<mgrwt>
<rscale>  0 0.12500033E+03</rscale>
<asrwt>0</asrwt>
<pdfrwt beam="2">  1        4 0.22420626E-02 0.12500033E+03</pdfrwt>
<pdfrwt beam="1">  1       -4 0.10889166E+00 0.12500033E+03</pdfrwt>
<totfact> 0.97005778E+02</totfact>
</mgrwt>
</event>
<event>
 4    1  0.1422067E-002  0.1251532E+03  0.7818608E-02  0.1234830E+00
         -4   -1    0    0    0  501 -0.00000000000E+00  0.00000000000E+00  0.20435481473E+03  0.20435876102E+03  0.12700000000E+01 0.  1.
          4   -1    0    0  501    0  0.00000000000E+00 -0.00000000000E+00 -0.19136736704E+02  0.19178831865E+02  0.12700000000E+01 0.  1.
    9000005    1    1    2    0    0  0.18529885362E+02 -0.58417554563E+02  0.70096770612E+02  0.93115651653E+02  0.10000000000E+01 0.  0.
    9000005    1    1    2    0    0 -0.18529885362E+02  0.58417554563E+02  0.11512130742E+03  0.13042194123E+03  0.10000000000E+01 0.  0.
<mgrwt>
<rscale>  0 0.12515318E+03</rscale>
<asrwt>0</asrwt>
<pdfrwt beam="2">  1        4 0.47899393E-02 0.12515318E+03</pdfrwt>
<pdfrwt beam="1">  1       -4 0.51094459E-01 0.12515318E+03</pdfrwt>
<totfact> 0.15366648E+03</totfact>
</mgrwt>
</event>
<event>
 5    1  0.1422067E-002  0.1249945E+03  0.7818608E-02  0.1235078E+00
         -4   -1    0    0    0  501 -0.00000000000E+00  0.00000000000E+00  0.13558841021E+03  0.13559435786E+03  0.12700000000E+01 0. -1.
          4   -1    0    0  501    0  0.00000000000E+00 -0.00000000000E+00 -0.28786520886E+02  0.28814522115E+02  0.12700000000E+01 0. -1.
         25    2    1    2    0    0  0.00000000000E+00  0.00000000000E+00  0.10680188932E+03  0.16440887997E+03  0.12499454488E+03 0.  0.
    9000005    1    3    3    0    0 -0.13531345416E+02  0.30933512339E+02  0.12256433081E+03  0.12713376688E+03  0.10000000000E+01 0.  0.
    9000005    1    3    3    0    0  0.13531345416E+02 -0.30933512339E+02 -0.15762441487E+02  0.37275113092E+02  0.10000000000E+01 0.  0.
<mgrwt>
<rscale>  0 0.12499454E+03</rscale>
<asrwt>0</asrwt>
<pdfrwt beam="2">  1        4 0.72008739E-02 0.12499454E+03</pdfrwt>
<pdfrwt beam="1">  1       -4 0.33901346E-01 0.12499454E+03</pdfrwt>
<totfact> 0.17854481E+03</totfact>
</mgrwt>
</event>
<event>
 5    1  0.1422067E-002  0.1250034E+03  0.7818608E-02  0.1235064E+00
          4   -1    0    0  501    0  0.00000000000E+00  0.00000000000E+00  0.12453976795E+03  0.12454624322E+03  0.12700000000E+01 0. -1.
         -4   -1    0    0    0  501 -0.00000000000E+00 -0.00000000000E+00 -0.31347020414E+02  0.31372736394E+02  0.12700000000E+01 0. -1.
         25    2    1    2    0    0  0.00000000000E+00  0.00000000000E+00  0.93192747531E+02  0.15591897961E+03  0.12500336000E+03 0.  0.
    9000005    1    3    3    0    0 -0.14168013123E+02 -0.46138527509E+02  0.96112926292E+02  0.10755552481E+03  0.10000000000E+01 0.  0.
    9000005    1    3    3    0    0  0.14168013123E+02  0.46138527509E+02 -0.29201787601E+01  0.48363454804E+02  0.10000000000E+01 0.  0.
<mgrwt>
<rscale>  0 0.12500336E+03</rscale>
<asrwt>0</asrwt>
<pdfrwt beam="1">  1        4 0.31138966E-01 0.12500336E+03</pdfrwt>
<pdfrwt beam="2">  1       -4 0.78407791E-02 0.12500336E+03</pdfrwt>
<totfact> 0.18250095E+03</totfact>
</mgrwt>
</event>
<event>
 5    1  0.1422067E-002  0.1249974E+03  0.7818608E-02  0.1235073E+00
          4   -1    0    0  501    0  0.00000000000E+00  0.00000000000E+00  0.25651423781E+03  0.25651738167E+03  0.12700000000E+01 0.  1.
         -4   -1    0    0    0  501 -0.00000000000E+00 -0.00000000000E+00 -0.15197852685E+02  0.15250823789E+02  0.12700000000E+01 0.  1.
         25    2    1    2    0    0  0.00000000000E+00  0.00000000000E+00  0.24131638513E+03  0.27176820546E+03  0.12499743905E+03 0.  0.
    9000005    1    3    3    0    0  0.60550959165E+02  0.14472995311E+02  0.13240761233E+03  0.14631699167E+03  0.10000000000E+01 0.  0.
    9000005    1    3    3    0    0 -0.60550959165E+02 -0.14472995311E+02  0.10890877280E+03  0.12545121379E+03  0.10000000000E+01 0.  0.
<mgrwt>
<rscale>  0 0.12499744E+03</rscale>
<asrwt>0</asrwt>
<pdfrwt beam="1">  1        4 0.64135574E-01 0.12499744E+03</pdfrwt>
<pdfrwt beam="2">  1       -4 0.38064775E-02 0.12499744E+03</pdfrwt>
<totfact> 0.13801715E+03</totfact>
</mgrwt>
</event>
<event>
 5    1  0.1422067E-002  0.1250012E+03  0.7818608E-02  0.1235067E+00
         -4   -1    0    0    0  501 -0.00000000000E+00  0.00000000000E+00  0.51645807958E+02  0.51661420612E+02  0.12700000000E+01 0. -1.
          4   -1    0    0  501    0  0.00000000000E+00 -0.00000000000E+00 -0.75604390625E+02  0.75615056581E+02  0.12700000000E+01 0. -1.
         25    2    1    2    0    0  0.00000000000E+00  0.00000000000E+00 -0.23958582667E+02  0.12727647719E+03  0.12500115185E+03 0.  0.
    9000005    1    3    3    0    0 -0.49388864073E+02  0.21780009103E+02 -0.44043669419E+02  0.69674051890E+02  0.10000000000E+01 0.  0.
    9000005    1    3    3    0    0  0.49388864073E+02 -0.21780009103E+02  0.20085086751E+02  0.57602425303E+02  0.10000000000E+01 0.  0.
<mgrwt>
<rscale>  0 0.12500115E+03</rscale>
<asrwt>0</asrwt>
<pdfrwt beam="2">  1        4 0.18904382E-01 0.12500115E+03</pdfrwt>
<pdfrwt beam="1">  1       -4 0.12914737E-01 0.12500115E+03</pdfrwt>
<totfact> 0.19711467E+03</totfact>
</mgrwt>
</event>
<event>
 5    1  0.1422067E-002  0.1250273E+03  0.7818608E-02  0.1235027E+00
         -4   -1    0    0    0  501 -0.00000000000E+00  0.00000000000E+00  0.21453474706E+02  0.21491032478E+02  0.12700000000E+01 0.  1.
          4   -1    0    0  501    0  0.00000000000E+00 -0.00000000000E+00 -0.18196038447E+03  0.18196481643E+03  0.12700000000E+01 0.  1.
         25    2    1    2    0    0  0.00000000000E+00  0.00000000000E+00 -0.16050690977E+03  0.20345584890E+03  0.12502725451E+03 0.  0.
    9000005    1    3    3    0    0 -0.39563576298E+02  0.30316858051E+02 -0.14162987672E+03  0.15014796179E+03  0.10000000000E+01 0.  0.
    9000005    1    3    3    0    0  0.39563576298E+02 -0.30316858051E+02 -0.18877033049E+02  0.53307887112E+02  0.10000000000E+01 0.  0.
<mgrwt>
<rscale>  0 0.12502725E+03</rscale>
<asrwt>0</asrwt>
<pdfrwt beam="2">  1        4 0.45495340E-01 0.12502725E+03</pdfrwt>
<pdfrwt beam="1">  1       -4 0.53686179E-02 0.12502725E+03</pdfrwt>
<totfact> 0.16174402E+03</totfact>
</mgrwt>
</event>
<event>
 5    1  0.1422067E-002  0.1250062E+03  0.7818608E-02  0.1235060E+00
         -4   -1    0    0    0  501 -0.00000000000E+00  0.00000000000E+00  0.64640359316E+02  0.64652834064E+02  0.12700000000E+01 0. -1.
          4   -1    0    0  501    0  0.00000000000E+00 -0.00000000000E+00 -0.60411522608E+02  0.60424870408E+02  0.12700000000E+01 0. -1.
         25    2    1    2    0    0  0.00000000000E+00  0.00000000000E+00  0.42288367081E+01  0.12507770447E+03  0.12500619623E+03 0.  0.
    9000005    1    3    3    0    0 -0.27681787964E+02  0.55668574522E+02  0.84714533806E+01  0.62753781533E+02  0.10000000000E+01 0.  0.
    9000005    1    3    3    0    0  0.27681787964E+02 -0.55668574522E+02 -0.42426166725E+01  0.62323922939E+02  0.10000000000E+01 0.  0.
<mgrwt>
<rscale>  0 0.12500620E+03</rscale>
<asrwt>0</asrwt>
<pdfrwt beam="2">  1        4 0.15106109E-01 0.12500620E+03</pdfrwt>
<pdfrwt beam="1">  1       -4 0.16163318E-01 0.12500620E+03</pdfrwt>
<totfact> 0.19827967E+03</totfact>
</mgrwt>
</event>
<event>
 5    1  0.1422067E-002  0.1249850E+03  0.7818608E-02  0.1235093E+00
         -4   -1    0    0    0  501 -0.00000000000E+00  0.00000000000E+00  0.27011656550E+03  0.27011955105E+03  0.12700000000E+01 0. -1.
          4   -1    0    0  501    0  0.00000000000E+00 -0.00000000000E+00 -0.14426916668E+02  0.14482707777E+02  0.12700000000E+01 0. -1.
         25    2    1    2    0    0  0.00000000000E+00  0.00000000000E+00  0.25568964884E+03  0.28460225883E+03  0.12498499593E+03 0.  0.
    9000005    1    3    3    0    0  0.31777805470E+02  0.53124666531E+02  0.10848912062E+03  0.12491176249E+03  0.10000000000E+01 0.  0.
    9000005    1    3    3    0    0 -0.31777805470E+02 -0.53124666531E+02  0.14720052821E+03  0.15969049634E+03  0.10000000000E+01 0.  0.
<mgrwt>
<rscale>  0 0.12498500E+03</rscale>
<asrwt>0</asrwt>
<pdfrwt beam="2">  1        4 0.36140765E-02 0.12498500E+03</pdfrwt>
<pdfrwt beam="1">  1       -4 0.67536485E-01 0.12498500E+03</pdfrwt>
<totfact> 0.13418468E+03</totfact>
</mgrwt>
</event>
<event>
 5    1  0.1422067E-002  0.1249792E+03  0.7818608E-02  0.1235102E+00
         -4   -1    0    0    0  501 -0.00000000000E+00  0.00000000000E+00  0.12682402912E+02  0.12745832402E+02  0.12700000000E+01 0. -1.
          4   -1    0    0  501    0  0.00000000000E+00 -0.00000000000E+00 -0.30707006402E+03  0.30707269028E+03  0.12700000000E+01 0. -1.
         25    2    1    2    0    0  0.00000000000E+00  0.00000000000E+00 -0.29438766111E+03  0.31981852268E+03  0.12497916802E+03 0.  0.
    9000005    1    3    3    0    0 -0.97143587275E+01 -0.14809665055E+02  0.61366583496E+01  0.18771082020E+02  0.10000000000E+01 0.  0.
    9000005    1    3    3    0    0  0.97143587275E+01  0.14809665055E+02 -0.30052431946E+03  0.30104744066E+03  0.10000000000E+01 0.  0.
<mgrwt>
<rscale>  0 0.12497917E+03</rscale>
<asrwt>0</asrwt>
<pdfrwt beam="2">  1        4 0.76775749E-01 0.12497917E+03</pdfrwt>
<pdfrwt beam="1">  1       -4 0.31788587E-02 0.12497917E+03</pdfrwt>
<totfact> 0.12439166E+03</totfact>
</mgrwt>
</event>
<event>
 5    1  0.1422067E-002  0.1249964E+03  0.7818608E-02  0.1235075E+00
          4   -1    0    0  501    0  0.00000000000E+00  0.00000000000E+00  0.43292889898E+02  0.43311513663E+02  0.12700000000E+01 0. -1.
         -4   -1    0    0    0  501 -0.00000000000E+00 -0.00000000000E+00 -0.90180740594E+02  0.90189682747E+02  0.12700000000E+01 0. -1.
         25    2    1    2    0    0  0.00000000000E+00  0.00000000000E+00 -0.46887850695E+02  0.13350119641E+03  0.12499639555E+03 0.  0.
    9000005    1    3    3    0    0  0.35951752732E+02 -0.41333038479E+02 -0.55557612312E+02  0.78029461617E+02  0.10000000000E+01 0.  0.
    9000005    1    3    3    0    0 -0.35951752732E+02  0.41333038479E+02  0.86697616167E+01  0.55471734793E+02  0.10000000000E+01 0.  0.
<mgrwt>
<rscale>  0 0.12499640E+03</rscale>
<asrwt>0</asrwt>
<pdfrwt beam="1">  1        4 0.10826668E-01 0.12499640E+03</pdfrwt>
<pdfrwt beam="2">  1       -4 0.22548631E-01 0.12499640E+03</pdfrwt>
<totfact> 0.19379563E+03</totfact>
</mgrwt>
</event>
<event>
 5    1  0.1422067E-002  0.1249986E+03  0.7818608E-02  0.1235071E+00
         -4   -1    0    0    0  501 -0.00000000000E+00  0.00000000000E+00  0.23259452450E+02  0.23294098572E+02  0.12700000000E+01 0. -1.
          4   -1    0    0  501    0  0.00000000000E+00 -0.00000000000E+00 -0.16777674919E+03  0.16778155580E+03  0.12700000000E+01 0. -1.
         25    2    1    2    0    0  0.00000000000E+00  0.00000000000E+00 -0.14451729674E+03  0.19107565438E+03  0.12499862655E+03 0.  0.
    9000005    1    3    3    0    0 -0.16034822850E+02  0.55825052373E+02 -0.10750365210E+03  0.12219487400E+03  0.10000000000E+01 0.  0.
    9000005    1    3    3    0    0  0.16034822850E+02 -0.55825052373E+02 -0.37013644638E+02  0.68880780379E+02  0.10000000000E+01 0.  0.
<mgrwt>
<rscale>  0 0.12499863E+03</rscale>
<asrwt>0</asrwt>
<pdfrwt beam="2">  1        4 0.41949115E-01 0.12499863E+03</pdfrwt>
<pdfrwt beam="1">  1       -4 0.58197952E-02 0.12499863E+03</pdfrwt>
<totfact> 0.16686266E+03</totfact>
</mgrwt>
</event>
<event>
 5    1  0.1422067E-002  0.1250059E+03  0.7818608E-02  0.1235060E+00
         -4   -1    0    0    0  501 -0.00000000000E+00  0.00000000000E+00  0.79077175423E+02  0.79087373031E+02  0.12700000000E+01 0. -1.
          4   -1    0    0  501    0  0.00000000000E+00 -0.00000000000E+00 -0.49381053261E+02  0.49397381724E+02  0.12700000000E+01 0. -1.
         25    2    1    2    0    0  0.00000000000E+00  0.00000000000E+00  0.29696122162E+02  0.12848475475E+03  0.12500588999E+03 0.  0.
    9000005    1    3    3    0    0 -0.44195452518E+02 -0.44413605204E+01  0.60033470981E+02  0.74685884507E+02  0.10000000000E+01 0.  0.
    9000005    1    3    3    0    0  0.44195452518E+02  0.44413605204E+01 -0.30337348819E+02  0.53798870247E+02  0.10000000000E+01 0.  0.
<mgrwt>
<rscale>  0 0.12500589E+03</rscale>
<asrwt>0</asrwt>
<pdfrwt beam="2">  1        4 0.12348579E-01 0.12500589E+03</pdfrwt>
<pdfrwt beam="1">  1       -4 0.19772609E-01 0.12500589E+03</pdfrwt>
<totfact> 0.19643499E+03</totfact>
</mgrwt>
</event>
<event>
 5    1  0.1422067E-002  0.1249999E+03  0.7818608E-02  0.1235069E+00
          4   -1    0    0  501    0  0.00000000000E+00  0.00000000000E+00  0.35151383323E+03  0.35151612744E+03  0.12700000000E+01 0. -1.
         -4   -1    0    0    0  501 -0.00000000000E+00 -0.00000000000E+00 -0.11074013289E+02  0.11146599047E+02  0.12700000000E+01 0. -1.
         25    2    1    2    0    0  0.00000000000E+00  0.00000000000E+00  0.34043981994E+03  0.36266272649E+03  0.12499992873E+03 0.  0.
    9000005    1    3    3    0    0 -0.12673643367E+02 -0.52086885594E+02  0.77035179739E+02  0.93856719549E+02  0.10000000000E+01 0.  0.
    9000005    1    3    3    0    0  0.12673643367E+02  0.52086885594E+02  0.26340464020E+03  0.26880600694E+03  0.10000000000E+01 0.  0.
<mgrwt>
<rscale>  0 0.12499993E+03</rscale>
<asrwt>0</asrwt>
<pdfrwt beam="1">  1        4 0.87887817E-01 0.12499993E+03</pdfrwt>
<pdfrwt beam="2">  1       -4 0.27778634E-02 0.12499993E+03</pdfrwt>
<totfact> 0.11381048E+03</totfact>
</mgrwt>
</event>
<event>
 5    1  0.1422067E-002  0.1249899E+03  0.7818608E-02  0.1235085E+00
          4   -1    0    0  501    0  0.00000000000E+00  0.00000000000E+00  0.47514119492E+02  0.47531089311E+02  0.12700000000E+01 0.  1.
         -4   -1    0    0    0  501 -0.00000000000E+00 -0.00000000000E+00 -0.82162537482E+02  0.82172352196E+02  0.12700000000E+01 0.  1.
         25    2    1    2    0    0  0.00000000000E+00  0.00000000000E+00 -0.34648417990E+02  0.12970344151E+03  0.12498987907E+03 0.  0.
    9000005    1    3    3    0    0  0.41523810402E+02  0.20514113725E+02  0.26204813159E+02  0.53223565504E+02  0.10000000000E+01 0.  0.
    9000005    1    3    3    0    0 -0.41523810402E+02 -0.20514113725E+02 -0.60853231149E+02  0.76479876004E+02  0.10000000000E+01 0.  0.
<mgrwt>
<rscale>  0 0.12498988E+03</rscale>
<asrwt>0</asrwt>
<pdfrwt beam="1">  1        4 0.11881878E-01 0.12498988E+03</pdfrwt>
<pdfrwt beam="2">  1       -4 0.20543982E-01 0.12498988E+03</pdfrwt>
<totfact> 0.19584965E+03</totfact>
</mgrwt>
</event>
<event>
 5    1  0.1422067E-002  0.1249944E+03  0.7818608E-02  0.1235078E+00
          4   -1    0    0  501    0  0.00000000000E+00  0.00000000000E+00  0.50279218169E+03  0.50279378563E+03  0.12700000000E+01 0. -1.
         -4   -1    0    0    0  501 -0.00000000000E+00 -0.00000000000E+00 -0.77148807780E+01  0.78187137957E+01  0.12700000000E+01 0. -1.
         25    2    1    2    0    0  0.00000000000E+00  0.00000000000E+00  0.49507730092E+03  0.51061249943E+03  0.12499436264E+03 0.  0.
    9000005    1    3    3    0    0  0.99372330331E+01  0.39685704965E+02  0.54577592398E+02  0.68215961261E+02  0.10000000000E+01 0.  0.
    9000005    1    3    3    0    0 -0.99372330331E+01 -0.39685704965E+02  0.44049970852E+03  0.44239653817E+03  0.10000000000E+01 0.  0.
<mgrwt>
<rscale>  0 0.12499436E+03</rscale>
<asrwt>0</asrwt>
<pdfrwt beam="1">  1        4 0.12571121E+00 0.12499436E+03</pdfrwt>
<pdfrwt beam="2">  1       -4 0.19419000E-02 0.12499436E+03</pdfrwt>
<totfact> 0.85954255E+02</totfact>
</mgrwt>
</event>
<event>
 5    1  0.1422067E-002  0.1249992E+03  0.7818608E-02  0.1235071E+00
          4   -1    0    0  501    0  0.00000000000E+00  0.00000000000E+00  0.73477339601E+02  0.73488314274E+02  0.12700000000E+01 0. -1.
         -4   -1    0    0    0  501 -0.00000000000E+00 -0.00000000000E+00 -0.53139429455E+02  0.53154603402E+02  0.12700000000E+01 0. -1.
         25    2    1    2    0    0  0.00000000000E+00  0.00000000000E+00  0.20337910147E+02  0.12664291768E+03  0.12499919203E+03 0.  0.
    9000005    1    3    3    0    0  0.32764655804E+02 -0.10908825261E+01 -0.43732969153E+02  0.54665210926E+02  0.10000000000E+01 0.  0.
    9000005    1    3    3    0    0 -0.32764655804E+02  0.10908825261E+01  0.64070879300E+02  0.71977706750E+02  0.10000000000E+01 0.  0.
<mgrwt>
<rscale>  0 0.12499919E+03</rscale>
<asrwt>0</asrwt>
<pdfrwt beam="1">  1        4 0.18372603E-01 0.12499919E+03</pdfrwt>
<pdfrwt beam="2">  1       -4 0.13288126E-01 0.12499919E+03</pdfrwt>
<totfact> 0.19746591E+03</totfact>
</mgrwt>
</event>
<event>
 5    1  0.1422067E-002  0.1249996E+03  0.7818608E-02  0.1235070E+00
         -4   -1    0    0    0  501 -0.00000000000E+00  0.00000000000E+00  0.39320684661E+03  0.39320889757E+03  0.12700000000E+01 0.  1.
          4   -1    0    0  501    0  0.00000000000E+00 -0.00000000000E+00 -0.98915963158E+01  0.99727918696E+01  0.12700000000E+01 0.  1.
         25    2    1    2    0    0  0.00000000000E+00  0.00000000000E+00  0.38331525030E+03  0.40318168944E+03  0.12499957434E+03 0.  0.
    9000005    1    3    3    0    0 -0.24400379372E+02 -0.21555605912E+01  0.62229124081E+01  0.25293271710E+02  0.10000000000E+01 0.  0.
    9000005    1    3    3    0    0  0.24400379372E+02  0.21555605912E+01  0.37709233789E+03  0.37788841773E+03  0.10000000000E+01 0.  0.
<mgrwt>
<rscale>  0 0.12499957E+03</rscale>
<asrwt>0</asrwt>
<pdfrwt beam="2">  1        4 0.24833049E-02 0.12499957E+03</pdfrwt>
<pdfrwt beam="1">  1       -4 0.98312118E-01 0.12499957E+03</pdfrwt>
<totfact> 0.10504056E+03</totfact>
</mgrwt>
</event>
<event>
 5    1  0.1422067E-002  0.1249983E+03  0.7818608E-02  0.1235072E+00
         -4   -1    0    0    0  501 -0.00000000000E+00  0.00000000000E+00  0.10044423452E+03  0.10045226303E+03  0.12700000000E+01 0. -1.
          4   -1    0    0  501    0  0.00000000000E+00 -0.00000000000E+00 -0.38868750695E+02  0.38889493190E+02  0.12700000000E+01 0. -1.
         25    2    1    2    0    0  0.00000000000E+00  0.00000000000E+00  0.61575483822E+02  0.13934175622E+03  0.12499833926E+03 0.  0.
    9000005    1    3    3    0    0  0.61146367427E+02 -0.35956262614E+01  0.16983773564E+02  0.63570868661E+02  0.10000000000E+01 0.  0.
    9000005    1    3    3    0    0 -0.61146367427E+02  0.35956262614E+01  0.44591710257E+02  0.75770887559E+02  0.10000000000E+01 0.  0.
<mgrwt>
<rscale>  0 0.12499834E+03</rscale>
<asrwt>0</asrwt>
<pdfrwt beam="2">  1        4 0.97207841E-02 0.12499834E+03</pdfrwt>
<pdfrwt beam="1">  1       -4 0.25114655E-01 0.12499834E+03</pdfrwt>
<totfact> 0.19074806E+03</totfact>
</mgrwt>
</event>
<event>
 5    1  0.1422067E-002  0.1250018E+03  0.7818608E-02  0.1235066E+00
         -4   -1    0    0    0  501 -0.00000000000E+00  0.00000000000E+00  0.11706209717E+02  0.11774898978E+02  0.12700000000E+01 0.  1.
          4   -1    0    0  501    0  0.00000000000E+00 -0.00000000000E+00 -0.33265395821E+03  0.33265638249E+03  0.12700000000E+01 0.  1.
         25    2    1    2    0    0  0.00000000000E+00  0.00000000000E+00 -0.32094774849E+03  0.34443128147E+03  0.12500180156E+03 0.  0.
    9000005    1    3    3    0    0  0.28716022728E+02  0.46966127216E+02 -0.24197701449E+03  0.24816184761E+03  0.10000000000E+01 0.  0.
    9000005    1    3    3    0    0 -0.28716022728E+02 -0.46966127216E+02 -0.78970733997E+02  0.96269433856E+02  0.10000000000E+01 0.  0.
<mgrwt>
<rscale>  0 0.12500180E+03</rscale>
<asrwt>0</asrwt>
<pdfrwt beam="2">  1        4 0.83172348E-01 0.12500180E+03</pdfrwt>
<pdfrwt beam="1">  1       -4 0.29354427E-02 0.12500180E+03</pdfrwt>
<totfact> 0.11810774E+03</totfact>
</mgrwt>
</event>
<event>
 5    1  0.1422067E-002  0.1249952E+03  0.7818608E-02  0.1235077E+00
          4   -1    0    0  501    0  0.00000000000E+00  0.00000000000E+00  0.38666789049E+02  0.38687639827E+02  0.12700000000E+01 0.  1.
         -4   -1    0    0    0  501 -0.00000000000E+00 -0.00000000000E+00 -0.10096352954E+03  0.10097151676E+03  0.12700000000E+01 0.  1.
         25    2    1    2    0    0  0.00000000000E+00  0.00000000000E+00 -0.62296740491E+02  0.13965915659E+03  0.12499518448E+03 0.  0.
    9000005    1    3    3    0    0  0.16432138507E+02  0.33949719903E+02  0.24519893188E+02  0.44998042394E+02  0.10000000000E+01 0.  0.
    9000005    1    3    3    0    0 -0.16432138507E+02 -0.33949719903E+02 -0.86816633679E+02  0.94661114195E+02  0.10000000000E+01 0.  0.
<mgrwt>
<rscale>  0 0.12499518E+03</rscale>
<asrwt>0</asrwt>
<pdfrwt beam="1">  1        4 0.96703022E-02 0.12499518E+03</pdfrwt>
<pdfrwt beam="2">  1       -4 0.25244487E-01 0.12499518E+03</pdfrwt>
<totfact> 0.19059933E+03</totfact>
</mgrwt>
</event>
<event>
 5    1  0.1422067E-002  0.1250143E+03  0.7818608E-02  0.1235047E+00
         -4   -1    0    0    0  501 -0.00000000000E+00  0.00000000000E+00  0.79824526645E+02  0.79834628790E+02  0.12700000000E+01 0. -1.
          4   -1    0    0  501    0  0.00000000000E+00 -0.00000000000E+00 -0.48925230887E+02  0.48941711426E+02  0.12700000000E+01 0. -1.
         25    2    1    2    0    0  0.00000000000E+00  0.00000000000E+00  0.30899295758E+02  0.12877634022E+03  0.12501431646E+03 0.  0.
    9000005    1    3    3    0    0  0.34094449927E+02 -0.27823239294E+02 -0.30265824783E+02  0.53418950855E+02  0.10000000000E+01 0.  0.
    9000005    1    3    3    0    0 -0.34094449927E+02  0.27823239294E+02  0.61165120541E+02  0.75357389362E+02  0.10000000000E+01 0.  0.
<mgrwt>
<rscale>  0 0.12501432E+03</rscale>
<asrwt>0</asrwt>
<pdfrwt beam="2">  1        4 0.12234631E-01 0.12501432E+03</pdfrwt>
<pdfrwt beam="1">  1       -4 0.19959454E-01 0.12501432E+03</pdfrwt>
<totfact> 0.19623839E+03</totfact>
</mgrwt>
</event>
<event>
 5    1  0.1422067E-002  0.1249967E+03  0.7818608E-02  0.1235074E+00
         -4   -1    0    0    0  501 -0.00000000000E+00  0.00000000000E+00  0.19229092944E+02  0.19270986364E+02  0.12700000000E+01 0. -1.
          4   -1    0    0  501    0  0.00000000000E+00 -0.00000000000E+00 -0.20286700778E+03  0.20287098301E+03  0.12700000000E+01 0. -1.
         25    2    1    2    0    0  0.00000000000E+00  0.00000000000E+00 -0.18363791484E+03  0.22214196937E+03  0.12499668312E+03 0.  0.
    9000005    1    3    3    0    0 -0.57731191144E+02  0.23595781107E+02 -0.98791174776E+02  0.11683470174E+03  0.10000000000E+01 0.  0.
    9000005    1    3    3    0    0  0.57731191144E+02 -0.23595781107E+02 -0.84846740060E+02  0.10530726763E+03  0.10000000000E+01 0.  0.
<mgrwt>
<rscale>  0 0.12499668E+03</rscale>
<asrwt>0</asrwt>
<pdfrwt beam="2">  1        4 0.50722479E-01 0.12499668E+03</pdfrwt>
<pdfrwt beam="1">  1       -4 0.48130074E-02 0.12499668E+03</pdfrwt>
<totfact> 0.15473406E+03</totfact>
</mgrwt>
</event>
<event>
 5    1  0.1422067E-002  0.1250098E+03  0.7818608E-02  0.1235054E+00
         -4   -1    0    0    0  501 -0.00000000000E+00  0.00000000000E+00  0.23049177439E+03  0.23049527319E+03  0.12700000000E+01 0.  1.
          4   -1    0    0  501    0  0.00000000000E+00 -0.00000000000E+00 -0.16922683974E+02  0.16970272034E+02  0.12700000000E+01 0.  1.
         25    2    1    2    0    0  0.00000000000E+00  0.00000000000E+00  0.21356909042E+03  0.24746554522E+03  0.12500975838E+03 0.  0.
    9000005    1    3    3    0    0 -0.35536491615E+02 -0.78065342153E+01  0.20737466161E+03  0.21054461402E+03  0.10000000000E+01 0.  0.
    9000005    1    3    3    0    0  0.35536491615E+02  0.78065342153E+01  0.61944288040E+01  0.36920931204E+02  0.10000000000E+01 0.  0.
<mgrwt>
<rscale>  0 0.12500976E+03</rscale>
<asrwt>0</asrwt>
<pdfrwt beam="2">  1        4 0.42370569E-02 0.12500976E+03</pdfrwt>
<pdfrwt beam="1">  1       -4 0.57629329E-01 0.12500976E+03</pdfrwt>
<totfact> 0.14579397E+03</totfact>
</mgrwt>
</event>
<event>
 5    1  0.1422067E-002  0.1249811E+03  0.7818608E-02  0.1235099E+00
         -4   -1    0    0    0  501 -0.00000000000E+00  0.00000000000E+00  0.46987104183E+02  0.47004264269E+02  0.12700000000E+01 0.  1.
          4   -1    0    0  501    0  0.00000000000E+00 -0.00000000000E+00 -0.83072134331E+02  0.83081841591E+02  0.12700000000E+01 0.  1.
         25    2    1    2    0    0  0.00000000000E+00  0.00000000000E+00 -0.36085030148E+02  0.13008610586E+03  0.12498106071E+03 0.  0.
    9000005    1    3    3    0    0 -0.82245981130E+01 -0.61771884343E+02 -0.13311907589E+02  0.63730813529E+02  0.10000000000E+01 0.  0.
    9000005    1    3    3    0    0  0.82245981130E+01  0.61771884343E+02 -0.22773122559E+02  0.66355292332E+02  0.10000000000E+01 0.  0.
<mgrwt>
<rscale>  0 0.12498106E+03</rscale>
<asrwt>0</asrwt>
<pdfrwt beam="2">  1        4 0.20771392E-01 0.12498106E+03</pdfrwt>
<pdfrwt beam="1">  1       -4 0.11750135E-01 0.12498106E+03</pdfrwt>
<totfact> 0.19568404E+03</totfact>
</mgrwt>
</event>
<event>
 5    1  0.1422067E-002  0.1249992E+03  0.7818608E-02  0.1235070E+00
          4   -1    0    0  501    0  0.00000000000E+00  0.00000000000E+00  0.77920418751E+03  0.77920522248E+03  0.12700000000E+01 0. -1.
         -4   -1    0    0    0  501 -0.00000000000E+00 -0.00000000000E+00 -0.49315766175E+01  0.50924795468E+01  0.12700000000E+01 0. -1.
         25    2    1    2    0    0  0.00000000000E+00  0.00000000000E+00  0.77427261090E+03  0.78429770203E+03  0.12499923767E+03 0.  0.
    9000005    1    3    3    0    0  0.62135893015E+02 -0.46671250050E+01  0.35734034247E+03  0.36273374755E+03  0.10000000000E+01 0.  0.
    9000005    1    3    3    0    0 -0.62135893015E+02  0.46671250050E+01  0.41693226843E+03  0.42156395448E+03  0.10000000000E+01 0.  0.
<mgrwt>
<rscale>  0 0.12499924E+03</rscale>
<asrwt>0</asrwt>
<pdfrwt beam="1">  1        4 0.19482131E+00 0.12499924E+03</pdfrwt>
<pdfrwt beam="2">  1       -4 0.12531363E-02 0.12499924E+03</pdfrwt>
<totfact> 0.53883967E+02</totfact>
</mgrwt>
</event>
<event>
 5    1  0.1422067E-002  0.1250003E+03  0.7818608E-02  0.1235069E+00
          4   -1    0    0  501    0  0.00000000000E+00  0.00000000000E+00  0.57696045772E+02  0.57710021640E+02  0.12700000000E+01 0. -1.
         -4   -1    0    0    0  501 -0.00000000000E+00 -0.00000000000E+00 -0.67676089391E+02  0.67688004663E+02  0.12700000000E+01 0. -1.
         25    2    1    2    0    0  0.00000000000E+00  0.00000000000E+00 -0.99800436188E+01  0.12539802630E+03  0.12500025492E+03 0.  0.
    9000005    1    3    3    0    0  0.33105472221E+02  0.33266882961E+02 -0.46383998897E+02  0.65993432602E+02  0.10000000000E+01 0.  0.
    9000005    1    3    3    0    0 -0.33105472221E+02 -0.33266882961E+02  0.36403955278E+02  0.59404593701E+02  0.10000000000E+01 0.  0.
<mgrwt>
<rscale>  0 0.12500025E+03</rscale>
<asrwt>0</asrwt>
<pdfrwt beam="1">  1        4 0.14427248E-01 0.12500025E+03</pdfrwt>
<pdfrwt beam="2">  1       -4 0.16922259E-01 0.12500025E+03</pdfrwt>
<totfact> 0.19813367E+03</totfact>
</mgrwt>
</event>
<event>
 5    1  0.1422067E-002  0.1250081E+03  0.7818608E-02  0.1235057E+00
         -4   -1    0    0    0  501 -0.00000000000E+00  0.00000000000E+00  0.41190555244E+03  0.41190751029E+03  0.12700000000E+01 0.  1.
          4   -1    0    0  501    0  0.00000000000E+00 -0.00000000000E+00 -0.94400911295E+01  0.95251362475E+01  0.12700000000E+01 0.  1.
         25    2    1    2    0    0  0.00000000000E+00  0.00000000000E+00  0.40246546131E+03  0.42143264654E+03  0.12500811181E+03 0.  0.
    9000005    1    3    3    0    0  0.15091912482E+02  0.26839920092E+02  0.17891381189E+02  0.35626516161E+02  0.10000000000E+01 0.  0.
    9000005    1    3    3    0    0 -0.15091912482E+02 -0.26839920092E+02  0.38457408012E+03  0.38580613038E+03  0.10000000000E+01 0.  0.
<mgrwt>
<rscale>  0 0.12500811E+03</rscale>
<asrwt>0</asrwt>
<pdfrwt beam="2">  1        4 0.23708983E-02 0.12500811E+03</pdfrwt>
<pdfrwt beam="1">  1       -4 0.10298726E+00 0.12500811E+03</pdfrwt>
<totfact> 0.10136102E+03</totfact>
</mgrwt>
</event>
<event>
 5    1  0.1422067E-002  0.1249959E+03  0.7818608E-02  0.1235076E+00
          4   -1    0    0  501    0  0.00000000000E+00  0.00000000000E+00  0.66819465621E+02  0.66831533619E+02  0.12700000000E+01 0.  1.
         -4   -1    0    0    0  501 -0.00000000000E+00 -0.00000000000E+00 -0.58431688088E+02  0.58445488045E+02  0.12700000000E+01 0.  1.
         25    2    1    2    0    0  0.00000000000E+00  0.00000000000E+00  0.83877775327E+01  0.12527702166E+03  0.12499590931E+03 0.  0.
    9000005    1    3    3    0    0  0.61240506444E+02 -0.85993298206E+01 -0.48066325292E+01  0.62035891379E+02  0.10000000000E+01 0.  0.
    9000005    1    3    3    0    0 -0.61240506444E+02  0.85993298206E+01  0.13194410062E+02  0.63241130285E+02  0.10000000000E+01 0.  0.
<mgrwt>
<rscale>  0 0.12499591E+03</rscale>
<asrwt>0</asrwt>
<pdfrwt beam="1">  1        4 0.16708100E-01 0.12499591E+03</pdfrwt>
<pdfrwt beam="2">  1       -4 0.14611156E-01 0.12499591E+03</pdfrwt>
<totfact> 0.19821936E+03</totfact>
</mgrwt>
</event>
<event>
 5    1  0.1422067E-002  0.1249988E+03  0.7818608E-02  0.1235071E+00
          4   -1    0    0  501    0  0.00000000000E+00  0.00000000000E+00  0.17289058028E+02  0.17335640383E+02  0.12700000000E+01 0. -1.
         -4   -1    0    0    0  501 -0.00000000000E+00 -0.00000000000E+00 -0.22558087901E+03  0.22558445397E+03  0.12700000000E+01 0. -1.
         25    2    1    2    0    0  0.00000000000E+00  0.00000000000E+00 -0.20829182098E+03  0.24292009435E+03  0.12499875821E+03 0.  0.
    9000005    1    3    3    0    0 -0.41212039908E+02  0.46560719060E+02 -0.92034489699E+02  0.11107511011E+03  0.10000000000E+01 0.  0.
    9000005    1    3    3    0    0  0.41212039908E+02 -0.46560719060E+02 -0.11625733128E+03  0.13184498424E+03  0.10000000000E+01 0.  0.
<mgrwt>
<rscale>  0 0.12499876E+03</rscale>
<asrwt>0</asrwt>
<pdfrwt beam="1">  1        4 0.43285349E-02 0.12499876E+03</pdfrwt>
<pdfrwt beam="2">  1       -4 0.56401480E-01 0.12499876E+03</pdfrwt>
<totfact> 0.14736800E+03</totfact>
</mgrwt>
</event>
<event>
 5    1  0.1422067E-002  0.1250001E+03  0.7818608E-02  0.1235069E+00
          4   -1    0    0  501    0  0.00000000000E+00  0.00000000000E+00  0.14166540929E+02  0.14223353398E+02  0.12700000000E+01 0. -1.
         -4   -1    0    0    0  501 -0.00000000000E+00 -0.00000000000E+00 -0.27512832533E+03  0.27513125649E+03  0.12700000000E+01 0. -1.
         25    2    1    2    0    0  0.00000000000E+00  0.00000000000E+00 -0.26096178440E+03  0.28935460989E+03  0.12500014939E+03 0.  0.
    9000005    1    3    3    0    0 -0.37721614377E+02 -0.21935936698E+02 -0.26928506091E+02  0.51285962507E+02  0.10000000000E+01 0.  0.
    9000005    1    3    3    0    0  0.37721614377E+02  0.21935936698E+02 -0.23403327831E+03  0.23806864738E+03  0.10000000000E+01 0.  0.
<mgrwt>
<rscale>  0 0.12500015E+03</rscale>
<asrwt>0</asrwt>
<pdfrwt beam="1">  1        4 0.35491041E-02 0.12500015E+03</pdfrwt>
<pdfrwt beam="2">  1       -4 0.68789532E-01 0.12500015E+03</pdfrwt>
<totfact> 0.13274703E+03</totfact>
</mgrwt>
</event>
<event>
 5    1  0.1422067E-002  0.1250011E+03  0.7818608E-02  0.1235068E+00
         -4   -1    0    0    0  501 -0.00000000000E+00  0.00000000000E+00  0.13648950548E+03  0.13649541386E+03  0.12700000000E+01 0.  1.
          4   -1    0    0  501    0  0.00000000000E+00 -0.00000000000E+00 -0.28599293219E+02  0.28627477580E+02  0.12700000000E+01 0.  1.
         25    2    1    2    0    0  0.00000000000E+00  0.00000000000E+00  0.10789021226E+03  0.16512289144E+03  0.12500108550E+03 0.  0.
    9000005    1    3    3    0    0 -0.13910608722E+02  0.19917883775E+02  0.13000245953E+03  0.13225682066E+03  0.10000000000E+01 0.  0.
    9000005    1    3    3    0    0  0.13910608722E+02 -0.19917883775E+02 -0.22112247269E+02  0.32866070778E+02  0.10000000000E+01 0.  0.
<mgrwt>
<rscale>  0 0.12500109E+03</rscale>
<asrwt>0</asrwt>
<pdfrwt beam="2">  1        4 0.71540850E-02 0.12500109E+03</pdfrwt>
<pdfrwt beam="1">  1       -4 0.34126638E-01 0.12500109E+03</pdfrwt>
<totfact> 0.17818846E+03</totfact>
</mgrwt>
</event>
<event>
 5    1  0.1422067E-002  0.1249991E+03  0.7818608E-02  0.1235071E+00
         -4   -1    0    0    0  501 -0.00000000000E+00  0.00000000000E+00  0.24060260997E+03  0.24060596174E+03  0.12700000000E+01 0.  1.
          4   -1    0    0  501    0  0.00000000000E+00 -0.00000000000E+00 -0.16206739177E+02  0.16256423184E+02  0.12700000000E+01 0.  1.
         25    2    1    2    0    0  0.00000000000E+00  0.00000000000E+00  0.22439587079E+03  0.25686238492E+03  0.12499911184E+03 0.  0.
    9000005    1    3    3    0    0 -0.18545715925E+02  0.10720488479E+02 -0.84365600077E+01  0.23044478669E+02  0.10000000000E+01 0.  0.
    9000005    1    3    3    0    0  0.18545715925E+02 -0.10720488479E+02  0.23283243080E+03  0.23381790625E+03  0.10000000000E+01 0.  0.
<mgrwt>
<rscale>  0 0.12499911E+03</rscale>
<asrwt>0</asrwt>
<pdfrwt beam="2">  1        4 0.40583144E-02 0.12499911E+03</pdfrwt>
<pdfrwt beam="1">  1       -4 0.60157281E-01 0.12499911E+03</pdfrwt>
<totfact> 0.14272752E+03</totfact>
</mgrwt>
</event>
<event>
 4    1  0.1422067E-002  0.1250683E+03  0.7818608E-02  0.1234963E+00
         -4   -1    0    0    0  501 -0.00000000000E+00  0.00000000000E+00  0.82694888051E+02  0.82704639590E+02  0.12700000000E+01 0. -1.
          4   -1    0    0  501    0  0.00000000000E+00 -0.00000000000E+00 -0.47267457878E+02  0.47284516221E+02  0.12700000000E+01 0. -1.
    9000005    1    1    2    0    0  0.58693699742E+01 -0.61484596860E+02  0.27828756832E+02  0.67751345829E+02  0.10000000000E+01 0.  0.
    9000005    1    1    2    0    0 -0.58693699742E+01  0.61484596860E+02  0.75986733413E+01  0.62237809982E+02  0.10000000000E+01 0.  0.
<mgrwt>
<rscale>  0 0.12506829E+03</rscale>
<asrwt>0</asrwt>
<pdfrwt beam="2">  1        4 0.11820216E-01 0.12506829E+03</pdfrwt>
<pdfrwt beam="1">  1       -4 0.20677073E-01 0.12506829E+03</pdfrwt>
<totfact> 0.19533811E+03</totfact>
</mgrwt>
</event>
<event>
 5    1  0.1422067E-002  0.1250074E+03  0.7818608E-02  0.1235058E+00
         -4   -1    0    0    0  501 -0.00000000000E+00  0.00000000000E+00  0.12473371145E+02  0.12537858179E+02  0.12700000000E+01 0.  1.
          4   -1    0    0  501    0  0.00000000000E+00 -0.00000000000E+00 -0.31233066136E+03  0.31233324339E+03  0.12700000000E+01 0.  1.
         25    2    1    2    0    0  0.00000000000E+00  0.00000000000E+00 -0.29985729022E+03  0.32487110157E+03  0.12500735234E+03 0.  0.
    9000005    1    3    3    0    0 -0.15317744017E+02  0.11847251817E+01 -0.30735925880E+03  0.30774461949E+03  0.10000000000E+01 0.  0.
    9000005    1    3    3    0    0  0.15317744017E+02 -0.11847251817E+01  0.75019685884E+01  0.17126482074E+02  0.10000000000E+01 0.  0.
<mgrwt>
<rscale>  0 0.12500735E+03</rscale>
<asrwt>0</asrwt>
<pdfrwt beam="2">  1        4 0.78091023E-01 0.12500735E+03</pdfrwt>
<pdfrwt beam="1">  1       -4 0.31267274E-02 0.12500735E+03</pdfrwt>
<totfact> 0.12299487E+03</totfact>
</mgrwt>
</event>
<event>
 5    1  0.1422067E-002  0.1249970E+03  0.7818608E-02  0.1235074E+00
         -4   -1    0    0    0  501 -0.00000000000E+00  0.00000000000E+00  0.10884868189E+04  0.10884875598E+04  0.12700000000E+01 0. -1.
          4   -1    0    0  501    0  0.00000000000E+00 -0.00000000000E+00 -0.34753928608E+01  0.37001696633E+01  0.12700000000E+01 0. -1.
         25    2    1    2    0    0  0.00000000000E+00  0.00000000000E+00  0.10850114261E+04  0.10921877295E+04  0.12499696690E+03 0.  0.
    9000005    1    3    3    0    0 -0.27538358222E+02 -0.16672112048E+02  0.10105030784E+04  0.10110162174E+04  0.10000000000E+01 0.  0.
    9000005    1    3    3    0    0  0.27538358222E+02  0.16672112048E+02  0.74508347702E+02  0.81171512066E+02  0.10000000000E+01 0.  0.
<mgrwt>
<rscale>  0 0.12499697E+03</rscale>
<asrwt>0</asrwt>
<pdfrwt beam="2">  1        4 0.89703793E-03 0.12499697E+03</pdfrwt>
<pdfrwt beam="1">  1       -4 0.27214989E+00 0.12499697E+03</pdfrwt>
<totfact> 0.31251603E+02</totfact>
</mgrwt>
</event>
<event>
 5    1  0.1422067E-002  0.1250006E+03  0.7818608E-02  0.1235068E+00
         -4   -1    0    0    0  501 -0.00000000000E+00  0.00000000000E+00  0.62570286349E+02  0.62583173727E+02  0.12700000000E+01 0.  1.
          4   -1    0    0  501    0  0.00000000000E+00 -0.00000000000E+00 -0.62404654022E+02  0.62417575598E+02  0.12700000000E+01 0.  1.
         25    2    1    2    0    0  0.00000000000E+00  0.00000000000E+00  0.16563232706E+00  0.12500074933E+03  0.12500063959E+03 0.  0.
    9000005    1    3    3    0    0 -0.29975698470E+02  0.41833642189E+02  0.35532725378E+02  0.62547347589E+02  0.10000000000E+01 0.  0.
    9000005    1    3    3    0    0  0.29975698470E+02 -0.41833642189E+02 -0.35367093051E+02  0.62453401737E+02  0.10000000000E+01 0.  0.
<mgrwt>
<rscale>  0 0.12500064E+03</rscale>
<asrwt>0</asrwt>
<pdfrwt beam="2">  1        4 0.15604390E-01 0.12500064E+03</pdfrwt>
<pdfrwt beam="1">  1       -4 0.15645798E-01 0.12500064E+03</pdfrwt>
<totfact> 0.19834718E+03</totfact>
</mgrwt>
</event>
<event>
 5    1  0.1422067E-002  0.1249984E+03  0.7818608E-02  0.1235072E+00
         -4   -1    0    0    0  501 -0.00000000000E+00  0.00000000000E+00  0.45952242351E+02  0.45969788743E+02  0.12700000000E+01 0. -1.
          4   -1    0    0  501    0  0.00000000000E+00 -0.00000000000E+00 -0.84966089130E+02  0.84975580034E+02  0.12700000000E+01 0. -1.
         25    2    1    2    0    0  0.00000000000E+00  0.00000000000E+00 -0.39013846779E+02  0.13094536878E+03  0.12499843744E+03 0.  0.
    9000005    1    3    3    0    0 -0.54468227432E+02  0.14143545551E+02  0.89579493294E+01  0.56991863774E+02  0.10000000000E+01 0.  0.
    9000005    1    3    3    0    0  0.54468227432E+02 -0.14143545551E+02 -0.47971796108E+02  0.73953505002E+02  0.10000000000E+01 0.  0.
<mgrwt>
<rscale>  0 0.12499844E+03</rscale>
<asrwt>0</asrwt>
<pdfrwt beam="2">  1        4 0.21244902E-01 0.12499844E+03</pdfrwt>
<pdfrwt beam="1">  1       -4 0.11491440E-01 0.12499844E+03</pdfrwt>
<totfact> 0.19514406E+03</totfact>
</mgrwt>
</event>
<event>
 5    1  0.1422067E-002  0.1249989E+03  0.7818608E-02  0.1235071E+00
         -4   -1    0    0    0  501 -0.00000000000E+00  0.00000000000E+00  0.10200236868E+03  0.10201027456E+03  0.12700000000E+01 0. -1.
          4   -1    0    0  501    0  0.00000000000E+00 -0.00000000000E+00 -0.38275068056E+02  0.38296132111E+02  0.12700000000E+01 0. -1.
         25    2    1    2    0    0  0.00000000000E+00  0.00000000000E+00  0.63727300625E+02  0.14030640667E+03  0.12499887563E+03 0.  0.
    9000005    1    3    3    0    0  0.48874709573E+02  0.38886417090E+02  0.34188272200E+02  0.71209048765E+02  0.10000000000E+01 0.  0.
    9000005    1    3    3    0    0 -0.48874709573E+02 -0.38886417090E+02  0.29539028424E+02  0.69097357910E+02  0.10000000000E+01 0.  0.
<mgrwt>
<rscale>  0 0.12499888E+03</rscale>
<asrwt>0</asrwt>
<pdfrwt beam="2">  1        4 0.95723883E-02 0.12499888E+03</pdfrwt>
<pdfrwt beam="1">  1       -4 0.25504213E-01 0.12499888E+03</pdfrwt>
<totfact> 0.19025177E+03</totfact>
</mgrwt>
</event>
<event>
 5    1  0.1422067E-002  0.1249887E+03  0.7818608E-02  0.1235087E+00
         -4   -1    0    0    0  501 -0.00000000000E+00  0.00000000000E+00  0.41682329731E+03  0.41682523206E+03  0.12700000000E+01 0. -1.
          4   -1    0    0  501    0  0.00000000000E+00 -0.00000000000E+00 -0.93247894506E+01  0.94108765957E+01  0.12700000000E+01 0. -1.
         25    2    1    2    0    0  0.00000000000E+00  0.00000000000E+00  0.40749850786E+03  0.42623610866E+03  0.12498874514E+03 0.  0.
    9000005    1    3    3    0    0 -0.33517841205E+02 -0.50255827578E+02  0.14924447345E+03  0.16100933743E+03  0.10000000000E+01 0.  0.
    9000005    1    3    3    0    0  0.33517841205E+02  0.50255827578E+02  0.25825403441E+03  0.26522677122E+03  0.10000000000E+01 0.  0.
<mgrwt>
<rscale>  0 0.12498875E+03</rscale>
<asrwt>0</asrwt>
<pdfrwt beam="2">  1        4 0.23422001E-02 0.12498875E+03</pdfrwt>
<pdfrwt beam="1">  1       -4 0.10421683E+00 0.12498875E+03</pdfrwt>
<totfact> 0.10047039E+03</totfact>
</mgrwt>
</event>
<event>
 5    1  0.1422067E-002  0.1250046E+03  0.7818608E-02  0.1235062E+00
         -4   -1    0    0    0  501 -0.00000000000E+00  0.00000000000E+00  0.15126600219E+02  0.15179819965E+02  0.12700000000E+01 0. -1.
          4   -1    0    0  501    0  0.00000000000E+00 -0.00000000000E+00 -0.25774783269E+03  0.25775096151E+03  0.12700000000E+01 0. -1.
         25    2    1    2    0    0  0.00000000000E+00  0.00000000000E+00 -0.24262123247E+03  0.27293078147E+03  0.12500459603E+03 0.  0.
    9000005    1    3    3    0    0 -0.24127737597E+02 -0.20205884269E+02 -0.23919442078E+03  0.24125794581E+03  0.10000000000E+01 0.  0.
    9000005    1    3    3    0    0  0.24127737597E+02  0.20205884269E+02 -0.34268116882E+01  0.31672835664E+02  0.10000000000E+01 0.  0.
<mgrwt>
<rscale>  0 0.12500460E+03</rscale>
<asrwt>0</asrwt>
<pdfrwt beam="2">  1        4 0.64443988E-01 0.12500460E+03</pdfrwt>
<pdfrwt beam="1">  1       -4 0.37886945E-02 0.12500460E+03</pdfrwt>
<totfact> 0.13763688E+03</totfact>
</mgrwt>
</event>
<event>
 5    1  0.1422067E-002  0.1249999E+03  0.7818608E-02  0.1235069E+00
          4   -1    0    0  501    0  0.00000000000E+00  0.00000000000E+00  0.66016816572E+01  0.67227301525E+01  0.12700000000E+01 0. -1.
         -4   -1    0    0    0  501 -0.00000000000E+00 -0.00000000000E+00 -0.58620696086E+03  0.58620833657E+03  0.12700000000E+01 0. -1.
         25    2    1    2    0    0  0.00000000000E+00  0.00000000000E+00 -0.57960527920E+03  0.59293106672E+03  0.12499988081E+03 0.  0.
    9000005    1    3    3    0    0 -0.40565835093E+01 -0.62325535227E+02 -0.29965526005E+03  0.30609672179E+03  0.10000000000E+01 0.  0.
    9000005    1    3    3    0    0  0.40565835093E+01  0.62325535227E+02 -0.27995001915E+03  0.28683434493E+03  0.10000000000E+01 0.  0.
<mgrwt>
<rscale>  0 0.12499988E+03</rscale>
<asrwt>0</asrwt>
<pdfrwt beam="1">  1        4 0.16657254E-02 0.12499988E+03</pdfrwt>
<pdfrwt beam="2">  1       -4 0.14656687E+00 0.12499988E+03</pdfrwt>
<totfact> 0.74399851E+02</totfact>
</mgrwt>
</event>
<event>
 4    1  0.1422067E-002  0.1251532E+03  0.7818608E-02  0.1234830E+00
         -4   -1    0    0    0  501 -0.00000000000E+00  0.00000000000E+00  0.11481337172E+03  0.11482039552E+03  0.12700000000E+01 0. -1.
          4   -1    0    0  501    0  0.00000000000E+00 -0.00000000000E+00 -0.34086160042E+02  0.34109810999E+02  0.12700000000E+01 0. -1.
    9000005    1    1    2    0    0 -0.26635605923E+02 -0.53423342058E+02  0.18059055588E+02  0.62374982712E+02  0.10000000000E+01 0.  0.
    9000005    1    1    2    0    0  0.26635605923E+02  0.53423342058E+02  0.62668156095E+02  0.86555223805E+02  0.10000000000E+01 0.  0.
<mgrwt>
<rscale>  0 0.12515320E+03</rscale>
<asrwt>0</asrwt>
<pdfrwt beam="2">  1        4 0.85253744E-02 0.12515320E+03</pdfrwt>
<pdfrwt beam="1">  1       -4 0.28707177E-01 0.12515320E+03</pdfrwt>
<totfact> 0.18525370E+03</totfact>
</mgrwt>
</event>
<event>
 5    1  0.1422067E-002  0.1250039E+03  0.7818608E-02  0.1235063E+00
         -4   -1    0    0    0  501 -0.00000000000E+00  0.00000000000E+00  0.66239681103E+01  0.67446166330E+01  0.12700000000E+01 0.  1.
          4   -1    0    0  501    0  0.00000000000E+00 -0.00000000000E+00 -0.58430789259E+03  0.58430927277E+03  0.12700000000E+01 0.  1.
         25    2    1    2    0    0  0.00000000000E+00  0.00000000000E+00 -0.57768392448E+03  0.59105388940E+03  0.12500393423E+03 0.  0.
    9000005    1    3    3    0    0  0.38308431791E+02  0.35633083536E+02 -0.12723128574E+03  0.13757199083E+03  0.10000000000E+01 0.  0.
    9000005    1    3    3    0    0 -0.38308431791E+02 -0.35633083536E+02 -0.45045263874E+03  0.45348189858E+03  0.10000000000E+01 0.  0.
<mgrwt>
<rscale>  0 0.12500393E+03</rscale>
<asrwt>0</asrwt>
<pdfrwt beam="2">  1        4 0.14609205E+00 0.12500393E+03</pdfrwt>
<pdfrwt beam="1">  1       -4 0.16712476E-02 0.12500393E+03</pdfrwt>
<totfact> 0.74633589E+02</totfact>
</mgrwt>
</event>
<event>
 5    1  0.1422067E-002  0.1250038E+03  0.7818608E-02  0.1235063E+00
         -4   -1    0    0    0  501 -0.00000000000E+00  0.00000000000E+00  0.17907416504E+03  0.17907866843E+03  0.12700000000E+01 0. -1.
          4   -1    0    0  501    0  0.00000000000E+00 -0.00000000000E+00 -0.21791630648E+02  0.21828606604E+02  0.12700000000E+01 0. -1.
         25    2    1    2    0    0  0.00000000000E+00  0.00000000000E+00  0.15728253439E+03  0.20090727503E+03  0.12500375008E+03 0.  0.
    9000005    1    3    3    0    0  0.27374750117E+01  0.75299782562E+01 -0.20970620775E+02  0.22471343477E+02  0.10000000000E+01 0.  0.
    9000005    1    3    3    0    0 -0.27374750117E+01 -0.75299782562E+01  0.17825315517E+03  0.17843593155E+03  0.10000000000E+01 0.  0.
<mgrwt>
<rscale>  0 0.12500375E+03</rscale>
<asrwt>0</asrwt>
<pdfrwt beam="2">  1        4 0.54530928E-02 0.12500375E+03</pdfrwt>
<pdfrwt beam="1">  1       -4 0.44773725E-01 0.12500375E+03</pdfrwt>
<totfact> 0.16284365E+03</totfact>
</mgrwt>
</event>
<event>
 5    1  0.1422067E-002  0.1249833E+03  0.7818608E-02  0.1235095E+00
          4   -1    0    0  501    0  0.00000000000E+00  0.00000000000E+00  0.95447672530E+03  0.95447757022E+03  0.12700000000E+01 0.  1.
         -4   -1    0    0    0  501 -0.00000000000E+00 -0.00000000000E+00 -0.39920417830E+01  0.41891881788E+01  0.12700000000E+01 0.  1.
         25    2    1    2    0    0  0.00000000000E+00  0.00000000000E+00  0.95048468352E+03  0.95866675840E+03  0.12498327906E+03 0.  0.
    9000005    1    3    3    0    0  0.66328970550E+01 -0.56132637024E+02  0.67952993122E+03  0.68187740517E+03  0.10000000000E+01 0.  0.
    9000005    1    3    3    0    0 -0.66328970550E+01  0.56132637024E+02  0.27095475231E+03  0.27678935323E+03  0.10000000000E+01 0.  0.
<mgrwt>
<rscale>  0 0.12498328E+03</rscale>
<asrwt>0</asrwt>
<pdfrwt beam="1">  1        4 0.23864395E+00 0.12498328E+03</pdfrwt>
<pdfrwt beam="2">  1       -4 0.10227593E-02 0.12498328E+03</pdfrwt>
<totfact> 0.39975111E+02</totfact>
</mgrwt>
</event>
<event>
 5    1  0.1422067E-002  0.1250000E+03  0.7818608E-02  0.1235069E+00
         -4   -1    0    0    0  501 -0.00000000000E+00  0.00000000000E+00  0.24013817879E+03  0.24014153704E+03  0.12700000000E+01 0. -1.
          4   -1    0    0  501    0  0.00000000000E+00 -0.00000000000E+00 -0.16238410208E+02  0.16287997608E+02  0.12700000000E+01 0. -1.
         25    2    1    2    0    0  0.00000000000E+00  0.00000000000E+00  0.22389976858E+03  0.25642953465E+03  0.12499999948E+03 0.  0.
    9000005    1    3    3    0    0  0.47870000873E+02 -0.16812348838E+02  0.37105967304E+02  0.62865291430E+02  0.10000000000E+01 0.  0.
    9000005    1    3    3    0    0 -0.47870000873E+02  0.16812348838E+02  0.18679380128E+03  0.19356424322E+03  0.10000000000E+01 0.  0.
<mgrwt>
<rscale>  0 0.12500000E+03</rscale>
<asrwt>0</asrwt>
<pdfrwt beam="2">  1        4 0.40662208E-02 0.12500000E+03</pdfrwt>
<pdfrwt beam="1">  1       -4 0.60041162E-01 0.12500000E+03</pdfrwt>
<totfact> 0.14286525E+03</totfact>
</mgrwt>
</event>
<event>
 5    1  0.1422067E-002  0.1249997E+03  0.7818608E-02  0.1235070E+00
         -4   -1    0    0    0  501 -0.00000000000E+00  0.00000000000E+00  0.27412224363E+02  0.27441627950E+02  0.12700000000E+01 0.  1.
          4   -1    0    0  501    0  0.00000000000E+00 -0.00000000000E+00 -0.14239096504E+03  0.14239662856E+03  0.12700000000E+01 0.  1.
         25    2    1    2    0    0  0.00000000000E+00  0.00000000000E+00 -0.11497874067E+03  0.16983825651E+03  0.12499969026E+03 0.  0.
    9000005    1    3    3    0    0 -0.33598383342E+02 -0.21103386069E+02  0.81100768768E+01  0.40508981889E+02  0.10000000000E+01 0.  0.
    9000005    1    3    3    0    0  0.33598383342E+02  0.21103386069E+02 -0.12308881755E+03  0.12932927462E+03  0.10000000000E+01 0.  0.
<mgrwt>
<rscale>  0 0.12499969E+03</rscale>
<asrwt>0</asrwt>
<pdfrwt beam="2">  1        4 0.35602123E-01 0.12499969E+03</pdfrwt>
<pdfrwt beam="1">  1       -4 0.68574399E-02 0.12499969E+03</pdfrwt>
<totfact> 0.17604472E+03</totfact>
</mgrwt>
</event>
<event>
 5    1  0.1422067E-002  0.1249999E+03  0.7818608E-02  0.1235069E+00
         -4   -1    0    0    0  501 -0.00000000000E+00  0.00000000000E+00  0.55154470015E+02  0.55169089739E+02  0.12700000000E+01 0.  1.
          4   -1    0    0  501    0  0.00000000000E+00 -0.00000000000E+00 -0.70794043303E+02  0.70805433881E+02  0.12700000000E+01 0.  1.
         25    2    1    2    0    0  0.00000000000E+00  0.00000000000E+00 -0.15639573288E+02  0.12597452362E+03  0.12499993740E+03 0.  0.
    9000005    1    3    3    0    0 -0.35386329741E+02  0.35969159062E+02 -0.44975562171E+02  0.67600103024E+02  0.10000000000E+01 0.  0.
    9000005    1    3    3    0    0  0.35386329741E+02 -0.35969159062E+02  0.29335988884E+02  0.58374420597E+02  0.10000000000E+01 0.  0.
<mgrwt>
<rscale>  0 0.12499994E+03</rscale>
<asrwt>0</asrwt>
<pdfrwt beam="2">  1        4 0.17701762E-01 0.12499994E+03</pdfrwt>
<pdfrwt beam="1">  1       -4 0.13791869E-01 0.12499994E+03</pdfrwt>
<totfact> 0.19782326E+03</totfact>
</mgrwt>
</event>
<event>
 5    1  0.1422067E-002  0.1249992E+03  0.7818608E-02  0.1235071E+00
          4   -1    0    0  501    0  0.00000000000E+00  0.00000000000E+00  0.12309722373E+02  0.12375062219E+02  0.12700000000E+01 0.  1.
         -4   -1    0    0    0  501 -0.00000000000E+00 -0.00000000000E+00 -0.31641984453E+03  0.31642239319E+03  0.12700000000E+01 0.  1.
         25    2    1    2    0    0  0.00000000000E+00  0.00000000000E+00 -0.30411012216E+03  0.32879745541E+03  0.12499920114E+03 0.  0.
    9000005    1    3    3    0    0 -0.49092893897E+02 -0.22885494000E+01 -0.25358462917E+03  0.25830507901E+03  0.10000000000E+01 0.  0.
    9000005    1    3    3    0    0  0.49092893897E+02  0.22885494000E+01 -0.50525492992E+02  0.70492376408E+02  0.10000000000E+01 0.  0.
<mgrwt>
<rscale>  0 0.12499920E+03</rscale>
<asrwt>0</asrwt>
<pdfrwt beam="1">  1        4 0.30859177E-02 0.12499920E+03</pdfrwt>
<pdfrwt beam="2">  1       -4 0.79113421E-01 0.12499920E+03</pdfrwt>
<totfact> 0.12200906E+03</totfact>
</mgrwt>
</event>
<event>
 5    1  0.1422067E-002  0.1250044E+03  0.7818608E-02  0.1235062E+00
          4   -1    0    0  501    0  0.00000000000E+00  0.00000000000E+00  0.12659595383E+03  0.12660232394E+03  0.12700000000E+01 0.  1.
         -4   -1    0    0    0  501 -0.00000000000E+00 -0.00000000000E+00 -0.30837983612E+02  0.30864123724E+02  0.12700000000E+01 0.  1.
         25    2    1    2    0    0  0.00000000000E+00  0.00000000000E+00  0.95757970220E+02  0.15746644766E+03  0.12500437304E+03 0.  0.
    9000005    1    3    3    0    0  0.81675266692E+01 -0.61819817887E+02  0.42666108962E+02  0.75563186999E+02  0.10000000000E+01 0.  0.
    9000005    1    3    3    0    0 -0.81675266692E+01  0.61819817887E+02  0.53091861258E+02  0.81903260663E+02  0.10000000000E+01 0.  0.
<mgrwt>
<rscale>  0 0.12500437E+03</rscale>
<asrwt>0</asrwt>
<pdfrwt beam="1">  1        4 0.31653052E-01 0.12500437E+03</pdfrwt>
<pdfrwt beam="2">  1       -4 0.77135598E-02 0.12500437E+03</pdfrwt>
<totfact> 0.18175795E+03</totfact>
</mgrwt>
</event>
<event>
 5    1  0.1422067E-002  0.1250012E+03  0.7818608E-02  0.1235067E+00
          4   -1    0    0  501    0  0.00000000000E+00  0.00000000000E+00  0.22330906530E+02  0.22366991001E+02  0.12700000000E+01 0. -1.
         -4   -1    0    0    0  501 -0.00000000000E+00 -0.00000000000E+00 -0.17474949320E+03  0.17475410803E+03  0.12700000000E+01 0. -1.
         25    2    1    2    0    0  0.00000000000E+00  0.00000000000E+00 -0.15241858667E+03  0.19712109903E+03  0.12500120848E+03 0.  0.
    9000005    1    3    3    0    0 -0.24472253467E+02 -0.56977825305E+02 -0.88420430246E+02  0.10800248262E+03  0.10000000000E+01 0.  0.
    9000005    1    3    3    0    0  0.24472253467E+02  0.56977825305E+02 -0.63998156424E+02  0.89118616416E+02  0.10000000000E+01 0.  0.
<mgrwt>
<rscale>  0 0.12500121E+03</rscale>
<asrwt>0</asrwt>
<pdfrwt beam="1">  1        4 0.55878146E-02 0.12500121E+03</pdfrwt>
<pdfrwt beam="2">  1       -4 0.43692457E-01 0.12500121E+03</pdfrwt>
<totfact> 0.16437510E+03</totfact>
</mgrwt>
</event>
<event>
 5    1  0.1422067E-002  0.1250113E+03  0.7818608E-02  0.1235052E+00
         -4   -1    0    0    0  501 -0.00000000000E+00  0.00000000000E+00  0.19500453686E+02  0.19541765374E+02  0.12700000000E+01 0.  1.
          4   -1    0    0  501    0  0.00000000000E+00 -0.00000000000E+00 -0.20009659795E+03  0.20010062822E+03  0.12700000000E+01 0.  1.
         25    2    1    2    0    0  0.00000000000E+00  0.00000000000E+00 -0.18059614427E+03  0.21964239359E+03  0.12501125444E+03 0.  0.
    9000005    1    3    3    0    0 -0.31722679758E+02  0.53802970143E+02 -0.86422573913E+02  0.10663465332E+03  0.10000000000E+01 0.  0.
    9000005    1    3    3    0    0  0.31722679758E+02 -0.53802970143E+02 -0.94173570353E+02  0.11300774027E+03  0.10000000000E+01 0.  0.
<mgrwt>
<rscale>  0 0.12501125E+03</rscale>
<asrwt>0</asrwt>
<pdfrwt beam="2">  1        4 0.50029811E-01 0.12501125E+03</pdfrwt>
<pdfrwt beam="1">  1       -4 0.48807818E-02 0.12501125E+03</pdfrwt>
<totfact> 0.15560571E+03</totfact>
</mgrwt>
</event>
<event>
 5    1  0.1422067E-002  0.1249979E+03  0.7818608E-02  0.1235073E+00
         -4   -1    0    0    0  501 -0.00000000000E+00  0.00000000000E+00  0.34064210230E+01  0.36354647827E+01  0.12700000000E+01 0.  1.
          4   -1    0    0  501    0  0.00000000000E+00 -0.00000000000E+00 -0.11091665857E+04  0.11091673127E+04  0.12700000000E+01 0.  1.
         25    2    1    2    0    0  0.00000000000E+00  0.00000000000E+00 -0.11057601646E+04  0.11128027775E+04  0.12499791982E+03 0.  0.
    9000005    1    3    3    0    0 -0.38532621914E+02  0.49151534436E+02 -0.53402911171E+03  0.53766972060E+03  0.10000000000E+01 0.  0.
    9000005    1    3    3    0    0  0.38532621914E+02 -0.49151534436E+02 -0.57173105294E+03  0.57513305694E+03  0.10000000000E+01 0.  0.
<mgrwt>
<rscale>  0 0.12499792E+03</rscale>
<asrwt>0</asrwt>
<pdfrwt beam="2">  1        4 0.27731917E+00 0.12499792E+03</pdfrwt>
<pdfrwt beam="1">  1       -4 0.88033041E-03 0.12499792E+03</pdfrwt>
<totfact> 0.30030128E+02</totfact>
</mgrwt>
</event>
<event>
 5    1  0.1422067E-002  0.1250011E+03  0.7818608E-02  0.1235068E+00
          4   -1    0    0  501    0  0.00000000000E+00  0.00000000000E+00  0.13650541580E+03  0.13651132350E+03  0.12700000000E+01 0.  1.
         -4   -1    0    0    0  501 -0.00000000000E+00 -0.00000000000E+00 -0.28595945462E+02  0.28624133120E+02  0.12700000000E+01 0.  1.
         25    2    1    2    0    0  0.00000000000E+00  0.00000000000E+00  0.10790947034E+03  0.16513545662E+03  0.12500106097E+03 0.  0.
    9000005    1    3    3    0    0 -0.55606770923E+02 -0.28308416719E+02  0.58499854365E+02  0.85537783408E+02  0.10000000000E+01 0.  0.
    9000005    1    3    3    0    0  0.55606770923E+02  0.28308416719E+02  0.49409615975E+02  0.79597673210E+02  0.10000000000E+01 0.  0.
<mgrwt>
<rscale>  0 0.12500106E+03</rscale>
<asrwt>0</asrwt>
<pdfrwt beam="1">  1        4 0.34130616E-01 0.12500106E+03</pdfrwt>
<pdfrwt beam="2">  1       -4 0.71532483E-02 0.12500106E+03</pdfrwt>
<totfact> 0.17818278E+03</totfact>
</mgrwt>
</event>
<event>
 5    1  0.1422067E-002  0.1249984E+03  0.7818608E-02  0.1235072E+00
          4   -1    0    0  501    0  0.00000000000E+00  0.00000000000E+00  0.25960656375E+03  0.25960967016E+03  0.12700000000E+01 0. -1.
         -4   -1    0    0    0  501 -0.00000000000E+00 -0.00000000000E+00 -0.15016416038E+02  0.15070024905E+02  0.12700000000E+01 0. -1.
         25    2    1    2    0    0  0.00000000000E+00  0.00000000000E+00  0.24459014771E+03  0.27467969506E+03  0.12499837809E+03 0.  0.
    9000005    1    3    3    0    0  0.61296401305E+01  0.73101153037E+01  0.25800774552E+03  0.25818599308E+03  0.10000000000E+01 0.  0.
    9000005    1    3    3    0    0 -0.61296401305E+01 -0.73101153037E+01 -0.13417597816E+02  0.16493701981E+02  0.10000000000E+01 0.  0.
<mgrwt>
<rscale>  0 0.12499838E+03</rscale>
<asrwt>0</asrwt>
<pdfrwt beam="1">  1        4 0.64908730E-01 0.12499838E+03</pdfrwt>
<pdfrwt beam="2">  1       -4 0.37611934E-02 0.12499838E+03</pdfrwt>
<totfact> 0.13712115E+03</totfact>
</mgrwt>
</event>
<event>
 5    1  0.1422067E-002  0.1249993E+03  0.7818608E-02  0.1235070E+00
          4   -1    0    0  501    0  0.00000000000E+00  0.00000000000E+00  0.23778115067E+01  0.26957165209E+01  0.12700000000E+01 0.  1.
         -4   -1    0    0    0  501 -0.00000000000E+00 -0.00000000000E+00 -0.15395192109E+04  0.15395197348E+04  0.12700000000E+01 0.  1.
         25    2    1    2    0    0  0.00000000000E+00  0.00000000000E+00 -0.15371413994E+04  0.15422154513E+04  0.12499926542E+03 0.  0.
    9000005    1    3    3    0    0  0.29035487755E+02  0.29864018397E+02 -0.19379821705E+03  0.19822630521E+03  0.10000000000E+01 0.  0.
    9000005    1    3    3    0    0 -0.29035487755E+02 -0.29864018397E+02 -0.13433431824E+04  0.13439891461E+04  0.10000000000E+01 0.  0.
<mgrwt>
<rscale>  0 0.12499927E+03</rscale>
<asrwt>0</asrwt>
<pdfrwt beam="1">  1        4 0.63426177E-03 0.12499927E+03</pdfrwt>
<pdfrwt beam="2">  1       -4 0.38491640E+00 0.12499927E+03</pdfrwt>
<totfact> 0.11158835E+02</totfact>
</mgrwt>
</event>
<event>
 5    1  0.1422067E-002  0.1250021E+03  0.7818608E-02  0.1235066E+00
          4   -1    0    0  501    0  0.00000000000E+00  0.00000000000E+00  0.63416190032E+02  0.63428905542E+02  0.12700000000E+01 0.  1.
         -4   -1    0    0    0  501 -0.00000000000E+00 -0.00000000000E+00 -0.61573641737E+02  0.61586737670E+02  0.12700000000E+01 0.  1.
         25    2    1    2    0    0  0.00000000000E+00  0.00000000000E+00  0.18425482949E+01  0.12501564321E+03  0.12500206424E+03 0.  0.
    9000005    1    3    3    0    0  0.54715316137E+02 -0.19151911770E+02 -0.22422586819E+02  0.62163767133E+02  0.10000000000E+01 0.  0.
    9000005    1    3    3    0    0 -0.54715316137E+02  0.19151911770E+02  0.24265135114E+02  0.62851876079E+02  0.10000000000E+01 0.  0.
<mgrwt>
<rscale>  0 0.12500206E+03</rscale>
<asrwt>0</asrwt>
<pdfrwt beam="1">  1        4 0.15857274E-01 0.12500206E+03</pdfrwt>
<pdfrwt beam="2">  1       -4 0.15396637E-01 0.12500206E+03</pdfrwt>
<totfact> 0.19833249E+03</totfact>
</mgrwt>
</event>
<event>
 5    1  0.1422067E-002  0.1250008E+03  0.7818608E-02  0.1235068E+00
         -4   -1    0    0    0  501 -0.00000000000E+00  0.00000000000E+00  0.14306245343E+03  0.14306809037E+03  0.12700000000E+01 0. -1.
          4   -1    0    0  501    0  0.00000000000E+00 -0.00000000000E+00 -0.27283925133E+02  0.27313466837E+02  0.12700000000E+01 0. -1.
         25    2    1    2    0    0  0.00000000000E+00  0.00000000000E+00  0.11577852830E+03  0.17038155720E+03  0.12500082968E+03 0.  0.
    9000005    1    3    3    0    0 -0.57506481604E+01  0.49800323960E+02  0.10874667028E+03  0.11974965769E+03  0.10000000000E+01 0.  0.
    9000005    1    3    3    0    0  0.57506481604E+01 -0.49800323960E+02  0.70318580161E+01  0.50631899509E+02  0.10000000000E+01 0.  0.
<mgrwt>
<rscale>  0 0.12500083E+03</rscale>
<asrwt>0</asrwt>
<pdfrwt beam="2">  1        4 0.68253786E-02 0.12500083E+03</pdfrwt>
<pdfrwt beam="1">  1       -4 0.35770011E-01 0.12500083E+03</pdfrwt>
<totfact> 0.17579512E+03</totfact>
</mgrwt>
</event>
<event>
 5    1  0.1422067E-002  0.1250012E+03  0.7818608E-02  0.1235067E+00
         -4   -1    0    0    0  501 -0.00000000000E+00  0.00000000000E+00  0.17314714469E+03  0.17315180222E+03  0.12700000000E+01 0. -1.
          4   -1    0    0  501    0  0.00000000000E+00 -0.00000000000E+00 -0.22537874846E+02  0.22573628476E+02  0.12700000000E+01 0. -1.
         25    2    1    2    0    0  0.00000000000E+00  0.00000000000E+00  0.15060926984E+03  0.19572543070E+03  0.12500116824E+03 0.  0.
    9000005    1    3    3    0    0 -0.28554101848E+02  0.47812386466E+02  0.30907909190E+02  0.63699763598E+02  0.10000000000E+01 0.  0.
    9000005    1    3    3    0    0  0.28554101848E+02 -0.47812386466E+02  0.11970136065E+03  0.13202566710E+03  0.10000000000E+01 0.  0.
<mgrwt>
<rscale>  0 0.12500117E+03</rscale>
<asrwt>0</asrwt>
<pdfrwt beam="2">  1        4 0.56395202E-02 0.12500117E+03</pdfrwt>
<pdfrwt beam="1">  1       -4 0.43291837E-01 0.12500117E+03</pdfrwt>
<totfact> 0.16494199E+03</totfact>
</mgrwt>
</event>
<event>
 5    1  0.1422067E-002  0.1249989E+03  0.7818608E-02  0.1235071E+00
          4   -1    0    0  501    0  0.00000000000E+00  0.00000000000E+00  0.96365255075E+02  0.96373623392E+02  0.12700000000E+01 0.  1.
         -4   -1    0    0    0  501 -0.00000000000E+00 -0.00000000000E+00 -0.40515061951E+02  0.40534962007E+02  0.12700000000E+01 0.  1.
         25    2    1    2    0    0  0.00000000000E+00  0.00000000000E+00  0.55850193124E+02  0.13690858540E+03  0.12499886673E+03 0.  0.
    9000005    1    3    3    0    0  0.56178942447E+02 -0.49018148801E+01  0.57417958238E+02  0.80485547099E+02  0.10000000000E+01 0.  0.
    9000005    1    3    3    0    0 -0.56178942447E+02  0.49018148801E+01 -0.15677651142E+01  0.56423038300E+02  0.10000000000E+01 0.  0.
<mgrwt>
<rscale>  0 0.12499887E+03</rscale>
<asrwt>0</asrwt>
<pdfrwt beam="1">  1        4 0.24094847E-01 0.12499887E+03</pdfrwt>
<pdfrwt beam="2">  1       -4 0.10132299E-01 0.12499887E+03</pdfrwt>
<totfact> 0.19200136E+03</totfact>
</mgrwt>
</event>
<event>
 5    1  0.1422067E-002  0.1249999E+03  0.7818608E-02  0.1235070E+00
          4   -1    0    0  501    0  0.00000000000E+00  0.00000000000E+00  0.25266479978E+03  0.25266799153E+03  0.12700000000E+01 0.  1.
         -4   -1    0    0    0  501 -0.00000000000E+00 -0.00000000000E+00 -0.15430793658E+02  0.15482967833E+02  0.12700000000E+01 0.  1.
         25    2    1    2    0    0  0.00000000000E+00  0.00000000000E+00  0.23723400612E+03  0.26815095937E+03  0.12499985340E+03 0.  0.
    9000005    1    3    3    0    0  0.52481827346E+02  0.28692739239E+02  0.79787788910E+02  0.99723150500E+02  0.10000000000E+01 0.  0.
    9000005    1    3    3    0    0 -0.52481827346E+02 -0.28692739239E+02  0.15744621721E+03  0.16842780887E+03  0.10000000000E+01 0.  0.
<mgrwt>
<rscale>  0 0.12499985E+03</rscale>
<asrwt>0</asrwt>
<pdfrwt beam="1">  1        4 0.63173119E-01 0.12499985E+03</pdfrwt>
<pdfrwt beam="2">  1       -4 0.38646192E-02 0.12499985E+03</pdfrwt>
<totfact> 0.13913150E+03</totfact>
</mgrwt>
</event>
<event>
 5    1  0.1422067E-002  0.1250019E+03  0.7818608E-02  0.1235066E+00
         -4   -1    0    0    0  501 -0.00000000000E+00  0.00000000000E+00  0.15011221727E+03  0.15011758949E+03  0.12700000000E+01 0.  1.
          4   -1    0    0  501    0  0.00000000000E+00 -0.00000000000E+00 -0.26001665478E+02  0.26032662323E+02  0.12700000000E+01 0.  1.
         25    2    1    2    0    0  0.00000000000E+00  0.00000000000E+00  0.12411055180E+03  0.17615025182E+03  0.12500192858E+03 0.  0.
    9000005    1    3    3    0    0 -0.14733610890E+01 -0.62447157707E+02  0.59399339900E+02  0.86203827520E+02  0.10000000000E+01 0.  0.
    9000005    1    3    3    0    0  0.14733610890E+01  0.62447157707E+02  0.64711211896E+02  0.89946424296E+02  0.10000000000E+01 0.  0.
<mgrwt>
<rscale>  0 0.12500193E+03</rscale>
<asrwt>0</asrwt>
<pdfrwt beam="2">  1        4 0.65049625E-02 0.12500193E+03</pdfrwt>
<pdfrwt beam="1">  1       -4 0.37532600E-01 0.12500193E+03</pdfrwt>
<totfact> 0.17322385E+03</totfact>
</mgrwt>
</event>
<event>
 5    1  0.1422067E-002  0.1249995E+03  0.7818608E-02  0.1235070E+00
         -4   -1    0    0    0  501 -0.00000000000E+00  0.00000000000E+00  0.49877584781E+01  0.51469053456E+01  0.12700000000E+01 0. -1.
          4   -1    0    0  501    0  0.00000000000E+00 -0.00000000000E+00 -0.77070388435E+03  0.77070493074E+03  0.12700000000E+01 0. -1.
         25    2    1    2    0    0  0.00000000000E+00  0.00000000000E+00 -0.76571612588E+03  0.77585183608E+03  0.12499954449E+03 0.  0.
    9000005    1    3    3    0    0 -0.73243582671E+01  0.27497174150E+02 -0.37527979508E+02  0.47107218727E+02  0.10000000000E+01 0.  0.
    9000005    1    3    3    0    0  0.73243582671E+01 -0.27497174150E+02 -0.72818814637E+03  0.72874461735E+03  0.10000000000E+01 0.  0.
<mgrwt>
<rscale>  0 0.12499954E+03</rscale>
<asrwt>0</asrwt>
<pdfrwt beam="2">  1        4 0.19269560E+00 0.12499954E+03</pdfrwt>
<pdfrwt beam="1">  1       -4 0.12669664E-02 0.12499954E+03</pdfrwt>
<totfact> 0.54654367E+02</totfact>
</mgrwt>
</event>
<event>
 5    1  0.1422067E-002  0.1250099E+03  0.7818608E-02  0.1235054E+00
          4   -1    0    0  501    0  0.00000000000E+00  0.00000000000E+00  0.41907373871E+02  0.41926613085E+02  0.12700000000E+01 0. -1.
         -4   -1    0    0    0  501 -0.00000000000E+00 -0.00000000000E+00 -0.93181369428E+02  0.93190023653E+02  0.12700000000E+01 0. -1.
         25    2    1    2    0    0  0.00000000000E+00  0.00000000000E+00 -0.51273995556E+02  0.13511663674E+03  0.12500993122E+03 0.  0.
    9000005    1    3    3    0    0 -0.28227843113E+02 -0.59497042916E+01 -0.85559820982E+02  0.90297802158E+02  0.10000000000E+01 0.  0.
    9000005    1    3    3    0    0  0.28227843113E+02  0.59497042916E+01  0.34285825426E+02  0.44818834580E+02  0.10000000000E+01 0.  0.
<mgrwt>
<rscale>  0 0.12500993E+03</rscale>
<asrwt>0</asrwt>
<pdfrwt beam="1">  1        4 0.10480330E-01 0.12500993E+03</pdfrwt>
<pdfrwt beam="2">  1       -4 0.23298829E-01 0.12500993E+03</pdfrwt>
<totfact> 0.19288560E+03</totfact>
</mgrwt>
</event>
<event>
 5    1  0.1422067E-002  0.1249920E+03  0.7818608E-02  0.1235082E+00
         -4   -1    0    0    0  501 -0.00000000000E+00  0.00000000000E+00  0.93589775139E+01  0.94447530463E+01  0.12700000000E+01 0.  1.
          4   -1    0    0  501    0  0.00000000000E+00 -0.00000000000E+00 -0.41533611447E+03  0.41533805615E+03  0.12700000000E+01 0.  1.
         25    2    1    2    0    0  0.00000000000E+00  0.00000000000E+00 -0.40597713696E+03  0.42478280920E+03  0.12499199676E+03 0.  0.
    9000005    1    3    3    0    0  0.32384287052E+02 -0.35415168273E+02 -0.66974041541E+02  0.82398412800E+02  0.10000000000E+01 0.  0.
    9000005    1    3    3    0    0 -0.32384287052E+02  0.35415168273E+02 -0.33900309542E+03  0.34238439640E+03  0.10000000000E+01 0.  0.
<mgrwt>
<rscale>  0 0.12499200E+03</rscale>
<asrwt>0</asrwt>
<pdfrwt beam="2">  1        4 0.10384493E+00 0.12499200E+03</pdfrwt>
<pdfrwt beam="1">  1       -4 0.23507104E-02 0.12499200E+03</pdfrwt>
<totfact> 0.10074452E+03</totfact>
</mgrwt>
</event>
<event>
 5    1  0.1422067E-002  0.1250051E+03  0.7818608E-02  0.1235061E+00
         -4   -1    0    0    0  501 -0.00000000000E+00  0.00000000000E+00  0.25883148427E+03  0.25883459998E+03  0.12700000000E+01 0. -1.
          4   -1    0    0  501    0  0.00000000000E+00 -0.00000000000E+00 -0.15063171438E+02  0.15116614494E+02  0.12700000000E+01 0. -1.
         25    2    1    2    0    0  0.00000000000E+00  0.00000000000E+00  0.24376831283E+03  0.27395121447E+03  0.12500511019E+03 0.  0.
    9000005    1    3    3    0    0 -0.60802747820E+02  0.12157822286E+02  0.13896994894E+03  0.15217895220E+03  0.10000000000E+01 0.  0.
    9000005    1    3    3    0    0  0.60802747820E+02 -0.12157822286E+02  0.10479836389E+03  0.12177226227E+03  0.10000000000E+01 0.  0.
<mgrwt>
<rscale>  0 0.12500511E+03</rscale>
<asrwt>0</asrwt>
<pdfrwt beam="2">  1        4 0.37728627E-02 0.12500511E+03</pdfrwt>
<pdfrwt beam="1">  1       -4 0.64714942E-01 0.12500511E+03</pdfrwt>
<totfact> 0.13732253E+03</totfact>
</mgrwt>
</event>
