<event>
 5    1  0.3196850E-002  0.1249524E+03  0.7818608E-02  0.1235144E+00
          4   -1    0    0  501    0  0.00000000000E+00  0.00000000000E+00  0.33591577000E+01  0.35912171271E+01  0.12700000000E+01 0. -1.
         -4   -1    0    0    0  501 -0.00000000000E+00 -0.00000000000E+00 -0.11229526110E+04  0.11229533291E+04  0.12700000000E+01 0. -1.
         25    2    1    2    0    0  0.00000000000E+00  0.00000000000E+00 -0.11195934533E+04  0.11265445462E+04  0.12495244726E+03 0.  0.
    9000005    1    3    3    0    0  0.37610013281E+02 -0.38708580823E+02 -0.84338744459E+03  0.84511315752E+03  0.10000000000E+01 0.  0.
    9000005    1    3    3    0    0 -0.37610013281E+02  0.38708580823E+02 -0.27620600868E+03  0.28143138872E+03  0.10000000000E+01 0.  0.
<mgrwt>
<rscale>  0 0.12495245E+03</rscale>
<asrwt>0</asrwt>
<pdfrwt beam="1">  1        4 0.53470035E-03 0.12495245E+03</pdfrwt>
<pdfrwt beam="2">  1       -4 0.17277956E+00 0.12495245E+03</pdfrwt>
<totfact> 0.26746987E+03</totfact>
</mgrwt>
</event>
<event>
 5    1  0.3196850E-002  0.1249955E+03  0.7818608E-02  0.1235076E+00
         -4   -1    0    0    0  501 -0.00000000000E+00  0.00000000000E+00  0.20518223249E+03  0.20518616286E+03  0.12700000000E+01 0. -1.
          4   -1    0    0  501    0  0.00000000000E+00 -0.00000000000E+00 -0.19011288708E+02  0.19053661022E+02  0.12700000000E+01 0. -1.
         25    2    1    2    0    0  0.00000000000E+00  0.00000000000E+00  0.18617094378E+03  0.22423982388E+03  0.12499551314E+03 0.  0.
    9000005    1    3    3    0    0  0.29174158855E+00 -0.60383974253E+02  0.64232998141E+02  0.88165682155E+02  0.10000000000E+01 0.  0.
    9000005    1    3    3    0    0 -0.29174158855E+00  0.60383974253E+02  0.12193794564E+03  0.13607414172E+03  0.10000000000E+01 0.  0.
<mgrwt>
<rscale>  0 0.12499551E+03</rscale>
<asrwt>0</asrwt>
<pdfrwt beam="2">  1        4 0.29283752E-02 0.12499551E+03</pdfrwt>
<pdfrwt beam="1">  1       -4 0.31570061E-01 0.12499551E+03</pdfrwt>
<totfact> 0.86210501E+03</totfact>
</mgrwt>
</event>
<event>
 5    1  0.3196850E-002  0.1250006E+03  0.7818608E-02  0.1235068E+00
         -4   -1    0    0    0  501 -0.00000000000E+00  0.00000000000E+00  0.79803134549E+02  0.79813239402E+02  0.12700000000E+01 0. -1.
          4   -1    0    0  501    0  0.00000000000E+00 -0.00000000000E+00 -0.48927588053E+02  0.48944067798E+02  0.12700000000E+01 0. -1.
         25    2    1    2    0    0  0.00000000000E+00  0.00000000000E+00  0.30875546497E+02  0.12875730720E+03  0.12500057914E+03 0.  0.
    9000005    1    3    3    0    0 -0.45998573142E+02 -0.41940431288E+02  0.97567970941E+01  0.63016375628E+02  0.10000000000E+01 0.  0.
    9000005    1    3    3    0    0  0.45998573142E+02  0.41940431288E+02  0.21118749403E+02  0.65740931573E+02  0.10000000000E+01 0.  0.
<mgrwt>
<rscale>  0 0.12500058E+03</rscale>
<asrwt>0</asrwt>
<pdfrwt beam="2">  1        4 0.75293663E-02 0.12500058E+03</pdfrwt>
<pdfrwt beam="1">  1       -4 0.12279450E-01 0.12500058E+03</pdfrwt>
<totfact> 0.10371029E+04</totfact>
</mgrwt>
</event>
<event>
 5    1  0.3196850E-002  0.1249999E+03  0.7818608E-02  0.1235069E+00
          4   -1    0    0  501    0  0.00000000000E+00  0.00000000000E+00  0.20752820967E+03  0.20753209562E+03  0.12700000000E+01 0.  1.
         -4   -1    0    0    0  501 -0.00000000000E+00 -0.00000000000E+00 -0.18797211468E+02  0.18840065260E+02  0.12700000000E+01 0.  1.
         25    2    1    2    0    0  0.00000000000E+00  0.00000000000E+00  0.18873099821E+03  0.22637216088E+03  0.12499986214E+03 0.  0.
    9000005    1    3    3    0    0 -0.17006648302E+02 -0.47772144886E+02  0.28225385087E+02  0.58043744510E+02  0.10000000000E+01 0.  0.
    9000005    1    3    3    0    0  0.17006648302E+02  0.47772144886E+02  0.16050561312E+03  0.16832841637E+03  0.10000000000E+01 0.  0.
<mgrwt>
<rscale>  0 0.12499986E+03</rscale>
<asrwt>0</asrwt>
<pdfrwt beam="1">  1        4 0.31931014E-01 0.12499986E+03</pdfrwt>
<pdfrwt beam="2">  1       -4 0.28954739E-02 0.12499986E+03</pdfrwt>
<totfact> 0.85870048E+03</totfact>
</mgrwt>
</event>
<event>
 5    1  0.3196850E-002  0.1250016E+03  0.7818608E-02  0.1235067E+00
          4   -1    0    0  501    0  0.00000000000E+00  0.00000000000E+00  0.15025326283E+03  0.15025863000E+03  0.12700000000E+01 0.  1.
         -4   -1    0    0    0  501 -0.00000000000E+00 -0.00000000000E+00 -0.25977110918E+02  0.26008137028E+02  0.12700000000E+01 0.  1.
         25    2    1    2    0    0  0.00000000000E+00  0.00000000000E+00  0.12427615191E+03  0.17626676703E+03  0.12500164489E+03 0.  0.
    9000005    1    3    3    0    0  0.57518992101E+02  0.15143007402E+02  0.89174359952E+02  0.10719520324E+03  0.10000000000E+01 0.  0.
    9000005    1    3    3    0    0 -0.57518992101E+02 -0.15143007402E+02  0.35101791959E+02  0.69071563789E+02  0.10000000000E+01 0.  0.
<mgrwt>
<rscale>  0 0.12500164E+03</rscale>
<asrwt>0</asrwt>
<pdfrwt beam="1">  1        4 0.23118686E-01 0.12500164E+03</pdfrwt>
<pdfrwt beam="2">  1       -4 0.39992780E-02 0.12500164E+03</pdfrwt>
<totfact> 0.94289867E+03</totfact>
</mgrwt>
</event>
<event>
 5    1  0.3196850E-002  0.1249998E+03  0.7818608E-02  0.1235070E+00
         -4   -1    0    0    0  501 -0.00000000000E+00  0.00000000000E+00  0.49959092387E+01  0.51548044698E+01  0.12700000000E+01 0.  1.
          4   -1    0    0  501    0  0.00000000000E+00 -0.00000000000E+00 -0.76948885825E+03  0.76948990628E+03  0.12700000000E+01 0.  1.
         25    2    1    2    0    0  0.00000000000E+00  0.00000000000E+00 -0.76449294901E+03  0.77464471075E+03  0.12499983524E+03 0.  0.
    9000005    1    3    3    0    0  0.15155332122E+02  0.50267977163E+02 -0.59228250355E+03  0.59460585065E+03  0.10000000000E+01 0.  0.
    9000005    1    3    3    0    0 -0.15155332122E+02 -0.50267977163E+02 -0.17221044546E+03  0.18003886010E+03  0.10000000000E+01 0.  0.
<mgrwt>
<rscale>  0 0.12499984E+03</rscale>
<asrwt>0</asrwt>
<pdfrwt beam="2">  1        4 0.11839511E+00 0.12499984E+03</pdfrwt>
<pdfrwt beam="1">  1       -4 0.78090536E-03 0.12499984E+03</pdfrwt>
<totfact> 0.39422168E+03</totfact>
</mgrwt>
</event>
<event>
 5    1  0.3196850E-002  0.1250012E+03  0.7818608E-02  0.1235067E+00
          4   -1    0    0  501    0  0.00000000000E+00  0.00000000000E+00  0.24484447641E+02  0.24517362752E+02  0.12700000000E+01 0. -1.
         -4   -1    0    0    0  501 -0.00000000000E+00 -0.00000000000E+00 -0.15940055570E+03  0.15940561489E+03  0.12700000000E+01 0. -1.
         25    2    1    2    0    0  0.00000000000E+00  0.00000000000E+00 -0.13491610806E+03  0.18392297764E+03  0.12500122195E+03 0.  0.
    9000005    1    3    3    0    0  0.39174021560E+02  0.48449757478E+02 -0.74566977815E+02  0.97176216974E+02  0.10000000000E+01 0.  0.
    9000005    1    3    3    0    0 -0.39174021560E+02 -0.48449757478E+02 -0.60349130248E+02  0.86746760669E+02  0.10000000000E+01 0.  0.
<mgrwt>
<rscale>  0 0.12500122E+03</rscale>
<asrwt>0</asrwt>
<pdfrwt beam="1">  1        4 0.37697593E-02 0.12500122E+03</pdfrwt>
<pdfrwt beam="2">  1       -4 0.24526083E-01 0.12500122E+03</pdfrwt>
<totfact> 0.92913038E+03</totfact>
</mgrwt>
</event>
<event>
 5    1  0.3196850E-002  0.1250003E+03  0.7818608E-02  0.1235069E+00
         -4   -1    0    0    0  501 -0.00000000000E+00  0.00000000000E+00  0.31807546979E+02  0.31832890928E+02  0.12700000000E+01 0.  1.
          4   -1    0    0  501    0  0.00000000000E+00 -0.00000000000E+00 -0.12273198403E+03  0.12273855468E+03  0.12700000000E+01 0.  1.
         25    2    1    2    0    0  0.00000000000E+00  0.00000000000E+00 -0.90924437052E+02  0.15457144561E+03  0.12500031417E+03 0.  0.
    9000005    1    3    3    0    0 -0.28421657080E+02  0.78342869228E+01  0.22673746927E+02  0.37205717873E+02  0.10000000000E+01 0.  0.
    9000005    1    3    3    0    0  0.28421657080E+02 -0.78342869228E+01 -0.11359818398E+03  0.11736572773E+03  0.10000000000E+01 0.  0.
<mgrwt>
<rscale>  0 0.12500031E+03</rscale>
<asrwt>0</asrwt>
<pdfrwt beam="2">  1        4 0.18884298E-01 0.12500031E+03</pdfrwt>
<pdfrwt beam="1">  1       -4 0.48959238E-02 0.12500031E+03</pdfrwt>
<totfact> 0.98399000E+03</totfact>
</mgrwt>
</event>
<event>
 5    1  0.3196850E-002  0.1249953E+03  0.7818608E-02  0.1235077E+00
         -4   -1    0    0    0  501 -0.00000000000E+00  0.00000000000E+00  0.31157979650E+02  0.31183851524E+02  0.12700000000E+01 0.  1.
          4   -1    0    0  501    0  0.00000000000E+00 -0.00000000000E+00 -0.12527854648E+03  0.12528498357E+03  0.12700000000E+01 0.  1.
         25    2    1    2    0    0  0.00000000000E+00  0.00000000000E+00 -0.94120566828E+02  0.15646883509E+03  0.12499526093E+03 0.  0.
    9000005    1    3    3    0    0  0.26133938974E+02  0.53259781888E+02 -0.71634030429E+02  0.93016242928E+02  0.10000000000E+01 0.  0.
    9000005    1    3    3    0    0 -0.26133938974E+02 -0.53259781888E+02 -0.22486536399E+02  0.63452592164E+02  0.10000000000E+01 0.  0.
<mgrwt>
<rscale>  0 0.12499526E+03</rscale>
<asrwt>0</asrwt>
<pdfrwt beam="2">  1        4 0.19276108E-01 0.12499526E+03</pdfrwt>
<pdfrwt beam="1">  1       -4 0.47960207E-02 0.12499526E+03</pdfrwt>
<totfact> 0.98038365E+03</totfact>
</mgrwt>
</event>
<event>
 5    1  0.3196850E-002  0.1250015E+03  0.7818608E-02  0.1235067E+00
          4   -1    0    0  501    0  0.00000000000E+00  0.00000000000E+00  0.55629275839E+02  0.55643770814E+02  0.12700000000E+01 0.  1.
         -4   -1    0    0    0  501 -0.00000000000E+00 -0.00000000000E+00 -0.70191566980E+02  0.70203055312E+02  0.12700000000E+01 0.  1.
         25    2    1    2    0    0  0.00000000000E+00  0.00000000000E+00 -0.14562291141E+02  0.12584682613E+03  0.12500145328E+03 0.  0.
    9000005    1    3    3    0    0 -0.16526194966E+02 -0.29004548681E+02 -0.60467981642E+02  0.69077896379E+02  0.10000000000E+01 0.  0.
    9000005    1    3    3    0    0  0.16526194966E+02  0.29004548681E+02  0.45905690501E+02  0.56768929747E+02  0.10000000000E+01 0.  0.
<mgrwt>
<rscale>  0 0.12500145E+03</rscale>
<asrwt>0</asrwt>
<pdfrwt beam="1">  1        4 0.85603488E-02 0.12500145E+03</pdfrwt>
<pdfrwt beam="2">  1       -4 0.10800701E-01 0.12500145E+03</pdfrwt>
<totfact> 0.10433975E+04</totfact>
</mgrwt>
</event>
<event>
 5    1  0.3196850E-002  0.1249996E+03  0.7818608E-02  0.1235070E+00
         -4   -1    0    0    0  501 -0.00000000000E+00  0.00000000000E+00  0.31657203482E+01  0.34109654532E+01  0.12700000000E+01 0. -1.
          4   -1    0    0  501    0  0.00000000000E+00 -0.00000000000E+00 -0.11876553642E+04  0.11876560432E+04  0.12700000000E+01 0. -1.
         25    2    1    2    0    0  0.00000000000E+00  0.00000000000E+00 -0.11844896438E+04  0.11910670087E+04  0.12499961109E+03 0.  0.
    9000005    1    3    3    0    0  0.54463381984E+02  0.21517922733E+02 -0.80012151001E+03  0.80226224625E+03  0.10000000000E+01 0.  0.
    9000005    1    3    3    0    0 -0.54463381984E+02 -0.21517922733E+02 -0.38436813383E+03  0.38880476242E+03  0.10000000000E+01 0.  0.
<mgrwt>
<rscale>  0 0.12499961E+03</rscale>
<asrwt>0</asrwt>
<pdfrwt beam="2">  1        4 0.18273478E+00 0.12499961E+03</pdfrwt>
<pdfrwt beam="1">  1       -4 0.50595209E-03 0.12499961E+03</pdfrwt>
<totfact> 0.24948042E+03</totfact>
</mgrwt>
</event>
<event>
 5    1  0.3196850E-002  0.1250001E+03  0.7818608E-02  0.1235069E+00
          4   -1    0    0  501    0  0.00000000000E+00  0.00000000000E+00  0.25924852003E+03  0.25925163073E+03  0.12700000000E+01 0.  1.
         -4   -1    0    0    0  501 -0.00000000000E+00 -0.00000000000E+00 -0.15037649789E+02  0.15091183227E+02  0.12700000000E+01 0.  1.
         25    2    1    2    0    0  0.00000000000E+00  0.00000000000E+00  0.24421087024E+03  0.27434281396E+03  0.12500012171E+03 0.  0.
    9000005    1    3    3    0    0 -0.43751949118E+02  0.20251719353E+02  0.34841596842E+02  0.59492033575E+02  0.10000000000E+01 0.  0.
    9000005    1    3    3    0    0  0.43751949118E+02 -0.20251719353E+02  0.20936927340E+03  0.21485078038E+03  0.10000000000E+01 0.  0.
<mgrwt>
<rscale>  0 0.12500012E+03</rscale>
<asrwt>0</asrwt>
<pdfrwt beam="1">  1        4 0.39888742E-01 0.12500012E+03</pdfrwt>
<pdfrwt beam="2">  1       -4 0.23178420E-02 0.12500012E+03</pdfrwt>
<totfact> 0.78934024E+03</totfact>
</mgrwt>
</event>
<event>
 5    1  0.3196850E-002  0.1249999E+03  0.7818608E-02  0.1235070E+00
          4   -1    0    0  501    0  0.00000000000E+00  0.00000000000E+00  0.65610276069E+02  0.65622566438E+02  0.12700000000E+01 0.  1.
         -4   -1    0    0    0  501 -0.00000000000E+00 -0.00000000000E+00 -0.59512384789E+02  0.59525934207E+02  0.12700000000E+01 0.  1.
         25    2    1    2    0    0  0.00000000000E+00  0.00000000000E+00  0.60978912807E+01  0.12514850064E+03  0.12499985174E+03 0.  0.
    9000005    1    3    3    0    0  0.41148174928E+02 -0.36709414515E+02  0.32486075704E+02  0.64008581679E+02  0.10000000000E+01 0.  0.
    9000005    1    3    3    0    0 -0.41148174928E+02  0.36709414515E+02 -0.26388184423E+02  0.61139918966E+02  0.10000000000E+01 0.  0.
<mgrwt>
<rscale>  0 0.12499985E+03</rscale>
<asrwt>0</asrwt>
<pdfrwt beam="1">  1        4 0.10095876E-01 0.12499985E+03</pdfrwt>
<pdfrwt beam="2">  1       -4 0.91577392E-02 0.12499985E+03</pdfrwt>
<totfact> 0.10449673E+04</totfact>
</mgrwt>
</event>
<event>
 5    1  0.3196850E-002  0.1250020E+03  0.7818608E-02  0.1235066E+00
          4   -1    0    0  501    0  0.00000000000E+00  0.00000000000E+00  0.79847004553E+02  0.79857103855E+02  0.12700000000E+01 0.  1.
         -4   -1    0    0    0  501 -0.00000000000E+00 -0.00000000000E+00 -0.48901822327E+02  0.48918310753E+02  0.12700000000E+01 0.  1.
         25    2    1    2    0    0  0.00000000000E+00  0.00000000000E+00  0.30945182226E+02  0.12877541461E+03  0.12500201240E+03 0.  0.
    9000005    1    3    3    0    0 -0.16457790547E+02 -0.46801142227E+02  0.54621991115E+02  0.73795444960E+02  0.10000000000E+01 0.  0.
    9000005    1    3    3    0    0  0.16457790547E+02  0.46801142227E+02 -0.23676808889E+02  0.54979969649E+02  0.10000000000E+01 0.  0.
<mgrwt>
<rscale>  0 0.12500201E+03</rscale>
<asrwt>0</asrwt>
<pdfrwt beam="1">  1        4 0.12286200E-01 0.12500201E+03</pdfrwt>
<pdfrwt beam="2">  1       -4 0.75254025E-02 0.12500201E+03</pdfrwt>
<totfact> 0.10370304E+04</totfact>
</mgrwt>
</event>
<event>
 5    1  0.3196850E-002  0.1250005E+03  0.7818608E-02  0.1235068E+00
         -4   -1    0    0    0  501 -0.00000000000E+00  0.00000000000E+00  0.33000007757E+03  0.33000252135E+03  0.12700000000E+01 0. -1.
          4   -1    0    0  501    0  0.00000000000E+00 -0.00000000000E+00 -0.11800659842E+02  0.11868802497E+02  0.12700000000E+01 0. -1.
         25    2    1    2    0    0  0.00000000000E+00  0.00000000000E+00  0.31819941773E+03  0.34187132385E+03  0.12500053050E+03 0.  0.
    9000005    1    3    3    0    0 -0.57287524779E+01  0.58497210068E+02  0.21715181229E+03  0.22496811279E+03  0.10000000000E+01 0.  0.
    9000005    1    3    3    0    0  0.57287524779E+01 -0.58497210068E+02  0.10104760544E+03  0.11690321106E+03  0.10000000000E+01 0.  0.
<mgrwt>
<rscale>  0 0.12500053E+03</rscale>
<asrwt>0</asrwt>
<pdfrwt beam="2">  1        4 0.18209163E-02 0.12500053E+03</pdfrwt>
<pdfrwt beam="1">  1       -4 0.50774659E-01 0.12500053E+03</pdfrwt>
<totfact> 0.70627343E+03</totfact>
</mgrwt>
</event>
<event>
 5    1  0.3196850E-002  0.1249996E+03  0.7818608E-02  0.1235070E+00
          4   -1    0    0  501    0  0.00000000000E+00  0.00000000000E+00  0.53481274647E+02  0.53496351631E+02  0.12700000000E+01 0. -1.
         -4   -1    0    0    0  501 -0.00000000000E+00 -0.00000000000E+00 -0.73008274455E+02  0.73019319628E+02  0.12700000000E+01 0. -1.
         25    2    1    2    0    0  0.00000000000E+00  0.00000000000E+00 -0.19526999808E+02  0.12651567126E+03  0.12499964541E+03 0.  0.
    9000005    1    3    3    0    0  0.61704772469E+02 -0.96713237912E+01 -0.11841295612E+02  0.63578531999E+02  0.10000000000E+01 0.  0.
    9000005    1    3    3    0    0 -0.61704772469E+02  0.96713237912E+01 -0.76857041963E+01  0.62937139261E+02  0.10000000000E+01 0.  0.
<mgrwt>
<rscale>  0 0.12499965E+03</rscale>
<asrwt>0</asrwt>
<pdfrwt beam="1">  1        4 0.82298978E-02 0.12499965E+03</pdfrwt>
<pdfrwt beam="2">  1       -4 0.11234052E-01 0.12499965E+03</pdfrwt>
<totfact> 0.10419770E+04</totfact>
</mgrwt>
</event>
<event>
 5    1  0.3196850E-002  0.1249919E+03  0.7818608E-02  0.1235082E+00
         -4   -1    0    0    0  501 -0.00000000000E+00  0.00000000000E+00  0.20334055933E+03  0.20334452530E+03  0.12700000000E+01 0. -1.
          4   -1    0    0  501    0  0.00000000000E+00 -0.00000000000E+00 -0.19182749915E+02  0.19224744324E+02  0.12700000000E+01 0. -1.
         25    2    1    2    0    0  0.00000000000E+00  0.00000000000E+00  0.18415780941E+03  0.22256926962E+03  0.12499192378E+03 0.  0.
    9000005    1    3    3    0    0 -0.35237669394E+02 -0.21471964475E+01  0.18389034460E+03  0.18725106844E+03  0.10000000000E+01 0.  0.
    9000005    1    3    3    0    0  0.35237669394E+02  0.21471964475E+01  0.26746481557E+00  0.35318201176E+02  0.10000000000E+01 0.  0.
<mgrwt>
<rscale>  0 0.12499192E+03</rscale>
<asrwt>0</asrwt>
<pdfrwt beam="2">  1        4 0.29547277E-02 0.12499192E+03</pdfrwt>
<pdfrwt beam="1">  1       -4 0.31286699E-01 0.12499192E+03</pdfrwt>
<totfact> 0.86479017E+03</totfact>
</mgrwt>
</event>
<event>
 5    1  0.3196850E-002  0.1249974E+03  0.7818608E-02  0.1235073E+00
          4   -1    0    0  501    0  0.00000000000E+00  0.00000000000E+00  0.90852544696E+03  0.90852633461E+03  0.12700000000E+01 0.  1.
         -4   -1    0    0    0  501 -0.00000000000E+00 -0.00000000000E+00 -0.42046715050E+01  0.43922844244E+01  0.12700000000E+01 0.  1.
         25    2    1    2    0    0  0.00000000000E+00  0.00000000000E+00  0.90432077546E+03  0.91291861903E+03  0.12499736019E+03 0.  0.
    9000005    1    3    3    0    0 -0.12814036894E+01  0.62295441707E+02  0.48697363765E+03  0.49094468916E+03  0.10000000000E+01 0.  0.
    9000005    1    3    3    0    0  0.12814036894E+01 -0.62295441707E+02  0.41734713781E+03  0.42197392987E+03  0.10000000000E+01 0.  0.
<mgrwt>
<rscale>  0 0.12499736E+03</rscale>
<asrwt>0</asrwt>
<pdfrwt beam="1">  1        4 0.13978785E+00 0.12499736E+03</pdfrwt>
<pdfrwt beam="2">  1       -4 0.66137160E-03 0.12499736E+03</pdfrwt>
<totfact> 0.33671948E+03</totfact>
</mgrwt>
</event>
<event>
 5    1  0.3196850E-002  0.1250147E+03  0.7818608E-02  0.1235046E+00
         -4   -1    0    0    0  501 -0.00000000000E+00  0.00000000000E+00  0.19960432269E+03  0.19960836289E+03  0.12700000000E+01 0.  1.
          4   -1    0    0  501    0  0.00000000000E+00 -0.00000000000E+00 -0.19549728667E+02  0.19590936449E+02  0.12700000000E+01 0.  1.
         25    2    1    2    0    0  0.00000000000E+00  0.00000000000E+00  0.18005459402E+03  0.21919929934E+03  0.12501470315E+03 0.  0.
    9000005    1    3    3    0    0  0.12589420211E+02  0.50263819270E+02  0.28753368158E+02  0.59268045431E+02  0.10000000000E+01 0.  0.
    9000005    1    3    3    0    0 -0.12589420211E+02 -0.50263819270E+02  0.15130122587E+03  0.15993125391E+03  0.10000000000E+01 0.  0.
<mgrwt>
<rscale>  0 0.12501470E+03</rscale>
<asrwt>0</asrwt>
<pdfrwt beam="2">  1        4 0.30111312E-02 0.12501470E+03</pdfrwt>
<pdfrwt beam="1">  1       -4 0.30711837E-01 0.12501470E+03</pdfrwt>
<totfact> 0.86966642E+03</totfact>
</mgrwt>
</event>
<event>
 5    1  0.3196850E-002  0.1250005E+03  0.7818608E-02  0.1235069E+00
         -4   -1    0    0    0  501 -0.00000000000E+00  0.00000000000E+00  0.95932649392E+01  0.96769639967E+01  0.12700000000E+01 0.  1.
          4   -1    0    0  501    0  0.00000000000E+00 -0.00000000000E+00 -0.40533662181E+03  0.40533861139E+03  0.12700000000E+01 0.  1.
         25    2    1    2    0    0  0.00000000000E+00  0.00000000000E+00 -0.39574335687E+03  0.41501557539E+03  0.12500049321E+03 0.  0.
    9000005    1    3    3    0    0  0.49997446535E+02 -0.35359207516E+01 -0.32178940546E+03  0.32567110536E+03  0.10000000000E+01 0.  0.
    9000005    1    3    3    0    0 -0.49997446535E+02  0.35359207516E+01 -0.73953951411E+02  0.89344470030E+02  0.10000000000E+01 0.  0.
<mgrwt>
<rscale>  0 0.12500049E+03</rscale>
<asrwt>0</asrwt>
<pdfrwt beam="2">  1        4 0.62366058E-01 0.12500049E+03</pdfrwt>
<pdfrwt beam="1">  1       -4 0.14824787E-02 0.12500049E+03</pdfrwt>
<totfact> 0.63117450E+03</totfact>
</mgrwt>
</event>
<event>
 5    1  0.3196850E-002  0.1249992E+03  0.7818608E-02  0.1235071E+00
          4   -1    0    0  501    0  0.00000000000E+00  0.00000000000E+00  0.62076972822E+02  0.62089962592E+02  0.12700000000E+01 0.  1.
         -4   -1    0    0    0  501 -0.00000000000E+00 -0.00000000000E+00 -0.62899106981E+02  0.62911927001E+02  0.12700000000E+01 0.  1.
         25    2    1    2    0    0  0.00000000000E+00  0.00000000000E+00 -0.82213415898E+00  0.12500188959E+03  0.12499918599E+03 0.  0.
    9000005    1    3    3    0    0  0.52692176365E+02 -0.59122990106E+01 -0.33484103074E+02  0.62718465289E+02  0.10000000000E+01 0.  0.
    9000005    1    3    3    0    0 -0.52692176365E+02  0.59122990106E+01  0.32661968915E+02  0.62283424304E+02  0.10000000000E+01 0.  0.
<mgrwt>
<rscale>  0 0.12499919E+03</rscale>
<asrwt>0</asrwt>
<pdfrwt beam="1">  1        4 0.95522889E-02 0.12499919E+03</pdfrwt>
<pdfrwt beam="2">  1       -4 0.96787711E-02 0.12499919E+03</pdfrwt>
<totfact> 0.10453014E+04</totfact>
</mgrwt>
</event>
<event>
 5    1  0.3196850E-002  0.1250000E+03  0.7818608E-02  0.1235069E+00
         -4   -1    0    0    0  501 -0.00000000000E+00  0.00000000000E+00  0.21911304128E+02  0.21948078472E+02  0.12700000000E+01 0. -1.
          4   -1    0    0  501    0  0.00000000000E+00 -0.00000000000E+00 -0.17808716069E+03  0.17809168903E+03  0.12700000000E+01 0. -1.
         25    2    1    2    0    0  0.00000000000E+00  0.00000000000E+00 -0.15617585656E+03  0.20003976750E+03  0.12500004164E+03 0.  0.
    9000005    1    3    3    0    0  0.36847770150E+02  0.48234372022E+02 -0.54300737536E+02  0.81448651961E+02  0.10000000000E+01 0.  0.
    9000005    1    3    3    0    0 -0.36847770150E+02 -0.48234372022E+02 -0.10187511902E+03  0.11859111554E+03  0.10000000000E+01 0.  0.
<mgrwt>
<rscale>  0 0.12500004E+03</rscale>
<asrwt>0</asrwt>
<pdfrwt beam="2">  1        4 0.27401201E-01 0.12500004E+03</pdfrwt>
<pdfrwt beam="1">  1       -4 0.33741471E-02 0.12500004E+03</pdfrwt>
<totfact> 0.90128716E+03</totfact>
</mgrwt>
</event>
<event>
 5    1  0.3196850E-002  0.1249972E+03  0.7818608E-02  0.1235074E+00
         -4   -1    0    0    0  501 -0.00000000000E+00  0.00000000000E+00  0.13338178273E+01  0.18417301638E+01  0.12700000000E+01 0. -1.
          4   -1    0    0  501    0  0.00000000000E+00 -0.00000000000E+00 -0.24595858254E+04  0.24595861532E+04  0.12700000000E+01 0. -1.
         25    2    1    2    0    0  0.00000000000E+00  0.00000000000E+00 -0.24582520075E+04  0.24614278834E+04  0.12499717061E+03 0.  0.
    9000005    1    3    3    0    0  0.53149712851E+02  0.13175995039E+00 -0.18763159296E+04  0.18770688258E+04  0.10000000000E+01 0.  0.
    9000005    1    3    3    0    0 -0.53149712851E+02 -0.13175995039E+00 -0.58193607796E+03  0.58435905758E+03  0.10000000000E+01 0.  0.
<mgrwt>
<rscale>  0 0.12499717E+03</rscale>
<asrwt>0</asrwt>
<pdfrwt beam="2">  1        4 0.37843387E+00 0.12499717E+03</pdfrwt>
<pdfrwt beam="1">  1       -4 0.24430011E-03 0.12499717E+03</pdfrwt>
<totfact> 0.49800046E+02</totfact>
</mgrwt>
</event>
<event>
 5    1  0.3196850E-002  0.1249973E+03  0.7818608E-02  0.1235074E+00
          4   -1    0    0  501    0  0.00000000000E+00  0.00000000000E+00  0.19820788998E+02  0.19861434402E+02  0.12700000000E+01 0. -1.
         -4   -1    0    0    0  501 -0.00000000000E+00 -0.00000000000E+00 -0.19682522436E+03  0.19682932161E+03  0.12700000000E+01 0. -1.
         25    2    1    2    0    0  0.00000000000E+00  0.00000000000E+00 -0.17700443536E+03  0.21669075601E+03  0.12499725438E+03 0.  0.
    9000005    1    3    3    0    0  0.33014441880E+02 -0.20948338011E+02 -0.39957733280E+01  0.39316058329E+02  0.10000000000E+01 0.  0.
    9000005    1    3    3    0    0 -0.33014441880E+02  0.20948338011E+02 -0.17300866204E+03  0.17737469768E+03  0.10000000000E+01 0.  0.
<mgrwt>
<rscale>  0 0.12499725E+03</rscale>
<asrwt>0</asrwt>
<pdfrwt beam="1">  1        4 0.30527940E-02 0.12499725E+03</pdfrwt>
<pdfrwt beam="2">  1       -4 0.30284244E-01 0.12499725E+03</pdfrwt>
<totfact> 0.87400080E+03</totfact>
</mgrwt>
</event>
<event>
 5    1  0.3196850E-002  0.1249953E+03  0.7818608E-02  0.1235077E+00
          4   -1    0    0  501    0  0.00000000000E+00  0.00000000000E+00  0.25320866647E+02  0.25352695868E+02  0.12700000000E+01 0.  1.
         -4   -1    0    0    0  501 -0.00000000000E+00 -0.00000000000E+00 -0.15412700164E+03  0.15413223392E+03  0.12700000000E+01 0.  1.
         25    2    1    2    0    0  0.00000000000E+00  0.00000000000E+00 -0.12880613499E+03  0.17948492979E+03  0.12499527835E+03 0.  0.
    9000005    1    3    3    0    0  0.33909689732E+02  0.50422320310E+02 -0.85343956421E+02  0.10477055092E+03  0.10000000000E+01 0.  0.
    9000005    1    3    3    0    0 -0.33909689732E+02 -0.50422320310E+02 -0.43462178567E+02  0.74714378864E+02  0.10000000000E+01 0.  0.
<mgrwt>
<rscale>  0 0.12499528E+03</rscale>
<asrwt>0</asrwt>
<pdfrwt beam="1">  1        4 0.38983689E-02 0.12499528E+03</pdfrwt>
<pdfrwt beam="2">  1       -4 0.23714697E-01 0.12499528E+03</pdfrwt>
<totfact> 0.93719722E+03</totfact>
</mgrwt>
</event>
<event>
 5    1  0.3196850E-002  0.1250080E+03  0.7818608E-02  0.1235057E+00
          4   -1    0    0  501    0  0.00000000000E+00  0.00000000000E+00  0.90098588615E+01  0.90989261292E+01  0.12700000000E+01 0. -1.
         -4   -1    0    0    0  501 -0.00000000000E+00 -0.00000000000E+00 -0.43138534761E+03  0.43138721705E+03  0.12700000000E+01 0. -1.
         25    2    1    2    0    0  0.00000000000E+00  0.00000000000E+00 -0.42237548875E+03  0.44048614318E+03  0.12500795509E+03 0.  0.
    9000005    1    3    3    0    0 -0.54441783832E+02 -0.98380658900E+01 -0.31361989151E+03  0.31846370549E+03  0.10000000000E+01 0.  0.
    9000005    1    3    3    0    0  0.54441783832E+02  0.98380658900E+01 -0.10875559724E+03  0.12202243769E+03  0.10000000000E+01 0.  0.
<mgrwt>
<rscale>  0 0.12500796E+03</rscale>
<asrwt>0</asrwt>
<pdfrwt beam="1">  1        4 0.13931276E-02 0.12500796E+03</pdfrwt>
<pdfrwt beam="2">  1       -4 0.66373956E-01 0.12500796E+03</pdfrwt>
<totfact> 0.60786202E+03</totfact>
</mgrwt>
</event>
<event>
 5    1  0.3196850E-002  0.1249974E+03  0.7818608E-02  0.1235073E+00
         -4   -1    0    0    0  501 -0.00000000000E+00  0.00000000000E+00  0.12833815180E+02  0.12896499993E+02  0.12700000000E+01 0.  1.
          4   -1    0    0  501    0  0.00000000000E+00 -0.00000000000E+00 -0.30355331447E+03  0.30355597116E+03  0.12700000000E+01 0.  1.
         25    2    1    2    0    0  0.00000000000E+00  0.00000000000E+00 -0.29071949929E+03  0.31645247116E+03  0.12499735690E+03 0.  0.
    9000005    1    3    3    0    0 -0.25284252598E+02 -0.14743388778E+01 -0.73011081094E+00  0.25357447946E+02  0.10000000000E+01 0.  0.
    9000005    1    3    3    0    0  0.25284252598E+02  0.14743388778E+01 -0.28998938848E+03  0.29109502321E+03  0.10000000000E+01 0.  0.
<mgrwt>
<rscale>  0 0.12499736E+03</rscale>
<asrwt>0</asrwt>
<pdfrwt beam="2">  1        4 0.46705531E-01 0.12499736E+03</pdfrwt>
<pdfrwt beam="1">  1       -4 0.19794596E-02 0.12499736E+03</pdfrwt>
<totfact> 0.73584367E+03</totfact>
</mgrwt>
</event>
<event>
 5    1  0.3196850E-002  0.1249993E+03  0.7818608E-02  0.1235070E+00
          4   -1    0    0  501    0  0.00000000000E+00  0.00000000000E+00  0.52548135306E+03  0.52548288774E+03  0.12700000000E+01 0.  1.
         -4   -1    0    0    0  501 -0.00000000000E+00 -0.00000000000E+00 -0.73777746001E+01  0.74862846627E+01  0.12700000000E+01 0.  1.
         25    2    1    2    0    0  0.00000000000E+00  0.00000000000E+00  0.51810357846E+03  0.53296917241E+03  0.12499928290E+03 0.  0.
    9000005    1    3    3    0    0  0.51373171544E+02  0.33983581915E+02  0.30399746589E+03  0.31017663655E+03  0.10000000000E+01 0.  0.
    9000005    1    3    3    0    0 -0.51373171544E+02 -0.33983581915E+02  0.21410611257E+03  0.22279253586E+03  0.10000000000E+01 0.  0.
<mgrwt>
<rscale>  0 0.12499928E+03</rscale>
<asrwt>0</asrwt>
<pdfrwt beam="1">  1        4 0.80851753E-01 0.12499928E+03</pdfrwt>
<pdfrwt beam="2">  1       -4 0.11435072E-02 0.12499928E+03</pdfrwt>
<totfact> 0.53394965E+03</totfact>
</mgrwt>
</event>
<event>
 5    1  0.3196850E-002  0.1250096E+03  0.7818608E-02  0.1235054E+00
         -4   -1    0    0    0  501 -0.00000000000E+00  0.00000000000E+00  0.54841459924E+01  0.56292767978E+01  0.12700000000E+01 0.  1.
          4   -1    0    0  501    0  0.00000000000E+00 -0.00000000000E+00 -0.70294088792E+03  0.70294203517E+03  0.12700000000E+01 0.  1.
         25    2    1    2    0    0  0.00000000000E+00  0.00000000000E+00 -0.69745674192E+03  0.70857131196E+03  0.12500958877E+03 0.  0.
    9000005    1    3    3    0    0 -0.58918136232E+01  0.21697971138E+01  0.37197445141E+01  0.73660020727E+01  0.10000000000E+01 0.  0.
    9000005    1    3    3    0    0  0.58918136232E+01 -0.21697971138E+01 -0.70117648644E+03  0.70120530989E+03  0.10000000000E+01 0.  0.
<mgrwt>
<rscale>  0 0.12500959E+03</rscale>
<asrwt>0</asrwt>
<pdfrwt beam="2">  1        4 0.10815593E+00 0.12500959E+03</pdfrwt>
<pdfrwt beam="1">  1       -4 0.85496748E-03 0.12500959E+03</pdfrwt>
<totfact> 0.42629156E+03</totfact>
</mgrwt>
</event>
<event>
 5    1  0.3196850E-002  0.1249958E+03  0.7818608E-02  0.1235076E+00
          4   -1    0    0  501    0  0.00000000000E+00  0.00000000000E+00  0.10398299168E+03  0.10399074698E+03  0.12700000000E+01 0.  1.
         -4   -1    0    0    0  501 -0.00000000000E+00 -0.00000000000E+00 -0.37543792815E+02  0.37565266923E+02  0.12700000000E+01 0.  1.
         25    2    1    2    0    0  0.00000000000E+00  0.00000000000E+00  0.66439198863E+02  0.14155601391E+03  0.12499575164E+03 0.  0.
    9000005    1    3    3    0    0  0.13270526125E+01  0.47714410675E+02 -0.12454280555E+02  0.49341008895E+02  0.10000000000E+01 0.  0.
    9000005    1    3    3    0    0 -0.13270526125E+01 -0.47714410675E+02  0.78893479418E+02  0.92215005012E+02  0.10000000000E+01 0.  0.
<mgrwt>
<rscale>  0 0.12499575E+03</rscale>
<asrwt>0</asrwt>
<pdfrwt beam="1">  1        4 0.15999631E-01 0.12499575E+03</pdfrwt>
<pdfrwt beam="2">  1       -4 0.57782167E-02 0.12499575E+03</pdfrwt>
<totfact> 0.10102405E+04</totfact>
</mgrwt>
</event>
<event>
 5    1  0.3196850E-002  0.1249952E+03  0.7818608E-02  0.1235077E+00
          4   -1    0    0  501    0  0.00000000000E+00  0.00000000000E+00  0.40621289618E+03  0.40621488146E+03  0.12700000000E+01 0. -1.
         -4   -1    0    0    0  501 -0.00000000000E+00 -0.00000000000E+00 -0.95715758378E+01  0.96554629107E+01  0.12700000000E+01 0. -1.
         25    2    1    2    0    0  0.00000000000E+00  0.00000000000E+00  0.39664132034E+03  0.41587034438E+03  0.12499522522E+03 0.  0.
    9000005    1    3    3    0    0  0.36924865742E+02 -0.68000486999E+01  0.32123773362E+02  0.49422901447E+02  0.10000000000E+01 0.  0.
    9000005    1    3    3    0    0 -0.36924865742E+02  0.68000486999E+01  0.36451754698E+03  0.36644744293E+03  0.10000000000E+01 0.  0.
<mgrwt>
<rscale>  0 0.12499523E+03</rscale>
<asrwt>0</asrwt>
<pdfrwt beam="1">  1        4 0.62500898E-01 0.12499523E+03</pdfrwt>
<pdfrwt beam="2">  1       -4 0.14791557E-02 0.12499523E+03</pdfrwt>
<totfact> 0.63044620E+03</totfact>
</mgrwt>
</event>
<event>
 5    1  0.3196850E-002  0.1250004E+03  0.7818608E-02  0.1235069E+00
          4   -1    0    0  501    0  0.00000000000E+00  0.00000000000E+00  0.28140325594E+02  0.28168969178E+02  0.12700000000E+01 0.  1.
         -4   -1    0    0    0  501 -0.00000000000E+00 -0.00000000000E+00 -0.13871201192E+03  0.13871782564E+03  0.12700000000E+01 0.  1.
         25    2    1    2    0    0  0.00000000000E+00  0.00000000000E+00 -0.11057168633E+03  0.16688679482E+03  0.12500041787E+03 0.  0.
    9000005    1    3    3    0    0 -0.39870290226E+01 -0.57378327493E+02 -0.87909803572E+02  0.10505856667E+03  0.10000000000E+01 0.  0.
    9000005    1    3    3    0    0  0.39870290226E+01  0.57378327493E+02 -0.22661882753E+02  0.61828228151E+02  0.10000000000E+01 0.  0.
<mgrwt>
<rscale>  0 0.12500042E+03</rscale>
<asrwt>0</asrwt>
<pdfrwt beam="1">  1        4 0.43319315E-02 0.12500042E+03</pdfrwt>
<pdfrwt beam="2">  1       -4 0.21342960E-01 0.12500042E+03</pdfrwt>
<totfact> 0.96030351E+03</totfact>
</mgrwt>
</event>
<event>
 5    1  0.3196850E-002  0.1250036E+03  0.7818608E-02  0.1235064E+00
          4   -1    0    0  501    0  0.00000000000E+00  0.00000000000E+00  0.22349414626E+02  0.22385469263E+02  0.12700000000E+01 0.  1.
         -4   -1    0    0    0  501 -0.00000000000E+00 -0.00000000000E+00 -0.17461161935E+03  0.17461623783E+03  0.12700000000E+01 0.  1.
         25    2    1    2    0    0  0.00000000000E+00  0.00000000000E+00 -0.15226220473E+03  0.19700170709E+03  0.12500357438E+03 0.  0.
    9000005    1    3    3    0    0  0.58396228626E+01 -0.50952683401E+02 -0.19853436924E+02  0.55003964390E+02  0.10000000000E+01 0.  0.
    9000005    1    3    3    0    0 -0.58396228626E+01  0.50952683401E+02 -0.13240876780E+03  0.14199774270E+03  0.10000000000E+01 0.  0.
<mgrwt>
<rscale>  0 0.12500357E+03</rscale>
<asrwt>0</asrwt>
<pdfrwt beam="1">  1        4 0.34415003E-02 0.12500357E+03</pdfrwt>
<pdfrwt beam="2">  1       -4 0.26866454E-01 0.12500357E+03</pdfrwt>
<totfact> 0.90635859E+03</totfact>
</mgrwt>
</event>
<event>
 5    1  0.3196850E-002  0.1249972E+03  0.7818608E-02  0.1235074E+00
         -4   -1    0    0    0  501 -0.00000000000E+00  0.00000000000E+00  0.10736480392E+03  0.10737231496E+03  0.12700000000E+01 0.  1.
          4   -1    0    0  501    0  0.00000000000E+00 -0.00000000000E+00 -0.36361449881E+02  0.36383621830E+02  0.12700000000E+01 0.  1.
         25    2    1    2    0    0  0.00000000000E+00  0.00000000000E+00  0.71003354036E+02  0.14375593679E+03  0.12499717228E+03 0.  0.
    9000005    1    3    3    0    0 -0.97488896295E+01 -0.66679894217E+01 -0.35071713554E+02  0.37020643208E+02  0.10000000000E+01 0.  0.
    9000005    1    3    3    0    0  0.97488896295E+01  0.66679894217E+01  0.10607506759E+03  0.10673529358E+03  0.10000000000E+01 0.  0.
<mgrwt>
<rscale>  0 0.12499717E+03</rscale>
<asrwt>0</asrwt>
<pdfrwt beam="2">  1        4 0.55963526E-02 0.12499717E+03</pdfrwt>
<pdfrwt beam="1">  1       -4 0.16519945E-01 0.12499717E+03</pdfrwt>
<totfact> 0.10056967E+04</totfact>
</mgrwt>
</event>
<event>
 5    1  0.3196850E-002  0.1250017E+03  0.7818608E-02  0.1235067E+00
          4   -1    0    0  501    0  0.00000000000E+00  0.00000000000E+00  0.16140774069E+02  0.16190660504E+02  0.12700000000E+01 0.  1.
         -4   -1    0    0    0  501 -0.00000000000E+00 -0.00000000000E+00 -0.24159302916E+03  0.24159636719E+03  0.12700000000E+01 0.  1.
         25    2    1    2    0    0  0.00000000000E+00  0.00000000000E+00 -0.22545225509E+03  0.25778702770E+03  0.12500172927E+03 0.  0.
    9000005    1    3    3    0    0  0.46072447560E+02  0.55907386319E+01 -0.19903224721E+03  0.20437407422E+03  0.10000000000E+01 0.  0.
    9000005    1    3    3    0    0 -0.46072447560E+02 -0.55907386319E+01 -0.26420007882E+02  0.53412953476E+02  0.10000000000E+01 0.  0.
<mgrwt>
<rscale>  0 0.12500173E+03</rscale>
<asrwt>0</asrwt>
<pdfrwt beam="1">  1        4 0.24872904E-02 0.12500173E+03</pdfrwt>
<pdfrwt beam="2">  1       -4 0.37172250E-01 0.12500173E+03</pdfrwt>
<totfact> 0.81214501E+03</totfact>
</mgrwt>
</event>
<event>
 5    1  0.3196850E-002  0.1250003E+03  0.7818608E-02  0.1235069E+00
          4   -1    0    0  501    0  0.00000000000E+00  0.00000000000E+00  0.30248504014E+02  0.30275153098E+02  0.12700000000E+01 0. -1.
         -4   -1    0    0    0  501 -0.00000000000E+00 -0.00000000000E+00 -0.12905270399E+03  0.12905895283E+03  0.12700000000E+01 0. -1.
         25    2    1    2    0    0  0.00000000000E+00  0.00000000000E+00 -0.98804199973E+02  0.15933410593E+03  0.12500034952E+03 0.  0.
    9000005    1    3    3    0    0 -0.55341417806E+02  0.10407317993E+02 -0.83942745977E+02  0.10108595053E+03  0.10000000000E+01 0.  0.
    9000005    1    3    3    0    0  0.55341417806E+02 -0.10407317993E+02 -0.14861453997E+02  0.58248155400E+02  0.10000000000E+01 0.  0.
<mgrwt>
<rscale>  0 0.12500035E+03</rscale>
<asrwt>0</asrwt>
<pdfrwt beam="1">  1        4 0.46561467E-02 0.12500035E+03</pdfrwt>
<pdfrwt beam="2">  1       -4 0.19856793E-01 0.12500035E+03</pdfrwt>
<totfact> 0.97470552E+03</totfact>
</mgrwt>
</event>
<event>
 5    1  0.3196850E-002  0.1250004E+03  0.7818608E-02  0.1235069E+00
          4   -1    0    0  501    0  0.00000000000E+00  0.00000000000E+00  0.18632125722E+02  0.18675358334E+02  0.12700000000E+01 0.  1.
         -4   -1    0    0    0  501 -0.00000000000E+00 -0.00000000000E+00 -0.20936443057E+03  0.20936828243E+03  0.12700000000E+01 0.  1.
         25    2    1    2    0    0  0.00000000000E+00  0.00000000000E+00 -0.19073230485E+03  0.22804364077E+03  0.12500035992E+03 0.  0.
    9000005    1    3    3    0    0  0.16204503561E+02  0.49146812770E+02 -0.31454791897E+02  0.60567310279E+02  0.10000000000E+01 0.  0.
    9000005    1    3    3    0    0 -0.16204503561E+02 -0.49146812770E+02 -0.15927751295E+03  0.16747633049E+03  0.10000000000E+01 0.  0.
<mgrwt>
<rscale>  0 0.12500036E+03</rscale>
<asrwt>0</asrwt>
<pdfrwt beam="1">  1        4 0.28701029E-02 0.12500036E+03</pdfrwt>
<pdfrwt beam="2">  1       -4 0.32213533E-01 0.12500036E+03</pdfrwt>
<totfact> 0.85610219E+03</totfact>
</mgrwt>
</event>
<event>
 5    1  0.3196850E-002  0.1249991E+03  0.7818608E-02  0.1235071E+00
          4   -1    0    0  501    0  0.00000000000E+00  0.00000000000E+00  0.26203189572E+02  0.26233948306E+02  0.12700000000E+01 0.  1.
         -4   -1    0    0    0  501 -0.00000000000E+00 -0.00000000000E+00 -0.14895237343E+03  0.14895778748E+03  0.12700000000E+01 0.  1.
         25    2    1    2    0    0  0.00000000000E+00  0.00000000000E+00 -0.12274918386E+03  0.17519173578E+03  0.12499912859E+03 0.  0.
    9000005    1    3    3    0    0  0.46410374269E+02  0.19481735927E+01 -0.27860886173E+01  0.46545467125E+02  0.10000000000E+01 0.  0.
    9000005    1    3    3    0    0 -0.46410374269E+02 -0.19481735927E+01 -0.11996309524E+03  0.12864626866E+03  0.10000000000E+01 0.  0.
<mgrwt>
<rscale>  0 0.12499913E+03</rscale>
<asrwt>0</asrwt>
<pdfrwt beam="1">  1        4 0.40340426E-02 0.12499913E+03</pdfrwt>
<pdfrwt beam="2">  1       -4 0.22918532E-01 0.12499913E+03</pdfrwt>
<totfact> 0.94491584E+03</totfact>
</mgrwt>
</event>
<event>
 5    1  0.3196850E-002  0.1250012E+03  0.7818608E-02  0.1235067E+00
          4   -1    0    0  501    0  0.00000000000E+00  0.00000000000E+00  0.19685043441E+02  0.19725968551E+02  0.12700000000E+01 0.  1.
         -4   -1    0    0    0  501 -0.00000000000E+00 -0.00000000000E+00 -0.19819225742E+03  0.19819632641E+03  0.12700000000E+01 0.  1.
         25    2    1    2    0    0  0.00000000000E+00  0.00000000000E+00 -0.17850721398E+03  0.21792229496E+03  0.12500120478E+03 0.  0.
    9000005    1    3    3    0    0  0.43856317663E+02 -0.39530269743E+01 -0.16655989402E+03  0.17228523244E+03  0.10000000000E+01 0.  0.
    9000005    1    3    3    0    0 -0.43856317663E+02  0.39530269743E+01 -0.11947319962E+02  0.45637062520E+02  0.10000000000E+01 0.  0.
<mgrwt>
<rscale>  0 0.12500120E+03</rscale>
<asrwt>0</asrwt>
<pdfrwt beam="1">  1        4 0.30319294E-02 0.12500120E+03</pdfrwt>
<pdfrwt beam="2">  1       -4 0.30494576E-01 0.12500120E+03</pdfrwt>
<totfact> 0.87195844E+03</totfact>
</mgrwt>
</event>
<event>
 5    1  0.3196850E-002  0.1250043E+03  0.7818608E-02  0.1235063E+00
         -4   -1    0    0    0  501 -0.00000000000E+00  0.00000000000E+00  0.27411083219E+03  0.27411377423E+03  0.12700000000E+01 0. -1.
          4   -1    0    0  501    0  0.00000000000E+00 -0.00000000000E+00 -0.14220291922E+02  0.14276890500E+02  0.12700000000E+01 0. -1.
         25    2    1    2    0    0  0.00000000000E+00  0.00000000000E+00  0.25989054027E+03  0.28839066473E+03  0.12500433026E+03 0.  0.
    9000005    1    3    3    0    0  0.12710535522E+02  0.33802329411E+02  0.12277689191E+02  0.38156216253E+02  0.10000000000E+01 0.  0.
    9000005    1    3    3    0    0 -0.12710535522E+02 -0.33802329411E+02  0.24761285107E+03  0.25023444848E+03  0.10000000000E+01 0.  0.
<mgrwt>
<rscale>  0 0.12500433E+03</rscale>
<asrwt>0</asrwt>
<pdfrwt beam="2">  1        4 0.21923173E-02 0.12500433E+03</pdfrwt>
<pdfrwt beam="1">  1       -4 0.42175477E-01 0.12500433E+03</pdfrwt>
<totfact> 0.77071141E+03</totfact>
</mgrwt>
</event>
<event>
 5    1  0.3196850E-002  0.1249992E+03  0.7818608E-02  0.1235071E+00
          4   -1    0    0  501    0  0.00000000000E+00  0.00000000000E+00  0.21841014414E+02  0.21877906908E+02  0.12700000000E+01 0. -1.
         -4   -1    0    0    0  501 -0.00000000000E+00 -0.00000000000E+00 -0.17865691227E+03  0.17866142617E+03  0.12700000000E+01 0. -1.
         25    2    1    2    0    0  0.00000000000E+00  0.00000000000E+00 -0.15681589785E+03  0.20053933308E+03  0.12499919316E+03 0.  0.
    9000005    1    3    3    0    0  0.45575333081E+02  0.32711602873E+02 -0.12257905868E+03  0.13481018350E+03  0.10000000000E+01 0.  0.
    9000005    1    3    3    0    0 -0.45575333081E+02 -0.32711602873E+02 -0.34236839175E+02  0.65729149581E+02  0.10000000000E+01 0.  0.
<mgrwt>
<rscale>  0 0.12499919E+03</rscale>
<asrwt>0</asrwt>
<pdfrwt beam="1">  1        4 0.33633413E-02 0.12499919E+03</pdfrwt>
<pdfrwt beam="2">  1       -4 0.27488863E-01 0.12499919E+03</pdfrwt>
<totfact> 0.90046249E+03</totfact>
</mgrwt>
</event>
<event>
 5    1  0.3196850E-002  0.1250016E+03  0.7818608E-02  0.1235067E+00
          4   -1    0    0  501    0  0.00000000000E+00  0.00000000000E+00  0.13627771019E+04  0.13627776936E+04  0.12700000000E+01 0. -1.
         -4   -1    0    0    0  501 -0.00000000000E+00 -0.00000000000E+00 -0.27251729634E+01  0.30065707510E+01  0.12700000000E+01 0. -1.
         25    2    1    2    0    0  0.00000000000E+00  0.00000000000E+00  0.13600519289E+04  0.13657842644E+04  0.12500163013E+03 0.  0.
    9000005    1    3    3    0    0 -0.43343168443E+00  0.72504621832E+01  0.18489028638E+01  0.75614487167E+01  0.10000000000E+01 0.  0.
    9000005    1    3    3    0    0  0.43343168443E+00 -0.72504621832E+01  0.13582030260E+04  0.13582228157E+04  0.10000000000E+01 0.  0.
<mgrwt>
<rscale>  0 0.12500163E+03</rscale>
<asrwt>0</asrwt>
<pdfrwt beam="1">  1        4 0.20967956E+00 0.12500163E+03</pdfrwt>
<pdfrwt beam="2">  1       -4 0.44094919E-03 0.12500163E+03</pdfrwt>
<totfact> 0.20726243E+03</totfact>
</mgrwt>
</event>
<event>
 5    1  0.3196850E-002  0.1250013E+03  0.7818608E-02  0.1235067E+00
         -4   -1    0    0    0  501 -0.00000000000E+00  0.00000000000E+00  0.23651136455E+04  0.23651139865E+04  0.12700000000E+01 0.  1.
          4   -1    0    0  501    0  0.00000000000E+00 -0.00000000000E+00 -0.14071193228E+01  0.18954906459E+01  0.12700000000E+01 0.  1.
         25    2    1    2    0    0  0.00000000000E+00  0.00000000000E+00  0.23637065262E+04  0.23670094771E+04  0.12500129159E+03 0.  0.
    9000005    1    3    3    0    0  0.50210667631E+02 -0.15073441313E+02  0.18259546443E+04  0.18267073337E+04  0.10000000000E+01 0.  0.
    9000005    1    3    3    0    0 -0.50210667631E+02  0.15073441313E+02  0.53775188186E+03  0.54030214345E+03  0.10000000000E+01 0.  0.
<mgrwt>
<rscale>  0 0.12500129E+03</rscale>
<asrwt>0</asrwt>
<pdfrwt beam="2">  1        4 0.25407552E-03 0.12500129E+03</pdfrwt>
<pdfrwt beam="1">  1       -4 0.36389783E+00 0.12500129E+03</pdfrwt>
<totfact> 0.58000046E+02</totfact>
</mgrwt>
</event>
<event>
 5    1  0.3196850E-002  0.1250007E+03  0.7818608E-02  0.1235068E+00
         -4   -1    0    0    0  501 -0.00000000000E+00  0.00000000000E+00  0.21309546967E+03  0.21309925409E+03  0.12700000000E+01 0. -1.
          4   -1    0    0  501    0  0.00000000000E+00 -0.00000000000E+00 -0.18305228405E+02  0.18349231236E+02  0.12700000000E+01 0. -1.
         25    2    1    2    0    0  0.00000000000E+00  0.00000000000E+00  0.19479024127E+03  0.23144848533E+03  0.12500065307E+03 0.  0.
    9000005    1    3    3    0    0  0.48163802429E+02 -0.15602607628E+02  0.29563200821E+02  0.58635962275E+02  0.10000000000E+01 0.  0.
    9000005    1    3    3    0    0 -0.48163802429E+02  0.15602607628E+02  0.16522704045E+03  0.17281252305E+03  0.10000000000E+01 0.  0.
<mgrwt>
<rscale>  0 0.12500065E+03</rscale>
<asrwt>0</asrwt>
<pdfrwt beam="2">  1        4 0.28198648E-02 0.12500065E+03</pdfrwt>
<pdfrwt beam="1">  1       -4 0.32787596E-01 0.12500065E+03</pdfrwt>
<totfact> 0.85086434E+03</totfact>
</mgrwt>
</event>
<event>
 5    1  0.3196850E-002  0.1250122E+03  0.7818608E-02  0.1235050E+00
         -4   -1    0    0    0  501 -0.00000000000E+00  0.00000000000E+00  0.51922261979E+03  0.51922417298E+03  0.12700000000E+01 0. -1.
          4   -1    0    0  501    0  0.00000000000E+00 -0.00000000000E+00 -0.74695744753E+01  0.75767699478E+01  0.12700000000E+01 0. -1.
         25    2    1    2    0    0  0.00000000000E+00  0.00000000000E+00  0.51175304532E+03  0.52680094292E+03  0.12501221571E+03 0.  0.
    9000005    1    3    3    0    0 -0.81190495306E+00  0.57750416125E+02  0.35650580243E+03  0.36115530859E+03  0.10000000000E+01 0.  0.
    9000005    1    3    3    0    0  0.81190495306E+00 -0.57750416125E+02  0.15524724288E+03  0.16564563434E+03  0.10000000000E+01 0.  0.
<mgrwt>
<rscale>  0 0.12501222E+03</rscale>
<asrwt>0</asrwt>
<pdfrwt beam="2">  1        4 0.11575303E-02 0.12501222E+03</pdfrwt>
<pdfrwt beam="1">  1       -4 0.79888787E-01 0.12501222E+03</pdfrwt>
<totfact> 0.53828838E+03</totfact>
</mgrwt>
</event>
<event>
 5    1  0.3196850E-002  0.1249968E+03  0.7818608E-02  0.1235074E+00
         -4   -1    0    0    0  501 -0.00000000000E+00  0.00000000000E+00  0.24177638569E+03  0.24177972118E+03  0.12700000000E+01 0.  1.
          4   -1    0    0  501    0  0.00000000000E+00 -0.00000000000E+00 -0.16127221688E+02  0.16177149915E+02  0.12700000000E+01 0.  1.
         25    2    1    2    0    0  0.00000000000E+00  0.00000000000E+00  0.22564916400E+03  0.25795687110E+03  0.12499680849E+03 0.  0.
    9000005    1    3    3    0    0  0.11564318700E+02  0.61410913446E+02  0.11255728567E+03  0.12874461664E+03  0.10000000000E+01 0.  0.
    9000005    1    3    3    0    0 -0.11564318700E+02 -0.61410913446E+02  0.11309187833E+03  0.12921225446E+03  0.10000000000E+01 0.  0.
<mgrwt>
<rscale>  0 0.12499681E+03</rscale>
<asrwt>0</asrwt>
<pdfrwt beam="2">  1        4 0.24852082E-02 0.12499681E+03</pdfrwt>
<pdfrwt beam="1">  1       -4 0.37200464E-01 0.12499681E+03</pdfrwt>
<totfact> 0.81199411E+03</totfact>
</mgrwt>
</event>
<event>
 5    1  0.3196850E-002  0.1249993E+03  0.7818608E-02  0.1235070E+00
          4   -1    0    0  501    0  0.00000000000E+00  0.00000000000E+00  0.17015357793E+03  0.17015831741E+03  0.12700000000E+01 0.  1.
         -4   -1    0    0    0  501 -0.00000000000E+00 -0.00000000000E+00 -0.22934303729E+02  0.22969440297E+02  0.12700000000E+01 0.  1.
         25    2    1    2    0    0  0.00000000000E+00  0.00000000000E+00  0.14721927420E+03  0.19312775770E+03  0.12499926439E+03 0.  0.
    9000005    1    3    3    0    0 -0.72793227248E+01  0.62034167742E+02  0.70528270856E+02  0.94214985520E+02  0.10000000000E+01 0.  0.
    9000005    1    3    3    0    0  0.72793227248E+01 -0.62034167742E+02  0.76691003348E+02  0.98912772184E+02  0.10000000000E+01 0.  0.
<mgrwt>
<rscale>  0 0.12499926E+03</rscale>
<asrwt>0</asrwt>
<pdfrwt beam="1">  1        4 0.26180540E-01 0.12499926E+03</pdfrwt>
<pdfrwt beam="2">  1       -4 0.35314219E-02 0.12499926E+03</pdfrwt>
<totfact> 0.91307430E+03</totfact>
</mgrwt>
</event>
<event>
 5    1  0.3196850E-002  0.1250039E+03  0.7818608E-02  0.1235063E+00
         -4   -1    0    0    0  501 -0.00000000000E+00  0.00000000000E+00  0.46479972024E+02  0.46497319270E+02  0.12700000000E+01 0.  1.
          4   -1    0    0  501    0  0.00000000000E+00 -0.00000000000E+00 -0.84008967330E+02  0.84018566352E+02  0.12700000000E+01 0.  1.
         25    2    1    2    0    0  0.00000000000E+00  0.00000000000E+00 -0.37528995306E+02  0.13051588562E+03  0.12500388358E+03 0.  0.
    9000005    1    3    3    0    0 -0.17781573696E+02 -0.48432944851E+02  0.18054582111E+02  0.54670855538E+02  0.10000000000E+01 0.  0.
    9000005    1    3    3    0    0  0.17781573696E+02  0.48432944851E+02 -0.55583577417E+02  0.75845030084E+02  0.10000000000E+01 0.  0.
<mgrwt>
<rscale>  0 0.12500388E+03</rscale>
<asrwt>0</asrwt>
<pdfrwt beam="2">  1        4 0.12926529E-01 0.12500388E+03</pdfrwt>
<pdfrwt beam="1">  1       -4 0.71528377E-02 0.12500388E+03</pdfrwt>
<totfact> 0.10332574E+04</totfact>
</mgrwt>
</event>
<event>
 5    1  0.3196850E-002  0.1250018E+03  0.7818608E-02  0.1235066E+00
          4   -1    0    0  501    0  0.00000000000E+00  0.00000000000E+00  0.21805527948E+02  0.21842480378E+02  0.12700000000E+01 0.  1.
         -4   -1    0    0    0  501 -0.00000000000E+00 -0.00000000000E+00 -0.17895465238E+03  0.17895915877E+03  0.12700000000E+01 0.  1.
         25    2    1    2    0    0  0.00000000000E+00  0.00000000000E+00 -0.15714912443E+03  0.20080163915E+03  0.12500180389E+03 0.  0.
    9000005    1    3    3    0    0 -0.31726855289E+02  0.40008453805E+02 -0.13645127825E+03  0.14569564529E+03  0.10000000000E+01 0.  0.
    9000005    1    3    3    0    0  0.31726855289E+02 -0.40008453805E+02 -0.20697846189E+02  0.55105993860E+02  0.10000000000E+01 0.  0.
<mgrwt>
<rscale>  0 0.12500180E+03</rscale>
<asrwt>0</asrwt>
<pdfrwt beam="1">  1        4 0.33578859E-02 0.12500180E+03</pdfrwt>
<pdfrwt beam="2">  1       -4 0.27534673E-01 0.12500180E+03</pdfrwt>
<totfact> 0.89996847E+03</totfact>
</mgrwt>
</event>
<event>
 5    1  0.3196850E-002  0.1249988E+03  0.7818608E-02  0.1235071E+00
         -4   -1    0    0    0  501 -0.00000000000E+00  0.00000000000E+00  0.82344455853E+03  0.82344553789E+03  0.12700000000E+01 0. -1.
          4   -1    0    0  501    0  0.00000000000E+00 -0.00000000000E+00 -0.46576956925E+01  0.48277354074E+01  0.12700000000E+01 0. -1.
         25    2    1    2    0    0  0.00000000000E+00  0.00000000000E+00  0.81878686284E+03  0.82827327330E+03  0.12499875402E+03 0.  0.
    9000005    1    3    3    0    0  0.41954862215E+02  0.46263185776E+02  0.39505972101E+03  0.39996709363E+03  0.10000000000E+01 0.  0.
    9000005    1    3    3    0    0 -0.41954862215E+02 -0.46263185776E+02  0.42372714183E+03  0.42830617967E+03  0.10000000000E+01 0.  0.
<mgrwt>
<rscale>  0 0.12499875E+03</rscale>
<asrwt>0</asrwt>
<pdfrwt beam="2">  1        4 0.72972367E-03 0.12499875E+03</pdfrwt>
<pdfrwt beam="1">  1       -4 0.12669697E+00 0.12499875E+03</pdfrwt>
<totfact> 0.37034253E+03</totfact>
</mgrwt>
</event>
<event>
 5    1  0.3196850E-002  0.1249991E+03  0.7818608E-02  0.1235071E+00
         -4   -1    0    0    0  501 -0.00000000000E+00  0.00000000000E+00  0.51176492150E+02  0.51192247937E+02  0.12700000000E+01 0.  1.
          4   -1    0    0  501    0  0.00000000000E+00 -0.00000000000E+00 -0.76295087741E+02  0.76305657152E+02  0.12700000000E+01 0.  1.
         25    2    1    2    0    0  0.00000000000E+00  0.00000000000E+00 -0.25118595590E+02  0.12749790509E+03  0.12499908783E+03 0.  0.
    9000005    1    3    3    0    0 -0.36739797562E+02 -0.45239630061E+02  0.10447227706E+02  0.59216394856E+02  0.10000000000E+01 0.  0.
    9000005    1    3    3    0    0  0.36739797562E+02  0.45239630061E+02 -0.35565823296E+02  0.68281510233E+02  0.10000000000E+01 0.  0.
<mgrwt>
<rscale>  0 0.12499909E+03</rscale>
<asrwt>0</asrwt>
<pdfrwt beam="2">  1        4 0.11739731E-01 0.12499909E+03</pdfrwt>
<pdfrwt beam="1">  1       -4 0.78753315E-02 0.12499909E+03</pdfrwt>
<totfact> 0.10398560E+04</totfact>
</mgrwt>
</event>
<event>
 5    1  0.3196850E-002  0.1250176E+03  0.7818608E-02  0.1235042E+00
          4   -1    0    0  501    0  0.00000000000E+00  0.00000000000E+00  0.49789111124E+02  0.49805305807E+02  0.12700000000E+01 0. -1.
         -4   -1    0    0    0  501 -0.00000000000E+00 -0.00000000000E+00 -0.78443962656E+02  0.78454242570E+02  0.12700000000E+01 0. -1.
         25    2    1    2    0    0  0.00000000000E+00  0.00000000000E+00 -0.28654851532E+02  0.12825954838E+03  0.12501764369E+03 0.  0.
    9000005    1    3    3    0    0 -0.21519282342E+02  0.34213782453E+02  0.34581546233E+02  0.53202873627E+02  0.10000000000E+01 0.  0.
    9000005    1    3    3    0    0  0.21519282342E+02 -0.34213782453E+02 -0.63236397765E+02  0.75056674750E+02  0.10000000000E+01 0.  0.
<mgrwt>
<rscale>  0 0.12501764E+03</rscale>
<asrwt>0</asrwt>
<pdfrwt beam="1">  1        4 0.76618997E-02 0.12501764E+03</pdfrwt>
<pdfrwt beam="2">  1       -4 0.12070338E-01 0.12501764E+03</pdfrwt>
<totfact> 0.10377752E+04</totfact>
</mgrwt>
</event>
<event>
 5    1  0.3196850E-002  0.1250165E+03  0.7818608E-02  0.1235044E+00
         -4   -1    0    0    0  501 -0.00000000000E+00  0.00000000000E+00  0.29150943429E+03  0.29151220074E+03  0.12700000000E+01 0.  1.
          4   -1    0    0  501    0  0.00000000000E+00 -0.00000000000E+00 -0.13370696035E+02  0.13430875343E+02  0.12700000000E+01 0.  1.
         25    2    1    2    0    0  0.00000000000E+00  0.00000000000E+00  0.27813873825E+03  0.30494307608E+03  0.12501648664E+03 0.  0.
    9000005    1    3    3    0    0  0.87340690459E+01  0.60560122636E+02  0.10797831160E+03  0.12411336831E+03  0.10000000000E+01 0.  0.
    9000005    1    3    3    0    0 -0.87340690459E+01 -0.60560122636E+02  0.17016042665E+03  0.18082970777E+03  0.10000000000E+01 0.  0.
<mgrwt>
<rscale>  0 0.12501649E+03</rscale>
<asrwt>0</asrwt>
<pdfrwt beam="2">  1        4 0.20618722E-02 0.12501649E+03</pdfrwt>
<pdfrwt beam="1">  1       -4 0.44852446E-01 0.12501649E+03</pdfrwt>
<totfact> 0.74955514E+03</totfact>
</mgrwt>
</event>
<event>
 5    1  0.3196850E-002  0.1249987E+03  0.7818608E-02  0.1235071E+00
          4   -1    0    0  501    0  0.00000000000E+00  0.00000000000E+00  0.75429197578E+02  0.75439888303E+02  0.12700000000E+01 0.  1.
         -4   -1    0    0    0  501 -0.00000000000E+00 -0.00000000000E+00 -0.51763721997E+02  0.51779299097E+02  0.12700000000E+01 0.  1.
         25    2    1    2    0    0  0.00000000000E+00  0.00000000000E+00  0.23665475581E+02  0.12721918740E+03  0.12499866763E+03 0.  0.
    9000005    1    3    3    0    0  0.31596640345E+02 -0.53841194563E+02  0.14701463992E+02  0.64143237809E+02  0.10000000000E+01 0.  0.
    9000005    1    3    3    0    0 -0.31596640345E+02  0.53841194563E+02  0.89640115885E+01  0.63075949591E+02  0.10000000000E+01 0.  0.
<mgrwt>
<rscale>  0 0.12499867E+03</rscale>
<asrwt>0</asrwt>
<pdfrwt beam="1">  1        4 0.11606512E-01 0.12499867E+03</pdfrwt>
<pdfrwt beam="2">  1       -4 0.79656702E-02 0.12499867E+03</pdfrwt>
<totfact> 0.10404700E+04</totfact>
</mgrwt>
</event>
<event>
 5    1  0.3196850E-002  0.1250038E+03  0.7818608E-02  0.1235063E+00
          4   -1    0    0  501    0  0.00000000000E+00  0.00000000000E+00  0.21239376387E+03  0.21239756079E+03  0.12700000000E+01 0. -1.
         -4   -1    0    0    0  501 -0.00000000000E+00 -0.00000000000E+00 -0.18366787683E+02  0.18410643384E+02  0.12700000000E+01 0. -1.
         25    2    1    2    0    0  0.00000000000E+00  0.00000000000E+00  0.19402697619E+03  0.23080820418E+03  0.12500383845E+03 0.  0.
    9000005    1    3    3    0    0  0.31121872018E+02  0.33920289438E+02  0.18974954877E+02  0.49801665294E+02  0.10000000000E+01 0.  0.
    9000005    1    3    3    0    0 -0.31121872018E+02 -0.33920289438E+02  0.17505202131E+03  0.18100653888E+03  0.10000000000E+01 0.  0.
<mgrwt>
<rscale>  0 0.12500384E+03</rscale>
<asrwt>0</asrwt>
<pdfrwt beam="1">  1        4 0.32679627E-01 0.12500384E+03</pdfrwt>
<pdfrwt beam="2">  1       -4 0.28293254E-02 0.12500384E+03</pdfrwt>
<totfact> 0.85178357E+03</totfact>
</mgrwt>
</event>
<event>
 5    1  0.3196850E-002  0.1250050E+03  0.7818608E-02  0.1235061E+00
         -4   -1    0    0    0  501 -0.00000000000E+00  0.00000000000E+00  0.13742252044E+02  0.13800811253E+02  0.12700000000E+01 0.  1.
          4   -1    0    0  501    0  0.00000000000E+00 -0.00000000000E+00 -0.28360959447E+03  0.28361243798E+03  0.12700000000E+01 0.  1.
         25    2    1    2    0    0  0.00000000000E+00  0.00000000000E+00 -0.26986734243E+03  0.29741324923E+03  0.12500503314E+03 0.  0.
    9000005    1    3    3    0    0 -0.53219027072E+02  0.30933335496E+02 -0.16060583320E+03  0.17200107484E+03  0.10000000000E+01 0.  0.
    9000005    1    3    3    0    0  0.53219027072E+02 -0.30933335496E+02 -0.10926150922E+03  0.12541217439E+03  0.10000000000E+01 0.  0.
<mgrwt>
<rscale>  0 0.12500503E+03</rscale>
<asrwt>0</asrwt>
<pdfrwt beam="2">  1        4 0.43636964E-01 0.12500503E+03</pdfrwt>
<pdfrwt beam="1">  1       -4 0.21189161E-02 0.12500503E+03</pdfrwt>
<totfact> 0.75915984E+03</totfact>
</mgrwt>
</event>
<event>
 5    1  0.3196850E-002  0.1249915E+03  0.7818608E-02  0.1235083E+00
         -4   -1    0    0    0  501 -0.00000000000E+00  0.00000000000E+00  0.13445689676E+03  0.13446289446E+03  0.12700000000E+01 0. -1.
          4   -1    0    0  501    0  0.00000000000E+00 -0.00000000000E+00 -0.29027572757E+02  0.29055341680E+02  0.12700000000E+01 0. -1.
         25    2    1    2    0    0  0.00000000000E+00  0.00000000000E+00  0.10542932400E+03  0.16351823614E+03  0.12499148447E+03 0.  0.
    9000005    1    3    3    0    0  0.22441150278E+02  0.56766965473E+02  0.35230053216E+02  0.70485815909E+02  0.10000000000E+01 0.  0.
    9000005    1    3    3    0    0 -0.22441150278E+02 -0.56766965473E+02  0.70199270787E+02  0.93032420230E+02  0.10000000000E+01 0.  0.
<mgrwt>
<rscale>  0 0.12499148E+03</rscale>
<asrwt>0</asrwt>
<pdfrwt beam="2">  1        4 0.44683779E-02 0.12499148E+03</pdfrwt>
<pdfrwt beam="1">  1       -4 0.20688274E-01 0.12499148E+03</pdfrwt>
<totfact> 0.96687251E+03</totfact>
</mgrwt>
</event>
<event>
 5    1  0.3196850E-002  0.1250078E+03  0.7818608E-02  0.1235057E+00
         -4   -1    0    0    0  501 -0.00000000000E+00  0.00000000000E+00  0.92092631560E+01  0.92964201645E+01  0.12700000000E+01 0.  1.
          4   -1    0    0  501    0  0.00000000000E+00 -0.00000000000E+00 -0.42213248300E+03  0.42213439341E+03  0.12700000000E+01 0.  1.
         25    2    1    2    0    0  0.00000000000E+00  0.00000000000E+00 -0.41292321984E+03  0.43143081358E+03  0.12500784543E+03 0.  0.
    9000005    1    3    3    0    0 -0.52360785334E+02  0.18167046815E+02 -0.30613268267E+03  0.31111077260E+03  0.10000000000E+01 0.  0.
    9000005    1    3    3    0    0  0.52360785334E+02 -0.18167046815E+02 -0.10679053718E+03  0.12032004098E+03  0.10000000000E+01 0.  0.
<mgrwt>
<rscale>  0 0.12500785E+03</rscale>
<asrwt>0</asrwt>
<pdfrwt beam="2">  1        4 0.64950295E-01 0.12500785E+03</pdfrwt>
<pdfrwt beam="1">  1       -4 0.14236614E-02 0.12500785E+03</pdfrwt>
<totfact> 0.61595863E+03</totfact>
</mgrwt>
</event>
<event>
 5    1  0.3196850E-002  0.1250384E+03  0.7818608E-02  0.1235009E+00
         -4   -1    0    0    0  501 -0.00000000000E+00  0.00000000000E+00  0.57019309428E+01  0.58416535739E+01  0.12700000000E+01 0.  1.
          4   -1    0    0  501    0  0.00000000000E+00 -0.00000000000E+00 -0.67705880138E+03  0.67705999249E+03  0.12700000000E+01 0.  1.
         25    2    1    2    0    0  0.00000000000E+00  0.00000000000E+00 -0.67135687044E+03  0.68290164606E+03  0.12503843693E+03 0.  0.
    9000005    1    3    3    0    0 -0.34402238011E+02 -0.45366647162E+02 -0.47662474236E+03  0.48001436613E+03  0.10000000000E+01 0.  0.
    9000005    1    3    3    0    0  0.34402238011E+02  0.45366647162E+02 -0.19473212808E+03  0.20288727994E+03  0.10000000000E+01 0.  0.
<mgrwt>
<rscale>  0 0.12503844E+03</rscale>
<asrwt>0</asrwt>
<pdfrwt beam="2">  1        4 0.10417367E+00 0.12503844E+03</pdfrwt>
<pdfrwt beam="1">  1       -4 0.88806020E-03 0.12503844E+03</pdfrwt>
<totfact> 0.43967822E+03</totfact>
</mgrwt>
</event>
<event>
 5    1  0.3196850E-002  0.1250078E+03  0.7818608E-02  0.1235057E+00
         -4   -1    0    0    0  501 -0.00000000000E+00  0.00000000000E+00  0.14541653009E+03  0.14542207578E+03  0.12700000000E+01 0.  1.
          4   -1    0    0  501    0  0.00000000000E+00 -0.00000000000E+00 -0.26844752237E+02  0.26874776700E+02  0.12700000000E+01 0.  1.
         25    2    1    2    0    0  0.00000000000E+00  0.00000000000E+00  0.11857177786E+03  0.17229685248E+03  0.12500775524E+03 0.  0.
    9000005    1    3    3    0    0 -0.45500421100E+02  0.11566769256E+02  0.24298888132E+01  0.47021089215E+02  0.10000000000E+01 0.  0.
    9000005    1    3    3    0    0  0.45500421100E+02 -0.11566769256E+02  0.11614188904E+03  0.12527576327E+03  0.10000000000E+01 0.  0.
<mgrwt>
<rscale>  0 0.12500776E+03</rscale>
<asrwt>0</asrwt>
<pdfrwt beam="2">  1        4 0.41326982E-02 0.12500776E+03</pdfrwt>
<pdfrwt beam="1">  1       -4 0.22374509E-01 0.12500776E+03</pdfrwt>
<totfact> 0.95005726E+03</totfact>
</mgrwt>
</event>
<event>
 5    1  0.3196850E-002  0.1249900E+03  0.7818608E-02  0.1235085E+00
         -4   -1    0    0    0  501 -0.00000000000E+00  0.00000000000E+00  0.18499028612E+03  0.18499464549E+03  0.12700000000E+01 0. -1.
          4   -1    0    0  501    0  0.00000000000E+00 -0.00000000000E+00 -0.21088885064E+02  0.21127090979E+02  0.12700000000E+01 0. -1.
         25    2    1    2    0    0  0.00000000000E+00  0.00000000000E+00  0.16390140106E+03  0.20612173647E+03  0.12499000350E+03 0.  0.
    9000005    1    3    3    0    0  0.29254949630E+02 -0.53473029544E+02  0.10464663085E+03  0.12110794488E+03  0.10000000000E+01 0.  0.
    9000005    1    3    3    0    0 -0.29254949630E+02  0.53473029544E+02  0.59254770211E+02  0.85013791583E+02  0.10000000000E+01 0.  0.
<mgrwt>
<rscale>  0 0.12499000E+03</rscale>
<asrwt>0</asrwt>
<pdfrwt beam="2">  1        4 0.32477182E-02 0.12499000E+03</pdfrwt>
<pdfrwt beam="1">  1       -4 0.28463317E-01 0.12499000E+03</pdfrwt>
<totfact> 0.89133121E+03</totfact>
</mgrwt>
</event>
<event>
 5    1  0.3196850E-002  0.1249946E+03  0.7818608E-02  0.1235078E+00
         -4   -1    0    0    0  501 -0.00000000000E+00  0.00000000000E+00  0.44706348370E+03  0.44706528758E+03  0.12700000000E+01 0.  1.
          4   -1    0    0  501    0  0.00000000000E+00 -0.00000000000E+00 -0.86888346836E+01  0.87811587025E+01  0.12700000000E+01 0.  1.
         25    2    1    2    0    0  0.00000000000E+00  0.00000000000E+00  0.43837464901E+03  0.45584644628E+03  0.12499459863E+03 0.  0.
    9000005    1    3    3    0    0  0.25742008496E+02  0.10672973776E+02  0.42316607601E+03  0.42408382574E+03  0.10000000000E+01 0.  0.
    9000005    1    3    3    0    0 -0.25742008496E+02 -0.10672973776E+02  0.15208573007E+02  0.31762620540E+02  0.10000000000E+01 0.  0.
<mgrwt>
<rscale>  0 0.12499460E+03</rscale>
<asrwt>0</asrwt>
<pdfrwt beam="2">  1        4 0.13439840E-02 0.12499460E+03</pdfrwt>
<pdfrwt beam="1">  1       -4 0.68786261E-01 0.12499460E+03</pdfrwt>
<totfact> 0.59467702E+03</totfact>
</mgrwt>
</event>
<event>
 5    1  0.3196850E-002  0.1250001E+03  0.7818608E-02  0.1235069E+00
         -4   -1    0    0    0  501 -0.00000000000E+00  0.00000000000E+00  0.17320991064E+03  0.17321456649E+03  0.12700000000E+01 0.  1.
          4   -1    0    0  501    0  0.00000000000E+00 -0.00000000000E+00 -0.22529297505E+02  0.22565064725E+02  0.12700000000E+01 0.  1.
         25    2    1    2    0    0  0.00000000000E+00  0.00000000000E+00  0.15068061313E+03  0.19577963121E+03  0.12500006729E+03 0.  0.
    9000005    1    3    3    0    0 -0.43455395240E+02  0.31445691794E+02  0.25121700677E+02  0.59239368268E+02  0.10000000000E+01 0.  0.
    9000005    1    3    3    0    0  0.43455395240E+02 -0.31445691794E+02  0.12555891246E+03  0.13654026295E+03  0.10000000000E+01 0.  0.
<mgrwt>
<rscale>  0 0.12500007E+03</rscale>
<asrwt>0</asrwt>
<pdfrwt beam="2">  1        4 0.34691552E-02 0.12500007E+03</pdfrwt>
<pdfrwt beam="1">  1       -4 0.26650789E-01 0.12500007E+03</pdfrwt>
<totfact> 0.90851151E+03</totfact>
</mgrwt>
</event>
<event>
 5    1  0.3196850E-002  0.1250135E+03  0.7818608E-02  0.1235048E+00
          4   -1    0    0  501    0  0.00000000000E+00  0.00000000000E+00  0.57224430806E+02  0.57238521828E+02  0.12700000000E+01 0. -1.
         -4   -1    0    0    0  501 -0.00000000000E+00 -0.00000000000E+00 -0.68248226146E+02  0.68260041547E+02  0.12700000000E+01 0. -1.
         25    2    1    2    0    0  0.00000000000E+00  0.00000000000E+00 -0.11023795340E+02  0.12549856338E+03  0.12501346066E+03 0.  0.
    9000005    1    3    3    0    0 -0.66363387173E+01 -0.20480709625E+01  0.56840759986E+02  0.57272223477E+02  0.10000000000E+01 0.  0.
    9000005    1    3    3    0    0  0.66363387173E+01  0.20480709625E+01 -0.67864555326E+02  0.68226339898E+02  0.10000000000E+01 0.  0.
<mgrwt>
<rscale>  0 0.12501346E+03</rscale>
<asrwt>0</asrwt>
<pdfrwt beam="1">  1        4 0.88057514E-02 0.12501346E+03</pdfrwt>
<pdfrwt beam="2">  1       -4 0.10501720E-01 0.12501346E+03</pdfrwt>
<totfact> 0.10438816E+04</totfact>
</mgrwt>
</event>
<event>
 5    1  0.3196850E-002  0.1249997E+03  0.7818608E-02  0.1235070E+00
         -4   -1    0    0    0  501 -0.00000000000E+00  0.00000000000E+00  0.20063567399E+02  0.20103721963E+02  0.12700000000E+01 0.  1.
          4   -1    0    0  501    0  0.00000000000E+00 -0.00000000000E+00 -0.19445591588E+03  0.19446006305E+03  0.12700000000E+01 0.  1.
         25    2    1    2    0    0  0.00000000000E+00  0.00000000000E+00 -0.17439234848E+03  0.21456378501E+03  0.12499970652E+03 0.  0.
    9000005    1    3    3    0    0  0.38619150637E+02  0.46040161561E+01 -0.17115804473E+03  0.17552410671E+03  0.10000000000E+01 0.  0.
    9000005    1    3    3    0    0 -0.38619150637E+02 -0.46040161561E+01 -0.32343037449E+01  0.39039678295E+02  0.10000000000E+01 0.  0.
<mgrwt>
<rscale>  0 0.12499971E+03</rscale>
<asrwt>0</asrwt>
<pdfrwt beam="2">  1        4 0.29919701E-01 0.12499971E+03</pdfrwt>
<pdfrwt beam="1">  1       -4 0.30901106E-02 0.12499971E+03</pdfrwt>
<totfact> 0.87736513E+03</totfact>
</mgrwt>
</event>
<event>
 5    1  0.3196850E-002  0.1250016E+03  0.7818608E-02  0.1235067E+00
          4   -1    0    0  501    0  0.00000000000E+00  0.00000000000E+00  0.52280187819E+02  0.52295611082E+02  0.12700000000E+01 0.  1.
         -4   -1    0    0    0  501 -0.00000000000E+00 -0.00000000000E+00 -0.74687692373E+02  0.74698489222E+02  0.12700000000E+01 0.  1.
         25    2    1    2    0    0  0.00000000000E+00  0.00000000000E+00 -0.22407504554E+02  0.12699410030E+03  0.12500162100E+03 0.  0.
    9000005    1    3    3    0    0 -0.49147297348E+02 -0.38527645613E+02 -0.13589588635E+02  0.63918019622E+02  0.10000000000E+01 0.  0.
    9000005    1    3    3    0    0  0.49147297348E+02  0.38527645613E+02 -0.88179159185E+01  0.63076080682E+02  0.10000000000E+01 0.  0.
<mgrwt>
<rscale>  0 0.12500162E+03</rscale>
<asrwt>0</asrwt>
<pdfrwt beam="1">  1        4 0.80451227E-02 0.12500162E+03</pdfrwt>
<pdfrwt beam="2">  1       -4 0.11492431E-01 0.12500162E+03</pdfrwt>
<totfact> 0.10408893E+04</totfact>
</mgrwt>
</event>
<event>
 5    1  0.3196850E-002  0.1249979E+03  0.7818608E-02  0.1235073E+00
         -4   -1    0    0    0  501 -0.00000000000E+00  0.00000000000E+00  0.27932489929E+03  0.27932778642E+03  0.12700000000E+01 0.  1.
          4   -1    0    0  501    0  0.00000000000E+00 -0.00000000000E+00 -0.13952342834E+02  0.14010023932E+02  0.12700000000E+01 0.  1.
         25    2    1    2    0    0  0.00000000000E+00  0.00000000000E+00  0.26537255646E+03  0.29333781035E+03  0.12499790902E+03 0.  0.
    9000005    1    3    3    0    0 -0.40422885919E+02  0.13139684172E+01  0.20892095481E+02  0.45532580342E+02  0.10000000000E+01 0.  0.
    9000005    1    3    3    0    0  0.40422885919E+02 -0.13139684172E+01  0.24448046098E+03  0.24780523001E+03  0.10000000000E+01 0.  0.
<mgrwt>
<rscale>  0 0.12499791E+03</rscale>
<asrwt>0</asrwt>
<pdfrwt beam="2">  1        4 0.21511731E-02 0.12499791E+03</pdfrwt>
<pdfrwt beam="1">  1       -4 0.42977725E-01 0.12499791E+03</pdfrwt>
<totfact> 0.76445748E+03</totfact>
</mgrwt>
</event>
<event>
 5    1  0.3196850E-002  0.1249962E+03  0.7818608E-02  0.1235075E+00
          4   -1    0    0  501    0  0.00000000000E+00  0.00000000000E+00  0.18071634747E+03  0.18072080993E+03  0.12700000000E+01 0. -1.
         -4   -1    0    0    0  501 -0.00000000000E+00 -0.00000000000E+00 -0.21590647636E+02  0.21627967204E+02  0.12700000000E+01 0. -1.
         25    2    1    2    0    0  0.00000000000E+00  0.00000000000E+00  0.15912569983E+03  0.20234877714E+03  0.12499615699E+03 0.  0.
    9000005    1    3    3    0    0 -0.12538524869E+02  0.61210966609E+02  0.81191998426E+02  0.10245553986E+03  0.10000000000E+01 0.  0.
    9000005    1    3    3    0    0  0.12538524869E+02 -0.61210966609E+02  0.77933701407E+02  0.99893237279E+02  0.10000000000E+01 0.  0.
<mgrwt>
<rscale>  0 0.12499616E+03</rscale>
<asrwt>0</asrwt>
<pdfrwt beam="1">  1        4 0.27805729E-01 0.12499616E+03</pdfrwt>
<pdfrwt beam="2">  1       -4 0.33248521E-02 0.12499616E+03</pdfrwt>
<totfact> 0.89748589E+03</totfact>
</mgrwt>
</event>
<event>
 5    1  0.3196850E-002  0.1250015E+03  0.7818608E-02  0.1235067E+00
         -4   -1    0    0    0  501 -0.00000000000E+00  0.00000000000E+00  0.35416259910E+03  0.35416487615E+03  0.12700000000E+01 0. -1.
          4   -1    0    0  501    0  0.00000000000E+00 -0.00000000000E+00 -0.10990918156E+02  0.11064049074E+02  0.12700000000E+01 0. -1.
         25    2    1    2    0    0  0.00000000000E+00  0.00000000000E+00  0.34317168094E+03  0.36522892523E+03  0.12500146088E+03 0.  0.
    9000005    1    3    3    0    0 -0.44147864632E+02  0.20977606689E+01  0.42499701782E+02  0.61324213839E+02  0.10000000000E+01 0.  0.
    9000005    1    3    3    0    0  0.44147864632E+02 -0.20977606689E+01  0.30067197916E+03  0.30390471139E+03  0.10000000000E+01 0.  0.
<mgrwt>
<rscale>  0 0.12500146E+03</rscale>
<asrwt>0</asrwt>
<pdfrwt beam="2">  1        4 0.16967109E-02 0.12500146E+03</pdfrwt>
<pdfrwt beam="1">  1       -4 0.54492361E-01 0.12500146E+03</pdfrwt>
<totfact> 0.68078846E+03</totfact>
</mgrwt>
</event>
<event>
 5    1  0.3196850E-002  0.1249968E+03  0.7818608E-02  0.1235074E+00
          4   -1    0    0  501    0  0.00000000000E+00  0.00000000000E+00  0.12603487160E+03  0.12604127006E+03  0.12700000000E+01 0.  1.
         -4   -1    0    0    0  501 -0.00000000000E+00 -0.00000000000E+00 -0.30971632707E+02  0.30997660114E+02  0.12700000000E+01 0.  1.
         25    2    1    2    0    0  0.00000000000E+00  0.00000000000E+00  0.95063238894E+02  0.15703893018E+03  0.12499682477E+03 0.  0.
    9000005    1    3    3    0    0 -0.38759459208E+02 -0.21229527614E+02  0.10303957926E+03  0.11212111048E+03  0.10000000000E+01 0.  0.
    9000005    1    3    3    0    0  0.38759459208E+02  0.21229527614E+02 -0.79763403673E+01  0.44917819698E+02  0.10000000000E+01 0.  0.
<mgrwt>
<rscale>  0 0.12499682E+03</rscale>
<asrwt>0</asrwt>
<pdfrwt beam="1">  1        4 0.19392475E-01 0.12499682E+03</pdfrwt>
<pdfrwt beam="2">  1       -4 0.47673608E-02 0.12499682E+03</pdfrwt>
<totfact> 0.97923703E+03</totfact>
</mgrwt>
</event>
<event>
 5    1  0.3196850E-002  0.1249974E+03  0.7818608E-02  0.1235073E+00
          4   -1    0    0  501    0  0.00000000000E+00  0.00000000000E+00  0.40783964158E+03  0.40784161895E+03  0.12700000000E+01 0.  1.
         -4   -1    0    0    0  501 -0.00000000000E+00 -0.00000000000E+00 -0.95333932814E+01  0.96176133972E+01  0.12700000000E+01 0.  1.
         25    2    1    2    0    0  0.00000000000E+00  0.00000000000E+00  0.39830624830E+03  0.41745923235E+03  0.12499737291E+03 0.  0.
    9000005    1    3    3    0    0 -0.38663776857E+02 -0.35232112722E+02  0.31333605740E+03  0.31767384890E+03  0.10000000000E+01 0.  0.
    9000005    1    3    3    0    0  0.38663776857E+02  0.35232112722E+02  0.84970190902E+02  0.99785383447E+02  0.10000000000E+01 0.  0.
<mgrwt>
<rscale>  0 0.12499737E+03</rscale>
<asrwt>0</asrwt>
<pdfrwt beam="1">  1        4 0.62751187E-01 0.12499737E+03</pdfrwt>
<pdfrwt beam="2">  1       -4 0.14733066E-02 0.12499737E+03</pdfrwt>
<totfact> 0.62893068E+03</totfact>
</mgrwt>
</event>
<event>
 5    1  0.3196850E-002  0.1249993E+03  0.7818608E-02  0.1235070E+00
         -4   -1    0    0    0  501 -0.00000000000E+00  0.00000000000E+00  0.11092133278E+02  0.11164601231E+02  0.12700000000E+01 0.  1.
          4   -1    0    0  501    0  0.00000000000E+00 -0.00000000000E+00 -0.35093998642E+03  0.35094228439E+03  0.12700000000E+01 0.  1.
         25    2    1    2    0    0  0.00000000000E+00  0.00000000000E+00 -0.33984785315E+03  0.36210688562E+03  0.12499933330E+03 0.  0.
    9000005    1    3    3    0    0  0.33257773718E+02  0.11768491970E+02 -0.20499552978E+02  0.40814318422E+02  0.10000000000E+01 0.  0.
    9000005    1    3    3    0    0 -0.33257773718E+02 -0.11768491970E+02 -0.31934830017E+03  0.32129256720E+03  0.10000000000E+01 0.  0.
<mgrwt>
<rscale>  0 0.12499933E+03</rscale>
<asrwt>0</asrwt>
<pdfrwt beam="2">  1        4 0.53996510E-01 0.12499933E+03</pdfrwt>
<pdfrwt beam="1">  1       -4 0.17122335E-02 0.12499933E+03</pdfrwt>
<totfact> 0.68413882E+03</totfact>
</mgrwt>
</event>
<event>
 5    1  0.3196850E-002  0.1250004E+03  0.7818608E-02  0.1235069E+00
         -4   -1    0    0    0  501 -0.00000000000E+00  0.00000000000E+00  0.24397902584E+03  0.24398233122E+03  0.12700000000E+01 0.  1.
          4   -1    0    0  501    0  0.00000000000E+00 -0.00000000000E+00 -0.15982102121E+02  0.16032482284E+02  0.12700000000E+01 0.  1.
         25    2    1    2    0    0  0.00000000000E+00  0.00000000000E+00  0.22799692372E+03  0.26001481351E+03  0.12500042407E+03 0.  0.
    9000005    1    3    3    0    0 -0.56041223731E+02  0.22717260869E+02  0.14679462374E+03  0.15876509143E+03  0.10000000000E+01 0.  0.
    9000005    1    3    3    0    0  0.56041223731E+02 -0.22717260869E+02  0.81202299977E+02  0.10124972207E+03  0.10000000000E+01 0.  0.
<mgrwt>
<rscale>  0 0.12500042E+03</rscale>
<asrwt>0</asrwt>
<pdfrwt beam="2">  1        4 0.24629146E-02 0.12500042E+03</pdfrwt>
<pdfrwt beam="1">  1       -4 0.37539364E-01 0.12500042E+03</pdfrwt>
<totfact> 0.80903217E+03</totfact>
</mgrwt>
</event>
<event>
 5    1  0.3196850E-002  0.1249982E+03  0.7818608E-02  0.1235072E+00
         -4   -1    0    0    0  501 -0.00000000000E+00  0.00000000000E+00  0.45660808435E+03  0.45660985052E+03  0.12700000000E+01 0. -1.
          4   -1    0    0  501    0  0.00000000000E+00 -0.00000000000E+00 -0.85057574608E+01  0.86000470919E+01  0.12700000000E+01 0. -1.
         25    2    1    2    0    0  0.00000000000E+00  0.00000000000E+00  0.44810232689E+03  0.46520989761E+03  0.12499821389E+03 0.  0.
    9000005    1    3    3    0    0  0.26568041519E+02 -0.88410834776E+01  0.16129438366E+02  0.32329311301E+02  0.10000000000E+01 0.  0.
    9000005    1    3    3    0    0 -0.26568041519E+02  0.88410834776E+01  0.43197288852E+03  0.43288058631E+03  0.10000000000E+01 0.  0.
<mgrwt>
<rscale>  0 0.12499821E+03</rscale>
<asrwt>0</asrwt>
<pdfrwt beam="2">  1        4 0.13159665E-02 0.12499821E+03</pdfrwt>
<pdfrwt beam="1">  1       -4 0.70254813E-01 0.12499821E+03</pdfrwt>
<totfact> 0.58670733E+03</totfact>
</mgrwt>
</event>
<event>
 5    1  0.3196850E-002  0.1249978E+03  0.7818608E-02  0.1235073E+00
         -4   -1    0    0    0  501 -0.00000000000E+00  0.00000000000E+00  0.24823851063E+02  0.24856316734E+02  0.12700000000E+01 0.  1.
          4   -1    0    0  501    0  0.00000000000E+00 -0.00000000000E+00 -0.15721544193E+03  0.15722057143E+03  0.12700000000E+01 0.  1.
         25    2    1    2    0    0  0.00000000000E+00  0.00000000000E+00 -0.13239159086E+03  0.18207688816E+03  0.12499783947E+03 0.  0.
    9000005    1    3    3    0    0  0.40202944223E+02  0.18767039075E+02 -0.13029850260E+03  0.13764874958E+03  0.10000000000E+01 0.  0.
    9000005    1    3    3    0    0 -0.40202944223E+02 -0.18767039075E+02 -0.20930882644E+01  0.44428138587E+02  0.10000000000E+01 0.  0.
<mgrwt>
<rscale>  0 0.12499784E+03</rscale>
<asrwt>0</asrwt>
<pdfrwt beam="2">  1        4 0.24189882E-01 0.12499784E+03</pdfrwt>
<pdfrwt beam="1">  1       -4 0.38219460E-02 0.12499784E+03</pdfrwt>
<totfact> 0.93249003E+03</totfact>
</mgrwt>
</event>
<event>
 5    1  0.3196850E-002  0.1249563E+03  0.7818608E-02  0.1235138E+00
          4   -1    0    0  501    0  0.00000000000E+00  0.00000000000E+00  0.21055862803E+02  0.21094128529E+02  0.12700000000E+01 0. -1.
         -4   -1    0    0    0  501 -0.00000000000E+00 -0.00000000000E+00 -0.18517987052E+03  0.18518422543E+03  0.12700000000E+01 0. -1.
         25    2    1    2    0    0  0.00000000000E+00  0.00000000000E+00 -0.16412400772E+03  0.20627835395E+03  0.12495626995E+03 0.  0.
    9000005    1    3    3    0    0 -0.28692954054E+02 -0.43950187023E+02 -0.13798536889E+03  0.14763423241E+03  0.10000000000E+01 0.  0.
    9000005    1    3    3    0    0  0.28692954054E+02  0.43950187023E+02 -0.26138638825E+02  0.58644121541E+02  0.10000000000E+01 0.  0.
<mgrwt>
<rscale>  0 0.12495627E+03</rscale>
<asrwt>0</asrwt>
<pdfrwt beam="1">  1        4 0.32426421E-02 0.12495627E+03</pdfrwt>
<pdfrwt beam="2">  1       -4 0.28492488E-01 0.12495627E+03</pdfrwt>
<totfact> 0.89174487E+03</totfact>
</mgrwt>
</event>
<event>
 5    1  0.3196850E-002  0.1249978E+03  0.7818608E-02  0.1235073E+00
          4   -1    0    0  501    0  0.00000000000E+00  0.00000000000E+00  0.21132319459E+02  0.21170446989E+02  0.12700000000E+01 0.  1.
         -4   -1    0    0    0  501 -0.00000000000E+00 -0.00000000000E+00 -0.18463374659E+03  0.18463811437E+03  0.12700000000E+01 0.  1.
         25    2    1    2    0    0  0.00000000000E+00  0.00000000000E+00 -0.16350142713E+03  0.20580856136E+03  0.12499778901E+03 0.  0.
    9000005    1    3    3    0    0 -0.27213298616E+02  0.54313528678E+02 -0.57631417622E+02  0.83743079213E+02  0.10000000000E+01 0.  0.
    9000005    1    3    3    0    0  0.27213298616E+02 -0.54313528678E+02 -0.10587000951E+03  0.12206548215E+03  0.10000000000E+01 0.  0.
<mgrwt>
<rscale>  0 0.12499779E+03</rscale>
<asrwt>0</asrwt>
<pdfrwt beam="1">  1        4 0.32543951E-02 0.12499779E+03</pdfrwt>
<pdfrwt beam="2">  1       -4 0.28408460E-01 0.12499779E+03</pdfrwt>
<totfact> 0.89169415E+03</totfact>
</mgrwt>
</event>
<event>
 5    1  0.3196850E-002  0.1249980E+03  0.7818608E-02  0.1235072E+00
         -4   -1    0    0    0  501 -0.00000000000E+00  0.00000000000E+00  0.85661014578E+01  0.86597340713E+01  0.12700000000E+01 0.  1.
          4   -1    0    0  501    0  0.00000000000E+00 -0.00000000000E+00 -0.45342455997E+03  0.45342633855E+03  0.12700000000E+01 0.  1.
         25    2    1    2    0    0  0.00000000000E+00  0.00000000000E+00 -0.44485845852E+03  0.46208607262E+03  0.12499796156E+03 0.  0.
    9000005    1    3    3    0    0  0.15079202420E+02 -0.59126417268E+02 -0.17258380589E+03  0.18305596308E+03  0.10000000000E+01 0.  0.
    9000005    1    3    3    0    0 -0.15079202420E+02  0.59126417268E+02 -0.27227465262E+03  0.27903010953E+03  0.10000000000E+01 0.  0.
<mgrwt>
<rscale>  0 0.12499796E+03</rscale>
<asrwt>0</asrwt>
<pdfrwt beam="2">  1        4 0.69764945E-01 0.12499796E+03</pdfrwt>
<pdfrwt beam="1">  1       -4 0.13252014E-02 0.12499796E+03</pdfrwt>
<totfact> 0.58933548E+03</totfact>
</mgrwt>
</event>
<event>
 5    1  0.3196850E-002  0.1249975E+03  0.7818608E-02  0.1235073E+00
          4   -1    0    0  501    0  0.00000000000E+00  0.00000000000E+00  0.39365157573E+01  0.41363095034E+01  0.12700000000E+01 0.  1.
         -4   -1    0    0    0  501 -0.00000000000E+00 -0.00000000000E+00 -0.96751370396E+03  0.96751453749E+03  0.12700000000E+01 0.  1.
         25    2    1    2    0    0  0.00000000000E+00  0.00000000000E+00 -0.96357718820E+03  0.97165084699E+03  0.12499748331E+03 0.  0.
    9000005    1    3    3    0    0  0.47379192165E+02  0.40649624744E+02 -0.45992226481E+03  0.46414078631E+03  0.10000000000E+01 0.  0.
    9000005    1    3    3    0    0 -0.47379192165E+02 -0.40649624744E+02 -0.50365492339E+03  0.50751006069E+03  0.10000000000E+01 0.  0.
<mgrwt>
<rscale>  0 0.12499748E+03</rscale>
<asrwt>0</asrwt>
<pdfrwt beam="1">  1        4 0.62105145E-03 0.12499748E+03</pdfrwt>
<pdfrwt beam="2">  1       -4 0.14886351E+00 0.12499748E+03</pdfrwt>
<totfact> 0.31561312E+03</totfact>
</mgrwt>
</event>
<event>
 5    1  0.3196850E-002  0.1250019E+03  0.7818608E-02  0.1235066E+00
          4   -1    0    0  501    0  0.00000000000E+00  0.00000000000E+00  0.54930165170E+03  0.54930311984E+03  0.12700000000E+01 0.  1.
         -4   -1    0    0    0  501 -0.00000000000E+00 -0.00000000000E+00 -0.70533329290E+01  0.71667569658E+01  0.12700000000E+01 0.  1.
         25    2    1    2    0    0  0.00000000000E+00  0.00000000000E+00  0.54224831878E+03  0.55646987681E+03  0.12500193829E+03 0.  0.
    9000005    1    3    3    0    0  0.27994766025E+02  0.54508891905E+02  0.32572680431E+03  0.33144211752E+03  0.10000000000E+01 0.  0.
    9000005    1    3    3    0    0 -0.27994766025E+02 -0.54508891905E+02  0.21652151447E+03  0.22502775929E+03  0.10000000000E+01 0.  0.
<mgrwt>
<rscale>  0 0.12500194E+03</rscale>
<asrwt>0</asrwt>
<pdfrwt beam="1">  1        4 0.84516825E-01 0.12500194E+03</pdfrwt>
<pdfrwt beam="2">  1       -4 0.10939655E-02 0.12500194E+03</pdfrwt>
<totfact> 0.51733711E+03</totfact>
</mgrwt>
</event>
<event>
 5    1  0.3196850E-002  0.1250033E+03  0.7818608E-02  0.1235064E+00
          4   -1    0    0  501    0  0.00000000000E+00  0.00000000000E+00  0.16258583077E+03  0.16259079084E+03  0.12700000000E+01 0. -1.
         -4   -1    0    0    0  501 -0.00000000000E+00 -0.00000000000E+00 -0.24004913727E+02  0.24038485457E+02  0.12700000000E+01 0. -1.
         25    2    1    2    0    0  0.00000000000E+00  0.00000000000E+00  0.13858091704E+03  0.18662927630E+03  0.12500326477E+03 0.  0.
    9000005    1    3    3    0    0 -0.49971187435E+02 -0.31863830072E+02  0.98889095666E+02  0.11529300275E+03  0.10000000000E+01 0.  0.
    9000005    1    3    3    0    0  0.49971187435E+02  0.31863830072E+02  0.39691821377E+02  0.71336273555E+02  0.10000000000E+01 0.  0.
<mgrwt>
<rscale>  0 0.12500326E+03</rscale>
<asrwt>0</asrwt>
<pdfrwt beam="1">  1        4 0.25016168E-01 0.12500326E+03</pdfrwt>
<pdfrwt beam="2">  1       -4 0.36960277E-02 0.12500326E+03</pdfrwt>
<totfact> 0.92430378E+03</totfact>
</mgrwt>
</event>
<event>
 5    1  0.3196850E-002  0.1250019E+03  0.7818608E-02  0.1235066E+00
          4   -1    0    0  501    0  0.00000000000E+00  0.00000000000E+00  0.16159969233E+03  0.16160468267E+03  0.12700000000E+01 0. -1.
         -4   -1    0    0    0  501 -0.00000000000E+00 -0.00000000000E+00 -0.24151073018E+02  0.24184441857E+02  0.12700000000E+01 0. -1.
         25    2    1    2    0    0  0.00000000000E+00  0.00000000000E+00  0.13744861931E+03  0.18578912452E+03  0.12500190335E+03 0.  0.
    9000005    1    3    3    0    0 -0.56741748104E+02  0.20958138380E+02  0.45389105131E+02  0.75630948737E+02  0.10000000000E+01 0.  0.
    9000005    1    3    3    0    0  0.56741748104E+02 -0.20958138380E+02  0.92059514177E+02  0.11015817579E+03  0.10000000000E+01 0.  0.
<mgrwt>
<rscale>  0 0.12500190E+03</rscale>
<asrwt>0</asrwt>
<pdfrwt beam="1">  1        4 0.24864442E-01 0.12500190E+03</pdfrwt>
<pdfrwt beam="2">  1       -4 0.37185004E-02 0.12500190E+03</pdfrwt>
<totfact> 0.92581250E+03</totfact>
</mgrwt>
</event>
<event>
 5    1  0.3196850E-002  0.1249964E+03  0.7818608E-02  0.1235075E+00
         -4   -1    0    0    0  501 -0.00000000000E+00  0.00000000000E+00  0.30511512289E+03  0.30511776598E+03  0.12700000000E+01 0.  1.
          4   -1    0    0  501    0  0.00000000000E+00 -0.00000000000E+00 -0.12767597446E+02  0.12830605774E+02  0.12700000000E+01 0.  1.
         25    2    1    2    0    0  0.00000000000E+00  0.00000000000E+00  0.29234752545E+03  0.31794837176E+03  0.12499636582E+03 0.  0.
    9000005    1    3    3    0    0  0.14768152329E+02  0.54069918339E+02  0.75894640409E+02  0.94353859673E+02  0.10000000000E+01 0.  0.
    9000005    1    3    3    0    0 -0.14768152329E+02 -0.54069918339E+02  0.21645288504E+03  0.22359451208E+03  0.10000000000E+01 0.  0.
<mgrwt>
<rscale>  0 0.12499637E+03</rscale>
<asrwt>0</asrwt>
<pdfrwt beam="2">  1        4 0.19692958E-02 0.12499637E+03</pdfrwt>
<pdfrwt beam="1">  1       -4 0.46945841E-01 0.12499637E+03</pdfrwt>
<totfact> 0.73406716E+03</totfact>
</mgrwt>
</event>
<event>
 5    1  0.3196850E-002  0.1249738E+03  0.7818608E-02  0.1235110E+00
         -4   -1    0    0    0  501 -0.00000000000E+00  0.00000000000E+00  0.36789637560E+03  0.36789856765E+03  0.12700000000E+01 0.  1.
          4   -1    0    0  501    0  0.00000000000E+00 -0.00000000000E+00 -0.10573125093E+02  0.10649125515E+02  0.12700000000E+01 0.  1.
         25    2    1    2    0    0  0.00000000000E+00  0.00000000000E+00  0.35732325051E+03  0.37854769317E+03  0.12497379985E+03 0.  0.
    9000005    1    3    3    0    0  0.24260541248E+02 -0.37952350323E+01  0.35268211194E+03  0.35353733856E+03  0.10000000000E+01 0.  0.
    9000005    1    3    3    0    0 -0.24260541248E+02  0.37952350323E+01  0.46411385673E+01  0.25010354611E+02  0.10000000000E+01 0.  0.
<mgrwt>
<rscale>  0 0.12497380E+03</rscale>
<asrwt>0</asrwt>
<pdfrwt beam="2">  1        4 0.16326494E-02 0.12497380E+03</pdfrwt>
<pdfrwt beam="1">  1       -4 0.56605458E-01 0.12497380E+03</pdfrwt>
<totfact> 0.66732697E+03</totfact>
</mgrwt>
</event>
<event>
 4    1  0.3196850E-002  0.1248809E+03  0.7818608E-02  0.1235256E+00
          4   -1    0    0  501    0  0.00000000000E+00  0.00000000000E+00  0.26146672294E+04  0.26146675378E+04  0.12700000000E+01 0. -1.
         -4   -1    0    0    0  501 -0.00000000000E+00 -0.00000000000E+00 -0.12203497457E+01  0.17612931334E+01  0.12700000000E+01 0. -1.
    9000005    1    1    2    0    0 -0.79572498807E+01  0.29135946122E+02  0.24515188250E+04  0.24517050741E+04  0.10000000000E+01 0.  0.
    9000005    1    1    2    0    0  0.79572498807E+01 -0.29135946122E+02  0.16192805459E+03  0.16472375678E+03  0.10000000000E+01 0.  0.
<mgrwt>
<rscale>  0 0.12488088E+03</rscale>
<asrwt>0</asrwt>
<pdfrwt beam="1">  1        4 0.40229756E+00 0.12488088E+03</pdfrwt>
<pdfrwt beam="2">  1       -4 0.22938120E-03 0.12488088E+03</pdfrwt>
<totfact> 0.38280045E+02</totfact>
</mgrwt>
</event>
<event>
 5    1  0.3196850E-002  0.1250037E+03  0.7818608E-02  0.1235064E+00
          4   -1    0    0  501    0  0.00000000000E+00  0.00000000000E+00  0.44207263379E+01  0.45995349064E+01  0.12700000000E+01 0. -1.
         -4   -1    0    0    0  501 -0.00000000000E+00 -0.00000000000E+00 -0.86597720336E+03  0.86597813462E+03  0.12700000000E+01 0. -1.
         25    2    1    2    0    0  0.00000000000E+00  0.00000000000E+00 -0.86155647702E+03  0.87057766952E+03  0.12500366226E+03 0.  0.
    9000005    1    3    3    0    0 -0.62627756165E+01  0.45918848436E+02 -0.13879418973E+03  0.14633041415E+03  0.10000000000E+01 0.  0.
    9000005    1    3    3    0    0  0.62627756165E+01 -0.45918848436E+02 -0.72276228729E+03  0.72424725538E+03  0.10000000000E+01 0.  0.
<mgrwt>
<rscale>  0 0.12500366E+03</rscale>
<asrwt>0</asrwt>
<pdfrwt beam="1">  1        4 0.69393857E-03 0.12500366E+03</pdfrwt>
<pdfrwt beam="2">  1       -4 0.13324096E+00 0.12500366E+03</pdfrwt>
<totfact> 0.35296958E+03</totfact>
</mgrwt>
</event>
<event>
 5    1  0.3196850E-002  0.1249983E+03  0.7818608E-02  0.1235072E+00
         -4   -1    0    0    0  501 -0.00000000000E+00  0.00000000000E+00  0.22835842615E+02  0.22871130448E+02  0.12700000000E+01 0. -1.
          4   -1    0    0  501    0  0.00000000000E+00 -0.00000000000E+00 -0.17088351633E+03  0.17088823556E+03  0.12700000000E+01 0. -1.
         25    2    1    2    0    0  0.00000000000E+00  0.00000000000E+00 -0.14804767371E+03  0.19375936601E+03  0.12499831288E+03 0.  0.
    9000005    1    3    3    0    0  0.25372762082E+02  0.53164519523E+02 -0.41697690238E+02  0.72179918003E+02  0.10000000000E+01 0.  0.
    9000005    1    3    3    0    0 -0.25372762082E+02 -0.53164519523E+02 -0.10634998348E+03  0.12157944800E+03  0.10000000000E+01 0.  0.
<mgrwt>
<rscale>  0 0.12499831E+03</rscale>
<asrwt>0</asrwt>
<pdfrwt beam="2">  1        4 0.26292848E-01 0.12499831E+03</pdfrwt>
<pdfrwt beam="1">  1       -4 0.35162841E-02 0.12499831E+03</pdfrwt>
<totfact> 0.91200726E+03</totfact>
</mgrwt>
</event>
<event>
 5    1  0.3196850E-002  0.1250002E+03  0.7818608E-02  0.1235069E+00
          4   -1    0    0  501    0  0.00000000000E+00  0.00000000000E+00  0.18741118979E+04  0.18741123282E+04  0.12700000000E+01 0.  1.
         -4   -1    0    0    0  501 -0.00000000000E+00 -0.00000000000E+00 -0.18904024898E+01  0.22773935921E+01  0.12700000000E+01 0.  1.
         25    2    1    2    0    0  0.00000000000E+00  0.00000000000E+00  0.18722214954E+04  0.18763897218E+04  0.12500024084E+03 0.  0.
    9000005    1    3    3    0    0 -0.36528651465E+02 -0.32326661916E+02  0.15224873043E+04  0.15232688361E+04  0.10000000000E+01 0.  0.
    9000005    1    3    3    0    0  0.36528651465E+02  0.32326661916E+02  0.34973419111E+03  0.35312088565E+03  0.10000000000E+01 0.  0.
<mgrwt>
<rscale>  0 0.12500024E+03</rscale>
<asrwt>0</asrwt>
<pdfrwt beam="1">  1        4 0.28835490E+00 0.12500024E+03</pdfrwt>
<pdfrwt beam="2">  1       -4 0.32063258E-03 0.12500024E+03</pdfrwt>
<totfact> 0.11562098E+03</totfact>
</mgrwt>
</event>
<event>
 5    1  0.3196850E-002  0.1249972E+03  0.7818608E-02  0.1235074E+00
          4   -1    0    0  501    0  0.00000000000E+00  0.00000000000E+00  0.72598524626E+02  0.72609632129E+02  0.12700000000E+01 0. -1.
         -4   -1    0    0    0  501 -0.00000000000E+00 -0.00000000000E+00 -0.53781092360E+02  0.53796085317E+02  0.12700000000E+01 0. -1.
         25    2    1    2    0    0  0.00000000000E+00  0.00000000000E+00  0.18817432266E+02  0.12640571745E+03  0.12499723855E+03 0.  0.
    9000005    1    3    3    0    0 -0.13869273750E+01  0.62462156604E+02  0.81164926750E+01  0.63010491416E+02  0.10000000000E+01 0.  0.
    9000005    1    3    3    0    0  0.13869273750E+01 -0.62462156604E+02  0.10700939591E+02  0.63395226029E+02  0.10000000000E+01 0.  0.
<mgrwt>
<rscale>  0 0.12499724E+03</rscale>
<asrwt>0</asrwt>
<pdfrwt beam="1">  1        4 0.11171011E-01 0.12499724E+03</pdfrwt>
<pdfrwt beam="2">  1       -4 0.82760220E-02 0.12499724E+03</pdfrwt>
<totfact> 0.10422735E+04</totfact>
</mgrwt>
</event>
<event>
 5    1  0.3196850E-002  0.1249985E+03  0.7818608E-02  0.1235072E+00
          4   -1    0    0  501    0  0.00000000000E+00  0.00000000000E+00  0.28571421750E+04  0.28571424573E+04  0.12700000000E+01 0.  1.
         -4   -1    0    0    0  501 -0.00000000000E+00 -0.00000000000E+00 -0.10718747933E+01  0.16618711059E+01  0.12700000000E+01 0.  1.
         25    2    1    2    0    0  0.00000000000E+00  0.00000000000E+00  0.28560703002E+04  0.28588043284E+04  0.12499851258E+03 0.  0.
    9000005    1    3    3    0    0 -0.42881914833E+02  0.24733074094E+02  0.55577222027E+03  0.55797342625E+03  0.10000000000E+01 0.  0.
    9000005    1    3    3    0    0  0.42881914833E+02 -0.24733074094E+02  0.23002980799E+04  0.23008309021E+04  0.10000000000E+01 0.  0.
<mgrwt>
<rscale>  0 0.12499851E+03</rscale>
<asrwt>0</asrwt>
<pdfrwt beam="1">  1        4 0.43960705E+00 0.12499851E+03</pdfrwt>
<pdfrwt beam="2">  1       -4 0.21030923E-03 0.12499851E+03</pdfrwt>
<totfact> 0.24230168E+02</totfact>
</mgrwt>
</event>
<event>
 5    1  0.3196850E-002  0.1249982E+03  0.7818608E-02  0.1235072E+00
         -4   -1    0    0    0  501 -0.00000000000E+00  0.00000000000E+00  0.97135562390E+02  0.97143864350E+02  0.12700000000E+01 0.  1.
          4   -1    0    0  501    0  0.00000000000E+00 -0.00000000000E+00 -0.40193177003E+02  0.40213236348E+02  0.12700000000E+01 0.  1.
         25    2    1    2    0    0  0.00000000000E+00  0.00000000000E+00  0.56942385388E+02  0.13735710070E+03  0.12499815142E+03 0.  0.
    9000005    1    3    3    0    0  0.33954722616E+02  0.29754770975E+02 -0.19008070188E+02  0.48995676503E+02  0.10000000000E+01 0.  0.
    9000005    1    3    3    0    0 -0.33954722616E+02 -0.29754770975E+02  0.75950455576E+02  0.88361424195E+02  0.10000000000E+01 0.  0.
<mgrwt>
<rscale>  0 0.12499815E+03</rscale>
<asrwt>0</asrwt>
<pdfrwt beam="2">  1        4 0.61857473E-02 0.12499815E+03</pdfrwt>
<pdfrwt beam="1">  1       -4 0.14946114E-01 0.12499815E+03</pdfrwt>
<totfact> 0.10189049E+04</totfact>
</mgrwt>
</event>
<event>
 5    1  0.3196850E-002  0.1249993E+03  0.7818608E-02  0.1235070E+00
         -4   -1    0    0    0  501 -0.00000000000E+00  0.00000000000E+00  0.15897718654E+02  0.15948365383E+02  0.12700000000E+01 0.  1.
          4   -1    0    0  501    0  0.00000000000E+00 -0.00000000000E+00 -0.24526549368E+03  0.24526878172E+03  0.12700000000E+01 0.  1.
         25    2    1    2    0    0  0.00000000000E+00  0.00000000000E+00 -0.22936777502E+03  0.26121714711E+03  0.12499928689E+03 0.  0.
    9000005    1    3    3    0    0  0.52906199188E+02 -0.98935130978E+01 -0.48327922881E+02  0.72343179665E+02  0.10000000000E+01 0.  0.
    9000005    1    3    3    0    0 -0.52906199188E+02  0.98935130978E+01 -0.18103985214E+03  0.18887396744E+03  0.10000000000E+01 0.  0.
<mgrwt>
<rscale>  0 0.12499929E+03</rscale>
<asrwt>0</asrwt>
<pdfrwt beam="2">  1        4 0.37737299E-01 0.12499929E+03</pdfrwt>
<pdfrwt beam="1">  1       -4 0.24499519E-02 0.12499929E+03</pdfrwt>
<totfact> 0.80736837E+03</totfact>
</mgrwt>
</event>
<event>
 5    1  0.3196850E-002  0.1250017E+03  0.7818608E-02  0.1235067E+00
          4   -1    0    0  501    0  0.00000000000E+00  0.00000000000E+00  0.43770312175E+03  0.43770496420E+03  0.12700000000E+01 0.  1.
         -4   -1    0    0    0  501 -0.00000000000E+00 -0.00000000000E+00 -0.88776199681E+01  0.89680006856E+01  0.12700000000E+01 0.  1.
         25    2    1    2    0    0  0.00000000000E+00  0.00000000000E+00  0.42882550178E+03  0.44667296489E+03  0.12500170633E+03 0.  0.
    9000005    1    3    3    0    0 -0.34406860893E+02 -0.52097092141E+02  0.22414479953E+03  0.23267967303E+03  0.10000000000E+01 0.  0.
    9000005    1    3    3    0    0  0.34406860893E+02  0.52097092141E+02  0.20468070225E+03  0.21399329186E+03  0.10000000000E+01 0.  0.
<mgrwt>
<rscale>  0 0.12500171E+03</rscale>
<asrwt>0</asrwt>
<pdfrwt beam="1">  1        4 0.67346035E-01 0.12500171E+03</pdfrwt>
<pdfrwt beam="2">  1       -4 0.13728818E-02 0.12500171E+03</pdfrwt>
<totfact> 0.60250837E+03</totfact>
</mgrwt>
</event>
<event>
 5    1  0.3196850E-002  0.1249972E+03  0.7818608E-02  0.1235074E+00
         -4   -1    0    0    0  501 -0.00000000000E+00  0.00000000000E+00  0.14982905079E+03  0.14983443316E+03  0.12700000000E+01 0.  1.
          4   -1    0    0  501    0  0.00000000000E+00 -0.00000000000E+00 -0.26048892403E+02  0.26079833118E+02  0.12700000000E+01 0.  1.
         25    2    1    2    0    0  0.00000000000E+00  0.00000000000E+00  0.12378015839E+03  0.17591426628E+03  0.12499720585E+03 0.  0.
    9000005    1    3    3    0    0 -0.61200247682E+02  0.12555777642E+02  0.63859105515E+02  0.89342617075E+02  0.10000000000E+01 0.  0.
    9000005    1    3    3    0    0  0.61200247682E+02 -0.12555777642E+02  0.59921052871E+02  0.86571649203E+02  0.10000000000E+01 0.  0.
<mgrwt>
<rscale>  0 0.12499721E+03</rscale>
<asrwt>0</asrwt>
<pdfrwt beam="2">  1        4 0.40103160E-02 0.12499721E+03</pdfrwt>
<pdfrwt beam="1">  1       -4 0.23053417E-01 0.12499721E+03</pdfrwt>
<totfact> 0.94363575E+03</totfact>
</mgrwt>
</event>
<event>
 5    1  0.3196850E-002  0.1250003E+03  0.7818608E-02  0.1235069E+00
         -4   -1    0    0    0  501 -0.00000000000E+00  0.00000000000E+00  0.10689821123E+02  0.10764997707E+02  0.12700000000E+01 0. -1.
          4   -1    0    0  501    0  0.00000000000E+00 -0.00000000000E+00 -0.36406276784E+03  0.36406498297E+03  0.12700000000E+01 0. -1.
         25    2    1    2    0    0  0.00000000000E+00  0.00000000000E+00 -0.35337294672E+03  0.37482998068E+03  0.12500029978E+03 0.  0.
    9000005    1    3    3    0    0  0.24903529515E+02  0.97401112784E+01 -0.34605515963E+03  0.34708821509E+03  0.10000000000E+01 0.  0.
    9000005    1    3    3    0    0 -0.24903529515E+02 -0.97401112784E+01 -0.73177870868E+01  0.27741765587E+02  0.10000000000E+01 0.  0.
<mgrwt>
<rscale>  0 0.12500030E+03</rscale>
<asrwt>0</asrwt>
<pdfrwt beam="2">  1        4 0.56015600E-01 0.12500030E+03</pdfrwt>
<pdfrwt beam="1">  1       -4 0.16505414E-02 0.12500030E+03</pdfrwt>
<totfact> 0.67076200E+03</totfact>
</mgrwt>
</event>
<event>
 5    1  0.3196850E-002  0.1249987E+03  0.7818608E-02  0.1235071E+00
         -4   -1    0    0    0  501 -0.00000000000E+00  0.00000000000E+00  0.40431415000E+02  0.40451356206E+02  0.12700000000E+01 0.  1.
          4   -1    0    0  501    0  0.00000000000E+00 -0.00000000000E+00 -0.96564225299E+02  0.96572576374E+02  0.12700000000E+01 0.  1.
         25    2    1    2    0    0  0.00000000000E+00  0.00000000000E+00 -0.56132810298E+02  0.13702393258E+03  0.12499866282E+03 0.  0.
    9000005    1    3    3    0    0 -0.47365331899E+02 -0.31719878193E+02  0.27331911743E-03  0.57014255573E+02  0.10000000000E+01 0.  0.
    9000005    1    3    3    0    0  0.47365331899E+02  0.31719878193E+02 -0.56133083617E+02  0.80009677008E+02  0.10000000000E+01 0.  0.
<mgrwt>
<rscale>  0 0.12499866E+03</rscale>
<asrwt>0</asrwt>
<pdfrwt beam="2">  1        4 0.14858211E-01 0.12499866E+03</pdfrwt>
<pdfrwt beam="1">  1       -4 0.62223940E-02 0.12499866E+03</pdfrwt>
<totfact> 0.10195893E+04</totfact>
</mgrwt>
</event>
<event>
 5    1  0.3196850E-002  0.1249970E+03  0.7818608E-02  0.1235074E+00
         -4   -1    0    0    0  501 -0.00000000000E+00  0.00000000000E+00  0.84280418218E+02  0.84289986327E+02  0.12700000000E+01 0. -1.
          4   -1    0    0  501    0  0.00000000000E+00 -0.00000000000E+00 -0.46325128848E+02  0.46342534057E+02  0.12700000000E+01 0. -1.
         25    2    1    2    0    0  0.00000000000E+00  0.00000000000E+00  0.37955289370E+02  0.13063252038E+03  0.12499700553E+03 0.  0.
    9000005    1    3    3    0    0 -0.76160388529E+01  0.49217969235E+02  0.58423904840E+02  0.76777374272E+02  0.10000000000E+01 0.  0.
    9000005    1    3    3    0    0  0.76160388529E+01 -0.49217969235E+02 -0.20468615470E+02  0.53855146111E+02  0.10000000000E+01 0.  0.
<mgrwt>
<rscale>  0 0.12499701E+03</rscale>
<asrwt>0</asrwt>
<pdfrwt beam="2">  1        4 0.71290178E-02 0.12499701E+03</pdfrwt>
<pdfrwt beam="1">  1       -4 0.12968293E-01 0.12499701E+03</pdfrwt>
<totfact> 0.10331672E+04</totfact>
</mgrwt>
</event>
<event>
 5    1  0.3196850E-002  0.1250040E+03  0.7818608E-02  0.1235063E+00
          4   -1    0    0  501    0  0.00000000000E+00  0.00000000000E+00  0.26650155544E+02  0.26680398995E+02  0.12700000000E+01 0. -1.
         -4   -1    0    0    0  501 -0.00000000000E+00 -0.00000000000E+00 -0.14646830188E+03  0.14647380775E+03  0.12700000000E+01 0. -1.
         25    2    1    2    0    0  0.00000000000E+00  0.00000000000E+00 -0.11981814634E+03  0.17315420674E+03  0.12500396442E+03 0.  0.
    9000005    1    3    3    0    0  0.10711441357E+02 -0.53168814215E+02 -0.10291335835E+03  0.11633493503E+03  0.10000000000E+01 0.  0.
    9000005    1    3    3    0    0 -0.10711441357E+02  0.53168814215E+02 -0.16904787982E+02  0.56819271710E+02  0.10000000000E+01 0.  0.
<mgrwt>
<rscale>  0 0.12500396E+03</rscale>
<asrwt>0</asrwt>
<pdfrwt beam="1">  1        4 0.41027740E-02 0.12500396E+03</pdfrwt>
<pdfrwt beam="2">  1       -4 0.22536334E-01 0.12500396E+03</pdfrwt>
<totfact> 0.94855547E+03</totfact>
</mgrwt>
</event>
<event>
 5    1  0.3196850E-002  0.1250215E+03  0.7818608E-02  0.1235036E+00
          4   -1    0    0  501    0  0.00000000000E+00  0.00000000000E+00  0.45886969826E+03  0.45887145573E+03  0.12700000000E+01 0.  1.
         -4   -1    0    0    0  501 -0.00000000000E+00 -0.00000000000E+00 -0.84665542925E+01  0.85612756986E+01  0.12700000000E+01 0.  1.
         25    2    1    2    0    0  0.00000000000E+00  0.00000000000E+00  0.45040314397E+03  0.46743273143E+03  0.12502146341E+03 0.  0.
    9000005    1    3    3    0    0  0.29049683748E+02  0.49959546824E+02  0.31420992000E+03  0.31948194670E+03  0.10000000000E+01 0.  0.
    9000005    1    3    3    0    0 -0.29049683748E+02 -0.49959546824E+02  0.13619322397E+03  0.14795078473E+03  0.10000000000E+01 0.  0.
<mgrwt>
<rscale>  0 0.12502146E+03</rscale>
<asrwt>0</asrwt>
<pdfrwt beam="1">  1        4 0.70602758E-01 0.12502146E+03</pdfrwt>
<pdfrwt beam="2">  1       -4 0.13099683E-02 0.12502146E+03</pdfrwt>
<totfact> 0.58455172E+03</totfact>
</mgrwt>
</event>
<event>
 5    1  0.3196850E-002  0.1249930E+03  0.7818608E-02  0.1235080E+00
         -4   -1    0    0    0  501 -0.00000000000E+00  0.00000000000E+00  0.26185007729E+02  0.26215787796E+02  0.12700000000E+01 0.  1.
          4   -1    0    0  501    0  0.00000000000E+00 -0.00000000000E+00 -0.14904113134E+03  0.14904654217E+03  0.12700000000E+01 0.  1.
         25    2    1    2    0    0  0.00000000000E+00  0.00000000000E+00 -0.12285612361E+03  0.17526232996E+03  0.12499302858E+03 0.  0.
    9000005    1    3    3    0    0  0.55515291644E+02 -0.53575876849E+01 -0.21913460906E+02  0.59932054203E+02  0.10000000000E+01 0.  0.
    9000005    1    3    3    0    0 -0.55515291644E+02  0.53575876849E+01 -0.10094266271E+03  0.11533027576E+03  0.10000000000E+01 0.  0.
<mgrwt>
<rscale>  0 0.12499303E+03</rscale>
<asrwt>0</asrwt>
<pdfrwt beam="2">  1        4 0.22932188E-01 0.12499303E+03</pdfrwt>
<pdfrwt beam="1">  1       -4 0.40312467E-02 0.12499303E+03</pdfrwt>
<totfact> 0.94491594E+03</totfact>
</mgrwt>
</event>
<event>
 5    1  0.3196850E-002  0.1250075E+03  0.7818608E-02  0.1235058E+00
          4   -1    0    0  501    0  0.00000000000E+00  0.00000000000E+00  0.45366650530E+03  0.45366828292E+03  0.12700000000E+01 0.  1.
         -4   -1    0    0    0  501 -0.00000000000E+00 -0.00000000000E+00 -0.85628043826E+01  0.86564726589E+01  0.12700000000E+01 0.  1.
         25    2    1    2    0    0  0.00000000000E+00  0.00000000000E+00  0.44510370092E+03  0.46232475558E+03  0.12500749999E+03 0.  0.
    9000005    1    3    3    0    0 -0.52946084119E+02  0.28197969205E+02  0.15771883432E+03  0.16874431543E+03  0.10000000000E+01 0.  0.
    9000005    1    3    3    0    0  0.52946084119E+02 -0.28197969205E+02  0.28738486660E+03  0.29358044015E+03  0.10000000000E+01 0.  0.
<mgrwt>
<rscale>  0 0.12500750E+03</rscale>
<asrwt>0</asrwt>
<pdfrwt beam="1">  1        4 0.69802197E-01 0.12500750E+03</pdfrwt>
<pdfrwt beam="2">  1       -4 0.13246964E-02 0.12500750E+03</pdfrwt>
<totfact> 0.58901044E+03</totfact>
</mgrwt>
</event>
<event>
 5    1  0.3196850E-002  0.1250028E+03  0.7818608E-02  0.1235065E+00
          4   -1    0    0  501    0  0.00000000000E+00  0.00000000000E+00  0.50398445421E+02  0.50414444367E+02  0.12700000000E+01 0. -1.
         -4   -1    0    0    0  501 -0.00000000000E+00 -0.00000000000E+00 -0.77477298385E+02  0.77487706542E+02  0.12700000000E+01 0. -1.
         25    2    1    2    0    0  0.00000000000E+00  0.00000000000E+00 -0.27078852965E+02  0.12790215091E+03  0.12500278369E+03 0.  0.
    9000005    1    3    3    0    0 -0.49741699520E+01 -0.48855579080E+02 -0.53085778462E+02  0.72323646541E+02  0.10000000000E+01 0.  0.
    9000005    1    3    3    0    0  0.49741699520E+01  0.48855579080E+02  0.26006925498E+02  0.55578504368E+02  0.10000000000E+01 0.  0.
<mgrwt>
<rscale>  0 0.12500278E+03</rscale>
<asrwt>0</asrwt>
<pdfrwt beam="1">  1        4 0.77556383E-02 0.12500278E+03</pdfrwt>
<pdfrwt beam="2">  1       -4 0.11921616E-01 0.12500278E+03</pdfrwt>
<totfact> 0.10388948E+04</totfact>
</mgrwt>
</event>
<event>
 5    1  0.3196850E-002  0.1250030E+03  0.7818608E-02  0.1235065E+00
          4   -1    0    0  501    0  0.00000000000E+00  0.00000000000E+00  0.17301578588E+03  0.17302044695E+03  0.12700000000E+01 0. -1.
         -4   -1    0    0    0  501 -0.00000000000E+00 -0.00000000000E+00 -0.22555669512E+02  0.22591394980E+02  0.12700000000E+01 0. -1.
         25    2    1    2    0    0  0.00000000000E+00  0.00000000000E+00  0.15046011637E+03  0.19561184193E+03  0.12500298431E+03 0.  0.
    9000005    1    3    3    0    0 -0.30041001421E+02  0.43879881878E+02  0.12659769564E+03  0.13731672273E+03  0.10000000000E+01 0.  0.
    9000005    1    3    3    0    0  0.30041001421E+02 -0.43879881878E+02  0.23862420730E+02  0.58295119205E+02  0.10000000000E+01 0.  0.
<mgrwt>
<rscale>  0 0.12500298E+03</rscale>
<asrwt>0</asrwt>
<pdfrwt beam="1">  1        4 0.26620920E-01 0.12500298E+03</pdfrwt>
<pdfrwt beam="2">  1       -4 0.34732096E-02 0.12500298E+03</pdfrwt>
<totfact> 0.90873865E+03</totfact>
</mgrwt>
</event>
<event>
 5    1  0.3196850E-002  0.1249975E+03  0.7818608E-02  0.1235073E+00
          4   -1    0    0  501    0  0.00000000000E+00  0.00000000000E+00  0.48241088751E+02  0.48257802933E+02  0.12700000000E+01 0.  1.
         -4   -1    0    0    0  501 -0.00000000000E+00 -0.00000000000E+00 -0.80934490951E+02  0.80944454569E+02  0.12700000000E+01 0.  1.
         25    2    1    2    0    0  0.00000000000E+00  0.00000000000E+00 -0.32693402200E+02  0.12920225750E+03  0.12499745916E+03 0.  0.
    9000005    1    3    3    0    0 -0.36761357775E+02  0.32244414706E+00 -0.68579642693E+02  0.77818177745E+02  0.10000000000E+01 0.  0.
    9000005    1    3    3    0    0  0.36761357775E+02 -0.32244414706E+00  0.35886240493E+02  0.51384079757E+02  0.10000000000E+01 0.  0.
<mgrwt>
<rscale>  0 0.12499746E+03</rscale>
<asrwt>0</asrwt>
<pdfrwt beam="1">  1        4 0.74237581E-02 0.12499746E+03</pdfrwt>
<pdfrwt beam="2">  1       -4 0.12453512E-01 0.12499746E+03</pdfrwt>
<totfact> 0.10362197E+04</totfact>
</mgrwt>
</event>
<event>
 5    1  0.3196850E-002  0.1249980E+03  0.7818608E-02  0.1235072E+00
          4   -1    0    0  501    0  0.00000000000E+00  0.00000000000E+00  0.25497234839E+03  0.25497551126E+03  0.12700000000E+01 0.  1.
         -4   -1    0    0    0  501 -0.00000000000E+00 -0.00000000000E+00 -0.15290225527E+02  0.15342877717E+02  0.12700000000E+01 0.  1.
         25    2    1    2    0    0  0.00000000000E+00  0.00000000000E+00  0.23968212286E+03  0.27031838898E+03  0.12499804558E+03 0.  0.
    9000005    1    3    3    0    0  0.30730035403E+02  0.42708853833E+02  0.19275393183E+03  0.19980855715E+03  0.10000000000E+01 0.  0.
    9000005    1    3    3    0    0 -0.30730035403E+02 -0.42708853833E+02  0.46928191025E+02  0.70509831829E+02  0.10000000000E+01 0.  0.
<mgrwt>
<rscale>  0 0.12499805E+03</rscale>
<asrwt>0</asrwt>
<pdfrwt beam="1">  1        4 0.39230808E-01 0.12499805E+03</pdfrwt>
<pdfrwt beam="2">  1       -4 0.23566359E-02 0.12499805E+03</pdfrwt>
<totfact> 0.79482934E+03</totfact>
</mgrwt>
</event>
<event>
 5    1  0.3196850E-002  0.1249991E+03  0.7818608E-02  0.1235071E+00
          4   -1    0    0  501    0  0.00000000000E+00  0.00000000000E+00  0.27258306830E+03  0.27258602683E+03  0.12700000000E+01 0.  1.
         -4   -1    0    0    0  501 -0.00000000000E+00 -0.00000000000E+00 -0.14299109046E+02  0.14355396878E+02  0.12700000000E+01 0.  1.
         25    2    1    2    0    0  0.00000000000E+00  0.00000000000E+00  0.25828395925E+03  0.28694142371E+03  0.12499910813E+03 0.  0.
    9000005    1    3    3    0    0 -0.52897245294E+02  0.32984523869E+02  0.11911044019E+03  0.13444104410E+03  0.10000000000E+01 0.  0.
    9000005    1    3    3    0    0  0.52897245294E+02 -0.32984523869E+02  0.13917351906E+03  0.15250037961E+03  0.10000000000E+01 0.  0.
<mgrwt>
<rscale>  0 0.12499911E+03</rscale>
<asrwt>0</asrwt>
<pdfrwt beam="1">  1        4 0.41940412E-01 0.12499911E+03</pdfrwt>
<pdfrwt beam="2">  1       -4 0.22044204E-02 0.12499911E+03</pdfrwt>
<totfact> 0.77268165E+03</totfact>
</mgrwt>
</event>
<event>
 5    1  0.3196850E-002  0.1250117E+03  0.7818608E-02  0.1235051E+00
          4   -1    0    0  501    0  0.00000000000E+00  0.00000000000E+00  0.14595343003E+03  0.14595895532E+03  0.12700000000E+01 0. -1.
         -4   -1    0    0    0  501 -0.00000000000E+00 -0.00000000000E+00 -0.26747582443E+02  0.26777715858E+02  0.12700000000E+01 0. -1.
         25    2    1    2    0    0  0.00000000000E+00  0.00000000000E+00  0.11920584759E+03  0.17273667118E+03  0.12501169334E+03 0.  0.
    9000005    1    3    3    0    0  0.59829812723E+02  0.92409798974E+01  0.81052721841E+02  0.10117087485E+03  0.10000000000E+01 0.  0.
    9000005    1    3    3    0    0 -0.59829812723E+02 -0.92409798974E+01  0.38153125749E+02  0.71565796330E+02  0.10000000000E+01 0.  0.
<mgrwt>
<rscale>  0 0.12501169E+03</rscale>
<asrwt>0</asrwt>
<pdfrwt beam="1">  1        4 0.22457116E-01 0.12501169E+03</pdfrwt>
<pdfrwt beam="2">  1       -4 0.41177558E-02 0.12501169E+03</pdfrwt>
<totfact> 0.94916100E+03</totfact>
</mgrwt>
</event>
<event>
 5    1  0.3196850E-002  0.1250002E+03  0.7818608E-02  0.1235069E+00
         -4   -1    0    0    0  501 -0.00000000000E+00  0.00000000000E+00  0.42640051262E+03  0.42640240391E+03  0.12700000000E+01 0. -1.
          4   -1    0    0  501    0  0.00000000000E+00 -0.00000000000E+00 -0.91150883793E+01  0.92031373000E+01  0.12700000000E+01 0. -1.
         25    2    1    2    0    0  0.00000000000E+00  0.00000000000E+00  0.41728542424E+03  0.43560554121E+03  0.12500024901E+03 0.  0.
    9000005    1    3    3    0    0  0.49023841090E+02 -0.31972178614E+02  0.13231694778E+03  0.14468701348E+03  0.10000000000E+01 0.  0.
    9000005    1    3    3    0    0 -0.49023841090E+02  0.31972178614E+02  0.28496847646E+03  0.29091852773E+03  0.10000000000E+01 0.  0.
<mgrwt>
<rscale>  0 0.12500025E+03</rscale>
<asrwt>0</asrwt>
<pdfrwt beam="2">  1        4 0.14092401E-02 0.12500025E+03</pdfrwt>
<pdfrwt beam="1">  1       -4 0.65606983E-01 0.12500025E+03</pdfrwt>
<totfact> 0.61230820E+03</totfact>
</mgrwt>
</event>
<event>
 5    1  0.3196850E-002  0.1250003E+03  0.7818608E-02  0.1235069E+00
          4   -1    0    0  501    0  0.00000000000E+00  0.00000000000E+00  0.22666245330E+02  0.22701796787E+02  0.12700000000E+01 0.  1.
         -4   -1    0    0    0  501 -0.00000000000E+00 -0.00000000000E+00 -0.17216554858E+03  0.17217023267E+03  0.12700000000E+01 0.  1.
         25    2    1    2    0    0  0.00000000000E+00  0.00000000000E+00 -0.14949930325E+03  0.19487202946E+03  0.12500026477E+03 0.  0.
    9000005    1    3    3    0    0  0.39396687386E+01  0.32285948889E+02 -0.15793752050E+03  0.16125496540E+03  0.10000000000E+01 0.  0.
    9000005    1    3    3    0    0 -0.39396687386E+01 -0.32285948889E+02  0.84382172485E+01  0.33617064056E+02  0.10000000000E+01 0.  0.
<mgrwt>
<rscale>  0 0.12500026E+03</rscale>
<asrwt>0</asrwt>
<pdfrwt beam="1">  1        4 0.34902098E-02 0.12500026E+03</pdfrwt>
<pdfrwt beam="2">  1       -4 0.26490102E-01 0.12500026E+03</pdfrwt>
<totfact> 0.91005901E+03</totfact>
</mgrwt>
</event>
<event>
 5    1  0.3196850E-002  0.1249885E+03  0.7818608E-02  0.1235087E+00
          4   -1    0    0  501    0  0.00000000000E+00  0.00000000000E+00  0.32670366504E+02  0.32695041635E+02  0.12700000000E+01 0. -1.
         -4   -1    0    0    0  501 -0.00000000000E+00 -0.00000000000E+00 -0.11947031293E+03  0.11947706295E+03  0.12700000000E+01 0. -1.
         25    2    1    2    0    0  0.00000000000E+00  0.00000000000E+00 -0.86799946423E+02  0.15217210458E+03  0.12498847433E+03 0.  0.
    9000005    1    3    3    0    0 -0.54466877780E+02 -0.27732218770E+02 -0.59218569926E+02  0.85109081519E+02  0.10000000000E+01 0.  0.
    9000005    1    3    3    0    0  0.54466877780E+02  0.27732218770E+02 -0.27581376498E+02  0.67063023064E+02  0.10000000000E+01 0.  0.
<mgrwt>
<rscale>  0 0.12498847E+03</rscale>
<asrwt>0</asrwt>
<pdfrwt beam="1">  1        4 0.50286276E-02 0.12498847E+03</pdfrwt>
<pdfrwt beam="2">  1       -4 0.18382465E-01 0.12498847E+03</pdfrwt>
<totfact> 0.98898116E+03</totfact>
</mgrwt>
</event>
<event>
 5    1  0.3196850E-002  0.1249987E+03  0.7818608E-02  0.1235071E+00
         -4   -1    0    0    0  501 -0.00000000000E+00  0.00000000000E+00  0.37222089969E+03  0.37222306628E+03  0.12700000000E+01 0.  1.
          4   -1    0    0  501    0  0.00000000000E+00 -0.00000000000E+00 -0.10453587809E+02  0.10530450992E+02  0.12700000000E+01 0.  1.
         25    2    1    2    0    0  0.00000000000E+00  0.00000000000E+00  0.36176731189E+03  0.38275351727E+03  0.12499866813E+03 0.  0.
    9000005    1    3    3    0    0 -0.22425940214E+02 -0.57621091107E+02  0.20862089417E+03  0.21759317641E+03  0.10000000000E+01 0.  0.
    9000005    1    3    3    0    0  0.22425940214E+02  0.57621091107E+02  0.15314641772E+03  0.16516034086E+03  0.10000000000E+01 0.  0.
<mgrwt>
<rscale>  0 0.12499867E+03</rscale>
<asrwt>0</asrwt>
<pdfrwt beam="2">  1        4 0.16143237E-02 0.12499867E+03</pdfrwt>
<pdfrwt beam="1">  1       -4 0.57270826E-01 0.12499867E+03</pdfrwt>
<totfact> 0.66267405E+03</totfact>
</mgrwt>
</event>
<event>
 5    1  0.3196850E-002  0.1250050E+03  0.7818608E-02  0.1235062E+00
         -4   -1    0    0    0  501 -0.00000000000E+00  0.00000000000E+00  0.19172520305E+03  0.19172940928E+03  0.12700000000E+01 0.  1.
          4   -1    0    0  501    0  0.00000000000E+00 -0.00000000000E+00 -0.20351611526E+02  0.20391198878E+02  0.12700000000E+01 0.  1.
         25    2    1    2    0    0  0.00000000000E+00  0.00000000000E+00  0.17137359152E+03  0.21212060816E+03  0.12500497804E+03 0.  0.
    9000005    1    3    3    0    0  0.17943326827E+02 -0.57309062048E+02  0.11504211654E+03  0.12977665486E+03  0.10000000000E+01 0.  0.
    9000005    1    3    3    0    0 -0.17943326827E+02  0.57309062048E+02  0.56331474984E+02  0.82343953296E+02  0.10000000000E+01 0.  0.
<mgrwt>
<rscale>  0 0.12500498E+03</rscale>
<asrwt>0</asrwt>
<pdfrwt beam="2">  1        4 0.31343860E-02 0.12500498E+03</pdfrwt>
<pdfrwt beam="1">  1       -4 0.29499553E-01 0.12500498E+03</pdfrwt>
<totfact> 0.88120919E+03</totfact>
</mgrwt>
</event>
<event>
 5    1  0.3196850E-002  0.1250259E+03  0.7818608E-02  0.1235029E+00
          4   -1    0    0  501    0  0.00000000000E+00  0.00000000000E+00  0.74596603695E+02  0.74607413726E+02  0.12700000000E+01 0.  1.
         -4   -1    0    0    0  501 -0.00000000000E+00 -0.00000000000E+00 -0.52364370003E+02  0.52379768478E+02  0.12700000000E+01 0.  1.
         25    2    1    2    0    0  0.00000000000E+00  0.00000000000E+00  0.22232233692E+02  0.12698718220E+03  0.12502588624E+03 0.  0.
    9000005    1    3    3    0    0 -0.17004472894E+02  0.41335429857E+02 -0.33262532309E+02  0.55724015608E+02  0.10000000000E+01 0.  0.
    9000005    1    3    3    0    0  0.17004472894E+02 -0.41335429857E+02  0.55494766001E+02  0.71263166597E+02  0.10000000000E+01 0.  0.
<mgrwt>
<rscale>  0 0.12502589E+03</rscale>
<asrwt>0</asrwt>
<pdfrwt beam="1">  1        4 0.11478416E-01 0.12502589E+03</pdfrwt>
<pdfrwt beam="2">  1       -4 0.80580730E-02 0.12502589E+03</pdfrwt>
<totfact> 0.10403344E+04</totfact>
</mgrwt>
</event>
<event>
 5    1  0.3196850E-002  0.1250006E+03  0.7818608E-02  0.1235068E+00
          4   -1    0    0  501    0  0.00000000000E+00  0.00000000000E+00  0.41809927703E+03  0.41810120588E+03  0.12700000000E+01 0.  1.
         -4   -1    0    0    0  501 -0.00000000000E+00 -0.00000000000E+00 -0.92978435202E+01  0.93841778610E+01  0.12700000000E+01 0.  1.
         25    2    1    2    0    0  0.00000000000E+00  0.00000000000E+00  0.40880143351E+03  0.42748538374E+03  0.12500056507E+03 0.  0.
    9000005    1    3    3    0    0 -0.40202154526E+02  0.34707007571E+02  0.31702271117E+03  0.32144235720E+03  0.10000000000E+01 0.  0.
    9000005    1    3    3    0    0  0.40202154526E+02 -0.34707007571E+02  0.91778722345E+02  0.10604302654E+03  0.10000000000E+01 0.  0.
<mgrwt>
<rscale>  0 0.12500057E+03</rscale>
<asrwt>0</asrwt>
<pdfrwt beam="1">  1        4 0.64329753E-01 0.12500057E+03</pdfrwt>
<pdfrwt beam="2">  1       -4 0.14372270E-02 0.12500057E+03</pdfrwt>
<totfact> 0.61963816E+03</totfact>
</mgrwt>
</event>
<event>
 5    1  0.3196850E-002  0.1250079E+03  0.7818608E-02  0.1235057E+00
          4   -1    0    0  501    0  0.00000000000E+00  0.00000000000E+00  0.19150981179E+02  0.19193045098E+02  0.12700000000E+01 0.  1.
         -4   -1    0    0    0  501 -0.00000000000E+00 -0.00000000000E+00 -0.20372925393E+03  0.20373321233E+03  0.12700000000E+01 0.  1.
         25    2    1    2    0    0  0.00000000000E+00  0.00000000000E+00 -0.18457827275E+03  0.22292625742E+03  0.12500790967E+03 0.  0.
    9000005    1    3    3    0    0 -0.41243027772E+02 -0.28207785180E+02 -0.25348285036E+02  0.56037505644E+02  0.10000000000E+01 0.  0.
    9000005    1    3    3    0    0  0.41243027772E+02  0.28207785180E+02 -0.15922998771E+03  0.16688875178E+03  0.10000000000E+01 0.  0.
<mgrwt>
<rscale>  0 0.12500791E+03</rscale>
<asrwt>0</asrwt>
<pdfrwt beam="1">  1        4 0.29498451E-02 0.12500791E+03</pdfrwt>
<pdfrwt beam="2">  1       -4 0.31346501E-01 0.12500791E+03</pdfrwt>
<totfact> 0.86392156E+03</totfact>
</mgrwt>
</event>
<event>
 5    1  0.3196850E-002  0.1249999E+03  0.7818608E-02  0.1235069E+00
          4   -1    0    0  501    0  0.00000000000E+00  0.00000000000E+00  0.36372142254E+03  0.36372363976E+03  0.12700000000E+01 0.  1.
         -4   -1    0    0    0  501 -0.00000000000E+00 -0.00000000000E+00 -0.10699855861E+02  0.10774962434E+02  0.12700000000E+01 0.  1.
         25    2    1    2    0    0  0.00000000000E+00  0.00000000000E+00  0.35302156668E+03  0.37449860219E+03  0.12499990600E+03 0.  0.
    9000005    1    3    3    0    0  0.36806529890E+02 -0.11527683916E+02  0.29199514475E+02  0.48386152819E+02  0.10000000000E+01 0.  0.
    9000005    1    3    3    0    0 -0.36806529890E+02  0.11527683916E+02  0.32382205221E+03  0.32611244937E+03  0.10000000000E+01 0.  0.
<mgrwt>
<rscale>  0 0.12499991E+03</rscale>
<asrwt>0</asrwt>
<pdfrwt beam="1">  1        4 0.55963095E-01 0.12499991E+03</pdfrwt>
<pdfrwt beam="2">  1       -4 0.16520795E-02 0.12499991E+03</pdfrwt>
<totfact> 0.67111045E+03</totfact>
</mgrwt>
</event>
<event>
 5    1  0.3196850E-002  0.1250072E+03  0.7818608E-02  0.1235058E+00
         -4   -1    0    0    0  501 -0.00000000000E+00  0.00000000000E+00  0.50438287466E+01  0.52012602728E+01  0.12700000000E+01 0. -1.
          4   -1    0    0  501    0  0.00000000000E+00 -0.00000000000E+00 -0.76249072673E+03  0.76249178438E+03  0.12700000000E+01 0. -1.
         25    2    1    2    0    0  0.00000000000E+00  0.00000000000E+00 -0.75744689798E+03  0.76769304465E+03  0.12500722997E+03 0.  0.
    9000005    1    3    3    0    0 -0.24910369287E+02 -0.39071268952E+02 -0.63625912972E+03  0.63794495899E+03  0.10000000000E+01 0.  0.
    9000005    1    3    3    0    0  0.24910369287E+02  0.39071268952E+02 -0.12118776827E+03  0.12974808566E+03  0.10000000000E+01 0.  0.
<mgrwt>
<rscale>  0 0.12500723E+03</rscale>
<asrwt>0</asrwt>
<pdfrwt beam="2">  1        4 0.11731837E+00 0.12500723E+03</pdfrwt>
<pdfrwt beam="1">  1       -4 0.78816573E-03 0.12500723E+03</pdfrwt>
<totfact> 0.39735581E+03</totfact>
</mgrwt>
</event>
<event>
 5    1  0.3196850E-002  0.1250007E+03  0.7818608E-02  0.1235068E+00
          4   -1    0    0  501    0  0.00000000000E+00  0.00000000000E+00  0.67897872702E+02  0.67909749060E+02  0.12700000000E+01 0.  1.
         -4   -1    0    0    0  501 -0.00000000000E+00 -0.00000000000E+00 -0.57507994397E+02  0.57522015955E+02  0.12700000000E+01 0.  1.
         25    2    1    2    0    0  0.00000000000E+00  0.00000000000E+00  0.10389878305E+02  0.12543176502E+03  0.12500071241E+03 0.  0.
    9000005    1    3    3    0    0 -0.15597911453E+02 -0.54716984244E+02 -0.20740879352E+02  0.60567543146E+02  0.10000000000E+01 0.  0.
    9000005    1    3    3    0    0  0.15597911453E+02  0.54716984244E+02  0.31130757657E+02  0.64864221870E+02  0.10000000000E+01 0.  0.
<mgrwt>
<rscale>  0 0.12500071E+03</rscale>
<asrwt>0</asrwt>
<pdfrwt beam="1">  1        4 0.10447819E-01 0.12500071E+03</pdfrwt>
<pdfrwt beam="2">  1       -4 0.88493760E-02 0.12500071E+03</pdfrwt>
<totfact> 0.10443296E+04</totfact>
</mgrwt>
</event>
<event>
 5    1  0.3196850E-002  0.1250011E+03  0.7818608E-02  0.1235068E+00
          4   -1    0    0  501    0  0.00000000000E+00  0.00000000000E+00  0.15704234666E+03  0.15704748181E+03  0.12700000000E+01 0.  1.
         -4   -1    0    0    0  501 -0.00000000000E+00 -0.00000000000E+00 -0.24852559641E+02  0.24884987859E+02  0.12700000000E+01 0.  1.
         25    2    1    2    0    0  0.00000000000E+00  0.00000000000E+00  0.13218978701E+03  0.18193246967E+03  0.12500113491E+03 0.  0.
    9000005    1    3    3    0    0 -0.54196865983E+02 -0.39262037490E+01  0.21173541580E+02  0.58326959644E+02  0.10000000000E+01 0.  0.
    9000005    1    3    3    0    0  0.54196865983E+02  0.39262037490E+01  0.11101624543E+03  0.12360551003E+03  0.10000000000E+01 0.  0.
<mgrwt>
<rscale>  0 0.12500113E+03</rscale>
<asrwt>0</asrwt>
<pdfrwt beam="1">  1        4 0.24163250E-01 0.12500113E+03</pdfrwt>
<pdfrwt beam="2">  1       -4 0.38263602E-02 0.12500113E+03</pdfrwt>
<totfact> 0.93267931E+03</totfact>
</mgrwt>
</event>
<event>
 5    1  0.3196850E-002  0.1250005E+03  0.7818608E-02  0.1235068E+00
          4   -1    0    0  501    0  0.00000000000E+00  0.00000000000E+00  0.19412703061E+02  0.19454201092E+02  0.12700000000E+01 0. -1.
         -4   -1    0    0    0  501 -0.00000000000E+00 -0.00000000000E+00 -0.20096466956E+03  0.20096868242E+03  0.12700000000E+01 0. -1.
         25    2    1    2    0    0  0.00000000000E+00  0.00000000000E+00 -0.18155196650E+03  0.22042288351E+03  0.12500052413E+03 0.  0.
    9000005    1    3    3    0    0 -0.85900005535E+01 -0.57197349541E+02 -0.13250349766E+03  0.14458043365E+03  0.10000000000E+01 0.  0.
    9000005    1    3    3    0    0  0.85900005535E+01  0.57197349541E+02 -0.49048468845E+02  0.75842449855E+02  0.10000000000E+01 0.  0.
<mgrwt>
<rscale>  0 0.12500052E+03</rscale>
<asrwt>0</asrwt>
<pdfrwt beam="1">  1        4 0.29900707E-02 0.12500052E+03</pdfrwt>
<pdfrwt beam="2">  1       -4 0.30921141E-01 0.12500052E+03</pdfrwt>
<totfact> 0.86800462E+03</totfact>
</mgrwt>
</event>
<event>
 5    1  0.3196850E-002  0.1249925E+03  0.7818608E-02  0.1235081E+00
          4   -1    0    0  501    0  0.00000000000E+00  0.00000000000E+00  0.85880746877E+01  0.86814703157E+01  0.12700000000E+01 0.  1.
         -4   -1    0    0    0  501 -0.00000000000E+00 -0.00000000000E+00 -0.45223757893E+03  0.45223936217E+03  0.12700000000E+01 0.  1.
         25    2    1    2    0    0  0.00000000000E+00  0.00000000000E+00 -0.44364950424E+03  0.46092083248E+03  0.12499252460E+03 0.  0.
    9000005    1    3    3    0    0 -0.34442264840E+02  0.46084663782E+02 -0.13189622949E+03  0.14390163722E+03  0.10000000000E+01 0.  0.
    9000005    1    3    3    0    0  0.34442264840E+02 -0.46084663782E+02 -0.31175327475E+03  0.31701919526E+03  0.10000000000E+01 0.  0.
<mgrwt>
<rscale>  0 0.12499252E+03</rscale>
<asrwt>0</asrwt>
<pdfrwt beam="1">  1        4 0.13285641E-02 0.12499252E+03</pdfrwt>
<pdfrwt beam="2">  1       -4 0.69582316E-01 0.12499252E+03</pdfrwt>
<totfact> 0.59038988E+03</totfact>
</mgrwt>
</event>
<event>
 5    1  0.3196850E-002  0.1250029E+03  0.7818608E-02  0.1235065E+00
         -4   -1    0    0    0  501 -0.00000000000E+00  0.00000000000E+00  0.83947157903E+03  0.83947253969E+03  0.12700000000E+01 0.  1.
          4   -1    0    0  501    0  0.00000000000E+00 -0.00000000000E+00 -0.45658059314E+01  0.47391437838E+01  0.12700000000E+01 0.  1.
         25    2    1    2    0    0  0.00000000000E+00  0.00000000000E+00  0.83490577309E+03  0.84421168347E+03  0.12500286623E+03 0.  0.
    9000005    1    3    3    0    0 -0.23405172639E+02  0.57478775151E+02  0.46699709729E+03  0.47110391696E+03  0.10000000000E+01 0.  0.
    9000005    1    3    3    0    0  0.23405172639E+02 -0.57478775151E+02  0.36790867580E+03  0.37310776651E+03  0.10000000000E+01 0.  0.
<mgrwt>
<rscale>  0 0.12500287E+03</rscale>
<asrwt>0</asrwt>
<pdfrwt beam="2">  1        4 0.71583921E-03 0.12500287E+03</pdfrwt>
<pdfrwt beam="1">  1       -4 0.12916289E+00 0.12500287E+03</pdfrwt>
<totfact> 0.36363085E+03</totfact>
</mgrwt>
</event>
<event>
 5    1  0.3196850E-002  0.1250025E+03  0.7818608E-02  0.1235065E+00
         -4   -1    0    0    0  501 -0.00000000000E+00  0.00000000000E+00  0.14962138248E+03  0.14962677232E+03  0.12700000000E+01 0.  1.
          4   -1    0    0  501    0  0.00000000000E+00 -0.00000000000E+00 -0.26087305225E+02  0.26118200434E+02  0.12700000000E+01 0.  1.
         25    2    1    2    0    0  0.00000000000E+00  0.00000000000E+00  0.12353407726E+03  0.17574497276E+03  0.12500250880E+03 0.  0.
    9000005    1    3    3    0    0  0.10192365765E+01 -0.50970605937E+02  0.10951504192E+02  0.52153398325E+02  0.10000000000E+01 0.  0.
    9000005    1    3    3    0    0 -0.10192365765E+01  0.50970605937E+02  0.11258257307E+03  0.12359157443E+03  0.10000000000E+01 0.  0.
<mgrwt>
<rscale>  0 0.12500251E+03</rscale>
<asrwt>0</asrwt>
<pdfrwt beam="2">  1        4 0.40162228E-02 0.12500251E+03</pdfrwt>
<pdfrwt beam="1">  1       -4 0.23021465E-01 0.12500251E+03</pdfrwt>
<totfact> 0.94383266E+03</totfact>
</mgrwt>
</event>
<event>
 5    1  0.3196850E-002  0.1250065E+03  0.7818608E-02  0.1235059E+00
          4   -1    0    0  501    0  0.00000000000E+00  0.00000000000E+00  0.12385585784E+02  0.12450527507E+02  0.12700000000E+01 0. -1.
         -4   -1    0    0    0  501 -0.00000000000E+00 -0.00000000000E+00 -0.31452858800E+03  0.31453115199E+03  0.12700000000E+01 0. -1.
         25    2    1    2    0    0  0.00000000000E+00  0.00000000000E+00 -0.30214300222E+03  0.32698167950E+03  0.12500649957E+03 0.  0.
    9000005    1    3    3    0    0  0.26804167777E+02 -0.21345495552E+02 -0.28778028132E+03  0.28981474066E+03  0.10000000000E+01 0.  0.
    9000005    1    3    3    0    0 -0.26804167777E+02  0.21345495552E+02 -0.14362720903E+02  0.37166938834E+02  0.10000000000E+01 0.  0.
<mgrwt>
<rscale>  0 0.12500650E+03</rscale>
<asrwt>0</asrwt>
<pdfrwt beam="1">  1        4 0.19106677E-02 0.12500650E+03</pdfrwt>
<pdfrwt beam="2">  1       -4 0.48394201E-01 0.12500650E+03</pdfrwt>
<totfact> 0.72322956E+03</totfact>
</mgrwt>
</event>
<event>
 5    1  0.3196850E-002  0.1249999E+03  0.7818608E-02  0.1235069E+00
          4   -1    0    0  501    0  0.00000000000E+00  0.00000000000E+00  0.38402418503E+03  0.38402628503E+03  0.12700000000E+01 0.  1.
         -4   -1    0    0    0  501 -0.00000000000E+00 -0.00000000000E+00 -0.10130097912E+02  0.10209396834E+02  0.12700000000E+01 0.  1.
         25    2    1    2    0    0  0.00000000000E+00  0.00000000000E+00  0.37389408712E+03  0.39423568186E+03  0.12499993787E+03 0.  0.
    9000005    1    3    3    0    0  0.58534870409E+02 -0.47933426499E+01  0.11960295654E+03  0.13324854371E+03  0.10000000000E+01 0.  0.
    9000005    1    3    3    0    0 -0.58534870409E+02  0.47933426499E+01  0.25429113058E+03  0.26098713815E+03  0.10000000000E+01 0.  0.
<mgrwt>
<rscale>  0 0.12499994E+03</rscale>
<asrwt>0</asrwt>
<pdfrwt beam="1">  1        4 0.59086890E-01 0.12499994E+03</pdfrwt>
<pdfrwt beam="2">  1       -4 0.15647385E-02 0.12499994E+03</pdfrwt>
<totfact> 0.65117404E+03</totfact>
</mgrwt>
</event>
<event>
 5    1  0.3196850E-002  0.1250025E+03  0.7818608E-02  0.1235065E+00
          4   -1    0    0  501    0  0.00000000000E+00  0.00000000000E+00  0.53367937823E+03  0.53368088934E+03  0.12700000000E+01 0. -1.
         -4   -1    0    0    0  501 -0.00000000000E+00 -0.00000000000E+00 -0.72631383278E+01  0.73733356339E+01  0.12700000000E+01 0. -1.
         25    2    1    2    0    0  0.00000000000E+00  0.00000000000E+00  0.52641623990E+03  0.54105422498E+03  0.12500246690E+03 0.  0.
    9000005    1    3    3    0    0 -0.33430884341E+02 -0.51403900785E+02  0.21101262824E+03  0.21974374694E+03  0.10000000000E+01 0.  0.
    9000005    1    3    3    0    0  0.33430884341E+02  0.51403900785E+02  0.31540361166E+03  0.32131047803E+03  0.10000000000E+01 0.  0.
<mgrwt>
<rscale>  0 0.12500247E+03</rscale>
<asrwt>0</asrwt>
<pdfrwt beam="1">  1        4 0.82113148E-01 0.12500247E+03</pdfrwt>
<pdfrwt beam="2">  1       -4 0.11259984E-02 0.12500247E+03</pdfrwt>
<totfact> 0.52811188E+03</totfact>
</mgrwt>
</event>
<event>
 5    1  0.3196850E-002  0.1250091E+03  0.7818608E-02  0.1235055E+00
          4   -1    0    0  501    0  0.00000000000E+00  0.00000000000E+00  0.14701409348E+03  0.14701957890E+03  0.12700000000E+01 0.  1.
         -4   -1    0    0    0  501 -0.00000000000E+00 -0.00000000000E+00 -0.26553277321E+02  0.26583630987E+02  0.12700000000E+01 0.  1.
         25    2    1    2    0    0  0.00000000000E+00  0.00000000000E+00  0.12046081616E+03  0.17360320989E+03  0.12500906469E+03 0.  0.
    9000005    1    3    3    0    0  0.80086853048E+01 -0.13477634869E+02 -0.23784937869E+02  0.28504542645E+02  0.10000000000E+01 0.  0.
    9000005    1    3    3    0    0 -0.80086853048E+01  0.13477634869E+02  0.14424575402E+03  0.14509866724E+03  0.10000000000E+01 0.  0.
<mgrwt>
<rscale>  0 0.12500906E+03</rscale>
<asrwt>0</asrwt>
<pdfrwt beam="1">  1        4 0.22620310E-01 0.12500906E+03</pdfrwt>
<pdfrwt beam="2">  1       -4 0.40878764E-02 0.12500906E+03</pdfrwt>
<totfact> 0.94762009E+03</totfact>
</mgrwt>
</event>
<event>
 5    1  0.3196850E-002  0.1250001E+03  0.7818608E-02  0.1235069E+00
         -4   -1    0    0    0  501 -0.00000000000E+00  0.00000000000E+00  0.80931877079E+01  0.81922272475E+01  0.12700000000E+01 0.  1.
          4   -1    0    0  501    0  0.00000000000E+00 -0.00000000000E+00 -0.47962443161E+03  0.47962611303E+03  0.12700000000E+01 0.  1.
         25    2    1    2    0    0  0.00000000000E+00  0.00000000000E+00 -0.47153124390E+03  0.48781834027E+03  0.12500007653E+03 0.  0.
    9000005    1    3    3    0    0 -0.96764964722E+01  0.55877892270E+02 -0.13330756613E+03  0.14487194558E+03  0.10000000000E+01 0.  0.
    9000005    1    3    3    0    0  0.96764964722E+01 -0.55877892270E+02 -0.33822367777E+03  0.34294639469E+03  0.10000000000E+01 0.  0.
<mgrwt>
<rscale>  0 0.12500008E+03</rscale>
<asrwt>0</asrwt>
<pdfrwt beam="2">  1        4 0.73796100E-01 0.12500008E+03</pdfrwt>
<pdfrwt beam="1">  1       -4 0.12528539E-02 0.12500008E+03</pdfrwt>
<totfact> 0.56821971E+03</totfact>
</mgrwt>
</event>
<event>
 5    1  0.3196850E-002  0.1249954E+03  0.7818608E-02  0.1235076E+00
         -4   -1    0    0    0  501 -0.00000000000E+00  0.00000000000E+00  0.86176090855E+01  0.87106880526E+01  0.12700000000E+01 0. -1.
          4   -1    0    0  501    0  0.00000000000E+00 -0.00000000000E+00 -0.45072503637E+03  0.45072682559E+03  0.12700000000E+01 0. -1.
         25    2    1    2    0    0  0.00000000000E+00  0.00000000000E+00 -0.44210742728E+03  0.45943751364E+03  0.12499540666E+03 0.  0.
    9000005    1    3    3    0    0  0.60142314934E+02  0.17437927611E+01 -0.15902100603E+03  0.17002593690E+03  0.10000000000E+01 0.  0.
    9000005    1    3    3    0    0 -0.60142314934E+02 -0.17437927611E+01 -0.28308642125E+03  0.28941157674E+03  0.10000000000E+01 0.  0.
<mgrwt>
<rscale>  0 0.12499541E+03</rscale>
<asrwt>0</asrwt>
<pdfrwt beam="2">  1        4 0.69349593E-01 0.12499541E+03</pdfrwt>
<pdfrwt beam="1">  1       -4 0.13330839E-02 0.12499541E+03</pdfrwt>
<totfact> 0.59160847E+03</totfact>
</mgrwt>
</event>
<event>
 5    1  0.3196850E-002  0.1250052E+03  0.7818608E-02  0.1235061E+00
         -4   -1    0    0    0  501 -0.00000000000E+00  0.00000000000E+00  0.27813428360E+02  0.27842408250E+02  0.12700000000E+01 0. -1.
          4   -1    0    0  501    0  0.00000000000E+00 -0.00000000000E+00 -0.14035144555E+03  0.14035719136E+03  0.12700000000E+01 0. -1.
         25    2    1    2    0    0  0.00000000000E+00  0.00000000000E+00 -0.11253801719E+03  0.16819959961E+03  0.12500519988E+03 0.  0.
    9000005    1    3    3    0    0 -0.28868321488E+02  0.46474363926E+02 -0.15627249008E+02  0.56907445905E+02  0.10000000000E+01 0.  0.
    9000005    1    3    3    0    0  0.28868321488E+02 -0.46474363926E+02 -0.96910768178E+02  0.11129215371E+03  0.10000000000E+01 0.  0.
<mgrwt>
<rscale>  0 0.12500520E+03</rscale>
<asrwt>0</asrwt>
<pdfrwt beam="2">  1        4 0.21595201E-01 0.12500520E+03</pdfrwt>
<pdfrwt beam="1">  1       -4 0.42816603E-02 0.12500520E+03</pdfrwt>
<totfact> 0.95773663E+03</totfact>
</mgrwt>
</event>
<event>
 5    1  0.3196850E-002  0.1250017E+03  0.7818608E-02  0.1235067E+00
         -4   -1    0    0    0  501 -0.00000000000E+00  0.00000000000E+00  0.73810118804E+01  0.74894750403E+01  0.12700000000E+01 0.  1.
          4   -1    0    0  501    0  0.00000000000E+00 -0.00000000000E+00 -0.52527434940E+03  0.52527588469E+03  0.12700000000E+01 0.  1.
         25    2    1    2    0    0  0.00000000000E+00  0.00000000000E+00 -0.51789333752E+03  0.53276535973E+03  0.12500167792E+03 0.  0.
    9000005    1    3    3    0    0 -0.23020406169E+02 -0.18491943898E+02 -0.24205348055E+02  0.38194109019E+02  0.10000000000E+01 0.  0.
    9000005    1    3    3    0    0  0.23020406169E+02  0.18491943898E+02 -0.49368798946E+03  0.49457125071E+03  0.10000000000E+01 0.  0.
<mgrwt>
<rscale>  0 0.12500168E+03</rscale>
<asrwt>0</asrwt>
<pdfrwt beam="2">  1        4 0.80819871E-01 0.12500168E+03</pdfrwt>
<pdfrwt beam="1">  1       -4 0.11440021E-02 0.12500168E+03</pdfrwt>
<totfact> 0.53406920E+03</totfact>
</mgrwt>
</event>
<event>
 5    1  0.3196850E-002  0.1249986E+03  0.7818608E-02  0.1235072E+00
         -4   -1    0    0    0  501 -0.00000000000E+00  0.00000000000E+00  0.11054661625E+03  0.11055391112E+03  0.12700000000E+01 0. -1.
          4   -1    0    0  501    0  0.00000000000E+00 -0.00000000000E+00 -0.35315083513E+02  0.35337911986E+02  0.12700000000E+01 0. -1.
         25    2    1    2    0    0  0.00000000000E+00  0.00000000000E+00  0.75231532738E+02  0.14589182311E+03  0.12499856212E+03 0.  0.
    9000005    1    3    3    0    0  0.58890080543E+02 -0.29502103096E+01  0.61773610221E+02  0.85403303490E+02  0.10000000000E+01 0.  0.
    9000005    1    3    3    0    0 -0.58890080543E+02  0.29502103096E+01  0.13457922517E+02  0.60488519619E+02  0.10000000000E+01 0.  0.
<mgrwt>
<rscale>  0 0.12499856E+03</rscale>
<asrwt>0</asrwt>
<pdfrwt beam="2">  1        4 0.54354070E-02 0.12499856E+03</pdfrwt>
<pdfrwt beam="1">  1       -4 0.17009489E-01 0.12499856E+03</pdfrwt>
<totfact> 0.10013224E+04</totfact>
</mgrwt>
</event>
<event>
 5    1  0.3196850E-002  0.1250003E+03  0.7818608E-02  0.1235069E+00
          4   -1    0    0  501    0  0.00000000000E+00  0.00000000000E+00  0.29973732843E+03  0.29974001894E+03  0.12700000000E+01 0. -1.
         -4   -1    0    0    0  501 -0.00000000000E+00 -0.00000000000E+00 -0.12998617187E+02  0.13060511046E+02  0.12700000000E+01 0. -1.
         25    2    1    2    0    0  0.00000000000E+00  0.00000000000E+00  0.28673871124E+03  0.31280052998E+03  0.12500033214E+03 0.  0.
    9000005    1    3    3    0    0  0.38970512196E+02 -0.46904880855E+02  0.10919517075E+03  0.12507339439E+03  0.10000000000E+01 0.  0.
    9000005    1    3    3    0    0 -0.38970512196E+02  0.46904880855E+02  0.17754354049E+03  0.18772713559E+03  0.10000000000E+01 0.  0.
<mgrwt>
<rscale>  0 0.12500033E+03</rscale>
<asrwt>0</asrwt>
<pdfrwt beam="1">  1        4 0.46118399E-01 0.12500033E+03</pdfrwt>
<pdfrwt beam="2">  1       -4 0.20047555E-02 0.12500033E+03</pdfrwt>
<totfact> 0.74020125E+03</totfact>
</mgrwt>
</event>
<event>
 5    1  0.3196850E-002  0.1250047E+03  0.7818608E-02  0.1235062E+00
         -4   -1    0    0    0  501 -0.00000000000E+00  0.00000000000E+00  0.41381403781E+03  0.41381598663E+03  0.12700000000E+01 0. -1.
          4   -1    0    0  501    0  0.00000000000E+00 -0.00000000000E+00 -0.93956454903E+01  0.94810892929E+01  0.12700000000E+01 0. -1.
         25    2    1    2    0    0  0.00000000000E+00  0.00000000000E+00  0.40441839232E+03  0.42329707592E+03  0.12500471366E+03 0.  0.
    9000005    1    3    3    0    0  0.24601628529E+02  0.31256880572E+02  0.36542891944E+03  0.36758880271E+03  0.10000000000E+01 0.  0.
    9000005    1    3    3    0    0 -0.24601628529E+02 -0.31256880572E+02  0.38989472876E+02  0.55708273214E+02  0.10000000000E+01 0.  0.
<mgrwt>
<rscale>  0 0.12500471E+03</rscale>
<asrwt>0</asrwt>
<pdfrwt beam="2">  1        4 0.14522066E-02 0.12500471E+03</pdfrwt>
<pdfrwt beam="1">  1       -4 0.63670415E-01 0.12500471E+03</pdfrwt>
<totfact> 0.62341826E+03</totfact>
</mgrwt>
</event>
<event>
 5    1  0.3196850E-002  0.1250039E+03  0.7818608E-02  0.1235063E+00
         -4   -1    0    0    0  501 -0.00000000000E+00  0.00000000000E+00  0.22755629530E+03  0.22755983923E+03  0.12700000000E+01 0.  1.
          4   -1    0    0  501    0  0.00000000000E+00 -0.00000000000E+00 -0.17139993022E+02  0.17186979397E+02  0.12700000000E+01 0.  1.
         25    2    1    2    0    0  0.00000000000E+00  0.00000000000E+00  0.21041630228E+03  0.24474681863E+03  0.12500393979E+03 0.  0.
    9000005    1    3    3    0    0  0.23816132687E+02 -0.39990735462E+02  0.18685638298E+03  0.19256888367E+03  0.10000000000E+01 0.  0.
    9000005    1    3    3    0    0 -0.23816132687E+02  0.39990735462E+02  0.23559919302E+02  0.52177934958E+02  0.10000000000E+01 0.  0.
<mgrwt>
<rscale>  0 0.12500394E+03</rscale>
<asrwt>0</asrwt>
<pdfrwt beam="2">  1        4 0.26408091E-02 0.12500394E+03</pdfrwt>
<pdfrwt beam="1">  1       -4 0.35012546E-01 0.12500394E+03</pdfrwt>
<totfact> 0.83088159E+03</totfact>
</mgrwt>
</event>
<event>
 5    1  0.3196850E-002  0.1250016E+03  0.7818608E-02  0.1235067E+00
         -4   -1    0    0    0  501 -0.00000000000E+00  0.00000000000E+00  0.22142754517E+02  0.22179145106E+02  0.12700000000E+01 0. -1.
          4   -1    0    0  501    0  0.00000000000E+00 -0.00000000000E+00 -0.17623315649E+03  0.17623773247E+03  0.12700000000E+01 0. -1.
         25    2    1    2    0    0  0.00000000000E+00  0.00000000000E+00 -0.15409040197E+03  0.19841687757E+03  0.12500162130E+03 0.  0.
    9000005    1    3    3    0    0  0.59231120894E+02  0.13809611420E+02 -0.54245249326E+02  0.81502013008E+02  0.10000000000E+01 0.  0.
    9000005    1    3    3    0    0 -0.59231120894E+02 -0.13809611420E+02 -0.99845152646E+02  0.11691486457E+03  0.10000000000E+01 0.  0.
<mgrwt>
<rscale>  0 0.12500162E+03</rscale>
<asrwt>0</asrwt>
<pdfrwt beam="2">  1        4 0.27115944E-01 0.12500162E+03</pdfrwt>
<pdfrwt beam="1">  1       -4 0.34097290E-02 0.12500162E+03</pdfrwt>
<totfact> 0.90399799E+03</totfact>
</mgrwt>
</event>
<event>
 5    1  0.3196850E-002  0.1249995E+03  0.7818608E-02  0.1235070E+00
         -4   -1    0    0    0  501 -0.00000000000E+00  0.00000000000E+00  0.13887438574E+02  0.13945388132E+02  0.12700000000E+01 0. -1.
          4   -1    0    0  501    0  0.00000000000E+00 -0.00000000000E+00 -0.28063204670E+03  0.28063492038E+03  0.12700000000E+01 0. -1.
         25    2    1    2    0    0  0.00000000000E+00  0.00000000000E+00 -0.26674460813E+03  0.29458030851E+03  0.12499948879E+03 0.  0.
    9000005    1    3    3    0    0  0.20369486627E+02  0.50085667852E+02 -0.20721219581E+03  0.21415271234E+03  0.10000000000E+01 0.  0.
    9000005    1    3    3    0    0 -0.20369486627E+02 -0.50085667852E+02 -0.59532412319E+02  0.80427596173E+02  0.10000000000E+01 0.  0.
<mgrwt>
<rscale>  0 0.12499949E+03</rscale>
<asrwt>0</asrwt>
<pdfrwt beam="2">  1        4 0.43178836E-01 0.12499949E+03</pdfrwt>
<pdfrwt beam="1">  1       -4 0.21412079E-02 0.12499949E+03</pdfrwt>
<totfact> 0.76284611E+03</totfact>
</mgrwt>
</event>
<event>
 5    1  0.3196850E-002  0.1250013E+03  0.7818608E-02  0.1235067E+00
          4   -1    0    0  501    0  0.00000000000E+00  0.00000000000E+00  0.17215048897E+03  0.17215517347E+03  0.12700000000E+01 0.  1.
         -4   -1    0    0    0  501 -0.00000000000E+00 -0.00000000000E+00 -0.22668597756E+02  0.22704145529E+02  0.12700000000E+01 0.  1.
         25    2    1    2    0    0  0.00000000000E+00  0.00000000000E+00  0.14948189121E+03  0.19485931900E+03  0.12500127359E+03 0.  0.
    9000005    1    3    3    0    0 -0.68831944539E+01  0.23486535138E+02  0.16437645638E+03  0.16619150132E+03  0.10000000000E+01 0.  0.
    9000005    1    3    3    0    0  0.68831944539E+01 -0.23486535138E+02 -0.14894565170E+02  0.28667817676E+02  0.10000000000E+01 0.  0.
<mgrwt>
<rscale>  0 0.12500127E+03</rscale>
<asrwt>0</asrwt>
<pdfrwt beam="1">  1        4 0.26487786E-01 0.12500127E+03</pdfrwt>
<pdfrwt beam="2">  1       -4 0.34905714E-02 0.12500127E+03</pdfrwt>
<totfact> 0.91006021E+03</totfact>
</mgrwt>
</event>
<event>
 5    1  0.3196850E-002  0.1250004E+03  0.7818608E-02  0.1235069E+00
          4   -1    0    0  501    0  0.00000000000E+00  0.00000000000E+00  0.20009312167E+02  0.20049575392E+02  0.12700000000E+01 0.  1.
         -4   -1    0    0    0  501 -0.00000000000E+00 -0.00000000000E+00 -0.19498427921E+03  0.19498841514E+03  0.12700000000E+01 0.  1.
         25    2    1    2    0    0  0.00000000000E+00  0.00000000000E+00 -0.17497496704E+03  0.21503799053E+03  0.12500039312E+03 0.  0.
    9000005    1    3    3    0    0 -0.60270805069E+02 -0.68078833012E+01 -0.11336967919E+03  0.12857916386E+03  0.10000000000E+01 0.  0.
    9000005    1    3    3    0    0  0.60270805069E+02  0.68078833012E+01 -0.61605287856E+02  0.86458826678E+02  0.10000000000E+01 0.  0.
<mgrwt>
<rscale>  0 0.12500039E+03</rscale>
<asrwt>0</asrwt>
<pdfrwt beam="1">  1        4 0.30817712E-02 0.12500039E+03</pdfrwt>
<pdfrwt beam="2">  1       -4 0.30000995E-01 0.12500039E+03</pdfrwt>
<totfact> 0.87658895E+03</totfact>
</mgrwt>
</event>
<event>
 5    1  0.3196850E-002  0.1249968E+03  0.7818608E-02  0.1235074E+00
          4   -1    0    0  501    0  0.00000000000E+00  0.00000000000E+00  0.29522687219E+02  0.29549990873E+02  0.12700000000E+01 0.  1.
         -4   -1    0    0    0  501 -0.00000000000E+00 -0.00000000000E+00 -0.13221518406E+03  0.13222128344E+03  0.12700000000E+01 0.  1.
         25    2    1    2    0    0  0.00000000000E+00  0.00000000000E+00 -0.10269249684E+03  0.16177127431E+03  0.12499678511E+03 0.  0.
    9000005    1    3    3    0    0  0.19422109500E+02  0.28525997609E+02  0.16077880055E+02  0.38084762099E+02  0.10000000000E+01 0.  0.
    9000005    1    3    3    0    0 -0.19422109500E+02 -0.28525997609E+02 -0.11877037689E+03  0.12368651222E+03  0.10000000000E+01 0.  0.
<mgrwt>
<rscale>  0 0.12499679E+03</rscale>
<asrwt>0</asrwt>
<pdfrwt beam="1">  1        4 0.45445214E-02 0.12499679E+03</pdfrwt>
<pdfrwt beam="2">  1       -4 0.20343367E-01 0.12499679E+03</pdfrwt>
<totfact> 0.97009389E+03</totfact>
</mgrwt>
</event>
<event>
 5    1  0.3196850E-002  0.1250002E+03  0.7818608E-02  0.1235069E+00
          4   -1    0    0  501    0  0.00000000000E+00  0.00000000000E+00  0.54390056403E+03  0.54390204674E+03  0.12700000000E+01 0.  1.
         -4   -1    0    0    0  501 -0.00000000000E+00 -0.00000000000E+00 -0.71242909379E+01  0.72366028886E+01  0.12700000000E+01 0.  1.
         25    2    1    2    0    0  0.00000000000E+00  0.00000000000E+00  0.53677627309E+03  0.55113864963E+03  0.12500017506E+03 0.  0.
    9000005    1    3    3    0    0  0.12790860857E+01  0.49935788905E+02  0.10282400689E+03  0.11431970726E+03  0.10000000000E+01 0.  0.
    9000005    1    3    3    0    0 -0.12790860857E+01 -0.49935788905E+02  0.43395226620E+03  0.43681894237E+03  0.10000000000E+01 0.  0.
<mgrwt>
<rscale>  0 0.12500018E+03</rscale>
<asrwt>0</asrwt>
<pdfrwt beam="1">  1        4 0.83685753E-01 0.12500018E+03</pdfrwt>
<pdfrwt beam="2">  1       -4 0.11047983E-02 0.12500018E+03</pdfrwt>
<totfact> 0.52104461E+03</totfact>
</mgrwt>
</event>
<event>
 5    1  0.3196850E-002  0.1250004E+03  0.7818608E-02  0.1235069E+00
          4   -1    0    0  501    0  0.00000000000E+00  0.00000000000E+00  0.37018352458E+02  0.37040131192E+02  0.12700000000E+01 0. -1.
         -4   -1    0    0    0  501 -0.00000000000E+00 -0.00000000000E+00 -0.10546595267E+03  0.10547359894E+03  0.12700000000E+01 0. -1.
         25    2    1    2    0    0  0.00000000000E+00  0.00000000000E+00 -0.68447600215E+02  0.14251373013E+03  0.12500035720E+03 0.  0.
    9000005    1    3    3    0    0  0.25099047565E+01  0.59240670829E+02 -0.56725114824E+02  0.82063971108E+02  0.10000000000E+01 0.  0.
    9000005    1    3    3    0    0 -0.25099047565E+01 -0.59240670829E+02 -0.11722485391E+02  0.60449759023E+02  0.10000000000E+01 0.  0.
<mgrwt>
<rscale>  0 0.12500036E+03</rscale>
<asrwt>0</asrwt>
<pdfrwt beam="1">  1        4 0.56973947E-02 0.12500036E+03</pdfrwt>
<pdfrwt beam="2">  1       -4 0.16227794E-01 0.12500036E+03</pdfrwt>
<totfact> 0.10081669E+04</totfact>
</mgrwt>
</event>
<event>
 5    1  0.3196850E-002  0.1249954E+03  0.7818608E-02  0.1235076E+00
          4   -1    0    0  501    0  0.00000000000E+00  0.00000000000E+00  0.13840442873E+04  0.13840448700E+04  0.12700000000E+01 0.  1.
         -4   -1    0    0    0  501 -0.00000000000E+00 -0.00000000000E+00 -0.26786462708E+01  0.29644638376E+01  0.12700000000E+01 0.  1.
         25    2    1    2    0    0  0.00000000000E+00  0.00000000000E+00  0.13813656410E+04  0.13870093338E+04  0.12499543140E+03 0.  0.
    9000005    1    3    3    0    0 -0.22937504971E+02 -0.53225055135E+02  0.94995341436E+03  0.95172029772E+03  0.10000000000E+01 0.  0.
    9000005    1    3    3    0    0  0.22937504971E+02  0.53225055135E+02  0.43141222668E+03  0.43528903611E+03  0.10000000000E+01 0.  0.
<mgrwt>
<rscale>  0 0.12499543E+03</rscale>
<asrwt>0</asrwt>
<pdfrwt beam="1">  1        4 0.21295199E+00 0.12499543E+03</pdfrwt>
<pdfrwt beam="2">  1       -4 0.43413007E-03 0.12499543E+03</pdfrwt>
<totfact> 0.20263434E+03</totfact>
</mgrwt>
</event>
<event>
 4    1  0.3196850E-002  0.1247774E+03  0.7818608E-02  0.1235418E+00
          4   -1    0    0  501    0  0.00000000000E+00  0.00000000000E+00  0.86727611168E+02  0.86736909323E+02  0.12700000000E+01 0. -1.
         -4   -1    0    0    0  501 -0.00000000000E+00 -0.00000000000E+00 -0.44859488836E+02  0.44877462480E+02  0.12700000000E+01 0. -1.
    9000005    1    1    2    0    0 -0.12868860651E+02  0.60157789842E+02  0.10034236742E+02  0.62339820019E+02  0.10000000000E+01 0.  0.
    9000005    1    1    2    0    0  0.12868860651E+02 -0.60157789842E+02  0.31833885590E+02  0.69274551784E+02  0.10000000000E+01 0.  0.
<mgrwt>
<rscale>  0 0.12477741E+03</rscale>
<asrwt>0</asrwt>
<pdfrwt beam="1">  1        4 0.13344807E-01 0.12477741E+03</pdfrwt>
<pdfrwt beam="2">  1       -4 0.69035577E-02 0.12477741E+03</pdfrwt>
<totfact> 0.10361878E+04</totfact>
</mgrwt>
</event>
<event>
 5    1  0.3196850E-002  0.1249827E+03  0.7818608E-02  0.1235096E+00
          4   -1    0    0  501    0  0.00000000000E+00  0.00000000000E+00  0.29734358939E+02  0.29761468403E+02  0.12700000000E+01 0.  1.
         -4   -1    0    0    0  501 -0.00000000000E+00 -0.00000000000E+00 -0.13124513631E+03  0.13125128078E+03  0.12700000000E+01 0.  1.
         25    2    1    2    0    0  0.00000000000E+00  0.00000000000E+00 -0.10151077737E+03  0.16101274918E+03  0.12498266870E+03 0.  0.
    9000005    1    3    3    0    0  0.58222471843E+02 -0.22439660100E+02 -0.54983677179E+02  0.83172106676E+02  0.10000000000E+01 0.  0.
    9000005    1    3    3    0    0 -0.58222471843E+02  0.22439660100E+02 -0.46527100193E+02  0.77840642502E+02  0.10000000000E+01 0.  0.
<mgrwt>
<rscale>  0 0.12498267E+03</rscale>
<asrwt>0</asrwt>
<pdfrwt beam="1">  1        4 0.45770748E-02 0.12498267E+03</pdfrwt>
<pdfrwt beam="2">  1       -4 0.20194117E-01 0.12498267E+03</pdfrwt>
<totfact> 0.97185740E+03</totfact>
</mgrwt>
</event>
<event>
 5    1  0.3196850E-002  0.1250080E+03  0.7818608E-02  0.1235057E+00
         -4   -1    0    0    0  501 -0.00000000000E+00  0.00000000000E+00  0.13179488221E+04  0.13179494340E+04  0.12700000000E+01 0.  1.
          4   -1    0    0  501    0  0.00000000000E+00 -0.00000000000E+00 -0.28275967402E+01  0.30997102002E+01  0.12700000000E+01 0.  1.
         25    2    1    2    0    0  0.00000000000E+00  0.00000000000E+00  0.13151212253E+04  0.13210491442E+04  0.12500801572E+03 0.  0.
    9000005    1    3    3    0    0  0.37726876522E+02 -0.35046348502E+02  0.10318110375E+04  0.10330956300E+04  0.10000000000E+01 0.  0.
    9000005    1    3    3    0    0 -0.37726876522E+02  0.35046348502E+02  0.28331018786E+03  0.28795351413E+03  0.10000000000E+01 0.  0.
<mgrwt>
<rscale>  0 0.12500802E+03</rscale>
<asrwt>0</asrwt>
<pdfrwt beam="2">  1        4 0.45599440E-03 0.12500802E+03</pdfrwt>
<pdfrwt beam="1">  1       -4 0.20278205E+00 0.12500802E+03</pdfrwt>
<totfact> 0.21733351E+03</totfact>
</mgrwt>
</event>
<event>
 5    1  0.3196850E-002  0.1249999E+03  0.7818608E-02  0.1235069E+00
          4   -1    0    0  501    0  0.00000000000E+00  0.00000000000E+00  0.10211423458E+02  0.10290095677E+02  0.12700000000E+01 0.  1.
         -4   -1    0    0    0  501 -0.00000000000E+00 -0.00000000000E+00 -0.38098917189E+03  0.38099128861E+03  0.12700000000E+01 0.  1.
         25    2    1    2    0    0  0.00000000000E+00  0.00000000000E+00 -0.37077774843E+03  0.39128138428E+03  0.12499993183E+03 0.  0.
    9000005    1    3    3    0    0 -0.25182451602E+02 -0.31751785633E+02 -0.33429529777E+03  0.33674423212E+03  0.10000000000E+01 0.  0.
    9000005    1    3    3    0    0  0.25182451602E+02  0.31751785633E+02 -0.36482450662E+02  0.54537152161E+02  0.10000000000E+01 0.  0.
<mgrwt>
<rscale>  0 0.12499993E+03</rscale>
<asrwt>0</asrwt>
<pdfrwt beam="1">  1        4 0.15772030E-02 0.12499993E+03</pdfrwt>
<pdfrwt beam="2">  1       -4 0.58619923E-01 0.12499993E+03</pdfrwt>
<totfact> 0.65409780E+03</totfact>
</mgrwt>
</event>
<event>
 5    1  0.3196850E-002  0.1249906E+03  0.7818608E-02  0.1235084E+00
          4   -1    0    0  501    0  0.00000000000E+00  0.00000000000E+00  0.58502065070E+02  0.58515848430E+02  0.12700000000E+01 0.  1.
         -4   -1    0    0    0  501 -0.00000000000E+00 -0.00000000000E+00 -0.66733424660E+02  0.66745508215E+02  0.12700000000E+01 0.  1.
         25    2    1    2    0    0  0.00000000000E+00  0.00000000000E+00 -0.82313595902E+01  0.12526135664E+03  0.12499060840E+03 0.  0.
    9000005    1    3    3    0    0  0.39642238031E+02  0.24181348233E+02  0.37788989169E+02  0.59876976718E+02  0.10000000000E+01 0.  0.
    9000005    1    3    3    0    0 -0.39642238031E+02 -0.24181348233E+02 -0.46020348759E+02  0.65384379927E+02  0.10000000000E+01 0.  0.
<mgrwt>
<rscale>  0 0.12499061E+03</rscale>
<asrwt>0</asrwt>
<pdfrwt beam="1">  1        4 0.90023075E-02 0.12499061E+03</pdfrwt>
<pdfrwt beam="2">  1       -4 0.10268670E-01 0.12499061E+03</pdfrwt>
<totfact> 0.10449406E+04</totfact>
</mgrwt>
</event>
<event>
 5    1  0.3196850E-002  0.1249977E+03  0.7818608E-02  0.1235073E+00
         -4   -1    0    0    0  501 -0.00000000000E+00  0.00000000000E+00  0.18693821440E+02  0.18736911700E+02  0.12700000000E+01 0. -1.
          4   -1    0    0  501    0  0.00000000000E+00 -0.00000000000E+00 -0.20866600223E+03  0.20866986699E+03  0.12700000000E+01 0. -1.
         25    2    1    2    0    0  0.00000000000E+00  0.00000000000E+00 -0.18997218079E+03  0.22740677869E+03  0.12499765405E+03 0.  0.
    9000005    1    3    3    0    0 -0.32354844831E+02  0.41963564081E+02 -0.34720486296E+02  0.63358415882E+02  0.10000000000E+01 0.  0.
    9000005    1    3    3    0    0  0.32354844831E+02 -0.41963564081E+02 -0.15525169450E+03  0.16404836280E+03  0.10000000000E+01 0.  0.
<mgrwt>
<rscale>  0 0.12499765E+03</rscale>
<asrwt>0</asrwt>
<pdfrwt beam="2">  1        4 0.32106072E-01 0.12499765E+03</pdfrwt>
<pdfrwt beam="1">  1       -4 0.28795846E-02 0.12499765E+03</pdfrwt>
<totfact> 0.85713874E+03</totfact>
</mgrwt>
</event>
<event>
 5    1  0.3196850E-002  0.1250076E+03  0.7818608E-02  0.1235057E+00
         -4   -1    0    0    0  501 -0.00000000000E+00  0.00000000000E+00  0.31731861152E+03  0.31732115296E+03  0.12700000000E+01 0.  1.
          4   -1    0    0  501    0  0.00000000000E+00 -0.00000000000E+00 -0.12276324036E+02  0.12341840699E+02  0.12700000000E+01 0.  1.
         25    2    1    2    0    0  0.00000000000E+00  0.00000000000E+00  0.30504228748E+03  0.32966299366E+03  0.12500756871E+03 0.  0.
    9000005    1    3    3    0    0 -0.13688674701E+02 -0.79812285796E+00 -0.82734433978E+01  0.16045768315E+02  0.10000000000E+01 0.  0.
    9000005    1    3    3    0    0  0.13688674701E+02  0.79812285796E+00  0.31331573088E+03  0.31361722535E+03  0.10000000000E+01 0.  0.
<mgrwt>
<rscale>  0 0.12500757E+03</rscale>
<asrwt>0</asrwt>
<pdfrwt beam="2">  1        4 0.18939008E-02 0.12500757E+03</pdfrwt>
<pdfrwt beam="1">  1       -4 0.48823475E-01 0.12500757E+03</pdfrwt>
<totfact> 0.72009319E+03</totfact>
</mgrwt>
</event>
<event>
 5    1  0.3196850E-002  0.1250015E+03  0.7818608E-02  0.1235067E+00
         -4   -1    0    0    0  501 -0.00000000000E+00  0.00000000000E+00  0.41726976608E+02  0.41746298960E+02  0.12700000000E+01 0. -1.
          4   -1    0    0  501    0  0.00000000000E+00 -0.00000000000E+00 -0.93571473224E+02  0.93580091373E+02  0.12700000000E+01 0. -1.
         25    2    1    2    0    0  0.00000000000E+00  0.00000000000E+00 -0.51844496616E+02  0.13532639033E+03  0.12500152036E+03 0.  0.
    9000005    1    3    3    0    0 -0.60279738154E+02 -0.16483223740E+02 -0.25879957082E+02  0.67646993099E+02  0.10000000000E+01 0.  0.
    9000005    1    3    3    0    0  0.60279738154E+02  0.16483223740E+02 -0.25964539534E+02  0.67679397234E+02  0.10000000000E+01 0.  0.
<mgrwt>
<rscale>  0 0.12500152E+03</rscale>
<asrwt>0</asrwt>
<pdfrwt beam="2">  1        4 0.14397760E-01 0.12500152E+03</pdfrwt>
<pdfrwt beam="1">  1       -4 0.64216842E-02 0.12500152E+03</pdfrwt>
<totfact> 0.10230845E+04</totfact>
</mgrwt>
</event>
<event>
 5    1  0.3196850E-002  0.1250003E+03  0.7818608E-02  0.1235069E+00
          4   -1    0    0  501    0  0.00000000000E+00  0.00000000000E+00  0.39355889414E+01  0.41354274647E+01  0.12700000000E+01 0.  1.
         -4   -1    0    0    0  501 -0.00000000000E+00 -0.00000000000E+00 -0.96777421483E+03  0.96777504813E+03  0.12700000000E+01 0.  1.
         25    2    1    2    0    0  0.00000000000E+00  0.00000000000E+00 -0.96383862589E+03  0.97191047560E+03  0.12500030329E+03 0.  0.
    9000005    1    3    3    0    0  0.23738778608E+02  0.57700208831E+02 -0.50932670462E+03  0.51313500733E+03  0.10000000000E+01 0.  0.
    9000005    1    3    3    0    0 -0.23738778608E+02 -0.57700208831E+02 -0.45451192127E+03  0.45877546827E+03  0.10000000000E+01 0.  0.
<mgrwt>
<rscale>  0 0.12500030E+03</rscale>
<asrwt>0</asrwt>
<pdfrwt beam="1">  1        4 0.62091228E-03 0.12500030E+03</pdfrwt>
<pdfrwt beam="2">  1       -4 0.14890359E+00 0.12500030E+03</pdfrwt>
<totfact> 0.31550445E+03</totfact>
</mgrwt>
</event>
<event>
 5    1  0.3196850E-002  0.1250020E+03  0.7818608E-02  0.1235066E+00
         -4   -1    0    0    0  501 -0.00000000000E+00  0.00000000000E+00  0.69667785829E+02  0.69679360519E+02  0.12700000000E+01 0. -1.
          4   -1    0    0  501    0  0.00000000000E+00 -0.00000000000E+00 -0.56048018162E+02  0.56062404871E+02  0.12700000000E+01 0. -1.
         25    2    1    2    0    0  0.00000000000E+00  0.00000000000E+00  0.13619767666E+02  0.12574176539E+03  0.12500197395E+03 0.  0.
    9000005    1    3    3    0    0  0.13299282792E+02 -0.54972064949E+02  0.33548668886E+02  0.65767104479E+02  0.10000000000E+01 0.  0.
    9000005    1    3    3    0    0 -0.13299282792E+02  0.54972064949E+02 -0.19928901219E+02  0.59974660911E+02  0.10000000000E+01 0.  0.
<mgrwt>
<rscale>  0 0.12500197E+03</rscale>
<asrwt>0</asrwt>
<pdfrwt beam="2">  1        4 0.86247690E-02 0.12500197E+03</pdfrwt>
<pdfrwt beam="1">  1       -4 0.10720118E-01 0.12500197E+03</pdfrwt>
<totfact> 0.10436161E+04</totfact>
</mgrwt>
</event>
<event>
 4    1  0.3196850E-002  0.1249168E+03  0.7818608E-02  0.1235199E+00
         -4   -1    0    0    0  501 -0.00000000000E+00  0.00000000000E+00  0.42983529706E+02  0.43002287451E+02  0.12700000000E+01 0. -1.
          4   -1    0    0  501    0  0.00000000000E+00 -0.00000000000E+00 -0.90713884427E+02  0.90722774031E+02  0.12700000000E+01 0. -1.
    9000005    1    1    2    0    0  0.54740886760E+02 -0.11704742656E+02  0.57724880315E+01  0.56283987971E+02  0.10000000000E+01 0.  0.
    9000005    1    1    2    0    0 -0.54740886760E+02  0.11704742656E+02 -0.53502842752E+02  0.77441073510E+02  0.10000000000E+01 0.  0.
<mgrwt>
<rscale>  0 0.12491679E+03</rscale>
<asrwt>0</asrwt>
<pdfrwt beam="2">  1        4 0.13958109E-01 0.12491679E+03</pdfrwt>
<pdfrwt beam="1">  1       -4 0.66149774E-02 0.12491679E+03</pdfrwt>
<totfact> 0.10284302E+04</totfact>
</mgrwt>
</event>
<event>
 5    1  0.3196850E-002  0.1249990E+03  0.7818608E-02  0.1235071E+00
          4   -1    0    0  501    0  0.00000000000E+00  0.00000000000E+00  0.17302431131E+02  0.17348977579E+02  0.12700000000E+01 0.  1.
         -4   -1    0    0    0  501 -0.00000000000E+00 -0.00000000000E+00 -0.22540773966E+03  0.22541131737E+03  0.12700000000E+01 0.  1.
         25    2    1    2    0    0  0.00000000000E+00  0.00000000000E+00 -0.20810530853E+03  0.24276029495E+03  0.12499896546E+03 0.  0.
    9000005    1    3    3    0    0  0.15110856701E+02 -0.60497258988E+02 -0.11204339371E+03  0.12823017745E+03  0.10000000000E+01 0.  0.
    9000005    1    3    3    0    0 -0.15110856701E+02  0.60497258988E+02 -0.96061914818E+02  0.11453011750E+03  0.10000000000E+01 0.  0.
<mgrwt>
<rscale>  0 0.12499897E+03</rscale>
<asrwt>0</asrwt>
<pdfrwt beam="1">  1        4 0.26657683E-02 0.12499897E+03</pdfrwt>
<pdfrwt beam="2">  1       -4 0.34681967E-01 0.12499897E+03</pdfrwt>
<totfact> 0.83389904E+03</totfact>
</mgrwt>
</event>
<event>
 5    1  0.3196850E-002  0.1249890E+03  0.7818608E-02  0.1235087E+00
         -4   -1    0    0    0  501 -0.00000000000E+00  0.00000000000E+00  0.82328977731E+02  0.82338772606E+02  0.12700000000E+01 0.  1.
          4   -1    0    0  501    0  0.00000000000E+00 -0.00000000000E+00 -0.47417347232E+02  0.47434351672E+02  0.12700000000E+01 0.  1.
         25    2    1    2    0    0  0.00000000000E+00  0.00000000000E+00  0.34911630499E+02  0.12977312428E+03  0.12498896688E+03 0.  0.
    9000005    1    3    3    0    0 -0.51234247010E+02  0.32479188417E+02  0.33020088134E+02  0.69073670579E+02  0.10000000000E+01 0.  0.
    9000005    1    3    3    0    0  0.51234247010E+02 -0.32479188417E+02  0.18915423656E+01  0.60699453699E+02  0.10000000000E+01 0.  0.
<mgrwt>
<rscale>  0 0.12498897E+03</rscale>
<asrwt>0</asrwt>
<pdfrwt beam="2">  1        4 0.72970381E-02 0.12498897E+03</pdfrwt>
<pdfrwt beam="1">  1       -4 0.12668058E-01 0.12498897E+03</pdfrwt>
<totfact> 0.10351941E+04</totfact>
</mgrwt>
</event>
<event>
 5    1  0.3196850E-002  0.1250035E+03  0.7818608E-02  0.1235064E+00
          4   -1    0    0  501    0  0.00000000000E+00  0.00000000000E+00  0.71018557809E+02  0.71029912384E+02  0.12700000000E+01 0.  1.
         -4   -1    0    0    0  501 -0.00000000000E+00 -0.00000000000E+00 -0.54983224591E+02  0.54997889836E+02  0.12700000000E+01 0.  1.
         25    2    1    2    0    0  0.00000000000E+00  0.00000000000E+00  0.16035333218E+02  0.12602780222E+03  0.12500350004E+03 0.  0.
    9000005    1    3    3    0    0  0.55401539334E+02 -0.28448573035E+02  0.27967306011E+01  0.62349607620E+02  0.10000000000E+01 0.  0.
    9000005    1    3    3    0    0 -0.55401539334E+02  0.28448573035E+02  0.13238602617E+02  0.63678194600E+02  0.10000000000E+01 0.  0.
<mgrwt>
<rscale>  0 0.12500350E+03</rscale>
<asrwt>0</asrwt>
<pdfrwt beam="1">  1        4 0.10927933E-01 0.12500350E+03</pdfrwt>
<pdfrwt beam="2">  1       -4 0.84609592E-02 0.12500350E+03</pdfrwt>
<totfact> 0.10429524E+04</totfact>
</mgrwt>
</event>
<event>
 5    1  0.3196850E-002  0.1250002E+03  0.7818608E-02  0.1235069E+00
          4   -1    0    0  501    0  0.00000000000E+00  0.00000000000E+00  0.48957020752E+02  0.48973490594E+02  0.12700000000E+01 0.  1.
         -4   -1    0    0    0  501 -0.00000000000E+00 -0.00000000000E+00 -0.79754651035E+02  0.79764762030E+02  0.12700000000E+01 0.  1.
         25    2    1    2    0    0  0.00000000000E+00  0.00000000000E+00 -0.30797630283E+02  0.12873825262E+03  0.12500017463E+03 0.  0.
    9000005    1    3    3    0    0  0.37534607090E+02 -0.86178094973E+01  0.35288266574E+02  0.52243421861E+02  0.10000000000E+01 0.  0.
    9000005    1    3    3    0    0 -0.37534607090E+02  0.86178094973E+01 -0.66085896858E+02  0.76494830763E+02  0.10000000000E+01 0.  0.
<mgrwt>
<rscale>  0 0.12500017E+03</rscale>
<asrwt>0</asrwt>
<pdfrwt beam="1">  1        4 0.75338940E-02 0.12500017E+03</pdfrwt>
<pdfrwt beam="2">  1       -4 0.12271991E-01 0.12500017E+03</pdfrwt>
<totfact> 0.10371534E+04</totfact>
</mgrwt>
</event>
<event>
 5    1  0.3196850E-002  0.1250003E+03  0.7818608E-02  0.1235069E+00
         -4   -1    0    0    0  501 -0.00000000000E+00  0.00000000000E+00  0.43013839840E+01  0.44849530854E+01  0.12700000000E+01 0. -1.
          4   -1    0    0  501    0  0.00000000000E+00 -0.00000000000E+00 -0.88898496189E+03  0.88898586905E+03  0.12700000000E+01 0. -1.
         25    2    1    2    0    0  0.00000000000E+00  0.00000000000E+00 -0.88468357791E+03  0.89347082213E+03  0.12500030795E+03 0.  0.
    9000005    1    3    3    0    0 -0.60354715699E+02  0.10844026296E+02 -0.35627605461E+03  0.36151612924E+03  0.10000000000E+01 0.  0.
    9000005    1    3    3    0    0  0.60354715699E+02 -0.10844026296E+02 -0.52840752330E+03  0.53195469290E+03  0.10000000000E+01 0.  0.
<mgrwt>
<rscale>  0 0.12500031E+03</rscale>
<asrwt>0</asrwt>
<pdfrwt beam="2">  1        4 0.13678096E+00 0.12500031E+03</pdfrwt>
<pdfrwt beam="1">  1       -4 0.67594257E-03 0.12500031E+03</pdfrwt>
<totfact> 0.34410966E+03</totfact>
</mgrwt>
</event>
<event>
 5    1  0.3196850E-002  0.1250001E+03  0.7818608E-02  0.1235069E+00
         -4   -1    0    0    0  501 -0.00000000000E+00  0.00000000000E+00  0.10045232374E+03  0.10046035160E+03  0.12700000000E+01 0. -1.
          4   -1    0    0  501    0  0.00000000000E+00 -0.00000000000E+00 -0.38866739132E+02  0.38887482700E+02  0.12700000000E+01 0. -1.
         25    2    1    2    0    0  0.00000000000E+00  0.00000000000E+00  0.61585584605E+02  0.13934783430E+03  0.12500013877E+03 0.  0.
    9000005    1    3    3    0    0 -0.20375163716E+02  0.87090805282E+01  0.95931364193E+02  0.98462287278E+02  0.10000000000E+01 0.  0.
    9000005    1    3    3    0    0  0.20375163716E+02 -0.87090805282E+01 -0.34345779587E+02  0.40885547025E+02  0.10000000000E+01 0.  0.
<mgrwt>
<rscale>  0 0.12500014E+03</rscale>
<asrwt>0</asrwt>
<pdfrwt beam="2">  1        4 0.59817115E-02 0.12500014E+03</pdfrwt>
<pdfrwt beam="1">  1       -4 0.15456417E-01 0.12500014E+03</pdfrwt>
<totfact> 0.10147088E+04</totfact>
</mgrwt>
</event>
<event>
 5    1  0.3196850E-002  0.1250008E+03  0.7818608E-02  0.1235068E+00
         -4   -1    0    0    0  501 -0.00000000000E+00  0.00000000000E+00  0.40094046316E+03  0.40094247455E+03  0.12700000000E+01 0.  1.
          4   -1    0    0  501    0  0.00000000000E+00 -0.00000000000E+00 -0.96994087144E+01  0.97821996201E+01  0.12700000000E+01 0.  1.
         25    2    1    2    0    0  0.00000000000E+00  0.00000000000E+00  0.39124105445E+03  0.41072467417E+03  0.12500078115E+03 0.  0.
    9000005    1    3    3    0    0 -0.56113278849E+02 -0.27506285561E+02  0.19544014599E+03  0.20519051263E+03  0.10000000000E+01 0.  0.
    9000005    1    3    3    0    0  0.56113278849E+02  0.27506285561E+02  0.19580090846E+03  0.20553416155E+03  0.10000000000E+01 0.  0.
<mgrwt>
<rscale>  0 0.12500078E+03</rscale>
<asrwt>0</asrwt>
<pdfrwt beam="2">  1        4 0.14987395E-02 0.12500078E+03</pdfrwt>
<pdfrwt beam="1">  1       -4 0.61689692E-01 0.12500078E+03</pdfrwt>
<totfact> 0.63521808E+03</totfact>
</mgrwt>
</event>
<event>
 5    1  0.3196850E-002  0.1249963E+03  0.7818608E-02  0.1235075E+00
          4   -1    0    0  501    0  0.00000000000E+00  0.00000000000E+00  0.54546944739E+03  0.54547092584E+03  0.12700000000E+01 0. -1.
         -4   -1    0    0    0  501 -0.00000000000E+00 -0.00000000000E+00 -0.71030287557E+01  0.72156716599E+01  0.12700000000E+01 0. -1.
         25    2    1    2    0    0  0.00000000000E+00  0.00000000000E+00  0.53836641863E+03  0.55268659750E+03  0.12499629731E+03 0.  0.
    9000005    1    3    3    0    0 -0.36408224463E+01  0.62143642427E+02  0.24499296547E+03  0.25277982714E+03  0.10000000000E+01 0.  0.
    9000005    1    3    3    0    0  0.36408224463E+01 -0.62143642427E+02  0.29337345317E+03  0.29990677035E+03  0.10000000000E+01 0.  0.
<mgrwt>
<rscale>  0 0.12499630E+03</rscale>
<asrwt>0</asrwt>
<pdfrwt beam="1">  1        4 0.83927179E-01 0.12499630E+03</pdfrwt>
<pdfrwt beam="2">  1       -4 0.11015519E-02 0.12499630E+03</pdfrwt>
<totfact> 0.52001400E+03</totfact>
</mgrwt>
</event>
<event>
 5    1  0.3196850E-002  0.1249950E+03  0.7818608E-02  0.1235077E+00
         -4   -1    0    0    0  501 -0.00000000000E+00  0.00000000000E+00  0.15639397577E+02  0.15690878132E+02  0.12700000000E+01 0. -1.
          4   -1    0    0  501    0  0.00000000000E+00 -0.00000000000E+00 -0.24928637237E+03  0.24928960739E+03  0.12700000000E+01 0. -1.
         25    2    1    2    0    0  0.00000000000E+00  0.00000000000E+00 -0.23364697480E+03  0.26498048552E+03  0.12499499540E+03 0.  0.
    9000005    1    3    3    0    0 -0.13296770811E+02  0.31615291983E+02 -0.60867523347E+01  0.34847946212E+02  0.10000000000E+01 0.  0.
    9000005    1    3    3    0    0  0.13296770811E+02 -0.31615291983E+02 -0.22756022246E+03  0.23013253931E+03  0.10000000000E+01 0.  0.
<mgrwt>
<rscale>  0 0.12499500E+03</rscale>
<asrwt>0</asrwt>
<pdfrwt beam="2">  1        4 0.38355955E-01 0.12499500E+03</pdfrwt>
<pdfrwt beam="1">  1       -4 0.24102702E-02 0.12499500E+03</pdfrwt>
<totfact> 0.80221096E+03</totfact>
</mgrwt>
</event>
<event>
 5    1  0.3196850E-002  0.1249975E+03  0.7818608E-02  0.1235073E+00
          4   -1    0    0  501    0  0.00000000000E+00  0.00000000000E+00  0.42288206181E+02  0.42307272212E+02  0.12700000000E+01 0.  1.
         -4   -1    0    0    0  501 -0.00000000000E+00 -0.00000000000E+00 -0.92324104511E+02  0.92332839087E+02  0.12700000000E+01 0.  1.
         25    2    1    2    0    0  0.00000000000E+00  0.00000000000E+00 -0.50035898331E+02  0.13464011130E+03  0.12499747377E+03 0.  0.
    9000005    1    3    3    0    0 -0.10727188525E+02  0.18262567420E+02 -0.88345310365E+02  0.90854211823E+02  0.10000000000E+01 0.  0.
    9000005    1    3    3    0    0  0.10727188525E+02 -0.18262567420E+02  0.38309412035E+02  0.43785899475E+02  0.10000000000E+01 0.  0.
<mgrwt>
<rscale>  0 0.12499747E+03</rscale>
<asrwt>0</asrwt>
<pdfrwt beam="1">  1        4 0.65080164E-02 0.12499747E+03</pdfrwt>
<pdfrwt beam="2">  1       -4 0.14205847E-01 0.12499747E+03</pdfrwt>
<totfact> 0.10246246E+04</totfact>
</mgrwt>
</event>
<event>
 5    1  0.3196850E-002  0.1250035E+03  0.7818608E-02  0.1235064E+00
          4   -1    0    0  501    0  0.00000000000E+00  0.00000000000E+00  0.11617443022E+03  0.11618137173E+03  0.12700000000E+01 0.  1.
         -4   -1    0    0    0  501 -0.00000000000E+00 -0.00000000000E+00 -0.33605948126E+02  0.33629936804E+02  0.12700000000E+01 0.  1.
         25    2    1    2    0    0  0.00000000000E+00  0.00000000000E+00  0.82568482094E+02  0.14981130853E+03  0.12500349567E+03 0.  0.
    9000005    1    3    3    0    0  0.60144850422E+02 -0.11320806297E+02  0.26129337297E+02  0.66553031149E+02  0.10000000000E+01 0.  0.
    9000005    1    3    3    0    0 -0.60144850422E+02  0.11320806297E+02  0.56439144797E+02  0.83258277384E+02  0.10000000000E+01 0.  0.
<mgrwt>
<rscale>  0 0.12500350E+03</rscale>
<asrwt>0</asrwt>
<pdfrwt beam="1">  1        4 0.17875369E-01 0.12500350E+03</pdfrwt>
<pdfrwt beam="2">  1       -4 0.51725251E-02 0.12500350E+03</pdfrwt>
<totfact> 0.99333509E+03</totfact>
</mgrwt>
</event>
<event>
 5    1  0.3196850E-002  0.1250049E+03  0.7818608E-02  0.1235062E+00
          4   -1    0    0  501    0  0.00000000000E+00  0.00000000000E+00  0.13500971243E+03  0.13501568557E+03  0.12700000000E+01 0. -1.
         -4   -1    0    0    0  501 -0.00000000000E+00 -0.00000000000E+00 -0.28914835613E+02  0.28942712702E+02  0.12700000000E+01 0. -1.
         25    2    1    2    0    0  0.00000000000E+00  0.00000000000E+00  0.10609487682E+03  0.16395839827E+03  0.12500493381E+03 0.  0.
    9000005    1    3    3    0    0 -0.21855987965E+01 -0.37887844367E+02  0.11817139289E+03  0.12411987629E+03  0.10000000000E+01 0.  0.
    9000005    1    3    3    0    0  0.21855987965E+01  0.37887844367E+02 -0.12076516077E+02  0.39838521979E+02  0.10000000000E+01 0.  0.
<mgrwt>
<rscale>  0 0.12500493E+03</rscale>
<asrwt>0</asrwt>
<pdfrwt beam="1">  1        4 0.20773329E-01 0.12500493E+03</pdfrwt>
<pdfrwt beam="2">  1       -4 0.44510401E-02 0.12500493E+03</pdfrwt>
<totfact> 0.96574313E+03</totfact>
</mgrwt>
</event>
<event>
 5    1  0.3196850E-002  0.1250021E+03  0.7818608E-02  0.1235066E+00
          4   -1    0    0  501    0  0.00000000000E+00  0.00000000000E+00  0.23125479525E+03  0.23125828250E+03  0.12700000000E+01 0. -1.
         -4   -1    0    0    0  501 -0.00000000000E+00 -0.00000000000E+00 -0.16864606827E+02  0.16912358305E+02  0.12700000000E+01 0. -1.
         25    2    1    2    0    0  0.00000000000E+00  0.00000000000E+00  0.21439018842E+03  0.24817064081E+03  0.12500205625E+03 0.  0.
    9000005    1    3    3    0    0  0.62161753231E+02  0.17927015767E+01  0.11944656993E+03  0.13466915167E+03  0.10000000000E+01 0.  0.
    9000005    1    3    3    0    0 -0.62161753231E+02 -0.17927015767E+01  0.94943618497E+02  0.11350148914E+03  0.10000000000E+01 0.  0.
<mgrwt>
<rscale>  0 0.12500206E+03</rscale>
<asrwt>0</asrwt>
<pdfrwt beam="1">  1        4 0.35581599E-01 0.12500206E+03</pdfrwt>
<pdfrwt beam="2">  1       -4 0.25984966E-02 0.12500206E+03</pdfrwt>
<totfact> 0.82591566E+03</totfact>
</mgrwt>
</event>
<event>
 5    1  0.3196850E-002  0.1249626E+03  0.7818608E-02  0.1235128E+00
          4   -1    0    0  501    0  0.00000000000E+00  0.00000000000E+00  0.14449780117E+02  0.14505483289E+02  0.12700000000E+01 0. -1.
         -4   -1    0    0    0  501 -0.00000000000E+00 -0.00000000000E+00 -0.26959435719E+03  0.26959734852E+03  0.12700000000E+01 0. -1.
         25    2    1    2    0    0  0.00000000000E+00  0.00000000000E+00 -0.25514457708E+03  0.28410283181E+03  0.12496264975E+03 0.  0.
    9000005    1    3    3    0    0  0.15929869626E+02  0.35894560979E+02 -0.17108732162E+02  0.42847274946E+02  0.10000000000E+01 0.  0.
    9000005    1    3    3    0    0 -0.15929869626E+02 -0.35894560979E+02 -0.23803584491E+03  0.24125555687E+03  0.10000000000E+01 0.  0.
<mgrwt>
<rscale>  0 0.12496265E+03</rscale>
<asrwt>0</asrwt>
<pdfrwt beam="1">  1        4 0.22275583E-02 0.12496265E+03</pdfrwt>
<pdfrwt beam="2">  1       -4 0.41480566E-01 0.12496265E+03</pdfrwt>
<totfact> 0.77701702E+03</totfact>
</mgrwt>
</event>
<event>
 5    1  0.3196850E-002  0.1249548E+03  0.7818608E-02  0.1235140E+00
         -4   -1    0    0    0  501 -0.00000000000E+00  0.00000000000E+00  0.24453492617E+02  0.24486449337E+02  0.12700000000E+01 0. -1.
          4   -1    0    0  501    0  0.00000000000E+00 -0.00000000000E+00 -0.15948358591E+03  0.15948864246E+03  0.12700000000E+01 0. -1.
         25    2    1    2    0    0  0.00000000000E+00  0.00000000000E+00 -0.13503009329E+03  0.18397509180E+03  0.12495482507E+03 0.  0.
    9000005    1    3    3    0    0 -0.33673817701E+02  0.51100233247E+02 -0.85979018558E+02  0.10553933612E+03  0.10000000000E+01 0.  0.
    9000005    1    3    3    0    0  0.33673817701E+02 -0.51100233247E+02 -0.49051074733E+02  0.78435755679E+02  0.10000000000E+01 0.  0.
<mgrwt>
<rscale>  0 0.12495483E+03</rscale>
<asrwt>0</asrwt>
<pdfrwt beam="2">  1        4 0.24538860E-01 0.12495483E+03</pdfrwt>
<pdfrwt beam="1">  1       -4 0.37650000E-02 0.12495483E+03</pdfrwt>
<totfact> 0.93000459E+03</totfact>
</mgrwt>
</event>
<event>
 5    1  0.3196850E-002  0.1250232E+03  0.7818608E-02  0.1235033E+00
         -4   -1    0    0    0  501 -0.00000000000E+00  0.00000000000E+00  0.18657708864E+02  0.18700882334E+02  0.12700000000E+01 0. -1.
          4   -1    0    0  501    0  0.00000000000E+00 -0.00000000000E+00 -0.20915455090E+03  0.20915840663E+03  0.12700000000E+01 0. -1.
         25    2    1    2    0    0  0.00000000000E+00  0.00000000000E+00 -0.19049684204E+03  0.22785928896E+03  0.12502323280E+03 0.  0.
    9000005    1    3    3    0    0 -0.30810554267E+02 -0.53904965668E+02 -0.10834871326E+03  0.12488186115E+03  0.10000000000E+01 0.  0.
    9000005    1    3    3    0    0  0.30810554267E+02  0.53904965668E+02 -0.82148128771E+02  0.10297742781E+03  0.10000000000E+01 0.  0.
<mgrwt>
<rscale>  0 0.12502323E+03</rscale>
<asrwt>0</asrwt>
<pdfrwt beam="2">  1        4 0.32181239E-01 0.12502323E+03</pdfrwt>
<pdfrwt beam="1">  1       -4 0.28740345E-02 0.12502323E+03</pdfrwt>
<totfact> 0.85595008E+03</totfact>
</mgrwt>
</event>
<event>
 5    1  0.3196850E-002  0.1249985E+03  0.7818608E-02  0.1235072E+00
          4   -1    0    0  501    0  0.00000000000E+00  0.00000000000E+00  0.14177477643E+02  0.14234246462E+02  0.12700000000E+01 0.  1.
         -4   -1    0    0    0  501 -0.00000000000E+00 -0.00000000000E+00 -0.27490962133E+03  0.27491255482E+03  0.12700000000E+01 0.  1.
         25    2    1    2    0    0  0.00000000000E+00  0.00000000000E+00 -0.26073214368E+03  0.28914680128E+03  0.12499848776E+03 0.  0.
    9000005    1    3    3    0    0 -0.27184157633E+02  0.21616683223E+02 -0.25053901938E+03  0.25293686890E+03  0.10000000000E+01 0.  0.
    9000005    1    3    3    0    0  0.27184157633E+02 -0.21616683223E+02 -0.10193124306E+02  0.36209932379E+02  0.10000000000E+01 0.  0.
<mgrwt>
<rscale>  0 0.12499849E+03</rscale>
<asrwt>0</asrwt>
<pdfrwt beam="1">  1        4 0.21857431E-02 0.12499849E+03</pdfrwt>
<pdfrwt beam="2">  1       -4 0.42298376E-01 0.12499849E+03</pdfrwt>
<totfact> 0.76983317E+03</totfact>
</mgrwt>
</event>
<event>
 5    1  0.3196850E-002  0.1249981E+03  0.7818608E-02  0.1235072E+00
          4   -1    0    0  501    0  0.00000000000E+00  0.00000000000E+00  0.13490325617E+02  0.13549973626E+02  0.12700000000E+01 0. -1.
         -4   -1    0    0    0  501 -0.00000000000E+00 -0.00000000000E+00 -0.28885075789E+03  0.28885354980E+03  0.12700000000E+01 0. -1.
         25    2    1    2    0    0  0.00000000000E+00  0.00000000000E+00 -0.27536043227E+03  0.30240352343E+03  0.12499809327E+03 0.  0.
    9000005    1    3    3    0    0  0.30580527124E+02 -0.46443535257E+02 -0.20665940883E+03  0.21401234045E+03  0.10000000000E+01 0.  0.
    9000005    1    3    3    0    0 -0.30580527124E+02  0.46443535257E+02 -0.68701023439E+02  0.88391182976E+02  0.10000000000E+01 0.  0.
<mgrwt>
<rscale>  0 0.12499809E+03</rscale>
<asrwt>0</asrwt>
<pdfrwt beam="1">  1        4 0.20802380E-02 0.12499809E+03</pdfrwt>
<pdfrwt beam="2">  1       -4 0.44443377E-01 0.12499809E+03</pdfrwt>
<totfact> 0.75301520E+03</totfact>
</mgrwt>
</event>
<event>
 5    1  0.3196850E-002  0.1250017E+03  0.7818608E-02  0.1235067E+00
         -4   -1    0    0    0  501 -0.00000000000E+00  0.00000000000E+00  0.21856827487E+03  0.21857196453E+03  0.12700000000E+01 0.  1.
          4   -1    0    0  501    0  0.00000000000E+00 -0.00000000000E+00 -0.17846055512E+02  0.17891187701E+02  0.12700000000E+01 0.  1.
         25    2    1    2    0    0  0.00000000000E+00  0.00000000000E+00  0.20072221936E+03  0.23646315223E+03  0.12500165207E+03 0.  0.
    9000005    1    3    3    0    0  0.53217305576E+02  0.42162431112E+01  0.38903481020E+02  0.66063145204E+02  0.10000000000E+01 0.  0.
    9000005    1    3    3    0    0 -0.53217305576E+02 -0.42162431112E+01  0.16181873834E+03  0.17040000703E+03  0.10000000000E+01 0.  0.
<mgrwt>
<rscale>  0 0.12500165E+03</rscale>
<asrwt>0</asrwt>
<pdfrwt beam="2">  1        4 0.27493024E-02 0.12500165E+03</pdfrwt>
<pdfrwt beam="1">  1       -4 0.33629646E-01 0.12500165E+03</pdfrwt>
<totfact> 0.84323844E+03</totfact>
</mgrwt>
</event>
<event>
 5    1  0.3196850E-002  0.1250044E+03  0.7818608E-02  0.1235062E+00
          4   -1    0    0  501    0  0.00000000000E+00  0.00000000000E+00  0.13974262449E+03  0.13974839533E+03  0.12700000000E+01 0.  1.
         -4   -1    0    0    0  501 -0.00000000000E+00 -0.00000000000E+00 -0.27934375807E+02  0.27963230352E+02  0.12700000000E+01 0.  1.
         25    2    1    2    0    0  0.00000000000E+00  0.00000000000E+00  0.11180824868E+03  0.16771162569E+03  0.12500441959E+03 0.  0.
    9000005    1    3    3    0    0  0.38810114260E+02  0.44075483589E+02  0.84574340117E+02  0.10296937520E+03  0.10000000000E+01 0.  0.
    9000005    1    3    3    0    0 -0.38810114260E+02 -0.44075483589E+02  0.27233908562E+02  0.64742250487E+02  0.10000000000E+01 0.  0.
<mgrwt>
<rscale>  0 0.12500442E+03</rscale>
<asrwt>0</asrwt>
<pdfrwt beam="1">  1        4 0.21501529E-01 0.12500442E+03</pdfrwt>
<pdfrwt beam="2">  1       -4 0.43002597E-02 0.12500442E+03</pdfrwt>
<totfact> 0.95866788E+03</totfact>
</mgrwt>
</event>
<event>
 4    1  0.3196850E-002  0.1247723E+03  0.7818608E-02  0.1235426E+00
         -4   -1    0    0    0  501 -0.00000000000E+00  0.00000000000E+00  0.40693371116E+02  0.40713184017E+02  0.12700000000E+01 0. -1.
          4   -1    0    0  501    0  0.00000000000E+00 -0.00000000000E+00 -0.95595626115E+02  0.95604061799E+02  0.12700000000E+01 0. -1.
    9000005    1    1    2    0    0  0.60791264000E+02 -0.97196497875E+00 -0.12213947925E+02  0.62021794706E+02  0.10000000000E+01 0.  0.
    9000005    1    1    2    0    0 -0.60791264000E+02  0.97196497875E+00 -0.42688307074E+02  0.74295451109E+02  0.10000000000E+01 0.  0.
<mgrwt>
<rscale>  0 0.12477233E+03</rscale>
<asrwt>0</asrwt>
<pdfrwt beam="2">  1        4 0.14709192E-01 0.12477233E+03</pdfrwt>
<pdfrwt beam="1">  1       -4 0.62626916E-02 0.12477233E+03</pdfrwt>
<totfact> 0.10262976E+04</totfact>
</mgrwt>
</event>
<event>
 5    1  0.3196850E-002  0.1249997E+03  0.7818608E-02  0.1235070E+00
          4   -1    0    0  501    0  0.00000000000E+00  0.00000000000E+00  0.18683177911E+03  0.18683609551E+03  0.12700000000E+01 0. -1.
         -4   -1    0    0    0  501 -0.00000000000E+00 -0.00000000000E+00 -0.20883890947E+02  0.20922471199E+02  0.12700000000E+01 0. -1.
         25    2    1    2    0    0  0.00000000000E+00  0.00000000000E+00  0.16594788817E+03  0.20775856671E+03  0.12499968182E+03 0.  0.
    9000005    1    3    3    0    0  0.42043345127E+02 -0.16416631967E+02  0.11136985715E+02  0.46499259408E+02  0.10000000000E+01 0.  0.
    9000005    1    3    3    0    0 -0.42043345127E+02  0.16416631967E+02  0.15481090245E+03  0.16125930730E+03  0.10000000000E+01 0.  0.
<mgrwt>
<rscale>  0 0.12499968E+03</rscale>
<asrwt>0</asrwt>
<pdfrwt beam="1">  1        4 0.28746650E-01 0.12499968E+03</pdfrwt>
<pdfrwt beam="2">  1       -4 0.32162061E-02 0.12499968E+03</pdfrwt>
<totfact> 0.88843882E+03</totfact>
</mgrwt>
</event>
<event>
 5    1  0.3196850E-002  0.1250044E+03  0.7818608E-02  0.1235062E+00
         -4   -1    0    0    0  501 -0.00000000000E+00  0.00000000000E+00  0.35245325194E+01  0.37463621662E+01  0.12700000000E+01 0.  1.
          4   -1    0    0  501    0  0.00000000000E+00 -0.00000000000E+00 -0.10743436661E+04  0.10743444168E+04  0.12700000000E+01 0.  1.
         25    2    1    2    0    0  0.00000000000E+00  0.00000000000E+00 -0.10708191336E+04  0.10780907790E+04  0.12500444284E+03 0.  0.
    9000005    1    3    3    0    0  0.25154672307E+02 -0.39190857326E+02 -0.17598261080E+03  0.18204274262E+03  0.10000000000E+01 0.  0.
    9000005    1    3    3    0    0 -0.25154672307E+02  0.39190857326E+02 -0.89483652283E+03  0.89604803634E+03  0.10000000000E+01 0.  0.
<mgrwt>
<rscale>  0 0.12500444E+03</rscale>
<asrwt>0</asrwt>
<pdfrwt beam="2">  1        4 0.16530051E+00 0.12500444E+03</pdfrwt>
<pdfrwt beam="1">  1       -4 0.55935819E-03 0.12500444E+03</pdfrwt>
<totfact> 0.28130944E+03</totfact>
</mgrwt>
</event>
<event>
 5    1  0.3196850E-002  0.1250027E+03  0.7818608E-02  0.1235065E+00
         -4   -1    0    0    0  501 -0.00000000000E+00  0.00000000000E+00  0.72021273003E+02  0.72032469519E+02  0.12700000000E+01 0. -1.
          4   -1    0    0  501    0  0.00000000000E+00 -0.00000000000E+00 -0.54216946296E+02  0.54231818757E+02  0.12700000000E+01 0. -1.
         25    2    1    2    0    0  0.00000000000E+00  0.00000000000E+00  0.17804326707E+02  0.12626428828E+03  0.12500270575E+03 0.  0.
    9000005    1    3    3    0    0  0.44614882126E+02  0.79060936422E+01  0.52376348280E+02  0.69262369892E+02  0.10000000000E+01 0.  0.
    9000005    1    3    3    0    0 -0.44614882126E+02 -0.79060936422E+01 -0.34572021574E+02  0.57001918384E+02  0.10000000000E+01 0.  0.
<mgrwt>
<rscale>  0 0.12500271E+03</rscale>
<asrwt>0</asrwt>
<pdfrwt beam="2">  1        4 0.83430739E-02 0.12500271E+03</pdfrwt>
<pdfrwt beam="1">  1       -4 0.11082201E-01 0.12500271E+03</pdfrwt>
<totfact> 0.10424537E+04</totfact>
</mgrwt>
</event>
<event>
 5    1  0.3196850E-002  0.1249994E+03  0.7818608E-02  0.1235070E+00
          4   -1    0    0  501    0  0.00000000000E+00  0.00000000000E+00  0.21269111516E+03  0.21269490677E+03  0.12700000000E+01 0. -1.
         -4   -1    0    0    0  501 -0.00000000000E+00 -0.00000000000E+00 -0.18339734932E+02  0.18383655169E+02  0.12700000000E+01 0. -1.
         25    2    1    2    0    0  0.00000000000E+00  0.00000000000E+00  0.19435138023E+03  0.23107856194E+03  0.12499937117E+03 0.  0.
    9000005    1    3    3    0    0  0.25310248285E+02 -0.50128244082E+02  0.46489251858E+02  0.72908847620E+02  0.10000000000E+01 0.  0.
    9000005    1    3    3    0    0 -0.25310248285E+02  0.50128244082E+02  0.14786212837E+03  0.15816971432E+03  0.10000000000E+01 0.  0.
<mgrwt>
<rscale>  0 0.12499937E+03</rscale>
<asrwt>0</asrwt>
<pdfrwt beam="1">  1        4 0.32725379E-01 0.12499937E+03</pdfrwt>
<pdfrwt beam="2">  1       -4 0.28251679E-02 0.12499937E+03</pdfrwt>
<totfact> 0.85145452E+03</totfact>
</mgrwt>
</event>
<event>
 5    1  0.3196850E-002  0.1249986E+03  0.7818608E-02  0.1235071E+00
          4   -1    0    0  501    0  0.00000000000E+00  0.00000000000E+00  0.57882893241E+01  0.59259761474E+01  0.12700000000E+01 0. -1.
         -4   -1    0    0    0  501 -0.00000000000E+00 -0.00000000000E+00 -0.66676854398E+03  0.66676975347E+03  0.12700000000E+01 0. -1.
         25    2    1    2    0    0  0.00000000000E+00  0.00000000000E+00 -0.66098025465E+03  0.67269572961E+03  0.12499859039E+03 0.  0.
    9000005    1    3    3    0    0 -0.39311368316E+02  0.30565441352E+02 -0.12730026176E+03  0.13669669538E+03  0.10000000000E+01 0.  0.
    9000005    1    3    3    0    0  0.39311368316E+02 -0.30565441352E+02 -0.53367999289E+03  0.53599903423E+03  0.10000000000E+01 0.  0.
<mgrwt>
<rscale>  0 0.12499859E+03</rscale>
<asrwt>0</asrwt>
<pdfrwt beam="1">  1        4 0.90119091E-03 0.12499859E+03</pdfrwt>
<pdfrwt beam="2">  1       -4 0.10259040E+00 0.12499859E+03</pdfrwt>
<totfact> 0.44569163E+03</totfact>
</mgrwt>
</event>
<event>
 5    1  0.3196850E-002  0.1250003E+03  0.7818608E-02  0.1235069E+00
          4   -1    0    0  501    0  0.00000000000E+00  0.00000000000E+00  0.21017545416E+03  0.21017929116E+03  0.12700000000E+01 0.  1.
         -4   -1    0    0    0  501 -0.00000000000E+00 -0.00000000000E+00 -0.18560035907E+02  0.18603436050E+02  0.12700000000E+01 0.  1.
         25    2    1    2    0    0  0.00000000000E+00  0.00000000000E+00  0.19161541826E+03  0.22878272721E+03  0.12500027102E+03 0.  0.
    9000005    1    3    3    0    0 -0.18712142065E+02 -0.13955606379E+02  0.20190527548E+03  0.20325265922E+03  0.10000000000E+01 0.  0.
    9000005    1    3    3    0    0  0.18712142065E+02  0.13955606379E+02 -0.10289857227E+02  0.25530067995E+02  0.10000000000E+01 0.  0.
<mgrwt>
<rscale>  0 0.12500027E+03</rscale>
<asrwt>0</asrwt>
<pdfrwt beam="1">  1        4 0.32338318E-01 0.12500027E+03</pdfrwt>
<pdfrwt beam="2">  1       -4 0.28590239E-02 0.12500027E+03</pdfrwt>
<totfact> 0.85496345E+03</totfact>
</mgrwt>
</event>
<event>
 5    1  0.3196850E-002  0.1249953E+03  0.7818608E-02  0.1235077E+00
         -4   -1    0    0    0  501 -0.00000000000E+00  0.00000000000E+00  0.16524515263E+02  0.16573246655E+02  0.12700000000E+01 0. -1.
          4   -1    0    0  501    0  0.00000000000E+00 -0.00000000000E+00 -0.23597491358E+03  0.23597833108E+03  0.12700000000E+01 0. -1.
         25    2    1    2    0    0  0.00000000000E+00  0.00000000000E+00 -0.21945039832E+03  0.25255157774E+03  0.12499528829E+03 0.  0.
    9000005    1    3    3    0    0 -0.55613820815E+02 -0.28454806656E+02 -0.10660654590E+03  0.12356588815E+03  0.10000000000E+01 0.  0.
    9000005    1    3    3    0    0  0.55613820815E+02  0.28454806656E+02 -0.11284385242E+03  0.12898568958E+03  0.10000000000E+01 0.  0.
<mgrwt>
<rscale>  0 0.12499529E+03</rscale>
<asrwt>0</asrwt>
<pdfrwt beam="2">  1        4 0.36307842E-01 0.12499529E+03</pdfrwt>
<pdfrwt beam="1">  1       -4 0.25462447E-02 0.12499529E+03</pdfrwt>
<totfact> 0.81971441E+03</totfact>
</mgrwt>
</event>
<event>
 5    1  0.3196850E-002  0.1249973E+03  0.7818608E-02  0.1235074E+00
          4   -1    0    0  501    0  0.00000000000E+00  0.00000000000E+00  0.14426670652E+04  0.14426676242E+04  0.12700000000E+01 0. -1.
         -4   -1    0    0    0  501 -0.00000000000E+00 -0.00000000000E+00 -0.25580245767E+01  0.28559393787E+01  0.12700000000E+01 0. -1.
         25    2    1    2    0    0  0.00000000000E+00  0.00000000000E+00  0.14401090406E+04  0.14455235636E+04  0.12499729587E+03 0.  0.
    9000005    1    3    3    0    0  0.51565400559E+02 -0.34783812093E+02  0.78961139858E+03  0.79205811964E+03  0.10000000000E+01 0.  0.
    9000005    1    3    3    0    0 -0.51565400559E+02  0.34783812093E+02  0.65049764205E+03  0.65346544394E+03  0.10000000000E+01 0.  0.
<mgrwt>
<rscale>  0 0.12499730E+03</rscale>
<asrwt>0</asrwt>
<pdfrwt beam="1">  1        4 0.22197089E+00 0.12499730E+03</pdfrwt>
<pdfrwt beam="2">  1       -4 0.41650336E-03 0.12499730E+03</pdfrwt>
<totfact> 0.19025841E+03</totfact>
</mgrwt>
</event>
<event>
 5    1  0.3196850E-002  0.1250112E+03  0.7818608E-02  0.1235052E+00
         -4   -1    0    0    0  501 -0.00000000000E+00  0.00000000000E+00  0.57427722986E+01  0.58815247745E+01  0.12700000000E+01 0. -1.
          4   -1    0    0  501    0  0.00000000000E+00 -0.00000000000E+00 -0.67206422702E+03  0.67206542698E+03  0.12700000000E+01 0. -1.
         25    2    1    2    0    0  0.00000000000E+00  0.00000000000E+00 -0.66632145472E+03  0.67794695175E+03  0.12501115298E+03 0.  0.
    9000005    1    3    3    0    0  0.22651903478E+02 -0.55062410443E+02 -0.43619509162E+03  0.44024099733E+03  0.10000000000E+01 0.  0.
    9000005    1    3    3    0    0 -0.22651903478E+02  0.55062410443E+02 -0.23012636310E+03  0.23770595443E+03  0.10000000000E+01 0.  0.
<mgrwt>
<rscale>  0 0.12501115E+03</rscale>
<asrwt>0</asrwt>
<pdfrwt beam="2">  1        4 0.10340520E+00 0.12501115E+03</pdfrwt>
<pdfrwt beam="1">  1       -4 0.89426953E-03 0.12501115E+03</pdfrwt>
<totfact> 0.44265911E+03</totfact>
</mgrwt>
</event>
<event>
 5    1  0.3196850E-002  0.1250013E+03  0.7818608E-02  0.1235067E+00
          4   -1    0    0  501    0  0.00000000000E+00  0.00000000000E+00  0.93576633420E+02  0.93585251094E+02  0.12700000000E+01 0.  1.
         -4   -1    0    0    0  501 -0.00000000000E+00 -0.00000000000E+00 -0.41724552397E+02  0.41743875871E+02  0.12700000000E+01 0.  1.
         25    2    1    2    0    0  0.00000000000E+00  0.00000000000E+00  0.51852081023E+02  0.13532912696E+03  0.12500133719E+03 0.  0.
    9000005    1    3    3    0    0  0.36811810789E+02 -0.63132511320E+01  0.80169231710E+02  0.88448133199E+02  0.10000000000E+01 0.  0.
    9000005    1    3    3    0    0 -0.36811810789E+02  0.63132511320E+01 -0.28317150687E+02  0.46880993766E+02  0.10000000000E+01 0.  0.
<mgrwt>
<rscale>  0 0.12500134E+03</rscale>
<asrwt>0</asrwt>
<pdfrwt beam="1">  1        4 0.14398554E-01 0.12500134E+03</pdfrwt>
<pdfrwt beam="2">  1       -4 0.64213113E-02 0.12500134E+03</pdfrwt>
<totfact> 0.10230830E+04</totfact>
</mgrwt>
</event>
<event>
 5    1  0.3196850E-002  0.1249975E+03  0.7818608E-02  0.1235073E+00
         -4   -1    0    0    0  501 -0.00000000000E+00  0.00000000000E+00  0.28880785561E+01  0.31549798330E+01  0.12700000000E+01 0.  1.
          4   -1    0    0  501    0  0.00000000000E+00 -0.00000000000E+00 -0.12924863607E+04  0.12924869846E+04  0.12700000000E+01 0.  1.
         25    2    1    2    0    0  0.00000000000E+00  0.00000000000E+00 -0.12895982821E+04  0.12956419645E+04  0.12499748328E+03 0.  0.
    9000005    1    3    3    0    0 -0.36434574813E+02 -0.21579097177E+02 -0.16844902449E+03  0.17369285975E+03  0.10000000000E+01 0.  0.
    9000005    1    3    3    0    0  0.36434574813E+02  0.21579097177E+02 -0.11211492576E+04  0.11219491047E+04  0.10000000000E+01 0.  0.
<mgrwt>
<rscale>  0 0.12499748E+03</rscale>
<asrwt>0</asrwt>
<pdfrwt beam="2">  1        4 0.19886419E+00 0.12499748E+03</pdfrwt>
<pdfrwt beam="1">  1       -4 0.46489967E-03 0.12499748E+03</pdfrwt>
<totfact> 0.22332900E+03</totfact>
</mgrwt>
</event>
<event>
 5    1  0.3196850E-002  0.1249930E+03  0.7818608E-02  0.1235080E+00
          4   -1    0    0  501    0  0.00000000000E+00  0.00000000000E+00  0.53575604930E+02  0.53590655376E+02  0.12700000000E+01 0. -1.
         -4   -1    0    0    0  501 -0.00000000000E+00 -0.00000000000E+00 -0.72871936584E+02  0.72883002418E+02  0.12700000000E+01 0. -1.
         25    2    1    2    0    0  0.00000000000E+00  0.00000000000E+00 -0.19296331654E+02  0.12647365779E+03  0.12499295060E+03 0.  0.
    9000005    1    3    3    0    0  0.44346624594E+02 -0.12684831326E+02 -0.52305396041E+02  0.69745125376E+02  0.10000000000E+01 0.  0.
    9000005    1    3    3    0    0 -0.44346624594E+02  0.12684831326E+02  0.33009064387E+02  0.56728532418E+02  0.10000000000E+01 0.  0.
<mgrwt>
<rscale>  0 0.12499295E+03</rscale>
<asrwt>0</asrwt>
<pdfrwt beam="1">  1        4 0.82444097E-02 0.12499295E+03</pdfrwt>
<pdfrwt beam="2">  1       -4 0.11213076E-01 0.12499295E+03</pdfrwt>
<totfact> 0.10422261E+04</totfact>
</mgrwt>
</event>
<event>
 5    1  0.3196850E-002  0.1249751E+03  0.7818608E-02  0.1235108E+00
         -4   -1    0    0    0  501 -0.00000000000E+00  0.00000000000E+00  0.27141379537E+02  0.27171076224E+02  0.12700000000E+01 0.  1.
          4   -1    0    0  501    0  0.00000000000E+00 -0.00000000000E+00 -0.14375371353E+03  0.14375932336E+03  0.12700000000E+01 0.  1.
         25    2    1    2    0    0  0.00000000000E+00  0.00000000000E+00 -0.11661233399E+03  0.17093039958E+03  0.12497505776E+03 0.  0.
    9000005    1    3    3    0    0  0.57071928080E+02 -0.24913862500E+02 -0.65251383903E+02  0.90203373666E+02  0.10000000000E+01 0.  0.
    9000005    1    3    3    0    0 -0.57071928080E+02  0.24913862500E+02 -0.51360950086E+02  0.80727025916E+02  0.10000000000E+01 0.  0.
<mgrwt>
<rscale>  0 0.12497506E+03</rscale>
<asrwt>0</asrwt>
<pdfrwt beam="2">  1        4 0.22118671E-01 0.12497506E+03</pdfrwt>
<pdfrwt beam="1">  1       -4 0.41783128E-02 0.12497506E+03</pdfrwt>
<totfact> 0.95328859E+03</totfact>
</mgrwt>
</event>
<event>
 5    1  0.3196850E-002  0.1250004E+03  0.7818608E-02  0.1235069E+00
          4   -1    0    0  501    0  0.00000000000E+00  0.00000000000E+00  0.91401666285E+02  0.91410489002E+02  0.12700000000E+01 0.  1.
         -4   -1    0    0    0  501 -0.00000000000E+00 -0.00000000000E+00 -0.42717112327E+02  0.42735987008E+02  0.12700000000E+01 0.  1.
         25    2    1    2    0    0  0.00000000000E+00  0.00000000000E+00  0.48684553957E+02  0.13414647601E+03  0.12500036493E+03 0.  0.
    9000005    1    3    3    0    0 -0.13998798854E+02 -0.60870671679E+02  0.22177834359E+02  0.66287716636E+02  0.10000000000E+01 0.  0.
    9000005    1    3    3    0    0  0.13998798854E+02  0.60870671679E+02  0.26506719598E+02  0.67858759374E+02  0.10000000000E+01 0.  0.
<mgrwt>
<rscale>  0 0.12500036E+03</rscale>
<asrwt>0</asrwt>
<pdfrwt beam="1">  1        4 0.14063925E-01 0.12500036E+03</pdfrwt>
<pdfrwt beam="2">  1       -4 0.65739940E-02 0.12500036E+03</pdfrwt>
<totfact> 0.10256008E+04</totfact>
</mgrwt>
</event>
<event>
 5    1  0.3196850E-002  0.1249994E+03  0.7818608E-02  0.1235070E+00
         -4   -1    0    0    0  501 -0.00000000000E+00  0.00000000000E+00  0.13497508980E+03  0.13498106447E+03  0.12700000000E+01 0.  1.
          4   -1    0    0  501    0  0.00000000000E+00 -0.00000000000E+00 -0.28919707287E+02  0.28947579684E+02  0.12700000000E+01 0.  1.
         25    2    1    2    0    0  0.00000000000E+00  0.00000000000E+00  0.10605538251E+03  0.16392864416E+03  0.12499942486E+03 0.  0.
    9000005    1    3    3    0    0 -0.87398806076E+01  0.22134703132E+02 -0.22751063145E+02  0.32938449721E+02  0.10000000000E+01 0.  0.
    9000005    1    3    3    0    0  0.87398806076E+01 -0.22134703132E+02  0.12880644566E+03  0.13099019444E+03  0.10000000000E+01 0.  0.
<mgrwt>
<rscale>  0 0.12499942E+03</rscale>
<asrwt>0</asrwt>
<pdfrwt beam="2">  1        4 0.44517894E-02 0.12499942E+03</pdfrwt>
<pdfrwt beam="1">  1       -4 0.20768002E-01 0.12499942E+03</pdfrwt>
<totfact> 0.96591924E+03</totfact>
</mgrwt>
</event>
<event>
 5    1  0.3196850E-002  0.1249968E+03  0.7818608E-02  0.1235074E+00
          4   -1    0    0  501    0  0.00000000000E+00  0.00000000000E+00  0.17320053408E+02  0.17366552624E+02  0.12700000000E+01 0.  1.
         -4   -1    0    0    0  501 -0.00000000000E+00 -0.00000000000E+00 -0.22517136919E+03  0.22517495065E+03  0.12700000000E+01 0.  1.
         25    2    1    2    0    0  0.00000000000E+00  0.00000000000E+00 -0.20785131578E+03  0.24254150328E+03  0.12499684532E+03 0.  0.
    9000005    1    3    3    0    0 -0.55800723880E+02  0.24842677923E+02 -0.78317524015E+02  0.99325293857E+02  0.10000000000E+01 0.  0.
    9000005    1    3    3    0    0  0.55800723880E+02 -0.24842677923E+02 -0.12953379176E+03  0.14321620942E+03  0.10000000000E+01 0.  0.
<mgrwt>
<rscale>  0 0.12499685E+03</rscale>
<asrwt>0</asrwt>
<pdfrwt beam="1">  1        4 0.26684761E-02 0.12499685E+03</pdfrwt>
<pdfrwt beam="2">  1       -4 0.34645599E-01 0.12499685E+03</pdfrwt>
<totfact> 0.83426173E+03</totfact>
</mgrwt>
</event>
<event>
 5    1  0.3196850E-002  0.1249979E+03  0.7818608E-02  0.1235073E+00
         -4   -1    0    0    0  501 -0.00000000000E+00  0.00000000000E+00  0.15242585900E+02  0.15295402084E+02  0.12700000000E+01 0.  1.
          4   -1    0    0  501    0  0.00000000000E+00 -0.00000000000E+00 -0.25576606418E+03  0.25576921723E+03  0.12700000000E+01 0.  1.
         25    2    1    2    0    0  0.00000000000E+00  0.00000000000E+00 -0.24052347828E+03  0.27106461932E+03  0.12499793696E+03 0.  0.
    9000005    1    3    3    0    0 -0.48410819750E+02  0.57675644473E+01 -0.20503658728E+03  0.21075548484E+03  0.10000000000E+01 0.  0.
    9000005    1    3    3    0    0  0.48410819750E+02 -0.57675644473E+01 -0.35486890999E+02  0.60309134476E+02  0.10000000000E+01 0.  0.
<mgrwt>
<rscale>  0 0.12499794E+03</rscale>
<asrwt>0</asrwt>
<pdfrwt beam="2">  1        4 0.39352928E-01 0.12499794E+03</pdfrwt>
<pdfrwt beam="1">  1       -4 0.23493187E-02 0.12499794E+03</pdfrwt>
<totfact> 0.79381588E+03</totfact>
</mgrwt>
</event>
<event>
 5    1  0.3196850E-002  0.1249395E+03  0.7818608E-02  0.1235164E+00
         -4   -1    0    0    0  501 -0.00000000000E+00  0.00000000000E+00  0.29666870746E+03  0.29667142580E+03  0.12700000000E+01 0.  1.
          4   -1    0    0  501    0  0.00000000000E+00 -0.00000000000E+00 -0.13120863168E+02  0.13182183062E+02  0.12700000000E+01 0.  1.
         25    2    1    2    0    0  0.00000000000E+00  0.00000000000E+00  0.28354784429E+03  0.30985360886E+03  0.12493950105E+03 0.  0.
    9000005    1    3    3    0    0 -0.34885121076E+02 -0.39081563821E+02  0.22613609571E+03  0.23212684913E+03  0.10000000000E+01 0.  0.
    9000005    1    3    3    0    0  0.34885121076E+02  0.39081563821E+02  0.57411748577E+02  0.77726759728E+02  0.10000000000E+01 0.  0.
<mgrwt>
<rscale>  0 0.12493950E+03</rscale>
<asrwt>0</asrwt>
<pdfrwt beam="2">  1        4 0.20235206E-02 0.12493950E+03</pdfrwt>
<pdfrwt beam="1">  1       -4 0.45646259E-01 0.12493950E+03</pdfrwt>
<totfact> 0.74479136E+03</totfact>
</mgrwt>
</event>
<event>
 5    1  0.3196850E-002  0.1250125E+03  0.7818608E-02  0.1235050E+00
         -4   -1    0    0    0  501 -0.00000000000E+00  0.00000000000E+00  0.24416198435E+02  0.24449205428E+02  0.12700000000E+01 0.  1.
          4   -1    0    0  501    0  0.00000000000E+00 -0.00000000000E+00 -0.15987441989E+03  0.15987946408E+03  0.12700000000E+01 0.  1.
         25    2    1    2    0    0  0.00000000000E+00  0.00000000000E+00 -0.13545822145E+03  0.18432866951E+03  0.12501251395E+03 0.  0.
    9000005    1    3    3    0    0  0.28788801434E+02 -0.42829319278E+02 -0.11971136773E+03  0.13036470857E+03  0.10000000000E+01 0.  0.
    9000005    1    3    3    0    0 -0.28788801434E+02  0.42829319278E+02 -0.15746853728E+02  0.53963960939E+02  0.10000000000E+01 0.  0.
<mgrwt>
<rscale>  0 0.12501251E+03</rscale>
<asrwt>0</asrwt>
<pdfrwt beam="2">  1        4 0.24598991E-01 0.12501251E+03</pdfrwt>
<pdfrwt beam="1">  1       -4 0.37592653E-02 0.12501251E+03</pdfrwt>
<totfact> 0.92817546E+03</totfact>
</mgrwt>
</event>
<event>
 5    1  0.3196850E-002  0.1250056E+03  0.7818608E-02  0.1235061E+00
         -4   -1    0    0    0  501 -0.00000000000E+00  0.00000000000E+00  0.77751161473E+01  0.78781553110E+01  0.12700000000E+01 0. -1.
          4   -1    0    0  501    0  0.00000000000E+00 -0.00000000000E+00 -0.49903757388E+03  0.49903918989E+03  0.12700000000E+01 0. -1.
         25    2    1    2    0    0  0.00000000000E+00  0.00000000000E+00 -0.49126245773E+03  0.50691734520E+03  0.12500556982E+03 0.  0.
    9000005    1    3    3    0    0 -0.36186655417E+02  0.39269844907E+01 -0.39626689057E+02  0.53816073093E+02  0.10000000000E+01 0.  0.
    9000005    1    3    3    0    0  0.36186655417E+02 -0.39269844907E+01 -0.45163576867E+03  0.45310127210E+03  0.10000000000E+01 0.  0.
<mgrwt>
<rscale>  0 0.12500557E+03</rscale>
<asrwt>0</asrwt>
<pdfrwt beam="2">  1        4 0.76783037E-01 0.12500557E+03</pdfrwt>
<pdfrwt beam="1">  1       -4 0.12042225E-02 0.12500557E+03</pdfrwt>
<totfact> 0.55324868E+03</totfact>
</mgrwt>
</event>
<event>
 5    1  0.3196850E-002  0.1249898E+03  0.7818608E-02  0.1235085E+00
         -4   -1    0    0    0  501 -0.00000000000E+00  0.00000000000E+00  0.99710851471E+01  0.10051638623E+02  0.12700000000E+01 0.  1.
          4   -1    0    0  501    0  0.00000000000E+00 -0.00000000000E+00 -0.39003645566E+03  0.39003852329E+03  0.12700000000E+01 0.  1.
         25    2    1    2    0    0  0.00000000000E+00  0.00000000000E+00 -0.38006537052E+03  0.40009016191E+03  0.12498980675E+03 0.  0.
    9000005    1    3    3    0    0  0.18931874085E+02  0.32684406850E+02 -0.34937367049E+03  0.35141093885E+03  0.10000000000E+01 0.  0.
    9000005    1    3    3    0    0 -0.18931874085E+02 -0.32684406850E+02 -0.30691700022E+02  0.48679223060E+02  0.10000000000E+01 0.  0.
<mgrwt>
<rscale>  0 0.12498981E+03</rscale>
<asrwt>0</asrwt>
<pdfrwt beam="2">  1        4 0.60011952E-01 0.12498981E+03</pdfrwt>
<pdfrwt beam="1">  1       -4 0.15403689E-02 0.12498981E+03</pdfrwt>
<totfact> 0.64558553E+03</totfact>
</mgrwt>
</event>
<event>
 5    1  0.3196850E-002  0.1250012E+03  0.7818608E-02  0.1235067E+00
          4   -1    0    0  501    0  0.00000000000E+00  0.00000000000E+00  0.16633974130E+03  0.16634458944E+03  0.12700000000E+01 0.  1.
         -4   -1    0    0    0  501 -0.00000000000E+00 -0.00000000000E+00 -0.23461645028E+02  0.23495993008E+02  0.12700000000E+01 0.  1.
         25    2    1    2    0    0  0.00000000000E+00  0.00000000000E+00  0.14287809627E+03  0.18984058244E+03  0.12500118539E+03 0.  0.
    9000005    1    3    3    0    0  0.51378540209E+02  0.31296225308E+02  0.45750120253E+02  0.75586252822E+02  0.10000000000E+01 0.  0.
    9000005    1    3    3    0    0 -0.51378540209E+02 -0.31296225308E+02  0.97127976016E+02  0.11425432962E+03  0.10000000000E+01 0.  0.
<mgrwt>
<rscale>  0 0.12500119E+03</rscale>
<asrwt>0</asrwt>
<pdfrwt beam="1">  1        4 0.25593744E-01 0.12500119E+03</pdfrwt>
<pdfrwt beam="2">  1       -4 0.36124990E-02 0.12500119E+03</pdfrwt>
<totfact> 0.91872620E+03</totfact>
</mgrwt>
</event>
<event>
 5    1  0.3196850E-002  0.1249989E+03  0.7818608E-02  0.1235071E+00
          4   -1    0    0  501    0  0.00000000000E+00  0.00000000000E+00  0.18457731773E+02  0.18501371901E+02  0.12700000000E+01 0. -1.
         -4   -1    0    0    0  501 -0.00000000000E+00 -0.00000000000E+00 -0.21133309492E+03  0.21133691090E+03  0.12700000000E+01 0. -1.
         25    2    1    2    0    0  0.00000000000E+00  0.00000000000E+00 -0.19287536315E+03  0.22983828280E+03  0.12499892212E+03 0.  0.
    9000005    1    3    3    0    0  0.51016716033E+02  0.24670691377E+02 -0.14487097309E+03  0.15556332206E+03  0.10000000000E+01 0.  0.
    9000005    1    3    3    0    0 -0.51016716033E+02 -0.24670691377E+02 -0.48004390063E+02  0.74274960741E+02  0.10000000000E+01 0.  0.
<mgrwt>
<rscale>  0 0.12499892E+03</rscale>
<asrwt>0</asrwt>
<pdfrwt beam="1">  1        4 0.28433017E-02 0.12499892E+03</pdfrwt>
<pdfrwt beam="2">  1       -4 0.32516433E-01 0.12499892E+03</pdfrwt>
<totfact> 0.85336488E+03</totfact>
</mgrwt>
</event>
<event>
 5    1  0.3196850E-002  0.1249858E+03  0.7818608E-02  0.1235091E+00
          4   -1    0    0  501    0  0.00000000000E+00  0.00000000000E+00  0.10931460683E+04  0.10931468060E+04  0.12700000000E+01 0. -1.
         -4   -1    0    0    0  501 -0.00000000000E+00 -0.00000000000E+00 -0.34589622742E+01  0.36847415126E+01  0.12700000000E+01 0. -1.
         25    2    1    2    0    0  0.00000000000E+00  0.00000000000E+00  0.10896871060E+04  0.10968315475E+04  0.12498581780E+03 0.  0.
    9000005    1    3    3    0    0  0.57517952243E+02  0.20773088733E+02  0.43227979054E+03  0.43658521889E+03  0.10000000000E+01 0.  0.
    9000005    1    3    3    0    0 -0.57517952243E+02 -0.20773088733E+02  0.65740731547E+03  0.66024632864E+03  0.10000000000E+01 0.  0.
<mgrwt>
<rscale>  0 0.12498582E+03</rscale>
<asrwt>0</asrwt>
<pdfrwt beam="1">  1        4 0.16819383E+00 0.12498582E+03</pdfrwt>
<pdfrwt beam="2">  1       -4 0.54957214E-03 0.12498582E+03</pdfrwt>
<totfact> 0.27584819E+03</totfact>
</mgrwt>
</event>
<event>
 5    1  0.3196850E-002  0.1250014E+03  0.7818608E-02  0.1235067E+00
          4   -1    0    0  501    0  0.00000000000E+00  0.00000000000E+00  0.48001382781E+01  0.49653023563E+01  0.12700000000E+01 0.  1.
         -4   -1    0    0    0  501 -0.00000000000E+00 -0.00000000000E+00 -0.79986752504E+03  0.79986853327E+03  0.12700000000E+01 0.  1.
         25    2    1    2    0    0  0.00000000000E+00  0.00000000000E+00 -0.79506738676E+03  0.80483383563E+03  0.12500141389E+03 0.  0.
    9000005    1    3    3    0    0 -0.66572129155E+01  0.28047644833E+02 -0.40533936908E+02  0.49749260354E+02  0.10000000000E+01 0.  0.
    9000005    1    3    3    0    0  0.66572129155E+01 -0.28047644833E+02 -0.75453344986E+03  0.75508457527E+03  0.10000000000E+01 0.  0.
<mgrwt>
<rscale>  0 0.12500141E+03</rscale>
<asrwt>0</asrwt>
<pdfrwt beam="1">  1        4 0.75126593E-03 0.12500141E+03</pdfrwt>
<pdfrwt beam="2">  1       -4 0.12306922E+00 0.12500141E+03</pdfrwt>
<totfact> 0.38048692E+03</totfact>
</mgrwt>
</event>
<event>
 5    1  0.3196850E-002  0.1249967E+03  0.7818608E-02  0.1235074E+00
         -4   -1    0    0    0  501 -0.00000000000E+00  0.00000000000E+00  0.15778671378E+02  0.15829699000E+02  0.12700000000E+01 0. -1.
          4   -1    0    0  501    0  0.00000000000E+00 -0.00000000000E+00 -0.24709985547E+03  0.24710311911E+03  0.12700000000E+01 0. -1.
         25    2    1    2    0    0  0.00000000000E+00  0.00000000000E+00 -0.23132118409E+03  0.26293281811E+03  0.12499670647E+03 0.  0.
    9000005    1    3    3    0    0 -0.42519322395E+02 -0.45561552336E+02 -0.10595328870E+03  0.12292618604E+03  0.10000000000E+01 0.  0.
    9000005    1    3    3    0    0  0.42519322395E+02  0.45561552336E+02 -0.12536789540E+03  0.14000663207E+03  0.10000000000E+01 0.  0.
<mgrwt>
<rscale>  0 0.12499671E+03</rscale>
<asrwt>0</asrwt>
<pdfrwt beam="2">  1        4 0.38019536E-01 0.12499671E+03</pdfrwt>
<pdfrwt beam="1">  1       -4 0.24316643E-02 0.12499671E+03</pdfrwt>
<totfact> 0.80502137E+03</totfact>
</mgrwt>
</event>
<event>
 5    1  0.3196850E-002  0.1250010E+03  0.7818608E-02  0.1235068E+00
         -4   -1    0    0    0  501 -0.00000000000E+00  0.00000000000E+00  0.85711689306E+01  0.86647467844E+01  0.12700000000E+01 0. -1.
          4   -1    0    0  501    0  0.00000000000E+00 -0.00000000000E+00 -0.45318174889E+03  0.45318352842E+03  0.12700000000E+01 0. -1.
         25    2    1    2    0    0  0.00000000000E+00  0.00000000000E+00 -0.44461057996E+03  0.46184827520E+03  0.12500104597E+03 0.  0.
    9000005    1    3    3    0    0  0.14087666754E+02 -0.27817504861E+02 -0.22206422509E+02  0.38293617378E+02  0.10000000000E+01 0.  0.
    9000005    1    3    3    0    0 -0.14087666754E+02  0.27817504861E+02 -0.42240415745E+03  0.42355465783E+03  0.10000000000E+01 0.  0.
<mgrwt>
<rscale>  0 0.12500105E+03</rscale>
<asrwt>0</asrwt>
<pdfrwt beam="2">  1        4 0.69727586E-01 0.12500105E+03</pdfrwt>
<pdfrwt beam="1">  1       -4 0.13259769E-02 0.12500105E+03</pdfrwt>
<totfact> 0.58949599E+03</totfact>
</mgrwt>
</event>
<event>
 5    1  0.3196850E-002  0.1250178E+03  0.7818608E-02  0.1235041E+00
          4   -1    0    0  501    0  0.00000000000E+00  0.00000000000E+00  0.77470295561E+03  0.77470399659E+03  0.12700000000E+01 0.  1.
         -4   -1    0    0    0  501 -0.00000000000E+00 -0.00000000000E+00 -0.49626833408E+01  0.51226092903E+01  0.12700000000E+01 0.  1.
         25    2    1    2    0    0  0.00000000000E+00  0.00000000000E+00  0.76974027227E+03  0.77982660588E+03  0.12501779267E+03 0.  0.
    9000005    1    3    3    0    0 -0.71863047327E+01 -0.61273673447E+02  0.32241306740E+03  0.32826405844E+03  0.10000000000E+01 0.  0.
    9000005    1    3    3    0    0  0.71863047327E+01  0.61273673447E+02  0.44732720488E+03  0.45156254745E+03  0.10000000000E+01 0.  0.
<mgrwt>
<rscale>  0 0.12501779E+03</rscale>
<asrwt>0</asrwt>
<pdfrwt beam="1">  1        4 0.11919742E+00 0.12501779E+03</pdfrwt>
<pdfrwt beam="2">  1       -4 0.77587202E-03 0.12501779E+03</pdfrwt>
<totfact> 0.39166113E+03</totfact>
</mgrwt>
</event>
<event>
 5    1  0.3196850E-002  0.1250023E+03  0.7818608E-02  0.1235066E+00
         -4   -1    0    0    0  501 -0.00000000000E+00  0.00000000000E+00  0.18979899999E+02  0.19022342231E+02  0.12700000000E+01 0. -1.
          4   -1    0    0  501    0  0.00000000000E+00 -0.00000000000E+00 -0.20554325625E+03  0.20554717972E+03  0.12700000000E+01 0. -1.
         25    2    1    2    0    0  0.00000000000E+00  0.00000000000E+00 -0.18656335626E+03  0.22456952195E+03  0.12500233715E+03 0.  0.
    9000005    1    3    3    0    0  0.37056283707E+02 -0.41389000824E+02 -0.14470048085E+03  0.15500144099E+03  0.10000000000E+01 0.  0.
    9000005    1    3    3    0    0 -0.37056283707E+02  0.41389000824E+02 -0.41862875406E+02  0.69568080961E+02  0.10000000000E+01 0.  0.
<mgrwt>
<rscale>  0 0.12500234E+03</rscale>
<asrwt>0</asrwt>
<pdfrwt beam="2">  1        4 0.31625604E-01 0.12500234E+03</pdfrwt>
<pdfrwt beam="1">  1       -4 0.29235514E-02 0.12500234E+03</pdfrwt>
<totfact> 0.86145913E+03</totfact>
</mgrwt>
</event>
<event>
 5    1  0.3196850E-002  0.1249977E+03  0.7818608E-02  0.1235073E+00
         -4   -1    0    0    0  501 -0.00000000000E+00  0.00000000000E+00  0.57052262745E+02  0.57066396279E+02  0.12700000000E+01 0. -1.
          4   -1    0    0  501    0  0.00000000000E+00 -0.00000000000E+00 -0.68436915281E+02  0.68448698111E+02  0.12700000000E+01 0. -1.
         25    2    1    2    0    0  0.00000000000E+00  0.00000000000E+00 -0.11384652536E+02  0.12551509439E+03  0.12499771440E+03 0.  0.
    9000005    1    3    3    0    0  0.17315349536E+02 -0.59689855586E+02  0.84669073332E+00  0.62164435770E+02  0.10000000000E+01 0.  0.
    9000005    1    3    3    0    0 -0.17315349536E+02  0.59689855586E+02 -0.12231343269E+02  0.63350658620E+02  0.10000000000E+01 0.  0.
<mgrwt>
<rscale>  0 0.12499771E+03</rscale>
<asrwt>0</asrwt>
<pdfrwt beam="2">  1        4 0.10530750E-01 0.12499771E+03</pdfrwt>
<pdfrwt beam="1">  1       -4 0.87792647E-02 0.12499771E+03</pdfrwt>
<totfact> 0.10442159E+04</totfact>
</mgrwt>
</event>
<event>
 5    1  0.3196850E-002  0.1250070E+03  0.7818608E-02  0.1235058E+00
          4   -1    0    0  501    0  0.00000000000E+00  0.00000000000E+00  0.16162996346E+03  0.16163495287E+03  0.12700000000E+01 0. -1.
         -4   -1    0    0    0  501 -0.00000000000E+00 -0.00000000000E+00 -0.24148501408E+02  0.24181873795E+02  0.12700000000E+01 0. -1.
         25    2    1    2    0    0  0.00000000000E+00  0.00000000000E+00  0.13748146205E+03  0.18581682666E+03  0.12500696246E+03 0.  0.
    9000005    1    3    3    0    0 -0.19510733058E+02 -0.44717030015E+02  0.10685249355E+02  0.49954539650E+02  0.10000000000E+01 0.  0.
    9000005    1    3    3    0    0  0.19510733058E+02  0.44717030015E+02  0.12679621270E+03  0.13586228701E+03  0.10000000000E+01 0.  0.
<mgrwt>
<rscale>  0 0.12500696E+03</rscale>
<asrwt>0</asrwt>
<pdfrwt beam="1">  1        4 0.24869099E-01 0.12500696E+03</pdfrwt>
<pdfrwt beam="2">  1       -4 0.37181050E-02 0.12500696E+03</pdfrwt>
<totfact> 0.92565868E+03</totfact>
</mgrwt>
</event>
<event>
 5    1  0.3196850E-002  0.1250009E+03  0.7818608E-02  0.1235068E+00
          4   -1    0    0  501    0  0.00000000000E+00  0.00000000000E+00  0.11631388224E+02  0.11700516741E+02  0.12700000000E+01 0.  1.
         -4   -1    0    0    0  501 -0.00000000000E+00 -0.00000000000E+00 -0.33477652405E+03  0.33477893296E+03  0.12700000000E+01 0.  1.
         25    2    1    2    0    0  0.00000000000E+00  0.00000000000E+00 -0.32314513583E+03  0.34647944971E+03  0.12500092103E+03 0.  0.
    9000005    1    3    3    0    0 -0.61600732378E+02  0.95258319653E+01 -0.17394240001E+03  0.18477648721E+03  0.10000000000E+01 0.  0.
    9000005    1    3    3    0    0  0.61600732378E+02 -0.95258319653E+01 -0.14920273582E+03  0.16170296250E+03  0.10000000000E+01 0.  0.
<mgrwt>
<rscale>  0 0.12500092E+03</rscale>
<asrwt>0</asrwt>
<pdfrwt beam="1">  1        4 0.17949475E-02 0.12500092E+03</pdfrwt>
<pdfrwt beam="2">  1       -4 0.51509576E-01 0.12500092E+03</pdfrwt>
<totfact> 0.70112177E+03</totfact>
</mgrwt>
</event>
<event>
 5    1  0.3196850E-002  0.1249990E+03  0.7818608E-02  0.1235071E+00
         -4   -1    0    0    0  501 -0.00000000000E+00  0.00000000000E+00  0.14833756342E+02  0.14888022946E+02  0.12700000000E+01 0. -1.
          4   -1    0    0  501    0  0.00000000000E+00 -0.00000000000E+00 -0.26279429761E+03  0.26279736635E+03  0.12700000000E+01 0. -1.
         25    2    1    2    0    0  0.00000000000E+00  0.00000000000E+00 -0.24796054127E+03  0.27768538929E+03  0.12499898159E+03 0.  0.
    9000005    1    3    3    0    0  0.54677859738E+02  0.10963298572E+02 -0.18662991688E+03  0.19478600600E+03  0.10000000000E+01 0.  0.
    9000005    1    3    3    0    0 -0.54677859738E+02 -0.10963298572E+02 -0.61330624396E+02  0.82899383290E+02  0.10000000000E+01 0.  0.
<mgrwt>
<rscale>  0 0.12499898E+03</rscale>
<asrwt>0</asrwt>
<pdfrwt beam="2">  1        4 0.40434299E-01 0.12499898E+03</pdfrwt>
<pdfrwt beam="1">  1       -4 0.22865270E-02 0.12499898E+03</pdfrwt>
<totfact> 0.78487789E+03</totfact>
</mgrwt>
</event>
<event>
 5    1  0.3196850E-002  0.1250014E+03  0.7818608E-02  0.1235067E+00
          4   -1    0    0  501    0  0.00000000000E+00  0.00000000000E+00  0.59209942698E+02  0.59223561311E+02  0.12700000000E+01 0.  1.
         -4   -1    0    0    0  501 -0.00000000000E+00 -0.00000000000E+00 -0.65947018128E+02  0.65959245751E+02  0.12700000000E+01 0.  1.
         25    2    1    2    0    0  0.00000000000E+00  0.00000000000E+00 -0.67370754300E+01  0.12518280706E+03  0.12500138799E+03 0.  0.
    9000005    1    3    3    0    0  0.55962457734E+02 -0.20636575906E+02 -0.22041558861E+02  0.63596346261E+02  0.10000000000E+01 0.  0.
    9000005    1    3    3    0    0 -0.55962457734E+02  0.20636575906E+02  0.15304483431E+02  0.61586460800E+02  0.10000000000E+01 0.  0.
<mgrwt>
<rscale>  0 0.12500139E+03</rscale>
<asrwt>0</asrwt>
<pdfrwt beam="1">  1        4 0.91112102E-02 0.12500139E+03</pdfrwt>
<pdfrwt beam="2">  1       -4 0.10147683E-01 0.12500139E+03</pdfrwt>
<totfact> 0.10448566E+04</totfact>
</mgrwt>
</event>
<event>
 5    1  0.3196850E-002  0.1250004E+03  0.7818608E-02  0.1235069E+00
         -4   -1    0    0    0  501 -0.00000000000E+00  0.00000000000E+00  0.40461788179E+03  0.40461987490E+03  0.12700000000E+01 0. -1.
          4   -1    0    0  501    0  0.00000000000E+00 -0.00000000000E+00 -0.96104464576E+01  0.96939971691E+01  0.12700000000E+01 0. -1.
         25    2    1    2    0    0  0.00000000000E+00  0.00000000000E+00  0.39500743533E+03  0.41431387207E+03  0.12500044248E+03 0.  0.
    9000005    1    3    3    0    0  0.28471741647E+02 -0.52484442975E+02  0.25862193590E+03  0.26542713229E+03  0.10000000000E+01 0.  0.
    9000005    1    3    3    0    0 -0.28471741647E+02  0.52484442975E+02  0.13638549943E+03  0.14888673978E+03  0.10000000000E+01 0.  0.
<mgrwt>
<rscale>  0 0.12500044E+03</rscale>
<asrwt>0</asrwt>
<pdfrwt beam="2">  1        4 0.14851104E-02 0.12500044E+03</pdfrwt>
<pdfrwt beam="1">  1       -4 0.62255489E-01 0.12500044E+03</pdfrwt>
<totfact> 0.63183426E+03</totfact>
</mgrwt>
</event>
<event>
 5    1  0.3196850E-002  0.1249995E+03  0.7818608E-02  0.1235070E+00
          4   -1    0    0  501    0  0.00000000000E+00  0.00000000000E+00  0.13090567430E+03  0.13091183470E+03  0.12700000000E+01 0. -1.
         -4   -1    0    0    0  501 -0.00000000000E+00 -0.00000000000E+00 -0.29819594467E+02  0.29846626513E+02  0.12700000000E+01 0. -1.
         25    2    1    2    0    0  0.00000000000E+00  0.00000000000E+00  0.10108607983E+03  0.16075846121E+03  0.12499954926E+03 0.  0.
    9000005    1    3    3    0    0  0.44794729249E+02  0.42313468403E+02  0.37163903222E+02  0.71966332959E+02  0.10000000000E+01 0.  0.
    9000005    1    3    3    0    0 -0.44794729249E+02 -0.42313468403E+02  0.63922176611E+02  0.88792128252E+02  0.10000000000E+01 0.  0.
<mgrwt>
<rscale>  0 0.12499955E+03</rscale>
<asrwt>0</asrwt>
<pdfrwt beam="1">  1        4 0.20141888E-01 0.12499955E+03</pdfrwt>
<pdfrwt beam="2">  1       -4 0.45901832E-02 0.12499955E+03</pdfrwt>
<totfact> 0.97197743E+03</totfact>
</mgrwt>
</event>
<event>
 5    1  0.3196850E-002  0.1250014E+03  0.7818608E-02  0.1235067E+00
          4   -1    0    0  501    0  0.00000000000E+00  0.00000000000E+00  0.17455710459E+02  0.17501849263E+02  0.12700000000E+01 0. -1.
         -4   -1    0    0    0  501 -0.00000000000E+00 -0.00000000000E+00 -0.22344235632E+03  0.22344596550E+03  0.12700000000E+01 0. -1.
         25    2    1    2    0    0  0.00000000000E+00  0.00000000000E+00 -0.20598664586E+03  0.24094781476E+03  0.12500140466E+03 0.  0.
    9000005    1    3    3    0    0  0.48495457808E+02 -0.23319486502E+02 -0.16424397404E+03  0.17283718028E+03  0.10000000000E+01 0.  0.
    9000005    1    3    3    0    0 -0.48495457808E+02  0.23319486502E+02 -0.41742671817E+02  0.68110634478E+02  0.10000000000E+01 0.  0.
<mgrwt>
<rscale>  0 0.12500140E+03</rscale>
<asrwt>0</asrwt>
<pdfrwt beam="1">  1        4 0.26893208E-02 0.12500140E+03</pdfrwt>
<pdfrwt beam="2">  1       -4 0.34379572E-01 0.12500140E+03</pdfrwt>
<totfact> 0.83653791E+03</totfact>
</mgrwt>
</event>
<event>
 5    1  0.3196850E-002  0.1249993E+03  0.7818608E-02  0.1235070E+00
          4   -1    0    0  501    0  0.00000000000E+00  0.00000000000E+00  0.34456620453E+01  0.36722591044E+01  0.12700000000E+01 0.  1.
         -4   -1    0    0    0  501 -0.00000000000E+00 -0.00000000000E+00 -0.10973432781E+04  0.10973440130E+04  0.12700000000E+01 0.  1.
         25    2    1    2    0    0  0.00000000000E+00  0.00000000000E+00 -0.10938976160E+04  0.11010162721E+04  0.12499934821E+03 0.  0.
    9000005    1    3    3    0    0  0.15680857698E+00  0.61005227280E+02 -0.42761608845E+03  0.43194696601E+03  0.10000000000E+01 0.  0.
    9000005    1    3    3    0    0 -0.15680857698E+00 -0.61005227280E+02 -0.66628152758E+03  0.66906930608E+03  0.10000000000E+01 0.  0.
<mgrwt>
<rscale>  0 0.12499935E+03</rscale>
<asrwt>0</asrwt>
<pdfrwt beam="1">  1        4 0.54758980E-03 0.12499935E+03</pdfrwt>
<pdfrwt beam="2">  1       -4 0.16883926E+00 0.12499935E+03</pdfrwt>
<totfact> 0.27454106E+03</totfact>
</mgrwt>
</event>
<event>
 5    1  0.3196850E-002  0.1250000E+03  0.7818608E-02  0.1235069E+00
          4   -1    0    0  501    0  0.00000000000E+00  0.00000000000E+00  0.16254838944E+03  0.16255335066E+03  0.12700000000E+01 0.  1.
         -4   -1    0    0    0  501 -0.00000000000E+00 -0.00000000000E+00 -0.24009185173E+02  0.24042750938E+02  0.12700000000E+01 0.  1.
         25    2    1    2    0    0  0.00000000000E+00  0.00000000000E+00  0.13853920427E+03  0.18659610160E+03  0.12499997605E+03 0.  0.
    9000005    1    3    3    0    0  0.48197940270E+02 -0.37849830971E+02  0.51011543831E+02  0.79742264545E+02  0.10000000000E+01 0.  0.
    9000005    1    3    3    0    0 -0.48197940270E+02  0.37849830971E+02  0.87527660440E+02  0.10685383705E+03  0.10000000000E+01 0.  0.
<mgrwt>
<rscale>  0 0.12499998E+03</rscale>
<asrwt>0</asrwt>
<pdfrwt beam="1">  1        4 0.25010408E-01 0.12499998E+03</pdfrwt>
<pdfrwt beam="2">  1       -4 0.36966844E-02 0.12499998E+03</pdfrwt>
<totfact> 0.92443027E+03</totfact>
</mgrwt>
</event>
<event>
 5    1  0.3196850E-002  0.1250341E+03  0.7818608E-02  0.1235016E+00
          4   -1    0    0  501    0  0.00000000000E+00  0.00000000000E+00  0.40881906381E+02  0.40901627955E+02  0.12700000000E+01 0. -1.
         -4   -1    0    0    0  501 -0.00000000000E+00 -0.00000000000E+00 -0.95554769196E+02  0.95563208486E+02  0.12700000000E+01 0. -1.
         25    2    1    2    0    0  0.00000000000E+00  0.00000000000E+00 -0.54672862815E+02  0.13646483644E+03  0.12503411397E+03 0.  0.
    9000005    1    3    3    0    0  0.29047699762E+02  0.98079591069E+01  0.32117635045E+02  0.44412919339E+02  0.10000000000E+01 0.  0.
    9000005    1    3    3    0    0 -0.29047699762E+02 -0.98079591069E+01 -0.86790497860E+02  0.92051917102E+02  0.10000000000E+01 0.  0.
<mgrwt>
<rscale>  0 0.12503411E+03</rscale>
<asrwt>0</asrwt>
<pdfrwt beam="1">  1        4 0.62916903E-02 0.12503411E+03</pdfrwt>
<pdfrwt beam="2">  1       -4 0.14702900E-01 0.12503411E+03</pdfrwt>
<totfact> 0.10199440E+04</totfact>
</mgrwt>
</event>
<event>
 5    1  0.3196850E-002  0.1250007E+03  0.7818608E-02  0.1235068E+00
         -4   -1    0    0    0  501 -0.00000000000E+00  0.00000000000E+00  0.54214397694E+02  0.54229270853E+02  0.12700000000E+01 0. -1.
          4   -1    0    0  501    0  0.00000000000E+00 -0.00000000000E+00 -0.72022394149E+02  0.72033590491E+02  0.12700000000E+01 0. -1.
         25    2    1    2    0    0  0.00000000000E+00  0.00000000000E+00 -0.17807996456E+02  0.12626286134E+03  0.12500074167E+03 0.  0.
    9000005    1    3    3    0    0 -0.15647614244E+01 -0.18707282460E+02 -0.69111920521E+02  0.71623099999E+02  0.10000000000E+01 0.  0.
    9000005    1    3    3    0    0  0.15647614244E+01  0.18707282460E+02  0.51303924066E+02  0.54639761345E+02  0.10000000000E+01 0.  0.
<mgrwt>
<rscale>  0 0.12500074E+03</rscale>
<asrwt>0</asrwt>
<pdfrwt beam="2">  1        4 0.11082374E-01 0.12500074E+03</pdfrwt>
<pdfrwt beam="1">  1       -4 0.83426819E-02 0.12500074E+03</pdfrwt>
<totfact> 0.10425030E+04</totfact>
</mgrwt>
</event>
<event>
 5    1  0.3196850E-002  0.1249951E+03  0.7818608E-02  0.1235077E+00
         -4   -1    0    0    0  501 -0.00000000000E+00  0.00000000000E+00  0.22215737031E+03  0.22216100036E+03  0.12700000000E+01 0.  1.
          4   -1    0    0  501    0  0.00000000000E+00 -0.00000000000E+00 -0.17555170328E+02  0.17601048413E+02  0.12700000000E+01 0.  1.
         25    2    1    2    0    0  0.00000000000E+00  0.00000000000E+00  0.20460219998E+03  0.23976204877E+03  0.12499511909E+03 0.  0.
    9000005    1    3    3    0    0 -0.42422299061E+02  0.23283394468E+02  0.17813990290E+03  0.18459846403E+03  0.10000000000E+01 0.  0.
    9000005    1    3    3    0    0  0.42422299061E+02 -0.23283394468E+02  0.26462297079E+02  0.55163584748E+02  0.10000000000E+01 0.  0.
<mgrwt>
<rscale>  0 0.12499512E+03</rscale>
<asrwt>0</asrwt>
<pdfrwt beam="2">  1        4 0.27046038E-02 0.12499512E+03</pdfrwt>
<pdfrwt beam="1">  1       -4 0.34181865E-01 0.12499512E+03</pdfrwt>
<totfact> 0.83841941E+03</totfact>
</mgrwt>
</event>
<event>
 5    1  0.3196850E-002  0.1249998E+03  0.7818608E-02  0.1235070E+00
         -4   -1    0    0    0  501 -0.00000000000E+00  0.00000000000E+00  0.17384244196E+03  0.17384708087E+03  0.12700000000E+01 0. -1.
          4   -1    0    0  501    0  0.00000000000E+00 -0.00000000000E+00 -0.22447099219E+02  0.22482997205E+02  0.12700000000E+01 0. -1.
         25    2    1    2    0    0  0.00000000000E+00  0.00000000000E+00  0.15139534274E+03  0.19633007808E+03  0.12499979901E+03 0.  0.
    9000005    1    3    3    0    0  0.18482440307E+02  0.38296770782E+02  0.37732895653E+01  0.42702236079E+02  0.10000000000E+01 0.  0.
    9000005    1    3    3    0    0 -0.18482440307E+02 -0.38296770782E+02  0.14762205318E+03  0.15362784200E+03  0.10000000000E+01 0.  0.
<mgrwt>
<rscale>  0 0.12499980E+03</rscale>
<asrwt>0</asrwt>
<pdfrwt beam="2">  1        4 0.34565181E-02 0.12499980E+03</pdfrwt>
<pdfrwt beam="1">  1       -4 0.26748109E-01 0.12499980E+03</pdfrwt>
<totfact> 0.90757826E+03</totfact>
</mgrwt>
</event>
<event>
 5    1  0.3196850E-002  0.1249987E+03  0.7818608E-02  0.1235071E+00
         -4   -1    0    0    0  501 -0.00000000000E+00  0.00000000000E+00  0.27136328788E+02  0.27166030997E+02  0.12700000000E+01 0. -1.
          4   -1    0    0  501    0  0.00000000000E+00 -0.00000000000E+00 -0.14383489101E+03  0.14384049767E+03  0.12700000000E+01 0. -1.
         25    2    1    2    0    0  0.00000000000E+00  0.00000000000E+00 -0.11669856222E+03  0.17100652867E+03  0.12499871369E+03 0.  0.
    9000005    1    3    3    0    0 -0.60956906922E+02  0.70293078465E+01 -0.74537265577E+02  0.96550295856E+02  0.10000000000E+01 0.  0.
    9000005    1    3    3    0    0  0.60956906922E+02 -0.70293078465E+01 -0.42161296640E+02  0.74456232813E+02  0.10000000000E+01 0.  0.
<mgrwt>
<rscale>  0 0.12499871E+03</rscale>
<asrwt>0</asrwt>
<pdfrwt beam="2">  1        4 0.22131160E-01 0.12499871E+03</pdfrwt>
<pdfrwt beam="1">  1       -4 0.41775360E-02 0.12499871E+03</pdfrwt>
<totfact> 0.95264116E+03</totfact>
</mgrwt>
</event>
<event>
 5    1  0.3196850E-002  0.1249893E+03  0.7818608E-02  0.1235086E+00
         -4   -1    0    0    0  501 -0.00000000000E+00  0.00000000000E+00  0.16500669793E+02  0.16549471400E+02  0.12700000000E+01 0.  1.
          4   -1    0    0  501    0  0.00000000000E+00 -0.00000000000E+00 -0.23629227623E+03  0.23629568914E+03  0.12700000000E+01 0.  1.
         25    2    1    2    0    0  0.00000000000E+00  0.00000000000E+00 -0.21979160644E+03  0.25284516054E+03  0.12498929933E+03 0.  0.
    9000005    1    3    3    0    0  0.45403632043E+02  0.40698788506E+02 -0.13753682082E+03  0.15045018535E+03  0.10000000000E+01 0.  0.
    9000005    1    3    3    0    0 -0.45403632043E+02 -0.40698788506E+02 -0.82254785619E+02  0.10239497520E+03  0.10000000000E+01 0.  0.
<mgrwt>
<rscale>  0 0.12498930E+03</rscale>
<asrwt>0</asrwt>
<pdfrwt beam="2">  1        4 0.36356672E-01 0.12498930E+03</pdfrwt>
<pdfrwt beam="1">  1       -4 0.25425813E-02 0.12498930E+03</pdfrwt>
<totfact> 0.81940273E+03</totfact>
</mgrwt>
</event>
<event>
 5    1  0.3196850E-002  0.1250007E+03  0.7818608E-02  0.1235068E+00
          4   -1    0    0  501    0  0.00000000000E+00  0.00000000000E+00  0.25749376370E+03  0.25749689560E+03  0.12700000000E+01 0. -1.
         -4   -1    0    0    0  501 -0.00000000000E+00 -0.00000000000E+00 -0.15140622514E+02  0.15193793144E+02  0.12700000000E+01 0. -1.
         25    2    1    2    0    0  0.00000000000E+00  0.00000000000E+00  0.24235314118E+03  0.27269068874E+03  0.12500066674E+03 0.  0.
    9000005    1    3    3    0    0  0.38420802921E+02  0.43342610642E+02  0.69989883230E+02  0.90853308959E+02  0.10000000000E+01 0.  0.
    9000005    1    3    3    0    0 -0.38420802921E+02 -0.43342610642E+02  0.17236325795E+03  0.18183737978E+03  0.10000000000E+01 0.  0.
<mgrwt>
<rscale>  0 0.12500067E+03</rscale>
<asrwt>0</asrwt>
<pdfrwt beam="1">  1        4 0.39618756E-01 0.12500067E+03</pdfrwt>
<pdfrwt beam="2">  1       -4 0.23336575E-02 0.12500067E+03</pdfrwt>
<totfact> 0.79156182E+03</totfact>
</mgrwt>
</event>
<event>
 5    1  0.3196850E-002  0.1249979E+03  0.7818608E-02  0.1235073E+00
         -4   -1    0    0    0  501 -0.00000000000E+00  0.00000000000E+00  0.60300894925E+02  0.60314267207E+02  0.12700000000E+01 0.  1.
          4   -1    0    0  501    0  0.00000000000E+00 -0.00000000000E+00 -0.64750367213E+02  0.64762820771E+02  0.12700000000E+01 0.  1.
         25    2    1    2    0    0  0.00000000000E+00  0.00000000000E+00 -0.44494722886E+01  0.12507708798E+03  0.12499792052E+03 0.  0.
    9000005    1    3    3    0    0  0.31401347845E+02 -0.21524157545E+02  0.47362538022E+02  0.60774534242E+02  0.10000000000E+01 0.  0.
    9000005    1    3    3    0    0 -0.31401347845E+02  0.21524157545E+02 -0.51812010311E+02  0.64302553736E+02  0.10000000000E+01 0.  0.
<mgrwt>
<rscale>  0 0.12499792E+03</rscale>
<asrwt>0</asrwt>
<pdfrwt beam="2">  1        4 0.99635816E-02 0.12499792E+03</pdfrwt>
<pdfrwt beam="1">  1       -4 0.92790474E-02 0.12499792E+03</pdfrwt>
<totfact> 0.10451680E+04</totfact>
</mgrwt>
</event>
<event>
 5    1  0.3196850E-002  0.1250009E+03  0.7818608E-02  0.1235068E+00
          4   -1    0    0  501    0  0.00000000000E+00  0.00000000000E+00  0.71026456710E+01  0.72152945558E+01  0.12700000000E+01 0. -1.
         -4   -1    0    0    0  501 -0.00000000000E+00 -0.00000000000E+00 -0.54553874523E+03  0.54554022350E+03  0.12700000000E+01 0. -1.
         25    2    1    2    0    0  0.00000000000E+00  0.00000000000E+00 -0.53843609956E+03  0.55275551805E+03  0.12500091769E+03 0.  0.
    9000005    1    3    3    0    0 -0.53825164927E+02  0.17395772813E+02 -0.15176005773E+03  0.16196257720E+03  0.10000000000E+01 0.  0.
    9000005    1    3    3    0    0  0.53825164927E+02 -0.17395772813E+02 -0.38667604184E+03  0.39079294085E+03  0.10000000000E+01 0.  0.
<mgrwt>
<rscale>  0 0.12500092E+03</rscale>
<asrwt>0</asrwt>
<pdfrwt beam="1">  1        4 0.11014942E-02 0.12500092E+03</pdfrwt>
<pdfrwt beam="2">  1       -4 0.83937784E-01 0.12500092E+03</pdfrwt>
<totfact> 0.51991373E+03</totfact>
</mgrwt>
</event>
<event>
 5    1  0.3196850E-002  0.1250009E+03  0.7818608E-02  0.1235068E+00
         -4   -1    0    0    0  501 -0.00000000000E+00  0.00000000000E+00  0.68094289216E+02  0.68106131324E+02  0.12700000000E+01 0.  1.
          4   -1    0    0  501    0  0.00000000000E+00 -0.00000000000E+00 -0.57342280519E+02  0.57356342589E+02  0.12700000000E+01 0.  1.
         25    2    1    2    0    0  0.00000000000E+00  0.00000000000E+00  0.10752008697E+02  0.12546247391E+03  0.12500090667E+03 0.  0.
    9000005    1    3    3    0    0 -0.36037648927E+02  0.40986705086E+02 -0.25177894817E+02  0.60112798316E+02  0.10000000000E+01 0.  0.
    9000005    1    3    3    0    0  0.36037648927E+02 -0.40986705086E+02  0.35929903514E+02  0.65349675596E+02  0.10000000000E+01 0.  0.
<mgrwt>
<rscale>  0 0.12500091E+03</rscale>
<asrwt>0</asrwt>
<pdfrwt beam="2">  1        4 0.88238820E-02 0.12500091E+03</pdfrwt>
<pdfrwt beam="1">  1       -4 0.10478037E-01 0.12500091E+03</pdfrwt>
<totfact> 0.10442570E+04</totfact>
</mgrwt>
</event>
<event>
 5    1  0.3196850E-002  0.1249983E+03  0.7818608E-02  0.1235072E+00
          4   -1    0    0  501    0  0.00000000000E+00  0.00000000000E+00  0.48432967184E+02  0.48449615172E+02  0.12700000000E+01 0.  1.
         -4   -1    0    0    0  501 -0.00000000000E+00 -0.00000000000E+00 -0.80614952584E+02  0.80624955690E+02  0.12700000000E+01 0.  1.
         25    2    1    2    0    0  0.00000000000E+00  0.00000000000E+00 -0.32181985399E+02  0.12907457086E+03  0.12499825862E+03 0.  0.
    9000005    1    3    3    0    0 -0.34928375040E+02  0.49831185199E+02 -0.14147331928E+01  0.60878073814E+02  0.10000000000E+01 0.  0.
    9000005    1    3    3    0    0  0.34928375040E+02 -0.49831185199E+02 -0.30767252206E+02  0.68196497048E+02  0.10000000000E+01 0.  0.
<mgrwt>
<rscale>  0 0.12499826E+03</rscale>
<asrwt>0</asrwt>
<pdfrwt beam="1">  1        4 0.74532758E-02 0.12499826E+03</pdfrwt>
<pdfrwt beam="2">  1       -4 0.12404350E-01 0.12499826E+03</pdfrwt>
<totfact> 0.10364752E+04</totfact>
</mgrwt>
</event>
<event>
 5    1  0.3196850E-002  0.1250004E+03  0.7818608E-02  0.1235069E+00
          4   -1    0    0  501    0  0.00000000000E+00  0.00000000000E+00  0.16502787221E+02  0.16551582585E+02  0.12700000000E+01 0. -1.
         -4   -1    0    0    0  501 -0.00000000000E+00 -0.00000000000E+00 -0.23630402076E+03  0.23630743350E+03  0.12700000000E+01 0. -1.
         25    2    1    2    0    0  0.00000000000E+00  0.00000000000E+00 -0.21980123354E+03  0.25285901608E+03  0.12500039900E+03 0.  0.
    9000005    1    3    3    0    0  0.47663669965E+02 -0.15172354541E+02 -0.18567709897E+03  0.19229927420E+03  0.10000000000E+01 0.  0.
    9000005    1    3    3    0    0 -0.47663669965E+02  0.15172354541E+02 -0.34124134572E+02  0.60559741885E+02  0.10000000000E+01 0.  0.
<mgrwt>
<rscale>  0 0.12500040E+03</rscale>
<asrwt>0</asrwt>
<pdfrwt beam="1">  1        4 0.25429065E-02 0.12500040E+03</pdfrwt>
<pdfrwt beam="2">  1       -4 0.36358478E-01 0.12500040E+03</pdfrwt>
<totfact> 0.81918032E+03</totfact>
</mgrwt>
</event>
<event>
 5    1  0.3196850E-002  0.1249960E+03  0.7818608E-02  0.1235076E+00
         -4   -1    0    0    0  501 -0.00000000000E+00  0.00000000000E+00  0.27323703827E+03  0.27323998973E+03  0.12700000000E+01 0. -1.
          4   -1    0    0  501    0  0.00000000000E+00 -0.00000000000E+00 -0.14264037560E+02  0.14320463244E+02  0.12700000000E+01 0. -1.
         25    2    1    2    0    0  0.00000000000E+00  0.00000000000E+00  0.25897300071E+03  0.28756045297E+03  0.12499599599E+03 0.  0.
    9000005    1    3    3    0    0  0.51353145850E+01 -0.54572159683E+02  0.60450317673E+02  0.81607187031E+02  0.10000000000E+01 0.  0.
    9000005    1    3    3    0    0 -0.51353145850E+01  0.54572159683E+02  0.19852268304E+03  0.20595326594E+03  0.10000000000E+01 0.  0.
<mgrwt>
<rscale>  0 0.12499600E+03</rscale>
<asrwt>0</asrwt>
<pdfrwt beam="2">  1        4 0.21990350E-02 0.12499600E+03</pdfrwt>
<pdfrwt beam="1">  1       -4 0.42041030E-01 0.12499600E+03</pdfrwt>
<totfact> 0.77193075E+03</totfact>
</mgrwt>
</event>
<event>
 5    1  0.3196850E-002  0.1249988E+03  0.7818608E-02  0.1235071E+00
          4   -1    0    0  501    0  0.00000000000E+00  0.00000000000E+00  0.31475934432E+03  0.31476190643E+03  0.12700000000E+01 0.  1.
         -4   -1    0    0    0  501 -0.00000000000E+00 -0.00000000000E+00 -0.12374927735E+02  0.12439925098E+02  0.12700000000E+01 0.  1.
         25    2    1    2    0    0  0.00000000000E+00  0.00000000000E+00  0.30238441659E+03  0.32720183153E+03  0.12499881263E+03 0.  0.
    9000005    1    3    3    0    0 -0.56930161227E+02 -0.19718688614E+02  0.19462498145E+03  0.20373942511E+03  0.10000000000E+01 0.  0.
    9000005    1    3    3    0    0  0.56930161227E+02  0.19718688614E+02  0.10775943514E+03  0.12346240642E+03  0.10000000000E+01 0.  0.
<mgrwt>
<rscale>  0 0.12499881E+03</rscale>
<asrwt>0</asrwt>
<pdfrwt beam="1">  1        4 0.48429706E-01 0.12499881E+03</pdfrwt>
<pdfrwt beam="2">  1       -4 0.19090321E-02 0.12499881E+03</pdfrwt>
<totfact> 0.72309577E+03</totfact>
</mgrwt>
</event>
<event>
 5    1  0.3196850E-002  0.1250026E+03  0.7818608E-02  0.1235065E+00
          4   -1    0    0  501    0  0.00000000000E+00  0.00000000000E+00  0.16684747889E+03  0.16685231227E+03  0.12700000000E+01 0. -1.
         -4   -1    0    0    0  501 -0.00000000000E+00 -0.00000000000E+00 -0.23390693691E+02  0.23425145706E+02  0.12700000000E+01 0. -1.
         25    2    1    2    0    0  0.00000000000E+00  0.00000000000E+00  0.14345678519E+03  0.19027745798E+03  0.12500264716E+03 0.  0.
    9000005    1    3    3    0    0 -0.10569937702E+00 -0.59106074208E+02  0.40836002135E+02  0.71847882717E+02  0.10000000000E+01 0.  0.
    9000005    1    3    3    0    0  0.10569937702E+00  0.59106074208E+02  0.10262078306E+03  0.11842957526E+03  0.10000000000E+01 0.  0.
<mgrwt>
<rscale>  0 0.12500265E+03</rscale>
<asrwt>0</asrwt>
<pdfrwt beam="1">  1        4 0.25671864E-01 0.12500265E+03</pdfrwt>
<pdfrwt beam="2">  1       -4 0.36015904E-02 0.12500265E+03</pdfrwt>
<totfact> 0.91793618E+03</totfact>
</mgrwt>
</event>
<event>
 5    1  0.3196850E-002  0.1249990E+03  0.7818608E-02  0.1235071E+00
         -4   -1    0    0    0  501 -0.00000000000E+00  0.00000000000E+00  0.45738000034E+03  0.45738176353E+03  0.12700000000E+01 0.  1.
          4   -1    0    0  501    0  0.00000000000E+00 -0.00000000000E+00 -0.84913564052E+01  0.85858041907E+01  0.12700000000E+01 0.  1.
         25    2    1    2    0    0  0.00000000000E+00  0.00000000000E+00  0.44888864394E+03  0.46596756773E+03  0.12499903806E+03 0.  0.
    9000005    1    3    3    0    0 -0.48475145432E+02 -0.58274034976E+00  0.37144376577E+03  0.37459531556E+03  0.10000000000E+01 0.  0.
    9000005    1    3    3    0    0  0.48475145432E+02  0.58274034976E+00  0.77444878165E+02  0.91372252161E+02  0.10000000000E+01 0.  0.
<mgrwt>
<rscale>  0 0.12499904E+03</rscale>
<asrwt>0</asrwt>
<pdfrwt beam="2">  1        4 0.13137627E-02 0.12499904E+03</pdfrwt>
<pdfrwt beam="1">  1       -4 0.70373591E-01 0.12499904E+03</pdfrwt>
<totfact> 0.58606280E+03</totfact>
</mgrwt>
</event>
<event>
 5    1  0.3196850E-002  0.1249997E+03  0.7818608E-02  0.1235070E+00
          4   -1    0    0  501    0  0.00000000000E+00  0.00000000000E+00  0.63214461371E+02  0.63227217450E+02  0.12700000000E+01 0. -1.
         -4   -1    0    0    0  501 -0.00000000000E+00 -0.00000000000E+00 -0.61767803000E+02  0.61780857775E+02  0.12700000000E+01 0. -1.
         25    2    1    2    0    0  0.00000000000E+00  0.00000000000E+00  0.14466583714E+01  0.12500807522E+03  0.12499970420E+03 0.  0.
    9000005    1    3    3    0    0 -0.31886971084E+02  0.53594564051E+02  0.47329981476E+01  0.62550439584E+02  0.10000000000E+01 0.  0.
    9000005    1    3    3    0    0  0.31886971084E+02 -0.53594564051E+02 -0.32863397761E+01  0.62457635641E+02  0.10000000000E+01 0.  0.
<mgrwt>
<rscale>  0 0.12499970E+03</rscale>
<asrwt>0</asrwt>
<pdfrwt beam="1">  1        4 0.97272873E-02 0.12499970E+03</pdfrwt>
<pdfrwt beam="2">  1       -4 0.95047243E-02 0.12499970E+03</pdfrwt>
<totfact> 0.10452757E+04</totfact>
</mgrwt>
</event>
<event>
 5    1  0.3196850E-002  0.1250025E+03  0.7818608E-02  0.1235065E+00
          4   -1    0    0  501    0  0.00000000000E+00  0.00000000000E+00  0.75613190540E+02  0.75623855255E+02  0.12700000000E+01 0. -1.
         -4   -1    0    0    0  501 -0.00000000000E+00 -0.00000000000E+00 -0.51640888937E+02  0.51656503077E+02  0.12700000000E+01 0. -1.
         25    2    1    2    0    0  0.00000000000E+00  0.00000000000E+00  0.23972301603E+02  0.12728035833E+03  0.12500247347E+03 0.  0.
    9000005    1    3    3    0    0 -0.31292101948E+02 -0.41696652247E+01 -0.42930168129E+02  0.53297102060E+02  0.10000000000E+01 0.  0.
    9000005    1    3    3    0    0  0.31292101948E+02  0.41696652247E+01  0.66902469733E+02  0.73983256273E+02  0.10000000000E+01 0.  0.
<mgrwt>
<rscale>  0 0.12500247E+03</rscale>
<asrwt>0</asrwt>
<pdfrwt beam="1">  1        4 0.11634820E-01 0.12500247E+03</pdfrwt>
<pdfrwt beam="2">  1       -4 0.79467736E-02 0.12500247E+03</pdfrwt>
<totfact> 0.10402480E+04</totfact>
</mgrwt>
</event>
<event>
 5    1  0.3196850E-002  0.1249961E+03  0.7818608E-02  0.1235075E+00
          4   -1    0    0  501    0  0.00000000000E+00  0.00000000000E+00  0.67769408402E+02  0.67781307269E+02  0.12700000000E+01 0.  1.
         -4   -1    0    0    0  501 -0.00000000000E+00 -0.00000000000E+00 -0.57612793235E+02  0.57626789294E+02  0.12700000000E+01 0.  1.
         25    2    1    2    0    0  0.00000000000E+00  0.00000000000E+00  0.10156615167E+02  0.12540809656E+03  0.12499613535E+03 0.  0.
    9000005    1    3    3    0    0 -0.31228285581E+02  0.49637197493E+02  0.26735354602E+02  0.64458020300E+02  0.10000000000E+01 0.  0.
    9000005    1    3    3    0    0  0.31228285581E+02 -0.49637197493E+02 -0.16578739435E+02  0.60950076264E+02  0.10000000000E+01 0.  0.
<mgrwt>
<rscale>  0 0.12499614E+03</rscale>
<asrwt>0</asrwt>
<pdfrwt beam="1">  1        4 0.10428055E-01 0.12499614E+03</pdfrwt>
<pdfrwt beam="2">  1       -4 0.88654985E-02 0.12499614E+03</pdfrwt>
<totfact> 0.10444898E+04</totfact>
</mgrwt>
</event>
<event>
 5    1  0.3196850E-002  0.1250018E+03  0.7818608E-02  0.1235066E+00
          4   -1    0    0  501    0  0.00000000000E+00  0.00000000000E+00  0.28337005481E+02  0.28365450457E+02  0.12700000000E+01 0.  1.
         -4   -1    0    0    0  501 -0.00000000000E+00 -0.00000000000E+00 -0.13775328535E+03  0.13775913953E+03  0.12700000000E+01 0.  1.
         25    2    1    2    0    0  0.00000000000E+00  0.00000000000E+00 -0.10941627987E+03  0.16612458999E+03  0.12500182838E+03 0.  0.
    9000005    1    3    3    0    0 -0.24513524348E+02 -0.46677890785E+02 -0.99295791376E+02  0.11242950035E+03  0.10000000000E+01 0.  0.
    9000005    1    3    3    0    0  0.24513524348E+02  0.46677890785E+02 -0.10120488494E+02  0.53695089640E+02  0.10000000000E+01 0.  0.
<mgrwt>
<rscale>  0 0.12500183E+03</rscale>
<asrwt>0</asrwt>
<pdfrwt beam="1">  1        4 0.43621778E-02 0.12500183E+03</pdfrwt>
<pdfrwt beam="2">  1       -4 0.21195451E-01 0.12500183E+03</pdfrwt>
<totfact> 0.96170886E+03</totfact>
</mgrwt>
</event>
<event>
 5    1  0.3196850E-002  0.1250006E+03  0.7818608E-02  0.1235068E+00
          4   -1    0    0  501    0  0.00000000000E+00  0.00000000000E+00  0.17009525027E+02  0.17056870805E+02  0.12700000000E+01 0. -1.
         -4   -1    0    0    0  501 -0.00000000000E+00 -0.00000000000E+00 -0.22928471077E+03  0.22928822799E+03  0.12700000000E+01 0. -1.
         25    2    1    2    0    0  0.00000000000E+00  0.00000000000E+00 -0.21227518575E+03  0.24634509879E+03  0.12500061286E+03 0.  0.
    9000005    1    3    3    0    0 -0.53582806926E+01 -0.74889375097E+00 -0.22883194751E+03  0.22889808260E+03  0.10000000000E+01 0.  0.
    9000005    1    3    3    0    0  0.53582806926E+01  0.74889375097E+00  0.16556761769E+02  0.17447016195E+02  0.10000000000E+01 0.  0.
<mgrwt>
<rscale>  0 0.12500061E+03</rscale>
<asrwt>0</asrwt>
<pdfrwt beam="1">  1        4 0.26207627E-02 0.12500061E+03</pdfrwt>
<pdfrwt beam="2">  1       -4 0.35278481E-01 0.12500061E+03</pdfrwt>
<totfact> 0.82860230E+03</totfact>
</mgrwt>
</event>
<event>
 5    1  0.3196850E-002  0.1250003E+03  0.7818608E-02  0.1235069E+00
         -4   -1    0    0    0  501 -0.00000000000E+00  0.00000000000E+00  0.16022445485E+02  0.16072699192E+02  0.12700000000E+01 0. -1.
          4   -1    0    0  501    0  0.00000000000E+00 -0.00000000000E+00 -0.24336600896E+03  0.24336932267E+03  0.12700000000E+01 0. -1.
         25    2    1    2    0    0  0.00000000000E+00  0.00000000000E+00 -0.22734356348E+03  0.25944202186E+03  0.12500026742E+03 0.  0.
    9000005    1    3    3    0    0  0.59245880674E+02  0.42909053543E+01 -0.73383980230E+02  0.94417661483E+02  0.10000000000E+01 0.  0.
    9000005    1    3    3    0    0 -0.59245880674E+02 -0.42909053543E+01 -0.15395958325E+03  0.16502436038E+03  0.10000000000E+01 0.  0.
<mgrwt>
<rscale>  0 0.12500027E+03</rscale>
<asrwt>0</asrwt>
<pdfrwt beam="2">  1        4 0.37445042E-01 0.12500027E+03</pdfrwt>
<pdfrwt beam="1">  1       -4 0.24691124E-02 0.12500027E+03</pdfrwt>
<totfact> 0.80983948E+03</totfact>
</mgrwt>
</event>
<event>
 5    1  0.3196850E-002  0.1249996E+03  0.7818608E-02  0.1235070E+00
          4   -1    0    0  501    0  0.00000000000E+00  0.00000000000E+00  0.36219493382E+03  0.36219716038E+03  0.12700000000E+01 0. -1.
         -4   -1    0    0    0  501 -0.00000000000E+00 -0.00000000000E+00 -0.10745205361E+02  0.10819997146E+02  0.12700000000E+01 0. -1.
         25    2    1    2    0    0  0.00000000000E+00  0.00000000000E+00  0.35144972846E+03  0.37301715752E+03  0.12499955269E+03 0.  0.
    9000005    1    3    3    0    0  0.89690997423E+01 -0.28481792311E+02  0.11907242498E+02  0.32162706157E+02  0.10000000000E+01 0.  0.
    9000005    1    3    3    0    0 -0.89690997423E+01  0.28481792311E+02  0.33954248596E+03  0.34085445137E+03  0.10000000000E+01 0.  0.
<mgrwt>
<rscale>  0 0.12499955E+03</rscale>
<asrwt>0</asrwt>
<pdfrwt beam="1">  1        4 0.55728208E-01 0.12499955E+03</pdfrwt>
<pdfrwt beam="2">  1       -4 0.16590334E-02 0.12499955E+03</pdfrwt>
<totfact> 0.67265135E+03</totfact>
</mgrwt>
</event>
<event>
 5    1  0.3196850E-002  0.1250012E+03  0.7818608E-02  0.1235067E+00
         -4   -1    0    0    0  501 -0.00000000000E+00  0.00000000000E+00  0.76167265276E+03  0.76167371155E+03  0.12700000000E+01 0.  1.
          4   -1    0    0  501    0  0.00000000000E+00 -0.00000000000E+00 -0.50489146653E+01  0.52061923992E+01  0.12700000000E+01 0.  1.
         25    2    1    2    0    0  0.00000000000E+00  0.00000000000E+00  0.75662373809E+03  0.76687990395E+03  0.12500122411E+03 0.  0.
    9000005    1    3    3    0    0  0.24008578274E+02  0.84133751169E+01  0.72849666155E+03  0.72894141233E+03  0.10000000000E+01 0.  0.
    9000005    1    3    3    0    0 -0.24008578274E+02 -0.84133751169E+01  0.28127076542E+02  0.37938491619E+02  0.10000000000E+01 0.  0.
<mgrwt>
<rscale>  0 0.12500122E+03</rscale>
<asrwt>0</asrwt>
<pdfrwt beam="2">  1        4 0.78893556E-03 0.12500122E+03</pdfrwt>
<pdfrwt beam="1">  1       -4 0.11719263E+00 0.12500122E+03</pdfrwt>
<totfact> 0.39778412E+03</totfact>
</mgrwt>
</event>
<event>
 5    1  0.3196850E-002  0.1249942E+03  0.7818608E-02  0.1235078E+00
          4   -1    0    0  501    0  0.00000000000E+00  0.00000000000E+00  0.55406424759E+03  0.55406570311E+03  0.12700000000E+01 0. -1.
         -4   -1    0    0    0  501 -0.00000000000E+00 -0.00000000000E+00 -0.69908429316E+01  0.71052645900E+01  0.12700000000E+01 0. -1.
         25    2    1    2    0    0  0.00000000000E+00  0.00000000000E+00  0.54707340466E+03  0.56117096770E+03  0.12499417946E+03 0.  0.
    9000005    1    3    3    0    0  0.17343785117E+02 -0.53051583238E+02  0.39969371911E+03  0.40357322318E+03  0.10000000000E+01 0.  0.
    9000005    1    3    3    0    0 -0.17343785117E+02  0.53051583238E+02  0.14737968555E+03  0.15759774452E+03  0.10000000000E+01 0.  0.
<mgrwt>
<rscale>  0 0.12499418E+03</rscale>
<asrwt>0</asrwt>
<pdfrwt beam="1">  1        4 0.85249561E-01 0.12499418E+03</pdfrwt>
<pdfrwt beam="2">  1       -4 0.10844280E-02 0.12499418E+03</pdfrwt>
<totfact> 0.51420645E+03</totfact>
</mgrwt>
</event>
<event>
 5    1  0.3196850E-002  0.1250004E+03  0.7818608E-02  0.1235069E+00
          4   -1    0    0  501    0  0.00000000000E+00  0.00000000000E+00  0.69512342729E+03  0.69512458744E+03  0.12700000000E+01 0. -1.
         -4   -1    0    0    0  501 -0.00000000000E+00 -0.00000000000E+00 -0.55466095136E+01  0.56901473703E+01  0.12700000000E+01 0. -1.
         25    2    1    2    0    0  0.00000000000E+00  0.00000000000E+00  0.68957681777E+03  0.70081473481E+03  0.12500041966E+03 0.  0.
    9000005    1    3    3    0    0  0.39553715455E+01 -0.21779142064E+02  0.17141407694E+02  0.28014350802E+02  0.10000000000E+01 0.  0.
    9000005    1    3    3    0    0 -0.39553715455E+01  0.21779142064E+02  0.67243541008E+03  0.67280038401E+03  0.10000000000E+01 0.  0.
<mgrwt>
<rscale>  0 0.12500042E+03</rscale>
<asrwt>0</asrwt>
<pdfrwt beam="1">  1        4 0.10695331E+00 0.12500042E+03</pdfrwt>
<pdfrwt beam="2">  1       -4 0.86445426E-03 0.12500042E+03</pdfrwt>
<totfact> 0.43043283E+03</totfact>
</mgrwt>
</event>
<event>
 5    1  0.3196850E-002  0.1250023E+03  0.7818608E-02  0.1235066E+00
         -4   -1    0    0    0  501 -0.00000000000E+00  0.00000000000E+00  0.50396962419E+02  0.50412961836E+02  0.12700000000E+01 0. -1.
          4   -1    0    0  501    0  0.00000000000E+00 -0.00000000000E+00 -0.77479023512E+02  0.77489431436E+02  0.12700000000E+01 0. -1.
         25    2    1    2    0    0  0.00000000000E+00  0.00000000000E+00 -0.27082061092E+02  0.12790239327E+03  0.12500233667E+03 0.  0.
    9000005    1    3    3    0    0 -0.48731957340E+02  0.36126058218E+02 -0.28906084733E+02  0.67204594212E+02  0.10000000000E+01 0.  0.
    9000005    1    3    3    0    0  0.48731957340E+02 -0.36126058218E+02  0.18240236404E+01  0.60697799061E+02  0.10000000000E+01 0.  0.
<mgrwt>
<rscale>  0 0.12500234E+03</rscale>
<asrwt>0</asrwt>
<pdfrwt beam="2">  1        4 0.11921881E-01 0.12500234E+03</pdfrwt>
<pdfrwt beam="1">  1       -4 0.77554102E-02 0.12500234E+03</pdfrwt>
<totfact> 0.10389048E+04</totfact>
</mgrwt>
</event>
<event>
 5    1  0.3196850E-002  0.1250046E+03  0.7818608E-02  0.1235062E+00
          4   -1    0    0  501    0  0.00000000000E+00  0.00000000000E+00  0.51199509896E+02  0.51215258601E+02  0.12700000000E+01 0. -1.
         -4   -1    0    0    0  501 -0.00000000000E+00 -0.00000000000E+00 -0.76267533814E+02  0.76278107043E+02  0.12700000000E+01 0. -1.
         25    2    1    2    0    0  0.00000000000E+00  0.00000000000E+00 -0.25068023918E+02  0.12749336564E+03  0.12500460975E+03 0.  0.
    9000005    1    3    3    0    0 -0.43573748308E+02 -0.25978981873E+02  0.24688613111E+02  0.56427889010E+02  0.10000000000E+01 0.  0.
    9000005    1    3    3    0    0  0.43573748308E+02  0.25978981873E+02 -0.49756637029E+02  0.71065476634E+02  0.10000000000E+01 0.  0.
<mgrwt>
<rscale>  0 0.12500461E+03</rscale>
<asrwt>0</asrwt>
<pdfrwt beam="1">  1        4 0.78788724E-02 0.12500461E+03</pdfrwt>
<pdfrwt beam="2">  1       -4 0.11735492E-01 0.12500461E+03</pdfrwt>
<totfact> 0.10397362E+04</totfact>
</mgrwt>
</event>
<event>
 5    1  0.3196850E-002  0.1249978E+03  0.7818608E-02  0.1235073E+00
         -4   -1    0    0    0  501 -0.00000000000E+00  0.00000000000E+00  0.80695040971E+02  0.80705034151E+02  0.12700000000E+01 0. -1.
          4   -1    0    0  501    0  0.00000000000E+00 -0.00000000000E+00 -0.48384527716E+02  0.48401192364E+02  0.12700000000E+01 0. -1.
         25    2    1    2    0    0  0.00000000000E+00  0.00000000000E+00  0.32310513255E+02  0.12910622651E+03  0.12499779381E+03 0.  0.
    9000005    1    3    3    0    0  0.32651281069E+02  0.39500386805E+02  0.53089863955E+02  0.73796479374E+02  0.10000000000E+01 0.  0.
    9000005    1    3    3    0    0 -0.32651281069E+02 -0.39500386805E+02 -0.20779350700E+02  0.55309747141E+02  0.10000000000E+01 0.  0.
<mgrwt>
<rscale>  0 0.12499779E+03</rscale>
<asrwt>0</asrwt>
<pdfrwt beam="2">  1        4 0.74458242E-02 0.12499779E+03</pdfrwt>
<pdfrwt beam="1">  1       -4 0.12416672E-01 0.12499779E+03</pdfrwt>
<totfact> 0.10364181E+04</totfact>
</mgrwt>
</event>
<event>
 5    1  0.3196850E-002  0.1249990E+03  0.7818608E-02  0.1235071E+00
          4   -1    0    0  501    0  0.00000000000E+00  0.00000000000E+00  0.84874683571E+01  0.85819589322E+01  0.12700000000E+01 0. -1.
         -4   -1    0    0    0  501 -0.00000000000E+00 -0.00000000000E+00 -0.45758721080E+03  0.45758897320E+03  0.12700000000E+01 0. -1.
         25    2    1    2    0    0  0.00000000000E+00  0.00000000000E+00 -0.44909974245E+03  0.46617093213E+03  0.12499903718E+03 0.  0.
    9000005    1    3    3    0    0 -0.17691470484E+01  0.55826811395E+02 -0.12003178350E+03  0.13239483298E+03  0.10000000000E+01 0.  0.
    9000005    1    3    3    0    0  0.17691470484E+01 -0.55826811395E+02 -0.32906795895E+03  0.33377609914E+03  0.10000000000E+01 0.  0.
<mgrwt>
<rscale>  0 0.12499904E+03</rscale>
<asrwt>0</asrwt>
<pdfrwt beam="1">  1        4 0.13131688E-02 0.12499904E+03</pdfrwt>
<pdfrwt beam="2">  1       -4 0.70405418E-01 0.12499904E+03</pdfrwt>
<totfact> 0.58589316E+03</totfact>
</mgrwt>
</event>
<event>
 5    1  0.3196850E-002  0.1249967E+03  0.7818608E-02  0.1235074E+00
          4   -1    0    0  501    0  0.00000000000E+00  0.00000000000E+00  0.62828200896E+01  0.64098930005E+01  0.12700000000E+01 0.  1.
         -4   -1    0    0    0  501 -0.00000000000E+00 -0.00000000000E+00 -0.61535025421E+03  0.61535156476E+03  0.12700000000E+01 0.  1.
         25    2    1    2    0    0  0.00000000000E+00  0.00000000000E+00 -0.60906743412E+03  0.62176145776E+03  0.12499668417E+03 0.  0.
    9000005    1    3    3    0    0  0.49314217776E+02 -0.46276182622E+01 -0.11500758313E+03  0.12522400370E+03  0.10000000000E+01 0.  0.
    9000005    1    3    3    0    0 -0.49314217776E+02  0.46276182622E+01 -0.49405985099E+03  0.49653745406E+03  0.10000000000E+01 0.  0.
<mgrwt>
<rscale>  0 0.12499668E+03</rscale>
<asrwt>0</asrwt>
<pdfrwt beam="1">  1        4 0.97646384E-03 0.12499668E+03</pdfrwt>
<pdfrwt beam="2">  1       -4 0.94679099E-01 0.12499668E+03</pdfrwt>
<totfact> 0.47525630E+03</totfact>
</mgrwt>
</event>
<event>
 5    1  0.3196850E-002  0.1249986E+03  0.7818608E-02  0.1235071E+00
         -4   -1    0    0    0  501 -0.00000000000E+00  0.00000000000E+00  0.82468630492E+02  0.82478408782E+02  0.12700000000E+01 0. -1.
          4   -1    0    0  501    0  0.00000000000E+00 -0.00000000000E+00 -0.47344343087E+02  0.47361373738E+02  0.12700000000E+01 0. -1.
         25    2    1    2    0    0  0.00000000000E+00  0.00000000000E+00  0.35124287404E+02  0.12983978252E+03  0.12499861423E+03 0.  0.
    9000005    1    3    3    0    0  0.28265828841E+02  0.36683218963E+01 -0.40204211914E+02  0.49292923642E+02  0.10000000000E+01 0.  0.
    9000005    1    3    3    0    0 -0.28265828841E+02 -0.36683218963E+01  0.75328499318E+02  0.80546858878E+02  0.10000000000E+01 0.  0.
<mgrwt>
<rscale>  0 0.12499861E+03</rscale>
<asrwt>0</asrwt>
<pdfrwt beam="2">  1        4 0.72858073E-02 0.12499861E+03</pdfrwt>
<pdfrwt beam="1">  1       -4 0.12689544E-01 0.12499861E+03</pdfrwt>
<totfact> 0.10348260E+04</totfact>
</mgrwt>
</event>
<event>
 5    1  0.3196850E-002  0.1249966E+03  0.7818608E-02  0.1235075E+00
          4   -1    0    0  501    0  0.00000000000E+00  0.00000000000E+00  0.71211387099E+03  0.71211500347E+03  0.12700000000E+01 0.  1.
         -4   -1    0    0    0  501 -0.00000000000E+00 -0.00000000000E+00 -0.54104657417E+01  0.55575209890E+01  0.12700000000E+01 0.  1.
         25    2    1    2    0    0  0.00000000000E+00  0.00000000000E+00  0.70670340525E+03  0.71767252445E+03  0.12499659741E+03 0.  0.
    9000005    1    3    3    0    0 -0.22349324018E+02 -0.22494390242E+02  0.66251877970E+03  0.66327793822E+03  0.10000000000E+01 0.  0.
    9000005    1    3    3    0    0  0.22349324018E+02  0.22494390242E+02  0.44184625556E+02  0.54394586237E+02  0.10000000000E+01 0.  0.
<mgrwt>
<rscale>  0 0.12499660E+03</rscale>
<asrwt>0</asrwt>
<pdfrwt beam="1">  1        4 0.10956739E+00 0.12499660E+03</pdfrwt>
<pdfrwt beam="2">  1       -4 0.84377829E-03 0.12499660E+03</pdfrwt>
<totfact> 0.42173187E+03</totfact>
</mgrwt>
</event>
<event>
 5    1  0.3196850E-002  0.1249919E+03  0.7818608E-02  0.1235082E+00
         -4   -1    0    0    0  501 -0.00000000000E+00  0.00000000000E+00  0.17638812493E+02  0.17684473590E+02  0.12700000000E+01 0. -1.
          4   -1    0    0  501    0  0.00000000000E+00 -0.00000000000E+00 -0.22109514069E+03  0.22109878818E+03  0.12700000000E+01 0. -1.
         25    2    1    2    0    0  0.00000000000E+00  0.00000000000E+00 -0.20345632819E+03  0.23878326177E+03  0.12499187422E+03 0.  0.
    9000005    1    3    3    0    0  0.13987745072E+02 -0.14967125774E+02 -0.21450706841E+03  0.21548539222E+03  0.10000000000E+01 0.  0.
    9000005    1    3    3    0    0 -0.13987745072E+02  0.14967125774E+02  0.11050740213E+02  0.23297869546E+02  0.10000000000E+01 0.  0.
<mgrwt>
<rscale>  0 0.12499187E+03</rscale>
<asrwt>0</asrwt>
<pdfrwt beam="2">  1        4 0.34018428E-01 0.12499187E+03</pdfrwt>
<pdfrwt beam="1">  1       -4 0.27174566E-02 0.12499187E+03</pdfrwt>
<totfact> 0.83994130E+03</totfact>
</mgrwt>
</event>
<event>
 5    1  0.3196850E-002  0.1249986E+03  0.7818608E-02  0.1235071E+00
         -4   -1    0    0    0  501 -0.00000000000E+00  0.00000000000E+00  0.19432485875E+03  0.19432900871E+03  0.12700000000E+01 0.  1.
          4   -1    0    0  501    0  0.00000000000E+00 -0.00000000000E+00 -0.20076782117E+02  0.20116910303E+02  0.12700000000E+01 0.  1.
         25    2    1    2    0    0  0.00000000000E+00  0.00000000000E+00  0.17424807663E+03  0.21444591902E+03  0.12499863989E+03 0.  0.
    9000005    1    3    3    0    0  0.14100434609E+02 -0.37790079368E+02  0.52373251568E+01  0.40685893496E+02  0.10000000000E+01 0.  0.
    9000005    1    3    3    0    0 -0.14100434609E+02  0.37790079368E+02  0.16901075148E+03  0.17376002552E+03  0.10000000000E+01 0.  0.
<mgrwt>
<rscale>  0 0.12499864E+03</rscale>
<asrwt>0</asrwt>
<pdfrwt beam="2">  1        4 0.30921417E-02 0.12499864E+03</pdfrwt>
<pdfrwt beam="1">  1       -4 0.29899538E-01 0.12499864E+03</pdfrwt>
<totfact> 0.87757580E+03</totfact>
</mgrwt>
</event>
<event>
 5    1  0.3196850E-002  0.1250012E+03  0.7818608E-02  0.1235067E+00
         -4   -1    0    0    0  501 -0.00000000000E+00  0.00000000000E+00  0.23991823262E+02  0.24025413283E+02  0.12700000000E+01 0.  1.
          4   -1    0    0  501    0  0.00000000000E+00 -0.00000000000E+00 -0.16266907712E+03  0.16267403465E+03  0.12700000000E+01 0.  1.
         25    2    1    2    0    0  0.00000000000E+00  0.00000000000E+00 -0.13867725386E+03  0.18669944794E+03  0.12500121249E+03 0.  0.
    9000005    1    3    3    0    0  0.51236323737E+02 -0.17320859403E+02 -0.22578499355E+02  0.58617076639E+02  0.10000000000E+01 0.  0.
    9000005    1    3    3    0    0 -0.51236323737E+02  0.17320859403E+02 -0.11609875450E+03  0.12808237130E+03  0.10000000000E+01 0.  0.
<mgrwt>
<rscale>  0 0.12500121E+03</rscale>
<asrwt>0</asrwt>
<pdfrwt beam="2">  1        4 0.25028976E-01 0.12500121E+03</pdfrwt>
<pdfrwt beam="1">  1       -4 0.36940150E-02 0.12500121E+03</pdfrwt>
<totfact> 0.92422281E+03</totfact>
</mgrwt>
</event>
<event>
 5    1  0.3196850E-002  0.1249977E+03  0.7818608E-02  0.1235073E+00
          4   -1    0    0  501    0  0.00000000000E+00  0.00000000000E+00  0.19683706434E+01  0.23425163799E+01  0.12700000000E+01 0. -1.
         -4   -1    0    0    0  501 -0.00000000000E+00 -0.00000000000E+00 -0.18118313980E+04  0.18118318431E+04  0.12700000000E+01 0. -1.
         25    2    1    2    0    0  0.00000000000E+00  0.00000000000E+00 -0.18098630274E+04  0.18141743595E+04  0.12499771522E+03 0.  0.
    9000005    1    3    3    0    0 -0.49851700064E+02  0.37161253011E+02 -0.81434432292E+03  0.81671526679E+03  0.10000000000E+01 0.  0.
    9000005    1    3    3    0    0  0.49851700064E+02 -0.37161253011E+02 -0.99551870446E+03  0.99745909272E+03  0.10000000000E+01 0.  0.
<mgrwt>
<rscale>  0 0.12499772E+03</rscale>
<asrwt>0</asrwt>
<pdfrwt beam="1">  1        4 0.33164238E-03 0.12499772E+03</pdfrwt>
<pdfrwt beam="2">  1       -4 0.27877089E+00 0.12499772E+03</pdfrwt>
<totfact> 0.12487128E+03</totfact>
</mgrwt>
</event>
<event>
 5    1  0.3196850E-002  0.1249981E+03  0.7818608E-02  0.1235072E+00
         -4   -1    0    0    0  501 -0.00000000000E+00  0.00000000000E+00  0.39017997405E+01  0.41032841986E+01  0.12700000000E+01 0. -1.
          4   -1    0    0  501    0  0.00000000000E+00 -0.00000000000E+00 -0.97571053609E+03  0.97571136262E+03  0.12700000000E+01 0. -1.
         25    2    1    2    0    0  0.00000000000E+00  0.00000000000E+00 -0.97180873635E+03  0.97981464682E+03  0.12499808825E+03 0.  0.
    9000005    1    3    3    0    0 -0.58811520461E+02 -0.20147807326E+02 -0.53572841117E+03  0.53932426203E+03  0.10000000000E+01 0.  0.
    9000005    1    3    3    0    0  0.58811520461E+02  0.20147807326E+02 -0.43608032518E+03  0.44049038478E+03  0.10000000000E+01 0.  0.
<mgrwt>
<rscale>  0 0.12499809E+03</rscale>
<asrwt>0</asrwt>
<pdfrwt beam="2">  1        4 0.15012469E+00 0.12499809E+03</pdfrwt>
<pdfrwt beam="1">  1       -4 0.61584004E-03 0.12499809E+03</pdfrwt>
<totfact> 0.31281862E+03</totfact>
</mgrwt>
</event>
<event>
 5    1  0.3196850E-002  0.1250020E+03  0.7818608E-02  0.1235066E+00
          4   -1    0    0  501    0  0.00000000000E+00  0.00000000000E+00  0.10714354873E+02  0.10789360516E+02  0.12700000000E+01 0. -1.
         -4   -1    0    0    0  501 -0.00000000000E+00 -0.00000000000E+00 -0.36324502629E+03  0.36324724641E+03  0.12700000000E+01 0. -1.
         25    2    1    2    0    0  0.00000000000E+00  0.00000000000E+00 -0.35253067141E+03  0.37403660692E+03  0.12500203611E+03 0.  0.
    9000005    1    3    3    0    0 -0.36340254807E+02  0.14308544527E+02 -0.32224357389E+03  0.32460324934E+03  0.10000000000E+01 0.  0.
    9000005    1    3    3    0    0  0.36340254807E+02 -0.14308544527E+02 -0.30287097522E+02  0.49433357586E+02  0.10000000000E+01 0.  0.
<mgrwt>
<rscale>  0 0.12500204E+03</rscale>
<asrwt>0</asrwt>
<pdfrwt beam="1">  1        4 0.16543030E-02 0.12500204E+03</pdfrwt>
<pdfrwt beam="2">  1       -4 0.55889781E-01 0.12500204E+03</pdfrwt>
<totfact> 0.67155718E+03</totfact>
</mgrwt>
</event>
<event>
 5    1  0.3196850E-002  0.1250007E+03  0.7818608E-02  0.1235068E+00
          4   -1    0    0  501    0  0.00000000000E+00  0.00000000000E+00  0.93494905287E+01  0.94353523064E+01  0.12700000000E+01 0. -1.
         -4   -1    0    0    0  501 -0.00000000000E+00 -0.00000000000E+00 -0.41581188890E+03  0.41581382835E+03  0.12700000000E+01 0. -1.
         25    2    1    2    0    0  0.00000000000E+00  0.00000000000E+00 -0.40646239837E+03  0.42524918066E+03  0.12500073745E+03 0.  0.
    9000005    1    3    3    0    0 -0.27522019341E+02 -0.15363043409E+02 -0.38680577539E+03  0.38808915538E+03  0.10000000000E+01 0.  0.
    9000005    1    3    3    0    0  0.27522019341E+02  0.15363043409E+02 -0.19656622976E+02  0.37160025272E+02  0.10000000000E+01 0.  0.
<mgrwt>
<rscale>  0 0.12500074E+03</rscale>
<asrwt>0</asrwt>
<pdfrwt beam="1">  1        4 0.14451374E-02 0.12500074E+03</pdfrwt>
<pdfrwt beam="2">  1       -4 0.63977799E-01 0.12500074E+03</pdfrwt>
<totfact> 0.62167993E+03</totfact>
</mgrwt>
</event>
<event>
 5    1  0.3196850E-002  0.1249995E+03  0.7818608E-02  0.1235070E+00
         -4   -1    0    0    0  501 -0.00000000000E+00  0.00000000000E+00  0.61216461805E+02  0.61229634132E+02  0.12700000000E+01 0. -1.
          4   -1    0    0  501    0  0.00000000000E+00 -0.00000000000E+00 -0.63783617559E+02  0.63796259835E+02  0.12700000000E+01 0. -1.
         25    2    1    2    0    0  0.00000000000E+00  0.00000000000E+00 -0.25671557540E+01  0.12502589397E+03  0.12499953549E+03 0.  0.
    9000005    1    3    3    0    0  0.49113386461E+02 -0.38630885486E+02 -0.41683566211E+00  0.62495150172E+02  0.10000000000E+01 0.  0.
    9000005    1    3    3    0    0 -0.49113386461E+02  0.38630885486E+02 -0.21503200919E+01  0.62530743795E+02  0.10000000000E+01 0.  0.
<mgrwt>
<rscale>  0 0.12499954E+03</rscale>
<asrwt>0</asrwt>
<pdfrwt beam="2">  1        4 0.98148500E-02 0.12499954E+03</pdfrwt>
<pdfrwt beam="1">  1       -4 0.94199029E-02 0.12499954E+03</pdfrwt>
<totfact> 0.10452410E+04</totfact>
</mgrwt>
</event>
<event>
 5    1  0.3196850E-002  0.1250006E+03  0.7818608E-02  0.1235068E+00
         -4   -1    0    0    0  501 -0.00000000000E+00  0.00000000000E+00  0.10918946741E+03  0.10919685295E+03  0.12700000000E+01 0.  1.
          4   -1    0    0  501    0  0.00000000000E+00 -0.00000000000E+00 -0.35755417985E+02  0.35777965499E+02  0.12700000000E+01 0.  1.
         25    2    1    2    0    0  0.00000000000E+00  0.00000000000E+00  0.73434049425E+02  0.14497481844E+03  0.12500055347E+03 0.  0.
    9000005    1    3    3    0    0  0.17423700175E+02  0.42096930226E+01  0.10614960259E+03  0.10765707117E+03  0.10000000000E+01 0.  0.
    9000005    1    3    3    0    0 -0.17423700175E+02 -0.42096930226E+01 -0.32715553161E+02  0.37317747277E+02  0.10000000000E+01 0.  0.
<mgrwt>
<rscale>  0 0.12500055E+03</rscale>
<asrwt>0</asrwt>
<pdfrwt beam="2">  1        4 0.55031361E-02 0.12500055E+03</pdfrwt>
<pdfrwt beam="1">  1       -4 0.16800682E-01 0.12500055E+03</pdfrwt>
<totfact> 0.10031375E+04</totfact>
</mgrwt>
</event>
<event>
 4    1  0.3196850E-002  0.1247473E+03  0.7818608E-02  0.1235465E+00
          4   -1    0    0  501    0  0.00000000000E+00  0.00000000000E+00  0.14152339962E+03  0.14152909786E+03  0.12700000000E+01 0.  1.
         -4   -1    0    0    0  501 -0.00000000000E+00 -0.00000000000E+00 -0.27469031647E+02  0.27498374490E+02  0.12700000000E+01 0.  1.
    9000005    1    1    2    0    0 -0.39592041961E+02 -0.46113354391E+02  0.75972430559E+02  0.97297386629E+02  0.10000000000E+01 0.  0.
    9000005    1    1    2    0    0  0.39592041961E+02  0.46113354391E+02  0.38081937415E+02  0.71730085718E+02  0.10000000000E+01 0.  0.
<mgrwt>
<rscale>  0 0.12474729E+03</rscale>
<asrwt>0</asrwt>
<pdfrwt beam="1">  1        4 0.21775526E-01 0.12474729E+03</pdfrwt>
<pdfrwt beam="2">  1       -4 0.42287004E-02 0.12474729E+03</pdfrwt>
<totfact> 0.96174712E+03</totfact>
</mgrwt>
</event>
<event>
 5    1  0.3196850E-002  0.1249992E+03  0.7818608E-02  0.1235071E+00
          4   -1    0    0  501    0  0.00000000000E+00  0.00000000000E+00  0.11461273232E+02  0.11531421599E+02  0.12700000000E+01 0.  1.
         -4   -1    0    0    0  501 -0.00000000000E+00 -0.00000000000E+00 -0.33970624750E+03  0.33970862145E+03  0.12700000000E+01 0.  1.
         25    2    1    2    0    0  0.00000000000E+00  0.00000000000E+00 -0.32824497426E+03  0.35124004305E+03  0.12499921884E+03 0.  0.
    9000005    1    3    3    0    0 -0.10503252534E+02 -0.46743001785E+02 -0.51375163521E+02  0.70254067188E+02  0.10000000000E+01 0.  0.
    9000005    1    3    3    0    0  0.10503252534E+02  0.46743001785E+02 -0.27686981074E+03  0.28098597586E+03  0.10000000000E+01 0.  0.
<mgrwt>
<rscale>  0 0.12499922E+03</rscale>
<asrwt>0</asrwt>
<pdfrwt beam="1">  1        4 0.17688517E-02 0.12499922E+03</pdfrwt>
<pdfrwt beam="2">  1       -4 0.52268071E-01 0.12499922E+03</pdfrwt>
<totfact> 0.69589557E+03</totfact>
</mgrwt>
</event>
<event>
 5    1  0.3196850E-002  0.1250007E+03  0.7818608E-02  0.1235068E+00
         -4   -1    0    0    0  501 -0.00000000000E+00  0.00000000000E+00  0.32007910084E+02  0.32033095510E+02  0.12700000000E+01 0.  1.
          4   -1    0    0  501    0  0.00000000000E+00 -0.00000000000E+00 -0.12196494844E+03  0.12197156041E+03  0.12700000000E+01 0.  1.
         25    2    1    2    0    0  0.00000000000E+00  0.00000000000E+00 -0.89957038357E+02  0.15400465592E+03  0.12500066117E+03 0.  0.
    9000005    1    3    3    0    0 -0.57628858945E+02 -0.86097744006E+01 -0.72803810490E+02  0.93255607984E+02  0.10000000000E+01 0.  0.
    9000005    1    3    3    0    0  0.57628858945E+02  0.86097744006E+01 -0.17153227867E+02  0.60749047933E+02  0.10000000000E+01 0.  0.
<mgrwt>
<rscale>  0 0.12500066E+03</rscale>
<asrwt>0</asrwt>
<pdfrwt beam="2">  1        4 0.18766284E-01 0.12500066E+03</pdfrwt>
<pdfrwt beam="1">  1       -4 0.49267399E-02 0.12500066E+03</pdfrwt>
<totfact> 0.98509787E+03</totfact>
</mgrwt>
</event>
<event>
 5    1  0.3196850E-002  0.1249891E+03  0.7818608E-02  0.1235086E+00
         -4   -1    0    0    0  501 -0.00000000000E+00  0.00000000000E+00  0.16757586159E+03  0.16758067396E+03  0.12700000000E+01 0.  1.
          4   -1    0    0  501    0  0.00000000000E+00 -0.00000000000E+00 -0.23283827744E+02  0.23318437649E+02  0.12700000000E+01 0.  1.
         25    2    1    2    0    0  0.00000000000E+00  0.00000000000E+00  0.14429203384E+03  0.19089911161E+03  0.12498911866E+03 0.  0.
    9000005    1    3    3    0    0  0.53723725918E+02 -0.66070430114E+01  0.24463153400E+02  0.59408228539E+02  0.10000000000E+01 0.  0.
    9000005    1    3    3    0    0 -0.53723725918E+02  0.66070430114E+01  0.11982888044E+03  0.13149088307E+03  0.10000000000E+01 0.  0.
<mgrwt>
<rscale>  0 0.12498912E+03</rscale>
<asrwt>0</asrwt>
<pdfrwt beam="2">  1        4 0.35851599E-02 0.12498912E+03</pdfrwt>
<pdfrwt beam="1">  1       -4 0.25783933E-01 0.12498912E+03</pdfrwt>
<totfact> 0.91713458E+03</totfact>
</mgrwt>
</event>
<event>
 5    1  0.3196850E-002  0.1249981E+03  0.7818608E-02  0.1235072E+00
          4   -1    0    0  501    0  0.00000000000E+00  0.00000000000E+00  0.40564143261E+03  0.40564342069E+03  0.12700000000E+01 0. -1.
         -4   -1    0    0    0  501 -0.00000000000E+00 -0.00000000000E+00 -0.95856182073E+01  0.96693834558E+01  0.12700000000E+01 0. -1.
         25    2    1    2    0    0  0.00000000000E+00  0.00000000000E+00  0.39605581440E+03  0.41531280414E+03  0.12499806865E+03 0.  0.
    9000005    1    3    3    0    0 -0.50976565387E+02  0.32159602381E+02  0.25285296892E+03  0.25993936627E+03  0.10000000000E+01 0.  0.
    9000005    1    3    3    0    0  0.50976565387E+02 -0.32159602381E+02  0.14320284548E+03  0.15537343787E+03  0.10000000000E+01 0.  0.
<mgrwt>
<rscale>  0 0.12499807E+03</rscale>
<asrwt>0</asrwt>
<pdfrwt beam="1">  1        4 0.62412975E-01 0.12499807E+03</pdfrwt>
<pdfrwt beam="2">  1       -4 0.14813068E-02 0.12499807E+03</pdfrwt>
<totfact> 0.63092926E+03</totfact>
</mgrwt>
</event>
<event>
 5    1  0.3196850E-002  0.1249431E+03  0.7818608E-02  0.1235158E+00
         -4   -1    0    0    0  501 -0.00000000000E+00  0.00000000000E+00  0.58266506794E+01  0.59634518645E+01  0.12700000000E+01 0. -1.
          4   -1    0    0  501    0  0.00000000000E+00 -0.00000000000E+00 -0.66189191676E+03  0.66189313516E+03  0.12700000000E+01 0. -1.
         25    2    1    2    0    0  0.00000000000E+00  0.00000000000E+00 -0.65606526609E+03  0.66785658703E+03  0.12494313697E+03 0.  0.
    9000005    1    3    3    0    0  0.18159621389E+02 -0.50056218450E+02 -0.15348638591E+03  0.16246374215E+03  0.10000000000E+01 0.  0.
    9000005    1    3    3    0    0 -0.18159621389E+02  0.50056218450E+02 -0.50257888017E+03  0.50539284488E+03  0.10000000000E+01 0.  0.
<mgrwt>
<rscale>  0 0.12494314E+03</rscale>
<asrwt>0</asrwt>
<pdfrwt beam="2">  1        4 0.10184008E+00 0.12494314E+03</pdfrwt>
<pdfrwt beam="1">  1       -4 0.90702521E-03 0.12494314E+03</pdfrwt>
<totfact> 0.44894526E+03</totfact>
</mgrwt>
</event>
<event>
 5    1  0.3196850E-002  0.1250004E+03  0.7818608E-02  0.1235069E+00
          4   -1    0    0  501    0  0.00000000000E+00  0.00000000000E+00  0.82610258107E+02  0.82620019635E+02  0.12700000000E+01 0. -1.
         -4   -1    0    0    0  501 -0.00000000000E+00 -0.00000000000E+00 -0.47264485034E+02  0.47281544449E+02  0.12700000000E+01 0. -1.
         25    2    1    2    0    0  0.00000000000E+00  0.00000000000E+00  0.35345773073E+02  0.12990156408E+03  0.12500037071E+03 0.  0.
    9000005    1    3    3    0    0  0.46275905341E+01 -0.26054132867E+02  0.76505732336E+02  0.80958998968E+02  0.10000000000E+01 0.  0.
    9000005    1    3    3    0    0 -0.46275905341E+01  0.26054132867E+02 -0.41159959263E+02  0.48942565116E+02  0.10000000000E+01 0.  0.
<mgrwt>
<rscale>  0 0.12500037E+03</rscale>
<asrwt>0</asrwt>
<pdfrwt beam="1">  1        4 0.12711334E-01 0.12500037E+03</pdfrwt>
<pdfrwt beam="2">  1       -4 0.72735225E-02 0.12500037E+03</pdfrwt>
<totfact> 0.10346527E+04</totfact>
</mgrwt>
</event>
<event>
 5    1  0.3196850E-002  0.1249980E+03  0.7818608E-02  0.1235072E+00
         -4   -1    0    0    0  501 -0.00000000000E+00  0.00000000000E+00  0.19141397493E+02  0.19183482426E+02  0.12700000000E+01 0.  1.
          4   -1    0    0  501    0  0.00000000000E+00 -0.00000000000E+00 -0.20379865069E+03  0.20380260775E+03  0.12700000000E+01 0.  1.
         25    2    1    2    0    0  0.00000000000E+00  0.00000000000E+00 -0.18465725320E+03  0.22298609017E+03  0.12499798099E+03 0.  0.
    9000005    1    3    3    0    0 -0.41816213891E+02  0.45894524469E+02 -0.79686616808E+02  0.10102405663E+03  0.10000000000E+01 0.  0.
    9000005    1    3    3    0    0  0.41816213891E+02 -0.45894524469E+02 -0.10497063639E+03  0.12196203354E+03  0.10000000000E+01 0.  0.
<mgrwt>
<rscale>  0 0.12499798E+03</rscale>
<asrwt>0</asrwt>
<pdfrwt beam="2">  1        4 0.31357179E-01 0.12499798E+03</pdfrwt>
<pdfrwt beam="1">  1       -4 0.29483722E-02 0.12499798E+03</pdfrwt>
<totfact> 0.86401930E+03</totfact>
</mgrwt>
</event>
<event>
 5    1  0.3196850E-002  0.1250011E+03  0.7818608E-02  0.1235068E+00
         -4   -1    0    0    0  501 -0.00000000000E+00  0.00000000000E+00  0.32956540796E+02  0.32981001823E+02  0.12700000000E+01 0.  1.
          4   -1    0    0  501    0  0.00000000000E+00 -0.00000000000E+00 -0.11845749260E+03  0.11846430033E+03  0.12700000000E+01 0.  1.
         25    2    1    2    0    0  0.00000000000E+00  0.00000000000E+00 -0.85500951802E+02  0.15144530215E+03  0.12500106714E+03 0.  0.
    9000005    1    3    3    0    0  0.45980586991E+02  0.41547013649E+02 -0.32986540748E+02  0.70210259889E+02  0.10000000000E+01 0.  0.
    9000005    1    3    3    0    0 -0.45980586991E+02 -0.41547013649E+02 -0.52514411053E+02  0.81235042263E+02  0.10000000000E+01 0.  0.
<mgrwt>
<rscale>  0 0.12500107E+03</rscale>
<asrwt>0</asrwt>
<pdfrwt beam="2">  1        4 0.18226635E-01 0.12500107E+03</pdfrwt>
<pdfrwt beam="1">  1       -4 0.50726424E-02 0.12500107E+03</pdfrwt>
<totfact> 0.99013998E+03</totfact>
</mgrwt>
</event>
<event>
 5    1  0.3196850E-002  0.1250000E+03  0.7818608E-02  0.1235069E+00
          4   -1    0    0  501    0  0.00000000000E+00  0.00000000000E+00  0.23492525472E+03  0.23492868749E+03  0.12700000000E+01 0.  1.
         -4   -1    0    0    0  501 -0.00000000000E+00 -0.00000000000E+00 -0.16599822798E+02  0.16648333758E+02  0.12700000000E+01 0.  1.
         25    2    1    2    0    0  0.00000000000E+00  0.00000000000E+00  0.21832543192E+03  0.25157702124E+03  0.12500001358E+03 0.  0.
    9000005    1    3    3    0    0  0.50255638293E+02  0.34661882710E+02  0.82297831858E+02  0.10247442814E+03  0.10000000000E+01 0.  0.
    9000005    1    3    3    0    0 -0.50255638293E+02 -0.34661882710E+02  0.13602760006E+03  0.14910259311E+03  0.10000000000E+01 0.  0.
<mgrwt>
<rscale>  0 0.12500001E+03</rscale>
<asrwt>0</asrwt>
<pdfrwt beam="1">  1        4 0.36146344E-01 0.12500001E+03</pdfrwt>
<pdfrwt beam="2">  1       -4 0.25578145E-02 0.12500001E+03</pdfrwt>
<totfact> 0.82102805E+03</totfact>
</mgrwt>
</event>
<event>
 5    1  0.3196850E-002  0.1250023E+03  0.7818608E-02  0.1235066E+00
          4   -1    0    0  501    0  0.00000000000E+00  0.00000000000E+00  0.17089601689E+03  0.17090073578E+03  0.12700000000E+01 0.  1.
         -4   -1    0    0    0  501 -0.00000000000E+00 -0.00000000000E+00 -0.22835637367E+02  0.22870925516E+02  0.12700000000E+01 0.  1.
         25    2    1    2    0    0  0.00000000000E+00  0.00000000000E+00  0.14806037953E+03  0.19377166130E+03  0.12500232292E+03 0.  0.
    9000005    1    3    3    0    0 -0.40170285902E+02  0.42619828232E+02  0.40235135960E+02  0.71063125414E+02  0.10000000000E+01 0.  0.
    9000005    1    3    3    0    0  0.40170285902E+02 -0.42619828232E+02  0.10782524357E+03  0.12270853588E+03  0.10000000000E+01 0.  0.
<mgrwt>
<rscale>  0 0.12500232E+03</rscale>
<asrwt>0</asrwt>
<pdfrwt beam="1">  1        4 0.26294774E-01 0.12500232E+03</pdfrwt>
<pdfrwt beam="2">  1       -4 0.35162523E-02 0.12500232E+03</pdfrwt>
<totfact> 0.91190423E+03</totfact>
</mgrwt>
</event>
<event>
 5    1  0.3196850E-002  0.1249957E+03  0.7818608E-02  0.1235076E+00
         -4   -1    0    0    0  501 -0.00000000000E+00  0.00000000000E+00  0.57906572823E+03  0.57906712090E+03  0.12700000000E+01 0.  1.
          4   -1    0    0  501    0  0.00000000000E+00 -0.00000000000E+00 -0.66841254908E+01  0.68037073406E+01  0.12700000000E+01 0.  1.
         25    2    1    2    0    0  0.00000000000E+00  0.00000000000E+00  0.57238160274E+03  0.58587082824E+03  0.12499571286E+03 0.  0.
    9000005    1    3    3    0    0 -0.20991775202E+02  0.43754386433E+02  0.47071611304E+03  0.47321217232E+03  0.10000000000E+01 0.  0.
    9000005    1    3    3    0    0  0.20991775202E+02 -0.43754386433E+02  0.10166548970E+03  0.11265865592E+03  0.10000000000E+01 0.  0.
<mgrwt>
<rscale>  0 0.12499571E+03</rscale>
<asrwt>0</asrwt>
<pdfrwt beam="2">  1        4 0.10376329E-02 0.12499571E+03</pdfrwt>
<pdfrwt beam="1">  1       -4 0.89096327E-01 0.12499571E+03</pdfrwt>
<totfact> 0.49776491E+03</totfact>
</mgrwt>
</event>
<event>
 5    1  0.3196850E-002  0.1250026E+03  0.7818608E-02  0.1235065E+00
         -4   -1    0    0    0  501 -0.00000000000E+00  0.00000000000E+00  0.32240525234E+01  0.34651716659E+01  0.12700000000E+01 0.  1.
          4   -1    0    0  501    0  0.00000000000E+00 -0.00000000000E+00 -0.11677309469E+04  0.11677316376E+04  0.12700000000E+01 0.  1.
         25    2    1    2    0    0  0.00000000000E+00  0.00000000000E+00 -0.11645068944E+04  0.11711968092E+04  0.12500263509E+03 0.  0.
    9000005    1    3    3    0    0 -0.63543502419E+01 -0.80588974934E+01 -0.11598275557E+04  0.11598733907E+04  0.10000000000E+01 0.  0.
    9000005    1    3    3    0    0  0.63543502419E+01  0.80588974934E+01 -0.46793387685E+01  0.11323418526E+02  0.10000000000E+01 0.  0.
<mgrwt>
<rscale>  0 0.12500264E+03</rscale>
<asrwt>0</asrwt>
<pdfrwt beam="2">  1        4 0.17966919E+00 0.12500264E+03</pdfrwt>
<pdfrwt beam="1">  1       -4 0.51460976E-03 0.12500264E+03</pdfrwt>
<totfact> 0.25477955E+03</totfact>
</mgrwt>
</event>
<event>
 5    1  0.3196850E-002  0.1249969E+03  0.7818608E-02  0.1235074E+00
          4   -1    0    0  501    0  0.00000000000E+00  0.00000000000E+00  0.19175641121E+03  0.19176061676E+03  0.12700000000E+01 0. -1.
         -4   -1    0    0    0  501 -0.00000000000E+00 -0.00000000000E+00 -0.20345669738E+02  0.20385268629E+02  0.12700000000E+01 0. -1.
         25    2    1    2    0    0  0.00000000000E+00  0.00000000000E+00  0.17141074147E+03  0.21214588539E+03  0.12499693754E+03 0.  0.
    9000005    1    3    3    0    0  0.80912440715E+01  0.50590907808E+02  0.24980619986E+02  0.57008241144E+02  0.10000000000E+01 0.  0.
    9000005    1    3    3    0    0 -0.80912440715E+01 -0.50590907808E+02  0.14643012149E+03  0.15513764424E+03  0.10000000000E+01 0.  0.
<mgrwt>
<rscale>  0 0.12499694E+03</rscale>
<asrwt>0</asrwt>
<pdfrwt beam="1">  1        4 0.29504356E-01 0.12499694E+03</pdfrwt>
<pdfrwt beam="2">  1       -4 0.31334726E-02 0.12499694E+03</pdfrwt>
<totfact> 0.88132657E+03</totfact>
</mgrwt>
</event>
<event>
 4    1  0.3196850E-002  0.1246654E+03  0.7818608E-02  0.1235593E+00
         -4   -1    0    0    0  501 -0.00000000000E+00  0.00000000000E+00  0.39804873591E+01  0.41781789832E+01  0.12700000000E+01 0.  1.
          4   -1    0    0  501    0  0.00000000000E+00 -0.00000000000E+00 -0.95225361778E+03  0.95225446467E+03  0.12700000000E+01 0.  1.
    9000005    1    1    2    0    0 -0.22651735383E+02  0.11416209121E+02 -0.37375805022E+02  0.45181652776E+02  0.10000000000E+01 0.  0.
    9000005    1    1    2    0    0  0.22651735383E+02 -0.11416209121E+02 -0.91089732540E+03  0.91125099087E+03  0.10000000000E+01 0.  0.
<mgrwt>
<rscale>  0 0.12466544E+03</rscale>
<asrwt>0</asrwt>
<pdfrwt beam="2">  1        4 0.14651565E+00 0.12466544E+03</pdfrwt>
<pdfrwt beam="1">  1       -4 0.62765562E-03 0.12466544E+03</pdfrwt>
<totfact> 0.32324079E+03</totfact>
</mgrwt>
</event>
<event>
 5    1  0.3196850E-002  0.1249990E+03  0.7818608E-02  0.1235071E+00
          4   -1    0    0  501    0  0.00000000000E+00  0.00000000000E+00  0.31776844903E+02  0.31802213320E+02  0.12700000000E+01 0. -1.
         -4   -1    0    0    0  501 -0.00000000000E+00 -0.00000000000E+00 -0.12284791252E+03  0.12285447697E+03  0.12700000000E+01 0. -1.
         25    2    1    2    0    0  0.00000000000E+00  0.00000000000E+00 -0.91071067616E+02  0.15465669029E+03  0.12499900997E+03 0.  0.
    9000005    1    3    3    0    0  0.42158710059E+02 -0.44425067924E+02 -0.30169309649E+02  0.68279797441E+02  0.10000000000E+01 0.  0.
    9000005    1    3    3    0    0 -0.42158710059E+02  0.44425067924E+02 -0.60901757967E+02  0.86376892844E+02  0.10000000000E+01 0.  0.
<mgrwt>
<rscale>  0 0.12499901E+03</rscale>
<asrwt>0</asrwt>
<pdfrwt beam="1">  1        4 0.48912018E-02 0.12499901E+03</pdfrwt>
<pdfrwt beam="2">  1       -4 0.18902135E-01 0.12499901E+03</pdfrwt>
<totfact> 0.98385128E+03</totfact>
</mgrwt>
</event>
<event>
 5    1  0.3196850E-002  0.1250005E+03  0.7818608E-02  0.1235069E+00
         -4   -1    0    0    0  501 -0.00000000000E+00  0.00000000000E+00  0.65443598711E+01  0.66664492890E+01  0.12700000000E+01 0.  1.
          4   -1    0    0  501    0  0.00000000000E+00 -0.00000000000E+00 -0.59125329542E+03  0.59125465939E+03  0.12700000000E+01 0.  1.
         25    2    1    2    0    0  0.00000000000E+00  0.00000000000E+00 -0.58470893555E+03  0.59792110868E+03  0.12500045155E+03 0.  0.
    9000005    1    3    3    0    0 -0.18920230668E+02  0.48798812666E+02 -0.12902006695E+03  0.13923532928E+03  0.10000000000E+01 0.  0.
    9000005    1    3    3    0    0  0.18920230668E+02 -0.48798812666E+02 -0.45568886861E+03  0.45868577940E+03  0.10000000000E+01 0.  0.
<mgrwt>
<rscale>  0 0.12500045E+03</rscale>
<asrwt>0</asrwt>
<pdfrwt beam="2">  1        4 0.90971500E-01 0.12500045E+03</pdfrwt>
<pdfrwt beam="1">  1       -4 0.10163215E-02 0.12500045E+03</pdfrwt>
<totfact> 0.48998631E+03</totfact>
</mgrwt>
</event>
<event>
 5    1  0.3196850E-002  0.1249920E+03  0.7818608E-02  0.1235082E+00
          4   -1    0    0  501    0  0.00000000000E+00  0.00000000000E+00  0.12159428467E+02  0.12225571588E+02  0.12700000000E+01 0. -1.
         -4   -1    0    0    0  501 -0.00000000000E+00 -0.00000000000E+00 -0.32027278765E+03  0.32027530565E+03  0.12700000000E+01 0. -1.
         25    2    1    2    0    0  0.00000000000E+00  0.00000000000E+00 -0.30811335918E+03  0.33250087723E+03  0.12499196477E+03 0.  0.
    9000005    1    3    3    0    0 -0.28918365981E+02  0.48090013877E+02 -0.22719108831E+03  0.23402075107E+03  0.10000000000E+01 0.  0.
    9000005    1    3    3    0    0  0.28918365981E+02 -0.48090013877E+02 -0.80922270869E+02  0.98480126159E+02  0.10000000000E+01 0.  0.
<mgrwt>
<rscale>  0 0.12499196E+03</rscale>
<asrwt>0</asrwt>
<pdfrwt beam="1">  1        4 0.18759632E-02 0.12499196E+03</pdfrwt>
<pdfrwt beam="2">  1       -4 0.49278012E-01 0.12499196E+03</pdfrwt>
<totfact> 0.71706336E+03</totfact>
</mgrwt>
</event>
<event>
 4    1  0.3196850E-002  0.1249353E+03  0.7818608E-02  0.1235170E+00
          4   -1    0    0  501    0  0.00000000000E+00  0.00000000000E+00  0.50287513357E+03  0.50287673725E+03  0.12700000000E+01 0.  1.
         -4   -1    0    0    0  501 -0.00000000000E+00 -0.00000000000E+00 -0.77061979721E+01  0.78101464253E+01  0.12700000000E+01 0.  1.
    9000005    1    1    2    0    0 -0.31517520639E+02 -0.49428364722E+02  0.33569951272E+03  0.34078098566E+03  0.10000000000E+01 0.  0.
    9000005    1    1    2    0    0  0.31517520639E+02  0.49428364722E+02  0.15946942288E+03  0.16990589801E+03  0.10000000000E+01 0.  0.
<mgrwt>
<rscale>  0 0.12493526E+03</rscale>
<asrwt>0</asrwt>
<pdfrwt beam="1">  1        4 0.77373548E-01 0.12493526E+03</pdfrwt>
<pdfrwt beam="2">  1       -4 0.11936880E-02 0.12493526E+03</pdfrwt>
<totfact> 0.55123022E+03</totfact>
</mgrwt>
</event>
<event>
 5    1  0.3196850E-002  0.1250019E+03  0.7818608E-02  0.1235066E+00
          4   -1    0    0  501    0  0.00000000000E+00  0.00000000000E+00  0.39004024864E+03  0.39004231624E+03  0.12700000000E+01 0. -1.
         -4   -1    0    0    0  501 -0.00000000000E+00 -0.00000000000E+00 -0.99729341616E+01  0.10053472822E+02  0.12700000000E+01 0. -1.
         25    2    1    2    0    0  0.00000000000E+00  0.00000000000E+00  0.38006731448E+03  0.40009578907E+03  0.12500190755E+03 0.  0.
    9000005    1    3    3    0    0  0.25326860065E+02 -0.14751194642E+02  0.36669243353E+03  0.36786327405E+03  0.10000000000E+01 0.  0.
    9000005    1    3    3    0    0 -0.25326860065E+02  0.14751194642E+02  0.13374880953E+02  0.32232515022E+02  0.10000000000E+01 0.  0.
<mgrwt>
<rscale>  0 0.12500191E+03</rscale>
<asrwt>0</asrwt>
<pdfrwt beam="1">  1        4 0.60012540E-01 0.12500191E+03</pdfrwt>
<pdfrwt beam="2">  1       -4 0.15406521E-02 0.12500191E+03</pdfrwt>
<totfact> 0.64540758E+03</totfact>
</mgrwt>
</event>
<event>
 5    1  0.3196850E-002  0.1250010E+03  0.7818608E-02  0.1235068E+00
         -4   -1    0    0    0  501 -0.00000000000E+00  0.00000000000E+00  0.23787810081E+02  0.23821687775E+02  0.12700000000E+01 0. -1.
          4   -1    0    0  501    0  0.00000000000E+00 -0.00000000000E+00 -0.16406159790E+03  0.16406651336E+03  0.12700000000E+01 0. -1.
         25    2    1    2    0    0  0.00000000000E+00  0.00000000000E+00 -0.14027378782E+03  0.18788820113E+03  0.12500096230E+03 0.  0.
    9000005    1    3    3    0    0  0.46222069619E+02  0.41532782294E+02 -0.80091237771E+02  0.10137582598E+03  0.10000000000E+01 0.  0.
    9000005    1    3    3    0    0 -0.46222069619E+02 -0.41532782294E+02 -0.60182550049E+02  0.86512375158E+02  0.10000000000E+01 0.  0.
<mgrwt>
<rscale>  0 0.12500096E+03</rscale>
<asrwt>0</asrwt>
<pdfrwt beam="2">  1        4 0.25243229E-01 0.12500096E+03</pdfrwt>
<pdfrwt beam="1">  1       -4 0.36626473E-02 0.12500096E+03</pdfrwt>
<totfact> 0.92214076E+03</totfact>
</mgrwt>
</event>
<event>
 5    1  0.3196850E-002  0.1249963E+03  0.7818608E-02  0.1235075E+00
         -4   -1    0    0    0  501 -0.00000000000E+00  0.00000000000E+00  0.16292242093E+01  0.20657375255E+01  0.12700000000E+01 0.  1.
          4   -1    0    0  501    0  0.00000000000E+00 -0.00000000000E+00 -0.21138037644E+04  0.21138041459E+04  0.12700000000E+01 0.  1.
         25    2    1    2    0    0  0.00000000000E+00  0.00000000000E+00 -0.21121745402E+04  0.21158698835E+04  0.12499630164E+03 0.  0.
    9000005    1    3    3    0    0 -0.45362736365E+02 -0.23264058288E+02 -0.44434643466E+03  0.44726250486E+03  0.10000000000E+01 0.  0.
    9000005    1    3    3    0    0  0.45362736365E+02  0.23264058288E+02 -0.16678281056E+04  0.16686073786E+04  0.10000000000E+01 0.  0.
<mgrwt>
<rscale>  0 0.12499630E+03</rscale>
<asrwt>0</asrwt>
<pdfrwt beam="2">  1        4 0.32523225E+00 0.12499630E+03</pdfrwt>
<pdfrwt beam="1">  1       -4 0.28425886E-03 0.12499630E+03</pdfrwt>
<totfact> 0.84245371E+02</totfact>
</mgrwt>
</event>
<event>
 5    1  0.3196850E-002  0.1249983E+03  0.7818608E-02  0.1235072E+00
         -4   -1    0    0    0  501 -0.00000000000E+00  0.00000000000E+00  0.61686407614E+02  0.61699479612E+02  0.12700000000E+01 0.  1.
          4   -1    0    0  501    0  0.00000000000E+00 -0.00000000000E+00 -0.63296463439E+02  0.63309202995E+02  0.12700000000E+01 0.  1.
         25    2    1    2    0    0  0.00000000000E+00  0.00000000000E+00 -0.16100558250E+01  0.12500868261E+03  0.12499831378E+03 0.  0.
    9000005    1    3    3    0    0  0.23281100977E+02 -0.18562210585E+02  0.54141128468E+02  0.61796659427E+02  0.10000000000E+01 0.  0.
    9000005    1    3    3    0    0 -0.23281100977E+02  0.18562210585E+02 -0.55751184293E+02  0.63212023181E+02  0.10000000000E+01 0.  0.
<mgrwt>
<rscale>  0 0.12499831E+03</rscale>
<asrwt>0</asrwt>
<pdfrwt beam="2">  1        4 0.97399030E-02 0.12499831E+03</pdfrwt>
<pdfrwt beam="1">  1       -4 0.94922020E-02 0.12499831E+03</pdfrwt>
<totfact> 0.10453072E+04</totfact>
</mgrwt>
</event>
<event>
 5    1  0.3196850E-002  0.1250012E+03  0.7818608E-02  0.1235067E+00
          4   -1    0    0  501    0  0.00000000000E+00  0.00000000000E+00  0.59964467483E+01  0.61294594872E+01  0.12700000000E+01 0. -1.
         -4   -1    0    0    0  501 -0.00000000000E+00 -0.00000000000E+00 -0.64416064784E+03  0.64416189978E+03  0.12700000000E+01 0. -1.
         25    2    1    2    0    0  0.00000000000E+00  0.00000000000E+00 -0.63816420109E+03  0.65029135927E+03  0.12500121751E+03 0.  0.
    9000005    1    3    3    0    0 -0.19538905715E+02  0.51012706621E+02 -0.47698317624E+03  0.48010208861E+03  0.10000000000E+01 0.  0.
    9000005    1    3    3    0    0  0.19538905715E+02 -0.51012706621E+02 -0.16118102486E+03  0.17018927066E+03  0.10000000000E+01 0.  0.
<mgrwt>
<rscale>  0 0.12500122E+03</rscale>
<asrwt>0</asrwt>
<pdfrwt beam="1">  1        4 0.93285883E-03 0.12500122E+03</pdfrwt>
<pdfrwt beam="2">  1       -4 0.99111912E-01 0.12500122E+03</pdfrwt>
<totfact> 0.45838154E+03</totfact>
</mgrwt>
</event>
<event>
 5    1  0.3196850E-002  0.1250011E+03  0.7818608E-02  0.1235067E+00
         -4   -1    0    0    0  501 -0.00000000000E+00  0.00000000000E+00  0.35596937679E+03  0.35597164229E+03  0.12700000000E+01 0.  1.
          4   -1    0    0  501    0  0.00000000000E+00 -0.00000000000E+00 -0.10934705479E+02  0.11008209842E+02  0.12700000000E+01 0.  1.
         25    2    1    2    0    0  0.00000000000E+00  0.00000000000E+00  0.34503467131E+03  0.36697985213E+03  0.12500114984E+03 0.  0.
    9000005    1    3    3    0    0  0.10812052150E+02 -0.43675519647E+02  0.29984056542E+03  0.30319930106E+03  0.10000000000E+01 0.  0.
    9000005    1    3    3    0    0 -0.10812052150E+02  0.43675519647E+02  0.45194105890E+02  0.63780551074E+02  0.10000000000E+01 0.  0.
<mgrwt>
<rscale>  0 0.12500115E+03</rscale>
<asrwt>0</asrwt>
<pdfrwt beam="2">  1        4 0.16880909E-02 0.12500115E+03</pdfrwt>
<pdfrwt beam="1">  1       -4 0.54770345E-01 0.12500115E+03</pdfrwt>
<totfact> 0.67894363E+03</totfact>
</mgrwt>
</event>
<event>
 4    1  0.3196850E-002  0.1251064E+03  0.7818608E-02  0.1234903E+00
         -4   -1    0    0    0  501 -0.00000000000E+00  0.00000000000E+00  0.68181667646E+02  0.68193494580E+02  0.12700000000E+01 0. -1.
          4   -1    0    0  501    0  0.00000000000E+00 -0.00000000000E+00 -0.57365511646E+02  0.57379568022E+02  0.12700000000E+01 0. -1.
    9000005    1    1    2    0    0 -0.49937057297E+02  0.19701015469E+02  0.37622372717E+02  0.65561289118E+02  0.10000000000E+01 0.  0.
    9000005    1    1    2    0    0  0.49937057297E+02 -0.19701015469E+02 -0.26806216717E+02  0.60011773484E+02  0.10000000000E+01 0.  0.
<mgrwt>
<rscale>  0 0.12510637E+03</rscale>
<asrwt>0</asrwt>
<pdfrwt beam="2">  1        4 0.88274544E-02 0.12510637E+03</pdfrwt>
<pdfrwt beam="1">  1       -4 0.10491478E-01 0.12510637E+03</pdfrwt>
<totfact> 0.10415331E+04</totfact>
</mgrwt>
</event>
<event>
 5    1  0.3196850E-002  0.1250047E+03  0.7818608E-02  0.1235062E+00
         -4   -1    0    0    0  501 -0.00000000000E+00  0.00000000000E+00  0.86051425960E+01  0.86983549650E+01  0.12700000000E+01 0. -1.
          4   -1    0    0  501    0  0.00000000000E+00 -0.00000000000E+00 -0.45143819758E+03  0.45143998398E+03  0.12700000000E+01 0. -1.
         25    2    1    2    0    0  0.00000000000E+00  0.00000000000E+00 -0.44283305498E+03  0.46013833894E+03  0.12500470543E+03 0.  0.
    9000005    1    3    3    0    0 -0.14141905313E+01  0.47628502656E+02 -0.72572908653E+02  0.86823391263E+02  0.10000000000E+01 0.  0.
    9000005    1    3    3    0    0  0.14141905313E+01 -0.47628502656E+02 -0.37026014633E+03  0.37331494768E+03  0.10000000000E+01 0.  0.
<mgrwt>
<rscale>  0 0.12500471E+03</rscale>
<asrwt>0</asrwt>
<pdfrwt beam="2">  1        4 0.69459320E-01 0.12500471E+03</pdfrwt>
<pdfrwt beam="1">  1       -4 0.13311760E-02 0.12500471E+03</pdfrwt>
<totfact> 0.59089350E+03</totfact>
</mgrwt>
</event>
<event>
 5    1  0.3196850E-002  0.1250012E+03  0.7818608E-02  0.1235067E+00
          4   -1    0    0  501    0  0.00000000000E+00  0.00000000000E+00  0.61536505147E+02  0.61549608981E+02  0.12700000000E+01 0. -1.
         -4   -1    0    0    0  501 -0.00000000000E+00 -0.00000000000E+00 -0.63453552291E+02  0.63466260315E+02  0.12700000000E+01 0. -1.
         25    2    1    2    0    0  0.00000000000E+00  0.00000000000E+00 -0.19170471446E+01  0.12501586930E+03  0.12500117002E+03 0.  0.
    9000005    1    3    3    0    0  0.32104094489E+01  0.25383269763E+02 -0.57980191209E+02  0.63382329441E+02  0.10000000000E+01 0.  0.
    9000005    1    3    3    0    0 -0.32104094489E+01 -0.25383269763E+02  0.56063144065E+02  0.61633539855E+02  0.10000000000E+01 0.  0.
<mgrwt>
<rscale>  0 0.12500117E+03</rscale>
<asrwt>0</asrwt>
<pdfrwt beam="1">  1        4 0.94691401E-02 0.12500117E+03</pdfrwt>
<pdfrwt beam="2">  1       -4 0.97640705E-02 0.12500117E+03</pdfrwt>
<totfact> 0.10452241E+04</totfact>
</mgrwt>
</event>
<event>
 5    1  0.3196850E-002  0.1249599E+03  0.7818608E-02  0.1235132E+00
          4   -1    0    0  501    0  0.00000000000E+00  0.00000000000E+00  0.57798053474E+02  0.57812004682E+02  0.12700000000E+01 0. -1.
         -4   -1    0    0    0  501 -0.00000000000E+00 -0.00000000000E+00 -0.67513072001E+02  0.67525016038E+02  0.12700000000E+01 0. -1.
         25    2    1    2    0    0  0.00000000000E+00  0.00000000000E+00 -0.97150185271E+01  0.12533702072E+03  0.12495994229E+03 0.  0.
    9000005    1    3    3    0    0  0.28717625525E+02 -0.33231798273E+02 -0.49417827267E+02  0.66122432533E+02  0.10000000000E+01 0.  0.
    9000005    1    3    3    0    0 -0.28717625525E+02  0.33231798273E+02  0.39702808740E+02  0.59214588187E+02  0.10000000000E+01 0.  0.
<mgrwt>
<rscale>  0 0.12495994E+03</rscale>
<asrwt>0</asrwt>
<pdfrwt beam="1">  1        4 0.88940002E-02 0.12495994E+03</pdfrwt>
<pdfrwt beam="2">  1       -4 0.10388618E-01 0.12495994E+03</pdfrwt>
<totfact> 0.10455004E+04</totfact>
</mgrwt>
</event>
<event>
 5    1  0.3196850E-002  0.1249590E+03  0.7818608E-02  0.1235133E+00
         -4   -1    0    0    0  501 -0.00000000000E+00  0.00000000000E+00  0.44053435769E+01  0.45847521231E+01  0.12700000000E+01 0. -1.
          4   -1    0    0  501    0  0.00000000000E+00 -0.00000000000E+00 -0.86826261429E+03  0.86826354310E+03  0.12700000000E+01 0. -1.
         25    2    1    2    0    0  0.00000000000E+00  0.00000000000E+00 -0.86385727072E+03  0.87284829522E+03  0.12495904252E+03 0.  0.
    9000005    1    3    3    0    0  0.29331718933E+02  0.22834451691E+02 -0.78264122552E+03  0.78352412203E+03  0.10000000000E+01 0.  0.
    9000005    1    3    3    0    0 -0.29331718933E+02 -0.22834451691E+02 -0.81216045197E+02  0.89324173195E+02  0.10000000000E+01 0.  0.
<mgrwt>
<rscale>  0 0.12495904E+03</rscale>
<asrwt>0</asrwt>
<pdfrwt beam="2">  1        4 0.13359260E+00 0.12495904E+03</pdfrwt>
<pdfrwt beam="1">  1       -4 0.69161796E-03 0.12495904E+03</pdfrwt>
<totfact> 0.35241694E+03</totfact>
</mgrwt>
</event>
<event>
 5    1  0.3196850E-002  0.1249997E+03  0.7818608E-02  0.1235070E+00
         -4   -1    0    0    0  501 -0.00000000000E+00  0.00000000000E+00  0.19211242416E+02  0.19253174678E+02  0.12700000000E+01 0.  1.
          4   -1    0    0  501    0  0.00000000000E+00 -0.00000000000E+00 -0.20306498535E+03  0.20306895670E+03  0.12700000000E+01 0.  1.
         25    2    1    2    0    0  0.00000000000E+00  0.00000000000E+00 -0.18385374294E+03  0.22232213138E+03  0.12499972524E+03 0.  0.
    9000005    1    3    3    0    0  0.49294982182E+02  0.26891629076E+02 -0.14070274282E+03  0.15149725020E+03  0.10000000000E+01 0.  0.
    9000005    1    3    3    0    0 -0.49294982182E+02 -0.26891629076E+02 -0.43151000122E+02  0.70824881180E+02  0.10000000000E+01 0.  0.
<mgrwt>
<rscale>  0 0.12499973E+03</rscale>
<asrwt>0</asrwt>
<pdfrwt beam="2">  1        4 0.31244296E-01 0.12499973E+03</pdfrwt>
<pdfrwt beam="1">  1       -4 0.29591070E-02 0.12499973E+03</pdfrwt>
<totfact> 0.86502763E+03</totfact>
</mgrwt>
</event>
<event>
 5    1  0.3196850E-002  0.1250003E+03  0.7818608E-02  0.1235069E+00
          4   -1    0    0  501    0  0.00000000000E+00  0.00000000000E+00  0.70391692999E+03  0.70391807565E+03  0.12700000000E+01 0. -1.
         -4   -1    0    0    0  501 -0.00000000000E+00 -0.00000000000E+00 -0.54755034167E+01  0.56208573782E+01  0.12700000000E+01 0. -1.
         25    2    1    2    0    0  0.00000000000E+00  0.00000000000E+00  0.69844142658E+03  0.70953893303E+03  0.12500028451E+03 0.  0.
    9000005    1    3    3    0    0  0.28425366990E+02  0.44147528609E+01  0.66412875494E+03  0.66475220546E+03  0.10000000000E+01 0.  0.
    9000005    1    3    3    0    0 -0.28425366990E+02 -0.44147528609E+01  0.34312671637E+02  0.44786727567E+02  0.10000000000E+01 0.  0.
<mgrwt>
<rscale>  0 0.12500028E+03</rscale>
<asrwt>0</asrwt>
<pdfrwt beam="1">  1        4 0.10830610E+00 0.12500028E+03</pdfrwt>
<pdfrwt beam="2">  1       -4 0.85365495E-03 0.12500028E+03</pdfrwt>
<totfact> 0.42587672E+03</totfact>
</mgrwt>
</event>
<event>
 5    1  0.3196850E-002  0.1250005E+03  0.7818608E-02  0.1235068E+00
          4   -1    0    0  501    0  0.00000000000E+00  0.00000000000E+00  0.13167779099E+03  0.13168391527E+03  0.12700000000E+01 0. -1.
         -4   -1    0    0    0  501 -0.00000000000E+00 -0.00000000000E+00 -0.29645045005E+02  0.29672236069E+02  0.12700000000E+01 0. -1.
         25    2    1    2    0    0  0.00000000000E+00  0.00000000000E+00  0.10203274599E+03  0.16135615134E+03  0.12500050528E+03 0.  0.
    9000005    1    3    3    0    0 -0.18036023083E+02  0.83207738123E+01 -0.25468156143E+02  0.32313470609E+02  0.10000000000E+01 0.  0.
    9000005    1    3    3    0    0  0.18036023083E+02 -0.83207738123E+01  0.12750090213E+03  0.12904268073E+03  0.10000000000E+01 0.  0.
<mgrwt>
<rscale>  0 0.12500051E+03</rscale>
<asrwt>0</asrwt>
<pdfrwt beam="1">  1        4 0.20260684E-01 0.12500051E+03</pdfrwt>
<pdfrwt beam="2">  1       -4 0.45633389E-02 0.12500051E+03</pdfrwt>
<totfact> 0.97080862E+03</totfact>
</mgrwt>
</event>
<event>
 5    1  0.3196850E-002  0.1250000E+03  0.7818608E-02  0.1235069E+00
         -4   -1    0    0    0  501 -0.00000000000E+00  0.00000000000E+00  0.20795482583E+02  0.20834226548E+02  0.12700000000E+01 0. -1.
          4   -1    0    0  501    0  0.00000000000E+00 -0.00000000000E+00 -0.18762548225E+03  0.18762978039E+03  0.12700000000E+01 0. -1.
         25    2    1    2    0    0  0.00000000000E+00  0.00000000000E+00 -0.16682999966E+03  0.20846400693E+03  0.12499997360E+03 0.  0.
    9000005    1    3    3    0    0 -0.38780023364E+02  0.42621684707E+02 -0.12374296633E+03  0.13650575056E+03  0.10000000000E+01 0.  0.
    9000005    1    3    3    0    0  0.38780023364E+02 -0.42621684707E+02 -0.43087033336E+02  0.71958256379E+02  0.10000000000E+01 0.  0.
<mgrwt>
<rscale>  0 0.12499997E+03</rscale>
<asrwt>0</asrwt>
<pdfrwt beam="2">  1        4 0.28868769E-01 0.12499997E+03</pdfrwt>
<pdfrwt beam="1">  1       -4 0.32026161E-02 0.12499997E+03</pdfrwt>
<totfact> 0.88727397E+03</totfact>
</mgrwt>
</event>
<event>
 5    1  0.3196850E-002  0.1250015E+03  0.7818608E-02  0.1235067E+00
         -4   -1    0    0    0  501 -0.00000000000E+00  0.00000000000E+00  0.14746471873E+02  0.14801058500E+02  0.12700000000E+01 0. -1.
          4   -1    0    0  501    0  0.00000000000E+00 -0.00000000000E+00 -0.26435454660E+03  0.26435759722E+03  0.12700000000E+01 0. -1.
         25    2    1    2    0    0  0.00000000000E+00  0.00000000000E+00 -0.24960807472E+03  0.27915865572E+03  0.12500145637E+03 0.  0.
    9000005    1    3    3    0    0  0.46161802744E+02 -0.31548717592E+00 -0.21887447337E+03  0.22369185649E+03  0.10000000000E+01 0.  0.
    9000005    1    3    3    0    0 -0.46161802744E+02  0.31548717592E+00 -0.30733601351E+02  0.55466799230E+02  0.10000000000E+01 0.  0.
<mgrwt>
<rscale>  0 0.12500146E+03</rscale>
<asrwt>0</asrwt>
<pdfrwt beam="2">  1        4 0.40674360E-01 0.12500146E+03</pdfrwt>
<pdfrwt beam="1">  1       -4 0.22731218E-02 0.12500146E+03</pdfrwt>
<totfact> 0.78287261E+03</totfact>
</mgrwt>
</event>
<event>
 5    1  0.3196850E-002  0.1250012E+03  0.7818608E-02  0.1235067E+00
         -4   -1    0    0    0  501 -0.00000000000E+00  0.00000000000E+00  0.82166253397E+01  0.83141946076E+01  0.12700000000E+01 0. -1.
          4   -1    0    0  501    0  0.00000000000E+00 -0.00000000000E+00 -0.47251289447E+03  0.47251460120E+03  0.12700000000E+01 0. -1.
         25    2    1    2    0    0  0.00000000000E+00  0.00000000000E+00 -0.46429626913E+03  0.48082879580E+03  0.12500122136E+03 0.  0.
    9000005    1    3    3    0    0  0.57745162033E+02 -0.21325078791E+01 -0.32368370864E+03  0.32880266813E+03  0.10000000000E+01 0.  0.
    9000005    1    3    3    0    0 -0.57745162033E+02  0.21325078791E+01 -0.14061256049E+03  0.15202612768E+03  0.10000000000E+01 0.  0.
<mgrwt>
<rscale>  0 0.12500122E+03</rscale>
<asrwt>0</asrwt>
<pdfrwt beam="2">  1        4 0.72701907E-01 0.12500122E+03</pdfrwt>
<pdfrwt beam="1">  1       -4 0.12717332E-02 0.12500122E+03</pdfrwt>
<totfact> 0.57381580E+03</totfact>
</mgrwt>
</event>
<event>
 5    1  0.3196850E-002  0.1249824E+03  0.7818608E-02  0.1235097E+00
          4   -1    0    0  501    0  0.00000000000E+00  0.00000000000E+00  0.49858970886E+02  0.49875142885E+02  0.12700000000E+01 0. -1.
         -4   -1    0    0    0  501 -0.00000000000E+00 -0.00000000000E+00 -0.78289839291E+02  0.78300139439E+02  0.12700000000E+01 0. -1.
         25    2    1    2    0    0  0.00000000000E+00  0.00000000000E+00 -0.28430868405E+02  0.12817528232E+03  0.12498235364E+03 0.  0.
    9000005    1    3    3    0    0  0.23456679213E+02  0.46707760376E+02  0.20898381289E+02  0.56298961088E+02  0.10000000000E+01 0.  0.
    9000005    1    3    3    0    0 -0.23456679213E+02 -0.46707760376E+02 -0.49329249694E+02  0.71876321236E+02  0.10000000000E+01 0.  0.
<mgrwt>
<rscale>  0 0.12498235E+03</rscale>
<asrwt>0</asrwt>
<pdfrwt beam="1">  1        4 0.76726472E-02 0.12498235E+03</pdfrwt>
<pdfrwt beam="2">  1       -4 0.12046627E-01 0.12498235E+03</pdfrwt>
<totfact> 0.10387841E+04</totfact>
</mgrwt>
</event>
<event>
 5    1  0.3196850E-002  0.1250004E+03  0.7818608E-02  0.1235069E+00
         -4   -1    0    0    0  501 -0.00000000000E+00  0.00000000000E+00  0.59524230401E+03  0.59524365884E+03  0.12700000000E+01 0. -1.
          4   -1    0    0  501    0  0.00000000000E+00 -0.00000000000E+00 -0.64996764971E+01  0.66225897176E+01  0.12700000000E+01 0. -1.
         25    2    1    2    0    0  0.00000000000E+00  0.00000000000E+00  0.58874262752E+03  0.60186624856E+03  0.12500039878E+03 0.  0.
    9000005    1    3    3    0    0  0.22098593497E+02  0.18690479812E+02  0.27693145152E+02  0.40069841010E+02  0.10000000000E+01 0.  0.
    9000005    1    3    3    0    0 -0.22098593497E+02 -0.18690479812E+02  0.56104948237E+03  0.56179640755E+03  0.10000000000E+01 0.  0.
<mgrwt>
<rscale>  0 0.12500040E+03</rscale>
<asrwt>0</asrwt>
<pdfrwt beam="2">  1        4 0.10095094E-02 0.12500040E+03</pdfrwt>
<pdfrwt beam="1">  1       -4 0.91585287E-01 0.12500040E+03</pdfrwt>
<totfact> 0.48749597E+03</totfact>
</mgrwt>
</event>
<event>
 5    1  0.3196850E-002  0.1250508E+03  0.7818608E-02  0.1234990E+00
          4   -1    0    0  501    0  0.00000000000E+00  0.00000000000E+00  0.10603907591E+03  0.10604668085E+03  0.12700000000E+01 0.  1.
         -4   -1    0    0    0  501 -0.00000000000E+00 -0.00000000000E+00 -0.36847888526E+02  0.36869767951E+02  0.12700000000E+01 0.  1.
         25    2    1    2    0    0  0.00000000000E+00  0.00000000000E+00  0.69191187384E+02  0.14291644880E+03  0.12505075340E+03 0.  0.
    9000005    1    3    3    0    0  0.38170763015E+02 -0.81468776281E+01 -0.21218528450E+02  0.44436524547E+02  0.10000000000E+01 0.  0.
    9000005    1    3    3    0    0 -0.38170763015E+02  0.81468776281E+01  0.90409715835E+02  0.98479924257E+02  0.10000000000E+01 0.  0.
<mgrwt>
<rscale>  0 0.12505075E+03</rscale>
<asrwt>0</asrwt>
<pdfrwt beam="1">  1        4 0.16315972E-01 0.12505075E+03</pdfrwt>
<pdfrwt beam="2">  1       -4 0.56711740E-02 0.12505075E+03</pdfrwt>
<totfact> 0.10061988E+04</totfact>
</mgrwt>
</event>
<event>
 5    1  0.3196850E-002  0.1249903E+03  0.7818608E-02  0.1235085E+00
          4   -1    0    0  501    0  0.00000000000E+00  0.00000000000E+00  0.40355006361E+02  0.40374985305E+02  0.12700000000E+01 0. -1.
         -4   -1    0    0    0  501 -0.00000000000E+00 -0.00000000000E+00 -0.96733965636E+02  0.96742302059E+02  0.12700000000E+01 0. -1.
         25    2    1    2    0    0  0.00000000000E+00  0.00000000000E+00 -0.56378959275E+02  0.13711728736E+03  0.12499025340E+03 0.  0.
    9000005    1    3    3    0    0 -0.11250808175E+02 -0.16327331088E+00  0.39239869500E+02  0.40833499741E+02  0.10000000000E+01 0.  0.
    9000005    1    3    3    0    0  0.11250808175E+02  0.16327331088E+00 -0.95618828775E+02  0.96283787623E+02  0.10000000000E+01 0.  0.
<mgrwt>
<rscale>  0 0.12499025E+03</rscale>
<asrwt>0</asrwt>
<pdfrwt beam="1">  1        4 0.62106407E-02 0.12499025E+03</pdfrwt>
<pdfrwt beam="2">  1       -4 0.14884327E-01 0.12499025E+03</pdfrwt>
<totfact> 0.10195874E+04</totfact>
</mgrwt>
</event>
<event>
 5    1  0.3196850E-002  0.1250002E+03  0.7818608E-02  0.1235069E+00
         -4   -1    0    0    0  501 -0.00000000000E+00  0.00000000000E+00  0.19865986666E+02  0.19906539785E+02  0.12700000000E+01 0.  1.
          4   -1    0    0  501    0  0.00000000000E+00 -0.00000000000E+00 -0.19638772006E+03  0.19639182643E+03  0.12700000000E+01 0.  1.
         25    2    1    2    0    0  0.00000000000E+00  0.00000000000E+00 -0.17652173339E+03  0.21629836622E+03  0.12500024347E+03 0.  0.
    9000005    1    3    3    0    0  0.57415097734E+02 -0.18997855856E+02 -0.11550291021E+03  0.13038149502E+03  0.10000000000E+01 0.  0.
    9000005    1    3    3    0    0 -0.57415097734E+02  0.18997855856E+02 -0.61018823177E+02  0.85916871200E+02  0.10000000000E+01 0.  0.
<mgrwt>
<rscale>  0 0.12500024E+03</rscale>
<asrwt>0</asrwt>
<pdfrwt beam="2">  1        4 0.30216929E-01 0.12500024E+03</pdfrwt>
<pdfrwt beam="1">  1       -4 0.30597411E-02 0.12500024E+03</pdfrwt>
<totfact> 0.87457020E+03</totfact>
</mgrwt>
</event>
<event>
 5    1  0.3196850E-002  0.1250064E+03  0.7818608E-02  0.1235059E+00
          4   -1    0    0  501    0  0.00000000000E+00  0.00000000000E+00  0.24455735796E+01  0.27556723559E+01  0.12700000000E+01 0.  1.
         -4   -1    0    0    0  501 -0.00000000000E+00 -0.00000000000E+00 -0.15018883069E+04  0.15018888438E+04  0.12700000000E+01 0.  1.
         25    2    1    2    0    0  0.00000000000E+00  0.00000000000E+00 -0.14994427333E+04  0.15046445162E+04  0.12500643848E+03 0.  0.
    9000005    1    3    3    0    0  0.45575483632E+02 -0.42646302748E+02 -0.71200152541E+03  0.71473282004E+03  0.10000000000E+01 0.  0.
    9000005    1    3    3    0    0 -0.45575483632E+02  0.42646302748E+02 -0.78744120786E+03  0.78991169613E+03  0.10000000000E+01 0.  0.
<mgrwt>
<rscale>  0 0.12500644E+03</rscale>
<asrwt>0</asrwt>
<pdfrwt beam="1">  1        4 0.40013835E-03 0.12500644E+03</pdfrwt>
<pdfrwt beam="2">  1       -4 0.23108294E+00 0.12500644E+03</pdfrwt>
<totfact> 0.17836883E+03</totfact>
</mgrwt>
</event>
<event>
 5    1  0.3196850E-002  0.1249993E+03  0.7818608E-02  0.1235070E+00
         -4   -1    0    0    0  501 -0.00000000000E+00  0.00000000000E+00  0.21640121858E+03  0.21640494519E+03  0.12700000000E+01 0. -1.
          4   -1    0    0  501    0  0.00000000000E+00 -0.00000000000E+00 -0.18024534030E+02  0.18069220432E+02  0.12700000000E+01 0. -1.
         25    2    1    2    0    0  0.00000000000E+00  0.00000000000E+00  0.19837668455E+03  0.23447416562E+03  0.12499930148E+03 0.  0.
    9000005    1    3    3    0    0  0.59497121793E+02 -0.18875963334E+02  0.10481476862E+03  0.12199731642E+03  0.10000000000E+01 0.  0.
    9000005    1    3    3    0    0 -0.59497121793E+02  0.18875963334E+02  0.93561915932E+02  0.11247684920E+03  0.10000000000E+01 0.  0.
<mgrwt>
<rscale>  0 0.12499930E+03</rscale>
<asrwt>0</asrwt>
<pdfrwt beam="2">  1        4 0.27767295E-02 0.12499930E+03</pdfrwt>
<pdfrwt beam="1">  1       -4 0.33296217E-01 0.12499930E+03</pdfrwt>
<totfact> 0.84628606E+03</totfact>
</mgrwt>
</event>
<event>
 5    1  0.3196850E-002  0.1250008E+03  0.7818608E-02  0.1235068E+00
          4   -1    0    0  501    0  0.00000000000E+00  0.00000000000E+00  0.51702109932E+02  0.51717705590E+02  0.12700000000E+01 0.  1.
         -4   -1    0    0    0  501 -0.00000000000E+00 -0.00000000000E+00 -0.75521667696E+02  0.75532345334E+02  0.12700000000E+01 0.  1.
         25    2    1    2    0    0  0.00000000000E+00  0.00000000000E+00 -0.23819557764E+02  0.12725005092E+03  0.12500081651E+03 0.  0.
    9000005    1    3    3    0    0 -0.40536485751E+02  0.17517618656E+02  0.33103821531E+02  0.55199063763E+02  0.10000000000E+01 0.  0.
    9000005    1    3    3    0    0  0.40536485751E+02 -0.17517618656E+02 -0.56923379295E+02  0.72050987160E+02  0.10000000000E+01 0.  0.
<mgrwt>
<rscale>  0 0.12500082E+03</rscale>
<asrwt>0</asrwt>
<pdfrwt beam="1">  1        4 0.79561918E-02 0.12500082E+03</pdfrwt>
<pdfrwt beam="2">  1       -4 0.11620739E-01 0.12500082E+03</pdfrwt>
<totfact> 0.10403526E+04</totfact>
</mgrwt>
</event>
<event>
 5    1  0.3196850E-002  0.1250050E+03  0.7818608E-02  0.1235062E+00
          4   -1    0    0  501    0  0.00000000000E+00  0.00000000000E+00  0.11512315471E+03  0.11513015960E+03  0.12700000000E+01 0.  1.
         -4   -1    0    0    0  501 -0.00000000000E+00 -0.00000000000E+00 -0.33913829637E+02  0.33937600690E+02  0.12700000000E+01 0.  1.
         25    2    1    2    0    0  0.00000000000E+00  0.00000000000E+00  0.81209325074E+02  0.14906776029E+03  0.12500497062E+03 0.  0.
    9000005    1    3    3    0    0 -0.30436232574E+02 -0.33637555600E+02 -0.10654735041E+02  0.46608719987E+02  0.10000000000E+01 0.  0.
    9000005    1    3    3    0    0  0.30436232574E+02  0.33637555600E+02  0.91864060115E+02  0.10245904031E+03  0.10000000000E+01 0.  0.
<mgrwt>
<rscale>  0 0.12500497E+03</rscale>
<asrwt>0</asrwt>
<pdfrwt beam="1">  1        4 0.17713622E-01 0.12500497E+03</pdfrwt>
<pdfrwt beam="2">  1       -4 0.52198797E-02 0.12500497E+03</pdfrwt>
<totfact> 0.99478721E+03</totfact>
</mgrwt>
</event>
<event>
 5    1  0.3196850E-002  0.1249987E+03  0.7818608E-02  0.1235071E+00
         -4   -1    0    0    0  501 -0.00000000000E+00  0.00000000000E+00  0.80950945544E+02  0.80960907137E+02  0.12700000000E+01 0. -1.
          4   -1    0    0  501    0  0.00000000000E+00 -0.00000000000E+00 -0.48232247193E+02  0.48248964438E+02  0.12700000000E+01 0. -1.
         25    2    1    2    0    0  0.00000000000E+00  0.00000000000E+00  0.32718698351E+02  0.12920987157E+03  0.12499871076E+03 0.  0.
    9000005    1    3    3    0    0  0.39058252021E+02  0.41524838668E+02 -0.10102098908E+02  0.57904332132E+02  0.10000000000E+01 0.  0.
    9000005    1    3    3    0    0 -0.39058252021E+02 -0.41524838668E+02  0.42820797259E+02  0.71305539442E+02  0.10000000000E+01 0.  0.
<mgrwt>
<rscale>  0 0.12499871E+03</rscale>
<asrwt>0</asrwt>
<pdfrwt beam="2">  1        4 0.74223979E-02 0.12499871E+03</pdfrwt>
<pdfrwt beam="1">  1       -4 0.12456044E-01 0.12499871E+03</pdfrwt>
<totfact> 0.10361741E+04</totfact>
</mgrwt>
</event>
<event>
 5    1  0.3196850E-002  0.1249998E+03  0.7818608E-02  0.1235070E+00
         -4   -1    0    0    0  501 -0.00000000000E+00  0.00000000000E+00  0.81176706956E+02  0.81186640848E+02  0.12700000000E+01 0.  1.
          4   -1    0    0  501    0  0.00000000000E+00 -0.00000000000E+00 -0.48098942101E+02  0.48115705660E+02  0.12700000000E+01 0.  1.
         25    2    1    2    0    0  0.00000000000E+00  0.00000000000E+00  0.33077764856E+02  0.12930234651E+03  0.12499983314E+03 0.  0.
    9000005    1    3    3    0    0 -0.27080238611E+01  0.33792414020E+02  0.70843269937E+02  0.78543169874E+02  0.10000000000E+01 0.  0.
    9000005    1    3    3    0    0  0.27080238611E+01 -0.33792414020E+02 -0.37765505082E+02  0.50759176634E+02  0.10000000000E+01 0.  0.
<mgrwt>
<rscale>  0 0.12499983E+03</rscale>
<asrwt>0</asrwt>
<pdfrwt beam="2">  1        4 0.74018909E-02 0.12499983E+03</pdfrwt>
<pdfrwt beam="1">  1       -4 0.12490778E-01 0.12499983E+03</pdfrwt>
<totfact> 0.10359493E+04</totfact>
</mgrwt>
</event>
<event>
 5    1  0.3196850E-002  0.1250015E+03  0.7818608E-02  0.1235067E+00
         -4   -1    0    0    0  501 -0.00000000000E+00  0.00000000000E+00  0.16169283713E+03  0.16169782460E+03  0.12700000000E+01 0.  1.
          4   -1    0    0  501    0  0.00000000000E+00 -0.00000000000E+00 -0.24136979019E+02  0.24170367316E+02  0.12700000000E+01 0.  1.
         25    2    1    2    0    0  0.00000000000E+00  0.00000000000E+00  0.13755585811E+03  0.18586819191E+03  0.12500148265E+03 0.  0.
    9000005    1    3    3    0    0 -0.38198355794E+01  0.36905982472E+02 -0.59939960968E+01  0.37597482300E+02  0.10000000000E+01 0.  0.
    9000005    1    3    3    0    0  0.38198355794E+01 -0.36905982472E+02  0.14354985421E+03  0.14827070961E+03  0.10000000000E+01 0.  0.
<mgrwt>
<rscale>  0 0.12500148E+03</rscale>
<asrwt>0</asrwt>
<pdfrwt beam="2">  1        4 0.37163335E-02 0.12500148E+03</pdfrwt>
<pdfrwt beam="1">  1       -4 0.24878772E-01 0.12500148E+03</pdfrwt>
<totfact> 0.92568172E+03</totfact>
</mgrwt>
</event>
<event>
 4    1  0.3196850E-002  0.1252366E+03  0.7818608E-02  0.1234700E+00
         -4   -1    0    0    0  501 -0.00000000000E+00  0.00000000000E+00  0.70143930665E+02  0.70155426798E+02  0.12700000000E+01 0.  1.
          4   -1    0    0  501    0  0.00000000000E+00 -0.00000000000E+00 -0.55876752207E+02  0.55891183000E+02  0.12700000000E+01 0.  1.
    9000005    1    1    2    0    0 -0.82746040731E+01 -0.56457886971E+02  0.33070154772E+02  0.65959057076E+02  0.10000000000E+01 0.  0.
    9000005    1    1    2    0    0  0.82746040731E+01  0.56457886971E+02 -0.18802976313E+02  0.60087552721E+02  0.10000000000E+01 0.  0.
<mgrwt>
<rscale>  0 0.12523656E+03</rscale>
<asrwt>0</asrwt>
<pdfrwt beam="2">  1        4 0.85984178E-02 0.12523656E+03</pdfrwt>
<pdfrwt beam="1">  1       -4 0.10793368E-01 0.12523656E+03</pdfrwt>
<totfact> 0.10374456E+04</totfact>
</mgrwt>
</event>
<event>
 5    1  0.3196850E-002  0.1250165E+03  0.7818608E-02  0.1235044E+00
         -4   -1    0    0    0  501 -0.00000000000E+00  0.00000000000E+00  0.73969381080E+02  0.73980282761E+02  0.12700000000E+01 0. -1.
          4   -1    0    0  501    0  0.00000000000E+00 -0.00000000000E+00 -0.52800487588E+02  0.52815758912E+02  0.12700000000E+01 0. -1.
         25    2    1    2    0    0  0.00000000000E+00  0.00000000000E+00  0.21168893492E+02  0.12679604167E+03  0.12501645545E+03 0.  0.
    9000005    1    3    3    0    0 -0.62380537148E+02 -0.37949776842E+01  0.98355165390E+01  0.63272985200E+02  0.10000000000E+01 0.  0.
    9000005    1    3    3    0    0  0.62380537148E+02  0.37949776842E+01  0.11333376953E+02  0.63523056473E+02  0.10000000000E+01 0.  0.
<mgrwt>
<rscale>  0 0.12501646E+03</rscale>
<asrwt>0</asrwt>
<pdfrwt beam="2">  1        4 0.81251652E-02 0.12501646E+03</pdfrwt>
<pdfrwt beam="1">  1       -4 0.11381918E-01 0.12501646E+03</pdfrwt>
<totfact> 0.10409713E+04</totfact>
</mgrwt>
</event>
<event>
 5    1  0.3196850E-002  0.1249987E+03  0.7818608E-02  0.1235071E+00
         -4   -1    0    0    0  501 -0.00000000000E+00  0.00000000000E+00  0.10125590138E+03  0.10126386554E+03  0.12700000000E+01 0. -1.
          4   -1    0    0  501    0  0.00000000000E+00 -0.00000000000E+00 -0.38557260290E+02  0.38578170266E+02  0.12700000000E+01 0. -1.
         25    2    1    2    0    0  0.00000000000E+00  0.00000000000E+00  0.62698641091E+02  0.13984203581E+03  0.12499870153E+03 0.  0.
    9000005    1    3    3    0    0 -0.65128941090E+01  0.36748813777E+02 -0.24725241277E+02  0.44779801918E+02  0.10000000000E+01 0.  0.
    9000005    1    3    3    0    0  0.65128941090E+01 -0.36748813777E+02  0.87423882368E+02  0.95062233889E+02  0.10000000000E+01 0.  0.
<mgrwt>
<rscale>  0 0.12499870E+03</rscale>
<asrwt>0</asrwt>
<pdfrwt beam="2">  1        4 0.59341073E-02 0.12499870E+03</pdfrwt>
<pdfrwt beam="1">  1       -4 0.15580052E-01 0.12499870E+03</pdfrwt>
<totfact> 0.10137157E+04</totfact>
</mgrwt>
</event>
<event>
 5    1  0.3196850E-002  0.1249565E+03  0.7818608E-02  0.1235137E+00
          4   -1    0    0  501    0  0.00000000000E+00  0.00000000000E+00  0.84516512030E+02  0.84526053414E+02  0.12700000000E+01 0.  1.
         -4   -1    0    0    0  501 -0.00000000000E+00 -0.00000000000E+00 -0.46165702098E+02  0.46183167390E+02  0.12700000000E+01 0.  1.
         25    2    1    2    0    0  0.00000000000E+00  0.00000000000E+00  0.38350809932E+02  0.13070922080E+03  0.12495645554E+03 0.  0.
    9000005    1    3    3    0    0 -0.35381187999E+02 -0.23101036097E+02  0.67305013336E+02  0.79476104290E+02  0.10000000000E+01 0.  0.
    9000005    1    3    3    0    0  0.35381187999E+02  0.23101036097E+02 -0.28954203404E+02  0.51233116514E+02  0.10000000000E+01 0.  0.
<mgrwt>
<rscale>  0 0.12495646E+03</rscale>
<asrwt>0</asrwt>
<pdfrwt beam="1">  1        4 0.13004618E-01 0.12495646E+03</pdfrwt>
<pdfrwt beam="2">  1       -4 0.71044932E-02 0.12495646E+03</pdfrwt>
<totfact> 0.10339481E+04</totfact>
</mgrwt>
</event>
<event>
 5    1  0.3196850E-002  0.1249937E+03  0.7818608E-02  0.1235079E+00
          4   -1    0    0  501    0  0.00000000000E+00  0.00000000000E+00  0.52197866184E+01  0.53720640672E+01  0.12700000000E+01 0.  1.
         -4   -1    0    0    0  501 -0.00000000000E+00 -0.00000000000E+00 -0.73736783669E+03  0.73736893037E+03  0.12700000000E+01 0.  1.
         25    2    1    2    0    0  0.00000000000E+00  0.00000000000E+00 -0.73214805007E+03  0.74274099444E+03  0.12499367026E+03 0.  0.
    9000005    1    3    3    0    0  0.27732874823E+02  0.11643929527E+02 -0.40596015155E+02  0.50534442584E+02  0.10000000000E+01 0.  0.
    9000005    1    3    3    0    0 -0.27732874823E+02 -0.11643929527E+02 -0.69155203491E+03  0.69220655185E+03  0.10000000000E+01 0.  0.
<mgrwt>
<rscale>  0 0.12499367E+03</rscale>
<asrwt>0</asrwt>
<pdfrwt beam="1">  1        4 0.81484246E-03 0.12499367E+03</pdfrwt>
<pdfrwt beam="2">  1       -4 0.11345292E+00 0.12499367E+03</pdfrwt>
<totfact> 0.40929453E+03</totfact>
</mgrwt>
</event>
<event>
 5    1  0.3196850E-002  0.1249998E+03  0.7818608E-02  0.1235070E+00
          4   -1    0    0  501    0  0.00000000000E+00  0.00000000000E+00  0.37521643756E+03  0.37521858685E+03  0.12700000000E+01 0. -1.
         -4   -1    0    0    0  501 -0.00000000000E+00 -0.00000000000E+00 -0.10369713493E+02  0.10447193783E+02  0.12700000000E+01 0. -1.
         25    2    1    2    0    0  0.00000000000E+00  0.00000000000E+00  0.36484672406E+03  0.38566578063E+03  0.12499984915E+03 0.  0.
    9000005    1    3    3    0    0 -0.26753691216E+02  0.29979864332E+02  0.33009075840E+03  0.33252888753E+03  0.10000000000E+01 0.  0.
    9000005    1    3    3    0    0  0.26753691216E+02 -0.29979864332E+02  0.34755965664E+02  0.53136893100E+02  0.10000000000E+01 0.  0.
<mgrwt>
<rscale>  0 0.12499985E+03</rscale>
<asrwt>0</asrwt>
<pdfrwt beam="1">  1        4 0.57731739E-01 0.12499985E+03</pdfrwt>
<pdfrwt beam="2">  1       -4 0.16014657E-02 0.12499985E+03</pdfrwt>
<totfact> 0.65971423E+03</totfact>
</mgrwt>
</event>
<event>
 5    1  0.3196850E-002  0.1249990E+03  0.7818608E-02  0.1235071E+00
          4   -1    0    0  501    0  0.00000000000E+00  0.00000000000E+00  0.32106809595E+03  0.32107060771E+03  0.12700000000E+01 0.  1.
         -4   -1    0    0    0  501 -0.00000000000E+00 -0.00000000000E+00 -0.12130526899E+02  0.12196826753E+02  0.12700000000E+01 0.  1.
         25    2    1    2    0    0  0.00000000000E+00  0.00000000000E+00  0.30893756905E+03  0.33326743446E+03  0.12499904521E+03 0.  0.
    9000005    1    3    3    0    0 -0.34627842150E+02 -0.35156619435E+01  0.16091672783E+02  0.38358692155E+02  0.10000000000E+01 0.  0.
    9000005    1    3    3    0    0  0.34627842150E+02  0.35156619435E+01  0.29284589627E+03  0.29490874231E+03  0.10000000000E+01 0.  0.
<mgrwt>
<rscale>  0 0.12499905E+03</rscale>
<asrwt>0</asrwt>
<pdfrwt beam="1">  1        4 0.49400387E-01 0.12499905E+03</pdfrwt>
<pdfrwt beam="2">  1       -4 0.18715280E-02 0.12499905E+03</pdfrwt>
<totfact> 0.71606949E+03</totfact>
</mgrwt>
</event>
<event>
 5    1  0.3196850E-002  0.1250046E+03  0.7818608E-02  0.1235062E+00
          4   -1    0    0  501    0  0.00000000000E+00  0.00000000000E+00  0.17346144847E+03  0.17346609757E+03  0.12700000000E+01 0. -1.
         -4   -1    0    0    0  501 -0.00000000000E+00 -0.00000000000E+00 -0.22498210073E+02  0.22534026637E+02  0.12700000000E+01 0. -1.
         25    2    1    2    0    0  0.00000000000E+00  0.00000000000E+00  0.15096323840E+03  0.19600012421E+03  0.12500459728E+03 0.  0.
    9000005    1    3    3    0    0 -0.14995079011E+02  0.59472446294E+02  0.56685053867E+02  0.83522569373E+02  0.10000000000E+01 0.  0.
    9000005    1    3    3    0    0  0.14995079011E+02 -0.59472446294E+02  0.94278184534E+02  0.11247755484E+03  0.10000000000E+01 0.  0.
<mgrwt>
<rscale>  0 0.12500460E+03</rscale>
<asrwt>0</asrwt>
<pdfrwt beam="1">  1        4 0.26689490E-01 0.12500460E+03</pdfrwt>
<pdfrwt beam="2">  1       -4 0.34643758E-02 0.12500460E+03</pdfrwt>
<totfact> 0.90804320E+03</totfact>
</mgrwt>
</event>
<event>
 5    1  0.3196850E-002  0.1249988E+03  0.7818608E-02  0.1235071E+00
          4   -1    0    0  501    0  0.00000000000E+00  0.00000000000E+00  0.12475575523E+04  0.12475581987E+04  0.12700000000E+01 0. -1.
         -4   -1    0    0    0  501 -0.00000000000E+00 -0.00000000000E+00 -0.30016006887E+01  0.32592187245E+01  0.12700000000E+01 0. -1.
         25    2    1    2    0    0  0.00000000000E+00  0.00000000000E+00  0.12445559516E+04  0.12508174175E+04  0.12499878039E+03 0.  0.
    9000005    1    3    3    0    0 -0.42035534884E+02  0.23100601524E+02  0.22144379955E+03  0.22658106793E+03  0.10000000000E+01 0.  0.
    9000005    1    3    3    0    0  0.42035534884E+02 -0.23100601524E+02  0.10231121521E+04  0.10242363495E+04  0.10000000000E+01 0.  0.
<mgrwt>
<rscale>  0 0.12499878E+03</rscale>
<asrwt>0</asrwt>
<pdfrwt beam="1">  1        4 0.19195183E+00 0.12499878E+03</pdfrwt>
<pdfrwt beam="2">  1       -4 0.48165113E-03 0.12499878E+03</pdfrwt>
<totfact> 0.23420484E+03</totfact>
</mgrwt>
</event>
<event>
 5    1  0.3196850E-002  0.1249897E+03  0.7818608E-02  0.1235085E+00
         -4   -1    0    0    0  501 -0.00000000000E+00  0.00000000000E+00  0.11944940599E+04  0.11944947351E+04  0.12700000000E+01 0. -1.
          4   -1    0    0  501    0  0.00000000000E+00 -0.00000000000E+00 -0.31456518406E+01  0.33923480809E+01  0.12700000000E+01 0. -1.
         25    2    1    2    0    0  0.00000000000E+00  0.00000000000E+00  0.11913484081E+04  0.11978870831E+04  0.12498973766E+03 0.  0.
    9000005    1    3    3    0    0 -0.35222756077E+02 -0.74168719953E+01  0.10851992430E+04  0.10857965046E+04  0.10000000000E+01 0.  0.
    9000005    1    3    3    0    0  0.35222756077E+02  0.74168719953E+01  0.10614916509E+03  0.11209057848E+03  0.10000000000E+01 0.  0.
<mgrwt>
<rscale>  0 0.12498974E+03</rscale>
<asrwt>0</asrwt>
<pdfrwt beam="2">  1        4 0.50297493E-03 0.12498974E+03</pdfrwt>
<pdfrwt beam="1">  1       -4 0.18378737E+00 0.12498974E+03</pdfrwt>
<totfact> 0.24773660E+03</totfact>
</mgrwt>
</event>
<event>
 5    1  0.3196850E-002  0.1249987E+03  0.7818608E-02  0.1235071E+00
         -4   -1    0    0    0  501 -0.00000000000E+00  0.00000000000E+00  0.24281283756E+03  0.24281615882E+03  0.12700000000E+01 0. -1.
          4   -1    0    0  501    0  0.00000000000E+00 -0.00000000000E+00 -0.16058646048E+02  0.16108786823E+02  0.12700000000E+01 0. -1.
         25    2    1    2    0    0  0.00000000000E+00  0.00000000000E+00  0.22675419151E+03  0.25892494565E+03  0.12499865643E+03 0.  0.
    9000005    1    3    3    0    0  0.57206063347E+01  0.61219610040E+02  0.90254976654E+02  0.10921321715E+03  0.10000000000E+01 0.  0.
    9000005    1    3    3    0    0 -0.57206063347E+01 -0.61219610040E+02  0.13649921486E+03  0.14971172849E+03  0.10000000000E+01 0.  0.
<mgrwt>
<rscale>  0 0.12499866E+03</rscale>
<asrwt>0</asrwt>
<pdfrwt beam="2">  1        4 0.24746734E-02 0.12499866E+03</pdfrwt>
<pdfrwt beam="1">  1       -4 0.37359933E-01 0.12499866E+03</pdfrwt>
<totfact> 0.81059590E+03</totfact>
</mgrwt>
</event>
<event>
 4    1  0.3196850E-002  0.1250921E+03  0.7818608E-02  0.1234925E+00
         -4   -1    0    0    0  501 -0.00000000000E+00  0.00000000000E+00  0.70119222485E+02  0.70130722668E+02  0.12700000000E+01 0. -1.
          4   -1    0    0  501    0  0.00000000000E+00 -0.00000000000E+00 -0.55767474508E+02  0.55781933572E+02  0.12700000000E+01 0. -1.
    9000005    1    1    2    0    0  0.40767442620E+02 -0.40120143756E+02 -0.18276278053E+02  0.60055246668E+02  0.10000000000E+01 0.  0.
    9000005    1    1    2    0    0 -0.40767442620E+02  0.40120143756E+02  0.32628026031E+02  0.65857409572E+02  0.10000000000E+01 0.  0.
<mgrwt>
<rscale>  0 0.12509206E+03</rscale>
<asrwt>0</asrwt>
<pdfrwt beam="2">  1        4 0.85816084E-02 0.12509206E+03</pdfrwt>
<pdfrwt beam="1">  1       -4 0.10789570E-01 0.12509206E+03</pdfrwt>
<totfact> 0.10411229E+04</totfact>
</mgrwt>
</event>
<event>
 5    1  0.3196850E-002  0.1249547E+03  0.7818608E-02  0.1235140E+00
         -4   -1    0    0    0  501 -0.00000000000E+00  0.00000000000E+00  0.35908503811E+02  0.35930955261E+02  0.12700000000E+01 0.  1.
          4   -1    0    0  501    0  0.00000000000E+00 -0.00000000000E+00 -0.10864453363E+03  0.10865195620E+03  0.12700000000E+01 0.  1.
         25    2    1    2    0    0  0.00000000000E+00  0.00000000000E+00 -0.72736029816E+02  0.14458291147E+03  0.12495474483E+03 0.  0.
    9000005    1    3    3    0    0  0.60646805079E+02  0.13088515474E+02 -0.44797885659E+02  0.76532311890E+02  0.10000000000E+01 0.  0.
    9000005    1    3    3    0    0 -0.60646805079E+02 -0.13088515474E+02 -0.27938144157E+02  0.68050599575E+02  0.10000000000E+01 0.  0.
<mgrwt>
<rscale>  0 0.12495474E+03</rscale>
<asrwt>0</asrwt>
<pdfrwt beam="2">  1        4 0.16716842E-01 0.12495474E+03</pdfrwt>
<pdfrwt beam="1">  1       -4 0.55266832E-02 0.12495474E+03</pdfrwt>
<totfact> 0.10049708E+04</totfact>
</mgrwt>
</event>
<event>
 5    1  0.3196850E-002  0.1249984E+03  0.7818608E-02  0.1235072E+00
          4   -1    0    0  501    0  0.00000000000E+00  0.00000000000E+00  0.13157777470E+02  0.13218926127E+02  0.12700000000E+01 0.  1.
         -4   -1    0    0    0  501 -0.00000000000E+00 -0.00000000000E+00 -0.29611944716E+03  0.29612217054E+03  0.12700000000E+01 0.  1.
         25    2    1    2    0    0  0.00000000000E+00  0.00000000000E+00 -0.28296166969E+03  0.30934109667E+03  0.12499843029E+03 0.  0.
    9000005    1    3    3    0    0  0.53762674763E+02 -0.25840783456E+02 -0.95382454970E+02  0.11250326219E+03  0.10000000000E+01 0.  0.
    9000005    1    3    3    0    0 -0.53762674763E+02  0.25840783456E+02 -0.18757921472E+03  0.19683783448E+03  0.10000000000E+01 0.  0.
<mgrwt>
<rscale>  0 0.12499843E+03</rscale>
<asrwt>0</asrwt>
<pdfrwt beam="1">  1        4 0.20291869E-02 0.12499843E+03</pdfrwt>
<pdfrwt beam="2">  1       -4 0.45561746E-01 0.12499843E+03</pdfrwt>
<totfact> 0.74444447E+03</totfact>
</mgrwt>
</event>
<event>
 5    1  0.3196850E-002  0.1249910E+03  0.7818608E-02  0.1235083E+00
          4   -1    0    0  501    0  0.00000000000E+00  0.00000000000E+00  0.11989374824E+03  0.11990047442E+03  0.12700000000E+01 0.  1.
         -4   -1    0    0    0  501 -0.00000000000E+00 -0.00000000000E+00 -0.32556205270E+02  0.32580966860E+02  0.12700000000E+01 0.  1.
         25    2    1    2    0    0  0.00000000000E+00  0.00000000000E+00  0.87337542971E+02  0.15248144128E+03  0.12499097377E+03 0.  0.
    9000005    1    3    3    0    0  0.14585028837E+02 -0.28465723566E+02 -0.21818985025E+02  0.38730977161E+02  0.10000000000E+01 0.  0.
    9000005    1    3    3    0    0 -0.14585028837E+02  0.28465723566E+02  0.10915652800E+03  0.11375046412E+03  0.10000000000E+01 0.  0.
<mgrwt>
<rscale>  0 0.12499097E+03</rscale>
<asrwt>0</asrwt>
<pdfrwt beam="1">  1        4 0.18447614E-01 0.12499097E+03</pdfrwt>
<pdfrwt beam="2">  1       -4 0.50110691E-02 0.12499097E+03</pdfrwt>
<totfact> 0.98831410E+03</totfact>
</mgrwt>
</event>
<event>
 5    1  0.3196850E-002  0.1249948E+03  0.7818608E-02  0.1235077E+00
          4   -1    0    0  501    0  0.00000000000E+00  0.00000000000E+00  0.36590659020E+02  0.36612692165E+02  0.12700000000E+01 0.  1.
         -4   -1    0    0    0  501 -0.00000000000E+00 -0.00000000000E+00 -0.10668848504E+03  0.10669604369E+03  0.12700000000E+01 0.  1.
         25    2    1    2    0    0  0.00000000000E+00  0.00000000000E+00 -0.70097826018E+02  0.14330873586E+03  0.12499475413E+03 0.  0.
    9000005    1    3    3    0    0  0.42134582590E+02  0.81692512949E+01  0.17024496123E+02  0.46183256544E+02  0.10000000000E+01 0.  0.
    9000005    1    3    3    0    0 -0.42134582590E+02 -0.81692512949E+01 -0.87122322141E+02  0.97125479314E+02  0.10000000000E+01 0.  0.
<mgrwt>
<rscale>  0 0.12499475E+03</rscale>
<asrwt>0</asrwt>
<pdfrwt beam="1">  1        4 0.56316085E-02 0.12499475E+03</pdfrwt>
<pdfrwt beam="2">  1       -4 0.16415889E-01 0.12499475E+03</pdfrwt>
<totfact> 0.10066654E+04</totfact>
</mgrwt>
</event>
<event>
 5    1  0.3196850E-002  0.1249958E+03  0.7818608E-02  0.1235076E+00
         -4   -1    0    0    0  501 -0.00000000000E+00  0.00000000000E+00  0.20625627534E+03  0.20626018525E+03  0.12700000000E+01 0.  1.
          4   -1    0    0  501    0  0.00000000000E+00 -0.00000000000E+00 -0.18912149050E+02  0.18954742987E+02  0.12700000000E+01 0.  1.
         25    2    1    2    0    0  0.00000000000E+00  0.00000000000E+00  0.18734412629E+03  0.22521492823E+03  0.12499576890E+03 0.  0.
    9000005    1    3    3    0    0 -0.40989701054E+02 -0.15461603123E+02  0.13381185936E+02  0.45817822959E+02  0.10000000000E+01 0.  0.
    9000005    1    3    3    0    0  0.40989701054E+02  0.15461603123E+02  0.17396294035E+03  0.17939710527E+03  0.10000000000E+01 0.  0.
<mgrwt>
<rscale>  0 0.12499577E+03</rscale>
<asrwt>0</asrwt>
<pdfrwt beam="2">  1        4 0.29131386E-02 0.12499577E+03</pdfrwt>
<pdfrwt beam="1">  1       -4 0.31735312E-01 0.12499577E+03</pdfrwt>
<totfact> 0.86057933E+03</totfact>
</mgrwt>
</event>
<event>
 5    1  0.3196850E-002  0.1250077E+03  0.7818608E-02  0.1235057E+00
          4   -1    0    0  501    0  0.00000000000E+00  0.00000000000E+00  0.19910260913E+02  0.19950724038E+02  0.12700000000E+01 0. -1.
         -4   -1    0    0    0  501 -0.00000000000E+00 -0.00000000000E+00 -0.19597518958E+03  0.19597930460E+03  0.12700000000E+01 0. -1.
         25    2    1    2    0    0  0.00000000000E+00  0.00000000000E+00 -0.17606492867E+03  0.21593002864E+03  0.12500767241E+03 0.  0.
    9000005    1    3    3    0    0 -0.60690643798E+02 -0.21352868151E+01 -0.11352547390E+03  0.12875149288E+03  0.10000000000E+01 0.  0.
    9000005    1    3    3    0    0  0.60690643798E+02  0.21352868151E+01 -0.62539454769E+02  0.87178535760E+02  0.10000000000E+01 0.  0.
<mgrwt>
<rscale>  0 0.12500767E+03</rscale>
<asrwt>0</asrwt>
<pdfrwt beam="1">  1        4 0.30665463E-02 0.12500767E+03</pdfrwt>
<pdfrwt beam="2">  1       -4 0.30153457E-01 0.12500767E+03</pdfrwt>
<totfact> 0.87501493E+03</totfact>
</mgrwt>
</event>
<event>
 5    1  0.3196850E-002  0.1249999E+03  0.7818608E-02  0.1235070E+00
         -4   -1    0    0    0  501 -0.00000000000E+00  0.00000000000E+00  0.19976902714E+03  0.19977306401E+03  0.12700000000E+01 0.  1.
          4   -1    0    0  501    0  0.00000000000E+00 -0.00000000000E+00 -0.19528925249E+02  0.19570176836E+02  0.12700000000E+01 0.  1.
         25    2    1    2    0    0  0.00000000000E+00  0.00000000000E+00  0.18024010189E+03  0.21934324085E+03  0.12499985190E+03 0.  0.
    9000005    1    3    3    0    0 -0.29613448709E+02  0.10936186708E+01 -0.64243982756E+01  0.30338510831E+02  0.10000000000E+01 0.  0.
    9000005    1    3    3    0    0  0.29613448709E+02 -0.10936186708E+01  0.18666450017E+03  0.18900473002E+03  0.10000000000E+01 0.  0.
<mgrwt>
<rscale>  0 0.12499985E+03</rscale>
<asrwt>0</asrwt>
<pdfrwt beam="2">  1        4 0.30079338E-02 0.12499985E+03</pdfrwt>
<pdfrwt beam="1">  1       -4 0.30737180E-01 0.12499985E+03</pdfrwt>
<totfact> 0.86972667E+03</totfact>
</mgrwt>
</event>
<event>
 5    1  0.3196850E-002  0.1249639E+03  0.7818608E-02  0.1235126E+00
         -4   -1    0    0    0  501 -0.00000000000E+00  0.00000000000E+00  0.42450204830E+03  0.42450394805E+03  0.12700000000E+01 0. -1.
          4   -1    0    0  501    0  0.00000000000E+00 -0.00000000000E+00 -0.91508749567E+01  0.92385828174E+01  0.12700000000E+01 0. -1.
         25    2    1    2    0    0  0.00000000000E+00  0.00000000000E+00  0.41535117335E+03  0.43374253087E+03  0.12496393834E+03 0.  0.
    9000005    1    3    3    0    0  0.50546586769E+02 -0.39367462539E+01  0.33437879334E+03  0.33820205919E+03  0.10000000000E+01 0.  0.
    9000005    1    3    3    0    0 -0.50546586769E+02  0.39367462539E+01  0.80972380004E+02  0.95540471679E+02  0.10000000000E+01 0.  0.
<mgrwt>
<rscale>  0 0.12496394E+03</rscale>
<asrwt>0</asrwt>
<pdfrwt beam="2">  1        4 0.14147201E-02 0.12496394E+03</pdfrwt>
<pdfrwt beam="1">  1       -4 0.65314889E-01 0.12496394E+03</pdfrwt>
<totfact> 0.61447054E+03</totfact>
</mgrwt>
</event>
<event>
 5    1  0.3196850E-002  0.1250062E+03  0.7818608E-02  0.1235060E+00
         -4   -1    0    0    0  501 -0.00000000000E+00  0.00000000000E+00  0.17995454363E+04  0.17995458845E+04  0.12700000000E+01 0. -1.
          4   -1    0    0  501    0  0.00000000000E+00 -0.00000000000E+00 -0.19846750305E+01  0.23562332178E+01  0.12700000000E+01 0. -1.
         25    2    1    2    0    0  0.00000000000E+00  0.00000000000E+00  0.17975607613E+04  0.18019021177E+04  0.12500620452E+03 0.  0.
    9000005    1    3    3    0    0 -0.48131743984E+01 -0.15516086832E+02  0.17686477362E+04  0.17687226268E+04  0.10000000000E+01 0.  0.
    9000005    1    3    3    0    0  0.48131743984E+01  0.15516086832E+02  0.28913025049E+02  0.33179490892E+02  0.10000000000E+01 0.  0.
<mgrwt>
<rscale>  0 0.12500620E+03</rscale>
<asrwt>0</asrwt>
<pdfrwt beam="2">  1        4 0.33394802E-03 0.12500620E+03</pdfrwt>
<pdfrwt beam="1">  1       -4 0.27688381E+00 0.12500620E+03</pdfrwt>
<totfact> 0.12672277E+03</totfact>
</mgrwt>
</event>
<event>
 5    1  0.3196850E-002  0.1250199E+03  0.7818608E-02  0.1235038E+00
         -4   -1    0    0    0  501 -0.00000000000E+00  0.00000000000E+00  0.11245656045E+02  0.11317140976E+02  0.12700000000E+01 0.  1.
          4   -1    0    0  501    0  0.00000000000E+00 -0.00000000000E+00 -0.34629350833E+03  0.34629583713E+03  0.12700000000E+01 0.  1.
         25    2    1    2    0    0  0.00000000000E+00  0.00000000000E+00 -0.33504785228E+03  0.35761297810E+03  0.12501991356E+03 0.  0.
    9000005    1    3    3    0    0  0.32331880927E+02  0.53451406464E+02 -0.16173809473E+03  0.17338573950E+03  0.10000000000E+01 0.  0.
    9000005    1    3    3    0    0 -0.32331880927E+02 -0.53451406464E+02 -0.17330975756E+03  0.18422723860E+03  0.10000000000E+01 0.  0.
<mgrwt>
<rscale>  0 0.12501991E+03</rscale>
<asrwt>0</asrwt>
<pdfrwt beam="2">  1        4 0.53281594E-01 0.12501991E+03</pdfrwt>
<pdfrwt beam="1">  1       -4 0.17357792E-02 0.12501991E+03</pdfrwt>
<totfact> 0.68864739E+03</totfact>
</mgrwt>
</event>
<event>
 5    1  0.3196850E-002  0.1249973E+03  0.7818608E-02  0.1235074E+00
          4   -1    0    0  501    0  0.00000000000E+00  0.00000000000E+00  0.11538088544E+03  0.11538787468E+03  0.12700000000E+01 0. -1.
         -4   -1    0    0    0  501 -0.00000000000E+00 -0.00000000000E+00 -0.33833850992E+02  0.33857678198E+02  0.12700000000E+01 0. -1.
         25    2    1    2    0    0  0.00000000000E+00  0.00000000000E+00  0.81547034444E+02  0.14924555288E+03  0.12499726488E+03 0.  0.
    9000005    1    3    3    0    0  0.96982643205E+01 -0.15356051485E+02 -0.30618875075E+02  0.35614325192E+02  0.10000000000E+01 0.  0.
    9000005    1    3    3    0    0 -0.96982643205E+01  0.15356051485E+02  0.11216590952E+03  0.11363122769E+03  0.10000000000E+01 0.  0.
<mgrwt>
<rscale>  0 0.12499726E+03</rscale>
<asrwt>0</asrwt>
<pdfrwt beam="1">  1        4 0.17753276E-01 0.12499726E+03</pdfrwt>
<pdfrwt beam="2">  1       -4 0.52075783E-02 0.12499726E+03</pdfrwt>
<totfact> 0.99460421E+03</totfact>
</mgrwt>
</event>
<event>
 5    1  0.3196850E-002  0.1250012E+03  0.7818608E-02  0.1235067E+00
          4   -1    0    0  501    0  0.00000000000E+00  0.00000000000E+00  0.33477349045E+02  0.33501429807E+02  0.12700000000E+01 0. -1.
         -4   -1    0    0    0  501 -0.00000000000E+00 -0.00000000000E+00 -0.11661605106E+03  0.11662296629E+03  0.12700000000E+01 0. -1.
         25    2    1    2    0    0  0.00000000000E+00  0.00000000000E+00 -0.83138702019E+02  0.15012439610E+03  0.12500116211E+03 0.  0.
    9000005    1    3    3    0    0  0.61514653113E+02  0.90205260909E+01 -0.49155558647E+02  0.79263430310E+02  0.10000000000E+01 0.  0.
    9000005    1    3    3    0    0 -0.61514653113E+02 -0.90205260909E+01 -0.33983143372E+02  0.70860965785E+02  0.10000000000E+01 0.  0.
<mgrwt>
<rscale>  0 0.12500116E+03</rscale>
<asrwt>0</asrwt>
<pdfrwt beam="1">  1        4 0.51527457E-02 0.12500116E+03</pdfrwt>
<pdfrwt beam="2">  1       -4 0.17943315E-01 0.12500116E+03</pdfrwt>
<totfact> 0.99276311E+03</totfact>
</mgrwt>
</event>
<event>
 5    1  0.3196850E-002  0.1250201E+03  0.7818608E-02  0.1235038E+00
         -4   -1    0    0    0  501 -0.00000000000E+00  0.00000000000E+00  0.83984254650E+02  0.83993856497E+02  0.12700000000E+01 0. -1.
          4   -1    0    0  501    0  0.00000000000E+00 -0.00000000000E+00 -0.46505703166E+02  0.46523040818E+02  0.12700000000E+01 0. -1.
         25    2    1    2    0    0  0.00000000000E+00  0.00000000000E+00  0.37478551485E+02  0.13051689731E+03  0.12502007304E+03 0.  0.
    9000005    1    3    3    0    0  0.53667298281E+02  0.15064472674E+02  0.48255829438E+02  0.73734268265E+02  0.10000000000E+01 0.  0.
    9000005    1    3    3    0    0 -0.53667298281E+02 -0.15064472674E+02 -0.10777277954E+02  0.56782629050E+02  0.10000000000E+01 0.  0.
<mgrwt>
<rscale>  0 0.12502007E+03</rscale>
<asrwt>0</asrwt>
<pdfrwt beam="2">  1        4 0.71567959E-02 0.12502007E+03</pdfrwt>
<pdfrwt beam="1">  1       -4 0.12922727E-01 0.12502007E+03</pdfrwt>
<totfact> 0.10328779E+04</totfact>
</mgrwt>
</event>
<event>
 5    1  0.3196850E-002  0.1250003E+03  0.7818608E-02  0.1235069E+00
          4   -1    0    0  501    0  0.00000000000E+00  0.00000000000E+00  0.50941169317E+02  0.50956997865E+02  0.12700000000E+01 0. -1.
         -4   -1    0    0    0  501 -0.00000000000E+00 -0.00000000000E+00 -0.76648980056E+02  0.76659500674E+02  0.12700000000E+01 0. -1.
         25    2    1    2    0    0  0.00000000000E+00  0.00000000000E+00 -0.25707810739E+02  0.12761649854E+03  0.12500031667E+03 0.  0.
    9000005    1    3    3    0    0  0.46795254542E+02 -0.33398436436E+02  0.12154038801E+02  0.58770503343E+02  0.10000000000E+01 0.  0.
    9000005    1    3    3    0    0 -0.46795254542E+02  0.33398436436E+02 -0.37861849540E+02  0.68845995196E+02  0.10000000000E+01 0.  0.
<mgrwt>
<rscale>  0 0.12500032E+03</rscale>
<asrwt>0</asrwt>
<pdfrwt beam="1">  1        4 0.78391299E-02 0.12500032E+03</pdfrwt>
<pdfrwt beam="2">  1       -4 0.11794178E-01 0.12500032E+03</pdfrwt>
<totfact> 0.10395704E+04</totfact>
</mgrwt>
</event>
<event>
 5    1  0.3196850E-002  0.1250051E+03  0.7818608E-02  0.1235061E+00
         -4   -1    0    0    0  501 -0.00000000000E+00  0.00000000000E+00  0.18852694925E+03  0.18853122684E+03  0.12700000000E+01 0. -1.
          4   -1    0    0  501    0  0.00000000000E+00 -0.00000000000E+00 -0.20697575931E+02  0.20736502826E+02  0.12700000000E+01 0. -1.
         25    2    1    2    0    0  0.00000000000E+00  0.00000000000E+00  0.16782937332E+03  0.20926772967E+03  0.12500513642E+03 0.  0.
    9000005    1    3    3    0    0  0.23830128148E+02 -0.38611891787E+02  0.15585733727E+03  0.16233072037E+03  0.10000000000E+01 0.  0.
    9000005    1    3    3    0    0 -0.23830128148E+02  0.38611891787E+02  0.11972036056E+02  0.46937009302E+02  0.10000000000E+01 0.  0.
<mgrwt>
<rscale>  0 0.12500514E+03</rscale>
<asrwt>0</asrwt>
<pdfrwt beam="2">  1        4 0.31875658E-02 0.12500514E+03</pdfrwt>
<pdfrwt beam="1">  1       -4 0.29007470E-01 0.12500514E+03</pdfrwt>
<totfact> 0.88585435E+03</totfact>
</mgrwt>
</event>
<event>
 5    1  0.3196850E-002  0.1250008E+03  0.7818608E-02  0.1235068E+00
          4   -1    0    0  501    0  0.00000000000E+00  0.00000000000E+00  0.12523838353E+02  0.12588066853E+02  0.12700000000E+01 0.  1.
         -4   -1    0    0    0  501 -0.00000000000E+00 -0.00000000000E+00 -0.31104574791E+03  0.31104834061E+03  0.12700000000E+01 0.  1.
         25    2    1    2    0    0  0.00000000000E+00  0.00000000000E+00 -0.29852190956E+03  0.32363640746E+03  0.12500077498E+03 0.  0.
    9000005    1    3    3    0    0 -0.11883023492E+02  0.60730877610E+02 -0.12671180501E+03  0.14101888977E+03  0.10000000000E+01 0.  0.
    9000005    1    3    3    0    0  0.11883023492E+02 -0.60730877610E+02 -0.17181010455E+03  0.18261751769E+03  0.10000000000E+01 0.  0.
<mgrwt>
<rscale>  0 0.12500077E+03</rscale>
<asrwt>0</asrwt>
<pdfrwt beam="1">  1        4 0.19318847E-02 0.12500077E+03</pdfrwt>
<pdfrwt beam="2">  1       -4 0.47858326E-01 0.12500077E+03</pdfrwt>
<totfact> 0.72724454E+03</totfact>
</mgrwt>
</event>
<event>
 5    1  0.3196850E-002  0.1250006E+03  0.7818608E-02  0.1235068E+00
         -4   -1    0    0    0  501 -0.00000000000E+00  0.00000000000E+00  0.15201373932E+01  0.19808376244E+01  0.12700000000E+01 0.  1.
          4   -1    0    0  501    0  0.00000000000E+00 -0.00000000000E+00 -0.22310803176E+04  0.22310806791E+04  0.12700000000E+01 0.  1.
         25    2    1    2    0    0  0.00000000000E+00  0.00000000000E+00 -0.22295601802E+04  0.22330615167E+04  0.12500056056E+03 0.  0.
    9000005    1    3    3    0    0 -0.37331335305E+02  0.12769587625E+02 -0.19805305019E+04  0.19809237138E+04  0.10000000000E+01 0.  0.
    9000005    1    3    3    0    0  0.37331335305E+02 -0.12769587625E+02 -0.24902967836E+03  0.25213780293E+03  0.10000000000E+01 0.  0.
<mgrwt>
<rscale>  0 0.12500056E+03</rscale>
<asrwt>0</asrwt>
<pdfrwt beam="2">  1        4 0.34327632E+00 0.12500056E+03</pdfrwt>
<pdfrwt beam="1">  1       -4 0.26933536E-03 0.12500056E+03</pdfrwt>
<totfact> 0.71177800E+02</totfact>
</mgrwt>
</event>
<event>
 5    1  0.3196850E-002  0.1250019E+03  0.7818608E-02  0.1235066E+00
         -4   -1    0    0    0  501 -0.00000000000E+00  0.00000000000E+00  0.30566674336E+02  0.30593046268E+02  0.12700000000E+01 0.  1.
          4   -1    0    0  501    0  0.00000000000E+00 -0.00000000000E+00 -0.12771360381E+03  0.12771991817E+03  0.12700000000E+01 0.  1.
         25    2    1    2    0    0  0.00000000000E+00  0.00000000000E+00 -0.97146929473E+02  0.15831296444E+03  0.12500187520E+03 0.  0.
    9000005    1    3    3    0    0  0.30161366146E+02 -0.36009489168E+02  0.36293066951E+01  0.47122852047E+02  0.10000000000E+01 0.  0.
    9000005    1    3    3    0    0 -0.30161366146E+02  0.36009489168E+02 -0.10077623617E+03  0.11119011239E+03  0.10000000000E+01 0.  0.
<mgrwt>
<rscale>  0 0.12500188E+03</rscale>
<asrwt>0</asrwt>
<pdfrwt beam="2">  1        4 0.19650761E-01 0.12500188E+03</pdfrwt>
<pdfrwt beam="1">  1       -4 0.47050797E-02 0.12500188E+03</pdfrwt>
<totfact> 0.97664904E+03</totfact>
</mgrwt>
</event>
<event>
 5    1  0.3196850E-002  0.1249978E+03  0.7818608E-02  0.1235073E+00
         -4   -1    0    0    0  501 -0.00000000000E+00  0.00000000000E+00  0.48032991192E+01  0.49683581220E+01  0.12700000000E+01 0.  1.
          4   -1    0    0  501    0  0.00000000000E+00 -0.00000000000E+00 -0.79931224101E+03  0.79931324994E+03  0.12700000000E+01 0.  1.
         25    2    1    2    0    0  0.00000000000E+00  0.00000000000E+00 -0.79450894189E+03  0.80428160806E+03  0.12499778526E+03 0.  0.
    9000005    1    3    3    0    0 -0.50909942948E+02 -0.49509697705E+01 -0.16626364089E+03  0.17395669770E+03  0.10000000000E+01 0.  0.
    9000005    1    3    3    0    0  0.50909942948E+02  0.49509697705E+01 -0.62824530100E+03  0.63032491036E+03  0.10000000000E+01 0.  0.
<mgrwt>
<rscale>  0 0.12499779E+03</rscale>
<asrwt>0</asrwt>
<pdfrwt beam="2">  1        4 0.12298378E+00 0.12499779E+03</pdfrwt>
<pdfrwt beam="1">  1       -4 0.75174419E-03 0.12499779E+03</pdfrwt>
<totfact> 0.38076167E+03</totfact>
</mgrwt>
</event>
<event>
 5    1  0.3196850E-002  0.1250015E+03  0.7818608E-02  0.1235067E+00
         -4   -1    0    0    0  501 -0.00000000000E+00  0.00000000000E+00  0.44831720954E+01  0.46595849640E+01  0.12700000000E+01 0. -1.
          4   -1    0    0  501    0  0.00000000000E+00 -0.00000000000E+00 -0.85434506319E+03  0.85434600713E+03  0.12700000000E+01 0. -1.
         25    2    1    2    0    0  0.00000000000E+00  0.00000000000E+00 -0.84986189109E+03  0.85900559209E+03  0.12500149324E+03 0.  0.
    9000005    1    3    3    0    0 -0.90188838761E+01  0.29884957624E+02 -0.52898578710E+02  0.61430534656E+02  0.10000000000E+01 0.  0.
    9000005    1    3    3    0    0  0.90188838761E+01 -0.29884957624E+02 -0.79696331238E+03  0.79757505744E+03  0.10000000000E+01 0.  0.
<mgrwt>
<rscale>  0 0.12500149E+03</rscale>
<asrwt>0</asrwt>
<pdfrwt beam="2">  1        4 0.13145122E+00 0.12500149E+03</pdfrwt>
<pdfrwt beam="1">  1       -4 0.70336230E-03 0.12500149E+03</pdfrwt>
<totfact> 0.35760480E+03</totfact>
</mgrwt>
</event>
<event>
 5    1  0.3196850E-002  0.1250062E+03  0.7818608E-02  0.1235060E+00
          4   -1    0    0  501    0  0.00000000000E+00  0.00000000000E+00  0.52796360202E+01  0.54302354005E+01  0.12700000000E+01 0. -1.
         -4   -1    0    0    0  501 -0.00000000000E+00 -0.00000000000E+00 -0.72938830512E+03  0.72938941077E+03  0.12700000000E+01 0. -1.
         25    2    1    2    0    0  0.00000000000E+00  0.00000000000E+00 -0.72410866910E+03  0.73481964617E+03  0.12500619079E+03 0.  0.
    9000005    1    3    3    0    0  0.53094003201E+01  0.78985796440E+01  0.10236395559E+01  0.96241950360E+01  0.10000000000E+01 0.  0.
    9000005    1    3    3    0    0 -0.53094003201E+01 -0.78985796440E+01 -0.72513230866E+03  0.72519545114E+03  0.10000000000E+01 0.  0.
<mgrwt>
<rscale>  0 0.12500619E+03</rscale>
<asrwt>0</asrwt>
<pdfrwt beam="1">  1        4 0.82392189E-03 0.12500619E+03</pdfrwt>
<pdfrwt beam="2">  1       -4 0.11222518E+00 0.12500619E+03</pdfrwt>
<totfact> 0.41305384E+03</totfact>
</mgrwt>
</event>
<event>
 5    1  0.3196850E-002  0.1250023E+03  0.7818608E-02  0.1235066E+00
          4   -1    0    0  501    0  0.00000000000E+00  0.00000000000E+00  0.37353953357E+02  0.37375536536E+02  0.12700000000E+01 0. -1.
         -4   -1    0    0    0  501 -0.00000000000E+00 -0.00000000000E+00 -0.10452215614E+03  0.10452987145E+03  0.12700000000E+01 0. -1.
         25    2    1    2    0    0  0.00000000000E+00  0.00000000000E+00 -0.67168202787E+02  0.14190540798E+03  0.12500230938E+03 0.  0.
    9000005    1    3    3    0    0 -0.32591863588E+02 -0.44857848833E+02 -0.86018586272E+00  0.55463466298E+02  0.10000000000E+01 0.  0.
    9000005    1    3    3    0    0  0.32591863588E+02  0.44857848833E+02 -0.66308016924E+02  0.86441941686E+02  0.10000000000E+01 0.  0.
<mgrwt>
<rscale>  0 0.12500231E+03</rscale>
<asrwt>0</asrwt>
<pdfrwt beam="1">  1        4 0.57490158E-02 0.12500231E+03</pdfrwt>
<pdfrwt beam="2">  1       -4 0.16082585E-01 0.12500231E+03</pdfrwt>
<totfact> 0.10093722E+04</totfact>
</mgrwt>
</event>
<event>
 5    1  0.3196850E-002  0.1249991E+03  0.7818608E-02  0.1235071E+00
          4   -1    0    0  501    0  0.00000000000E+00  0.00000000000E+00  0.80165622031E+02  0.80175681198E+02  0.12700000000E+01 0.  1.
         -4   -1    0    0    0  501 -0.00000000000E+00 -0.00000000000E+00 -0.48705146780E+02  0.48721701765E+02  0.12700000000E+01 0.  1.
         25    2    1    2    0    0  0.00000000000E+00  0.00000000000E+00  0.31460475251E+02  0.12889738296E+03  0.12499909532E+03 0.  0.
    9000005    1    3    3    0    0  0.24893572869E+02 -0.53681451240E+02  0.36451834806E+02  0.69506290637E+02  0.10000000000E+01 0.  0.
    9000005    1    3    3    0    0 -0.24893572869E+02  0.53681451240E+02 -0.49913595556E+01  0.59391092326E+02  0.10000000000E+01 0.  0.
<mgrwt>
<rscale>  0 0.12499910E+03</rscale>
<asrwt>0</asrwt>
<pdfrwt beam="1">  1        4 0.12335220E-01 0.12499910E+03</pdfrwt>
<pdfrwt beam="2">  1       -4 0.74951468E-02 0.12499910E+03</pdfrwt>
<totfact> 0.10368364E+04</totfact>
</mgrwt>
</event>
<event>
 5    1  0.3196850E-002  0.1249973E+03  0.7818608E-02  0.1235074E+00
         -4   -1    0    0    0  501 -0.00000000000E+00  0.00000000000E+00  0.50358257422E+02  0.50374269132E+02  0.12700000000E+01 0.  1.
          4   -1    0    0  501    0  0.00000000000E+00 -0.00000000000E+00 -0.77532286923E+02  0.77542687698E+02  0.12700000000E+01 0.  1.
         25    2    1    2    0    0  0.00000000000E+00  0.00000000000E+00 -0.27174029501E+02  0.12791695683E+03  0.12499727983E+03 0.  0.
    9000005    1    3    3    0    0 -0.52951827858E+02 -0.16248356065E+02  0.16022796675E+02  0.57668320260E+02  0.10000000000E+01 0.  0.
    9000005    1    3    3    0    0  0.52951827858E+02  0.16248356065E+02 -0.43196826175E+02  0.70248636570E+02  0.10000000000E+01 0.  0.
<mgrwt>
<rscale>  0 0.12499728E+03</rscale>
<asrwt>0</asrwt>
<pdfrwt beam="2">  1        4 0.11930076E-01 0.12499728E+03</pdfrwt>
<pdfrwt beam="1">  1       -4 0.77494559E-02 0.12499728E+03</pdfrwt>
<totfact> 0.10389919E+04</totfact>
</mgrwt>
</event>
<event>
 5    1  0.3196850E-002  0.1249965E+03  0.7818608E-02  0.1235075E+00
          4   -1    0    0  501    0  0.00000000000E+00  0.00000000000E+00  0.18124616873E+02  0.18169057124E+02  0.12700000000E+01 0.  1.
         -4   -1    0    0    0  501 -0.00000000000E+00 -0.00000000000E+00 -0.21519948928E+03  0.21520323670E+03  0.12700000000E+01 0.  1.
         25    2    1    2    0    0  0.00000000000E+00  0.00000000000E+00 -0.19707487241E+03  0.23337229382E+03  0.12499648871E+03 0.  0.
    9000005    1    3    3    0    0  0.42863762591E+02 -0.34762145586E+02 -0.43806943801E+02  0.70468129211E+02  0.10000000000E+01 0.  0.
    9000005    1    3    3    0    0 -0.42863762591E+02  0.34762145586E+02 -0.15326792860E+03  0.16290416461E+03  0.10000000000E+01 0.  0.
<mgrwt>
<rscale>  0 0.12499649E+03</rscale>
<asrwt>0</asrwt>
<pdfrwt beam="1">  1        4 0.27921095E-02 0.12499649E+03</pdfrwt>
<pdfrwt beam="2">  1       -4 0.33111319E-01 0.12499649E+03</pdfrwt>
<totfact> 0.84801096E+03</totfact>
</mgrwt>
</event>
<event>
 5    1  0.3196850E-002  0.1249974E+03  0.7818608E-02  0.1235073E+00
          4   -1    0    0  501    0  0.00000000000E+00  0.00000000000E+00  0.11583390471E+03  0.11584086662E+03  0.12700000000E+01 0.  1.
         -4   -1    0    0    0  501 -0.00000000000E+00 -0.00000000000E+00 -0.33701496027E+02  0.33725416743E+02  0.12700000000E+01 0.  1.
         25    2    1    2    0    0  0.00000000000E+00  0.00000000000E+00  0.82132408680E+02  0.14956628336E+03  0.12499736223E+03 0.  0.
    9000005    1    3    3    0    0 -0.81675960408E+01  0.48520831450E+02 -0.50299913231E+01  0.49470006291E+02  0.10000000000E+01 0.  0.
    9000005    1    3    3    0    0  0.81675960408E+01 -0.48520831450E+02  0.87162400003E+02  0.10009627707E+03  0.10000000000E+01 0.  0.
<mgrwt>
<rscale>  0 0.12499736E+03</rscale>
<asrwt>0</asrwt>
<pdfrwt beam="1">  1        4 0.17822976E-01 0.12499736E+03</pdfrwt>
<pdfrwt beam="2">  1       -4 0.51872212E-02 0.12499736E+03</pdfrwt>
<totfact> 0.99396124E+03</totfact>
</mgrwt>
</event>
<event>
 5    1  0.3196850E-002  0.1249894E+03  0.7818608E-02  0.1235086E+00
          4   -1    0    0  501    0  0.00000000000E+00  0.00000000000E+00  0.93645562103E+02  0.93654173434E+02  0.12700000000E+01 0.  1.
         -4   -1    0    0    0  501 -0.00000000000E+00 -0.00000000000E+00 -0.41685834526E+02  0.41705175939E+02  0.12700000000E+01 0.  1.
         25    2    1    2    0    0  0.00000000000E+00  0.00000000000E+00  0.51959727577E+02  0.13535934937E+03  0.12498936024E+03 0.  0.
    9000005    1    3    3    0    0  0.57205905190E+02 -0.22193106110E+02  0.13187300833E+02  0.62769056475E+02  0.10000000000E+01 0.  0.
    9000005    1    3    3    0    0 -0.57205905190E+02  0.22193106110E+02  0.38772426744E+02  0.72590292898E+02  0.10000000000E+01 0.  0.
<mgrwt>
<rscale>  0 0.12498936E+03</rscale>
<asrwt>0</asrwt>
<pdfrwt beam="1">  1        4 0.14409160E-01 0.12498936E+03</pdfrwt>
<pdfrwt beam="2">  1       -4 0.64153556E-02 0.12498936E+03</pdfrwt>
<totfact> 0.10232957E+04</totfact>
</mgrwt>
</event>
<event>
 5    1  0.3196850E-002  0.1250002E+03  0.7818608E-02  0.1235069E+00
          4   -1    0    0  501    0  0.00000000000E+00  0.00000000000E+00  0.20883017941E+02  0.20921599803E+02  0.12700000000E+01 0. -1.
         -4   -1    0    0    0  501 -0.00000000000E+00 -0.00000000000E+00 -0.18684112809E+03  0.18684544428E+03  0.12700000000E+01 0. -1.
         25    2    1    2    0    0  0.00000000000E+00  0.00000000000E+00 -0.16595811015E+03  0.20776704408E+03  0.12500020112E+03 0.  0.
    9000005    1    3    3    0    0  0.16566608744E+02  0.58024835571E+02 -0.55976236688E+02  0.82314477111E+02  0.10000000000E+01 0.  0.
    9000005    1    3    3    0    0 -0.16566608744E+02 -0.58024835571E+02 -0.10998187346E+03  0.12545256697E+03  0.10000000000E+01 0.  0.
<mgrwt>
<rscale>  0 0.12500020E+03</rscale>
<asrwt>0</asrwt>
<pdfrwt beam="1">  1        4 0.32160720E-02 0.12500020E+03</pdfrwt>
<pdfrwt beam="2">  1       -4 0.28748088E-01 0.12500020E+03</pdfrwt>
<totfact> 0.88841456E+03</totfact>
</mgrwt>
</event>
<event>
 5    1  0.3196850E-002  0.1249993E+03  0.7818608E-02  0.1235070E+00
          4   -1    0    0  501    0  0.00000000000E+00  0.00000000000E+00  0.12973951502E+03  0.12974573078E+03  0.12700000000E+01 0.  1.
         -4   -1    0    0    0  501 -0.00000000000E+00 -0.00000000000E+00 -0.30087726355E+02  0.30114517716E+02  0.12700000000E+01 0.  1.
         25    2    1    2    0    0  0.00000000000E+00  0.00000000000E+00  0.99651788660E+02  0.15986024850E+03  0.12499928027E+03 0.  0.
    9000005    1    3    3    0    0  0.41601980534E+02 -0.75057030135E+01 -0.90328210797E+01  0.43239475236E+02  0.10000000000E+01 0.  0.
    9000005    1    3    3    0    0 -0.41601980534E+02  0.75057030135E+01  0.10868460974E+03  0.11662077326E+03  0.10000000000E+01 0.  0.
<mgrwt>
<rscale>  0 0.12499928E+03</rscale>
<asrwt>0</asrwt>
<pdfrwt beam="1">  1        4 0.19962465E-01 0.12499928E+03</pdfrwt>
<pdfrwt beam="2">  1       -4 0.46314199E-02 0.12499928E+03</pdfrwt>
<totfact> 0.97371309E+03</totfact>
</mgrwt>
</event>
<event>
 5    1  0.3196850E-002  0.1249938E+03  0.7818608E-02  0.1235079E+00
         -4   -1    0    0    0  501 -0.00000000000E+00  0.00000000000E+00  0.10524960300E+03  0.10525726499E+03  0.12700000000E+01 0.  1.
          4   -1    0    0  501    0  0.00000000000E+00 -0.00000000000E+00 -0.37090562963E+02  0.37112299321E+02  0.12700000000E+01 0.  1.
         25    2    1    2    0    0  0.00000000000E+00  0.00000000000E+00  0.68159040041E+02  0.14236956431E+03  0.12499375225E+03 0.  0.
    9000005    1    3    3    0    0  0.55928197106E+02 -0.92160779050E+01  0.64041424064E+02  0.85528961876E+02  0.10000000000E+01 0.  0.
    9000005    1    3    3    0    0 -0.55928197106E+02  0.92160779050E+01  0.41176159768E+01  0.56840602431E+02  0.10000000000E+01 0.  0.
<mgrwt>
<rscale>  0 0.12499375E+03</rscale>
<asrwt>0</asrwt>
<pdfrwt beam="2">  1        4 0.57085020E-02 0.12499375E+03</pdfrwt>
<pdfrwt beam="1">  1       -4 0.16194508E-01 0.12499375E+03</pdfrwt>
<totfact> 0.10086129E+04</totfact>
</mgrwt>
</event>
<event>
 5    1  0.3196850E-002  0.1250011E+03  0.7818608E-02  0.1235068E+00
         -4   -1    0    0    0  501 -0.00000000000E+00  0.00000000000E+00  0.67563206903E+02  0.67575142079E+02  0.12700000000E+01 0.  1.
          4   -1    0    0  501    0  0.00000000000E+00 -0.00000000000E+00 -0.57793186349E+02  0.57807138732E+02  0.12700000000E+01 0.  1.
         25    2    1    2    0    0  0.00000000000E+00  0.00000000000E+00  0.97700205539E+01  0.12538228081E+03  0.12500105215E+03 0.  0.
    9000005    1    3    3    0    0 -0.38692405422E+02  0.27151122015E+02  0.45887915854E+02  0.65886163081E+02  0.10000000000E+01 0.  0.
    9000005    1    3    3    0    0  0.38692405422E+02 -0.27151122015E+02 -0.36117895300E+02  0.59496117730E+02  0.10000000000E+01 0.  0.
<mgrwt>
<rscale>  0 0.12500105E+03</rscale>
<asrwt>0</asrwt>
<pdfrwt beam="2">  1        4 0.88932508E-02 0.12500105E+03</pdfrwt>
<pdfrwt beam="1">  1       -4 0.10396331E-01 0.12500105E+03</pdfrwt>
<totfact> 0.10444312E+04</totfact>
</mgrwt>
</event>
<event>
 5    1  0.3196850E-002  0.1249995E+03  0.7818608E-02  0.1235070E+00
         -4   -1    0    0    0  501 -0.00000000000E+00  0.00000000000E+00  0.71835479445E+02  0.71846704915E+02  0.12700000000E+01 0.  1.
          4   -1    0    0  501    0  0.00000000000E+00 -0.00000000000E+00 -0.54354439216E+02  0.54369274066E+02  0.12700000000E+01 0.  1.
         25    2    1    2    0    0  0.00000000000E+00  0.00000000000E+00  0.17481040229E+02  0.12621597898E+03  0.12499954633E+03 0.  0.
    9000005    1    3    3    0    0  0.77855260354E+01  0.56569994643E+02 -0.16892403140E+02  0.59557803799E+02  0.10000000000E+01 0.  0.
    9000005    1    3    3    0    0 -0.77855260354E+01 -0.56569994643E+02  0.34373443369E+02  0.66658175182E+02  0.10000000000E+01 0.  0.
<mgrwt>
<rscale>  0 0.12499955E+03</rscale>
<asrwt>0</asrwt>
<pdfrwt beam="2">  1        4 0.83642260E-02 0.12499955E+03</pdfrwt>
<pdfrwt beam="1">  1       -4 0.11053617E-01 0.12499955E+03</pdfrwt>
<totfact> 0.10426336E+04</totfact>
</mgrwt>
</event>
<event>
 5    1  0.3196850E-002  0.1250328E+03  0.7818608E-02  0.1235018E+00
          4   -1    0    0  501    0  0.00000000000E+00  0.00000000000E+00  0.25673706163E+02  0.25705098486E+02  0.12700000000E+01 0.  1.
         -4   -1    0    0    0  501 -0.00000000000E+00 -0.00000000000E+00 -0.15210266163E+03  0.15210796355E+03  0.12700000000E+01 0.  1.
         25    2    1    2    0    0  0.00000000000E+00  0.00000000000E+00 -0.12642895547E+03  0.17781306204E+03  0.12503281269E+03 0.  0.
    9000005    1    3    3    0    0  0.55592581197E+02  0.17920822130E+02 -0.31554563112E+02  0.66395642953E+02  0.10000000000E+01 0.  0.
    9000005    1    3    3    0    0 -0.55592581197E+02 -0.17920822130E+02 -0.94874392357E+02  0.11141741908E+03  0.10000000000E+01 0.  0.
<mgrwt>
<rscale>  0 0.12503281E+03</rscale>
<asrwt>0</asrwt>
<pdfrwt beam="1">  1        4 0.39526236E-02 0.12503281E+03</pdfrwt>
<pdfrwt beam="2">  1       -4 0.23403232E-01 0.12503281E+03</pdfrwt>
<totfact> 0.93942998E+03</totfact>
</mgrwt>
</event>
<event>
 5    1  0.3196850E-002  0.1249995E+03  0.7818608E-02  0.1235070E+00
          4   -1    0    0  501    0  0.00000000000E+00  0.00000000000E+00  0.38210589711E+03  0.38210800764E+03  0.12700000000E+01 0.  1.
         -4   -1    0    0    0  501 -0.00000000000E+00 -0.00000000000E+00 -0.10181286163E+02  0.10260189468E+02  0.12700000000E+01 0.  1.
         25    2    1    2    0    0  0.00000000000E+00  0.00000000000E+00  0.37192461094E+03  0.39236819711E+03  0.12499954351E+03 0.  0.
    9000005    1    3    3    0    0 -0.77032664753E+01 -0.26996946605E+02  0.10712727934E+02  0.30065561365E+02  0.10000000000E+01 0.  0.
    9000005    1    3    3    0    0  0.77032664753E+01  0.26996946605E+02  0.36121188301E+03  0.36230263575E+03  0.10000000000E+01 0.  0.
<mgrwt>
<rscale>  0 0.12499954E+03</rscale>
<asrwt>0</asrwt>
<pdfrwt beam="1">  1        4 0.58791755E-01 0.12499954E+03</pdfrwt>
<pdfrwt beam="2">  1       -4 0.15725835E-02 0.12499954E+03</pdfrwt>
<totfact> 0.65302535E+03</totfact>
</mgrwt>
</event>
<event>
 5    1  0.3196850E-002  0.1250022E+03  0.7818608E-02  0.1235066E+00
          4   -1    0    0  501    0  0.00000000000E+00  0.00000000000E+00  0.80303613921E+02  0.80313655805E+02  0.12700000000E+01 0. -1.
         -4   -1    0    0    0  501 -0.00000000000E+00 -0.00000000000E+00 -0.48623851937E+02  0.48640434591E+02  0.12700000000E+01 0. -1.
         25    2    1    2    0    0  0.00000000000E+00  0.00000000000E+00  0.31679761985E+02  0.12895409040E+03  0.12500220042E+03 0.  0.
    9000005    1    3    3    0    0  0.26474360428E+02  0.31402818329E+02  0.64428365867E+02  0.76413631555E+02  0.10000000000E+01 0.  0.
    9000005    1    3    3    0    0 -0.26474360428E+02 -0.31402818329E+02 -0.32748603882E+02  0.52540458841E+02  0.10000000000E+01 0.  0.
<mgrwt>
<rscale>  0 0.12500220E+03</rscale>
<asrwt>0</asrwt>
<pdfrwt beam="1">  1        4 0.12356450E-01 0.12500220E+03</pdfrwt>
<pdfrwt beam="2">  1       -4 0.74826407E-02 0.12500220E+03</pdfrwt>
<totfact> 0.10366418E+04</totfact>
</mgrwt>
</event>
<event>
 5    1  0.3196850E-002  0.1249935E+03  0.7818608E-02  0.1235079E+00
          4   -1    0    0  501    0  0.00000000000E+00  0.00000000000E+00  0.92958451163E+01  0.93821978463E+01  0.12700000000E+01 0.  1.
         -4   -1    0    0    0  501 -0.00000000000E+00 -0.00000000000E+00 -0.41814083026E+03  0.41814275891E+03  0.12700000000E+01 0.  1.
         25    2    1    2    0    0  0.00000000000E+00  0.00000000000E+00 -0.40884498514E+03  0.42752495676E+03  0.12499346692E+03 0.  0.
    9000005    1    3    3    0    0  0.36197888999E+02  0.39400643964E+02 -0.31484000991E+03  0.31935549119E+03  0.10000000000E+01 0.  0.
    9000005    1    3    3    0    0 -0.36197888999E+02 -0.39400643964E+02 -0.94004975233E+02  0.10816946557E+03  0.10000000000E+01 0.  0.
<mgrwt>
<rscale>  0 0.12499347E+03</rscale>
<asrwt>0</asrwt>
<pdfrwt beam="1">  1        4 0.14369212E-02 0.12499347E+03</pdfrwt>
<pdfrwt beam="2">  1       -4 0.64336135E-01 0.12499347E+03</pdfrwt>
<totfact> 0.61969915E+03</totfact>
</mgrwt>
</event>
<event>
 5    1  0.3196850E-002  0.1250006E+03  0.7818608E-02  0.1235068E+00
         -4   -1    0    0    0  501 -0.00000000000E+00  0.00000000000E+00  0.77476227419E+02  0.77486635719E+02  0.12700000000E+01 0.  1.
          4   -1    0    0  501    0  0.00000000000E+00 -0.00000000000E+00 -0.50397408982E+02  0.50413408257E+02  0.12700000000E+01 0.  1.
         25    2    1    2    0    0  0.00000000000E+00  0.00000000000E+00  0.27078818437E+02  0.12790004398E+03  0.12500063536E+03 0.  0.
    9000005    1    3    3    0    0  0.55726462935E+01  0.34824810914E+02  0.66325449762E+02  0.75125808668E+02  0.10000000000E+01 0.  0.
    9000005    1    3    3    0    0 -0.55726462935E+01 -0.34824810914E+02 -0.39246631325E+02  0.52774235307E+02  0.10000000000E+01 0.  0.
<mgrwt>
<rscale>  0 0.12500064E+03</rscale>
<asrwt>0</asrwt>
<pdfrwt beam="2">  1        4 0.77554789E-02 0.12500064E+03</pdfrwt>
<pdfrwt beam="1">  1       -4 0.11921451E-01 0.12500064E+03</pdfrwt>
<totfact> 0.10389498E+04</totfact>
</mgrwt>
</event>
<event>
 5    1  0.3196850E-002  0.1249985E+03  0.7818608E-02  0.1235072E+00
          4   -1    0    0  501    0  0.00000000000E+00  0.00000000000E+00  0.21780209623E+03  0.21780579888E+03  0.12700000000E+01 0.  1.
         -4   -1    0    0    0  501 -0.00000000000E+00 -0.00000000000E+00 -0.17908096405E+02  0.17953072630E+02  0.12700000000E+01 0.  1.
         25    2    1    2    0    0  0.00000000000E+00  0.00000000000E+00  0.19989399983E+03  0.23575887151E+03  0.12499853730E+03 0.  0.
    9000005    1    3    3    0    0  0.10183654469E+02  0.38787231076E+02  0.95521175391E+01  0.41235895314E+02  0.10000000000E+01 0.  0.
    9000005    1    3    3    0    0 -0.10183654469E+02 -0.38787231076E+02  0.19034188229E+03  0.19452297619E+03  0.10000000000E+01 0.  0.
<mgrwt>
<rscale>  0 0.12499854E+03</rscale>
<asrwt>0</asrwt>
<pdfrwt beam="1">  1        4 0.33511759E-01 0.12499854E+03</pdfrwt>
<pdfrwt beam="2">  1       -4 0.27588363E-02 0.12499854E+03</pdfrwt>
<totfact> 0.84435844E+03</totfact>
</mgrwt>
</event>
<event>
 5    1  0.3196850E-002  0.1249983E+03  0.7818608E-02  0.1235072E+00
         -4   -1    0    0    0  501 -0.00000000000E+00  0.00000000000E+00  0.94127129340E+03  0.94127215016E+03  0.12700000000E+01 0. -1.
          4   -1    0    0  501    0  0.00000000000E+00 -0.00000000000E+00 -0.40518180373E+01  0.42461899872E+01  0.12700000000E+01 0. -1.
         25    2    1    2    0    0  0.00000000000E+00  0.00000000000E+00  0.93721947536E+03  0.94551834015E+03  0.12499834626E+03 0.  0.
    9000005    1    3    3    0    0  0.33255199331E+02 -0.40589765578E+02  0.21190308434E+03  0.21830564469E+03  0.10000000000E+01 0.  0.
    9000005    1    3    3    0    0 -0.33255199331E+02  0.40589765578E+02  0.72531639102E+03  0.72721269546E+03  0.10000000000E+01 0.  0.
<mgrwt>
<rscale>  0 0.12499835E+03</rscale>
<asrwt>0</asrwt>
<pdfrwt beam="2">  1        4 0.63837383E-03 0.12499835E+03</pdfrwt>
<pdfrwt beam="1">  1       -4 0.14482607E+00 0.12499835E+03</pdfrwt>
<totfact> 0.32476775E+03</totfact>
</mgrwt>
</event>
<event>
 5    1  0.3196850E-002  0.1249992E+03  0.7818608E-02  0.1235071E+00
          4   -1    0    0  501    0  0.00000000000E+00  0.00000000000E+00  0.10067633965E+02  0.10147421034E+02  0.12700000000E+01 0. -1.
         -4   -1    0    0    0  501 -0.00000000000E+00 -0.00000000000E+00 -0.38638357391E+03  0.38638566108E+03  0.12700000000E+01 0. -1.
         25    2    1    2    0    0  0.00000000000E+00  0.00000000000E+00 -0.37631593994E+03  0.39653308211E+03  0.12499919421E+03 0.  0.
    9000005    1    3    3    0    0 -0.88760366022E+01 -0.48199546325E+02 -0.65164121568E+02  0.81543503919E+02  0.10000000000E+01 0.  0.
    9000005    1    3    3    0    0  0.88760366022E+01  0.48199546325E+02 -0.31115181837E+03  0.31498957819E+03  0.10000000000E+01 0.  0.
<mgrwt>
<rscale>  0 0.12499919E+03</rscale>
<asrwt>0</asrwt>
<pdfrwt beam="1">  1        4 0.15551651E-02 0.12499919E+03</pdfrwt>
<pdfrwt beam="2">  1       -4 0.59449913E-01 0.12499919E+03</pdfrwt>
<totfact> 0.64892540E+03</totfact>
</mgrwt>
</event>
<event>
 5    1  0.3196850E-002  0.1250035E+03  0.7818608E-02  0.1235064E+00
          4   -1    0    0  501    0  0.00000000000E+00  0.00000000000E+00  0.16553480662E+03  0.16553967834E+03  0.12700000000E+01 0.  1.
         -4   -1    0    0    0  501 -0.00000000000E+00 -0.00000000000E+00 -0.23576764731E+02  0.23610945241E+02  0.12700000000E+01 0.  1.
         25    2    1    2    0    0  0.00000000000E+00  0.00000000000E+00  0.14195804189E+03  0.18915062358E+03  0.12500349092E+03 0.  0.
    9000005    1    3    3    0    0 -0.55901668885E+01  0.48974050497E+02  0.12849921986E+02  0.50949269700E+02  0.10000000000E+01 0.  0.
    9000005    1    3    3    0    0  0.55901668885E+01 -0.48974050497E+02  0.12910811991E+03  0.13820135388E+03  0.10000000000E+01 0.  0.
<mgrwt>
<rscale>  0 0.12500349E+03</rscale>
<asrwt>0</asrwt>
<pdfrwt beam="1">  1        4 0.25469897E-01 0.12500349E+03</pdfrwt>
<pdfrwt beam="2">  1       -4 0.36301987E-02 0.12500349E+03</pdfrwt>
<totfact> 0.91988120E+03</totfact>
</mgrwt>
</event>
<event>
 5    1  0.3196850E-002  0.1249977E+03  0.7818608E-02  0.1235073E+00
         -4   -1    0    0    0  501 -0.00000000000E+00  0.00000000000E+00  0.16730424480E+03  0.16730906499E+03  0.12700000000E+01 0. -1.
          4   -1    0    0  501    0  0.00000000000E+00 -0.00000000000E+00 -0.23324894758E+02  0.23359443818E+02  0.12700000000E+01 0. -1.
         25    2    1    2    0    0  0.00000000000E+00  0.00000000000E+00  0.14397935004E+03  0.19066850881E+03  0.12499770803E+03 0.  0.
    9000005    1    3    3    0    0 -0.43082506029E+02 -0.31859512089E+02  0.22940452031E+02  0.58295756069E+02  0.10000000000E+01 0.  0.
    9000005    1    3    3    0    0  0.43082506029E+02  0.31859512089E+02  0.12103889801E+03  0.13237275274E+03  0.10000000000E+01 0.  0.
<mgrwt>
<rscale>  0 0.12499771E+03</rscale>
<asrwt>0</asrwt>
<pdfrwt beam="2">  1        4 0.35914737E-02 0.12499771E+03</pdfrwt>
<pdfrwt beam="1">  1       -4 0.25742144E-01 0.12499771E+03</pdfrwt>
<totfact> 0.91735834E+03</totfact>
</mgrwt>
</event>
<event>
 5    1  0.3196850E-002  0.1250000E+03  0.7818608E-02  0.1235069E+00
         -4   -1    0    0    0  501 -0.00000000000E+00  0.00000000000E+00  0.32642237134E+03  0.32642484191E+03  0.12700000000E+01 0.  1.
          4   -1    0    0  501    0  0.00000000000E+00 -0.00000000000E+00 -0.11930642372E+02  0.11998046817E+02  0.12700000000E+01 0.  1.
         25    2    1    2    0    0  0.00000000000E+00  0.00000000000E+00  0.31449172897E+03  0.33842288872E+03  0.12500001608E+03 0.  0.
    9000005    1    3    3    0    0  0.19438350432E+02 -0.30229190738E+02  0.29565635819E+03  0.29783440966E+03  0.10000000000E+01 0.  0.
    9000005    1    3    3    0    0 -0.19438350432E+02  0.30229190738E+02  0.18835370784E+02  0.40588479064E+02  0.10000000000E+01 0.  0.
<mgrwt>
<rscale>  0 0.12500002E+03</rscale>
<asrwt>0</asrwt>
<pdfrwt beam="2">  1        4 0.18408582E-02 0.12500002E+03</pdfrwt>
<pdfrwt beam="1">  1       -4 0.50224207E-01 0.12500002E+03</pdfrwt>
<totfact> 0.71017212E+03</totfact>
</mgrwt>
</event>
<event>
 5    1  0.3196850E-002  0.1250012E+03  0.7818608E-02  0.1235067E+00
         -4   -1    0    0    0  501 -0.00000000000E+00  0.00000000000E+00  0.11082795252E+03  0.11083522887E+03  0.12700000000E+01 0.  1.
          4   -1    0    0  501    0  0.00000000000E+00 -0.00000000000E+00 -0.35226869887E+02  0.35249755489E+02  0.12700000000E+01 0.  1.
         25    2    1    2    0    0  0.00000000000E+00  0.00000000000E+00  0.75601082633E+02  0.14608498436E+03  0.12500119584E+03 0.  0.
    9000005    1    3    3    0    0  0.28602812140E+02  0.30722110837E+02  0.91905683697E+02  0.10104268233E+03  0.10000000000E+01 0.  0.
    9000005    1    3    3    0    0 -0.28602812140E+02 -0.30722110837E+02 -0.16304601065E+02  0.45042302034E+02  0.10000000000E+01 0.  0.
<mgrwt>
<rscale>  0 0.12500120E+03</rscale>
<asrwt>0</asrwt>
<pdfrwt beam="2">  1        4 0.54218387E-02 0.12500120E+03</pdfrwt>
<pdfrwt beam="1">  1       -4 0.17052774E-01 0.12500120E+03</pdfrwt>
<totfact> 0.10008721E+04</totfact>
</mgrwt>
</event>
<event>
 5    1  0.3196850E-002  0.1250010E+03  0.7818608E-02  0.1235068E+00
         -4   -1    0    0    0  501 -0.00000000000E+00  0.00000000000E+00  0.57978810624E+02  0.57992718347E+02  0.12700000000E+01 0. -1.
          4   -1    0    0  501    0  0.00000000000E+00 -0.00000000000E+00 -0.67346821100E+02  0.67358794617E+02  0.12700000000E+01 0. -1.
         25    2    1    2    0    0  0.00000000000E+00  0.00000000000E+00 -0.93680104766E+01  0.12535151296E+03  0.12500096873E+03 0.  0.
    9000005    1    3    3    0    0  0.11629220608E+02 -0.57622804169E+02  0.16581221720E+02  0.61086522621E+02  0.10000000000E+01 0.  0.
    9000005    1    3    3    0    0 -0.11629220608E+02  0.57622804169E+02 -0.25949232197E+02  0.64264990343E+02  0.10000000000E+01 0.  0.
<mgrwt>
<rscale>  0 0.12500097E+03</rscale>
<asrwt>0</asrwt>
<pdfrwt beam="2">  1        4 0.10363040E-01 0.12500097E+03</pdfrwt>
<pdfrwt beam="1">  1       -4 0.89218079E-02 0.12500097E+03</pdfrwt>
<totfact> 0.10445004E+04</totfact>
</mgrwt>
</event>
<event>
 5    1  0.3196850E-002  0.1250033E+03  0.7818608E-02  0.1235064E+00
          4   -1    0    0  501    0  0.00000000000E+00  0.00000000000E+00  0.42521437129E+03  0.42521626786E+03  0.12700000000E+01 0. -1.
         -4   -1    0    0    0  501 -0.00000000000E+00 -0.00000000000E+00 -0.91412166818E+01  0.92290163302E+01  0.12700000000E+01 0. -1.
         25    2    1    2    0    0  0.00000000000E+00  0.00000000000E+00  0.41607315461E+03  0.43444528419E+03  0.12500333983E+03 0.  0.
    9000005    1    3    3    0    0 -0.28258502107E+02  0.24552284120E+02  0.34120630976E+02  0.50661376363E+02  0.10000000000E+01 0.  0.
    9000005    1    3    3    0    0  0.28258502107E+02 -0.24552284120E+02  0.38195252363E+03  0.38378390783E+03  0.10000000000E+01 0.  0.
<mgrwt>
<rscale>  0 0.12500334E+03</rscale>
<asrwt>0</asrwt>
<pdfrwt beam="1">  1        4 0.65424495E-01 0.12500334E+03</pdfrwt>
<pdfrwt beam="2">  1       -4 0.14132407E-02 0.12500334E+03</pdfrwt>
<totfact> 0.61330593E+03</totfact>
</mgrwt>
</event>
<event>
 5    1  0.3196850E-002  0.1249985E+03  0.7818608E-02  0.1235072E+00
         -4   -1    0    0    0  501 -0.00000000000E+00  0.00000000000E+00  0.63321761450E+02  0.63334495918E+02  0.12700000000E+01 0.  1.
          4   -1    0    0  501    0  0.00000000000E+00 -0.00000000000E+00 -0.61661968429E+02  0.61675045607E+02  0.12700000000E+01 0.  1.
         25    2    1    2    0    0  0.00000000000E+00  0.00000000000E+00  0.16597930211E+01  0.12500954152E+03  0.12499852223E+03 0.  0.
    9000005    1    3    3    0    0 -0.54648795081E+02  0.27265352659E+02 -0.12410129294E+02  0.62328978561E+02  0.10000000000E+01 0.  0.
    9000005    1    3    3    0    0  0.54648795081E+02 -0.27265352659E+02  0.14069922315E+02  0.62680562963E+02  0.10000000000E+01 0.  0.
<mgrwt>
<rscale>  0 0.12499852E+03</rscale>
<asrwt>0</asrwt>
<pdfrwt beam="2">  1        4 0.94884423E-02 0.12499852E+03</pdfrwt>
<pdfrwt beam="1">  1       -4 0.97437949E-02 0.12499852E+03</pdfrwt>
<totfact> 0.10453004E+04</totfact>
</mgrwt>
</event>
<event>
 5    1  0.3196850E-002  0.1250036E+03  0.7818608E-02  0.1235064E+00
         -4   -1    0    0    0  501 -0.00000000000E+00  0.00000000000E+00  0.56089076224E+02  0.56103452404E+02  0.12700000000E+01 0.  1.
          4   -1    0    0  501    0  0.00000000000E+00 -0.00000000000E+00 -0.69618602611E+02  0.69630185477E+02  0.12700000000E+01 0.  1.
         25    2    1    2    0    0  0.00000000000E+00  0.00000000000E+00 -0.13529526388E+02  0.12573363788E+03  0.12500359839E+03 0.  0.
    9000005    1    3    3    0    0 -0.21289036603E+02 -0.55819689413E+02  0.11683949154E+02  0.60881651369E+02  0.10000000000E+01 0.  0.
    9000005    1    3    3    0    0  0.21289036603E+02  0.55819689413E+02 -0.25213475542E+02  0.64851986512E+02  0.10000000000E+01 0.  0.
<mgrwt>
<rscale>  0 0.12500360E+03</rscale>
<asrwt>0</asrwt>
<pdfrwt beam="2">  1        4 0.10712551E-01 0.12500360E+03</pdfrwt>
<pdfrwt beam="1">  1       -4 0.86310855E-02 0.12500360E+03</pdfrwt>
<totfact> 0.10435957E+04</totfact>
</mgrwt>
</event>
<event>
 5    1  0.3196850E-002  0.1250012E+03  0.7818608E-02  0.1235067E+00
         -4   -1    0    0    0  501 -0.00000000000E+00  0.00000000000E+00  0.37657706046E+03  0.37657920198E+03  0.12700000000E+01 0.  1.
          4   -1    0    0  501    0  0.00000000000E+00 -0.00000000000E+00 -0.10332194007E+02  0.10409953554E+02  0.12700000000E+01 0.  1.
         25    2    1    2    0    0  0.00000000000E+00  0.00000000000E+00  0.36624486645E+03  0.38698915553E+03  0.12500121719E+03 0.  0.
    9000005    1    3    3    0    0  0.37774033392E+02  0.94388384732E+00  0.33722023008E+03  0.33933206758E+03  0.10000000000E+01 0.  0.
    9000005    1    3    3    0    0 -0.37774033392E+02 -0.94388384732E+00  0.29024636370E+02  0.47657087949E+02  0.10000000000E+01 0.  0.
<mgrwt>
<rscale>  0 0.12500122E+03</rscale>
<asrwt>0</asrwt>
<pdfrwt beam="2">  1        4 0.15957146E-02 0.12500122E+03</pdfrwt>
<pdfrwt beam="1">  1       -4 0.57941078E-01 0.12500122E+03</pdfrwt>
<totfact> 0.65836418E+03</totfact>
</mgrwt>
</event>
<event>
 5    1  0.3196850E-002  0.1249741E+03  0.7818608E-02  0.1235110E+00
         -4   -1    0    0    0  501 -0.00000000000E+00  0.00000000000E+00  0.15501733721E+03  0.15502253944E+03  0.12700000000E+01 0. -1.
          4   -1    0    0  501    0  0.00000000000E+00 -0.00000000000E+00 -0.25166719732E+02  0.25198743661E+02  0.12700000000E+01 0. -1.
         25    2    1    2    0    0  0.00000000000E+00  0.00000000000E+00  0.12985061748E+03  0.18022128310E+03  0.12497410942E+03 0.  0.
    9000005    1    3    3    0    0 -0.17163241842E+02 -0.55918415414E+02  0.96591315785E+02  0.11292620749E+03  0.10000000000E+01 0.  0.
    9000005    1    3    3    0    0  0.17163241842E+02  0.55918415414E+02  0.33259301692E+02  0.67295075614E+02  0.10000000000E+01 0.  0.
<mgrwt>
<rscale>  0 0.12497411E+03</rscale>
<asrwt>0</asrwt>
<pdfrwt beam="2">  1        4 0.38746666E-02 0.12497411E+03</pdfrwt>
<pdfrwt beam="1">  1       -4 0.23851684E-01 0.12497411E+03</pdfrwt>
<totfact> 0.93631529E+03</totfact>
</mgrwt>
</event>
<event>
 5    1  0.3196850E-002  0.1249763E+03  0.7818608E-02  0.1235106E+00
          4   -1    0    0  501    0  0.00000000000E+00  0.00000000000E+00  0.46005356164E+03  0.46005531458E+03  0.12700000000E+01 0. -1.
         -4   -1    0    0    0  501 -0.00000000000E+00 -0.00000000000E+00 -0.84383532136E+01  0.85333876601E+01  0.12700000000E+01 0. -1.
         25    2    1    2    0    0  0.00000000000E+00  0.00000000000E+00  0.45161520842E+03  0.46858870224E+03  0.12497629931E+03 0.  0.
    9000005    1    3    3    0    0 -0.35172933149E+02 -0.62342787778E-01  0.41942550698E+03  0.42089891306E+03  0.10000000000E+01 0.  0.
    9000005    1    3    3    0    0  0.35172933149E+02  0.62342787778E-01  0.32189701448E+02  0.47689789182E+02  0.10000000000E+01 0.  0.
<mgrwt>
<rscale>  0 0.12497630E+03</rscale>
<asrwt>0</asrwt>
<pdfrwt beam="1">  1        4 0.70784941E-01 0.12497630E+03</pdfrwt>
<pdfrwt beam="2">  1       -4 0.13056529E-02 0.12497630E+03</pdfrwt>
<totfact> 0.58417069E+03</totfact>
</mgrwt>
</event>
<event>
 5    1  0.3196850E-002  0.1250031E+03  0.7818608E-02  0.1235064E+00
         -4   -1    0    0    0  501 -0.00000000000E+00  0.00000000000E+00  0.37376681042E+02  0.37398251105E+02  0.12700000000E+01 0. -1.
          4   -1    0    0  501    0  0.00000000000E+00 -0.00000000000E+00 -0.10445998292E+03  0.10446770281E+03  0.12700000000E+01 0. -1.
         25    2    1    2    0    0  0.00000000000E+00  0.00000000000E+00 -0.67083301875E+02  0.14186595392E+03  0.12500311792E+03 0.  0.
    9000005    1    3    3    0    0 -0.43183813303E+02 -0.35499424381E+02 -0.18376333250E+01  0.55941288499E+02  0.10000000000E+01 0.  0.
    9000005    1    3    3    0    0  0.43183813303E+02  0.35499424381E+02 -0.65245668550E+02  0.85924665418E+02  0.10000000000E+01 0.  0.
<mgrwt>
<rscale>  0 0.12500312E+03</rscale>
<asrwt>0</asrwt>
<pdfrwt beam="2">  1        4 0.16073020E-01 0.12500312E+03</pdfrwt>
<pdfrwt beam="1">  1       -4 0.57525118E-02 0.12500312E+03</pdfrwt>
<totfact> 0.10094349E+04</totfact>
</mgrwt>
</event>
<event>
 5    1  0.3196850E-002  0.1250011E+03  0.7818608E-02  0.1235068E+00
         -4   -1    0    0    0  501 -0.00000000000E+00  0.00000000000E+00  0.46210590617E+03  0.46210765133E+03  0.12700000000E+01 0.  1.
          4   -1    0    0  501    0  0.00000000000E+00 -0.00000000000E+00 -0.84038228484E+01  0.84992434056E+01  0.12700000000E+01 0.  1.
         25    2    1    2    0    0  0.00000000000E+00  0.00000000000E+00  0.45370208332E+03  0.47060689473E+03  0.12500107584E+03 0.  0.
    9000005    1    3    3    0    0  0.53794009120E+02  0.11239300415E+02  0.33886321530E+03  0.34329199812E+03  0.10000000000E+01 0.  0.
    9000005    1    3    3    0    0 -0.53794009120E+02 -0.11239300415E+02  0.11483886802E+03  0.12731489661E+03  0.10000000000E+01 0.  0.
<mgrwt>
<rscale>  0 0.12500108E+03</rscale>
<asrwt>0</asrwt>
<pdfrwt beam="2">  1        4 0.13003696E-02 0.12500108E+03</pdfrwt>
<pdfrwt beam="1">  1       -4 0.71100718E-01 0.12500108E+03</pdfrwt>
<totfact> 0.58217885E+03</totfact>
</mgrwt>
</event>
<event>
 5    1  0.3196850E-002  0.1250062E+03  0.7818608E-02  0.1235060E+00
          4   -1    0    0  501    0  0.00000000000E+00  0.00000000000E+00  0.24960772595E+02  0.24993060407E+02  0.12700000000E+01 0. -1.
         -4   -1    0    0    0  501 -0.00000000000E+00 -0.00000000000E+00 -0.15637512254E+03  0.15638027960E+03  0.12700000000E+01 0. -1.
         25    2    1    2    0    0  0.00000000000E+00  0.00000000000E+00 -0.13141434994E+03  0.18137334001E+03  0.12500622823E+03 0.  0.
    9000005    1    3    3    0    0 -0.39210940413E+02  0.38211669224E+02 -0.10942787003E+03  0.12236457107E+03  0.10000000000E+01 0.  0.
    9000005    1    3    3    0    0  0.39210940413E+02 -0.38211669224E+02 -0.21986479908E+02  0.59008768939E+02  0.10000000000E+01 0.  0.
<mgrwt>
<rscale>  0 0.12500623E+03</rscale>
<asrwt>0</asrwt>
<pdfrwt beam="1">  1        4 0.38429993E-02 0.12500623E+03</pdfrwt>
<pdfrwt beam="2">  1       -4 0.24060591E-01 0.12500623E+03</pdfrwt>
<totfact> 0.93357344E+03</totfact>
</mgrwt>
</event>
<event>
 5    1  0.3196850E-002  0.1249995E+03  0.7818608E-02  0.1235070E+00
          4   -1    0    0  501    0  0.00000000000E+00  0.00000000000E+00  0.55545904273E+02  0.55560420998E+02  0.12700000000E+01 0. -1.
         -4   -1    0    0    0  501 -0.00000000000E+00 -0.00000000000E+00 -0.70294754916E+02  0.70306226387E+02  0.12700000000E+01 0. -1.
         25    2    1    2    0    0  0.00000000000E+00  0.00000000000E+00 -0.14748850644E+02  0.12586664738E+03  0.12499953731E+03 0.  0.
    9000005    1    3    3    0    0  0.60236197957E+02 -0.99438404110E+00 -0.24097847913E+02  0.64892947367E+02  0.10000000000E+01 0.  0.
    9000005    1    3    3    0    0 -0.60236197957E+02  0.99438404110E+00  0.93489972695E+01  0.60973700018E+02  0.10000000000E+01 0.  0.
<mgrwt>
<rscale>  0 0.12499954E+03</rscale>
<asrwt>0</asrwt>
<pdfrwt beam="1">  1        4 0.85475229E-02 0.12499954E+03</pdfrwt>
<pdfrwt beam="2">  1       -4 0.10816577E-01 0.12499954E+03</pdfrwt>
<totfact> 0.10433991E+04</totfact>
</mgrwt>
</event>
<event>
 5    1  0.3196850E-002  0.1249990E+03  0.7818608E-02  0.1235071E+00
          4   -1    0    0  501    0  0.00000000000E+00  0.00000000000E+00  0.50136798039E+03  0.50136958889E+03  0.12700000000E+01 0. -1.
         -4   -1    0    0    0  501 -0.00000000000E+00 -0.00000000000E+00 -0.77376674934E+01  0.78411987756E+01  0.12700000000E+01 0. -1.
         25    2    1    2    0    0  0.00000000000E+00  0.00000000000E+00  0.49363031290E+03  0.50921078766E+03  0.12499896184E+03 0.  0.
    9000005    1    3    3    0    0 -0.35560634304E+02  0.83056390395E+01  0.40231238826E+02  0.54342386122E+02  0.10000000000E+01 0.  0.
    9000005    1    3    3    0    0  0.35560634304E+02 -0.83056390395E+01  0.45339907407E+03  0.45486840154E+03  0.10000000000E+01 0.  0.
<mgrwt>
<rscale>  0 0.12499896E+03</rscale>
<asrwt>0</asrwt>
<pdfrwt beam="1">  1        4 0.77141628E-01 0.12499896E+03</pdfrwt>
<pdfrwt beam="2">  1       -4 0.11984980E-02 0.12499896E+03</pdfrwt>
<totfact> 0.55157993E+03</totfact>
</mgrwt>
</event>
<event>
 5    1  0.3196850E-002  0.1250031E+03  0.7818608E-02  0.1235064E+00
         -4   -1    0    0    0  501 -0.00000000000E+00  0.00000000000E+00  0.35151574098E+01  0.37375435270E+01  0.12700000000E+01 0. -1.
          4   -1    0    0  501    0  0.00000000000E+00 -0.00000000000E+00 -0.10770150964E+04  0.10770158452E+04  0.12700000000E+01 0. -1.
         25    2    1    2    0    0  0.00000000000E+00  0.00000000000E+00 -0.10734999390E+04  0.10807533887E+04  0.12500307274E+03 0.  0.
    9000005    1    3    3    0    0 -0.25361918622E+02  0.50080765485E+02 -0.29932323489E+03  0.30454344342E+03  0.10000000000E+01 0.  0.
    9000005    1    3    3    0    0  0.25361918622E+02 -0.50080765485E+02 -0.77417670410E+03  0.77620994529E+03  0.10000000000E+01 0.  0.
<mgrwt>
<rscale>  0 0.12500307E+03</rscale>
<asrwt>0</asrwt>
<pdfrwt beam="2">  1        4 0.16571154E+00 0.12500307E+03</pdfrwt>
<pdfrwt beam="1">  1       -4 0.55795853E-03 0.12500307E+03</pdfrwt>
<totfact> 0.28051789E+03</totfact>
</mgrwt>
</event>
<event>
 5    1  0.3196850E-002  0.1249862E+03  0.7818608E-02  0.1235091E+00
          4   -1    0    0  501    0  0.00000000000E+00  0.00000000000E+00  0.62211807595E+02  0.62224769218E+02  0.12700000000E+01 0. -1.
         -4   -1    0    0    0  501 -0.00000000000E+00 -0.00000000000E+00 -0.62749722505E+02  0.62762573039E+02  0.12700000000E+01 0. -1.
         25    2    1    2    0    0  0.00000000000E+00  0.00000000000E+00 -0.53791491013E+00  0.12498734226E+03  0.12498618472E+03 0.  0.
    9000005    1    3    3    0    0  0.57670231542E+02 -0.17790004693E+01  0.23718055728E+02  0.62390436898E+02  0.10000000000E+01 0.  0.
    9000005    1    3    3    0    0 -0.57670231542E+02  0.17790004693E+01 -0.24255970638E+02  0.62596905358E+02  0.10000000000E+01 0.  0.
<mgrwt>
<rscale>  0 0.12498618E+03</rscale>
<asrwt>0</asrwt>
<pdfrwt beam="1">  1        4 0.95730329E-02 0.12498618E+03</pdfrwt>
<pdfrwt beam="2">  1       -4 0.96557890E-02 0.12498618E+03</pdfrwt>
<totfact> 0.10456402E+04</totfact>
</mgrwt>
</event>
<event>
 5    1  0.3196850E-002  0.1249969E+03  0.7818608E-02  0.1235074E+00
          4   -1    0    0  501    0  0.00000000000E+00  0.00000000000E+00  0.30761708575E+02  0.30787913448E+02  0.12700000000E+01 0. -1.
         -4   -1    0    0    0  501 -0.00000000000E+00 -0.00000000000E+00 -0.12689443772E+03  0.12690079284E+03  0.12700000000E+01 0. -1.
         25    2    1    2    0    0  0.00000000000E+00  0.00000000000E+00 -0.96132729141E+02  0.15768870629E+03  0.12499690587E+03 0.  0.
    9000005    1    3    3    0    0 -0.59629657939E+02 -0.50309001095E+01 -0.70775871976E+02  0.92688888847E+02  0.10000000000E+01 0.  0.
    9000005    1    3    3    0    0  0.59629657939E+02  0.50309001095E+01 -0.25356857165E+02  0.64999817439E+02  0.10000000000E+01 0.  0.
<mgrwt>
<rscale>  0 0.12499691E+03</rscale>
<asrwt>0</asrwt>
<pdfrwt beam="1">  1        4 0.47350752E-02 0.12499691E+03</pdfrwt>
<pdfrwt beam="2">  1       -4 0.19524726E-01 0.12499691E+03</pdfrwt>
<totfact> 0.97797047E+03</totfact>
</mgrwt>
</event>
<event>
 5    1  0.3196850E-002  0.1250061E+03  0.7818608E-02  0.1235060E+00
         -4   -1    0    0    0  501 -0.00000000000E+00  0.00000000000E+00  0.10166566108E+03  0.10167359314E+03  0.12700000000E+01 0. -1.
          4   -1    0    0  501    0  0.00000000000E+00 -0.00000000000E+00 -0.38406319247E+02  0.38427311357E+02  0.12700000000E+01 0. -1.
         25    2    1    2    0    0  0.00000000000E+00  0.00000000000E+00  0.63259341829E+02  0.14010090450E+03  0.12500607630E+03 0.  0.
    9000005    1    3    3    0    0 -0.52118559263E+02  0.13701557209E+02 -0.38391506348E+01  0.54035321477E+02  0.10000000000E+01 0.  0.
    9000005    1    3    3    0    0  0.52118559263E+02 -0.13701557209E+02  0.67098492464E+02  0.86065583019E+02  0.10000000000E+01 0.  0.
<mgrwt>
<rscale>  0 0.12500608E+03</rscale>
<asrwt>0</asrwt>
<pdfrwt beam="2">  1        4 0.59108895E-02 0.12500608E+03</pdfrwt>
<pdfrwt beam="1">  1       -4 0.15643096E-01 0.12500608E+03</pdfrwt>
<totfact> 0.10130108E+04</totfact>
</mgrwt>
</event>
<event>
 5    1  0.3196850E-002  0.1249954E+03  0.7818608E-02  0.1235076E+00
          4   -1    0    0  501    0  0.00000000000E+00  0.00000000000E+00  0.21197329438E+03  0.21197709883E+03  0.12700000000E+01 0. -1.
         -4   -1    0    0    0  501 -0.00000000000E+00 -0.00000000000E+00 -0.18400815576E+02  0.18444590368E+02  0.12700000000E+01 0. -1.
         25    2    1    2    0    0  0.00000000000E+00  0.00000000000E+00  0.19357247880E+03  0.23042168920E+03  0.12499540113E+03 0.  0.
    9000005    1    3    3    0    0 -0.15691269137E+02 -0.13144076563E+01  0.20826520460E+03  0.20886200957E+03  0.10000000000E+01 0.  0.
    9000005    1    3    3    0    0  0.15691269137E+02  0.13144076563E+01 -0.14692725795E+02  0.21559679633E+02  0.10000000000E+01 0.  0.
<mgrwt>
<rscale>  0 0.12499540E+03</rscale>
<asrwt>0</asrwt>
<pdfrwt beam="1">  1        4 0.32614937E-01 0.12499540E+03</pdfrwt>
<pdfrwt beam="2">  1       -4 0.28345545E-02 0.12499540E+03</pdfrwt>
<totfact> 0.85253633E+03</totfact>
</mgrwt>
</event>
<event>
 5    1  0.3196850E-002  0.1249530E+03  0.7818608E-02  0.1235143E+00
          4   -1    0    0  501    0  0.00000000000E+00  0.00000000000E+00  0.18095629725E+02  0.18140140990E+02  0.12700000000E+01 0.  1.
         -4   -1    0    0    0  501 -0.00000000000E+00 -0.00000000000E+00 -0.21539350452E+03  0.21539724857E+03  0.12700000000E+01 0.  1.
         25    2    1    2    0    0  0.00000000000E+00  0.00000000000E+00 -0.19729787480E+03  0.23353738956E+03  0.12495303486E+03 0.  0.
    9000005    1    3    3    0    0  0.20684476272E+02 -0.53054103866E+02 -0.14665461918E+03  0.15732502288E+03  0.10000000000E+01 0.  0.
    9000005    1    3    3    0    0 -0.20684476272E+02  0.53054103866E+02 -0.50643255614E+02  0.76212366679E+02  0.10000000000E+01 0.  0.
<mgrwt>
<rscale>  0 0.12495303E+03</rscale>
<asrwt>0</asrwt>
<pdfrwt beam="1">  1        4 0.27876551E-02 0.12495303E+03</pdfrwt>
<pdfrwt beam="2">  1       -4 0.33141172E-01 0.12495303E+03</pdfrwt>
<totfact> 0.84858234E+03</totfact>
</mgrwt>
</event>
<event>
 5    1  0.3196850E-002  0.1250065E+03  0.7818608E-02  0.1235059E+00
         -4   -1    0    0    0  501 -0.00000000000E+00  0.00000000000E+00  0.20957774152E+04  0.20957778000E+04  0.12700000000E+01 0.  1.
          4   -1    0    0  501    0  0.00000000000E+00 -0.00000000000E+00 -0.16473167630E+01  0.20800366626E+01  0.12700000000E+01 0.  1.
         25    2    1    2    0    0  0.00000000000E+00  0.00000000000E+00  0.20941300985E+04  0.20978578367E+04  0.12500653445E+03 0.  0.
    9000005    1    3    3    0    0  0.39034022179E+02  0.52124369844E+01  0.23269181685E+03  0.23600276697E+03  0.10000000000E+01 0.  0.
    9000005    1    3    3    0    0 -0.39034022179E+02 -0.52124369844E+01  0.18614382816E+04  0.18618550697E+04  0.10000000000E+01 0.  0.
<mgrwt>
<rscale>  0 0.12500653E+03</rscale>
<asrwt>0</asrwt>
<pdfrwt beam="2">  1        4 0.28675175E-03 0.12500653E+03</pdfrwt>
<pdfrwt beam="1">  1       -4 0.32245763E+00 0.12500653E+03</pdfrwt>
<totfact> 0.86365066E+02</totfact>
</mgrwt>
</event>
<event>
 5    1  0.3196850E-002  0.1250025E+03  0.7818608E-02  0.1235065E+00
          4   -1    0    0  501    0  0.00000000000E+00  0.00000000000E+00  0.67135192694E+01  0.68325866977E+01  0.12700000000E+01 0.  1.
         -4   -1    0    0    0  501 -0.00000000000E+00 -0.00000000000E+00 -0.57663739626E+03  0.57663879480E+03  0.12700000000E+01 0.  1.
         25    2    1    2    0    0  0.00000000000E+00  0.00000000000E+00 -0.56992387699E+03  0.58347138150E+03  0.12500250981E+03 0.  0.
    9000005    1    3    3    0    0 -0.15525628278E+02  0.49745483722E+02 -0.12396099387E+03  0.13447299463E+03  0.10000000000E+01 0.  0.
    9000005    1    3    3    0    0  0.15525628278E+02 -0.49745483722E+02 -0.44596288312E+03  0.44899838687E+03  0.10000000000E+01 0.  0.
<mgrwt>
<rscale>  0 0.12500251E+03</rscale>
<asrwt>0</asrwt>
<pdfrwt beam="1">  1        4 0.10421162E-02 0.12500251E+03</pdfrwt>
<pdfrwt beam="2">  1       -4 0.88722674E-01 0.12500251E+03</pdfrwt>
<totfact> 0.49925114E+03</totfact>
</mgrwt>
</event>
<event>
 5    1  0.3196850E-002  0.1250028E+03  0.7818608E-02  0.1235065E+00
          4   -1    0    0  501    0  0.00000000000E+00  0.00000000000E+00  0.14547569472E+02  0.14602899628E+02  0.12700000000E+01 0.  1.
         -4   -1    0    0    0  501 -0.00000000000E+00 -0.00000000000E+00 -0.26796132486E+03  0.26796433442E+03  0.12700000000E+01 0.  1.
         25    2    1    2    0    0  0.00000000000E+00  0.00000000000E+00 -0.25341375539E+03  0.28256723405E+03  0.12500284132E+03 0.  0.
    9000005    1    3    3    0    0  0.69343655338E+01  0.57174894515E+02 -0.18153817273E+03  0.19045776998E+03  0.10000000000E+01 0.  0.
    9000005    1    3    3    0    0 -0.69343655338E+01 -0.57174894515E+02 -0.71875582662E+02  0.92109464070E+02  0.10000000000E+01 0.  0.
<mgrwt>
<rscale>  0 0.12500284E+03</rscale>
<asrwt>0</asrwt>
<pdfrwt beam="1">  1        4 0.22425755E-02 0.12500284E+03</pdfrwt>
<pdfrwt beam="2">  1       -4 0.41229303E-01 0.12500284E+03</pdfrwt>
<totfact> 0.77834022E+03</totfact>
</mgrwt>
</event>
<event>
 5    1  0.3196850E-002  0.1249997E+03  0.7818608E-02  0.1235070E+00
         -4   -1    0    0    0  501 -0.00000000000E+00  0.00000000000E+00  0.15807566084E+02  0.15858500733E+02  0.12700000000E+01 0.  1.
          4   -1    0    0  501    0  0.00000000000E+00 -0.00000000000E+00 -0.24666136257E+03  0.24666463201E+03  0.12700000000E+01 0.  1.
         25    2    1    2    0    0  0.00000000000E+00  0.00000000000E+00 -0.23085379649E+03  0.26252313275E+03  0.12499967950E+03 0.  0.
    9000005    1    3    3    0    0 -0.22371801816E+01 -0.55130129235E+02 -0.17704857050E+03  0.18544954150E+03  0.10000000000E+01 0.  0.
    9000005    1    3    3    0    0  0.22371801816E+01  0.55130129235E+02 -0.53805225987E+02  0.77073591250E+02  0.10000000000E+01 0.  0.
<mgrwt>
<rscale>  0 0.12499968E+03</rscale>
<asrwt>0</asrwt>
<pdfrwt beam="2">  1        4 0.37952069E-01 0.12499968E+03</pdfrwt>
<pdfrwt beam="1">  1       -4 0.24361030E-02 0.12499968E+03</pdfrwt>
<totfact> 0.80553850E+03</totfact>
</mgrwt>
</event>
<event>
 5    1  0.3196850E-002  0.1249979E+03  0.7818608E-02  0.1235073E+00
          4   -1    0    0  501    0  0.00000000000E+00  0.00000000000E+00  0.29764650177E+02  0.29791732077E+02  0.12700000000E+01 0.  1.
         -4   -1    0    0    0  501 -0.00000000000E+00 -0.00000000000E+00 -0.13114359312E+03  0.13114974234E+03  0.12700000000E+01 0.  1.
         25    2    1    2    0    0  0.00000000000E+00  0.00000000000E+00 -0.10137894295E+03  0.16094147442E+03  0.12499787245E+03 0.  0.
    9000005    1    3    3    0    0  0.17615206439E+02  0.21336693140E+02 -0.12283347452E+03  0.12591510011E+03  0.10000000000E+01 0.  0.
    9000005    1    3    3    0    0 -0.17615206439E+02 -0.21336693140E+02  0.21454531580E+02  0.35026374311E+02  0.10000000000E+01 0.  0.
<mgrwt>
<rscale>  0 0.12499787E+03</rscale>
<asrwt>0</asrwt>
<pdfrwt beam="1">  1        4 0.45817333E-02 0.12499787E+03</pdfrwt>
<pdfrwt beam="2">  1       -4 0.20178493E-01 0.12499787E+03</pdfrwt>
<totfact> 0.97166229E+03</totfact>
</mgrwt>
</event>
<event>
 5    1  0.3196850E-002  0.1250032E+03  0.7818608E-02  0.1235064E+00
          4   -1    0    0  501    0  0.00000000000E+00  0.00000000000E+00  0.25454770281E+03  0.25455087096E+03  0.12700000000E+01 0.  1.
         -4   -1    0    0    0  501 -0.00000000000E+00 -0.00000000000E+00 -0.15317095161E+02  0.15369655304E+02  0.12700000000E+01 0.  1.
         25    2    1    2    0    0  0.00000000000E+00  0.00000000000E+00  0.23923060765E+03  0.26992052626E+03  0.12500322741E+03 0.  0.
    9000005    1    3    3    0    0  0.53085455705E+02  0.27004408471E+02  0.16047978318E+03  0.17117845803E+03  0.10000000000E+01 0.  0.
    9000005    1    3    3    0    0 -0.53085455705E+02 -0.27004408471E+02  0.78750824468E+02  0.98742068231E+02  0.10000000000E+01 0.  0.
<mgrwt>
<rscale>  0 0.12500323E+03</rscale>
<asrwt>0</asrwt>
<pdfrwt beam="1">  1        4 0.39165474E-01 0.12500323E+03</pdfrwt>
<pdfrwt beam="2">  1       -4 0.23607628E-02 0.12500323E+03</pdfrwt>
<totfact> 0.79527991E+03</totfact>
</mgrwt>
</event>
<event>
 5    1  0.3196850E-002  0.1250006E+03  0.7818608E-02  0.1235068E+00
          4   -1    0    0  501    0  0.00000000000E+00  0.00000000000E+00  0.25499006317E+01  0.28486651667E+01  0.12700000000E+01 0. -1.
         -4   -1    0    0    0  501 -0.00000000000E+00 -0.00000000000E+00 -0.14468590943E+04  0.14468596517E+04  0.12700000000E+01 0. -1.
         25    2    1    2    0    0  0.00000000000E+00  0.00000000000E+00 -0.14443091936E+04  0.14497083168E+04  0.12500062807E+03 0.  0.
    9000005    1    3    3    0    0  0.10983146854E+02 -0.39080080479E+01 -0.14341936463E+04  0.14342413733E+04  0.10000000000E+01 0.  0.
    9000005    1    3    3    0    0 -0.10983146854E+02  0.39080080479E+01 -0.10115547390E+02  0.15466943483E+02  0.10000000000E+01 0.  0.
<mgrwt>
<rscale>  0 0.12500063E+03</rscale>
<asrwt>0</asrwt>
<pdfrwt beam="1">  1        4 0.41531832E-03 0.12500063E+03</pdfrwt>
<pdfrwt beam="2">  1       -4 0.22261611E+00 0.12500063E+03</pdfrwt>
<totfact> 0.18938528E+03</totfact>
</mgrwt>
</event>
<event>
 5    1  0.3196850E-002  0.1249992E+03  0.7818608E-02  0.1235071E+00
          4   -1    0    0  501    0  0.00000000000E+00  0.00000000000E+00  0.74679556028E+01  0.75751739839E+01  0.12700000000E+01 0. -1.
         -4   -1    0    0    0  501 -0.00000000000E+00 -0.00000000000E+00 -0.51922534863E+03  0.51922690181E+03  0.12700000000E+01 0. -1.
         25    2    1    2    0    0  0.00000000000E+00  0.00000000000E+00 -0.51175739303E+03  0.52680207579E+03  0.12499919096E+03 0.  0.
    9000005    1    3    3    0    0 -0.72082312727E+01  0.51282907003E+02 -0.40328210436E+03  0.40659482393E+03  0.10000000000E+01 0.  0.
    9000005    1    3    3    0    0  0.72082312727E+01 -0.51282907003E+02 -0.10847528867E+03  0.12020725187E+03  0.10000000000E+01 0.  0.
<mgrwt>
<rscale>  0 0.12499919E+03</rscale>
<asrwt>0</asrwt>
<pdfrwt beam="1">  1        4 0.11572837E-02 0.12499919E+03</pdfrwt>
<pdfrwt beam="2">  1       -4 0.79889162E-01 0.12499919E+03</pdfrwt>
<totfact> 0.53844181E+03</totfact>
</mgrwt>
</event>
<event>
 5    1  0.3196850E-002  0.1250078E+03  0.7818608E-02  0.1235057E+00
         -4   -1    0    0    0  501 -0.00000000000E+00  0.00000000000E+00  0.39192982940E+03  0.39193188703E+03  0.12700000000E+01 0.  1.
          4   -1    0    0  501    0  0.00000000000E+00 -0.00000000000E+00 -0.99254054624E+01  0.10006326678E+02  0.12700000000E+01 0.  1.
         25    2    1    2    0    0  0.00000000000E+00  0.00000000000E+00  0.38200442394E+03  0.40193821371E+03  0.12500779069E+03 0.  0.
    9000005    1    3    3    0    0 -0.32194474220E+02  0.48774797509E+01  0.36251586075E+03  0.36397667957E+03  0.10000000000E+01 0.  0.
    9000005    1    3    3    0    0  0.32194474220E+02 -0.48774797509E+01  0.19488563191E+02  0.37961534140E+02  0.10000000000E+01 0.  0.
<mgrwt>
<rscale>  0 0.12500779E+03</rscale>
<asrwt>0</asrwt>
<pdfrwt beam="2">  1        4 0.15333689E-02 0.12500779E+03</pdfrwt>
<pdfrwt beam="1">  1       -4 0.60303260E-01 0.12500779E+03</pdfrwt>
<totfact> 0.64353659E+03</totfact>
</mgrwt>
</event>
<event>
 5    1  0.3196850E-002  0.1250001E+03  0.7818608E-02  0.1235069E+00
         -4   -1    0    0    0  501 -0.00000000000E+00  0.00000000000E+00  0.15297087095E+03  0.15297614278E+03  0.12700000000E+01 0.  1.
          4   -1    0    0  501    0  0.00000000000E+00 -0.00000000000E+00 -0.25514432418E+02  0.25546020465E+02  0.12700000000E+01 0.  1.
         25    2    1    2    0    0  0.00000000000E+00  0.00000000000E+00  0.12745643853E+03  0.17852216324E+03  0.12500007618E+03 0.  0.
    9000005    1    3    3    0    0 -0.57087169778E+02 -0.22346451839E+02  0.81040751583E+02  0.10162141644E+03  0.10000000000E+01 0.  0.
    9000005    1    3    3    0    0  0.57087169778E+02  0.22346451839E+02  0.46415686948E+02  0.76900746797E+02  0.10000000000E+01 0.  0.
<mgrwt>
<rscale>  0 0.12500008E+03</rscale>
<asrwt>0</asrwt>
<pdfrwt beam="2">  1        4 0.39281326E-02 0.12500008E+03</pdfrwt>
<pdfrwt beam="1">  1       -4 0.23536816E-01 0.12500008E+03</pdfrwt>
<totfact> 0.93883536E+03</totfact>
</mgrwt>
</event>
<event>
 5    1  0.3196850E-002  0.1250037E+03  0.7818608E-02  0.1235064E+00
          4   -1    0    0  501    0  0.00000000000E+00  0.00000000000E+00  0.62310689547E+02  0.62323630605E+02  0.12700000000E+01 0.  1.
         -4   -1    0    0    0  501 -0.00000000000E+00 -0.00000000000E+00 -0.62667679980E+02  0.62680547334E+02  0.12700000000E+01 0.  1.
         25    2    1    2    0    0  0.00000000000E+00  0.00000000000E+00 -0.35699043312E+00  0.12500417794E+03  0.12500366819E+03 0.  0.
    9000005    1    3    3    0    0  0.46125069180E+01  0.36595396040E+02  0.50269515547E+02  0.62358018127E+02  0.10000000000E+01 0.  0.
    9000005    1    3    3    0    0 -0.46125069180E+01 -0.36595396040E+02 -0.50626505980E+02  0.62646159812E+02  0.10000000000E+01 0.  0.
<mgrwt>
<rscale>  0 0.12500367E+03</rscale>
<asrwt>0</asrwt>
<pdfrwt beam="1">  1        4 0.95882453E-02 0.12500367E+03</pdfrwt>
<pdfrwt beam="2">  1       -4 0.96431667E-02 0.12500367E+03</pdfrwt>
<totfact> 0.10451905E+04</totfact>
</mgrwt>
</event>
<event>
 5    1  0.3196850E-002  0.1250014E+03  0.7818608E-02  0.1235067E+00
          4   -1    0    0  501    0  0.00000000000E+00  0.00000000000E+00  0.93097522598E+02  0.93106184617E+02  0.12700000000E+01 0.  1.
         -4   -1    0    0    0  501 -0.00000000000E+00 -0.00000000000E+00 -0.41939399405E+02  0.41958623935E+02  0.12700000000E+01 0.  1.
         25    2    1    2    0    0  0.00000000000E+00  0.00000000000E+00  0.51158123192E+02  0.13506480855E+03  0.12500139575E+03 0.  0.
    9000005    1    3    3    0    0 -0.39188080404E+02  0.28600521231E+02  0.68141164439E+02  0.83653534005E+02  0.10000000000E+01 0.  0.
    9000005    1    3    3    0    0  0.39188080404E+02 -0.28600521231E+02 -0.16983041247E+02  0.51411274546E+02  0.10000000000E+01 0.  0.
<mgrwt>
<rscale>  0 0.12500140E+03</rscale>
<asrwt>0</asrwt>
<pdfrwt beam="1">  1        4 0.14324841E-01 0.12500140E+03</pdfrwt>
<pdfrwt beam="2">  1       -4 0.64543604E-02 0.12500140E+03</pdfrwt>
<totfact> 0.10236383E+04</totfact>
</mgrwt>
</event>
<event>
 5    1  0.3196850E-002  0.1250046E+03  0.7818608E-02  0.1235062E+00
         -4   -1    0    0    0  501 -0.00000000000E+00  0.00000000000E+00  0.72126961078E+02  0.72138141190E+02  0.12700000000E+01 0. -1.
          4   -1    0    0  501    0  0.00000000000E+00 -0.00000000000E+00 -0.54139125948E+02  0.54154019781E+02  0.12700000000E+01 0. -1.
         25    2    1    2    0    0  0.00000000000E+00  0.00000000000E+00  0.17987835129E+02  0.12629216097E+03  0.12500459076E+03 0.  0.
    9000005    1    3    3    0    0  0.59066495559E+02  0.19986666204E+02  0.48015730270E+01  0.62548963437E+02  0.10000000000E+01 0.  0.
    9000005    1    3    3    0    0 -0.59066495559E+02 -0.19986666204E+02  0.13186262102E+02  0.63743197533E+02  0.10000000000E+01 0.  0.
<mgrwt>
<rscale>  0 0.12500459E+03</rscale>
<asrwt>0</asrwt>
<pdfrwt beam="2">  1        4 0.83311019E-02 0.12500459E+03</pdfrwt>
<pdfrwt beam="1">  1       -4 0.11098461E-01 0.12500459E+03</pdfrwt>
<totfact> 0.10423484E+04</totfact>
</mgrwt>
</event>
<event>
 5    1  0.3196850E-002  0.1250045E+03  0.7818608E-02  0.1235062E+00
          4   -1    0    0  501    0  0.00000000000E+00  0.00000000000E+00  0.74536953366E+01  0.75611159343E+01  0.12700000000E+01 0. -1.
         -4   -1    0    0    0  501 -0.00000000000E+00 -0.00000000000E+00 -0.52024918872E+03  0.52025073884E+03  0.12700000000E+01 0. -1.
         25    2    1    2    0    0  0.00000000000E+00  0.00000000000E+00 -0.51279549339E+03  0.52781185478E+03  0.12500454394E+03 0.  0.
    9000005    1    3    3    0    0 -0.37695087852E+02 -0.49084446193E+02 -0.29304501725E+03  0.29951057518E+03  0.10000000000E+01 0.  0.
    9000005    1    3    3    0    0  0.37695087852E+02  0.49084446193E+02 -0.21975047614E+03  0.22830127960E+03  0.10000000000E+01 0.  0.
<mgrwt>
<rscale>  0 0.12500454E+03</rscale>
<asrwt>0</asrwt>
<pdfrwt beam="1">  1        4 0.11551051E-02 0.12500454E+03</pdfrwt>
<pdfrwt beam="2">  1       -4 0.80046691E-01 0.12500454E+03</pdfrwt>
<totfact> 0.53763928E+03</totfact>
</mgrwt>
</event>
<event>
 5    1  0.3196850E-002  0.1250009E+03  0.7818608E-02  0.1235068E+00
          4   -1    0    0  501    0  0.00000000000E+00  0.00000000000E+00  0.18558965367E+02  0.18602368008E+02  0.12700000000E+01 0. -1.
         -4   -1    0    0    0  501 -0.00000000000E+00 -0.00000000000E+00 -0.21018967940E+03  0.21019351614E+03  0.12700000000E+01 0. -1.
         25    2    1    2    0    0  0.00000000000E+00  0.00000000000E+00 -0.19163071403E+03  0.22879588414E+03  0.12500090416E+03 0.  0.
    9000005    1    3    3    0    0  0.26041526190E-01  0.47528958591E+02 -0.17008136164E+03  0.17660031756E+03  0.10000000000E+01 0.  0.
    9000005    1    3    3    0    0 -0.26041526190E-01 -0.47528958591E+02 -0.21549352388E+02  0.52195566587E+02  0.10000000000E+01 0.  0.
<mgrwt>
<rscale>  0 0.12500090E+03</rscale>
<asrwt>0</asrwt>
<pdfrwt beam="1">  1        4 0.28588594E-02 0.12500090E+03</pdfrwt>
<pdfrwt beam="2">  1       -4 0.32340506E-01 0.12500090E+03</pdfrwt>
<totfact> 0.85493109E+03</totfact>
</mgrwt>
</event>
<event>
 5    1  0.3196850E-002  0.1249960E+03  0.7818608E-02  0.1235076E+00
         -4   -1    0    0    0  501 -0.00000000000E+00  0.00000000000E+00  0.50420466303E+02  0.50436458264E+02  0.12700000000E+01 0. -1.
          4   -1    0    0  501    0  0.00000000000E+00 -0.00000000000E+00 -0.77435033392E+02  0.77445447229E+02  0.12700000000E+01 0. -1.
         25    2    1    2    0    0  0.00000000000E+00  0.00000000000E+00 -0.27014567090E+02  0.12788190549E+03  0.12499597960E+03 0.  0.
    9000005    1    3    3    0    0  0.54487296021E+02  0.14984638330E+02  0.13784327137E+02  0.58175703590E+02  0.10000000000E+01 0.  0.
    9000005    1    3    3    0    0 -0.54487296021E+02 -0.14984638330E+02 -0.40798894227E+02  0.69706201903E+02  0.10000000000E+01 0.  0.
<mgrwt>
<rscale>  0 0.12499598E+03</rscale>
<asrwt>0</asrwt>
<pdfrwt beam="2">  1        4 0.11915113E-01 0.12499598E+03</pdfrwt>
<pdfrwt beam="1">  1       -4 0.77590260E-02 0.12499598E+03</pdfrwt>
<totfact> 0.10390982E+04</totfact>
</mgrwt>
</event>
<event>
 5    1  0.3196850E-002  0.1249891E+03  0.7818608E-02  0.1235086E+00
          4   -1    0    0  501    0  0.00000000000E+00  0.00000000000E+00  0.17363684203E+01  0.21512497044E+01  0.12700000000E+01 0. -1.
         -4   -1    0    0    0  501 -0.00000000000E+00 -0.00000000000E+00 -0.20088192229E+04  0.20088196244E+04  0.12700000000E+01 0. -1.
         25    2    1    2    0    0  0.00000000000E+00  0.00000000000E+00 -0.20070828545E+04  0.20109708741E+04  0.12498908579E+03 0.  0.
    9000005    1    3    3    0    0 -0.45850803509E+02 -0.30334796420E+02 -0.52569794492E+03  0.52856581931E+03  0.10000000000E+01 0.  0.
    9000005    1    3    3    0    0  0.45850803509E+02  0.30334796420E+02 -0.14813849096E+04  0.14824050548E+04  0.10000000000E+01 0.  0.
<mgrwt>
<rscale>  0 0.12498909E+03</rscale>
<asrwt>0</asrwt>
<pdfrwt beam="1">  1        4 0.29908004E-03 0.12498909E+03</pdfrwt>
<pdfrwt beam="2">  1       -4 0.30907940E+00 0.12498909E+03</pdfrwt>
<totfact> 0.97211465E+02</totfact>
</mgrwt>
</event>
<event>
 5    1  0.3196850E-002  0.1250009E+03  0.7818608E-02  0.1235068E+00
         -4   -1    0    0    0  501 -0.00000000000E+00  0.00000000000E+00  0.17276260755E+03  0.17276727545E+03  0.12700000000E+01 0.  1.
          4   -1    0    0  501    0  0.00000000000E+00 -0.00000000000E+00 -0.22588008870E+02  0.22623683270E+02  0.12700000000E+01 0.  1.
         25    2    1    2    0    0  0.00000000000E+00  0.00000000000E+00  0.15017459868E+03  0.19539095872E+03  0.12500086664E+03 0.  0.
    9000005    1    3    3    0    0 -0.29769076190E+01 -0.59149936849E+02  0.10626069149E+03  0.12165488714E+03  0.10000000000E+01 0.  0.
    9000005    1    3    3    0    0  0.29769076190E+01  0.59149936849E+02  0.43913907186E+02  0.73736071584E+02  0.10000000000E+01 0.  0.
<mgrwt>
<rscale>  0 0.12500087E+03</rscale>
<asrwt>0</asrwt>
<pdfrwt beam="2">  1        4 0.34781815E-02 0.12500087E+03</pdfrwt>
<pdfrwt beam="1">  1       -4 0.26581966E-01 0.12500087E+03</pdfrwt>
<totfact> 0.90915910E+03</totfact>
</mgrwt>
</event>
<event>
 5    1  0.3196850E-002  0.1249934E+03  0.7818608E-02  0.1235080E+00
         -4   -1    0    0    0  501 -0.00000000000E+00  0.00000000000E+00  0.16635256617E+02  0.16683664547E+02  0.12700000000E+01 0.  1.
          4   -1    0    0  501    0  0.00000000000E+00 -0.00000000000E+00 -0.23440130361E+03  0.23440474405E+03  0.12700000000E+01 0.  1.
         25    2    1    2    0    0  0.00000000000E+00  0.00000000000E+00 -0.21776604699E+03  0.25108840860E+03  0.12499335066E+03 0.  0.
    9000005    1    3    3    0    0 -0.35981264141E+02 -0.38929239272E+02 -0.17534707247E+03  0.18318769845E+03  0.10000000000E+01 0.  0.
    9000005    1    3    3    0    0  0.35981264141E+02  0.38929239272E+02 -0.42418974528E+02  0.67900710155E+02  0.10000000000E+01 0.  0.
<mgrwt>
<rscale>  0 0.12499335E+03</rscale>
<asrwt>0</asrwt>
<pdfrwt beam="2">  1        4 0.36065725E-01 0.12499335E+03</pdfrwt>
<pdfrwt beam="1">  1       -4 0.25632587E-02 0.12499335E+03</pdfrwt>
<totfact> 0.82185346E+03</totfact>
</mgrwt>
</event>
<event>
 5    1  0.3196850E-002  0.1249997E+03  0.7818608E-02  0.1235070E+00
          4   -1    0    0  501    0  0.00000000000E+00  0.00000000000E+00  0.22654393799E+03  0.22654749775E+03  0.12700000000E+01 0.  1.
         -4   -1    0    0    0  501 -0.00000000000E+00 -0.00000000000E+00 -0.17215619365E+02  0.17262399895E+02  0.12700000000E+01 0.  1.
         25    2    1    2    0    0  0.00000000000E+00  0.00000000000E+00  0.20932831862E+03  0.24380989765E+03  0.12499968486E+03 0.  0.
    9000005    1    3    3    0    0  0.60274981966E+02  0.11590344097E+01  0.13676212899E+03  0.14946336253E+03  0.10000000000E+01 0.  0.
    9000005    1    3    3    0    0 -0.60274981966E+02 -0.11590344097E+01  0.72566189629E+02  0.94346535119E+02  0.10000000000E+01 0.  0.
<mgrwt>
<rscale>  0 0.12499968E+03</rscale>
<asrwt>0</asrwt>
<pdfrwt beam="1">  1        4 0.34856788E-01 0.12499968E+03</pdfrwt>
<pdfrwt beam="2">  1       -4 0.26524290E-02 0.12499968E+03</pdfrwt>
<totfact> 0.83233785E+03</totfact>
</mgrwt>
</event>
<event>
 5    1  0.3196850E-002  0.1250096E+03  0.7818608E-02  0.1235054E+00
         -4   -1    0    0    0  501 -0.00000000000E+00  0.00000000000E+00  0.30632437243E+02  0.30658752607E+02  0.12700000000E+01 0.  1.
          4   -1    0    0  501    0  0.00000000000E+00 -0.00000000000E+00 -0.12745546550E+03  0.12746179265E+03  0.12700000000E+01 0.  1.
         25    2    1    2    0    0  0.00000000000E+00  0.00000000000E+00 -0.96823028259E+02  0.15812054526E+03  0.12500963176E+03 0.  0.
    9000005    1    3    3    0    0 -0.25215963021E+01  0.56682545486E+02 -0.15268559445E+02  0.58765621908E+02  0.10000000000E+01 0.  0.
    9000005    1    3    3    0    0  0.25215963021E+01 -0.56682545486E+02 -0.81554468814E+02  0.99354923352E+02  0.10000000000E+01 0.  0.
<mgrwt>
<rscale>  0 0.12500963E+03</rscale>
<asrwt>0</asrwt>
<pdfrwt beam="2">  1        4 0.19611044E-01 0.12500963E+03</pdfrwt>
<pdfrwt beam="1">  1       -4 0.47151937E-02 0.12500963E+03</pdfrwt>
<totfact> 0.97685203E+03</totfact>
</mgrwt>
</event>
<event>
 5    1  0.3196850E-002  0.1249967E+03  0.7818608E-02  0.1235074E+00
         -4   -1    0    0    0  501 -0.00000000000E+00  0.00000000000E+00  0.30050923300E+03  0.30051191660E+03  0.12700000000E+01 0.  1.
          4   -1    0    0  501    0  0.00000000000E+00 -0.00000000000E+00 -0.12964319851E+02  0.13026376672E+02  0.12700000000E+01 0.  1.
         25    2    1    2    0    0  0.00000000000E+00  0.00000000000E+00  0.28754491315E+03  0.31353829327E+03  0.12499673704E+03 0.  0.
    9000005    1    3    3    0    0  0.23920882839E+01 -0.60316376422E+02  0.18431652331E+03  0.19395197374E+03  0.10000000000E+01 0.  0.
    9000005    1    3    3    0    0 -0.23920882839E+01  0.60316376422E+02  0.10322838983E+03  0.11958631953E+03  0.10000000000E+01 0.  0.
<mgrwt>
<rscale>  0 0.12499674E+03</rscale>
<asrwt>0</asrwt>
<pdfrwt beam="2">  1        4 0.19994909E-02 0.12499674E+03</pdfrwt>
<pdfrwt beam="1">  1       -4 0.46237167E-01 0.12499674E+03</pdfrwt>
<totfact> 0.73936658E+03</totfact>
</mgrwt>
</event>
<event>
 5    1  0.3196850E-002  0.1250121E+03  0.7818608E-02  0.1235050E+00
         -4   -1    0    0    0  501 -0.00000000000E+00  0.00000000000E+00  0.49686584278E+03  0.49686746585E+03  0.12700000000E+01 0. -1.
          4   -1    0    0  501    0  0.00000000000E+00 -0.00000000000E+00 -0.78103758195E+01  0.79129558600E+01  0.12700000000E+01 0. -1.
         25    2    1    2    0    0  0.00000000000E+00  0.00000000000E+00  0.48905546696E+03  0.50478042171E+03  0.12501209693E+03 0.  0.
    9000005    1    3    3    0    0 -0.30120568809E+02  0.16268774967E+02  0.33394587076E+02  0.47834298890E+02  0.10000000000E+01 0.  0.
    9000005    1    3    3    0    0  0.30120568809E+02 -0.16268774967E+02  0.45566087988E+03  0.45694612282E+03  0.10000000000E+01 0.  0.
<mgrwt>
<rscale>  0 0.12501210E+03</rscale>
<asrwt>0</asrwt>
<pdfrwt beam="2">  1        4 0.12096117E-02 0.12501210E+03</pdfrwt>
<pdfrwt beam="1">  1       -4 0.76448928E-01 0.12501210E+03</pdfrwt>
<totfact> 0.55480598E+03</totfact>
</mgrwt>
</event>
<event>
 5    1  0.3196850E-002  0.1249990E+03  0.7818608E-02  0.1235071E+00
         -4   -1    0    0    0  501 -0.00000000000E+00  0.00000000000E+00  0.16336829582E+03  0.16337323214E+03  0.12700000000E+01 0.  1.
          4   -1    0    0  501    0  0.00000000000E+00 -0.00000000000E+00 -0.23888152998E+02  0.23921888589E+02  0.12700000000E+01 0.  1.
         25    2    1    2    0    0  0.00000000000E+00  0.00000000000E+00  0.13948014283E+03  0.18729512073E+03  0.12499900802E+03 0.  0.
    9000005    1    3    3    0    0  0.21657463427E+02 -0.41607396160E+02  0.78703915811E+01  0.47572725389E+02  0.10000000000E+01 0.  0.
    9000005    1    3    3    0    0 -0.21657463427E+02  0.41607396160E+02  0.13160975124E+03  0.13972239534E+03  0.10000000000E+01 0.  0.
<mgrwt>
<rscale>  0 0.12499901E+03</rscale>
<asrwt>0</asrwt>
<pdfrwt beam="2">  1        4 0.36780752E-02 0.12499901E+03</pdfrwt>
<pdfrwt beam="1">  1       -4 0.25136559E-01 0.12499901E+03</pdfrwt>
<totfact> 0.92322148E+03</totfact>
</mgrwt>
</event>
<event>
 5    1  0.3196850E-002  0.1250129E+03  0.7818608E-02  0.1235049E+00
         -4   -1    0    0    0  501 -0.00000000000E+00  0.00000000000E+00  0.48406808291E+03  0.48406974889E+03  0.12700000000E+01 0.  1.
          4   -1    0    0  501    0  0.00000000000E+00 -0.00000000000E+00 -0.80196503267E+01  0.81195868960E+01  0.12700000000E+01 0.  1.
         25    2    1    2    0    0  0.00000000000E+00  0.00000000000E+00  0.47604843258E+03  0.49218933579E+03  0.12501292772E+03 0.  0.
    9000005    1    3    3    0    0 -0.37376855421E+02  0.48250811422E-01  0.43523464937E+03  0.43683776355E+03  0.10000000000E+01 0.  0.
    9000005    1    3    3    0    0  0.37376855421E+02 -0.48250811422E-01  0.40813783217E+02  0.55351572243E+02  0.10000000000E+01 0.  0.
<mgrwt>
<rscale>  0 0.12501293E+03</rscale>
<asrwt>0</asrwt>
<pdfrwt beam="2">  1        4 0.12416078E-02 0.12501293E+03</pdfrwt>
<pdfrwt beam="1">  1       -4 0.74479834E-01 0.12501293E+03</pdfrwt>
<totfact> 0.56459452E+03</totfact>
</mgrwt>
</event>
<event>
 5    1  0.3196850E-002  0.1249991E+03  0.7818608E-02  0.1235071E+00
          4   -1    0    0  501    0  0.00000000000E+00  0.00000000000E+00  0.42769745323E+03  0.42769933879E+03  0.12700000000E+01 0.  1.
         -4   -1    0    0    0  501 -0.00000000000E+00 -0.00000000000E+00 -0.90870082415E+01  0.91753266308E+01  0.12700000000E+01 0.  1.
         25    2    1    2    0    0  0.00000000000E+00  0.00000000000E+00  0.41861044499E+03  0.43687466542E+03  0.12499907452E+03 0.  0.
    9000005    1    3    3    0    0 -0.57775715099E+02 -0.18203337347E+02  0.26297373767E+03  0.26986215268E+03  0.10000000000E+01 0.  0.
    9000005    1    3    3    0    0  0.57775715099E+02  0.18203337347E+02  0.15563670731E+03  0.16701251273E+03  0.10000000000E+01 0.  0.
<mgrwt>
<rscale>  0 0.12499907E+03</rscale>
<asrwt>0</asrwt>
<pdfrwt beam="1">  1        4 0.65806551E-01 0.12499907E+03</pdfrwt>
<pdfrwt beam="2">  1       -4 0.14049400E-02 0.12499907E+03</pdfrwt>
<totfact> 0.61118993E+03</totfact>
</mgrwt>
</event>
<event>
 5    1  0.3196850E-002  0.1250041E+03  0.7818608E-02  0.1235063E+00
         -4   -1    0    0    0  501 -0.00000000000E+00  0.00000000000E+00  0.76072587030E+02  0.76083187350E+02  0.12700000000E+01 0.  1.
          4   -1    0    0  501    0  0.00000000000E+00 -0.00000000000E+00 -0.51330337783E+02  0.51346046361E+02  0.12700000000E+01 0.  1.
         25    2    1    2    0    0  0.00000000000E+00  0.00000000000E+00  0.24742249247E+02  0.12742923371E+03  0.12500412276E+03 0.  0.
    9000005    1    3    3    0    0 -0.32692338769E+02 -0.53255018490E+02  0.13174880164E+02  0.63870677748E+02  0.10000000000E+01 0.  0.
    9000005    1    3    3    0    0  0.32692338769E+02  0.53255018490E+02  0.11567369083E+02  0.63558555963E+02  0.10000000000E+01 0.  0.
<mgrwt>
<rscale>  0 0.12500412E+03</rscale>
<asrwt>0</asrwt>
<pdfrwt beam="2">  1        4 0.78989989E-02 0.12500412E+03</pdfrwt>
<pdfrwt beam="1">  1       -4 0.11705499E-01 0.12500412E+03</pdfrwt>
<totfact> 0.10398866E+04</totfact>
</mgrwt>
</event>
<event>
 5    1  0.3196850E-002  0.1250015E+03  0.7818608E-02  0.1235067E+00
          4   -1    0    0  501    0  0.00000000000E+00  0.00000000000E+00  0.59438958173E+02  0.59452524325E+02  0.12700000000E+01 0.  1.
         -4   -1    0    0    0  501 -0.00000000000E+00 -0.00000000000E+00 -0.65693035361E+02  0.65705310249E+02  0.12700000000E+01 0.  1.
         25    2    1    2    0    0  0.00000000000E+00  0.00000000000E+00 -0.62540771885E+01  0.12515783457E+03  0.12500148029E+03 0.  0.
    9000005    1    3    3    0    0  0.56146328646E+02  0.26645810458E+02  0.34334913676E+01  0.62251090740E+02  0.10000000000E+01 0.  0.
    9000005    1    3    3    0    0 -0.56146328646E+02 -0.26645810458E+02 -0.96875685561E+01  0.62906743835E+02  0.10000000000E+01 0.  0.
<mgrwt>
<rscale>  0 0.12500148E+03</rscale>
<asrwt>0</asrwt>
<pdfrwt beam="1">  1        4 0.91464428E-02 0.12500148E+03</pdfrwt>
<pdfrwt beam="2">  1       -4 0.10108609E-01 0.12500148E+03</pdfrwt>
<totfact> 0.10449086E+04</totfact>
</mgrwt>
</event>
<event>
 5    1  0.3196850E-002  0.1250305E+03  0.7818608E-02  0.1235022E+00
          4   -1    0    0  501    0  0.00000000000E+00  0.00000000000E+00  0.11991577375E+03  0.11992249870E+03  0.12700000000E+01 0.  1.
         -4   -1    0    0    0  501 -0.00000000000E+00 -0.00000000000E+00 -0.32570840531E+02  0.32595591004E+02  0.12700000000E+01 0.  1.
         25    2    1    2    0    0  0.00000000000E+00  0.00000000000E+00  0.87344933222E+02  0.15251808971E+03  0.12503051759E+03 0.  0.
    9000005    1    3    3    0    0  0.16957369540E+01 -0.41657679292E+02 -0.13137832541E+02  0.43724597330E+02  0.10000000000E+01 0.  0.
    9000005    1    3    3    0    0 -0.16957369540E+01  0.41657679292E+02  0.10048276576E+03  0.10879349238E+03  0.10000000000E+01 0.  0.
<mgrwt>
<rscale>  0 0.12503052E+03</rscale>
<asrwt>0</asrwt>
<pdfrwt beam="1">  1        4 0.18451002E-01 0.12503052E+03</pdfrwt>
<pdfrwt beam="2">  1       -4 0.50133197E-02 0.12503052E+03</pdfrwt>
<totfact> 0.98736292E+03</totfact>
</mgrwt>
</event>
<event>
 5    1  0.3196850E-002  0.1249996E+03  0.7818608E-02  0.1235070E+00
         -4   -1    0    0    0  501 -0.00000000000E+00  0.00000000000E+00  0.13305249574E+03  0.13305855675E+03  0.12700000000E+01 0.  1.
          4   -1    0    0  501    0  0.00000000000E+00 -0.00000000000E+00 -0.29338048717E+02  0.29365524047E+02  0.12700000000E+01 0.  1.
         25    2    1    2    0    0  0.00000000000E+00  0.00000000000E+00  0.10371444702E+03  0.16242408079E+03  0.12499958200E+03 0.  0.
    9000005    1    3    3    0    0 -0.13891719498E+02 -0.58350896805E+02  0.29074497440E+02  0.66664334017E+02  0.10000000000E+01 0.  0.
    9000005    1    3    3    0    0  0.13891719498E+02  0.58350896805E+02  0.74639949585E+02  0.95759746775E+02  0.10000000000E+01 0.  0.
<mgrwt>
<rscale>  0 0.12499958E+03</rscale>
<asrwt>0</asrwt>
<pdfrwt beam="2">  1        4 0.45161257E-02 0.12499958E+03</pdfrwt>
<pdfrwt beam="1">  1       -4 0.20472194E-01 0.12499958E+03</pdfrwt>
<totfact> 0.96878377E+03</totfact>
</mgrwt>
</event>
<event>
 4    1  0.3196850E-002  0.1247010E+03  0.7818608E-02  0.1235537E+00
         -4   -1    0    0    0  501 -0.00000000000E+00  0.00000000000E+00  0.42999496727E+03  0.42999684275E+03  0.12700000000E+01 0.  1.
          4   -1    0    0  501    0  0.00000000000E+00 -0.00000000000E+00 -0.89944976571E+01  0.90837155450E+01  0.12700000000E+01 0.  1.
    9000005    1    1    2    0    0 -0.26778044337E+02 -0.37980444880E+02  0.35682618494E+03  0.35984094280E+03  0.10000000000E+01 0.  0.
    9000005    1    1    2    0    0  0.26778044337E+02  0.37980444880E+02  0.64174284666E+02  0.79239615497E+02  0.10000000000E+01 0.  0.
<mgrwt>
<rscale>  0 0.12470101E+03</rscale>
<asrwt>0</asrwt>
<pdfrwt beam="2">  1        4 0.13907760E-02 0.12470101E+03</pdfrwt>
<pdfrwt beam="1">  1       -4 0.66160082E-01 0.12470101E+03</pdfrwt>
<totfact> 0.61324648E+03</totfact>
</mgrwt>
</event>
<event>
 5    1  0.3196850E-002  0.1249989E+03  0.7818608E-02  0.1235071E+00
         -4   -1    0    0    0  501 -0.00000000000E+00  0.00000000000E+00  0.27944777362E+02  0.27973621178E+02  0.12700000000E+01 0. -1.
          4   -1    0    0  501    0  0.00000000000E+00 -0.00000000000E+00 -0.13967824678E+03  0.13968402028E+03  0.12700000000E+01 0. -1.
         25    2    1    2    0    0  0.00000000000E+00  0.00000000000E+00 -0.11173346941E+03  0.16765764146E+03  0.12499886621E+03 0.  0.
    9000005    1    3    3    0    0  0.57537315254E+01  0.28945965262E+02  0.18015449236E+02  0.34590905489E+02  0.10000000000E+01 0.  0.
    9000005    1    3    3    0    0 -0.57537315254E+01 -0.28945965262E+02 -0.12974891865E+03  0.13306673597E+03  0.10000000000E+01 0.  0.
<mgrwt>
<rscale>  0 0.12499887E+03</rscale>
<asrwt>0</asrwt>
<pdfrwt beam="2">  1        4 0.21491623E-01 0.12499887E+03</pdfrwt>
<pdfrwt beam="1">  1       -4 0.43018595E-02 0.12499887E+03</pdfrwt>
<totfact> 0.95888873E+03</totfact>
</mgrwt>
</event>
<event>
 5    1  0.3196850E-002  0.1249944E+03  0.7818608E-02  0.1235078E+00
         -4   -1    0    0    0  501 -0.00000000000E+00  0.00000000000E+00  0.34776311319E+02  0.34799493228E+02  0.12700000000E+01 0.  1.
          4   -1    0    0  501    0  0.00000000000E+00 -0.00000000000E+00 -0.11225067769E+03  0.11225786183E+03  0.12700000000E+01 0.  1.
         25    2    1    2    0    0  0.00000000000E+00  0.00000000000E+00 -0.77474366375E+02  0.14705735506E+03  0.12499435280E+03 0.  0.
    9000005    1    3    3    0    0 -0.17777431685E+02 -0.23625369263E+02 -0.10350629918E+03  0.10765105257E+03  0.10000000000E+01 0.  0.
    9000005    1    3    3    0    0  0.17777431685E+02  0.23625369263E+02  0.26031932804E+02  0.39406302486E+02  0.10000000000E+01 0.  0.
<mgrwt>
<rscale>  0 0.12499435E+03</rscale>
<asrwt>0</asrwt>
<pdfrwt beam="2">  1        4 0.17271671E-01 0.12499435E+03</pdfrwt>
<pdfrwt beam="1">  1       -4 0.53525377E-02 0.12499435E+03</pdfrwt>
<totfact> 0.99906239E+03</totfact>
</mgrwt>
</event>
<event>
 5    1  0.3196850E-002  0.1249998E+03  0.7818608E-02  0.1235070E+00
         -4   -1    0    0    0  501 -0.00000000000E+00  0.00000000000E+00  0.24759925879E+03  0.24760251585E+03  0.12700000000E+01 0. -1.
          4   -1    0    0  501    0  0.00000000000E+00 -0.00000000000E+00 -0.15747534667E+02  0.15798662858E+02  0.12700000000E+01 0. -1.
         25    2    1    2    0    0  0.00000000000E+00  0.00000000000E+00  0.23185172413E+03  0.26340117871E+03  0.12499983586E+03 0.  0.
    9000005    1    3    3    0    0 -0.15844358663E+02 -0.38208676827E+02  0.21463459692E+03  0.21858626874E+03  0.10000000000E+01 0.  0.
    9000005    1    3    3    0    0  0.15844358663E+02  0.38208676827E+02  0.17217127208E+02  0.44814909970E+02  0.10000000000E+01 0.  0.
<mgrwt>
<rscale>  0 0.12499984E+03</rscale>
<asrwt>0</asrwt>
<pdfrwt beam="2">  1        4 0.24268811E-02 0.12499984E+03</pdfrwt>
<pdfrwt beam="1">  1       -4 0.38096378E-01 0.12499984E+03</pdfrwt>
<totfact> 0.80431403E+03</totfact>
</mgrwt>
</event>
<event>
 5    1  0.3196850E-002  0.1249936E+03  0.7818608E-02  0.1235079E+00
         -4   -1    0    0    0  501 -0.00000000000E+00  0.00000000000E+00  0.12025033246E+03  0.12025703870E+03  0.12700000000E+01 0.  1.
          4   -1    0    0  501    0  0.00000000000E+00 -0.00000000000E+00 -0.32460951594E+02  0.32485785790E+02  0.12700000000E+01 0.  1.
         25    2    1    2    0    0  0.00000000000E+00  0.00000000000E+00  0.87789380871E+02  0.15274282449E+03  0.12499358000E+03 0.  0.
    9000005    1    3    3    0    0 -0.30369780997E+01  0.32427194415E+02 -0.21275012122E+02  0.38914936906E+02  0.10000000000E+01 0.  0.
    9000005    1    3    3    0    0  0.30369780997E+01 -0.32427194415E+02  0.10906439299E+03  0.11382788759E+03  0.10000000000E+01 0.  0.
<mgrwt>
<rscale>  0 0.12499358E+03</rscale>
<asrwt>0</asrwt>
<pdfrwt beam="2">  1        4 0.49964188E-02 0.12499358E+03</pdfrwt>
<pdfrwt beam="1">  1       -4 0.18502477E-01 0.12499358E+03</pdfrwt>
<totfact> 0.98774007E+03</totfact>
</mgrwt>
</event>
<event>
 5    1  0.3196850E-002  0.1250021E+03  0.7818608E-02  0.1235066E+00
          4   -1    0    0  501    0  0.00000000000E+00  0.00000000000E+00  0.62594996812E+03  0.62595125648E+03  0.12700000000E+01 0.  1.
         -4   -1    0    0    0  501 -0.00000000000E+00 -0.00000000000E+00 -0.61747997361E+01  0.63040504266E+01  0.12700000000E+01 0.  1.
         25    2    1    2    0    0  0.00000000000E+00  0.00000000000E+00  0.61977516839E+03  0.63225530691E+03  0.12500205505E+03 0.  0.
    9000005    1    3    3    0    0 -0.30973852012E+02 -0.53231191864E+02  0.36352083236E+03  0.36870223060E+03  0.10000000000E+01 0.  0.
    9000005    1    3    3    0    0  0.30973852012E+02  0.53231191864E+02  0.25625433603E+03  0.26355307630E+03  0.10000000000E+01 0.  0.
<mgrwt>
<rscale>  0 0.12500206E+03</rscale>
<asrwt>0</asrwt>
<pdfrwt beam="1">  1        4 0.96310062E-01 0.12500206E+03</pdfrwt>
<pdfrwt beam="2">  1       -4 0.96001040E-03 0.12500206E+03</pdfrwt>
<totfact> 0.46890750E+03</totfact>
</mgrwt>
</event>
<event>
 5    1  0.3196850E-002  0.1250027E+03  0.7818608E-02  0.1235065E+00
         -4   -1    0    0    0  501 -0.00000000000E+00  0.00000000000E+00  0.89036803564E+02  0.89045860594E+02  0.12700000000E+01 0. -1.
          4   -1    0    0  501    0  0.00000000000E+00 -0.00000000000E+00 -0.43853754751E+02  0.43872140429E+02  0.12700000000E+01 0. -1.
         25    2    1    2    0    0  0.00000000000E+00  0.00000000000E+00  0.45183048813E+02  0.13291800102E+03  0.12500274835E+03 0.  0.
    9000005    1    3    3    0    0 -0.62376857691E+02 -0.33299589949E+01  0.24569635662E+02  0.67131423334E+02  0.10000000000E+01 0.  0.
    9000005    1    3    3    0    0  0.62376857691E+02  0.33299589949E+01  0.20613413151E+02  0.65786577689E+02  0.10000000000E+01 0.  0.
<mgrwt>
<rscale>  0 0.12500275E+03</rscale>
<asrwt>0</asrwt>
<pdfrwt beam="2">  1        4 0.67488425E-02 0.12500275E+03</pdfrwt>
<pdfrwt beam="1">  1       -4 0.13700081E-01 0.12500275E+03</pdfrwt>
<totfact> 0.10281506E+04</totfact>
</mgrwt>
</event>
<event>
 5    1  0.3196850E-002  0.1249985E+03  0.7818608E-02  0.1235072E+00
          4   -1    0    0  501    0  0.00000000000E+00  0.00000000000E+00  0.27865214404E+03  0.27865503813E+03  0.12700000000E+01 0.  1.
         -4   -1    0    0    0  501 -0.00000000000E+00 -0.00000000000E+00 -0.13986303317E+02  0.14043844932E+02  0.12700000000E+01 0.  1.
         25    2    1    2    0    0  0.00000000000E+00  0.00000000000E+00  0.26466584072E+03  0.29269888307E+03  0.12499851560E+03 0.  0.
    9000005    1    3    3    0    0 -0.23339899281E+02  0.20583477814E+02  0.54369063592E+01  0.31606809521E+02  0.10000000000E+01 0.  0.
    9000005    1    3    3    0    0  0.23339899281E+02 -0.20583477814E+02  0.25922893436E+03  0.26109207355E+03  0.10000000000E+01 0.  0.
<mgrwt>
<rscale>  0 0.12499852E+03</rscale>
<asrwt>0</asrwt>
<pdfrwt beam="1">  1        4 0.42874211E-01 0.12499852E+03</pdfrwt>
<pdfrwt beam="2">  1       -4 0.21563878E-02 0.12499852E+03</pdfrwt>
<totfact> 0.76526420E+03</totfact>
</mgrwt>
</event>
<event>
 5    1  0.3196850E-002  0.1249976E+03  0.7818608E-02  0.1235073E+00
          4   -1    0    0  501    0  0.00000000000E+00  0.00000000000E+00  0.92561822086E+02  0.92570534231E+02  0.12700000000E+01 0. -1.
         -4   -1    0    0    0  501 -0.00000000000E+00 -0.00000000000E+00 -0.42179661880E+02  0.42198776953E+02  0.12700000000E+01 0. -1.
         25    2    1    2    0    0  0.00000000000E+00  0.00000000000E+00  0.50382160206E+02  0.13476931118E+03  0.12499762066E+03 0.  0.
    9000005    1    3    3    0    0  0.13227320119E+02 -0.12456700010E+02  0.89656298511E+02  0.91484333278E+02  0.10000000000E+01 0.  0.
    9000005    1    3    3    0    0 -0.13227320119E+02  0.12456700010E+02 -0.39274138305E+02  0.43284977905E+02  0.10000000000E+01 0.  0.
<mgrwt>
<rscale>  0 0.12499762E+03</rscale>
<asrwt>0</asrwt>
<pdfrwt beam="1">  1        4 0.14242421E-01 0.12499762E+03</pdfrwt>
<pdfrwt beam="2">  1       -4 0.64913193E-02 0.12499762E+03</pdfrwt>
<totfact> 0.10243485E+04</totfact>
</mgrwt>
</event>
<event>
 5    1  0.3196850E-002  0.1250187E+03  0.7818608E-02  0.1235040E+00
         -4   -1    0    0    0  501 -0.00000000000E+00  0.00000000000E+00  0.60035663547E+01  0.61364247715E+01  0.12700000000E+01 0.  1.
          4   -1    0    0  501    0  0.00000000000E+00 -0.00000000000E+00 -0.64359282502E+03  0.64359407806E+03  0.12700000000E+01 0.  1.
         25    2    1    2    0    0  0.00000000000E+00  0.00000000000E+00 -0.63758925866E+03  0.64973050283E+03  0.12501865280E+03 0.  0.
    9000005    1    3    3    0    0  0.26147288831E+02 -0.47282653143E+02 -0.48207572739E+03  0.48509518338E+03  0.10000000000E+01 0.  0.
    9000005    1    3    3    0    0 -0.26147288831E+02  0.47282653143E+02 -0.15551353127E+03  0.16463531945E+03  0.10000000000E+01 0.  0.
<mgrwt>
<rscale>  0 0.12501865E+03</rscale>
<asrwt>0</asrwt>
<pdfrwt beam="2">  1        4 0.99024543E-01 0.12501865E+03</pdfrwt>
<pdfrwt beam="1">  1       -4 0.93394237E-03 0.12501865E+03</pdfrwt>
<totfact> 0.45852880E+03</totfact>
</mgrwt>
</event>
<event>
 5    1  0.3196850E-002  0.1249994E+03  0.7818608E-02  0.1235070E+00
         -4   -1    0    0    0  501 -0.00000000000E+00  0.00000000000E+00  0.22559351793E+04  0.22559355367E+04  0.12700000000E+01 0.  1.
          4   -1    0    0  501    0  0.00000000000E+00 -0.00000000000E+00 -0.14982480651E+01  0.19640894238E+01  0.12700000000E+01 0.  1.
         25    2    1    2    0    0  0.00000000000E+00  0.00000000000E+00  0.22544369312E+04  0.22578996262E+04  0.12499938036E+03 0.  0.
    9000005    1    3    3    0    0  0.39593411361E+02  0.22047400669E+02  0.19044615934E+04  0.19050009677E+04  0.10000000000E+01 0.  0.
    9000005    1    3    3    0    0 -0.39593411361E+02 -0.22047400669E+02  0.34997533781E+03  0.35289865851E+03  0.10000000000E+01 0.  0.
<mgrwt>
<rscale>  0 0.12499938E+03</rscale>
<asrwt>0</asrwt>
<pdfrwt beam="2">  1        4 0.26636244E-03 0.12499938E+03</pdfrwt>
<pdfrwt beam="1">  1       -4 0.34710114E+00 0.12499938E+03</pdfrwt>
<totfact> 0.68596298E+02</totfact>
</mgrwt>
</event>
<event>
 5    1  0.3196850E-002  0.1250020E+03  0.7818608E-02  0.1235066E+00
         -4   -1    0    0    0  501 -0.00000000000E+00  0.00000000000E+00  0.41012293211E+02  0.41031952116E+02  0.12700000000E+01 0. -1.
          4   -1    0    0  501    0  0.00000000000E+00 -0.00000000000E+00 -0.95202096859E+02  0.95210567409E+02  0.12700000000E+01 0. -1.
         25    2    1    2    0    0  0.00000000000E+00  0.00000000000E+00 -0.54189803648E+02  0.13624251953E+03  0.12500195721E+03 0.  0.
    9000005    1    3    3    0    0 -0.31300834374E+02  0.28959546233E+02 -0.76886315102E+02  0.87925553740E+02  0.10000000000E+01 0.  0.
    9000005    1    3    3    0    0  0.31300834374E+02 -0.28959546233E+02  0.22696511453E+02  0.48316965785E+02  0.10000000000E+01 0.  0.
<mgrwt>
<rscale>  0 0.12500196E+03</rscale>
<asrwt>0</asrwt>
<pdfrwt beam="2">  1        4 0.14648640E-01 0.12500196E+03</pdfrwt>
<pdfrwt beam="1">  1       -4 0.63117474E-02 0.12500196E+03</pdfrwt>
<totfact> 0.10211497E+04</totfact>
</mgrwt>
</event>
<event>
 5    1  0.3196850E-002  0.1249992E+03  0.7818608E-02  0.1235071E+00
         -4   -1    0    0    0  501 -0.00000000000E+00  0.00000000000E+00  0.29111754960E+02  0.29139443661E+02  0.12700000000E+01 0.  1.
          4   -1    0    0  501    0  0.00000000000E+00 -0.00000000000E+00 -0.13408490597E+03  0.13409092031E+03  0.12700000000E+01 0.  1.
         25    2    1    2    0    0  0.00000000000E+00  0.00000000000E+00 -0.10497315101E+03  0.16323036397E+03  0.12499915715E+03 0.  0.
    9000005    1    3    3    0    0  0.37082682634E+02  0.42724724973E+02 -0.17821934374E+02  0.59322414146E+02  0.10000000000E+01 0.  0.
    9000005    1    3    3    0    0 -0.37082682634E+02 -0.42724724973E+02 -0.87151216636E+02  0.10390794982E+03  0.10000000000E+01 0.  0.
<mgrwt>
<rscale>  0 0.12499916E+03</rscale>
<asrwt>0</asrwt>
<pdfrwt beam="2">  1        4 0.20631039E-01 0.12499916E+03</pdfrwt>
<pdfrwt beam="1">  1       -4 0.44813241E-02 0.12499916E+03</pdfrwt>
<totfact> 0.96725419E+03</totfact>
</mgrwt>
</event>
<event>
 5    1  0.3196850E-002  0.1249985E+03  0.7818608E-02  0.1235072E+00
          4   -1    0    0  501    0  0.00000000000E+00  0.00000000000E+00  0.44545389092E+02  0.44563489420E+02  0.12700000000E+01 0. -1.
         -4   -1    0    0    0  501 -0.00000000000E+00 -0.00000000000E+00 -0.87648873411E+02  0.87658073845E+02  0.12700000000E+01 0. -1.
         25    2    1    2    0    0  0.00000000000E+00  0.00000000000E+00 -0.43103484319E+02  0.13222156327E+03  0.12499852572E+03 0.  0.
    9000005    1    3    3    0    0 -0.40758019903E+02 -0.29236077332E+02 -0.60977382961E+02  0.78963318300E+02  0.10000000000E+01 0.  0.
    9000005    1    3    3    0    0  0.40758019903E+02  0.29236077332E+02  0.17873898641E+02  0.53258244965E+02  0.10000000000E+01 0.  0.
<mgrwt>
<rscale>  0 0.12499853E+03</rscale>
<asrwt>0</asrwt>
<pdfrwt beam="1">  1        4 0.68552368E-02 0.12499853E+03</pdfrwt>
<pdfrwt beam="2">  1       -4 0.13486542E-01 0.12499853E+03</pdfrwt>
<totfact> 0.10297314E+04</totfact>
</mgrwt>
</event>
<event>
 5    1  0.3196850E-002  0.1249985E+03  0.7818608E-02  0.1235072E+00
          4   -1    0    0  501    0  0.00000000000E+00  0.00000000000E+00  0.12144125808E+04  0.12144132448E+04  0.12700000000E+01 0.  1.
         -4   -1    0    0    0  501 -0.00000000000E+00 -0.00000000000E+00 -0.30904474501E+01  0.33412221479E+01  0.12700000000E+01 0.  1.
         25    2    1    2    0    0  0.00000000000E+00  0.00000000000E+00  0.12113221333E+04  0.12177544670E+04  0.12499852474E+03 0.  0.
    9000005    1    3    3    0    0 -0.56380173826E+02 -0.19451441668E+02  0.42390396322E+03  0.42808019415E+03  0.10000000000E+01 0.  0.
    9000005    1    3    3    0    0  0.56380173826E+02  0.19451441668E+02  0.78741817010E+03  0.78967427284E+03  0.10000000000E+01 0.  0.
<mgrwt>
<rscale>  0 0.12499852E+03</rscale>
<asrwt>0</asrwt>
<pdfrwt beam="1">  1        4 0.18685217E+00 0.12499852E+03</pdfrwt>
<pdfrwt beam="2">  1       -4 0.49479458E-03 0.12499852E+03</pdfrwt>
<totfact> 0.24253466E+03</totfact>
</mgrwt>
</event>
<event>
 5    1  0.3196850E-002  0.1250051E+03  0.7818608E-02  0.1235061E+00
          4   -1    0    0  501    0  0.00000000000E+00  0.00000000000E+00  0.65957249908E+03  0.65957372177E+03  0.12700000000E+01 0.  1.
         -4   -1    0    0    0  501 -0.00000000000E+00 -0.00000000000E+00 -0.58535631046E+01  0.59897496625E+01  0.12700000000E+01 0.  1.
         25    2    1    2    0    0  0.00000000000E+00  0.00000000000E+00  0.65371893598E+03  0.66556347143E+03  0.12500514888E+03 0.  0.
    9000005    1    3    3    0    0  0.10228382701E+02 -0.42368410019E+02  0.88400889963E+02  0.98566826704E+02  0.10000000000E+01 0.  0.
    9000005    1    3    3    0    0 -0.10228382701E+02  0.42368410019E+02  0.56531804602E+03  0.56699664473E+03  0.10000000000E+01 0.  0.
<mgrwt>
<rscale>  0 0.12500515E+03</rscale>
<asrwt>0</asrwt>
<pdfrwt beam="1">  1        4 0.10148323E+00 0.12500515E+03</pdfrwt>
<pdfrwt beam="2">  1       -4 0.91111840E-03 0.12500515E+03</pdfrwt>
<totfact> 0.44962838E+03</totfact>
</mgrwt>
</event>
<event>
 5    1  0.3196850E-002  0.1250009E+03  0.7818608E-02  0.1235068E+00
         -4   -1    0    0    0  501 -0.00000000000E+00  0.00000000000E+00  0.99567574690E+02  0.99575673885E+02  0.12700000000E+01 0. -1.
          4   -1    0    0  501    0  0.00000000000E+00 -0.00000000000E+00 -0.39212745412E+02  0.39233306039E+02  0.12700000000E+01 0. -1.
         25    2    1    2    0    0  0.00000000000E+00  0.00000000000E+00  0.60354829278E+02  0.13880897992E+03  0.12500090996E+03 0.  0.
    9000005    1    3    3    0    0  0.30183509940E+02  0.43489860683E+02  0.67055757435E+02  0.85439375347E+02  0.10000000000E+01 0.  0.
    9000005    1    3    3    0    0 -0.30183509940E+02 -0.43489860683E+02 -0.67009281571E+01  0.53369604577E+02  0.10000000000E+01 0.  0.
<mgrwt>
<rscale>  0 0.12500091E+03</rscale>
<asrwt>0</asrwt>
<pdfrwt beam="2">  1        4 0.60349348E-02 0.12500091E+03</pdfrwt>
<pdfrwt beam="1">  1       -4 0.15320293E-01 0.12500091E+03</pdfrwt>
<totfact> 0.10158122E+04</totfact>
</mgrwt>
</event>
<event>
 5    1  0.3196850E-002  0.1249901E+03  0.7818608E-02  0.1235085E+00
         -4   -1    0    0    0  501 -0.00000000000E+00  0.00000000000E+00  0.14510033663E+02  0.14565506407E+02  0.12700000000E+01 0.  1.
          4   -1    0    0  501    0  0.00000000000E+00 -0.00000000000E+00 -0.26859703838E+03  0.26860004081E+03  0.12700000000E+01 0.  1.
         25    2    1    2    0    0  0.00000000000E+00  0.00000000000E+00 -0.25408700471E+03  0.28316554722E+03  0.12499008428E+03 0.  0.
    9000005    1    3    3    0    0 -0.85601140756E+01 -0.88075261055E+01  0.11759668481E+02  0.17033433942E+02  0.10000000000E+01 0.  0.
    9000005    1    3    3    0    0  0.85601140756E+01  0.88075261055E+01 -0.26584667319E+03  0.26613211328E+03  0.10000000000E+01 0.  0.
<mgrwt>
<rscale>  0 0.12499008E+03</rscale>
<asrwt>0</asrwt>
<pdfrwt beam="2">  1        4 0.41327116E-01 0.12499008E+03</pdfrwt>
<pdfrwt beam="1">  1       -4 0.22368112E-02 0.12499008E+03</pdfrwt>
<totfact> 0.77777380E+03</totfact>
</mgrwt>
</event>
<event>
 5    1  0.3196850E-002  0.1250000E+03  0.7818608E-02  0.1235069E+00
          4   -1    0    0  501    0  0.00000000000E+00  0.00000000000E+00  0.22821289484E+03  0.22821642858E+03  0.12700000000E+01 0.  1.
         -4   -1    0    0    0  501 -0.00000000000E+00 -0.00000000000E+00 -0.17089472001E+02  0.17136596899E+02  0.12700000000E+01 0.  1.
         25    2    1    2    0    0  0.00000000000E+00  0.00000000000E+00  0.21112342284E+03  0.24535302548E+03  0.12500002975E+03 0.  0.
    9000005    1    3    3    0    0  0.13220612844E+02  0.18730971746E+02  0.21966945186E+03  0.22086489532E+03  0.10000000000E+01 0.  0.
    9000005    1    3    3    0    0 -0.13220612844E+02 -0.18730971746E+02 -0.85460290149E+01  0.24488130154E+02  0.10000000000E+01 0.  0.
<mgrwt>
<rscale>  0 0.12500003E+03</rscale>
<asrwt>0</asrwt>
<pdfrwt beam="1">  1        4 0.35113573E-01 0.12500003E+03</pdfrwt>
<pdfrwt beam="2">  1       -4 0.26330464E-02 0.12500003E+03</pdfrwt>
<totfact> 0.83006478E+03</totfact>
</mgrwt>
</event>
<event>
 5    1  0.3196850E-002  0.1249959E+03  0.7818608E-02  0.1235076E+00
          4   -1    0    0  501    0  0.00000000000E+00  0.00000000000E+00  0.37791720213E+02  0.37813053522E+02  0.12700000000E+01 0.  1.
         -4   -1    0    0    0  501 -0.00000000000E+00 -0.00000000000E+00 -0.10330147421E+03  0.10330928067E+03  0.12700000000E+01 0.  1.
         25    2    1    2    0    0  0.00000000000E+00  0.00000000000E+00 -0.65509753994E+02  0.14112233419E+03  0.12499594130E+03 0.  0.
    9000005    1    3    3    0    0  0.53332915632E+02 -0.29128648864E+02 -0.49198172759E+02  0.78194234297E+02  0.10000000000E+01 0.  0.
    9000005    1    3    3    0    0 -0.53332915632E+02  0.29128648864E+02 -0.16311581235E+02  0.62928099898E+02  0.10000000000E+01 0.  0.
<mgrwt>
<rscale>  0 0.12499594E+03</rscale>
<asrwt>0</asrwt>
<pdfrwt beam="1">  1        4 0.58163524E-02 0.12499594E+03</pdfrwt>
<pdfrwt beam="2">  1       -4 0.15894776E-01 0.12499594E+03</pdfrwt>
<totfact> 0.10111302E+04</totfact>
</mgrwt>
</event>
<event>
 5    1  0.3196850E-002  0.1249893E+03  0.7818608E-02  0.1235086E+00
         -4   -1    0    0    0  501 -0.00000000000E+00  0.00000000000E+00  0.13409470854E+03  0.13410072244E+03  0.12700000000E+01 0.  1.
          4   -1    0    0  501    0  0.00000000000E+00 -0.00000000000E+00 -0.29105009646E+02  0.29132704757E+02  0.12700000000E+01 0.  1.
         25    2    1    2    0    0  0.00000000000E+00  0.00000000000E+00  0.10498969890E+03  0.16323342720E+03  0.12498925906E+03 0.  0.
    9000005    1    3    3    0    0  0.45113237370E+02  0.41917030611E+02  0.66336821522E+02  0.90519696923E+02  0.10000000000E+01 0.  0.
    9000005    1    3    3    0    0 -0.45113237370E+02 -0.41917030611E+02  0.38652877376E+02  0.72713730276E+02  0.10000000000E+01 0.  0.
<mgrwt>
<rscale>  0 0.12498926E+03</rscale>
<asrwt>0</asrwt>
<pdfrwt beam="2">  1        4 0.44802868E-02 0.12498926E+03</pdfrwt>
<pdfrwt beam="1">  1       -4 0.20632548E-01 0.12498926E+03</pdfrwt>
<totfact> 0.96746350E+03</totfact>
</mgrwt>
</event>
<event>
 5    1  0.3196850E-002  0.1250090E+03  0.7818608E-02  0.1235055E+00
         -4   -1    0    0    0  501 -0.00000000000E+00  0.00000000000E+00  0.10314623637E+02  0.10392514651E+02  0.12700000000E+01 0. -1.
          4   -1    0    0  501    0  0.00000000000E+00 -0.00000000000E+00 -0.37726059973E+03  0.37726273737E+03  0.12700000000E+01 0. -1.
         25    2    1    2    0    0  0.00000000000E+00  0.00000000000E+00 -0.36694597609E+03  0.38765525202E+03  0.12500897987E+03 0.  0.
    9000005    1    3    3    0    0  0.29626044939E+02  0.54857521557E+02 -0.17004122389E+03  0.18111341207E+03  0.10000000000E+01 0.  0.
    9000005    1    3    3    0    0 -0.29626044939E+02 -0.54857521557E+02 -0.19690475220E+03  0.20654183994E+03  0.10000000000E+01 0.  0.
<mgrwt>
<rscale>  0 0.12500898E+03</rscale>
<asrwt>0</asrwt>
<pdfrwt beam="2">  1        4 0.58046238E-01 0.12500898E+03</pdfrwt>
<pdfrwt beam="1">  1       -4 0.15930215E-02 0.12500898E+03</pdfrwt>
<totfact> 0.65758358E+03</totfact>
</mgrwt>
</event>
<event>
 5    1  0.3196850E-002  0.1249973E+03  0.7818608E-02  0.1235074E+00
         -4   -1    0    0    0  501 -0.00000000000E+00  0.00000000000E+00  0.74609022812E+02  0.74619831044E+02  0.12700000000E+01 0.  1.
          4   -1    0    0  501    0  0.00000000000E+00 -0.00000000000E+00 -0.52331692660E+02  0.52347100748E+02  0.12700000000E+01 0.  1.
         25    2    1    2    0    0  0.00000000000E+00  0.00000000000E+00  0.22277330152E+02  0.12696693179E+03  0.12499728929E+03 0.  0.
    9000005    1    3    3    0    0 -0.41759863963E+02 -0.18698116862E+02  0.54371942693E+02  0.71069078822E+02  0.10000000000E+01 0.  0.
    9000005    1    3    3    0    0  0.41759863963E+02  0.18698116862E+02 -0.32094612541E+02  0.55897852969E+02  0.10000000000E+01 0.  0.
<mgrwt>
<rscale>  0 0.12499729E+03</rscale>
<asrwt>0</asrwt>
<pdfrwt beam="2">  1        4 0.80530463E-02 0.12499729E+03</pdfrwt>
<pdfrwt beam="1">  1       -4 0.11480328E-01 0.12499729E+03</pdfrwt>
<totfact> 0.10410501E+04</totfact>
</mgrwt>
</event>
<event>
 5    1  0.3196850E-002  0.1250548E+03  0.7818608E-02  0.1234984E+00
         -4   -1    0    0    0  501 -0.00000000000E+00  0.00000000000E+00  0.17537140269E+02  0.17583065399E+02  0.12700000000E+01 0.  1.
          4   -1    0    0  501    0  0.00000000000E+00 -0.00000000000E+00 -0.22259778604E+03  0.22260140892E+03  0.12700000000E+01 0.  1.
         25    2    1    2    0    0  0.00000000000E+00  0.00000000000E+00 -0.20506064577E+03  0.24018447432E+03  0.12505484100E+03 0.  0.
    9000005    1    3    3    0    0  0.52236775635E+02  0.12856664137E+02 -0.16371096913E+03  0.17232601648E+03  0.10000000000E+01 0.  0.
    9000005    1    3    3    0    0 -0.52236775635E+02 -0.12856664137E+02 -0.41349676644E+02  0.67858457837E+02  0.10000000000E+01 0.  0.
<mgrwt>
<rscale>  0 0.12505484E+03</rscale>
<asrwt>0</asrwt>
<pdfrwt beam="2">  1        4 0.34249623E-01 0.12505484E+03</pdfrwt>
<pdfrwt beam="1">  1       -4 0.27018331E-02 0.12505484E+03</pdfrwt>
<totfact> 0.83667568E+03</totfact>
</mgrwt>
</event>
<event>
 5    1  0.3196850E-002  0.1249991E+03  0.7818608E-02  0.1235071E+00
          4   -1    0    0  501    0  0.00000000000E+00  0.00000000000E+00  0.65678729539E+02  0.65691007101E+02  0.12700000000E+01 0. -1.
         -4   -1    0    0    0  501 -0.00000000000E+00 -0.00000000000E+00 -0.59449670069E+02  0.59463233778E+02  0.12700000000E+01 0. -1.
         25    2    1    2    0    0  0.00000000000E+00  0.00000000000E+00  0.62290594697E+01  0.12515424088E+03  0.12499913131E+03 0.  0.
    9000005    1    3    3    0    0 -0.37231431411E+02  0.23116587483E+02 -0.41490044929E+02  0.60357103393E+02  0.10000000000E+01 0.  0.
    9000005    1    3    3    0    0  0.37231431411E+02 -0.23116587483E+02  0.47719104399E+02  0.64797137486E+02  0.10000000000E+01 0.  0.
<mgrwt>
<rscale>  0 0.12499913E+03</rscale>
<asrwt>0</asrwt>
<pdfrwt beam="1">  1        4 0.10106408E-01 0.12499913E+03</pdfrwt>
<pdfrwt beam="2">  1       -4 0.91480908E-02 0.12499913E+03</pdfrwt>
<totfact> 0.10449719E+04</totfact>
</mgrwt>
</event>
<event>
 5    1  0.3196850E-002  0.1249989E+03  0.7818608E-02  0.1235071E+00
         -4   -1    0    0    0  501 -0.00000000000E+00  0.00000000000E+00  0.16754524211E+03  0.16755005536E+03  0.12700000000E+01 0.  1.
          4   -1    0    0  501    0  0.00000000000E+00 -0.00000000000E+00 -0.23291734077E+02  0.23326332252E+02  0.12700000000E+01 0.  1.
         25    2    1    2    0    0  0.00000000000E+00  0.00000000000E+00  0.14425350803E+03  0.19087638761E+03  0.12499888308E+03 0.  0.
    9000005    1    3    3    0    0 -0.32295896413E+02  0.31899935274E+02  0.65437629290E+01  0.45874302489E+02  0.10000000000E+01 0.  0.
    9000005    1    3    3    0    0  0.32295896413E+02 -0.31899935274E+02  0.13770974510E+03  0.14500208513E+03  0.10000000000E+01 0.  0.
<mgrwt>
<rscale>  0 0.12499888E+03</rscale>
<asrwt>0</asrwt>
<pdfrwt beam="2">  1        4 0.35863753E-02 0.12499888E+03</pdfrwt>
<pdfrwt beam="1">  1       -4 0.25779223E-01 0.12499888E+03</pdfrwt>
<totfact> 0.91697343E+03</totfact>
</mgrwt>
</event>
<event>
 5    1  0.3196850E-002  0.1250002E+03  0.7818608E-02  0.1235069E+00
          4   -1    0    0  501    0  0.00000000000E+00  0.00000000000E+00  0.89855546412E+02  0.89864520924E+02  0.12700000000E+01 0.  1.
         -4   -1    0    0    0  501 -0.00000000000E+00 -0.00000000000E+00 -0.43452288890E+02  0.43470844365E+02  0.12700000000E+01 0.  1.
         25    2    1    2    0    0  0.00000000000E+00  0.00000000000E+00  0.46403257522E+02  0.13333536529E+03  0.12500022931E+03 0.  0.
    9000005    1    3    3    0    0 -0.14027518698E+02  0.58670668995E+02  0.40606700052E+02  0.72724980373E+02  0.10000000000E+01 0.  0.
    9000005    1    3    3    0    0  0.14027518698E+02 -0.58670668995E+02  0.57965574700E+01  0.60610384916E+02  0.10000000000E+01 0.  0.
<mgrwt>
<rscale>  0 0.12500023E+03</rscale>
<asrwt>0</asrwt>
<pdfrwt beam="1">  1        4 0.13826048E-01 0.12500023E+03</pdfrwt>
<pdfrwt beam="2">  1       -4 0.66870853E-02 0.12500023E+03</pdfrwt>
<totfact> 0.10273224E+04</totfact>
</mgrwt>
</event>
<event>
 5    1  0.3196850E-002  0.1250014E+03  0.7818608E-02  0.1235067E+00
          4   -1    0    0  501    0  0.00000000000E+00  0.00000000000E+00  0.40687472430E+02  0.40707288202E+02  0.12700000000E+01 0.  1.
         -4   -1    0    0    0  501 -0.00000000000E+00 -0.00000000000E+00 -0.95961000368E+02  0.95969403935E+02  0.12700000000E+01 0.  1.
         25    2    1    2    0    0  0.00000000000E+00  0.00000000000E+00 -0.55273527938E+02  0.13667669214E+03  0.12500142112E+03 0.  0.
    9000005    1    3    3    0    0  0.32687098603E+02 -0.24310363709E+01 -0.85813332162E+02  0.91865577501E+02  0.10000000000E+01 0.  0.
    9000005    1    3    3    0    0 -0.32687098603E+02  0.24310363709E+01  0.30539804223E+02  0.44811114636E+02  0.10000000000E+01 0.  0.
<mgrwt>
<rscale>  0 0.12500142E+03</rscale>
<asrwt>0</asrwt>
<pdfrwt beam="1">  1        4 0.62617819E-02 0.12500142E+03</pdfrwt>
<pdfrwt beam="2">  1       -4 0.14765401E-01 0.12500142E+03</pdfrwt>
<totfact> 0.10202523E+04</totfact>
</mgrwt>
</event>
<event>
 5    1  0.3196850E-002  0.1250003E+03  0.7818608E-02  0.1235069E+00
          4   -1    0    0  501    0  0.00000000000E+00  0.00000000000E+00  0.77384292591E+02  0.77394713255E+02  0.12700000000E+01 0.  1.
         -4   -1    0    0    0  501 -0.00000000000E+00 -0.00000000000E+00 -0.50457056129E+02  0.50473036496E+02  0.12700000000E+01 0.  1.
         25    2    1    2    0    0  0.00000000000E+00  0.00000000000E+00  0.26927236462E+02  0.12786774975E+03  0.12500034145E+03 0.  0.
    9000005    1    3    3    0    0  0.36459918763E+02  0.36121772891E+02  0.49934853821E+02  0.71614228887E+02  0.10000000000E+01 0.  0.
    9000005    1    3    3    0    0 -0.36459918763E+02 -0.36121772891E+02 -0.23007617359E+02  0.56253520864E+02  0.10000000000E+01 0.  0.
<mgrwt>
<rscale>  0 0.12500034E+03</rscale>
<asrwt>0</asrwt>
<pdfrwt beam="1">  1        4 0.11907307E-01 0.12500034E+03</pdfrwt>
<pdfrwt beam="2">  1       -4 0.77646549E-02 0.12500034E+03</pdfrwt>
<totfact> 0.10390265E+04</totfact>
</mgrwt>
</event>
<event>
 5    1  0.3196850E-002  0.1250036E+03  0.7818608E-02  0.1235064E+00
         -4   -1    0    0    0  501 -0.00000000000E+00  0.00000000000E+00  0.30813097837E+02  0.30839259043E+02  0.12700000000E+01 0.  1.
          4   -1    0    0  501    0  0.00000000000E+00 -0.00000000000E+00 -0.12669648229E+03  0.12670284734E+03  0.12700000000E+01 0.  1.
         25    2    1    2    0    0  0.00000000000E+00  0.00000000000E+00 -0.95883384448E+02  0.15754210638E+03  0.12500356743E+03 0.  0.
    9000005    1    3    3    0    0  0.12625691902E+02  0.18926232140E+02  0.25414560030E+02  0.34124920813E+02  0.10000000000E+01 0.  0.
    9000005    1    3    3    0    0 -0.12625691902E+02 -0.18926232140E+02 -0.12129794448E+03  0.12341718557E+03  0.10000000000E+01 0.  0.
<mgrwt>
<rscale>  0 0.12500357E+03</rscale>
<asrwt>0</asrwt>
<pdfrwt beam="2">  1        4 0.19494268E-01 0.12500357E+03</pdfrwt>
<pdfrwt beam="1">  1       -4 0.47429787E-02 0.12500357E+03</pdfrwt>
<totfact> 0.97810905E+03</totfact>
</mgrwt>
</event>
<event>
 5    1  0.3196850E-002  0.1249689E+03  0.7818608E-02  0.1235118E+00
          4   -1    0    0  501    0  0.00000000000E+00  0.00000000000E+00  0.46281059721E+01  0.47991941916E+01  0.12700000000E+01 0. -1.
         -4   -1    0    0    0  501 -0.00000000000E+00 -0.00000000000E+00 -0.82812695725E+03  0.82812793107E+03  0.12700000000E+01 0. -1.
         25    2    1    2    0    0  0.00000000000E+00  0.00000000000E+00 -0.82349885127E+03  0.83292712526E+03  0.12496894793E+03 0.  0.
    9000005    1    3    3    0    0 -0.47791899512E+02  0.40105555459E+02 -0.43364117018E+03  0.43810750475E+03  0.10000000000E+01 0.  0.
    9000005    1    3    3    0    0  0.47791899512E+02 -0.40105555459E+02 -0.38985768109E+03  0.39481962051E+03  0.10000000000E+01 0.  0.
<mgrwt>
<rscale>  0 0.12496895E+03</rscale>
<asrwt>0</asrwt>
<pdfrwt beam="1">  1        4 0.72525250E-03 0.12496895E+03</pdfrwt>
<pdfrwt beam="2">  1       -4 0.12741727E+00 0.12496895E+03</pdfrwt>
<totfact> 0.36861348E+03</totfact>
</mgrwt>
</event>
<event>
 5    1  0.3196850E-002  0.1250041E+03  0.7818608E-02  0.1235063E+00
          4   -1    0    0  501    0  0.00000000000E+00  0.00000000000E+00  0.54906616067E+01  0.56356246219E+01  0.12700000000E+01 0. -1.
         -4   -1    0    0    0  501 -0.00000000000E+00 -0.00000000000E+00 -0.70206597995E+03  0.70206712863E+03  0.12700000000E+01 0. -1.
         25    2    1    2    0    0  0.00000000000E+00  0.00000000000E+00 -0.69657531834E+03  0.70770275325E+03  0.12500405128E+03 0.  0.
    9000005    1    3    3    0    0  0.16404883143E+01 -0.61091732805E+02 -0.42223657744E+03  0.42663757259E+03  0.10000000000E+01 0.  0.
    9000005    1    3    3    0    0 -0.16404883143E+01  0.61091732805E+02 -0.27433874090E+03  0.28106518066E+03  0.10000000000E+01 0.  0.
<mgrwt>
<rscale>  0 0.12500405E+03</rscale>
<asrwt>0</asrwt>
<pdfrwt beam="1">  1        4 0.85595709E-03 0.12500405E+03</pdfrwt>
<pdfrwt beam="2">  1       -4 0.10802132E+00 0.12500405E+03</pdfrwt>
<totfact> 0.42679427E+03</totfact>
</mgrwt>
</event>
<event>
 5    1  0.3196850E-002  0.1250059E+03  0.7818608E-02  0.1235060E+00
         -4   -1    0    0    0  501 -0.00000000000E+00  0.00000000000E+00  0.11488007724E+03  0.11488709695E+03  0.12700000000E+01 0. -1.
          4   -1    0    0  501    0  0.00000000000E+00 -0.00000000000E+00 -0.33986144856E+02  0.34009865366E+02  0.12700000000E+01 0. -1.
         25    2    1    2    0    0  0.00000000000E+00  0.00000000000E+00  0.80893932380E+02  0.14889696232E+03  0.12500590823E+03 0.  0.
    9000005    1    3    3    0    0 -0.20033349967E+02  0.10179544862E+02 -0.29013384254E+02  0.36711506512E+02  0.10000000000E+01 0.  0.
    9000005    1    3    3    0    0  0.20033349967E+02 -0.10179544862E+02  0.10990731663E+03  0.11218545581E+03  0.10000000000E+01 0.  0.
<mgrwt>
<rscale>  0 0.12500591E+03</rscale>
<asrwt>0</asrwt>
<pdfrwt beam="2">  1        4 0.52310024E-02 0.12500591E+03</pdfrwt>
<pdfrwt beam="1">  1       -4 0.17676222E-01 0.12500591E+03</pdfrwt>
<totfact> 0.99510794E+03</totfact>
</mgrwt>
</event>
<event>
 5    1  0.3196850E-002  0.1250216E+03  0.7818608E-02  0.1235036E+00
          4   -1    0    0  501    0  0.00000000000E+00  0.00000000000E+00  0.24179476811E+03  0.24179810335E+03  0.12700000000E+01 0. -1.
         -4   -1    0    0    0  501 -0.00000000000E+00 -0.00000000000E+00 -0.16132402302E+02  0.16182314545E+02  0.12700000000E+01 0. -1.
         25    2    1    2    0    0  0.00000000000E+00  0.00000000000E+00  0.22566236581E+03  0.25798041790E+03  0.12502156885E+03 0.  0.
    9000005    1    3    3    0    0 -0.45988371781E+01 -0.47740993110E+02  0.30130730186E+02  0.56649912869E+02  0.10000000000E+01 0.  0.
    9000005    1    3    3    0    0  0.45988371781E+01  0.47740993110E+02  0.19553163562E+03  0.20133050503E+03  0.10000000000E+01 0.  0.
<mgrwt>
<rscale>  0 0.12502157E+03</rscale>
<asrwt>0</asrwt>
<pdfrwt beam="1">  1        4 0.37203288E-01 0.12502157E+03</pdfrwt>
<pdfrwt beam="2">  1       -4 0.24860042E-02 0.12502157E+03</pdfrwt>
<totfact> 0.81151345E+03</totfact>
</mgrwt>
</event>
<event>
 5    1  0.3196850E-002  0.1250012E+03  0.7818608E-02  0.1235067E+00
          4   -1    0    0  501    0  0.00000000000E+00  0.00000000000E+00  0.89039649617E+02  0.89048706357E+02  0.12700000000E+01 0. -1.
         -4   -1    0    0    0  501 -0.00000000000E+00 -0.00000000000E+00 -0.43851286527E+02  0.43869673238E+02  0.12700000000E+01 0. -1.
         25    2    1    2    0    0  0.00000000000E+00  0.00000000000E+00  0.45188363091E+02  0.13291837960E+03  0.12500122990E+03 0.  0.
    9000005    1    3    3    0    0 -0.34599830514E+02  0.51597174467E+02  0.15389326122E+02  0.64009749594E+02  0.10000000000E+01 0.  0.
    9000005    1    3    3    0    0  0.34599830514E+02 -0.51597174467E+02  0.29799036968E+02  0.68908630002E+02  0.10000000000E+01 0.  0.
<mgrwt>
<rscale>  0 0.12500123E+03</rscale>
<asrwt>0</asrwt>
<pdfrwt beam="1">  1        4 0.13700519E-01 0.12500123E+03</pdfrwt>
<pdfrwt beam="2">  1       -4 0.67484629E-02 0.12500123E+03</pdfrwt>
<totfact> 0.10281850E+04</totfact>
</mgrwt>
</event>
<event>
 5    1  0.3196850E-002  0.1249911E+03  0.7818608E-02  0.1235083E+00
         -4   -1    0    0    0  501 -0.00000000000E+00  0.00000000000E+00  0.75941249260E+03  0.75941355454E+03  0.12700000000E+01 0.  1.
          4   -1    0    0  501    0  0.00000000000E+00 -0.00000000000E+00 -0.50635660889E+01  0.52204024305E+01  0.12700000000E+01 0.  1.
         25    2    1    2    0    0  0.00000000000E+00  0.00000000000E+00  0.75434892651E+03  0.76463395697E+03  0.12499114057E+03 0.  0.
    9000005    1    3    3    0    0 -0.42001859057E+00  0.61964497965E+02  0.42646534132E+03  0.43094484887E+03  0.10000000000E+01 0.  0.
    9000005    1    3    3    0    0  0.42001859057E+00 -0.61964497965E+02  0.32788358519E+03  0.33368910809E+03  0.10000000000E+01 0.  0.
<mgrwt>
<rscale>  0 0.12499114E+03</rscale>
<asrwt>0</asrwt>
<pdfrwt beam="2">  1        4 0.79115564E-03 0.12499114E+03</pdfrwt>
<pdfrwt beam="1">  1       -4 0.11684492E+00 0.12499114E+03</pdfrwt>
<totfact> 0.39891485E+03</totfact>
</mgrwt>
</event>
<event>
 5    1  0.3196850E-002  0.1249994E+03  0.7818608E-02  0.1235070E+00
          4   -1    0    0  501    0  0.00000000000E+00  0.00000000000E+00  0.19942609902E+02  0.19983007524E+02  0.12700000000E+01 0. -1.
         -4   -1    0    0    0  501 -0.00000000000E+00 -0.00000000000E+00 -0.19563203491E+03  0.19563615715E+03  0.12700000000E+01 0. -1.
         25    2    1    2    0    0  0.00000000000E+00  0.00000000000E+00 -0.17568942501E+03  0.21561916467E+03  0.12499940045E+03 0.  0.
    9000005    1    3    3    0    0 -0.53001278257E+02  0.24930723365E+02 -0.12542101481E+03  0.13842726401E+03  0.10000000000E+01 0.  0.
    9000005    1    3    3    0    0  0.53001278257E+02 -0.24930723365E+02 -0.50268410196E+02  0.77191900663E+02  0.10000000000E+01 0.  0.
<mgrwt>
<rscale>  0 0.12499940E+03</rscale>
<asrwt>0</asrwt>
<pdfrwt beam="1">  1        4 0.30715186E-02 0.12499940E+03</pdfrwt>
<pdfrwt beam="2">  1       -4 0.30100659E-01 0.12499940E+03</pdfrwt>
<totfact> 0.87567515E+03</totfact>
</mgrwt>
</event>
<event>
 5    1  0.3196850E-002  0.1249991E+03  0.7818608E-02  0.1235071E+00
          4   -1    0    0  501    0  0.00000000000E+00  0.00000000000E+00  0.73603820266E+01  0.74691447688E+01  0.12700000000E+01 0.  1.
         -4   -1    0    0    0  501 -0.00000000000E+00 -0.00000000000E+00 -0.52670355726E+03  0.52670508839E+03  0.12700000000E+01 0.  1.
         25    2    1    2    0    0  0.00000000000E+00  0.00000000000E+00 -0.51934317523E+03  0.53417423315E+03  0.12499911081E+03 0.  0.
    9000005    1    3    3    0    0 -0.13714854894E+02  0.59856438316E+02 -0.30919612667E+03  0.31523663366E+03  0.10000000000E+01 0.  0.
    9000005    1    3    3    0    0  0.13714854894E+02 -0.59856438316E+02 -0.21014704856E+03  0.21893759950E+03  0.10000000000E+01 0.  0.
<mgrwt>
<rscale>  0 0.12499911E+03</rscale>
<asrwt>0</asrwt>
<pdfrwt beam="1">  1        4 0.11408510E-02 0.12499911E+03</pdfrwt>
<pdfrwt beam="2">  1       -4 0.81039771E-01 0.12499911E+03</pdfrwt>
<totfact> 0.53308103E+03</totfact>
</mgrwt>
</event>
<event>
 5    1  0.3196850E-002  0.1249986E+03  0.7818608E-02  0.1235071E+00
          4   -1    0    0  501    0  0.00000000000E+00  0.00000000000E+00  0.10991684428E+02  0.11064810282E+02  0.12700000000E+01 0. -1.
         -4   -1    0    0    0  501 -0.00000000000E+00 -0.00000000000E+00 -0.35412193340E+03  0.35412421071E+03  0.12700000000E+01 0. -1.
         25    2    1    2    0    0  0.00000000000E+00  0.00000000000E+00 -0.34313024897E+03  0.36518902100E+03  0.12499861318E+03 0.  0.
    9000005    1    3    3    0    0 -0.60434312658E+01  0.37950025706E+02 -0.27593855649E+02  0.47319640553E+02  0.10000000000E+01 0.  0.
    9000005    1    3    3    0    0  0.60434312658E+01 -0.37950025706E+02 -0.31553639332E+03  0.31786938044E+03  0.10000000000E+01 0.  0.
<mgrwt>
<rscale>  0 0.12499861E+03</rscale>
<asrwt>0</asrwt>
<pdfrwt beam="1">  1        4 0.16968289E-02 0.12499861E+03</pdfrwt>
<pdfrwt beam="2">  1       -4 0.54486089E-01 0.12499861E+03</pdfrwt>
<totfact> 0.68087369E+03</totfact>
</mgrwt>
</event>
<event>
 5    1  0.3196850E-002  0.1249935E+03  0.7818608E-02  0.1235079E+00
          4   -1    0    0  501    0  0.00000000000E+00  0.00000000000E+00  0.17269957681E+02  0.17316591417E+02  0.12700000000E+01 0.  1.
         -4   -1    0    0    0  501 -0.00000000000E+00 -0.00000000000E+00 -0.22581078448E+03  0.22581435581E+03  0.12700000000E+01 0.  1.
         25    2    1    2    0    0  0.00000000000E+00  0.00000000000E+00 -0.20854082680E+03  0.24313094723E+03  0.12499352405E+03 0.  0.
    9000005    1    3    3    0    0 -0.11369027422E+02  0.27148170458E+02  0.29523906959E+01  0.29597205181E+02  0.10000000000E+01 0.  0.
    9000005    1    3    3    0    0  0.11369027422E+02 -0.27148170458E+02 -0.21149321750E+03  0.21353374204E+03  0.10000000000E+01 0.  0.
<mgrwt>
<rscale>  0 0.12499352E+03</rscale>
<asrwt>0</asrwt>
<pdfrwt beam="1">  1        4 0.26607787E-02 0.12499352E+03</pdfrwt>
<pdfrwt beam="2">  1       -4 0.34743980E-01 0.12499352E+03</pdfrwt>
<totfact> 0.83345297E+03</totfact>
</mgrwt>
</event>
<event>
 5    1  0.3196850E-002  0.1249998E+03  0.7818608E-02  0.1235070E+00
         -4   -1    0    0    0  501 -0.00000000000E+00  0.00000000000E+00  0.33665321909E+02  0.33689268310E+02  0.12700000000E+01 0.  1.
          4   -1    0    0  501    0  0.00000000000E+00 -0.00000000000E+00 -0.11596276496E+03  0.11596971914E+03  0.12700000000E+01 0.  1.
         25    2    1    2    0    0  0.00000000000E+00  0.00000000000E+00 -0.82297443047E+02  0.14965898744E+03  0.12499977356E+03 0.  0.
    9000005    1    3    3    0    0  0.46968847164E+02 -0.23295189712E+02 -0.43264678273E+00  0.52439733513E+02  0.10000000000E+01 0.  0.
    9000005    1    3    3    0    0 -0.46968847164E+02  0.23295189712E+02 -0.81864796264E+02  0.97219253932E+02  0.10000000000E+01 0.  0.
<mgrwt>
<rscale>  0 0.12499977E+03</rscale>
<asrwt>0</asrwt>
<pdfrwt beam="2">  1        4 0.17842802E-01 0.12499977E+03</pdfrwt>
<pdfrwt beam="1">  1       -4 0.51816573E-02 0.12499977E+03</pdfrwt>
<totfact> 0.99372223E+03</totfact>
</mgrwt>
</event>
<event>
 5    1  0.3196850E-002  0.1250062E+03  0.7818608E-02  0.1235060E+00
         -4   -1    0    0    0  501 -0.00000000000E+00  0.00000000000E+00  0.11018812829E+03  0.11019544689E+03  0.12700000000E+01 0.  1.
          4   -1    0    0  501    0  0.00000000000E+00 -0.00000000000E+00 -0.35434398660E+02  0.35457150314E+02  0.12700000000E+01 0.  1.
         25    2    1    2    0    0  0.00000000000E+00  0.00000000000E+00  0.74753729626E+02  0.14565259720E+03  0.12500623576E+03 0.  0.
    9000005    1    3    3    0    0 -0.25501340884E+02 -0.36166696074E+02  0.88793308463E+02  0.99214917828E+02  0.10000000000E+01 0.  0.
    9000005    1    3    3    0    0  0.25501340884E+02  0.36166696074E+02 -0.14039578837E+02  0.46437679375E+02  0.10000000000E+01 0.  0.
<mgrwt>
<rscale>  0 0.12500624E+03</rscale>
<asrwt>0</asrwt>
<pdfrwt beam="2">  1        4 0.54537591E-02 0.12500624E+03</pdfrwt>
<pdfrwt beam="1">  1       -4 0.16954333E-01 0.12500624E+03</pdfrwt>
<totfact> 0.10016340E+04</totfact>
</mgrwt>
</event>
<event>
 5    1  0.3196850E-002  0.1249982E+03  0.7818608E-02  0.1235072E+00
          4   -1    0    0  501    0  0.00000000000E+00  0.00000000000E+00  0.62446219041E+03  0.62446348184E+03  0.12700000000E+01 0.  1.
         -4   -1    0    0    0  501 -0.00000000000E+00 -0.00000000000E+00 -0.61894279669E+01  0.63183794249E+01  0.12700000000E+01 0.  1.
         25    2    1    2    0    0  0.00000000000E+00  0.00000000000E+00  0.61827276244E+03  0.63078186126E+03  0.12499819087E+03 0.  0.
    9000005    1    3    3    0    0 -0.44636807257E+02 -0.38562469638E+02  0.41324596710E+03  0.41743590880E+03  0.10000000000E+01 0.  0.
    9000005    1    3    3    0    0  0.44636807257E+02  0.38562469638E+02  0.20502679534E+03  0.21334595246E+03  0.10000000000E+01 0.  0.
<mgrwt>
<rscale>  0 0.12499819E+03</rscale>
<asrwt>0</asrwt>
<pdfrwt beam="1">  1        4 0.96081179E-01 0.12499819E+03</pdfrwt>
<pdfrwt beam="2">  1       -4 0.96223783E-03 0.12499819E+03</pdfrwt>
<totfact> 0.46982328E+03</totfact>
</mgrwt>
</event>
<event>
 5    1  0.3196850E-002  0.1249821E+03  0.7818608E-02  0.1235097E+00
         -4   -1    0    0    0  501 -0.00000000000E+00  0.00000000000E+00  0.15997893313E+03  0.15998397403E+03  0.12700000000E+01 0.  1.
          4   -1    0    0  501    0  0.00000000000E+00 -0.00000000000E+00 -0.24388350592E+02  0.24421395223E+02  0.12700000000E+01 0.  1.
         25    2    1    2    0    0  0.00000000000E+00  0.00000000000E+00  0.13559058254E+03  0.18440536925E+03  0.12498213526E+03 0.  0.
    9000005    1    3    3    0    0  0.33169117357E+02  0.45989576693E+02  0.29069138708E+02  0.63727908611E+02  0.10000000000E+01 0.  0.
    9000005    1    3    3    0    0 -0.33169117357E+02 -0.45989576693E+02  0.10652144383E+03  0.12067746064E+03  0.10000000000E+01 0.  0.
<mgrwt>
<rscale>  0 0.12498214E+03</rscale>
<asrwt>0</asrwt>
<pdfrwt beam="2">  1        4 0.37549836E-02 0.12498214E+03</pdfrwt>
<pdfrwt beam="1">  1       -4 0.24615073E-01 0.12498214E+03</pdfrwt>
<totfact> 0.92867157E+03</totfact>
</mgrwt>
</event>
<event>
 5    1  0.3196850E-002  0.1250013E+03  0.7818608E-02  0.1235067E+00
          4   -1    0    0  501    0  0.00000000000E+00  0.00000000000E+00  0.64311705951E+02  0.64324244436E+02  0.12700000000E+01 0. -1.
         -4   -1    0    0    0  501 -0.00000000000E+00 -0.00000000000E+00 -0.60715542424E+02  0.60728823403E+02  0.12700000000E+01 0. -1.
         25    2    1    2    0    0  0.00000000000E+00  0.00000000000E+00  0.35961635262E+01  0.12505306784E+03  0.12500134953E+03 0.  0.
    9000005    1    3    3    0    0  0.46508494040E+02 -0.22920365907E+02  0.36697342081E+02  0.63530135424E+02  0.10000000000E+01 0.  0.
    9000005    1    3    3    0    0 -0.46508494040E+02  0.22920365907E+02 -0.33101178555E+02  0.61522932415E+02  0.10000000000E+01 0.  0.
<mgrwt>
<rscale>  0 0.12500135E+03</rscale>
<asrwt>0</asrwt>
<pdfrwt beam="1">  1        4 0.98960947E-02 0.12500135E+03</pdfrwt>
<pdfrwt beam="2">  1       -4 0.93428388E-02 0.12500135E+03</pdfrwt>
<totfact> 0.10451391E+04</totfact>
</mgrwt>
</event>
<event>
 5    1  0.3196850E-002  0.1250076E+03  0.7818608E-02  0.1235057E+00
          4   -1    0    0  501    0  0.00000000000E+00  0.00000000000E+00  0.12963895359E+03  0.12964517418E+03  0.12700000000E+01 0. -1.
         -4   -1    0    0    0  501 -0.00000000000E+00 -0.00000000000E+00 -0.30115103346E+02  0.30141870372E+02  0.12700000000E+01 0. -1.
         25    2    1    2    0    0  0.00000000000E+00  0.00000000000E+00  0.99523850244E+02  0.15978704455E+03  0.12500761112E+03 0.  0.
    9000005    1    3    3    0    0  0.23885597525E+02  0.56446195459E+02  0.34157658730E+02  0.70174357146E+02  0.10000000000E+01 0.  0.
    9000005    1    3    3    0    0 -0.23885597525E+02 -0.56446195459E+02  0.65366191514E+02  0.89612687405E+02  0.10000000000E+01 0.  0.
<mgrwt>
<rscale>  0 0.12500761E+03</rscale>
<asrwt>0</asrwt>
<pdfrwt beam="1">  1        4 0.19946992E-01 0.12500761E+03</pdfrwt>
<pdfrwt beam="2">  1       -4 0.46356302E-02 0.12500761E+03</pdfrwt>
<totfact> 0.97367197E+03</totfact>
</mgrwt>
</event>
<event>
 5    1  0.3196850E-002  0.1250012E+03  0.7818608E-02  0.1235067E+00
         -4   -1    0    0    0  501 -0.00000000000E+00  0.00000000000E+00  0.54111694493E+01  0.55582060783E+01  0.12700000000E+01 0.  1.
          4   -1    0    0  501    0  0.00000000000E+00 -0.00000000000E+00 -0.71207638634E+03  0.71207751887E+03  0.12700000000E+01 0.  1.
         25    2    1    2    0    0  0.00000000000E+00  0.00000000000E+00 -0.70666521689E+03  0.71763572495E+03  0.12500121984E+03 0.  0.
    9000005    1    3    3    0    0 -0.12014346228E+02  0.47578464298E+02 -0.13118580291E+03  0.14006701847E+03  0.10000000000E+01 0.  0.
    9000005    1    3    3    0    0  0.12014346228E+02 -0.47578464298E+02 -0.57547941399E+03  0.57756870648E+03  0.10000000000E+01 0.  0.
<mgrwt>
<rscale>  0 0.12500122E+03</rscale>
<asrwt>0</asrwt>
<pdfrwt beam="2">  1        4 0.10956154E+00 0.12500122E+03</pdfrwt>
<pdfrwt beam="1">  1       -4 0.84388580E-03 0.12500122E+03</pdfrwt>
<totfact> 0.42170827E+03</totfact>
</mgrwt>
</event>
<event>
 5    1  0.3196850E-002  0.1249990E+03  0.7818608E-02  0.1235071E+00
          4   -1    0    0  501    0  0.00000000000E+00  0.00000000000E+00  0.34747823591E+02  0.34771024493E+02  0.12700000000E+01 0. -1.
         -4   -1    0    0    0  501 -0.00000000000E+00 -0.00000000000E+00 -0.11235105734E+03  0.11235823506E+03  0.12700000000E+01 0. -1.
         25    2    1    2    0    0  0.00000000000E+00  0.00000000000E+00 -0.77603233750E+02  0.14712925955E+03  0.12499902851E+03 0.  0.
    9000005    1    3    3    0    0  0.49825989517E+02 -0.26788585928E+02 -0.75504716896E+01  0.57081233257E+02  0.10000000000E+01 0.  0.
    9000005    1    3    3    0    0 -0.49825989517E+02  0.26788585928E+02 -0.70052762060E+02  0.90048026295E+02  0.10000000000E+01 0.  0.
<mgrwt>
<rscale>  0 0.12499903E+03</rscale>
<asrwt>0</asrwt>
<pdfrwt beam="1">  1        4 0.53481559E-02 0.12499903E+03</pdfrwt>
<pdfrwt beam="2">  1       -4 0.17287115E-01 0.12499903E+03</pdfrwt>
<totfact> 0.99881231E+03</totfact>
</mgrwt>
</event>
<event>
 5    1  0.3196850E-002  0.1250022E+03  0.7818608E-02  0.1235066E+00
          4   -1    0    0  501    0  0.00000000000E+00  0.00000000000E+00  0.59113349412E+03  0.59113485836E+03  0.12700000000E+01 0. -1.
         -4   -1    0    0    0  501 -0.00000000000E+00 -0.00000000000E+00 -0.65458938295E+01  0.66679551608E+01  0.12700000000E+01 0. -1.
         25    2    1    2    0    0  0.00000000000E+00  0.00000000000E+00  0.58458760029E+03  0.59780281352E+03  0.12500216575E+03 0.  0.
    9000005    1    3    3    0    0  0.23098196930E+02  0.27988319589E+02  0.48980661508E+02  0.60967023353E+02  0.10000000000E+01 0.  0.
    9000005    1    3    3    0    0 -0.23098196930E+02 -0.27988319589E+02  0.53560693878E+03  0.53683579017E+03  0.10000000000E+01 0.  0.
<mgrwt>
<rscale>  0 0.12500217E+03</rscale>
<asrwt>0</asrwt>
<pdfrwt beam="1">  1        4 0.90953094E-01 0.12500217E+03</pdfrwt>
<pdfrwt beam="2">  1       -4 0.10165550E-02 0.12500217E+03</pdfrwt>
<totfact> 0.49004276E+03</totfact>
</mgrwt>
</event>
<event>
 5    1  0.3196850E-002  0.1249955E+03  0.7818608E-02  0.1235076E+00
         -4   -1    0    0    0  501 -0.00000000000E+00  0.00000000000E+00  0.15638117536E+02  0.15689602292E+02  0.12700000000E+01 0. -1.
          4   -1    0    0  501    0  0.00000000000E+00 -0.00000000000E+00 -0.24930892071E+03  0.24931215543E+03  0.12700000000E+01 0. -1.
         25    2    1    2    0    0  0.00000000000E+00  0.00000000000E+00 -0.23367080318E+03  0.26500175773E+03  0.12499554928E+03 0.  0.
    9000005    1    3    3    0    0  0.47112477782E+02  0.36041480635E+02 -0.75160785310E+02  0.95753420501E+02  0.10000000000E+01 0.  0.
    9000005    1    3    3    0    0 -0.47112477782E+02 -0.36041480635E+02 -0.15851001787E+03  0.16924833722E+03  0.10000000000E+01 0.  0.
<mgrwt>
<rscale>  0 0.12499555E+03</rscale>
<asrwt>0</asrwt>
<pdfrwt beam="2">  1        4 0.38359425E-01 0.12499555E+03</pdfrwt>
<pdfrwt beam="1">  1       -4 0.24100736E-02 0.12499555E+03</pdfrwt>
<totfact> 0.80217165E+03</totfact>
</mgrwt>
</event>
<event>
 5    1  0.3196850E-002  0.1250000E+03  0.7818608E-02  0.1235069E+00
          4   -1    0    0  501    0  0.00000000000E+00  0.00000000000E+00  0.25692308120E+03  0.25692622005E+03  0.12700000000E+01 0. -1.
         -4   -1    0    0    0  501 -0.00000000000E+00 -0.00000000000E+00 -0.15174205487E+02  0.15227258853E+02  0.12700000000E+01 0. -1.
         25    2    1    2    0    0  0.00000000000E+00  0.00000000000E+00  0.24174887571E+03  0.27215347891E+03  0.12499998870E+03 0.  0.
    9000005    1    3    3    0    0  0.47072261280E+02  0.44836716098E+01  0.31918000138E+02  0.57058389619E+02  0.10000000000E+01 0.  0.
    9000005    1    3    3    0    0 -0.47072261280E+02 -0.44836716098E+01  0.20983087557E+03  0.21509508929E+03  0.10000000000E+01 0.  0.
<mgrwt>
<rscale>  0 0.12499999E+03</rscale>
<asrwt>0</asrwt>
<pdfrwt beam="1">  1        4 0.39530949E-01 0.12499999E+03</pdfrwt>
<pdfrwt beam="2">  1       -4 0.23388157E-02 0.12499999E+03</pdfrwt>
<totfact> 0.79230154E+03</totfact>
</mgrwt>
</event>
<event>
 5    1  0.3196850E-002  0.1250110E+03  0.7818608E-02  0.1235052E+00
         -4   -1    0    0    0  501 -0.00000000000E+00  0.00000000000E+00  0.11879948146E+03  0.11880626959E+03  0.12700000000E+01 0. -1.
          4   -1    0    0  501    0  0.00000000000E+00 -0.00000000000E+00 -0.32866820187E+02  0.32891347939E+02  0.12700000000E+01 0. -1.
         25    2    1    2    0    0  0.00000000000E+00  0.00000000000E+00  0.85932661271E+02  0.15169761753E+03  0.12501097909E+03 0.  0.
    9000005    1    3    3    0    0 -0.48839031602E+01  0.61942641047E+02  0.51123995656E+02  0.80469908797E+02  0.10000000000E+01 0.  0.
    9000005    1    3    3    0    0  0.48839031602E+01 -0.61942641047E+02  0.34808665615E+02  0.71227708736E+02  0.10000000000E+01 0.  0.
<mgrwt>
<rscale>  0 0.12501098E+03</rscale>
<asrwt>0</asrwt>
<pdfrwt beam="2">  1        4 0.50588428E-02 0.12501098E+03</pdfrwt>
<pdfrwt beam="1">  1       -4 0.18279252E-01 0.12501098E+03</pdfrwt>
<totfact> 0.98941929E+03</totfact>
</mgrwt>
</event>
<event>
 4    1  0.3196850E-002  0.1250614E+03  0.7818608E-02  0.1234973E+00
         -4   -1    0    0    0  501 -0.00000000000E+00  0.00000000000E+00  0.50679894504E+02  0.50695804629E+02  0.12700000000E+01 0. -1.
          4   -1    0    0  501    0  0.00000000000E+00 -0.00000000000E+00 -0.77119440994E+02  0.77129897441E+02  0.12700000000E+01 0. -1.
    9000005    1    1    2    0    0  0.17455530334E+02 -0.13297474495E+02 -0.73059291019E+02  0.76290093534E+02  0.10000000000E+01 0.  0.
    9000005    1    1    2    0    0 -0.17455530334E+02  0.13297474495E+02  0.46619744529E+02  0.51535608536E+02  0.10000000000E+01 0.  0.
<mgrwt>
<rscale>  0 0.12506143E+03</rscale>
<asrwt>0</asrwt>
<pdfrwt beam="2">  1        4 0.11866558E-01 0.12506143E+03</pdfrwt>
<pdfrwt beam="1">  1       -4 0.77989350E-02 0.12506143E+03</pdfrwt>
<totfact> 0.10376857E+04</totfact>
</mgrwt>
</event>
<event>
 5    1  0.3196850E-002  0.1250004E+03  0.7818608E-02  0.1235069E+00
         -4   -1    0    0    0  501 -0.00000000000E+00  0.00000000000E+00  0.63900738058E+02  0.63913357167E+02  0.12700000000E+01 0.  1.
          4   -1    0    0  501    0  0.00000000000E+00 -0.00000000000E+00 -0.61105133786E+02  0.61118330107E+02  0.12700000000E+01 0.  1.
         25    2    1    2    0    0  0.00000000000E+00  0.00000000000E+00  0.27956042712E+01  0.12503168727E+03  0.12500042968E+03 0.  0.
    9000005    1    3    3    0    0  0.40798989111E+01 -0.62358711662E+02  0.12482335767E+01  0.62512499408E+02  0.10000000000E+01 0.  0.
    9000005    1    3    3    0    0 -0.40798989111E+01  0.62358711662E+02  0.15473706945E+01  0.62519187865E+02  0.10000000000E+01 0.  0.
<mgrwt>
<rscale>  0 0.12500043E+03</rscale>
<asrwt>0</asrwt>
<pdfrwt beam="2">  1        4 0.94027756E-02 0.12500043E+03</pdfrwt>
<pdfrwt beam="1">  1       -4 0.98328686E-02 0.12500043E+03</pdfrwt>
<totfact> 0.10452073E+04</totfact>
</mgrwt>
</event>
<event>
 5    1  0.3196850E-002  0.1250397E+03  0.7818608E-02  0.1235007E+00
         -4   -1    0    0    0  501 -0.00000000000E+00  0.00000000000E+00  0.28473638172E+02  0.28501946788E+02  0.12700000000E+01 0. -1.
          4   -1    0    0  501    0  0.00000000000E+00 -0.00000000000E+00 -0.13717609315E+03  0.13718197196E+03  0.12700000000E+01 0. -1.
         25    2    1    2    0    0  0.00000000000E+00  0.00000000000E+00 -0.10870245498E+03  0.16568391875E+03  0.12503974254E+03 0.  0.
    9000005    1    3    3    0    0  0.86033061964E+01 -0.51298122055E+02 -0.84077060614E+01  0.52699181446E+02  0.10000000000E+01 0.  0.
    9000005    1    3    3    0    0 -0.86033061964E+01  0.51298122055E+02 -0.10029474892E+03  0.11298473730E+03  0.10000000000E+01 0.  0.
<mgrwt>
<rscale>  0 0.12503974E+03</rscale>
<asrwt>0</asrwt>
<pdfrwt beam="2">  1        4 0.21106644E-01 0.12503974E+03</pdfrwt>
<pdfrwt beam="1">  1       -4 0.43831896E-02 0.12503974E+03</pdfrwt>
<totfact> 0.96172143E+03</totfact>
</mgrwt>
</event>
<event>
 5    1  0.3196850E-002  0.1249991E+03  0.7818608E-02  0.1235071E+00
          4   -1    0    0  501    0  0.00000000000E+00  0.00000000000E+00  0.42976945339E+03  0.42977132986E+03  0.12700000000E+01 0. -1.
         -4   -1    0    0    0  501 -0.00000000000E+00 -0.00000000000E+00 -0.90427752160E+01  0.91315214289E+01  0.12700000000E+01 0. -1.
         25    2    1    2    0    0  0.00000000000E+00  0.00000000000E+00  0.42072667817E+03  0.43890285129E+03  0.12499910056E+03 0.  0.
    9000005    1    3    3    0    0 -0.55062287278E+02 -0.54945275035E+01  0.10840716201E+03  0.12171753402E+03  0.10000000000E+01 0.  0.
    9000005    1    3    3    0    0  0.55062287278E+02  0.54945275035E+01  0.31231951616E+03  0.31718531726E+03  0.10000000000E+01 0.  0.
<mgrwt>
<rscale>  0 0.12499910E+03</rscale>
<asrwt>0</asrwt>
<pdfrwt beam="1">  1        4 0.66125354E-01 0.12499910E+03</pdfrwt>
<pdfrwt beam="2">  1       -4 0.13981670E-02 0.12499910E+03</pdfrwt>
<totfact> 0.60938413E+03</totfact>
</mgrwt>
</event>
<event>
 5    1  0.3196850E-002  0.1250015E+03  0.7818608E-02  0.1235067E+00
          4   -1    0    0  501    0  0.00000000000E+00  0.00000000000E+00  0.16171937081E+03  0.16172435746E+03  0.12700000000E+01 0. -1.
         -4   -1    0    0    0  501 -0.00000000000E+00 -0.00000000000E+00 -0.24133038148E+02  0.24166431889E+02  0.12700000000E+01 0. -1.
         25    2    1    2    0    0  0.00000000000E+00  0.00000000000E+00  0.13758633266E+03  0.18589078935E+03  0.12500154651E+03 0.  0.
    9000005    1    3    3    0    0  0.56015466624E+02  0.27658033293E+02  0.71212792115E+02  0.94736271129E+02  0.10000000000E+01 0.  0.
    9000005    1    3    3    0    0 -0.56015466624E+02 -0.27658033293E+02  0.66373540546E+02  0.91154518217E+02  0.10000000000E+01 0.  0.
<mgrwt>
<rscale>  0 0.12500155E+03</rscale>
<asrwt>0</asrwt>
<pdfrwt beam="1">  1        4 0.24882855E-01 0.12500155E+03</pdfrwt>
<pdfrwt beam="2">  1       -4 0.37157274E-02 0.12500155E+03</pdfrwt>
<totfact> 0.92564052E+03</totfact>
</mgrwt>
</event>
<event>
 5    1  0.3196850E-002  0.1250011E+03  0.7818608E-02  0.1235068E+00
         -4   -1    0    0    0  501 -0.00000000000E+00  0.00000000000E+00  0.50820772984E+03  0.50820931669E+03  0.12700000000E+01 0. -1.
          4   -1    0    0  501    0  0.00000000000E+00 -0.00000000000E+00 -0.76323878449E+01  0.77373279764E+01  0.12700000000E+01 0. -1.
         25    2    1    2    0    0  0.00000000000E+00  0.00000000000E+00  0.50057534199E+03  0.51594664466E+03  0.12500106851E+03 0.  0.
    9000005    1    3    3    0    0 -0.12714166978E+02  0.43069727436E+02  0.42966542002E+03  0.43200697289E+03  0.10000000000E+01 0.  0.
    9000005    1    3    3    0    0  0.12714166978E+02 -0.43069727436E+02  0.70909921974E+02  0.83939671776E+02  0.10000000000E+01 0.  0.
<mgrwt>
<rscale>  0 0.12500107E+03</rscale>
<asrwt>0</asrwt>
<pdfrwt beam="2">  1        4 0.11824078E-02 0.12500107E+03</pdfrwt>
<pdfrwt beam="1">  1       -4 0.78194007E-01 0.12500107E+03</pdfrwt>
<totfact> 0.54646700E+03</totfact>
</mgrwt>
</event>
<event>
 5    1  0.3196850E-002  0.1249998E+03  0.7818608E-02  0.1235070E+00
          4   -1    0    0  501    0  0.00000000000E+00  0.00000000000E+00  0.13312460551E+02  0.13372901926E+02  0.12700000000E+01 0.  1.
         -4   -1    0    0    0  501 -0.00000000000E+00 -0.00000000000E+00 -0.29270070455E+03  0.29270345974E+03  0.12700000000E+01 0.  1.
         25    2    1    2    0    0  0.00000000000E+00  0.00000000000E+00 -0.27938824400E+03  0.30607636166E+03  0.12499979315E+03 0.  0.
    9000005    1    3    3    0    0 -0.32954517168E+01 -0.47309043566E+02 -0.23934497296E+03  0.24400004444E+03  0.10000000000E+01 0.  0.
    9000005    1    3    3    0    0  0.32954517168E+01  0.47309043566E+02 -0.40043271040E+02  0.62076317229E+02  0.10000000000E+01 0.  0.
<mgrwt>
<rscale>  0 0.12499979E+03</rscale>
<asrwt>0</asrwt>
<pdfrwt beam="1">  1        4 0.20529324E-02 0.12499979E+03</pdfrwt>
<pdfrwt beam="2">  1       -4 0.45035734E-01 0.12499979E+03</pdfrwt>
<totfact> 0.74843244E+03</totfact>
</mgrwt>
</event>
<event>
 5    1  0.3196850E-002  0.1250287E+03  0.7818608E-02  0.1235024E+00
         -4   -1    0    0    0  501 -0.00000000000E+00  0.00000000000E+00  0.38108029720E+03  0.38108241341E+03  0.12700000000E+01 0.  1.
          4   -1    0    0  501    0  0.00000000000E+00 -0.00000000000E+00 -0.10213698726E+02  0.10292353554E+02  0.12700000000E+01 0.  1.
         25    2    1    2    0    0  0.00000000000E+00  0.00000000000E+00  0.37086659847E+03  0.39137476696E+03  0.12502869413E+03 0.  0.
    9000005    1    3    3    0    0 -0.50872360010E+02  0.29606303714E+02  0.11958473369E+03  0.13328930477E+03  0.10000000000E+01 0.  0.
    9000005    1    3    3    0    0  0.50872360010E+02 -0.29606303714E+02  0.25128186478E+03  0.25808546220E+03  0.10000000000E+01 0.  0.
<mgrwt>
<rscale>  0 0.12502869E+03</rscale>
<asrwt>0</asrwt>
<pdfrwt beam="2">  1        4 0.15775517E-02 0.12502869E+03</pdfrwt>
<pdfrwt beam="1">  1       -4 0.58633941E-01 0.12502869E+03</pdfrwt>
<totfact> 0.65358979E+03</totfact>
</mgrwt>
</event>
<event>
 5    1  0.3196850E-002  0.1249999E+03  0.7818608E-02  0.1235069E+00
         -4   -1    0    0    0  501 -0.00000000000E+00  0.00000000000E+00  0.14304168436E+03  0.14304732211E+03  0.12700000000E+01 0.  1.
          4   -1    0    0  501    0  0.00000000000E+00 -0.00000000000E+00 -0.27287471185E+02  0.27317009055E+02  0.12700000000E+01 0.  1.
         25    2    1    2    0    0  0.00000000000E+00  0.00000000000E+00  0.11575421317E+03  0.17036433117E+03  0.12499986987E+03 0.  0.
    9000005    1    3    3    0    0 -0.35454763554E+02  0.40215850997E+02  0.14117376973E+02  0.55449574053E+02  0.10000000000E+01 0.  0.
    9000005    1    3    3    0    0  0.35454763554E+02 -0.40215850997E+02  0.10163683620E+03  0.11491475711E+03  0.10000000000E+01 0.  0.
<mgrwt>
<rscale>  0 0.12499987E+03</rscale>
<asrwt>0</asrwt>
<pdfrwt beam="2">  1        4 0.42007783E-02 0.12499987E+03</pdfrwt>
<pdfrwt beam="1">  1       -4 0.22009119E-01 0.12499987E+03</pdfrwt>
<totfact> 0.95381052E+03</totfact>
</mgrwt>
</event>
<event>
 5    1  0.3196850E-002  0.1250041E+03  0.7818608E-02  0.1235063E+00
          4   -1    0    0  501    0  0.00000000000E+00  0.00000000000E+00  0.32025697518E+02  0.32050868967E+02  0.12700000000E+01 0. -1.
         -4   -1    0    0    0  501 -0.00000000000E+00 -0.00000000000E+00 -0.12190398042E+03  0.12191059569E+03  0.12700000000E+01 0. -1.
         25    2    1    2    0    0  0.00000000000E+00  0.00000000000E+00 -0.89878282902E+02  0.15396146466E+03  0.12500410738E+03 0.  0.
    9000005    1    3    3    0    0  0.53719414920E+02  0.28881179973E+02 -0.28159339863E+02  0.67185165903E+02  0.10000000000E+01 0.  0.
    9000005    1    3    3    0    0 -0.53719414920E+02 -0.28881179973E+02 -0.61718943040E+02  0.86776298757E+02  0.10000000000E+01 0.  0.
<mgrwt>
<rscale>  0 0.12500411E+03</rscale>
<asrwt>0</asrwt>
<pdfrwt beam="1">  1        4 0.49294756E-02 0.12500411E+03</pdfrwt>
<pdfrwt beam="2">  1       -4 0.18756903E-01 0.12500411E+03</pdfrwt>
<totfact> 0.98510662E+03</totfact>
</mgrwt>
</event>
<event>
 5    1  0.3196850E-002  0.1249992E+03  0.7818608E-02  0.1235070E+00
          4   -1    0    0  501    0  0.00000000000E+00  0.00000000000E+00  0.71187676503E+02  0.71199004107E+02  0.12700000000E+01 0. -1.
         -4   -1    0    0    0  501 -0.00000000000E+00 -0.00000000000E+00 -0.54848834839E+02  0.54863536007E+02  0.12700000000E+01 0. -1.
         25    2    1    2    0    0  0.00000000000E+00  0.00000000000E+00  0.16338841664E+02  0.12606254011E+03  0.12499922509E+03 0.  0.
    9000005    1    3    3    0    0  0.62403273818E+01 -0.60693610025E+02 -0.54564541340E+01  0.61265233823E+02  0.10000000000E+01 0.  0.
    9000005    1    3    3    0    0 -0.62403273818E+01  0.60693610025E+02  0.21795295798E+02  0.64797306291E+02  0.10000000000E+01 0.  0.
<mgrwt>
<rscale>  0 0.12499923E+03</rscale>
<asrwt>0</asrwt>
<pdfrwt beam="1">  1        4 0.10953952E-01 0.12499923E+03</pdfrwt>
<pdfrwt beam="2">  1       -4 0.84402845E-02 0.12499923E+03</pdfrwt>
<totfact> 0.10429769E+04</totfact>
</mgrwt>
</event>
<event>
 5    1  0.3196850E-002  0.1250008E+03  0.7818608E-02  0.1235068E+00
         -4   -1    0    0    0  501 -0.00000000000E+00  0.00000000000E+00  0.64692978263E+01  0.65927774394E+01  0.12700000000E+01 0. -1.
          4   -1    0    0  501    0  0.00000000000E+00 -0.00000000000E+00 -0.59798895707E+03  0.59799030567E+03  0.12700000000E+01 0. -1.
         25    2    1    2    0    0  0.00000000000E+00  0.00000000000E+00 -0.59151965924E+03  0.60458308311E+03  0.12500078845E+03 0.  0.
    9000005    1    3    3    0    0  0.51284996561E+02 -0.34325221298E+02 -0.34337736829E+03  0.34888019253E+03  0.10000000000E+01 0.  0.
    9000005    1    3    3    0    0 -0.51284996561E+02  0.34325221298E+02 -0.24814229095E+03  0.25570289058E+03  0.10000000000E+01 0.  0.
<mgrwt>
<rscale>  0 0.12500079E+03</rscale>
<asrwt>0</asrwt>
<pdfrwt beam="2">  1        4 0.92007860E-01 0.12500079E+03</pdfrwt>
<pdfrwt beam="1">  1       -4 0.10048792E-02 0.12500079E+03</pdfrwt>
<totfact> 0.48578762E+03</totfact>
</mgrwt>
</event>
<event>
 5    1  0.3196850E-002  0.1249939E+03  0.7818608E-02  0.1235079E+00
          4   -1    0    0  501    0  0.00000000000E+00  0.00000000000E+00  0.31660037428E+01  0.34112284736E+01  0.12700000000E+01 0.  1.
         -4   -1    0    0    0  501 -0.00000000000E+00 -0.00000000000E+00 -0.11874472241E+04  0.11874479032E+04  0.12700000000E+01 0.  1.
         25    2    1    2    0    0  0.00000000000E+00  0.00000000000E+00 -0.11842812203E+04  0.11908591317E+04  0.12499385068E+03 0.  0.
    9000005    1    3    3    0    0  0.69054120538E+00 -0.42354957676E+02 -0.15445838874E+03  0.16016495603E+03  0.10000000000E+01 0.  0.
    9000005    1    3    3    0    0 -0.69054120538E+00  0.42354957676E+02 -0.10298228316E+04  0.10306941757E+04  0.10000000000E+01 0.  0.
<mgrwt>
<rscale>  0 0.12499385E+03</rscale>
<asrwt>0</asrwt>
<pdfrwt beam="1">  1        4 0.50599413E-03 0.12499385E+03</pdfrwt>
<pdfrwt beam="2">  1       -4 0.18270276E+00 0.12499385E+03</pdfrwt>
<totfact> 0.24956676E+03</totfact>
</mgrwt>
</event>
<event>
 4    1  0.3196850E-002  0.1252857E+03  0.7818608E-02  0.1234624E+00
          4   -1    0    0  501    0  0.00000000000E+00  0.00000000000E+00  0.27456297996E+02  0.27485654433E+02  0.12700000000E+01 0. -1.
         -4   -1    0    0    0  501 -0.00000000000E+00 -0.00000000000E+00 -0.14281399127E+03  0.14281963802E+03  0.12700000000E+01 0. -1.
    9000005    1    1    2    0    0 -0.27625787790E+02 -0.34187171783E+02 -0.11833595818E+03  0.12623924058E+03  0.10000000000E+01 0.  0.
    9000005    1    1    2    0    0  0.27625787790E+02  0.34187171783E+02  0.29782648974E+01  0.44066051869E+02  0.10000000000E+01 0.  0.
<mgrwt>
<rscale>  0 0.12528565E+03</rscale>
<asrwt>0</asrwt>
<pdfrwt beam="1">  1        4 0.42267385E-02 0.12528565E+03</pdfrwt>
<pdfrwt beam="2">  1       -4 0.21974076E-01 0.12528565E+03</pdfrwt>
<totfact> 0.94782744E+03</totfact>
</mgrwt>
</event>
<event>
 5    1  0.3196850E-002  0.1250032E+03  0.7818608E-02  0.1235064E+00
          4   -1    0    0  501    0  0.00000000000E+00  0.00000000000E+00  0.29467180535E+02  0.29494535573E+02  0.12700000000E+01 0.  1.
         -4   -1    0    0    0  501 -0.00000000000E+00 -0.00000000000E+00 -0.13247753190E+03  0.13248361921E+03  0.12700000000E+01 0.  1.
         25    2    1    2    0    0  0.00000000000E+00  0.00000000000E+00 -0.10301035137E+03  0.16197815478E+03  0.12500316051E+03 0.  0.
    9000005    1    3    3    0    0  0.45950224681E+02  0.40889311289E+02 -0.65822868019E+02  0.90094444225E+02  0.10000000000E+01 0.  0.
    9000005    1    3    3    0    0 -0.45950224681E+02 -0.40889311289E+02 -0.37187483349E+02  0.71883710559E+02  0.10000000000E+01 0.  0.
<mgrwt>
<rscale>  0 0.12500316E+03</rscale>
<asrwt>0</asrwt>
<pdfrwt beam="1">  1        4 0.45359849E-02 0.12500316E+03</pdfrwt>
<pdfrwt beam="2">  1       -4 0.20383731E-01 0.12500316E+03</pdfrwt>
<totfact> 0.96955876E+03</totfact>
</mgrwt>
</event>
<event>
 5    1  0.3196850E-002  0.1249997E+03  0.7818608E-02  0.1235070E+00
         -4   -1    0    0    0  501 -0.00000000000E+00  0.00000000000E+00  0.18955908302E+02  0.18998404132E+02  0.12700000000E+01 0. -1.
          4   -1    0    0  501    0  0.00000000000E+00 -0.00000000000E+00 -0.20579419005E+03  0.20579810873E+03  0.12700000000E+01 0. -1.
         25    2    1    2    0    0  0.00000000000E+00  0.00000000000E+00 -0.18683828175E+03  0.22479651287E+03  0.12499971468E+03 0.  0.
    9000005    1    3    3    0    0 -0.51347998277E+02 -0.35299589747E+02 -0.84878424456E+02  0.10529969089E+03  0.10000000000E+01 0.  0.
    9000005    1    3    3    0    0  0.51347998277E+02  0.35299589747E+02 -0.10195985729E+03  0.11949682198E+03  0.10000000000E+01 0.  0.
<mgrwt>
<rscale>  0 0.12499971E+03</rscale>
<asrwt>0</asrwt>
<pdfrwt beam="2">  1        4 0.31664213E-01 0.12499971E+03</pdfrwt>
<pdfrwt beam="1">  1       -4 0.29198641E-02 0.12499971E+03</pdfrwt>
<totfact> 0.86115558E+03</totfact>
</mgrwt>
</event>
<event>
 5    1  0.3196850E-002  0.1250011E+03  0.7818608E-02  0.1235068E+00
          4   -1    0    0  501    0  0.00000000000E+00  0.00000000000E+00  0.82754405595E+03  0.82754503046E+03  0.12700000000E+01 0. -1.
         -4   -1    0    0    0  501 -0.00000000000E+00 -0.00000000000E+00 -0.46339549909E+01  0.48048349459E+01  0.12700000000E+01 0. -1.
         25    2    1    2    0    0  0.00000000000E+00  0.00000000000E+00  0.82291010096E+03  0.83234986541E+03  0.12500105672E+03 0.  0.
    9000005    1    3    3    0    0  0.40671730871E+02  0.25621925549E+02  0.67735851956E+03  0.67906276350E+03  0.10000000000E+01 0.  0.
    9000005    1    3    3    0    0 -0.40671730871E+02 -0.25621925549E+02  0.14555158141E+03  0.15328710191E+03  0.10000000000E+01 0.  0.
<mgrwt>
<rscale>  0 0.12500106E+03</rscale>
<asrwt>0</asrwt>
<pdfrwt beam="1">  1        4 0.12732762E+00 0.12500106E+03</pdfrwt>
<pdfrwt beam="2">  1       -4 0.72613614E-03 0.12500106E+03</pdfrwt>
<totfact> 0.36859834E+03</totfact>
</mgrwt>
</event>
<event>
 5    1  0.3196850E-002  0.1249994E+03  0.7818608E-02  0.1235070E+00
         -4   -1    0    0    0  501 -0.00000000000E+00  0.00000000000E+00  0.17868923284E+03  0.17869374593E+03  0.12700000000E+01 0. -1.
          4   -1    0    0  501    0  0.00000000000E+00 -0.00000000000E+00 -0.21837137897E+02  0.21874036928E+02  0.12700000000E+01 0. -1.
         25    2    1    2    0    0  0.00000000000E+00  0.00000000000E+00  0.15685209494E+03  0.20056778285E+03  0.12499942332E+03 0.  0.
    9000005    1    3    3    0    0  0.23865548263E+02 -0.13356157004E+02  0.16858492978E+03  0.17079177343E+03  0.10000000000E+01 0.  0.
    9000005    1    3    3    0    0 -0.23865548263E+02  0.13356157004E+02 -0.11732834835E+02  0.29776009422E+02  0.10000000000E+01 0.  0.
<mgrwt>
<rscale>  0 0.12499942E+03</rscale>
<asrwt>0</asrwt>
<pdfrwt beam="2">  1        4 0.33627452E-02 0.12499942E+03</pdfrwt>
<pdfrwt beam="1">  1       -4 0.27493837E-01 0.12499942E+03</pdfrwt>
<totfact> 0.90040994E+03</totfact>
</mgrwt>
</event>
<event>
 5    1  0.3196850E-002  0.1250008E+03  0.7818608E-02  0.1235068E+00
         -4   -1    0    0    0  501 -0.00000000000E+00  0.00000000000E+00  0.40357988487E+03  0.40358188311E+03  0.12700000000E+01 0. -1.
          4   -1    0    0  501    0  0.00000000000E+00 -0.00000000000E+00 -0.96354367169E+01  0.97187725936E+01  0.12700000000E+01 0. -1.
         25    2    1    2    0    0  0.00000000000E+00  0.00000000000E+00  0.39394444815E+03  0.41330065570E+03  0.12500081508E+03 0.  0.
    9000005    1    3    3    0    0  0.58854794827E+02 -0.19963818240E+02  0.21861831533E+03  0.22728266258E+03  0.10000000000E+01 0.  0.
    9000005    1    3    3    0    0 -0.58854794827E+02  0.19963818240E+02  0.17532613282E+03  0.18601799312E+03  0.10000000000E+01 0.  0.
<mgrwt>
<rscale>  0 0.12500082E+03</rscale>
<asrwt>0</asrwt>
<pdfrwt beam="2">  1        4 0.14889394E-02 0.12500082E+03</pdfrwt>
<pdfrwt beam="1">  1       -4 0.62095764E-01 0.12500082E+03</pdfrwt>
<totfact> 0.63278287E+03</totfact>
</mgrwt>
</event>
<event>
 5    1  0.3196850E-002  0.1249992E+03  0.7818608E-02  0.1235071E+00
          4   -1    0    0  501    0  0.00000000000E+00  0.00000000000E+00  0.10763841883E+03  0.10764591078E+03  0.12700000000E+01 0. -1.
         -4   -1    0    0    0  501 -0.00000000000E+00 -0.00000000000E+00 -0.36270135217E+02  0.36292362953E+02  0.12700000000E+01 0. -1.
         25    2    1    2    0    0  0.00000000000E+00  0.00000000000E+00  0.71368283613E+02  0.14393827374E+03  0.12499917896E+03 0.  0.
    9000005    1    3    3    0    0 -0.39537470282E+02  0.13831080294E+02 -0.17717900981E+02  0.45491035969E+02  0.10000000000E+01 0.  0.
    9000005    1    3    3    0    0  0.39537470282E+02 -0.13831080294E+02  0.89086184593E+02  0.98447237766E+02  0.10000000000E+01 0.  0.
<mgrwt>
<rscale>  0 0.12499918E+03</rscale>
<asrwt>0</asrwt>
<pdfrwt beam="1">  1        4 0.16562043E-01 0.12499918E+03</pdfrwt>
<pdfrwt beam="2">  1       -4 0.55823069E-02 0.12499918E+03</pdfrwt>
<totfact> 0.10052791E+04</totfact>
</mgrwt>
</event>
<event>
 5    1  0.3196850E-002  0.1250004E+03  0.7818608E-02  0.1235069E+00
         -4   -1    0    0    0  501 -0.00000000000E+00  0.00000000000E+00  0.11055868503E+02  0.11128572610E+02  0.12700000000E+01 0.  1.
          4   -1    0    0  501    0  0.00000000000E+00 -0.00000000000E+00 -0.35208980752E+03  0.35209209798E+03  0.12700000000E+01 0.  1.
         25    2    1    2    0    0  0.00000000000E+00  0.00000000000E+00 -0.34103393902E+03  0.36322067059E+03  0.12500043193E+03 0.  0.
    9000005    1    3    3    0    0 -0.49275713007E+02  0.28259059382E+02 -0.24621212805E+03  0.25268178076E+03  0.10000000000E+01 0.  0.
    9000005    1    3    3    0    0  0.49275713007E+02 -0.28259059382E+02 -0.94821810967E+02  0.11053888983E+03  0.10000000000E+01 0.  0.
<mgrwt>
<rscale>  0 0.12500043E+03</rscale>
<asrwt>0</asrwt>
<pdfrwt beam="2">  1        4 0.54173423E-01 0.12500043E+03</pdfrwt>
<pdfrwt beam="1">  1       -4 0.17066719E-02 0.12500043E+03</pdfrwt>
<totfact> 0.68293548E+03</totfact>
</mgrwt>
</event>
<event>
 4    1  0.3196850E-002  0.1251001E+03  0.7818608E-02  0.1234913E+00
         -4   -1    0    0    0  501 -0.00000000000E+00  0.00000000000E+00  0.32168513851E+03  0.32168764546E+03  0.12700000000E+01 0.  1.
          4   -1    0    0  501    0  0.00000000000E+00 -0.00000000000E+00 -0.12126830317E+02  0.12193150272E+02  0.12700000000E+01 0.  1.
    9000005    1    1    2    0    0 -0.42417239113E+02  0.17622320883E+02  0.41492183343E+02  0.61906135769E+02  0.10000000000E+01 0.  0.
    9000005    1    1    2    0    0  0.42417239113E+02 -0.17622320883E+02  0.26806612485E+03  0.27197465996E+03  0.10000000000E+01 0.  0.
<mgrwt>
<rscale>  0 0.12510012E+03</rscale>
<asrwt>0</asrwt>
<pdfrwt beam="2">  1        4 0.18709606E-02 0.12510012E+03</pdfrwt>
<pdfrwt beam="1">  1       -4 0.49495315E-01 0.12510012E+03</pdfrwt>
<totfact> 0.71376640E+03</totfact>
</mgrwt>
</event>
<event>
 5    1  0.3196850E-002  0.1250011E+03  0.7818608E-02  0.1235068E+00
         -4   -1    0    0    0  501 -0.00000000000E+00  0.00000000000E+00  0.31909884176E+02  0.31935146910E+02  0.12700000000E+01 0.  1.
          4   -1    0    0  501    0  0.00000000000E+00 -0.00000000000E+00 -0.12234025478E+03  0.12234684646E+03  0.12700000000E+01 0.  1.
         25    2    1    2    0    0  0.00000000000E+00  0.00000000000E+00 -0.90430370601E+02  0.15428199337E+03  0.12500112620E+03 0.  0.
    9000005    1    3    3    0    0  0.12266408235E+02 -0.51840336277E+02 -0.48903998075E+01  0.53505151589E+02  0.10000000000E+01 0.  0.
    9000005    1    3    3    0    0 -0.12266408235E+02  0.51840336277E+02 -0.85539970794E+02  0.10077684178E+03  0.10000000000E+01 0.  0.
<mgrwt>
<rscale>  0 0.12500113E+03</rscale>
<asrwt>0</asrwt>
<pdfrwt beam="2">  1        4 0.18824028E-01 0.12500113E+03</pdfrwt>
<pdfrwt beam="1">  1       -4 0.49116633E-02 0.12500113E+03</pdfrwt>
<totfact> 0.98454143E+03</totfact>
</mgrwt>
</event>
<event>
 5    1  0.3196850E-002  0.1249983E+03  0.7818608E-02  0.1235072E+00
         -4   -1    0    0    0  501 -0.00000000000E+00  0.00000000000E+00  0.48461629304E+02  0.48478267448E+02  0.12700000000E+01 0.  1.
          4   -1    0    0  501    0  0.00000000000E+00 -0.00000000000E+00 -0.80567352132E+02  0.80577361148E+02  0.12700000000E+01 0.  1.
         25    2    1    2    0    0  0.00000000000E+00  0.00000000000E+00 -0.32105722828E+02  0.12905562860E+03  0.12499831132E+03 0.  0.
    9000005    1    3    3    0    0 -0.43218564298E+01 -0.21474647531E+02  0.44372946024E+02  0.49495426743E+02  0.10000000000E+01 0.  0.
    9000005    1    3    3    0    0  0.43218564298E+01  0.21474647531E+02 -0.76478668852E+02  0.79560201853E+02  0.10000000000E+01 0.  0.
<mgrwt>
<rscale>  0 0.12499831E+03</rscale>
<asrwt>0</asrwt>
<pdfrwt beam="2">  1        4 0.12397027E-01 0.12499831E+03</pdfrwt>
<pdfrwt beam="1">  1       -4 0.74576851E-02 0.12499831E+03</pdfrwt>
<totfact> 0.10365147E+04</totfact>
</mgrwt>
</event>
<event>
 5    1  0.3196850E-002  0.1250005E+03  0.7818608E-02  0.1235069E+00
         -4   -1    0    0    0  501 -0.00000000000E+00  0.00000000000E+00  0.18159230903E+03  0.18159674997E+03  0.12700000000E+01 0.  1.
          4   -1    0    0  501    0  0.00000000000E+00 -0.00000000000E+00 -0.21487806956E+02  0.21525304824E+02  0.12700000000E+01 0.  1.
         25    2    1    2    0    0  0.00000000000E+00  0.00000000000E+00  0.16010450207E+03  0.20312205479E+03  0.12500047023E+03 0.  0.
    9000005    1    3    3    0    0 -0.19220168501E+02 -0.28544953200E+02  0.16481669320E+03  0.16837390411E+03  0.10000000000E+01 0.  0.
    9000005    1    3    3    0    0  0.19220168501E+02  0.28544953200E+02 -0.47121911220E+01  0.34748150679E+02  0.10000000000E+01 0.  0.
<mgrwt>
<rscale>  0 0.12500047E+03</rscale>
<asrwt>0</asrwt>
<pdfrwt beam="2">  1        4 0.33090424E-02 0.12500047E+03</pdfrwt>
<pdfrwt beam="1">  1       -4 0.27940506E-01 0.12500047E+03</pdfrwt>
<totfact> 0.89610661E+03</totfact>
</mgrwt>
</event>
<event>
 5    1  0.3196850E-002  0.1250033E+03  0.7818608E-02  0.1235064E+00
          4   -1    0    0  501    0  0.00000000000E+00  0.00000000000E+00  0.16616636868E+02  0.16665098884E+02  0.12700000000E+01 0. -1.
         -4   -1    0    0    0  501 -0.00000000000E+00 -0.00000000000E+00 -0.23470047198E+03  0.23470390803E+03  0.12700000000E+01 0. -1.
         25    2    1    2    0    0  0.00000000000E+00  0.00000000000E+00 -0.21808383511E+03  0.25136900692E+03  0.12500327397E+03 0.  0.
    9000005    1    3    3    0    0  0.41479158388E+02 -0.45623295723E+02 -0.88589090390E+02  0.10793994918E+03  0.10000000000E+01 0.  0.
    9000005    1    3    3    0    0 -0.41479158388E+02  0.45623295723E+02 -0.12949474472E+03  0.14342905774E+03  0.10000000000E+01 0.  0.
<mgrwt>
<rscale>  0 0.12500327E+03</rscale>
<asrwt>0</asrwt>
<pdfrwt beam="1">  1        4 0.25603980E-02 0.12500327E+03</pdfrwt>
<pdfrwt beam="2">  1       -4 0.36111755E-01 0.12500327E+03</pdfrwt>
<totfact> 0.82126777E+03</totfact>
</mgrwt>
</event>
<event>
 5    1  0.3196850E-002  0.1250081E+03  0.7818608E-02  0.1235057E+00
         -4   -1    0    0    0  501 -0.00000000000E+00  0.00000000000E+00  0.30055831967E+03  0.30056100284E+03  0.12700000000E+01 0. -1.
          4   -1    0    0  501    0  0.00000000000E+00 -0.00000000000E+00 -0.12964565616E+02  0.13026621266E+02  0.12700000000E+01 0. -1.
         25    2    1    2    0    0  0.00000000000E+00  0.00000000000E+00  0.28759375406E+03  0.31358762410E+03  0.12500812220E+03 0.  0.
    9000005    1    3    3    0    0 -0.23738360432E+02 -0.53166131161E+02  0.20075838991E+03  0.20903367762E+03  0.10000000000E+01 0.  0.
    9000005    1    3    3    0    0  0.23738360432E+02  0.53166131161E+02  0.86835364144E+02  0.10455394648E+03  0.10000000000E+01 0.  0.
<mgrwt>
<rscale>  0 0.12500812E+03</rscale>
<asrwt>0</asrwt>
<pdfrwt beam="2">  1        4 0.19995287E-02 0.12500812E+03</pdfrwt>
<pdfrwt beam="1">  1       -4 0.46244715E-01 0.12500812E+03</pdfrwt>
<totfact> 0.73912029E+03</totfact>
</mgrwt>
</event>
<event>
 5    1  0.3196850E-002  0.1250017E+03  0.7818608E-02  0.1235067E+00
         -4   -1    0    0    0  501 -0.00000000000E+00  0.00000000000E+00  0.21366486495E+02  0.21404196905E+02  0.12700000000E+01 0. -1.
          4   -1    0    0  501    0  0.00000000000E+00 -0.00000000000E+00 -0.18262514194E+03  0.18262955777E+03  0.12700000000E+01 0. -1.
         25    2    1    2    0    0  0.00000000000E+00  0.00000000000E+00 -0.16125865545E+03  0.20403375467E+03  0.12500167634E+03 0.  0.
    9000005    1    3    3    0    0  0.33450736374E+02  0.20893503398E+01  0.54636410303E+01  0.33973055825E+02  0.10000000000E+01 0.  0.
    9000005    1    3    3    0    0 -0.33450736374E+02 -0.20893503398E+01 -0.16672229648E+03  0.17006069885E+03  0.10000000000E+01 0.  0.
<mgrwt>
<rscale>  0 0.12500168E+03</rscale>
<asrwt>0</asrwt>
<pdfrwt beam="2">  1        4 0.28099415E-01 0.12500168E+03</pdfrwt>
<pdfrwt beam="1">  1       -4 0.32903924E-02 0.12500168E+03</pdfrwt>
<totfact> 0.89456258E+03</totfact>
</mgrwt>
</event>
<event>
 5    1  0.3196850E-002  0.1250004E+03  0.7818608E-02  0.1235069E+00
         -4   -1    0    0    0  501 -0.00000000000E+00  0.00000000000E+00  0.31539580668E+02  0.31565139770E+02  0.12700000000E+01 0. -1.
          4   -1    0    0  501    0  0.00000000000E+00 -0.00000000000E+00 -0.12377419080E+03  0.12378070612E+03  0.12700000000E+01 0. -1.
         25    2    1    2    0    0  0.00000000000E+00  0.00000000000E+00 -0.92234610128E+02  0.15534584589E+03  0.12500043412E+03 0.  0.
    9000005    1    3    3    0    0  0.41797819347E+02 -0.19774127276E+02  0.61260888453E+01  0.46654075666E+02  0.10000000000E+01 0.  0.
    9000005    1    3    3    0    0 -0.41797819347E+02  0.19774127276E+02 -0.98360698973E+02  0.10869177022E+03  0.10000000000E+01 0.  0.
<mgrwt>
<rscale>  0 0.12500043E+03</rscale>
<asrwt>0</asrwt>
<pdfrwt beam="2">  1        4 0.19044650E-01 0.12500043E+03</pdfrwt>
<pdfrwt beam="1">  1       -4 0.48547105E-02 0.12500043E+03</pdfrwt>
<totfact> 0.98246689E+03</totfact>
</mgrwt>
</event>
<event>
 5    1  0.3196850E-002  0.1250004E+03  0.7818608E-02  0.1235069E+00
          4   -1    0    0  501    0  0.00000000000E+00  0.00000000000E+00  0.36363552077E+02  0.36385722745E+02  0.12700000000E+01 0.  1.
         -4   -1    0    0    0  501 -0.00000000000E+00 -0.00000000000E+00 -0.10736410474E+03  0.10737161584E+03  0.12700000000E+01 0.  1.
         25    2    1    2    0    0  0.00000000000E+00  0.00000000000E+00 -0.71000552666E+02  0.14375733858E+03  0.12500037567E+03 0.  0.
    9000005    1    3    3    0    0 -0.74967849661E+01 -0.57438875203E+02 -0.85328340420E+01  0.58559674062E+02  0.10000000000E+01 0.  0.
    9000005    1    3    3    0    0  0.74967849661E+01  0.57438875203E+02 -0.62467718624E+02  0.85197664519E+02  0.10000000000E+01 0.  0.
<mgrwt>
<rscale>  0 0.12500038E+03</rscale>
<asrwt>0</asrwt>
<pdfrwt beam="1">  1        4 0.55966759E-02 0.12500038E+03</pdfrwt>
<pdfrwt beam="2">  1       -4 0.16519838E-01 0.12500038E+03</pdfrwt>
<totfact> 0.10056213E+04</totfact>
</mgrwt>
</event>
<event>
 5    1  0.3196850E-002  0.1250199E+03  0.7818608E-02  0.1235038E+00
         -4   -1    0    0    0  501 -0.00000000000E+00  0.00000000000E+00  0.65058625596E+02  0.65071020159E+02  0.12700000000E+01 0. -1.
          4   -1    0    0  501    0  0.00000000000E+00 -0.00000000000E+00 -0.60036302370E+02  0.60049733573E+02  0.12700000000E+01 0. -1.
         25    2    1    2    0    0  0.00000000000E+00  0.00000000000E+00  0.50223232264E+01  0.12512075373E+03  0.12501991555E+03 0.  0.
    9000005    1    3    3    0    0  0.32912376300E+00 -0.13746321741E+02  0.63531029972E+02  0.65009702761E+02  0.10000000000E+01 0.  0.
    9000005    1    3    3    0    0 -0.32912376300E+00  0.13746321741E+02 -0.58508706745E+02  0.60111050971E+02  0.10000000000E+01 0.  0.
<mgrwt>
<rscale>  0 0.12501992E+03</rscale>
<asrwt>0</asrwt>
<pdfrwt beam="2">  1        4 0.92383408E-02 0.12501992E+03</pdfrwt>
<pdfrwt beam="1">  1       -4 0.10011006E-01 0.12501992E+03</pdfrwt>
<totfact> 0.10445538E+04</totfact>
</mgrwt>
</event>
<event>
 5    1  0.3196850E-002  0.1250045E+03  0.7818608E-02  0.1235062E+00
         -4   -1    0    0    0  501 -0.00000000000E+00  0.00000000000E+00  0.16776629838E+03  0.16777110529E+03  0.12700000000E+01 0. -1.
          4   -1    0    0  501    0  0.00000000000E+00 -0.00000000000E+00 -0.23263097757E+02  0.23297738458E+02  0.12700000000E+01 0. -1.
         25    2    1    2    0    0  0.00000000000E+00  0.00000000000E+00  0.14450320062E+03  0.19106884375E+03  0.12500451217E+03 0.  0.
    9000005    1    3    3    0    0 -0.22534800069E+02 -0.53628991954E+02  0.37341416419E+02  0.69132245532E+02  0.10000000000E+01 0.  0.
    9000005    1    3    3    0    0  0.22534800069E+02  0.53628991954E+02  0.10716178420E+03  0.12193659822E+03  0.10000000000E+01 0.  0.
<mgrwt>
<rscale>  0 0.12500451E+03</rscale>
<asrwt>0</asrwt>
<pdfrwt beam="2">  1        4 0.35819727E-02 0.12500451E+03</pdfrwt>
<pdfrwt beam="1">  1       -4 0.25813233E-01 0.12500451E+03</pdfrwt>
<totfact> 0.91652409E+03</totfact>
</mgrwt>
</event>
<event>
 5    1  0.3196850E-002  0.1249991E+03  0.7818608E-02  0.1235071E+00
          4   -1    0    0  501    0  0.00000000000E+00  0.00000000000E+00  0.36116203601E+03  0.36116426893E+03  0.12700000000E+01 0. -1.
         -4   -1    0    0    0  501 -0.00000000000E+00 -0.00000000000E+00 -0.10776070313E+02  0.10850649353E+02  0.12700000000E+01 0. -1.
         25    2    1    2    0    0  0.00000000000E+00  0.00000000000E+00  0.35038596570E+03  0.37201491829E+03  0.12499909788E+03 0.  0.
    9000005    1    3    3    0    0 -0.89209581988E+01 -0.14278319501E+02  0.35429979125E+03  0.35470099518E+03  0.10000000000E+01 0.  0.
    9000005    1    3    3    0    0  0.89209581988E+01  0.14278319501E+02 -0.39138255508E+01  0.17313923108E+02  0.10000000000E+01 0.  0.
<mgrwt>
<rscale>  0 0.12499910E+03</rscale>
<asrwt>0</asrwt>
<pdfrwt beam="1">  1        4 0.55569292E-01 0.12499910E+03</pdfrwt>
<pdfrwt beam="2">  1       -4 0.16637658E-02 0.12499910E+03</pdfrwt>
<totfact> 0.67370010E+03</totfact>
</mgrwt>
</event>
<event>
 5    1  0.3196850E-002  0.1250017E+03  0.7818608E-02  0.1235067E+00
          4   -1    0    0  501    0  0.00000000000E+00  0.00000000000E+00  0.22373033938E+03  0.22373394391E+03  0.12700000000E+01 0. -1.
         -4   -1    0    0    0  501 -0.00000000000E+00 -0.00000000000E+00 -0.17433259916E+02  0.17479457981E+02  0.12700000000E+01 0. -1.
         25    2    1    2    0    0  0.00000000000E+00  0.00000000000E+00  0.20629707947E+03  0.24121340190E+03  0.12500168102E+03 0.  0.
    9000005    1    3    3    0    0 -0.18765302976E+02  0.54893447369E+02  0.14798728663E+03  0.15895491236E+03  0.10000000000E+01 0.  0.
    9000005    1    3    3    0    0  0.18765302976E+02 -0.54893447369E+02  0.58309792833E+02  0.82258489532E+02  0.10000000000E+01 0.  0.
<mgrwt>
<rscale>  0 0.12500168E+03</rscale>
<asrwt>0</asrwt>
<pdfrwt beam="1">  1        4 0.34423881E-01 0.12500168E+03</pdfrwt>
<pdfrwt beam="2">  1       -4 0.26858711E-02 0.12500168E+03</pdfrwt>
<totfact> 0.83613852E+03</totfact>
</mgrwt>
</event>
<event>
 5    1  0.3196850E-002  0.1249976E+03  0.7818608E-02  0.1235073E+00
         -4   -1    0    0    0  501 -0.00000000000E+00  0.00000000000E+00  0.12423572816E+02  0.12488317001E+02  0.12700000000E+01 0.  1.
          4   -1    0    0  501    0  0.00000000000E+00 -0.00000000000E+00 -0.31352737715E+03  0.31352994932E+03  0.12700000000E+01 0.  1.
         25    2    1    2    0    0  0.00000000000E+00  0.00000000000E+00 -0.30110380433E+03  0.32601826632E+03  0.12499763595E+03 0.  0.
    9000005    1    3    3    0    0  0.55998755911E+02  0.12142302464E+02 -0.21558996762E+03  0.22307696051E+03  0.10000000000E+01 0.  0.
    9000005    1    3    3    0    0 -0.55998755911E+02 -0.12142302464E+02 -0.85513836709E+02  0.10294130581E+03  0.10000000000E+01 0.  0.
<mgrwt>
<rscale>  0 0.12499764E+03</rscale>
<asrwt>0</asrwt>
<pdfrwt beam="2">  1        4 0.48240153E-01 0.12499764E+03</pdfrwt>
<pdfrwt beam="1">  1       -4 0.19164973E-02 0.12499764E+03</pdfrwt>
<totfact> 0.72449802E+03</totfact>
</mgrwt>
</event>
<event>
 5    1  0.3196850E-002  0.1249981E+03  0.7818608E-02  0.1235072E+00
         -4   -1    0    0    0  501 -0.00000000000E+00  0.00000000000E+00  0.47745165694E+02  0.47762053423E+02  0.12700000000E+01 0.  1.
          4   -1    0    0  501    0  0.00000000000E+00 -0.00000000000E+00 -0.81775735630E+02  0.81785596763E+02  0.12700000000E+01 0.  1.
         25    2    1    2    0    0  0.00000000000E+00  0.00000000000E+00 -0.34030569936E+02  0.12954765019E+03  0.12499805590E+03 0.  0.
    9000005    1    3    3    0    0  0.17325766658E+02  0.19962787456E+02 -0.75701674879E+02  0.80190015918E+02  0.10000000000E+01 0.  0.
    9000005    1    3    3    0    0 -0.17325766658E+02 -0.19962787456E+02  0.41671104944E+02  0.49357634268E+02  0.10000000000E+01 0.  0.
<mgrwt>
<rscale>  0 0.12499806E+03</rscale>
<asrwt>0</asrwt>
<pdfrwt beam="2">  1        4 0.12582940E-01 0.12499806E+03</pdfrwt>
<pdfrwt beam="1">  1       -4 0.73474677E-02 0.12499806E+03</pdfrwt>
<totfact> 0.10354648E+04</totfact>
</mgrwt>
</event>
<event>
 5    1  0.3196850E-002  0.1250086E+03  0.7818608E-02  0.1235056E+00
         -4   -1    0    0    0  501 -0.00000000000E+00  0.00000000000E+00  0.29152213680E+01  0.31798452202E+01  0.12700000000E+01 0. -1.
          4   -1    0    0  501    0  0.00000000000E+00 -0.00000000000E+00 -0.12816849126E+04  0.12816855418E+04  0.12700000000E+01 0. -1.
         25    2    1    2    0    0  0.00000000000E+00  0.00000000000E+00 -0.12787696912E+04  0.12848653870E+04  0.12500855801E+03 0.  0.
    9000005    1    3    3    0    0 -0.35030135332E+02 -0.43721723224E+02 -0.92405356747E+03  0.92575088173E+03  0.10000000000E+01 0.  0.
    9000005    1    3    3    0    0  0.35030135332E+02  0.43721723224E+02 -0.35471612372E+03  0.35911450526E+03  0.10000000000E+01 0.  0.
<mgrwt>
<rscale>  0 0.12500856E+03</rscale>
<asrwt>0</asrwt>
<pdfrwt beam="2">  1        4 0.19720227E+00 0.12500856E+03</pdfrwt>
<pdfrwt beam="1">  1       -4 0.46890070E-03 0.12500856E+03</pdfrwt>
<totfact> 0.22584410E+03</totfact>
</mgrwt>
</event>
<event>
 5    1  0.3196850E-002  0.1249993E+03  0.7818608E-02  0.1235070E+00
         -4   -1    0    0    0  501 -0.00000000000E+00  0.00000000000E+00  0.21600876417E+02  0.21638178342E+02  0.12700000000E+01 0. -1.
          4   -1    0    0  501    0  0.00000000000E+00 -0.00000000000E+00 -0.18064005011E+03  0.18064451446E+03  0.12700000000E+01 0. -1.
         25    2    1    2    0    0  0.00000000000E+00  0.00000000000E+00 -0.15903917369E+03  0.20228269280E+03  0.12499931615E+03 0.  0.
    9000005    1    3    3    0    0 -0.24014619763E+02  0.43692729772E+02 -0.18550282449E+02  0.53205916741E+02  0.10000000000E+01 0.  0.
    9000005    1    3    3    0    0  0.24014619763E+02 -0.43692729772E+02 -0.14048889124E+03  0.14907677606E+03  0.10000000000E+01 0.  0.
<mgrwt>
<rscale>  0 0.12499932E+03</rscale>
<asrwt>0</asrwt>
<pdfrwt beam="2">  1        4 0.27793989E-01 0.12499932E+03</pdfrwt>
<pdfrwt beam="1">  1       -4 0.33264247E-02 0.12499932E+03</pdfrwt>
<totfact> 0.89753309E+03</totfact>
</mgrwt>
</event>
<event>
 5    1  0.3196850E-002  0.1249990E+03  0.7818608E-02  0.1235071E+00
          4   -1    0    0  501    0  0.00000000000E+00  0.00000000000E+00  0.34683721034E+02  0.34706964788E+02  0.12700000000E+01 0. -1.
         -4   -1    0    0    0  501 -0.00000000000E+00 -0.00000000000E+00 -0.11255851532E+03  0.11256567981E+03  0.12700000000E+01 0. -1.
         25    2    1    2    0    0  0.00000000000E+00  0.00000000000E+00 -0.77874794285E+02  0.14727264460E+03  0.12499899304E+03 0.  0.
    9000005    1    3    3    0    0 -0.22934988951E+02  0.50677406124E+02 -0.53853519635E+01  0.55894679760E+02  0.10000000000E+01 0.  0.
    9000005    1    3    3    0    0  0.22934988951E+02 -0.50677406124E+02 -0.72489442322E+02  0.91377964837E+02  0.10000000000E+01 0.  0.
<mgrwt>
<rscale>  0 0.12499899E+03</rscale>
<asrwt>0</asrwt>
<pdfrwt beam="1">  1        4 0.53382962E-02 0.12499899E+03</pdfrwt>
<pdfrwt beam="2">  1       -4 0.17319034E-01 0.12499899E+03</pdfrwt>
<totfact> 0.99852424E+03</totfact>
</mgrwt>
</event>
<event>
 5    1  0.3196850E-002  0.1249986E+03  0.7818608E-02  0.1235071E+00
         -4   -1    0    0    0  501 -0.00000000000E+00  0.00000000000E+00  0.18114237479E+03  0.18114682676E+03  0.12700000000E+01 0. -1.
          4   -1    0    0  501    0  0.00000000000E+00 -0.00000000000E+00 -0.21540625384E+02  0.21578031466E+02  0.12700000000E+01 0. -1.
         25    2    1    2    0    0  0.00000000000E+00  0.00000000000E+00  0.15960174941E+03  0.20272485823E+03  0.12499859891E+03 0.  0.
    9000005    1    3    3    0    0 -0.35597979361E+02  0.43794004700E+02  0.12331974304E+03  0.13562407605E+03  0.10000000000E+01 0.  0.
    9000005    1    3    3    0    0  0.35597979361E+02 -0.43794004700E+02  0.36282006375E+02  0.67100782177E+02  0.10000000000E+01 0.  0.
<mgrwt>
<rscale>  0 0.12499860E+03</rscale>
<asrwt>0</asrwt>
<pdfrwt beam="2">  1        4 0.33171621E-02 0.12499860E+03</pdfrwt>
<pdfrwt beam="1">  1       -4 0.27871278E-01 0.12499860E+03</pdfrwt>
<totfact> 0.89680773E+03</totfact>
</mgrwt>
</event>
<event>
 5    1  0.3196850E-002  0.1250001E+03  0.7818608E-02  0.1235069E+00
          4   -1    0    0  501    0  0.00000000000E+00  0.00000000000E+00  0.11283805054E+02  0.11355049824E+02  0.12700000000E+01 0.  1.
         -4   -1    0    0    0  501 -0.00000000000E+00 -0.00000000000E+00 -0.34502054786E+03  0.34502288524E+03  0.12700000000E+01 0.  1.
         25    2    1    2    0    0  0.00000000000E+00  0.00000000000E+00 -0.33373674280E+03  0.35637793507E+03  0.12500007643E+03 0.  0.
    9000005    1    3    3    0    0  0.10251353972E+02 -0.15087362156E+02  0.35391802773E+01  0.18607647678E+02  0.10000000000E+01 0.  0.
    9000005    1    3    3    0    0 -0.10251353972E+02  0.15087362156E+02 -0.33727592308E+03  0.33777028739E+03  0.10000000000E+01 0.  0.
<mgrwt>
<rscale>  0 0.12500008E+03</rscale>
<asrwt>0</asrwt>
<pdfrwt beam="1">  1        4 0.17416304E-02 0.12500008E+03</pdfrwt>
<pdfrwt beam="2">  1       -4 0.53085736E-01 0.12500008E+03</pdfrwt>
<totfact> 0.69028445E+03</totfact>
</mgrwt>
</event>
<event>
 5    1  0.3196850E-002  0.1249564E+03  0.7818608E-02  0.1235137E+00
         -4   -1    0    0    0  501 -0.00000000000E+00  0.00000000000E+00  0.11943206333E+04  0.11943213085E+04  0.12700000000E+01 0.  1.
          4   -1    0    0  501    0  0.00000000000E+00 -0.00000000000E+00 -0.31443338084E+01  0.33911259338E+01  0.12700000000E+01 0.  1.
         25    2    1    2    0    0  0.00000000000E+00  0.00000000000E+00  0.11911762994E+04  0.11977124344E+04  0.12495638925E+03 0.  0.
    9000005    1    3    3    0    0 -0.98093971858E+01 -0.28401511196E+02  0.11205523922E+04  0.11209556341E+04  0.10000000000E+01 0.  0.
    9000005    1    3    3    0    0  0.98093971858E+01  0.28401511196E+02  0.70623907291E+02  0.76756800301E+02  0.10000000000E+01 0.  0.
<mgrwt>
<rscale>  0 0.12495639E+03</rscale>
<asrwt>0</asrwt>
<pdfrwt beam="2">  1        4 0.50277825E-03 0.12495639E+03</pdfrwt>
<pdfrwt beam="1">  1       -4 0.18376117E+00 0.12495639E+03</pdfrwt>
<totfact> 0.24796199E+03</totfact>
</mgrwt>
</event>
<event>
 5    1  0.3196850E-002  0.1250049E+03  0.7818608E-02  0.1235062E+00
          4   -1    0    0  501    0  0.00000000000E+00  0.00000000000E+00  0.26185495049E+01  0.29102751605E+01  0.12700000000E+01 0.  1.
         -4   -1    0    0    0  501 -0.00000000000E+00 -0.00000000000E+00 -0.14128670657E+04  0.14128676365E+04  0.12700000000E+01 0.  1.
         25    2    1    2    0    0  0.00000000000E+00  0.00000000000E+00 -0.14102485162E+04  0.14157779117E+04  0.12500487065E+03 0.  0.
    9000005    1    3    3    0    0 -0.96892360157E+01  0.47291503348E+02 -0.25561956079E+03  0.26013982287E+03  0.10000000000E+01 0.  0.
    9000005    1    3    3    0    0  0.96892360157E+01 -0.47291503348E+02 -0.11546289554E+04  0.11556380888E+04  0.10000000000E+01 0.  0.
<mgrwt>
<rscale>  0 0.12500487E+03</rscale>
<asrwt>0</asrwt>
<pdfrwt beam="1">  1        4 0.42533924E-03 0.12500487E+03</pdfrwt>
<pdfrwt beam="2">  1       -4 0.21738607E+00 0.12500487E+03</pdfrwt>
<totfact> 0.19642840E+03</totfact>
</mgrwt>
</event>
<event>
 5    1  0.3196850E-002  0.1249992E+03  0.7818608E-02  0.1235071E+00
         -4   -1    0    0    0  501 -0.00000000000E+00  0.00000000000E+00  0.77702118372E+02  0.77712496418E+02  0.12700000000E+01 0.  1.
          4   -1    0    0  501    0  0.00000000000E+00 -0.00000000000E+00 -0.50249698557E+02  0.50265744847E+02  0.12700000000E+01 0.  1.
         25    2    1    2    0    0  0.00000000000E+00  0.00000000000E+00  0.27452419815E+02  0.12797824127E+03  0.12499917953E+03 0.  0.
    9000005    1    3    3    0    0  0.56616813592E+02  0.15980478094E+02  0.35308433629E+02  0.68618690943E+02  0.10000000000E+01 0.  0.
    9000005    1    3    3    0    0 -0.56616813592E+02 -0.15980478094E+02 -0.78560138142E+01  0.59359550322E+02  0.10000000000E+01 0.  0.
<mgrwt>
<rscale>  0 0.12499918E+03</rscale>
<asrwt>0</asrwt>
<pdfrwt beam="2">  1        4 0.77327555E-02 0.12499918E+03</pdfrwt>
<pdfrwt beam="1">  1       -4 0.11956205E-01 0.12499918E+03</pdfrwt>
<totfact> 0.10388150E+04</totfact>
</mgrwt>
</event>
<event>
 5    1  0.3196850E-002  0.1249985E+03  0.7818608E-02  0.1235072E+00
          4   -1    0    0  501    0  0.00000000000E+00  0.00000000000E+00  0.96625409049E+01  0.97456450140E+01  0.12700000000E+01 0.  1.
         -4   -1    0    0    0  501 -0.00000000000E+00 -0.00000000000E+00 -0.40244283691E+03  0.40244484079E+03  0.12700000000E+01 0.  1.
         25    2    1    2    0    0  0.00000000000E+00  0.00000000000E+00 -0.39278029601E+03  0.41219048581E+03  0.12499854263E+03 0.  0.
    9000005    1    3    3    0    0  0.28974377879E+02  0.47711132848E+02 -0.10374729871E+03  0.11781497681E+03  0.10000000000E+01 0.  0.
    9000005    1    3    3    0    0 -0.28974377879E+02 -0.47711132848E+02 -0.28903299730E+03  0.29437550900E+03  0.10000000000E+01 0.  0.
<mgrwt>
<rscale>  0 0.12499854E+03</rscale>
<asrwt>0</asrwt>
<pdfrwt beam="1">  1        4 0.14930918E-02 0.12499854E+03</pdfrwt>
<pdfrwt beam="2">  1       -4 0.61920816E-01 0.12499854E+03</pdfrwt>
<totfact> 0.63386222E+03</totfact>
</mgrwt>
</event>
<event>
 5    1  0.3196850E-002  0.1250047E+03  0.7818608E-02  0.1235062E+00
         -4   -1    0    0    0  501 -0.00000000000E+00  0.00000000000E+00  0.96041327654E+01  0.96877379287E+01  0.12700000000E+01 0. -1.
          4   -1    0    0  501    0  0.00000000000E+00 -0.00000000000E+00 -0.40490925146E+03  0.40491124313E+03  0.12700000000E+01 0. -1.
         25    2    1    2    0    0  0.00000000000E+00  0.00000000000E+00 -0.39530511869E+03  0.41459898106E+03  0.12500471285E+03 0.  0.
    9000005    1    3    3    0    0 -0.16056089419E+02  0.48019873785E+02 -0.76159370533E+02  0.91460133423E+02  0.10000000000E+01 0.  0.
    9000005    1    3    3    0    0  0.16056089419E+02 -0.48019873785E+02 -0.31914574816E+03  0.32313884764E+03  0.10000000000E+01 0.  0.
<mgrwt>
<rscale>  0 0.12500471E+03</rscale>
<asrwt>0</asrwt>
<pdfrwt beam="2">  1        4 0.62300302E-01 0.12500471E+03</pdfrwt>
<pdfrwt beam="1">  1       -4 0.14841436E-02 0.12500471E+03</pdfrwt>
<totfact> 0.63150691E+03</totfact>
</mgrwt>
</event>
<event>
 5    1  0.3196850E-002  0.1250015E+03  0.7818608E-02  0.1235067E+00
         -4   -1    0    0    0  501 -0.00000000000E+00  0.00000000000E+00  0.71362603295E+02  0.71373903137E+02  0.12700000000E+01 0.  1.
          4   -1    0    0  501    0  0.00000000000E+00 -0.00000000000E+00 -0.54716389652E+02  0.54731126396E+02  0.12700000000E+01 0.  1.
         25    2    1    2    0    0  0.00000000000E+00  0.00000000000E+00  0.16646213642E+02  0.12610502953E+03  0.12500152817E+03 0.  0.
    9000005    1    3    3    0    0 -0.57972387723E+02 -0.22861347470E+02  0.13044870272E+02  0.63675800637E+02  0.10000000000E+01 0.  0.
    9000005    1    3    3    0    0  0.57972387723E+02  0.22861347470E+02  0.36013433706E+01  0.62429228896E+02  0.10000000000E+01 0.  0.
<mgrwt>
<rscale>  0 0.12500153E+03</rscale>
<asrwt>0</asrwt>
<pdfrwt beam="2">  1        4 0.84199089E-02 0.12500153E+03</pdfrwt>
<pdfrwt beam="1">  1       -4 0.10980865E-01 0.12500153E+03</pdfrwt>
<totfact> 0.10428297E+04</totfact>
</mgrwt>
</event>
<event>
 5    1  0.3196850E-002  0.1249949E+03  0.7818608E-02  0.1235077E+00
          4   -1    0    0  501    0  0.00000000000E+00  0.00000000000E+00  0.11377850503E+03  0.11378559270E+03  0.12700000000E+01 0.  1.
         -4   -1    0    0    0  501 -0.00000000000E+00 -0.00000000000E+00 -0.34309337182E+02  0.34332834399E+02  0.12700000000E+01 0.  1.
         25    2    1    2    0    0  0.00000000000E+00  0.00000000000E+00  0.79469167847E+02  0.14811842710E+03  0.12499487913E+03 0.  0.
    9000005    1    3    3    0    0 -0.28150577062E+01  0.10457687126E+02 -0.33194598164E+02  0.34930919214E+02  0.10000000000E+01 0.  0.
    9000005    1    3    3    0    0  0.28150577062E+01 -0.10457687126E+02  0.11266376601E+03  0.11318750789E+03  0.10000000000E+01 0.  0.
<mgrwt>
<rscale>  0 0.12499488E+03</rscale>
<asrwt>0</asrwt>
<pdfrwt beam="1">  1        4 0.17506738E-01 0.12499488E+03</pdfrwt>
<pdfrwt beam="2">  1       -4 0.52807124E-02 0.12499488E+03</pdfrwt>
<totfact> 0.99691583E+03</totfact>
</mgrwt>
</event>
<event>
 5    1  0.3196850E-002  0.1250011E+03  0.7818608E-02  0.1235068E+00
          4   -1    0    0  501    0  0.00000000000E+00  0.00000000000E+00  0.63298751969E+01  0.64560219956E+01  0.12700000000E+01 0.  1.
         -4   -1    0    0    0  501 -0.00000000000E+00 -0.00000000000E+00 -0.61090862175E+03  0.61090994184E+03  0.12700000000E+01 0.  1.
         25    2    1    2    0    0  0.00000000000E+00  0.00000000000E+00 -0.60457874656E+03  0.61736596383E+03  0.12500109003E+03 0.  0.
    9000005    1    3    3    0    0 -0.11582336122E+02 -0.57874543617E+01 -0.34319753108E+00  0.12990878437E+02  0.10000000000E+01 0.  0.
    9000005    1    3    3    0    0  0.11582336122E+02  0.57874543617E+01 -0.60423554903E+03  0.60437508539E+03  0.10000000000E+01 0.  0.
<mgrwt>
<rscale>  0 0.12500109E+03</rscale>
<asrwt>0</asrwt>
<pdfrwt beam="1">  1        4 0.98363258E-03 0.12500109E+03</pdfrwt>
<pdfrwt beam="2">  1       -4 0.93995701E-01 0.12500109E+03</pdfrwt>
<totfact> 0.47788329E+03</totfact>
</mgrwt>
</event>
<event>
 5    1  0.3196850E-002  0.1249999E+03  0.7818608E-02  0.1235069E+00
          4   -1    0    0  501    0  0.00000000000E+00  0.00000000000E+00  0.34925885331E+03  0.34926116234E+03  0.12700000000E+01 0. -1.
         -4   -1    0    0    0  501 -0.00000000000E+00 -0.00000000000E+00 -0.11145967495E+02  0.11218087689E+02  0.12700000000E+01 0. -1.
         25    2    1    2    0    0  0.00000000000E+00  0.00000000000E+00  0.33811288582E+03  0.36047925003E+03  0.12499986457E+03 0.  0.
    9000005    1    3    3    0    0 -0.40312382635E+02 -0.60037192444E+01  0.30566964559E+03  0.30837649890E+03  0.10000000000E+01 0.  0.
    9000005    1    3    3    0    0  0.40312382635E+02  0.60037192444E+01  0.32443240228E+02  0.52102751127E+02  0.10000000000E+01 0.  0.
<mgrwt>
<rscale>  0 0.12499986E+03</rscale>
<asrwt>0</asrwt>
<pdfrwt beam="1">  1        4 0.53737853E-01 0.12499986E+03</pdfrwt>
<pdfrwt beam="2">  1       -4 0.17204897E-02 0.12499986E+03</pdfrwt>
<totfact> 0.68587095E+03</totfact>
</mgrwt>
</event>
<event>
 5    1  0.3196850E-002  0.1250019E+03  0.7818608E-02  0.1235066E+00
          4   -1    0    0  501    0  0.00000000000E+00  0.00000000000E+00  0.55081882500E+02  0.55096521485E+02  0.12700000000E+01 0.  1.
         -4   -1    0    0    0  501 -0.00000000000E+00 -0.00000000000E+00 -0.70889572834E+02  0.70900948065E+02  0.12700000000E+01 0.  1.
         25    2    1    2    0    0  0.00000000000E+00  0.00000000000E+00 -0.15807690334E+02  0.12599746955E+03  0.12500191702E+03 0.  0.
    9000005    1    3    3    0    0  0.25364617856E+02 -0.43186302858E+02  0.29769610606E+02  0.58272208720E+02  0.10000000000E+01 0.  0.
    9000005    1    3    3    0    0 -0.25364617856E+02  0.43186302858E+02 -0.45577300940E+02  0.67725260830E+02  0.10000000000E+01 0.  0.
<mgrwt>
<rscale>  0 0.12500192E+03</rscale>
<asrwt>0</asrwt>
<pdfrwt beam="1">  1        4 0.84761369E-02 0.12500192E+03</pdfrwt>
<pdfrwt beam="2">  1       -4 0.10908089E-01 0.12500192E+03</pdfrwt>
<totfact> 0.10430561E+04</totfact>
</mgrwt>
</event>
<event>
 5    1  0.3196850E-002  0.1249981E+03  0.7818608E-02  0.1235072E+00
          4   -1    0    0  501    0  0.00000000000E+00  0.00000000000E+00  0.79374333354E+02  0.79384492790E+02  0.12700000000E+01 0.  1.
         -4   -1    0    0    0  501 -0.00000000000E+00 -0.00000000000E+00 -0.49189973088E+02  0.49206364958E+02  0.12700000000E+01 0.  1.
         25    2    1    2    0    0  0.00000000000E+00  0.00000000000E+00  0.30184360267E+02  0.12859085775E+03  0.12499805235E+03 0.  0.
    9000005    1    3    3    0    0  0.59189350118E+02 -0.10808392470E+00  0.35711673584E+02  0.69135479167E+02  0.10000000000E+01 0.  0.
    9000005    1    3    3    0    0 -0.59189350118E+02  0.10808392470E+00 -0.55273133169E+01  0.59455378580E+02  0.10000000000E+01 0.  0.
<mgrwt>
<rscale>  0 0.12499805E+03</rscale>
<asrwt>0</asrwt>
<pdfrwt beam="1">  1        4 0.12213478E-01 0.12499805E+03</pdfrwt>
<pdfrwt beam="2">  1       -4 0.75697307E-02 0.12499805E+03</pdfrwt>
<totfact> 0.10375203E+04</totfact>
</mgrwt>
</event>
<event>
 5    1  0.3196850E-002  0.1250072E+03  0.7818608E-02  0.1235058E+00
         -4   -1    0    0    0  501 -0.00000000000E+00  0.00000000000E+00  0.35423135858E+02  0.35445894741E+02  0.12700000000E+01 0.  1.
          4   -1    0    0  501    0  0.00000000000E+00 -0.00000000000E+00 -0.11022489615E+03  0.11023221231E+03  0.12700000000E+01 0.  1.
         25    2    1    2    0    0  0.00000000000E+00  0.00000000000E+00 -0.74801760288E+02  0.14567810705E+03  0.12500722992E+03 0.  0.
    9000005    1    3    3    0    0 -0.39275622557E+02 -0.85013431656E-01 -0.94051159743E+02  0.10192743695E+03  0.10000000000E+01 0.  0.
    9000005    1    3    3    0    0  0.39275622557E+02  0.85013431656E-01  0.19249399455E+02  0.43750670097E+02  0.10000000000E+01 0.  0.
<mgrwt>
<rscale>  0 0.12500723E+03</rscale>
<asrwt>0</asrwt>
<pdfrwt beam="2">  1        4 0.16959990E-01 0.12500723E+03</pdfrwt>
<pdfrwt beam="1">  1       -4 0.54520267E-02 0.12500723E+03</pdfrwt>
<totfact> 0.10015598E+04</totfact>
</mgrwt>
</event>
<event>
 5    1  0.3196850E-002  0.1249976E+03  0.7818608E-02  0.1235073E+00
         -4   -1    0    0    0  501 -0.00000000000E+00  0.00000000000E+00  0.34248193204E+01  0.36527095939E+01  0.12700000000E+01 0. -1.
          4   -1    0    0  501    0  0.00000000000E+00 -0.00000000000E+00 -0.11035749545E+04  0.11035756852E+04  0.12700000000E+01 0. -1.
         25    2    1    2    0    0  0.00000000000E+00  0.00000000000E+00 -0.11001501352E+04  0.11072283948E+04  0.12499759373E+03 0.  0.
    9000005    1    3    3    0    0  0.62472411860E+02  0.11995666591E+01 -0.54186811677E+03  0.54545971178E+03  0.10000000000E+01 0.  0.
    9000005    1    3    3    0    0 -0.62472411860E+02 -0.11995666591E+01 -0.55828201838E+03  0.56176868304E+03  0.10000000000E+01 0.  0.
<mgrwt>
<rscale>  0 0.12499759E+03</rscale>
<asrwt>0</asrwt>
<pdfrwt beam="2">  1        4 0.16979807E+00 0.12499759E+03</pdfrwt>
<pdfrwt beam="1">  1       -4 0.54448239E-03 0.12499759E+03</pdfrwt>
<totfact> 0.27274279E+03</totfact>
</mgrwt>
</event>
<event>
 5    1  0.3196850E-002  0.1249912E+03  0.7818608E-02  0.1235083E+00
         -4   -1    0    0    0  501 -0.00000000000E+00  0.00000000000E+00  0.73882753187E+03  0.73882862339E+03  0.12700000000E+01 0.  1.
          4   -1    0    0  501    0  0.00000000000E+00 -0.00000000000E+00 -0.52089569049E+01  0.53615419458E+01  0.12700000000E+01 0.  1.
         25    2    1    2    0    0  0.00000000000E+00  0.00000000000E+00  0.73361857496E+03  0.74419016534E+03  0.12499115432E+03 0.  0.
    9000005    1    3    3    0    0  0.17319485340E+02 -0.39886753972E+02  0.99625193679E+02  0.10870647143E+03  0.10000000000E+01 0.  0.
    9000005    1    3    3    0    0 -0.17319485340E+02  0.39886753972E+02  0.63399338128E+03  0.63548369391E+03  0.10000000000E+01 0.  0.
<mgrwt>
<rscale>  0 0.12499115E+03</rscale>
<asrwt>0</asrwt>
<pdfrwt beam="2">  1        4 0.81319892E-03 0.12499115E+03</pdfrwt>
<pdfrwt beam="1">  1       -4 0.11367764E+00 0.12499115E+03</pdfrwt>
<totfact> 0.40861460E+03</totfact>
</mgrwt>
</event>
<event>
 5    1  0.3196850E-002  0.1250023E+03  0.7818608E-02  0.1235066E+00
          4   -1    0    0  501    0  0.00000000000E+00  0.00000000000E+00  0.30814870724E+02  0.30841030426E+02  0.12700000000E+01 0.  1.
         -4   -1    0    0    0  501 -0.00000000000E+00 -0.00000000000E+00 -0.12668657237E+03  0.12669293792E+03  0.12700000000E+01 0.  1.
         25    2    1    2    0    0  0.00000000000E+00  0.00000000000E+00 -0.95871701645E+02  0.15753396835E+03  0.12500227200E+03 0.  0.
    9000005    1    3    3    0    0 -0.36021826722E+02 -0.47433441961E+02 -0.24094534508E+02  0.64257684442E+02  0.10000000000E+01 0.  0.
    9000005    1    3    3    0    0  0.36021826722E+02  0.47433441961E+02 -0.71777167136E+02  0.93276283903E+02  0.10000000000E+01 0.  0.
<mgrwt>
<rscale>  0 0.12500227E+03</rscale>
<asrwt>0</asrwt>
<pdfrwt beam="1">  1        4 0.47432513E-02 0.12500227E+03</pdfrwt>
<pdfrwt beam="2">  1       -4 0.19492744E-01 0.12500227E+03</pdfrwt>
<totfact> 0.97815337E+03</totfact>
</mgrwt>
</event>
<event>
 5    1  0.3196850E-002  0.1250103E+03  0.7818608E-02  0.1235053E+00
         -4   -1    0    0    0  501 -0.00000000000E+00  0.00000000000E+00  0.58791652515E+01  0.60147721532E+01  0.12700000000E+01 0. -1.
          4   -1    0    0  501    0  0.00000000000E+00 -0.00000000000E+00 -0.65681878384E+03  0.65682001165E+03  0.12700000000E+01 0. -1.
         25    2    1    2    0    0  0.00000000000E+00  0.00000000000E+00 -0.65093961858E+03  0.66283478380E+03  0.12501025387E+03 0.  0.
    9000005    1    3    3    0    0  0.35046756004E+02 -0.23105519710E+02 -0.79972465222E+02  0.90325718049E+02  0.10000000000E+01 0.  0.
    9000005    1    3    3    0    0 -0.35046756004E+02  0.23105519710E+02 -0.57096715336E+03  0.57250906575E+03  0.10000000000E+01 0.  0.
<mgrwt>
<rscale>  0 0.12501025E+03</rscale>
<asrwt>0</asrwt>
<pdfrwt beam="2">  1        4 0.10105951E+00 0.12501025E+03</pdfrwt>
<pdfrwt beam="1">  1       -4 0.91501323E-03 0.12501025E+03</pdfrwt>
<totfact> 0.45112333E+03</totfact>
</mgrwt>
</event>
<event>
 5    1  0.3196850E-002  0.1250387E+03  0.7818608E-02  0.1235009E+00
         -4   -1    0    0    0  501 -0.00000000000E+00  0.00000000000E+00  0.45950113126E+02  0.45967660330E+02  0.12700000000E+01 0. -1.
          4   -1    0    0  501    0  0.00000000000E+00 -0.00000000000E+00 -0.85024741657E+02  0.85034226014E+02  0.12700000000E+01 0. -1.
         25    2    1    2    0    0  0.00000000000E+00  0.00000000000E+00 -0.39074628531E+02  0.13100188634E+03  0.12503866454E+03 0.  0.
    9000005    1    3    3    0    0  0.25578199895E+01  0.51905341038E+02 -0.55935494221E+02  0.76357621657E+02  0.10000000000E+01 0.  0.
    9000005    1    3    3    0    0 -0.25578199895E+01 -0.51905341038E+02  0.16860865690E+02  0.54644264687E+02  0.10000000000E+01 0.  0.
<mgrwt>
<rscale>  0 0.12503866E+03</rscale>
<asrwt>0</asrwt>
<pdfrwt beam="2">  1        4 0.13082809E-01 0.12503866E+03</pdfrwt>
<pdfrwt beam="1">  1       -4 0.70713275E-02 0.12503866E+03</pdfrwt>
<totfact> 0.10314049E+04</totfact>
</mgrwt>
</event>
<event>
 5    1  0.3196850E-002  0.1249992E+03  0.7818608E-02  0.1235071E+00
         -4   -1    0    0    0  501 -0.00000000000E+00  0.00000000000E+00  0.94848003643E+03  0.94848088668E+03  0.12700000000E+01 0. -1.
          4   -1    0    0  501    0  0.00000000000E+00 -0.00000000000E+00 -0.40195979570E+01  0.42154558159E+01  0.12700000000E+01 0. -1.
         25    2    1    2    0    0  0.00000000000E+00  0.00000000000E+00  0.94446043847E+03  0.95269634250E+03  0.12499920469E+03 0.  0.
    9000005    1    3    3    0    0  0.39426065844E+02 -0.16568492827E+02  0.12494265464E+03  0.13206285083E+03  0.10000000000E+01 0.  0.
    9000005    1    3    3    0    0 -0.39426065844E+02  0.16568492827E+02  0.81951778384E+03  0.82063349167E+03  0.10000000000E+01 0.  0.
<mgrwt>
<rscale>  0 0.12499920E+03</rscale>
<asrwt>0</asrwt>
<pdfrwt beam="2">  1        4 0.63353080E-03 0.12499920E+03</pdfrwt>
<pdfrwt beam="1">  1       -4 0.14593520E+00 0.12499920E+03</pdfrwt>
<totfact> 0.32220975E+03</totfact>
</mgrwt>
</event>
<event>
 5    1  0.3196850E-002  0.1250000E+03  0.7818608E-02  0.1235069E+00
          4   -1    0    0  501    0  0.00000000000E+00  0.00000000000E+00  0.37389862424E+02  0.37411424887E+02  0.12700000000E+01 0.  1.
         -4   -1    0    0    0  501 -0.00000000000E+00 -0.00000000000E+00 -0.10441788227E+03  0.10442560528E+03  0.12700000000E+01 0.  1.
         25    2    1    2    0    0  0.00000000000E+00  0.00000000000E+00 -0.67028019848E+02  0.14183703017E+03  0.12499995073E+03 0.  0.
    9000005    1    3    3    0    0  0.45224198050E+02  0.35579455658E+02 -0.61171788789E+02  0.83988770069E+02  0.10000000000E+01 0.  0.
    9000005    1    3    3    0    0 -0.45224198050E+02 -0.35579455658E+02 -0.58562310590E+01  0.57848260098E+02  0.10000000000E+01 0.  0.
<mgrwt>
<rscale>  0 0.12499995E+03</rscale>
<asrwt>0</asrwt>
<pdfrwt beam="1">  1        4 0.57545393E-02 0.12499995E+03</pdfrwt>
<pdfrwt beam="2">  1       -4 0.16066542E-01 0.12499995E+03</pdfrwt>
<totfact> 0.10095665E+04</totfact>
</mgrwt>
</event>
<event>
 5    1  0.3196850E-002  0.1250004E+03  0.7818608E-02  0.1235069E+00
          4   -1    0    0  501    0  0.00000000000E+00  0.00000000000E+00  0.25508901225E+02  0.25540496113E+02  0.12700000000E+01 0. -1.
         -4   -1    0    0    0  501 -0.00000000000E+00 -0.00000000000E+00 -0.15300477165E+03  0.15301004231E+03  0.12700000000E+01 0. -1.
         25    2    1    2    0    0  0.00000000000E+00  0.00000000000E+00 -0.12749587043E+03  0.17855053843E+03  0.12500039118E+03 0.  0.
    9000005    1    3    3    0    0  0.35620634898E+02  0.46669280709E+02 -0.94331141797E+02  0.11111352620E+03  0.10000000000E+01 0.  0.
    9000005    1    3    3    0    0 -0.35620634898E+02 -0.46669280709E+02 -0.33164728630E+02  0.67437012223E+02  0.10000000000E+01 0.  0.
<mgrwt>
<rscale>  0 0.12500039E+03</rscale>
<asrwt>0</asrwt>
<pdfrwt beam="1">  1        4 0.39272822E-02 0.12500039E+03</pdfrwt>
<pdfrwt beam="2">  1       -4 0.23542031E-01 0.12500039E+03</pdfrwt>
<totfact> 0.93877740E+03</totfact>
</mgrwt>
</event>
<event>
 5    1  0.3196850E-002  0.1249888E+03  0.7818608E-02  0.1235087E+00
         -4   -1    0    0    0  501 -0.00000000000E+00  0.00000000000E+00  0.34131228632E+03  0.34131464911E+03  0.12700000000E+01 0. -1.
          4   -1    0    0  501    0  0.00000000000E+00 -0.00000000000E+00 -0.11405093287E+02  0.11475585078E+02  0.12700000000E+01 0. -1.
         25    2    1    2    0    0  0.00000000000E+00  0.00000000000E+00  0.32990719304E+03  0.35279023419E+03  0.12498877277E+03 0.  0.
    9000005    1    3    3    0    0 -0.54558956309E+02 -0.28044664717E+02  0.19851322233E+03  0.20777796412E+03  0.10000000000E+01 0.  0.
    9000005    1    3    3    0    0  0.54558956309E+02  0.28044664717E+02  0.13139397071E+03  0.14501227007E+03  0.10000000000E+01 0.  0.
<mgrwt>
<rscale>  0 0.12498877E+03</rscale>
<asrwt>0</asrwt>
<pdfrwt beam="2">  1        4 0.17602338E-02 0.12498877E+03</pdfrwt>
<pdfrwt beam="1">  1       -4 0.52515192E-01 0.12498877E+03</pdfrwt>
<totfact> 0.69435926E+03</totfact>
</mgrwt>
</event>
<event>
 5    1  0.3196850E-002  0.1249994E+03  0.7818608E-02  0.1235070E+00
         -4   -1    0    0    0  501 -0.00000000000E+00  0.00000000000E+00  0.76584192564E+02  0.76594722081E+02  0.12700000000E+01 0. -1.
          4   -1    0    0  501    0  0.00000000000E+00 -0.00000000000E+00 -0.50983503247E+02  0.50999318656E+02  0.12700000000E+01 0. -1.
         25    2    1    2    0    0  0.00000000000E+00  0.00000000000E+00  0.25600689317E+02  0.12759404074E+03  0.12499937575E+03 0.  0.
    9000005    1    3    3    0    0 -0.43216828596E+02 -0.27049819490E+02 -0.24085935991E+02  0.56396093135E+02  0.10000000000E+01 0.  0.
    9000005    1    3    3    0    0  0.43216828596E+02  0.27049819490E+02  0.49686625308E+02  0.71197947602E+02  0.10000000000E+01 0.  0.
<mgrwt>
<rscale>  0 0.12499938E+03</rscale>
<asrwt>0</asrwt>
<pdfrwt beam="2">  1        4 0.78456424E-02 0.12499938E+03</pdfrwt>
<pdfrwt beam="1">  1       -4 0.11784210E-01 0.12499938E+03</pdfrwt>
<totfact> 0.10396411E+04</totfact>
</mgrwt>
</event>
<event>
 5    1  0.3196850E-002  0.1250008E+03  0.7818608E-02  0.1235068E+00
         -4   -1    0    0    0  501 -0.00000000000E+00  0.00000000000E+00  0.44707736750E+02  0.44725771377E+02  0.12700000000E+01 0. -1.
          4   -1    0    0  501    0  0.00000000000E+00 -0.00000000000E+00 -0.87333824283E+02  0.87343057903E+02  0.12700000000E+01 0. -1.
         25    2    1    2    0    0  0.00000000000E+00  0.00000000000E+00 -0.42626087533E+02  0.13206882928E+03  0.12500076931E+03 0.  0.
    9000005    1    3    3    0    0 -0.52837630765E+02 -0.32420916371E+02 -0.12969218414E+02  0.63341389860E+02  0.10000000000E+01 0.  0.
    9000005    1    3    3    0    0  0.52837630765E+02  0.32420916371E+02 -0.29656869119E+02  0.68727439420E+02  0.10000000000E+01 0.  0.
<mgrwt>
<rscale>  0 0.12500077E+03</rscale>
<asrwt>0</asrwt>
<pdfrwt beam="2">  1        4 0.13438070E-01 0.12500077E+03</pdfrwt>
<pdfrwt beam="1">  1       -4 0.68802109E-02 0.12500077E+03</pdfrwt>
<totfact> 0.10300051E+04</totfact>
</mgrwt>
</event>
<event>
 5    1  0.3196850E-002  0.1249985E+03  0.7818608E-02  0.1235072E+00
         -4   -1    0    0    0  501 -0.00000000000E+00  0.00000000000E+00  0.44431004244E+03  0.44431185750E+03  0.12700000000E+01 0.  1.
          4   -1    0    0  501    0  0.00000000000E+00 -0.00000000000E+00 -0.87437977694E+01  0.88355474891E+01  0.12700000000E+01 0.  1.
         25    2    1    2    0    0  0.00000000000E+00  0.00000000000E+00  0.43556624467E+03  0.45314740499E+03  0.12499846859E+03 0.  0.
    9000005    1    3    3    0    0  0.54946420422E+02 -0.75657818431E+01  0.32214953463E+03  0.32689091886E+03  0.10000000000E+01 0.  0.
    9000005    1    3    3    0    0 -0.54946420422E+02  0.75657818431E+01  0.11341671004E+03  0.12625648612E+03  0.10000000000E+01 0.  0.
<mgrwt>
<rscale>  0 0.12499847E+03</rscale>
<asrwt>0</asrwt>
<pdfrwt beam="2">  1        4 0.13523972E-02 0.12499847E+03</pdfrwt>
<pdfrwt beam="1">  1       -4 0.68362577E-01 0.12499847E+03</pdfrwt>
<totfact> 0.59694120E+03</totfact>
</mgrwt>
</event>
<event>
 5    1  0.3196850E-002  0.1249974E+03  0.7818608E-02  0.1235073E+00
         -4   -1    0    0    0  501 -0.00000000000E+00  0.00000000000E+00  0.31805526186E+02  0.31830871744E+02  0.12700000000E+01 0.  1.
          4   -1    0    0  501    0  0.00000000000E+00 -0.00000000000E+00 -0.12273413828E+03  0.12274070881E+03  0.12700000000E+01 0.  1.
         25    2    1    2    0    0  0.00000000000E+00  0.00000000000E+00 -0.90928612090E+02  0.15457158055E+03  0.12499744404E+03 0.  0.
    9000005    1    3    3    0    0 -0.24149924787E+02 -0.22952952298E+02 -0.11084085831E+03  0.11574434223E+03  0.10000000000E+01 0.  0.
    9000005    1    3    3    0    0  0.24149924787E+02  0.22952952298E+02  0.19912246219E+02  0.38827238325E+02  0.10000000000E+01 0.  0.
<mgrwt>
<rscale>  0 0.12499744E+03</rscale>
<asrwt>0</asrwt>
<pdfrwt beam="2">  1        4 0.18884630E-01 0.12499744E+03</pdfrwt>
<pdfrwt beam="1">  1       -4 0.48956130E-02 0.12499744E+03</pdfrwt>
<totfact> 0.98405325E+03</totfact>
</mgrwt>
</event>
<event>
 5    1  0.3196850E-002  0.1249987E+03  0.7818608E-02  0.1235071E+00
         -4   -1    0    0    0  501 -0.00000000000E+00  0.00000000000E+00  0.12806013407E+03  0.12806643134E+03  0.12700000000E+01 0.  1.
          4   -1    0    0  501    0  0.00000000000E+00 -0.00000000000E+00 -0.30482327382E+02  0.30508772224E+02  0.12700000000E+01 0.  1.
         25    2    1    2    0    0  0.00000000000E+00  0.00000000000E+00  0.97577806685E+02  0.15857520357E+03  0.12499866731E+03 0.  0.
    9000005    1    3    3    0    0 -0.10281979316E+02 -0.22648584813E+02  0.12151595815E+03  0.12403953232E+03  0.10000000000E+01 0.  0.
    9000005    1    3    3    0    0  0.10281979316E+02  0.22648584813E+02 -0.23938151469E+02  0.34535671246E+02  0.10000000000E+01 0.  0.
<mgrwt>
<rscale>  0 0.12499867E+03</rscale>
<asrwt>0</asrwt>
<pdfrwt beam="2">  1        4 0.46921074E-02 0.12499867E+03</pdfrwt>
<pdfrwt beam="1">  1       -4 0.19704078E-01 0.12499867E+03</pdfrwt>
<totfact> 0.97621104E+03</totfact>
</mgrwt>
</event>
<event>
 5    1  0.3196850E-002  0.1249978E+03  0.7818608E-02  0.1235073E+00
          4   -1    0    0  501    0  0.00000000000E+00  0.00000000000E+00  0.31429895321E+03  0.31430151907E+03  0.12700000000E+01 0. -1.
         -4   -1    0    0    0  501 -0.00000000000E+00 -0.00000000000E+00 -0.12392938532E+02  0.12457841927E+02  0.12700000000E+01 0. -1.
         25    2    1    2    0    0  0.00000000000E+00  0.00000000000E+00  0.30190601468E+03  0.32675936100E+03  0.12499775318E+03 0.  0.
    9000005    1    3    3    0    0  0.33061824312E+02 -0.16321443652E+02  0.28284668210E+03  0.28524151052E+03  0.10000000000E+01 0.  0.
    9000005    1    3    3    0    0 -0.33061824312E+02  0.16321443652E+02  0.19059332579E+02  0.41517850475E+02  0.10000000000E+01 0.  0.
<mgrwt>
<rscale>  0 0.12499775E+03</rscale>
<asrwt>0</asrwt>
<pdfrwt beam="1">  1        4 0.48358876E-01 0.12499775E+03</pdfrwt>
<pdfrwt beam="2">  1       -4 0.19117958E-02 0.12499775E+03</pdfrwt>
<totfact> 0.72362936E+03</totfact>
</mgrwt>
</event>
<event>
 5    1  0.3196850E-002  0.1250015E+03  0.7818608E-02  0.1235067E+00
          4   -1    0    0  501    0  0.00000000000E+00  0.00000000000E+00  0.13189753523E+03  0.13190364930E+03  0.12700000000E+01 0.  1.
         -4   -1    0    0    0  501 -0.00000000000E+00 -0.00000000000E+00 -0.29596076684E+02  0.29623312696E+02  0.12700000000E+01 0.  1.
         25    2    1    2    0    0  0.00000000000E+00  0.00000000000E+00  0.10230145854E+03  0.16152696200E+03  0.12500148412E+03 0.  0.
    9000005    1    3    3    0    0 -0.47073966915E+01 -0.68319049322E+01 -0.28887583272E+02  0.30072029793E+02  0.10000000000E+01 0.  0.
    9000005    1    3    3    0    0  0.47073966915E+01  0.68319049322E+01  0.13118904181E+03  0.13145493220E+03  0.10000000000E+01 0.  0.
<mgrwt>
<rscale>  0 0.12500148E+03</rscale>
<asrwt>0</asrwt>
<pdfrwt beam="1">  1        4 0.20294494E-01 0.12500148E+03</pdfrwt>
<pdfrwt beam="2">  1       -4 0.45558080E-02 0.12500148E+03</pdfrwt>
<totfact> 0.97045967E+03</totfact>
</mgrwt>
</event>
<event>
 5    1  0.3196850E-002  0.1250015E+03  0.7818608E-02  0.1235067E+00
         -4   -1    0    0    0  501 -0.00000000000E+00  0.00000000000E+00  0.35132017087E+02  0.35154964437E+02  0.12700000000E+01 0. -1.
          4   -1    0    0  501    0  0.00000000000E+00 -0.00000000000E+00 -0.11112745603E+03  0.11113471278E+03  0.12700000000E+01 0. -1.
         25    2    1    2    0    0  0.00000000000E+00  0.00000000000E+00 -0.75995438945E+02  0.14628967721E+03  0.12500145167E+03 0.  0.
    9000005    1    3    3    0    0  0.14591608770E+02  0.17232714242E+02  0.30196550722E+02  0.37718870107E+02  0.10000000000E+01 0.  0.
    9000005    1    3    3    0    0 -0.14591608770E+02 -0.17232714242E+02 -0.10619198967E+03  0.10857080711E+03  0.10000000000E+01 0.  0.
<mgrwt>
<rscale>  0 0.12500145E+03</rscale>
<asrwt>0</asrwt>
<pdfrwt beam="2">  1        4 0.17098855E-01 0.12500145E+03</pdfrwt>
<pdfrwt beam="1">  1       -4 0.54072491E-02 0.12500145E+03</pdfrwt>
<totfact> 0.10004524E+04</totfact>
</mgrwt>
</event>
<event>
 5    1  0.3196850E-002  0.1249851E+03  0.7818608E-02  0.1235092E+00
         -4   -1    0    0    0  501 -0.00000000000E+00  0.00000000000E+00  0.50637585441E+03  0.50637744700E+03  0.12700000000E+01 0. -1.
          4   -1    0    0  501    0  0.00000000000E+00 -0.00000000000E+00 -0.76583994434E+01  0.77629879580E+01  0.12700000000E+01 0. -1.
         25    2    1    2    0    0  0.00000000000E+00  0.00000000000E+00  0.49871745497E+03  0.51414043496E+03  0.12498514700E+03 0.  0.
    9000005    1    3    3    0    0 -0.54881224110E+02 -0.28118218674E+02  0.29085093850E+03  0.29731776167E+03  0.10000000000E+01 0.  0.
    9000005    1    3    3    0    0  0.54881224110E+02  0.28118218674E+02  0.20786651647E+03  0.21682267329E+03  0.10000000000E+01 0.  0.
<mgrwt>
<rscale>  0 0.12498515E+03</rscale>
<asrwt>0</asrwt>
<pdfrwt beam="2">  1        4 0.11863827E-02 0.12498515E+03</pdfrwt>
<pdfrwt beam="1">  1       -4 0.77912171E-01 0.12498515E+03</pdfrwt>
<totfact> 0.54801569E+03</totfact>
</mgrwt>
</event>
<event>
 5    1  0.3196850E-002  0.1249976E+03  0.7818608E-02  0.1235073E+00
          4   -1    0    0  501    0  0.00000000000E+00  0.00000000000E+00  0.73331700588E+02  0.73342697054E+02  0.12700000000E+01 0. -1.
         -4   -1    0    0    0  501 -0.00000000000E+00 -0.00000000000E+00 -0.53243665560E+02  0.53258809809E+02  0.12700000000E+01 0. -1.
         25    2    1    2    0    0  0.00000000000E+00  0.00000000000E+00  0.20088035028E+02  0.12660150686E+03  0.12499764953E+03 0.  0.
    9000005    1    3    3    0    0 -0.24975890512E+02  0.20580759201E+02  0.64187777403E+02  0.71891818200E+02  0.10000000000E+01 0.  0.
    9000005    1    3    3    0    0  0.24975890512E+02 -0.20580759201E+02 -0.44099742375E+02  0.54709688664E+02  0.10000000000E+01 0.  0.
<mgrwt>
<rscale>  0 0.12499765E+03</rscale>
<asrwt>0</asrwt>
<pdfrwt beam="1">  1        4 0.11283811E-01 0.12499765E+03</pdfrwt>
<pdfrwt beam="2">  1       -4 0.81933439E-02 0.12499765E+03</pdfrwt>
<totfact> 0.10418368E+04</totfact>
</mgrwt>
</event>
<event>
 5    1  0.3196850E-002  0.1250014E+03  0.7818608E-02  0.1235067E+00
          4   -1    0    0  501    0  0.00000000000E+00  0.00000000000E+00  0.27159437535E+02  0.27189114498E+02  0.12700000000E+01 0.  1.
         -4   -1    0    0    0  501 -0.00000000000E+00 -0.00000000000E+00 -0.14371887866E+03  0.14372448985E+03  0.12700000000E+01 0.  1.
         25    2    1    2    0    0  0.00000000000E+00  0.00000000000E+00 -0.11655944113E+03  0.17091360435E+03  0.12500142734E+03 0.  0.
    9000005    1    3    3    0    0  0.55867596493E+02  0.14856167718E+02 -0.90735159285E+02  0.10759072073E+03  0.10000000000E+01 0.  0.
    9000005    1    3    3    0    0 -0.55867596493E+02 -0.14856167718E+02 -0.25824281841E+02  0.63322883619E+02  0.10000000000E+01 0.  0.
<mgrwt>
<rscale>  0 0.12500143E+03</rscale>
<asrwt>0</asrwt>
<pdfrwt beam="1">  1        4 0.41810896E-02 0.12500143E+03</pdfrwt>
<pdfrwt beam="2">  1       -4 0.22113311E-01 0.12500143E+03</pdfrwt>
<totfact> 0.95275575E+03</totfact>
</mgrwt>
</event>
<event>
 5    1  0.3196850E-002  0.1250183E+03  0.7818608E-02  0.1235041E+00
         -4   -1    0    0    0  501 -0.00000000000E+00  0.00000000000E+00  0.48328116900E+03  0.48328283770E+03  0.12700000000E+01 0.  1.
          4   -1    0    0  501    0  0.00000000000E+00 -0.00000000000E+00 -0.80335670359E+01  0.81333326085E+01  0.12700000000E+01 0.  1.
         25    2    1    2    0    0  0.00000000000E+00  0.00000000000E+00  0.47524760197E+03  0.49141617031E+03  0.12501827572E+03 0.  0.
    9000005    1    3    3    0    0  0.12825493969E+02 -0.57183117792E+02  0.32302075190E+03  0.32829530672E+03  0.10000000000E+01 0.  0.
    9000005    1    3    3    0    0 -0.12825493969E+02  0.57183117792E+02  0.15222685007E+03  0.16312086359E+03  0.10000000000E+01 0.  0.
<mgrwt>
<rscale>  0 0.12501828E+03</rscale>
<asrwt>0</asrwt>
<pdfrwt beam="2">  1        4 0.12437359E-02 0.12501828E+03</pdfrwt>
<pdfrwt beam="1">  1       -4 0.74358757E-01 0.12501828E+03</pdfrwt>
<totfact> 0.56513847E+03</totfact>
</mgrwt>
</event>
<event>
 5    1  0.3196850E-002  0.1249956E+03  0.7818608E-02  0.1235076E+00
          4   -1    0    0  501    0  0.00000000000E+00  0.00000000000E+00  0.58954263735E+02  0.58967941396E+02  0.12700000000E+01 0.  1.
         -4   -1    0    0    0  501 -0.00000000000E+00 -0.00000000000E+00 -0.66226923397E+02  0.66239099349E+02  0.12700000000E+01 0.  1.
         25    2    1    2    0    0  0.00000000000E+00  0.00000000000E+00 -0.72726596619E+01  0.12520704075E+03  0.12499564582E+03 0.  0.
    9000005    1    3    3    0    0  0.16295157508E+02  0.34314388239E+02  0.46065812619E+02  0.59716567975E+02  0.10000000000E+01 0.  0.
    9000005    1    3    3    0    0 -0.16295157508E+02 -0.34314388239E+02 -0.53338472281E+02  0.65490472770E+02  0.10000000000E+01 0.  0.
<mgrwt>
<rscale>  0 0.12499565E+03</rscale>
<asrwt>0</asrwt>
<pdfrwt beam="1">  1        4 0.90718755E-02 0.12499565E+03</pdfrwt>
<pdfrwt beam="2">  1       -4 0.10190746E-01 0.12499565E+03</pdfrwt>
<totfact> 0.10449396E+04</totfact>
</mgrwt>
</event>
<event>
 5    1  0.3196850E-002  0.1249992E+03  0.7818608E-02  0.1235070E+00
          4   -1    0    0  501    0  0.00000000000E+00  0.00000000000E+00  0.15571264415E+03  0.15571782315E+03  0.12700000000E+01 0. -1.
         -4   -1    0    0    0  501 -0.00000000000E+00 -0.00000000000E+00 -0.25064294936E+02  0.25096449562E+02  0.12700000000E+01 0. -1.
         25    2    1    2    0    0  0.00000000000E+00  0.00000000000E+00  0.13064834921E+03  0.18081427271E+03  0.12499924026E+03 0.  0.
    9000005    1    3    3    0    0 -0.13550663449E+02  0.57729269150E+02  0.93850895691E+02  0.11101927589E+03  0.10000000000E+01 0.  0.
    9000005    1    3    3    0    0  0.13550663449E+02 -0.57729269150E+02  0.36797453518E+02  0.69794996826E+02  0.10000000000E+01 0.  0.
<mgrwt>
<rscale>  0 0.12499924E+03</rscale>
<asrwt>0</asrwt>
<pdfrwt beam="1">  1        4 0.23958662E-01 0.12499924E+03</pdfrwt>
<pdfrwt beam="2">  1       -4 0.38589173E-02 0.12499924E+03</pdfrwt>
<totfact> 0.93472229E+03</totfact>
</mgrwt>
</event>
<event>
 5    1  0.3196850E-002  0.1250044E+03  0.7818608E-02  0.1235062E+00
          4   -1    0    0  501    0  0.00000000000E+00  0.00000000000E+00  0.30087760204E+01  0.32658280942E+01  0.12700000000E+01 0.  1.
         -4   -1    0    0    0  501 -0.00000000000E+00 -0.00000000000E+00 -0.12449293883E+04  0.12449300361E+04  0.12700000000E+01 0.  1.
         25    2    1    2    0    0  0.00000000000E+00  0.00000000000E+00 -0.12419206123E+04  0.12481958642E+04  0.12500443255E+03 0.  0.
    9000005    1    3    3    0    0  0.47143985997E+02  0.39388239195E+02 -0.73548083206E+03  0.73804271092E+03  0.10000000000E+01 0.  0.
    9000005    1    3    3    0    0 -0.47143985997E+02 -0.39388239195E+02 -0.50643978025E+03  0.51015315330E+03  0.10000000000E+01 0.  0.
<mgrwt>
<rscale>  0 0.12500443E+03</rscale>
<asrwt>0</asrwt>
<pdfrwt beam="1">  1        4 0.48271268E-03 0.12500443E+03</pdfrwt>
<pdfrwt beam="2">  1       -4 0.19154703E+00 0.12500443E+03</pdfrwt>
<totfact> 0.23482688E+03</totfact>
</mgrwt>
</event>
<event>
 5    1  0.3196850E-002  0.1249952E+03  0.7818608E-02  0.1235077E+00
         -4   -1    0    0    0  501 -0.00000000000E+00  0.00000000000E+00  0.79353768987E+02  0.79363931054E+02  0.12700000000E+01 0. -1.
          4   -1    0    0  501    0  0.00000000000E+00 -0.00000000000E+00 -0.49200445959E+02  0.49216834341E+02  0.12700000000E+01 0. -1.
         25    2    1    2    0    0  0.00000000000E+00  0.00000000000E+00  0.30153323027E+02  0.12858076540E+03  0.12499516127E+03 0.  0.
    9000005    1    3    3    0    0  0.32431524611E+02  0.45867449406E+01 -0.39667464200E+02  0.51452402605E+02  0.10000000000E+01 0.  0.
    9000005    1    3    3    0    0 -0.32431524611E+02 -0.45867449406E+01  0.69820787227E+02  0.77128362791E+02  0.10000000000E+01 0.  0.
<mgrwt>
<rscale>  0 0.12499516E+03</rscale>
<asrwt>0</asrwt>
<pdfrwt beam="2">  1        4 0.75713417E-02 0.12499516E+03</pdfrwt>
<pdfrwt beam="1">  1       -4 0.12210315E-01 0.12499516E+03</pdfrwt>
<totfact> 0.10376098E+04</totfact>
</mgrwt>
</event>
<event>
 5    1  0.3196850E-002  0.1250031E+03  0.7818608E-02  0.1235064E+00
          4   -1    0    0  501    0  0.00000000000E+00  0.00000000000E+00  0.11871250615E+03  0.11871929926E+03  0.12700000000E+01 0.  1.
         -4   -1    0    0    0  501 -0.00000000000E+00 -0.00000000000E+00 -0.32886782822E+02  0.32911295696E+02  0.12700000000E+01 0.  1.
         25    2    1    2    0    0  0.00000000000E+00  0.00000000000E+00  0.85825723328E+02  0.15163059496E+03  0.12500313013E+03 0.  0.
    9000005    1    3    3    0    0  0.53357952760E+02 -0.21641422994E+02  0.72377461060E+02  0.92492806106E+02  0.10000000000E+01 0.  0.
    9000005    1    3    3    0    0 -0.53357952760E+02  0.21641422994E+02  0.13448262268E+02  0.59137788849E+02  0.10000000000E+01 0.  0.
<mgrwt>
<rscale>  0 0.12500313E+03</rscale>
<asrwt>0</asrwt>
<pdfrwt beam="1">  1        4 0.18265871E-01 0.12500313E+03</pdfrwt>
<pdfrwt beam="2">  1       -4 0.50619131E-02 0.12500313E+03</pdfrwt>
<totfact> 0.98972680E+03</totfact>
</mgrwt>
</event>
<event>
 5    1  0.3196850E-002  0.1250022E+03  0.7818608E-02  0.1235066E+00
         -4   -1    0    0    0  501 -0.00000000000E+00  0.00000000000E+00  0.16718620349E+02  0.16766787598E+02  0.12700000000E+01 0. -1.
          4   -1    0    0  501    0  0.00000000000E+00 -0.00000000000E+00 -0.23326876457E+03  0.23327222172E+03  0.12700000000E+01 0. -1.
         25    2    1    2    0    0  0.00000000000E+00  0.00000000000E+00 -0.21655014422E+03  0.25003900932E+03  0.12500216485E+03 0.  0.
    9000005    1    3    3    0    0 -0.18786973059E+02  0.46182447158E+02 -0.18364112273E+03  0.19029143633E+03  0.10000000000E+01 0.  0.
    9000005    1    3    3    0    0  0.18786973059E+02 -0.46182447158E+02 -0.32909021492E+02  0.59747572986E+02  0.10000000000E+01 0.  0.
<mgrwt>
<rscale>  0 0.12500216E+03</rscale>
<asrwt>0</asrwt>
<pdfrwt beam="2">  1        4 0.35891471E-01 0.12500216E+03</pdfrwt>
<pdfrwt beam="1">  1       -4 0.25760667E-02 0.12500216E+03</pdfrwt>
<totfact> 0.82320621E+03</totfact>
</mgrwt>
</event>
<event>
 5    1  0.3196850E-002  0.1250059E+03  0.7818608E-02  0.1235060E+00
         -4   -1    0    0    0  501 -0.00000000000E+00  0.00000000000E+00  0.19781517332E+02  0.19822243262E+02  0.12700000000E+01 0. -1.
          4   -1    0    0  501    0  0.00000000000E+00 -0.00000000000E+00 -0.19724240461E+03  0.19724649319E+03  0.12700000000E+01 0. -1.
         25    2    1    2    0    0  0.00000000000E+00  0.00000000000E+00 -0.17746088728E+03  0.21706873645E+03  0.12500587919E+03 0.  0.
    9000005    1    3    3    0    0  0.60680779834E+02 -0.14539767978E+02 -0.94759656313E+02  0.11346344944E+03  0.10000000000E+01 0.  0.
    9000005    1    3    3    0    0 -0.60680779834E+02  0.14539767978E+02 -0.82701230964E+02  0.10360528701E+03  0.10000000000E+01 0.  0.
<mgrwt>
<rscale>  0 0.12500588E+03</rscale>
<asrwt>0</asrwt>
<pdfrwt beam="2">  1        4 0.30348431E-01 0.12500588E+03</pdfrwt>
<pdfrwt beam="1">  1       -4 0.30467578E-02 0.12500588E+03</pdfrwt>
<totfact> 0.87322849E+03</totfact>
</mgrwt>
</event>
<event>
 5    1  0.3196850E-002  0.1249949E+03  0.7818608E-02  0.1235077E+00
          4   -1    0    0  501    0  0.00000000000E+00  0.00000000000E+00  0.25921052377E+02  0.25952145505E+02  0.12700000000E+01 0. -1.
         -4   -1    0    0    0  501 -0.00000000000E+00 -0.00000000000E+00 -0.15056146881E+03  0.15056682500E+03  0.12700000000E+01 0. -1.
         25    2    1    2    0    0  0.00000000000E+00  0.00000000000E+00 -0.12464041644E+03  0.17651897051E+03  0.12499485405E+03 0.  0.
    9000005    1    3    3    0    0  0.21888783082E+02 -0.58490528577E+02 -0.59269172352E+02  0.86105142409E+02  0.10000000000E+01 0.  0.
    9000005    1    3    3    0    0 -0.21888783082E+02  0.58490528577E+02 -0.65371244083E+02  0.90413828096E+02  0.10000000000E+01 0.  0.
<mgrwt>
<rscale>  0 0.12499485E+03</rscale>
<asrwt>0</asrwt>
<pdfrwt beam="1">  1        4 0.39906581E-02 0.12499485E+03</pdfrwt>
<pdfrwt beam="2">  1       -4 0.23166106E-01 0.12499485E+03</pdfrwt>
<totfact> 0.94258258E+03</totfact>
</mgrwt>
</event>
<event>
 5    1  0.3196850E-002  0.1249997E+03  0.7818608E-02  0.1235070E+00
          4   -1    0    0  501    0  0.00000000000E+00  0.00000000000E+00  0.66059353803E+01  0.67269073317E+01  0.12700000000E+01 0.  1.
         -4   -1    0    0    0  501 -0.00000000000E+00 -0.00000000000E+00 -0.58583428470E+03  0.58583566128E+03  0.12700000000E+01 0.  1.
         25    2    1    2    0    0  0.00000000000E+00  0.00000000000E+00 -0.57922834932E+03  0.59256256861E+03  0.12499966827E+03 0.  0.
    9000005    1    3    3    0    0 -0.57009941233E+02  0.34272258131E+01 -0.16937416480E+03  0.17874699152E+03  0.10000000000E+01 0.  0.
    9000005    1    3    3    0    0  0.57009941233E+02 -0.34272258131E+01 -0.40985418452E+03  0.41381557709E+03  0.10000000000E+01 0.  0.
<mgrwt>
<rscale>  0 0.12499967E+03</rscale>
<asrwt>0</asrwt>
<pdfrwt beam="1">  1        4 0.10257096E-02 0.12499967E+03</pdfrwt>
<pdfrwt beam="2">  1       -4 0.90137722E-01 0.12499967E+03</pdfrwt>
<totfact> 0.49340849E+03</totfact>
</mgrwt>
</event>
<event>
 5    1  0.3196850E-002  0.1249940E+03  0.7818608E-02  0.1235079E+00
         -4   -1    0    0    0  501 -0.00000000000E+00  0.00000000000E+00  0.23013140385E+03  0.23013490812E+03  0.12700000000E+01 0.  1.
          4   -1    0    0  501    0  0.00000000000E+00 -0.00000000000E+00 -0.16944972927E+02  0.16992498565E+02  0.12700000000E+01 0.  1.
         25    2    1    2    0    0  0.00000000000E+00  0.00000000000E+00  0.21318643092E+03  0.24712740669E+03  0.12499400309E+03 0.  0.
    9000005    1    3    3    0    0  0.45416392013E+01  0.10079568643E+01 -0.16611816264E+02  0.17279898821E+02  0.10000000000E+01 0.  0.
    9000005    1    3    3    0    0 -0.45416392013E+01 -0.10079568643E+01  0.22979824719E+03  0.22984750787E+03  0.10000000000E+01 0.  0.
<mgrwt>
<rscale>  0 0.12499400E+03</rscale>
<asrwt>0</asrwt>
<pdfrwt beam="2">  1        4 0.26108444E-02 0.12499400E+03</pdfrwt>
<pdfrwt beam="1">  1       -4 0.35408755E-01 0.12499400E+03</pdfrwt>
<totfact> 0.82758245E+03</totfact>
</mgrwt>
</event>
<event>
 5    1  0.3196850E-002  0.1249989E+03  0.7818608E-02  0.1235071E+00
          4   -1    0    0  501    0  0.00000000000E+00  0.00000000000E+00  0.63314392247E+02  0.63327128196E+02  0.12700000000E+01 0. -1.
         -4   -1    0    0    0  501 -0.00000000000E+00 -0.00000000000E+00 -0.61669528450E+02  0.61682604024E+02  0.12700000000E+01 0. -1.
         25    2    1    2    0    0  0.00000000000E+00  0.00000000000E+00  0.16448637974E+01  0.12500973222E+03  0.12499891029E+03 0.  0.
    9000005    1    3    3    0    0  0.56706066030E+02 -0.24787954896E+02 -0.78478781119E+01  0.62390783160E+02  0.10000000000E+01 0.  0.
    9000005    1    3    3    0    0 -0.56706066030E+02  0.24787954896E+02  0.94927419093E+01  0.62618949060E+02  0.10000000000E+01 0.  0.
<mgrwt>
<rscale>  0 0.12499891E+03</rscale>
<asrwt>0</asrwt>
<pdfrwt beam="1">  1        4 0.97426613E-02 0.12499891E+03</pdfrwt>
<pdfrwt beam="2">  1       -4 0.94896052E-02 0.12499891E+03</pdfrwt>
<totfact> 0.10452909E+04</totfact>
</mgrwt>
</event>
<event>
 5    1  0.3196850E-002  0.1249964E+03  0.7818608E-02  0.1235075E+00
          4   -1    0    0  501    0  0.00000000000E+00  0.00000000000E+00  0.31699553444E+02  0.31724983665E+02  0.12700000000E+01 0.  1.
         -4   -1    0    0    0  501 -0.00000000000E+00 -0.00000000000E+00 -0.12314214456E+03  0.12314869332E+03  0.12700000000E+01 0.  1.
         25    2    1    2    0    0  0.00000000000E+00  0.00000000000E+00 -0.91442591111E+02  0.15487367698E+03  0.12499643336E+03 0.  0.
    9000005    1    3    3    0    0 -0.61031482537E+02  0.12522256312E+02 -0.39730469929E+02  0.73899654969E+02  0.10000000000E+01 0.  0.
    9000005    1    3    3    0    0  0.61031482537E+02 -0.12522256312E+02 -0.51712121182E+02  0.80974022013E+02  0.10000000000E+01 0.  0.
<mgrwt>
<rscale>  0 0.12499643E+03</rscale>
<asrwt>0</asrwt>
<pdfrwt beam="1">  1        4 0.48793143E-02 0.12499643E+03</pdfrwt>
<pdfrwt beam="2">  1       -4 0.18947405E-01 0.12499643E+03</pdfrwt>
<totfact> 0.98348192E+03</totfact>
</mgrwt>
</event>
<event>
 5    1  0.3196850E-002  0.1249875E+03  0.7818608E-02  0.1235089E+00
         -4   -1    0    0    0  501 -0.00000000000E+00  0.00000000000E+00  0.17575925176E+03  0.17576384008E+03  0.12700000000E+01 0. -1.
          4   -1    0    0  501    0  0.00000000000E+00 -0.00000000000E+00 -0.22197523859E+02  0.22233824805E+02  0.12700000000E+01 0. -1.
         25    2    1    2    0    0  0.00000000000E+00  0.00000000000E+00  0.15356172790E+03  0.19799766488E+03  0.12498748347E+03 0.  0.
    9000005    1    3    3    0    0 -0.40760194000E+02 -0.38290981313E+02  0.12093477139E+03  0.13324342984E+03  0.10000000000E+01 0.  0.
    9000005    1    3    3    0    0  0.40760194000E+02  0.38290981313E+02  0.32626956513E+02  0.64754235044E+02  0.10000000000E+01 0.  0.
<mgrwt>
<rscale>  0 0.12498748E+03</rscale>
<asrwt>0</asrwt>
<pdfrwt beam="2">  1        4 0.34181490E-02 0.12498748E+03</pdfrwt>
<pdfrwt beam="1">  1       -4 0.27043030E-01 0.12498748E+03</pdfrwt>
<totfact> 0.90499418E+03</totfact>
</mgrwt>
</event>
<event>
 5    1  0.3196850E-002  0.1249905E+03  0.7818608E-02  0.1235084E+00
         -4   -1    0    0    0  501 -0.00000000000E+00  0.00000000000E+00  0.13532951043E+03  0.13533546946E+03  0.12700000000E+01 0. -1.
          4   -1    0    0  501    0  0.00000000000E+00 -0.00000000000E+00 -0.28839785629E+02  0.28867735192E+02  0.12700000000E+01 0. -1.
         25    2    1    2    0    0  0.00000000000E+00  0.00000000000E+00  0.10648972480E+03  0.16420320465E+03  0.12499052336E+03 0.  0.
    9000005    1    3    3    0    0 -0.24124053720E+02 -0.52112966604E+02  0.20880088021E+02  0.61112268260E+02  0.10000000000E+01 0.  0.
    9000005    1    3    3    0    0  0.24124053720E+02  0.52112966604E+02  0.85609636783E+02  0.10309093639E+03  0.10000000000E+01 0.  0.
<mgrwt>
<rscale>  0 0.12499052E+03</rscale>
<asrwt>0</asrwt>
<pdfrwt beam="2">  1        4 0.44394985E-02 0.12499052E+03</pdfrwt>
<pdfrwt beam="1">  1       -4 0.20822533E-01 0.12499052E+03</pdfrwt>
<totfact> 0.96559063E+03</totfact>
</mgrwt>
</event>
<event>
 5    1  0.3196850E-002  0.1249989E+03  0.7818608E-02  0.1235071E+00
          4   -1    0    0  501    0  0.00000000000E+00  0.00000000000E+00  0.66696916294E+03  0.66697037207E+03  0.12700000000E+01 0. -1.
         -4   -1    0    0    0  501 -0.00000000000E+00 -0.00000000000E+00 -0.57865388906E+01  0.59242663961E+01  0.12700000000E+01 0. -1.
         25    2    1    2    0    0  0.00000000000E+00  0.00000000000E+00  0.66118262405E+03  0.67289463846E+03  0.12499892850E+03 0.  0.
    9000005    1    3    3    0    0  0.58116240282E+00  0.54004026184E+02  0.49983381482E+03  0.50274408502E+03  0.10000000000E+01 0.  0.
    9000005    1    3    3    0    0 -0.58116240282E+00 -0.54004026184E+02  0.16134880924E+03  0.17015055344E+03  0.10000000000E+01 0.  0.
<mgrwt>
<rscale>  0 0.12499893E+03</rscale>
<asrwt>0</asrwt>
<pdfrwt beam="1">  1        4 0.10262130E+00 0.12499893E+03</pdfrwt>
<pdfrwt beam="2">  1       -4 0.90092446E-03 0.12499893E+03</pdfrwt>
<totfact> 0.44557743E+03</totfact>
</mgrwt>
</event>
<event>
 5    1  0.3196850E-002  0.1250067E+03  0.7818608E-02  0.1235059E+00
         -4   -1    0    0    0  501 -0.00000000000E+00  0.00000000000E+00  0.22157127686E+03  0.22157491651E+03  0.12700000000E+01 0.  1.
          4   -1    0    0  501    0  0.00000000000E+00 -0.00000000000E+00 -0.17605009155E+02  0.17650757699E+02  0.12700000000E+01 0.  1.
         25    2    1    2    0    0  0.00000000000E+00  0.00000000000E+00  0.20396626770E+03  0.23922567421E+03  0.12500673919E+03 0.  0.
    9000005    1    3    3    0    0  0.16829894766E+02  0.18832726838E+02  0.21137853238E+03  0.21288447785E+03  0.10000000000E+01 0.  0.
    9000005    1    3    3    0    0 -0.16829894766E+02 -0.18832726838E+02 -0.74122646814E+01  0.26341196360E+02  0.10000000000E+01 0.  0.
<mgrwt>
<rscale>  0 0.12500674E+03</rscale>
<asrwt>0</asrwt>
<pdfrwt beam="2">  1        4 0.27122622E-02 0.12500674E+03</pdfrwt>
<pdfrwt beam="1">  1       -4 0.34091686E-01 0.12500674E+03</pdfrwt>
<totfact> 0.83900219E+03</totfact>
</mgrwt>
</event>
<event>
 5    1  0.3196850E-002  0.1249987E+03  0.7818608E-02  0.1235071E+00
         -4   -1    0    0    0  501 -0.00000000000E+00  0.00000000000E+00  0.40186270743E+03  0.40186471420E+03  0.12700000000E+01 0. -1.
          4   -1    0    0  501    0  0.00000000000E+00 -0.00000000000E+00 -0.96766269928E+01  0.97596111582E+01  0.12700000000E+01 0. -1.
         25    2    1    2    0    0  0.00000000000E+00  0.00000000000E+00  0.39218608043E+03  0.41162432536E+03  0.12499865416E+03 0.  0.
    9000005    1    3    3    0    0  0.12923711678E+02 -0.53644741778E+02  0.29268526539E+03  0.29784298753E+03  0.10000000000E+01 0.  0.
    9000005    1    3    3    0    0 -0.12923711678E+02  0.53644741778E+02  0.99500815040E+02  0.11378133783E+03  0.10000000000E+01 0.  0.
<mgrwt>
<rscale>  0 0.12499865E+03</rscale>
<asrwt>0</asrwt>
<pdfrwt beam="2">  1        4 0.14952496E-02 0.12499865E+03</pdfrwt>
<pdfrwt beam="1">  1       -4 0.61831571E-01 0.12499865E+03</pdfrwt>
<totfact> 0.63439589E+03</totfact>
</mgrwt>
</event>
<event>
 5    1  0.3196850E-002  0.1249971E+03  0.7818608E-02  0.1235074E+00
         -4   -1    0    0    0  501 -0.00000000000E+00  0.00000000000E+00  0.82670581621E+02  0.82680336027E+02  0.12700000000E+01 0.  1.
          4   -1    0    0  501    0  0.00000000000E+00 -0.00000000000E+00 -0.47227483439E+02  0.47244556215E+02  0.12700000000E+01 0.  1.
         25    2    1    2    0    0  0.00000000000E+00  0.00000000000E+00  0.35443098182E+02  0.12992489224E+03  0.12499705763E+03 0.  0.
    9000005    1    3    3    0    0  0.19987923219E+02 -0.79821719785E+01  0.78701564944E+02  0.81597600876E+02  0.10000000000E+01 0.  0.
    9000005    1    3    3    0    0 -0.19987923219E+02  0.79821719785E+01 -0.43258466762E+02  0.48327291365E+02  0.10000000000E+01 0.  0.
<mgrwt>
<rscale>  0 0.12499706E+03</rscale>
<asrwt>0</asrwt>
<pdfrwt beam="2">  1        4 0.72678304E-02 0.12499706E+03</pdfrwt>
<pdfrwt beam="1">  1       -4 0.12720615E-01 0.12499706E+03</pdfrwt>
<totfact> 0.10346802E+04</totfact>
</mgrwt>
</event>
<event>
 5    1  0.3196850E-002  0.1250010E+03  0.7818608E-02  0.1235068E+00
         -4   -1    0    0    0  501 -0.00000000000E+00  0.00000000000E+00  0.64220262390E+03  0.64220387966E+03  0.12700000000E+01 0. -1.
          4   -1    0    0  501    0  0.00000000000E+00 -0.00000000000E+00 -0.60151081687E+01  0.61477171601E+01  0.12700000000E+01 0. -1.
         25    2    1    2    0    0  0.00000000000E+00  0.00000000000E+00  0.63618751573E+03  0.64835159682E+03  0.12500095168E+03 0.  0.
    9000005    1    3    3    0    0  0.33860904800E+02 -0.19578302788E+01  0.59033342629E+03  0.59130782861E+03  0.10000000000E+01 0.  0.
    9000005    1    3    3    0    0 -0.33860904800E+02  0.19578302788E+01  0.45854089443E+02  0.57043768213E+02  0.10000000000E+01 0.  0.
<mgrwt>
<rscale>  0 0.12500095E+03</rscale>
<asrwt>0</asrwt>
<pdfrwt beam="2">  1        4 0.93569951E-03 0.12500095E+03</pdfrwt>
<pdfrwt beam="1">  1       -4 0.98810599E-01 0.12500095E+03</pdfrwt>
<totfact> 0.45950074E+03</totfact>
</mgrwt>
</event>
<event>
 5    1  0.3196850E-002  0.1250113E+03  0.7818608E-02  0.1235052E+00
         -4   -1    0    0    0  501 -0.00000000000E+00  0.00000000000E+00  0.10244787430E+03  0.10245574581E+03  0.12700000000E+01 0. -1.
          4   -1    0    0  501    0  0.00000000000E+00 -0.00000000000E+00 -0.38116150009E+02  0.38137301838E+02  0.12700000000E+01 0. -1.
         25    2    1    2    0    0  0.00000000000E+00  0.00000000000E+00  0.64331724292E+02  0.14059304765E+03  0.12501133667E+03 0.  0.
    9000005    1    3    3    0    0 -0.81314925727E+01  0.12281342923E+02 -0.36141753852E+02  0.39040734201E+02  0.10000000000E+01 0.  0.
    9000005    1    3    3    0    0  0.81314925727E+01 -0.12281342923E+02  0.10047347814E+03  0.10155231344E+03  0.10000000000E+01 0.  0.
<mgrwt>
<rscale>  0 0.12501134E+03</rscale>
<asrwt>0</asrwt>
<pdfrwt beam="2">  1        4 0.58662556E-02 0.12501134E+03</pdfrwt>
<pdfrwt beam="1">  1       -4 0.15763444E-01 0.12501134E+03</pdfrwt>
<totfact> 0.10118725E+04</totfact>
</mgrwt>
</event>
<event>
 5    1  0.3196850E-002  0.1249998E+03  0.7818608E-02  0.1235070E+00
          4   -1    0    0  501    0  0.00000000000E+00  0.00000000000E+00  0.11531245000E+02  0.11600970272E+02  0.12700000000E+01 0.  1.
         -4   -1    0    0    0  501 -0.00000000000E+00 -0.00000000000E+00 -0.33766026005E+03  0.33766264838E+03  0.12700000000E+01 0.  1.
         25    2    1    2    0    0  0.00000000000E+00  0.00000000000E+00 -0.32612901505E+03  0.34926361866E+03  0.12499976345E+03 0.  0.
    9000005    1    3    3    0    0 -0.51192728450E+01 -0.61002043858E+02 -0.19816139706E+03  0.20740394306E+03  0.10000000000E+01 0.  0.
    9000005    1    3    3    0    0  0.51192728450E+01  0.61002043858E+02 -0.12796761798E+03  0.14185967560E+03  0.10000000000E+01 0.  0.
<mgrwt>
<rscale>  0 0.12499976E+03</rscale>
<asrwt>0</asrwt>
<pdfrwt beam="1">  1        4 0.17795852E-02 0.12499976E+03</pdfrwt>
<pdfrwt beam="2">  1       -4 0.51953272E-01 0.12499976E+03</pdfrwt>
<totfact> 0.69806012E+03</totfact>
</mgrwt>
</event>
<event>
 5    1  0.3196850E-002  0.1250051E+03  0.7818608E-02  0.1235061E+00
         -4   -1    0    0    0  501 -0.00000000000E+00  0.00000000000E+00  0.13107896803E+02  0.13169277072E+02  0.12700000000E+01 0. -1.
          4   -1    0    0  501    0  0.00000000000E+00 -0.00000000000E+00 -0.29727290222E+03  0.29727561504E+03  0.12700000000E+01 0. -1.
         25    2    1    2    0    0  0.00000000000E+00  0.00000000000E+00 -0.28416500542E+03  0.31044489211E+03  0.12500512282E+03 0.  0.
    9000005    1    3    3    0    0  0.20376095393E+02  0.28765171545E+02 -0.27023828302E+03  0.27252953962E+03  0.10000000000E+01 0.  0.
    9000005    1    3    3    0    0 -0.20376095393E+02 -0.28765171545E+02 -0.13926722400E+02  0.37915352488E+02  0.10000000000E+01 0.  0.
<mgrwt>
<rscale>  0 0.12500512E+03</rscale>
<asrwt>0</asrwt>
<pdfrwt beam="2">  1        4 0.45739218E-01 0.12500512E+03</pdfrwt>
<pdfrwt beam="1">  1       -4 0.20215300E-02 0.12500512E+03</pdfrwt>
<totfact> 0.74298613E+03</totfact>
</mgrwt>
</event>
<event>
 5    1  0.3196850E-002  0.1249989E+03  0.7818608E-02  0.1235071E+00
         -4   -1    0    0    0  501 -0.00000000000E+00  0.00000000000E+00  0.20590552992E+02  0.20629681833E+02  0.12700000000E+01 0.  1.
          4   -1    0    0  501    0  0.00000000000E+00 -0.00000000000E+00 -0.18948606842E+03  0.18949032436E+03  0.12700000000E+01 0.  1.
         25    2    1    2    0    0  0.00000000000E+00  0.00000000000E+00 -0.16889551543E+03  0.21012000619E+03  0.12499888748E+03 0.  0.
    9000005    1    3    3    0    0  0.24742977427E+02  0.56915470840E+02 -0.96753908685E+02  0.11495174900E+03  0.10000000000E+01 0.  0.
    9000005    1    3    3    0    0 -0.24742977427E+02 -0.56915470840E+02 -0.72141606743E+02  0.95168257189E+02  0.10000000000E+01 0.  0.
<mgrwt>
<rscale>  0 0.12499889E+03</rscale>
<asrwt>0</asrwt>
<pdfrwt beam="2">  1        4 0.29155039E-01 0.12499889E+03</pdfrwt>
<pdfrwt beam="1">  1       -4 0.31711148E-02 0.12499889E+03</pdfrwt>
<totfact> 0.88458487E+03</totfact>
</mgrwt>
</event>
<event>
 5    1  0.3196850E-002  0.1249991E+03  0.7818608E-02  0.1235071E+00
         -4   -1    0    0    0  501 -0.00000000000E+00  0.00000000000E+00  0.11014072248E+03  0.11014804423E+03  0.12700000000E+01 0.  1.
          4   -1    0    0  501    0  0.00000000000E+00 -0.00000000000E+00 -0.35445634539E+02  0.35468378986E+02  0.12700000000E+01 0.  1.
         25    2    1    2    0    0  0.00000000000E+00  0.00000000000E+00  0.74695087941E+02  0.14561642322E+03  0.12499914619E+03 0.  0.
    9000005    1    3    3    0    0 -0.14327478645E+02  0.35255841692E+02  0.95090775472E+02  0.10242805572E+03  0.10000000000E+01 0.  0.
    9000005    1    3    3    0    0  0.14327478645E+02 -0.35255841692E+02 -0.20395687531E+02  0.43188367503E+02  0.10000000000E+01 0.  0.
<mgrwt>
<rscale>  0 0.12499915E+03</rscale>
<asrwt>0</asrwt>
<pdfrwt beam="2">  1        4 0.54554873E-02 0.12499915E+03</pdfrwt>
<pdfrwt beam="1">  1       -4 0.16947039E-01 0.12499915E+03</pdfrwt>
<totfact> 0.10018672E+04</totfact>
</mgrwt>
</event>
<event>
 5    1  0.3196850E-002  0.1249971E+03  0.7818608E-02  0.1235074E+00
         -4   -1    0    0    0  501 -0.00000000000E+00  0.00000000000E+00  0.17702923618E+03  0.17703379158E+03  0.12700000000E+01 0.  1.
          4   -1    0    0  501    0  0.00000000000E+00 -0.00000000000E+00 -0.22041425905E+02  0.22077983511E+02  0.12700000000E+01 0.  1.
         25    2    1    2    0    0  0.00000000000E+00  0.00000000000E+00  0.15498781027E+03  0.19911177509E+03  0.12499711056E+03 0.  0.
    9000005    1    3    3    0    0 -0.35062146026E+02  0.31354469517E+02  0.11958535848E+02  0.48543417909E+02  0.10000000000E+01 0.  0.
    9000005    1    3    3    0    0  0.35062146026E+02 -0.31354469517E+02  0.14302927442E+03  0.15056835718E+03  0.10000000000E+01 0.  0.
<mgrwt>
<rscale>  0 0.12499711E+03</rscale>
<asrwt>0</asrwt>
<pdfrwt beam="2">  1        4 0.33941511E-02 0.12499711E+03</pdfrwt>
<pdfrwt beam="1">  1       -4 0.27238430E-01 0.12499711E+03</pdfrwt>
<totfact> 0.90291367E+03</totfact>
</mgrwt>
</event>
<event>
 5    1  0.3196850E-002  0.1250002E+03  0.7818608E-02  0.1235069E+00
          4   -1    0    0  501    0  0.00000000000E+00  0.00000000000E+00  0.28289327052E+02  0.28317819921E+02  0.12700000000E+01 0. -1.
         -4   -1    0    0    0  501 -0.00000000000E+00 -0.00000000000E+00 -0.13798155329E+03  0.13798739779E+03  0.12700000000E+01 0. -1.
         25    2    1    2    0    0  0.00000000000E+00  0.00000000000E+00 -0.10969222624E+03  0.16630521771E+03  0.12500016376E+03 0.  0.
    9000005    1    3    3    0    0  0.11326549494E+02  0.61420979688E+02 -0.52044986825E+02  0.81305031351E+02  0.10000000000E+01 0.  0.
    9000005    1    3    3    0    0 -0.11326549494E+02 -0.61420979688E+02 -0.57647239416E+02  0.85000186362E+02  0.10000000000E+01 0.  0.
<mgrwt>
<rscale>  0 0.12500016E+03</rscale>
<asrwt>0</asrwt>
<pdfrwt beam="1">  1        4 0.43548456E-02 0.12500016E+03</pdfrwt>
<pdfrwt beam="2">  1       -4 0.21230572E-01 0.12500016E+03</pdfrwt>
<totfact> 0.96140421E+03</totfact>
</mgrwt>
</event>
<event>
 5    1  0.3196850E-002  0.1250003E+03  0.7818608E-02  0.1235069E+00
          4   -1    0    0  501    0  0.00000000000E+00  0.00000000000E+00  0.34646760543E+02  0.34670029076E+02  0.12700000000E+01 0. -1.
         -4   -1    0    0    0  501 -0.00000000000E+00 -0.00000000000E+00 -0.11268089872E+03  0.11268805543E+03  0.12700000000E+01 0. -1.
         25    2    1    2    0    0  0.00000000000E+00  0.00000000000E+00 -0.78034138174E+02  0.14735808450E+03  0.12500031339E+03 0.  0.
    9000005    1    3    3    0    0  0.43881207460E+02 -0.44470028616E+02 -0.37298284783E+02  0.72768852272E+02  0.10000000000E+01 0.  0.
    9000005    1    3    3    0    0 -0.43881207460E+02  0.44470028616E+02 -0.40735853391E+02  0.74589232231E+02  0.10000000000E+01 0.  0.
<mgrwt>
<rscale>  0 0.12500031E+03</rscale>
<asrwt>0</asrwt>
<pdfrwt beam="1">  1        4 0.53326113E-02 0.12500031E+03</pdfrwt>
<pdfrwt beam="2">  1       -4 0.17337863E-01 0.12500031E+03</pdfrwt>
<totfact> 0.99832251E+03</totfact>
</mgrwt>
</event>
<event>
 4    1  0.3196850E-002  0.1250979E+03  0.7818608E-02  0.1234916E+00
          4   -1    0    0  501    0  0.00000000000E+00  0.00000000000E+00  0.44314894181E+03  0.44315076163E+03  0.12700000000E+01 0. -1.
         -4   -1    0    0    0  501 -0.00000000000E+00 -0.00000000000E+00 -0.87810499388E+01  0.88724144419E+01  0.12700000000E+01 0. -1.
    9000005    1    1    2    0    0  0.17596469503E+02 -0.41761560947E+02  0.61444233783E+02  0.76354813711E+02  0.10000000000E+01 0.  0.
    9000005    1    1    2    0    0 -0.17596469503E+02  0.41761560947E+02  0.37292365809E+03  0.37566836236E+03  0.10000000000E+01 0.  0.
<mgrwt>
<rscale>  0 0.12509791E+03</rscale>
<asrwt>0</asrwt>
<pdfrwt beam="1">  1        4 0.68183945E-01 0.12509791E+03</pdfrwt>
<pdfrwt beam="2">  1       -4 0.13580985E-02 0.12509791E+03</pdfrwt>
<totfact> 0.59660169E+03</totfact>
</mgrwt>
</event>
<event>
 5    1  0.3196850E-002  0.1250050E+03  0.7818608E-02  0.1235061E+00
         -4   -1    0    0    0  501 -0.00000000000E+00  0.00000000000E+00  0.31291375866E+02  0.31317137538E+02  0.12700000000E+01 0. -1.
          4   -1    0    0  501    0  0.00000000000E+00 -0.00000000000E+00 -0.12476442226E+03  0.12477088587E+03  0.12700000000E+01 0. -1.
         25    2    1    2    0    0  0.00000000000E+00  0.00000000000E+00 -0.93473046394E+02  0.15608802341E+03  0.12500504250E+03 0.  0.
    9000005    1    3    3    0    0  0.14644968194E+02  0.14057320401E+00 -0.12259746112E+03  0.12347320489E+03  0.10000000000E+01 0.  0.
    9000005    1    3    3    0    0 -0.14644968194E+02 -0.14057320401E+00  0.29124414722E+02  0.32614818520E+02  0.10000000000E+01 0.  0.
<mgrwt>
<rscale>  0 0.12500504E+03</rscale>
<asrwt>0</asrwt>
<pdfrwt beam="2">  1        4 0.19197005E-01 0.12500504E+03</pdfrwt>
<pdfrwt beam="1">  1       -4 0.48165368E-02 0.12500504E+03</pdfrwt>
<totfact> 0.98091206E+03</totfact>
</mgrwt>
</event>
<event>
 5    1  0.3196850E-002  0.1250090E+03  0.7818608E-02  0.1235055E+00
          4   -1    0    0  501    0  0.00000000000E+00  0.00000000000E+00  0.84086521679E+01  0.85040185371E+01  0.12700000000E+01 0. -1.
         -4   -1    0    0    0  501 -0.00000000000E+00 -0.00000000000E+00 -0.46190172325E+03  0.46190346918E+03  0.12700000000E+01 0. -1.
         25    2    1    2    0    0  0.00000000000E+00  0.00000000000E+00 -0.45349307108E+03  0.47040748771E+03  0.12500895561E+03 0.  0.
    9000005    1    3    3    0    0  0.31234150417E+02 -0.47132255369E+02 -0.12656416429E+03  0.13862362472E+03  0.10000000000E+01 0.  0.
    9000005    1    3    3    0    0 -0.31234150417E+02  0.47132255369E+02 -0.32692890679E+03  0.33178386299E+03  0.10000000000E+01 0.  0.
<mgrwt>
<rscale>  0 0.12500896E+03</rscale>
<asrwt>0</asrwt>
<pdfrwt beam="1">  1        4 0.13011093E-02 0.12500896E+03</pdfrwt>
<pdfrwt beam="2">  1       -4 0.71069254E-01 0.12500896E+03</pdfrwt>
<totfact> 0.58224311E+03</totfact>
</mgrwt>
</event>
<event>
 5    1  0.3196850E-002  0.1249998E+03  0.7818608E-02  0.1235070E+00
          4   -1    0    0  501    0  0.00000000000E+00  0.00000000000E+00  0.52092933945E+02  0.52108412632E+02  0.12700000000E+01 0. -1.
         -4   -1    0    0    0  501 -0.00000000000E+00 -0.00000000000E+00 -0.74953923250E+02  0.74964681754E+02  0.12700000000E+01 0. -1.
         25    2    1    2    0    0  0.00000000000E+00  0.00000000000E+00 -0.22860989304E+02  0.12707309439E+03  0.12499978594E+03 0.  0.
    9000005    1    3    3    0    0 -0.11035883107E+02  0.60545299871E+02 -0.40099643228E+00  0.61552293626E+02  0.10000000000E+01 0.  0.
    9000005    1    3    3    0    0  0.11035883107E+02 -0.60545299871E+02 -0.22459992872E+02  0.65520800760E+02  0.10000000000E+01 0.  0.
<mgrwt>
<rscale>  0 0.12499979E+03</rscale>
<asrwt>0</asrwt>
<pdfrwt beam="1">  1        4 0.80163158E-02 0.12499979E+03</pdfrwt>
<pdfrwt beam="2">  1       -4 0.11533391E-01 0.12499979E+03</pdfrwt>
<totfact> 0.10407608E+04</totfact>
</mgrwt>
</event>
<event>
 5    1  0.3196850E-002  0.1250036E+03  0.7818608E-02  0.1235064E+00
          4   -1    0    0  501    0  0.00000000000E+00  0.00000000000E+00  0.18433311994E+03  0.18433749484E+03  0.12700000000E+01 0. -1.
         -4   -1    0    0    0  501 -0.00000000000E+00 -0.00000000000E+00 -0.21168821250E+02  0.21206883154E+02  0.12700000000E+01 0. -1.
         25    2    1    2    0    0  0.00000000000E+00  0.00000000000E+00  0.16316429869E+03  0.20554437800E+03  0.12500361179E+03 0.  0.
    9000005    1    3    3    0    0  0.62443504578E+02 -0.22621535559E+01  0.83358562824E+02  0.10418233343E+03  0.10000000000E+01 0.  0.
    9000005    1    3    3    0    0 -0.62443504578E+02  0.22621535559E+01  0.79805735862E+02  0.10136204457E+03  0.10000000000E+01 0.  0.
<mgrwt>
<rscale>  0 0.12500361E+03</rscale>
<asrwt>0</asrwt>
<pdfrwt beam="1">  1        4 0.28362205E-01 0.12500361E+03</pdfrwt>
<pdfrwt beam="2">  1       -4 0.32600062E-02 0.12500361E+03</pdfrwt>
<totfact> 0.89201546E+03</totfact>
</mgrwt>
</event>
<event>
 5    1  0.3196850E-002  0.1250228E+03  0.7818608E-02  0.1235034E+00
          4   -1    0    0  501    0  0.00000000000E+00  0.00000000000E+00  0.12586492280E+03  0.12587132991E+03  0.12700000000E+01 0. -1.
         -4   -1    0    0    0  501 -0.00000000000E+00 -0.00000000000E+00 -0.31026375880E+02  0.31052357402E+02  0.12700000000E+01 0. -1.
         25    2    1    2    0    0  0.00000000000E+00  0.00000000000E+00  0.94838546924E+02  0.15692368731E+03  0.12502277255E+03 0.  0.
    9000005    1    3    3    0    0 -0.18857897453E+02  0.34659293793E+02  0.10826268793E+03  0.11523322672E+03  0.10000000000E+01 0.  0.
    9000005    1    3    3    0    0  0.18857897453E+02 -0.34659293793E+02 -0.13424141004E+02  0.41690460591E+02  0.10000000000E+01 0.  0.
<mgrwt>
<rscale>  0 0.12502277E+03</rscale>
<asrwt>0</asrwt>
<pdfrwt beam="1">  1        4 0.19366326E-01 0.12502277E+03</pdfrwt>
<pdfrwt beam="2">  1       -4 0.47757800E-02 0.12502277E+03</pdfrwt>
<totfact> 0.97889041E+03</totfact>
</mgrwt>
</event>
<event>
 5    1  0.3196850E-002  0.1250024E+03  0.7818608E-02  0.1235066E+00
         -4   -1    0    0    0  501 -0.00000000000E+00  0.00000000000E+00  0.57881391223E+03  0.57881530551E+03  0.12700000000E+01 0.  1.
          4   -1    0    0  501    0  0.00000000000E+00 -0.00000000000E+00 -0.66878110490E+01  0.68073281563E+01  0.12700000000E+01 0.  1.
         25    2    1    2    0    0  0.00000000000E+00  0.00000000000E+00  0.57212610118E+03  0.58562263367E+03  0.12500237361E+03 0.  0.
    9000005    1    3    3    0    0 -0.48529729765E+02 -0.39343118515E+02  0.29329465841E+03  0.29987626165E+03  0.10000000000E+01 0.  0.
    9000005    1    3    3    0    0  0.48529729765E+02  0.39343118515E+02  0.27883144277E+03  0.28574637202E+03  0.10000000000E+01 0.  0.
<mgrwt>
<rscale>  0 0.12500237E+03</rscale>
<asrwt>0</asrwt>
<pdfrwt beam="2">  1        4 0.10381950E-02 0.12500237E+03</pdfrwt>
<pdfrwt beam="1">  1       -4 0.89057583E-01 0.12500237E+03</pdfrwt>
<totfact> 0.49785325E+03</totfact>
</mgrwt>
</event>
<event>
 5    1  0.3196850E-002  0.1249975E+03  0.7818608E-02  0.1235073E+00
          4   -1    0    0  501    0  0.00000000000E+00  0.00000000000E+00  0.13177402341E+03  0.13178014322E+03  0.12700000000E+01 0. -1.
         -4   -1    0    0    0  501 -0.00000000000E+00 -0.00000000000E+00 -0.29621969366E+02  0.29649181593E+02  0.12700000000E+01 0. -1.
         25    2    1    2    0    0  0.00000000000E+00  0.00000000000E+00  0.10215205405E+03  0.16142932481E+03  0.12499753903E+03 0.  0.
    9000005    1    3    3    0    0 -0.33191861439E+02 -0.41103609571E+02  0.79735645694E+01  0.53439537026E+02  0.10000000000E+01 0.  0.
    9000005    1    3    3    0    0  0.33191861439E+02  0.41103609571E+02  0.94178489479E+02  0.10798978779E+03  0.10000000000E+01 0.  0.
<mgrwt>
<rscale>  0 0.12499754E+03</rscale>
<asrwt>0</asrwt>
<pdfrwt beam="1">  1        4 0.20275491E-01 0.12499754E+03</pdfrwt>
<pdfrwt beam="2">  1       -4 0.45597901E-02 0.12499754E+03</pdfrwt>
<totfact> 0.97073297E+03</totfact>
</mgrwt>
</event>
<event>
 5    1  0.3196850E-002  0.1249982E+03  0.7818608E-02  0.1235072E+00
         -4   -1    0    0    0  501 -0.00000000000E+00  0.00000000000E+00  0.17755483872E+03  0.17755938063E+03  0.12700000000E+01 0.  1.
          4   -1    0    0  501    0  0.00000000000E+00 -0.00000000000E+00 -0.21976469204E+02  0.22013134685E+02  0.12700000000E+01 0.  1.
         25    2    1    2    0    0  0.00000000000E+00  0.00000000000E+00  0.15557836951E+03  0.19957251532E+03  0.12499823923E+03 0.  0.
    9000005    1    3    3    0    0 -0.49519844546E+02  0.18318723869E+01  0.17001400872E+02  0.52398648760E+02  0.10000000000E+01 0.  0.
    9000005    1    3    3    0    0  0.49519844546E+02 -0.18318723869E+01  0.13857696864E+03  0.14717386656E+03  0.10000000000E+01 0.  0.
<mgrwt>
<rscale>  0 0.12499824E+03</rscale>
<asrwt>0</asrwt>
<pdfrwt beam="2">  1        4 0.33841651E-02 0.12499824E+03</pdfrwt>
<pdfrwt beam="1">  1       -4 0.27319299E-01 0.12499824E+03</pdfrwt>
<totfact> 0.90211209E+03</totfact>
</mgrwt>
</event>
<event>
 5    1  0.3196850E-002  0.1250000E+03  0.7818608E-02  0.1235069E+00
         -4   -1    0    0    0  501 -0.00000000000E+00  0.00000000000E+00  0.17663618932E+02  0.17709216069E+02  0.12700000000E+01 0. -1.
          4   -1    0    0  501    0  0.00000000000E+00 -0.00000000000E+00 -0.22081424477E+03  0.22081789691E+03  0.12700000000E+01 0. -1.
         25    2    1    2    0    0  0.00000000000E+00  0.00000000000E+00 -0.20315062584E+03  0.23852711297E+03  0.12500002738E+03 0.  0.
    9000005    1    3    3    0    0  0.53709350511E+02  0.31396114151E+02 -0.11283886608E+03  0.12885658700E+03  0.10000000000E+01 0.  0.
    9000005    1    3    3    0    0 -0.53709350511E+02 -0.31396114151E+02 -0.90311759762E+02  0.10967052597E+03  0.10000000000E+01 0.  0.
<mgrwt>
<rscale>  0 0.12500003E+03</rscale>
<asrwt>0</asrwt>
<pdfrwt beam="2">  1        4 0.33975209E-01 0.12500003E+03</pdfrwt>
<pdfrwt beam="1">  1       -4 0.27212684E-02 0.12500003E+03</pdfrwt>
<totfact> 0.84017167E+03</totfact>
</mgrwt>
</event>
<event>
 5    1  0.3196850E-002  0.1249993E+03  0.7818608E-02  0.1235070E+00
          4   -1    0    0  501    0  0.00000000000E+00  0.00000000000E+00  0.14815044161E+02  0.14869379056E+02  0.12700000000E+01 0.  1.
         -4   -1    0    0    0  501 -0.00000000000E+00 -0.00000000000E+00 -0.26312620403E+03  0.26312926889E+03  0.12700000000E+01 0.  1.
         25    2    1    2    0    0  0.00000000000E+00  0.00000000000E+00 -0.24831115987E+03  0.27799864795E+03  0.12499926458E+03 0.  0.
    9000005    1    3    3    0    0  0.20952552545E+02  0.35442895100E+02 -0.22870724329E+03  0.23238591051E+03  0.10000000000E+01 0.  0.
    9000005    1    3    3    0    0 -0.20952552545E+02 -0.35442895100E+02 -0.19603916582E+02  0.45612737438E+02  0.10000000000E+01 0.  0.
<mgrwt>
<rscale>  0 0.12499926E+03</rscale>
<asrwt>0</asrwt>
<pdfrwt beam="1">  1        4 0.22836531E-02 0.12499926E+03</pdfrwt>
<pdfrwt beam="2">  1       -4 0.40485366E-01 0.12499926E+03</pdfrwt>
<totfact> 0.78445504E+03</totfact>
</mgrwt>
</event>
<event>
 5    1  0.3196850E-002  0.1249996E+03  0.7818608E-02  0.1235070E+00
          4   -1    0    0  501    0  0.00000000000E+00  0.00000000000E+00  0.51208494640E+02  0.51224240583E+02  0.12700000000E+01 0. -1.
         -4   -1    0    0    0  501 -0.00000000000E+00 -0.00000000000E+00 -0.76247989587E+02  0.76258565526E+02  0.12700000000E+01 0. -1.
         25    2    1    2    0    0  0.00000000000E+00  0.00000000000E+00 -0.25039494947E+02  0.12748280611E+03  0.12499955818E+03 0.  0.
    9000005    1    3    3    0    0  0.40227720290E+02  0.47244057145E+02 -0.20079973417E+02  0.65226342437E+02  0.10000000000E+01 0.  0.
    9000005    1    3    3    0    0 -0.40227720290E+02 -0.47244057145E+02 -0.49595215302E+01  0.62256463673E+02  0.10000000000E+01 0.  0.
<mgrwt>
<rscale>  0 0.12499956E+03</rscale>
<asrwt>0</asrwt>
<pdfrwt beam="1">  1        4 0.78802547E-02 0.12499956E+03</pdfrwt>
<pdfrwt beam="2">  1       -4 0.11732485E-01 0.12499956E+03</pdfrwt>
<totfact> 0.10398777E+04</totfact>
</mgrwt>
</event>
<event>
 5    1  0.3196850E-002  0.1250027E+03  0.7818608E-02  0.1235065E+00
         -4   -1    0    0    0  501 -0.00000000000E+00  0.00000000000E+00  0.24566456768E+03  0.24566785038E+03  0.12700000000E+01 0. -1.
          4   -1    0    0  501    0  0.00000000000E+00 -0.00000000000E+00 -0.15872685540E+02  0.15923411891E+02  0.12700000000E+01 0. -1.
         25    2    1    2    0    0  0.00000000000E+00  0.00000000000E+00  0.22979188214E+03  0.26159126227E+03  0.12500271758E+03 0.  0.
    9000005    1    3    3    0    0  0.11649557985E+02 -0.54428657120E+02  0.55439057944E+02  0.78566405434E+02  0.10000000000E+01 0.  0.
    9000005    1    3    3    0    0 -0.11649557985E+02  0.54428657120E+02  0.17435282419E+03  0.18302485684E+03  0.10000000000E+01 0.  0.
<mgrwt>
<rscale>  0 0.12500272E+03</rscale>
<asrwt>0</asrwt>
<pdfrwt beam="2">  1        4 0.24461063E-02 0.12500272E+03</pdfrwt>
<pdfrwt beam="1">  1       -4 0.37798701E-01 0.12500272E+03</pdfrwt>
<totfact> 0.80678388E+03</totfact>
</mgrwt>
</event>
<event>
 5    1  0.3196850E-002  0.1250006E+03  0.7818608E-02  0.1235068E+00
          4   -1    0    0  501    0  0.00000000000E+00  0.00000000000E+00  0.18457129391E+03  0.18457566318E+03  0.12700000000E+01 0.  1.
         -4   -1    0    0    0  501 -0.00000000000E+00 -0.00000000000E+00 -0.21140432775E+02  0.21178545699E+02  0.12700000000E+01 0.  1.
         25    2    1    2    0    0  0.00000000000E+00  0.00000000000E+00  0.16343086114E+03  0.20575420887E+03  0.12500059239E+03 0.  0.
    9000005    1    3    3    0    0  0.35511794011E-01  0.49697009289E+02  0.19350965594E+02  0.53340921090E+02  0.10000000000E+01 0.  0.
    9000005    1    3    3    0    0 -0.35511794011E-01 -0.49697009289E+02  0.14407989554E+03  0.15241328778E+03  0.10000000000E+01 0.  0.
<mgrwt>
<rscale>  0 0.12500059E+03</rscale>
<asrwt>0</asrwt>
<pdfrwt beam="1">  1        4 0.28398851E-01 0.12500059E+03</pdfrwt>
<pdfrwt beam="2">  1       -4 0.32556422E-02 0.12500059E+03</pdfrwt>
<totfact> 0.89172821E+03</totfact>
</mgrwt>
</event>
<event>
 5    1  0.3196850E-002  0.1250006E+03  0.7818608E-02  0.1235068E+00
          4   -1    0    0  501    0  0.00000000000E+00  0.00000000000E+00  0.21769027450E+03  0.21769397905E+03  0.12700000000E+01 0.  1.
         -4   -1    0    0    0  501 -0.00000000000E+00 -0.00000000000E+00 -0.17917915197E+02  0.17962866837E+02  0.12700000000E+01 0.  1.
         25    2    1    2    0    0  0.00000000000E+00  0.00000000000E+00  0.19977235931E+03  0.23565684588E+03  0.12500061388E+03 0.  0.
    9000005    1    3    3    0    0 -0.14145171084E+02  0.53081314462E+01  0.21420461705E+03  0.21473909772E+03  0.10000000000E+01 0.  0.
    9000005    1    3    3    0    0  0.14145171084E+02 -0.53081314462E+01 -0.14432257747E+02  0.20917748161E+02  0.10000000000E+01 0.  0.
<mgrwt>
<rscale>  0 0.12500061E+03</rscale>
<asrwt>0</asrwt>
<pdfrwt beam="1">  1        4 0.33494554E-01 0.12500061E+03</pdfrwt>
<pdfrwt beam="2">  1       -4 0.27603451E-02 0.12500061E+03</pdfrwt>
<totfact> 0.84447328E+03</totfact>
</mgrwt>
</event>
<event>
 5    1  0.3196850E-002  0.1250003E+03  0.7818608E-02  0.1235069E+00
         -4   -1    0    0    0  501 -0.00000000000E+00  0.00000000000E+00  0.18607612636E+03  0.18608046029E+03  0.12700000000E+01 0.  1.
          4   -1    0    0  501    0  0.00000000000E+00 -0.00000000000E+00 -0.20969063515E+02  0.21007487348E+02  0.12700000000E+01 0.  1.
         25    2    1    2    0    0  0.00000000000E+00  0.00000000000E+00  0.16510706284E+03  0.20708794764E+03  0.12500030342E+03 0.  0.
    9000005    1    3    3    0    0 -0.26060783366E+02 -0.13060887987E+02 -0.90234157120E+01  0.30531512503E+02  0.10000000000E+01 0.  0.
    9000005    1    3    3    0    0  0.26060783366E+02  0.13060887987E+02  0.17413047856E+03  0.17655643513E+03  0.10000000000E+01 0.  0.
<mgrwt>
<rscale>  0 0.12500030E+03</rscale>
<asrwt>0</asrwt>
<pdfrwt beam="2">  1        4 0.32292988E-02 0.12500030E+03</pdfrwt>
<pdfrwt beam="1">  1       -4 0.28630385E-01 0.12500030E+03</pdfrwt>
<totfact> 0.88953072E+03</totfact>
</mgrwt>
</event>
<event>
 5    1  0.3196850E-002  0.1250057E+03  0.7818608E-02  0.1235060E+00
         -4   -1    0    0    0  501 -0.00000000000E+00  0.00000000000E+00  0.11631689912E+03  0.11632383212E+03  0.12700000000E+01 0.  1.
          4   -1    0    0  501    0  0.00000000000E+00 -0.00000000000E+00 -0.33565950245E+02  0.33589967489E+02  0.12700000000E+01 0.  1.
         25    2    1    2    0    0  0.00000000000E+00  0.00000000000E+00  0.82750948871E+02  0.14991379961E+03  0.12500571097E+03 0.  0.
    9000005    1    3    3    0    0  0.10268645291E+02 -0.53075040480E+02  0.37715542859E+01  0.54199904242E+02  0.10000000000E+01 0.  0.
    9000005    1    3    3    0    0 -0.10268645291E+02  0.53075040480E+02  0.78979394586E+02  0.95713895371E+02  0.10000000000E+01 0.  0.
<mgrwt>
<rscale>  0 0.12500571E+03</rscale>
<asrwt>0</asrwt>
<pdfrwt beam="2">  1        4 0.51663732E-02 0.12500571E+03</pdfrwt>
<pdfrwt beam="1">  1       -4 0.17897288E-01 0.12500571E+03</pdfrwt>
<totfact> 0.99308119E+03</totfact>
</mgrwt>
</event>
<event>
 5    1  0.3196850E-002  0.1250032E+03  0.7818608E-02  0.1235064E+00
          4   -1    0    0  501    0  0.00000000000E+00  0.00000000000E+00  0.19389291057E+02  0.19430839089E+02  0.12700000000E+01 0.  1.
         -4   -1    0    0    0  501 -0.00000000000E+00 -0.00000000000E+00 -0.20121532824E+03  0.20121933610E+03  0.12700000000E+01 0.  1.
         25    2    1    2    0    0  0.00000000000E+00  0.00000000000E+00 -0.18182603719E+03  0.22065017519E+03  0.12500316801E+03 0.  0.
    9000005    1    3    3    0    0 -0.19590444095E+02 -0.25974570704E+01  0.13737338587E+02  0.24088311575E+02  0.10000000000E+01 0.  0.
    9000005    1    3    3    0    0  0.19590444095E+02  0.25974570704E+01 -0.19556337577E+03  0.19656186361E+03  0.10000000000E+01 0.  0.
<mgrwt>
<rscale>  0 0.12500317E+03</rscale>
<asrwt>0</asrwt>
<pdfrwt beam="1">  1        4 0.29864723E-02 0.12500317E+03</pdfrwt>
<pdfrwt beam="2">  1       -4 0.30959707E-01 0.12500317E+03</pdfrwt>
<totfact> 0.86759434E+03</totfact>
</mgrwt>
</event>
<event>
 5    1  0.3196850E-002  0.1250027E+03  0.7818608E-02  0.1235065E+00
          4   -1    0    0  501    0  0.00000000000E+00  0.00000000000E+00  0.47089709004E+02  0.47106831714E+02  0.12700000000E+01 0. -1.
         -4   -1    0    0    0  501 -0.00000000000E+00 -0.00000000000E+00 -0.82919938226E+02  0.82929663302E+02  0.12700000000E+01 0. -1.
         25    2    1    2    0    0  0.00000000000E+00  0.00000000000E+00 -0.35830229222E+02  0.13003649502E+03  0.12500273881E+03 0.  0.
    9000005    1    3    3    0    0  0.25045872805E+02  0.46042677162E+02  0.17487635776E+02  0.55263380912E+02  0.10000000000E+01 0.  0.
    9000005    1    3    3    0    0 -0.25045872805E+02 -0.46042677162E+02 -0.53317864998E+02  0.74773114103E+02  0.10000000000E+01 0.  0.
<mgrwt>
<rscale>  0 0.12500274E+03</rscale>
<asrwt>0</asrwt>
<pdfrwt beam="1">  1        4 0.72466358E-02 0.12500274E+03</pdfrwt>
<pdfrwt beam="2">  1       -4 0.12758979E-01 0.12500274E+03</pdfrwt>
<totfact> 0.10343087E+04</totfact>
</mgrwt>
</event>
<event>
 5    1  0.3196850E-002  0.1250057E+03  0.7818608E-02  0.1235060E+00
         -4   -1    0    0    0  501 -0.00000000000E+00  0.00000000000E+00  0.19729561692E+02  0.19770394649E+02  0.12700000000E+01 0. -1.
          4   -1    0    0  501    0  0.00000000000E+00 -0.00000000000E+00 -0.19776020950E+03  0.19776428738E+03  0.12700000000E+01 0. -1.
         25    2    1    2    0    0  0.00000000000E+00  0.00000000000E+00 -0.17803064781E+03  0.21753468203E+03  0.12500570517E+03 0.  0.
    9000005    1    3    3    0    0  0.39182858933E+02 -0.20880260699E+02 -0.16555090426E+03  0.17140415287E+03  0.10000000000E+01 0.  0.
    9000005    1    3    3    0    0 -0.39182858933E+02  0.20880260699E+02 -0.12479743551E+02  0.46130529155E+02  0.10000000000E+01 0.  0.
<mgrwt>
<rscale>  0 0.12500571E+03</rscale>
<asrwt>0</asrwt>
<pdfrwt beam="2">  1        4 0.30428101E-01 0.12500571E+03</pdfrwt>
<pdfrwt beam="1">  1       -4 0.30387720E-02 0.12500571E+03</pdfrwt>
<totfact> 0.87248842E+03</totfact>
</mgrwt>
</event>
<event>
 5    1  0.3196850E-002  0.1249992E+03  0.7818608E-02  0.1235071E+00
         -4   -1    0    0    0  501 -0.00000000000E+00  0.00000000000E+00  0.58529920002E+02  0.58543696803E+02  0.12700000000E+01 0.  1.
          4   -1    0    0  501    0  0.00000000000E+00 -0.00000000000E+00 -0.66710833607E+02  0.66722921253E+02  0.12700000000E+01 0.  1.
         25    2    1    2    0    0  0.00000000000E+00  0.00000000000E+00 -0.81809136058E+01  0.12526661806E+03  0.12499919301E+03 0.  0.
    9000005    1    3    3    0    0 -0.62355735048E+01 -0.15241889735E+02  0.56321196771E+02  0.58687944123E+02  0.10000000000E+01 0.  0.
    9000005    1    3    3    0    0  0.62355735048E+01  0.15241889735E+02 -0.64502110377E+02  0.66578673934E+02  0.10000000000E+01 0.  0.
<mgrwt>
<rscale>  0 0.12499919E+03</rscale>
<asrwt>0</asrwt>
<pdfrwt beam="2">  1        4 0.10265195E-01 0.12499919E+03</pdfrwt>
<pdfrwt beam="1">  1       -4 0.90065927E-02 0.12499919E+03</pdfrwt>
<totfact> 0.10447265E+04</totfact>
</mgrwt>
</event>
<event>
 5    1  0.3196850E-002  0.1249994E+03  0.7818608E-02  0.1235070E+00
          4   -1    0    0  501    0  0.00000000000E+00  0.00000000000E+00  0.40409426220E+02  0.40429378271E+02  0.12700000000E+01 0.  1.
         -4   -1    0    0    0  501 -0.00000000000E+00 -0.00000000000E+00 -0.96617952668E+02  0.96626299100E+02  0.12700000000E+01 0.  1.
         25    2    1    2    0    0  0.00000000000E+00  0.00000000000E+00 -0.56208526448E+02  0.13705567737E+03  0.12499944102E+03 0.  0.
    9000005    1    3    3    0    0 -0.27113230151E+01 -0.23388293661E+02  0.35365452184E+02  0.42497985376E+02  0.10000000000E+01 0.  0.
    9000005    1    3    3    0    0  0.27113230151E+01  0.23388293661E+02 -0.91573978632E+02  0.94557691995E+02  0.10000000000E+01 0.  0.
<mgrwt>
<rscale>  0 0.12499944E+03</rscale>
<asrwt>0</asrwt>
<pdfrwt beam="1">  1        4 0.62190116E-02 0.12499944E+03</pdfrwt>
<pdfrwt beam="2">  1       -4 0.14866477E-01 0.12499944E+03</pdfrwt>
<totfact> 0.10195050E+04</totfact>
</mgrwt>
</event>
<event>
 5    1  0.3196850E-002  0.1249948E+03  0.7818608E-02  0.1235077E+00
          4   -1    0    0  501    0  0.00000000000E+00  0.00000000000E+00  0.31492498354E+03  0.31492754430E+03  0.12700000000E+01 0.  1.
         -4   -1    0    0    0  501 -0.00000000000E+00 -0.00000000000E+00 -0.12367582389E+02  0.12432618153E+02  0.12700000000E+01 0.  1.
         25    2    1    2    0    0  0.00000000000E+00  0.00000000000E+00  0.30255740116E+03  0.32736016246E+03  0.12499477977E+03 0.  0.
    9000005    1    3    3    0    0  0.47770259862E+02  0.21871849007E+02  0.23988222596E+03  0.24557047428E+03  0.10000000000E+01 0.  0.
    9000005    1    3    3    0    0 -0.47770259862E+02 -0.21871849007E+02  0.62675175197E+02  0.81789688178E+02  0.10000000000E+01 0.  0.
<mgrwt>
<rscale>  0 0.12499478E+03</rscale>
<asrwt>0</asrwt>
<pdfrwt beam="1">  1        4 0.48455191E-01 0.12499478E+03</pdfrwt>
<pdfrwt beam="2">  1       -4 0.19079050E-02 0.12499478E+03</pdfrwt>
<totfact> 0.72297564E+03</totfact>
</mgrwt>
</event>
<event>
 5    1  0.3196850E-002  0.1249967E+03  0.7818608E-02  0.1235074E+00
          4   -1    0    0  501    0  0.00000000000E+00  0.00000000000E+00  0.72751431180E+03  0.72751542030E+03  0.12700000000E+01 0. -1.
         -4   -1    0    0    0  501 -0.00000000000E+00 -0.00000000000E+00 -0.52927981382E+01  0.54430333576E+01  0.12700000000E+01 0. -1.
         25    2    1    2    0    0  0.00000000000E+00  0.00000000000E+00  0.72222151366E+03  0.73295845365E+03  0.12499671992E+03 0.  0.
    9000005    1    3    3    0    0  0.98528166832E+01 -0.41753394436E+02  0.62755167243E+03  0.62901711066E+03  0.10000000000E+01 0.  0.
    9000005    1    3    3    0    0 -0.98528166832E+01  0.41753394436E+02  0.94669841232E+02  0.10394134299E+03  0.10000000000E+01 0.  0.
<mgrwt>
<rscale>  0 0.12499672E+03</rscale>
<asrwt>0</asrwt>
<pdfrwt beam="1">  1        4 0.11193695E+00 0.12499672E+03</pdfrwt>
<pdfrwt beam="2">  1       -4 0.82591822E-03 0.12499672E+03</pdfrwt>
<totfact> 0.41405758E+03</totfact>
</mgrwt>
</event>
<event>
 5    1  0.3196850E-002  0.1249979E+03  0.7818608E-02  0.1235073E+00
          4   -1    0    0  501    0  0.00000000000E+00  0.00000000000E+00  0.10484123879E+02  0.10560764817E+02  0.12700000000E+01 0. -1.
         -4   -1    0    0    0  501 -0.00000000000E+00 -0.00000000000E+00 -0.37114000239E+03  0.37114217528E+03  0.12700000000E+01 0. -1.
         25    2    1    2    0    0  0.00000000000E+00  0.00000000000E+00 -0.36065587851E+03  0.38170294010E+03  0.12499788709E+03 0.  0.
    9000005    1    3    3    0    0 -0.51883546784E+02  0.32813144818E+02 -0.14464916635E+03  0.15714002108E+03  0.10000000000E+01 0.  0.
    9000005    1    3    3    0    0  0.51883546784E+02 -0.32813144818E+02 -0.21600671216E+03  0.22456291902E+03  0.10000000000E+01 0.  0.
<mgrwt>
<rscale>  0 0.12499789E+03</rscale>
<asrwt>0</asrwt>
<pdfrwt beam="1">  1        4 0.16190050E-02 0.12499789E+03</pdfrwt>
<pdfrwt beam="2">  1       -4 0.57104514E-01 0.12499789E+03</pdfrwt>
<totfact> 0.66375209E+03</totfact>
</mgrwt>
</event>
<event>
 4    1  0.3196850E-002  0.1249311E+03  0.7818608E-02  0.1235177E+00
         -4   -1    0    0    0  501 -0.00000000000E+00  0.00000000000E+00  0.36668888733E+03  0.36669108660E+03  0.12700000000E+01 0.  1.
          4   -1    0    0  501    0  0.00000000000E+00 -0.00000000000E+00 -0.10600887153E+02  0.10676689957E+02  0.12700000000E+01 0.  1.
    9000005    1    1    2    0    0 -0.86543596002E+01 -0.52550344074E+02  0.27659671732E+03  0.28167921583E+03  0.10000000000E+01 0.  0.
    9000005    1    1    2    0    0  0.86543596002E+01  0.52550344074E+02  0.79491282862E+02  0.95688560724E+02  0.10000000000E+01 0.  0.
<mgrwt>
<rscale>  0 0.12493108E+03</rscale>
<asrwt>0</asrwt>
<pdfrwt beam="2">  1        4 0.16369060E-02 0.12493108E+03</pdfrwt>
<pdfrwt beam="1">  1       -4 0.56419671E-01 0.12493108E+03</pdfrwt>
<totfact> 0.66916980E+03</totfact>
</mgrwt>
</event>
<event>
 5    1  0.3196850E-002  0.1249943E+03  0.7818608E-02  0.1235078E+00
         -4   -1    0    0    0  501 -0.00000000000E+00  0.00000000000E+00  0.25164362211E+03  0.25164682682E+03  0.12700000000E+01 0.  1.
          4   -1    0    0  501    0  0.00000000000E+00 -0.00000000000E+00 -0.15492233783E+02  0.15544201735E+02  0.12700000000E+01 0.  1.
         25    2    1    2    0    0  0.00000000000E+00  0.00000000000E+00  0.23615138833E+03  0.26719102856E+03  0.12499426999E+03 0.  0.
    9000005    1    3    3    0    0 -0.20563256837E+02  0.44767486436E+02  0.20025391179E+03  0.20622707039E+03  0.10000000000E+01 0.  0.
    9000005    1    3    3    0    0  0.20563256837E+02 -0.44767486436E+02  0.35897476535E+02  0.60963958164E+02  0.10000000000E+01 0.  0.
<mgrwt>
<rscale>  0 0.12499427E+03</rscale>
<asrwt>0</asrwt>
<pdfrwt beam="2">  1        4 0.23876645E-02 0.12499427E+03</pdfrwt>
<pdfrwt beam="1">  1       -4 0.38718650E-01 0.12499427E+03</pdfrwt>
<totfact> 0.79917559E+03</totfact>
</mgrwt>
</event>
<event>
 5    1  0.3196850E-002  0.1249968E+03  0.7818608E-02  0.1235074E+00
          4   -1    0    0  501    0  0.00000000000E+00  0.00000000000E+00  0.96909682888E+01  0.97738306910E+01  0.12700000000E+01 0.  1.
         -4   -1    0    0    0  501 -0.00000000000E+00 -0.00000000000E+00 -0.40126136341E+03  0.40126337319E+03  0.12700000000E+01 0.  1.
         25    2    1    2    0    0  0.00000000000E+00  0.00000000000E+00 -0.39157039512E+03  0.41103720388E+03  0.12499683452E+03 0.  0.
    9000005    1    3    3    0    0  0.54033773793E+02  0.18731268038E+02 -0.27861996605E+03  0.28443029830E+03  0.10000000000E+01 0.  0.
    9000005    1    3    3    0    0 -0.54033773793E+02 -0.18731268038E+02 -0.11295042907E+03  0.12660690558E+03  0.10000000000E+01 0.  0.
<mgrwt>
<rscale>  0 0.12499683E+03</rscale>
<asrwt>0</asrwt>
<pdfrwt beam="1">  1        4 0.14974471E-02 0.12499683E+03</pdfrwt>
<pdfrwt beam="2">  1       -4 0.61739033E-01 0.12499683E+03</pdfrwt>
<totfact> 0.63497737E+03</totfact>
</mgrwt>
</event>
<event>
 4    1  0.3196850E-002  0.1249010E+03  0.7818608E-02  0.1235224E+00
         -4   -1    0    0    0  501 -0.00000000000E+00  0.00000000000E+00  0.30353773127E+01  0.32903518704E+01  0.12700000000E+01 0. -1.
          4   -1    0    0  501    0  0.00000000000E+00 -0.00000000000E+00 -0.12328247980E+04  0.12328254521E+04  0.12700000000E+01 0. -1.
    9000005    1    1    2    0    0 -0.33911586324E+02 -0.22560914150E+02 -0.14648651367E+03  0.15204699675E+03  0.10000000000E+01 0.  0.
    9000005    1    1    2    0    0  0.33911586324E+02  0.22560914150E+02 -0.10833029070E+04  0.10840688072E+04  0.10000000000E+01 0.  0.
<mgrwt>
<rscale>  0 0.12490101E+03</rscale>
<asrwt>0</asrwt>
<pdfrwt beam="2">  1        4 0.18968463E+00 0.12490101E+03</pdfrwt>
<pdfrwt beam="1">  1       -4 0.48664586E-03 0.12490101E+03</pdfrwt>
<totfact> 0.23838021E+03</totfact>
</mgrwt>
</event>
<event>
 5    1  0.3196850E-002  0.1250030E+03  0.7818608E-02  0.1235065E+00
         -4   -1    0    0    0  501 -0.00000000000E+00  0.00000000000E+00  0.67366164687E+03  0.67366284398E+03  0.12700000000E+01 0.  1.
          4   -1    0    0  501    0  0.00000000000E+00 -0.00000000000E+00 -0.57280577004E+01  0.58671581724E+01  0.12700000000E+01 0.  1.
         25    2    1    2    0    0  0.00000000000E+00  0.00000000000E+00  0.66793358917E+03  0.67953000216E+03  0.12500297712E+03 0.  0.
    9000005    1    3    3    0    0  0.52703363093E+02  0.93824599463E+01  0.15867763894E+03  0.16746721510E+03  0.10000000000E+01 0.  0.
    9000005    1    3    3    0    0 -0.52703363093E+02 -0.93824599463E+01  0.50925595023E+03  0.51206278705E+03  0.10000000000E+01 0.  0.
<mgrwt>
<rscale>  0 0.12500298E+03</rscale>
<asrwt>0</asrwt>
<pdfrwt beam="2">  1        4 0.89203209E-03 0.12500298E+03</pdfrwt>
<pdfrwt beam="1">  1       -4 0.10365101E+00 0.12500298E+03</pdfrwt>
<totfact> 0.44186668E+03</totfact>
</mgrwt>
</event>
<event>
 5    1  0.3196850E-002  0.1249964E+03  0.7818608E-02  0.1235075E+00
         -4   -1    0    0    0  501 -0.00000000000E+00  0.00000000000E+00  0.36119482257E+02  0.36141802646E+02  0.12700000000E+01 0.  1.
          4   -1    0    0  501    0  0.00000000000E+00 -0.00000000000E+00 -0.10808226206E+03  0.10808972325E+03  0.12700000000E+01 0.  1.
         25    2    1    2    0    0  0.00000000000E+00  0.00000000000E+00 -0.71962779804E+02  0.14423152590E+03  0.12499636549E+03 0.  0.
    9000005    1    3    3    0    0 -0.49091617838E+02 -0.27420391874E+02 -0.45253971868E+01  0.56421131256E+02  0.10000000000E+01 0.  0.
    9000005    1    3    3    0    0  0.49091617838E+02  0.27420391874E+02 -0.67437382617E+02  0.87810394639E+02  0.10000000000E+01 0.  0.
<mgrwt>
<rscale>  0 0.12499637E+03</rscale>
<asrwt>0</asrwt>
<pdfrwt beam="2">  1        4 0.16630331E-01 0.12499637E+03</pdfrwt>
<pdfrwt beam="1">  1       -4 0.55591344E-02 0.12499637E+03</pdfrwt>
<totfact> 0.10047448E+04</totfact>
</mgrwt>
</event>
<event>
 5    1  0.3196850E-002  0.1250016E+03  0.7818608E-02  0.1235067E+00
         -4   -1    0    0    0  501 -0.00000000000E+00  0.00000000000E+00  0.68121199810E+02  0.68133037240E+02  0.12700000000E+01 0.  1.
          4   -1    0    0  501    0  0.00000000000E+00 -0.00000000000E+00 -0.57320244284E+02  0.57334311758E+02  0.12700000000E+01 0.  1.
         25    2    1    2    0    0  0.00000000000E+00  0.00000000000E+00  0.10800955526E+02  0.12546734900E+03  0.12500158009E+03 0.  0.
    9000005    1    3    3    0    0 -0.21378701624E+02 -0.25672620025E+02 -0.47609342094E+02  0.58170282419E+02  0.10000000000E+01 0.  0.
    9000005    1    3    3    0    0  0.21378701624E+02  0.25672620025E+02  0.58410297620E+02  0.67297066579E+02  0.10000000000E+01 0.  0.
<mgrwt>
<rscale>  0 0.12500158E+03</rscale>
<asrwt>0</asrwt>
<pdfrwt beam="2">  1        4 0.88204918E-02 0.12500158E+03</pdfrwt>
<pdfrwt beam="1">  1       -4 0.10482177E-01 0.12500158E+03</pdfrwt>
<totfact> 0.10442304E+04</totfact>
</mgrwt>
</event>
<event>
 5    1  0.3196850E-002  0.1249993E+03  0.7818608E-02  0.1235070E+00
         -4   -1    0    0    0  501 -0.00000000000E+00  0.00000000000E+00  0.76513365300E+01  0.77560202872E+01  0.12700000000E+01 0.  1.
          4   -1    0    0  501    0  0.00000000000E+00 -0.00000000000E+00 -0.50695195188E+03  0.50695354266E+03  0.12700000000E+01 0.  1.
         25    2    1    2    0    0  0.00000000000E+00  0.00000000000E+00 -0.49930061535E+03  0.51470956295E+03  0.12499931880E+03 0.  0.
    9000005    1    3    3    0    0 -0.36290158927E+02 -0.34252690027E+02 -0.40454285118E+03  0.40761028060E+03  0.10000000000E+01 0.  0.
    9000005    1    3    3    0    0  0.36290158927E+02  0.34252690027E+02 -0.94757764174E+02  0.10709928235E+03  0.10000000000E+01 0.  0.
<mgrwt>
<rscale>  0 0.12499932E+03</rscale>
<asrwt>0</asrwt>
<pdfrwt beam="2">  1        4 0.78000757E-01 0.12499932E+03</pdfrwt>
<pdfrwt beam="1">  1       -4 0.11853041E-02 0.12499932E+03</pdfrwt>
<totfact> 0.54741709E+03</totfact>
</mgrwt>
</event>
<event>
 5    1  0.3196850E-002  0.1250041E+03  0.7818608E-02  0.1235063E+00
         -4   -1    0    0    0  501 -0.00000000000E+00  0.00000000000E+00  0.29273987520E+02  0.29301522918E+02  0.12700000000E+01 0. -1.
          4   -1    0    0  501    0  0.00000000000E+00 -0.00000000000E+00 -0.13335311465E+03  0.13335916199E+03  0.12700000000E+01 0. -1.
         25    2    1    2    0    0  0.00000000000E+00  0.00000000000E+00 -0.10407912713E+03  0.16266068491E+03  0.12500413478E+03 0.  0.
    9000005    1    3    3    0    0  0.33821096498E+02  0.48609144000E+02 -0.26054010174E+02  0.64703376225E+02  0.10000000000E+01 0.  0.
    9000005    1    3    3    0    0 -0.33821096498E+02 -0.48609144000E+02 -0.78025116958E+02  0.97957308687E+02  0.10000000000E+01 0.  0.
<mgrwt>
<rscale>  0 0.12500413E+03</rscale>
<asrwt>0</asrwt>
<pdfrwt beam="2">  1        4 0.20518447E-01 0.12500413E+03</pdfrwt>
<pdfrwt beam="1">  1       -4 0.45062738E-02 0.12500413E+03</pdfrwt>
<totfact> 0.96823269E+03</totfact>
</mgrwt>
</event>
<event>
 5    1  0.3196850E-002  0.1249981E+03  0.7818608E-02  0.1235072E+00
         -4   -1    0    0    0  501 -0.00000000000E+00  0.00000000000E+00  0.45337787009E+02  0.45355571112E+02  0.12700000000E+01 0.  1.
          4   -1    0    0  501    0  0.00000000000E+00 -0.00000000000E+00 -0.86116792240E+02  0.86126156339E+02  0.12700000000E+01 0.  1.
         25    2    1    2    0    0  0.00000000000E+00  0.00000000000E+00 -0.40779005231E+02  0.13148172745E+03  0.12499806953E+03 0.  0.
    9000005    1    3    3    0    0 -0.20866399142E+01  0.20694617230E+02  0.41595086850E+02  0.46516368071E+02  0.10000000000E+01 0.  0.
    9000005    1    3    3    0    0  0.20866399142E+01 -0.20694617230E+02 -0.82374092081E+02  0.84965359380E+02  0.10000000000E+01 0.  0.
<mgrwt>
<rscale>  0 0.12499807E+03</rscale>
<asrwt>0</asrwt>
<pdfrwt beam="2">  1        4 0.13250826E-01 0.12499807E+03</pdfrwt>
<pdfrwt beam="1">  1       -4 0.69771325E-02 0.12499807E+03</pdfrwt>
<totfact> 0.10313222E+04</totfact>
</mgrwt>
</event>
<event>
 5    1  0.3196850E-002  0.1249947E+03  0.7818608E-02  0.1235078E+00
         -4   -1    0    0    0  501 -0.00000000000E+00  0.00000000000E+00  0.29812314741E+03  0.29812585248E+03  0.12700000000E+01 0.  1.
          4   -1    0    0  501    0  0.00000000000E+00 -0.00000000000E+00 -0.13068144207E+02  0.13129710317E+02  0.12700000000E+01 0.  1.
         25    2    1    2    0    0  0.00000000000E+00  0.00000000000E+00  0.28505500320E+03  0.31125556280E+03  0.12499468199E+03 0.  0.
    9000005    1    3    3    0    0 -0.56416925335E+02 -0.24851350427E+02  0.16797807555E+03  0.17893600238E+03  0.10000000000E+01 0.  0.
    9000005    1    3    3    0    0  0.56416925335E+02  0.24851350427E+02  0.11707692765E+03  0.13231956042E+03  0.10000000000E+01 0.  0.
<mgrwt>
<rscale>  0 0.12499468E+03</rscale>
<asrwt>0</asrwt>
<pdfrwt beam="2">  1        4 0.20154277E-02 0.12499468E+03</pdfrwt>
<pdfrwt beam="1">  1       -4 0.45870042E-01 0.12499468E+03</pdfrwt>
<totfact> 0.74217064E+03</totfact>
</mgrwt>
</event>
<event>
 5    1  0.3196850E-002  0.1250010E+03  0.7818608E-02  0.1235068E+00
         -4   -1    0    0    0  501 -0.00000000000E+00  0.00000000000E+00  0.13782326417E+03  0.13782911538E+03  0.12700000000E+01 0.  1.
          4   -1    0    0  501    0  0.00000000000E+00 -0.00000000000E+00 -0.28322207420E+02  0.28350667243E+02  0.12700000000E+01 0.  1.
         25    2    1    2    0    0  0.00000000000E+00  0.00000000000E+00  0.10950105675E+03  0.16617978263E+03  0.12500095489E+03 0.  0.
    9000005    1    3    3    0    0  0.30646821476E+01  0.52480497627E+02  0.99670933692E+02  0.11268935145E+03  0.10000000000E+01 0.  0.
    9000005    1    3    3    0    0 -0.30646821476E+01 -0.52480497627E+02  0.98301230614E+01  0.53490431174E+02  0.10000000000E+01 0.  0.
<mgrwt>
<rscale>  0 0.12500095E+03</rscale>
<asrwt>0</asrwt>
<pdfrwt beam="2">  1        4 0.43599021E-02 0.12500095E+03</pdfrwt>
<pdfrwt beam="1">  1       -4 0.21206218E-01 0.12500095E+03</pdfrwt>
<totfact> 0.96162364E+03</totfact>
</mgrwt>
</event>
<event>
 5    1  0.3196850E-002  0.1250015E+03  0.7818608E-02  0.1235067E+00
         -4   -1    0    0    0  501 -0.00000000000E+00  0.00000000000E+00  0.48447013460E+01  0.50083960638E+01  0.12700000000E+01 0. -1.
          4   -1    0    0  501    0  0.00000000000E+00 -0.00000000000E+00 -0.79275241785E+03  0.79275343512E+03  0.12700000000E+01 0. -1.
         25    2    1    2    0    0  0.00000000000E+00  0.00000000000E+00 -0.78790771650E+03  0.79776183119E+03  0.12500147831E+03 0.  0.
    9000005    1    3    3    0    0 -0.55586910987E+01  0.55289895833E+02 -0.21148270365E+03  0.21866368142E+03  0.10000000000E+01 0.  0.
    9000005    1    3    3    0    0  0.55586910987E+01 -0.55289895833E+02 -0.57642501285E+03  0.57909814977E+03  0.10000000000E+01 0.  0.
<mgrwt>
<rscale>  0 0.12500148E+03</rscale>
<asrwt>0</asrwt>
<pdfrwt beam="2">  1        4 0.12197448E+00 0.12500148E+03</pdfrwt>
<pdfrwt beam="1">  1       -4 0.75800945E-03 0.12500148E+03</pdfrwt>
<totfact> 0.38363627E+03</totfact>
</mgrwt>
</event>
<event>
 5    1  0.3196850E-002  0.1250140E+03  0.7818608E-02  0.1235047E+00
          4   -1    0    0  501    0  0.00000000000E+00  0.00000000000E+00  0.10935486387E+03  0.10936223824E+03  0.12700000000E+01 0. -1.
         -4   -1    0    0    0  501 -0.00000000000E+00 -0.00000000000E+00 -0.35709019240E+02  0.35731596033E+02  0.12700000000E+01 0. -1.
         25    2    1    2    0    0  0.00000000000E+00  0.00000000000E+00  0.73645844632E+02  0.14509383427E+03  0.12501404046E+03 0.  0.
    9000005    1    3    3    0    0  0.79598296105E+01  0.49155601858E+02  0.80658362120E+02  0.94796642670E+02  0.10000000000E+01 0.  0.
    9000005    1    3    3    0    0 -0.79598296105E+01 -0.49155601858E+02 -0.70125174886E+01  0.50297191601E+02  0.10000000000E+01 0.  0.
<mgrwt>
<rscale>  0 0.12501404E+03</rscale>
<asrwt>0</asrwt>
<pdfrwt beam="1">  1        4 0.16826129E-01 0.12501404E+03</pdfrwt>
<pdfrwt beam="2">  1       -4 0.54959993E-02 0.12501404E+03</pdfrwt>
<totfact> 0.10025912E+04</totfact>
</mgrwt>
</event>
<event>
 5    1  0.3196850E-002  0.1249983E+03  0.7818608E-02  0.1235072E+00
         -4   -1    0    0    0  501 -0.00000000000E+00  0.00000000000E+00  0.74750426141E+03  0.74750534027E+03  0.12700000000E+01 0. -1.
          4   -1    0    0  501    0  0.00000000000E+00 -0.00000000000E+00 -0.51473167864E+01  0.53016761595E+01  0.12700000000E+01 0. -1.
         25    2    1    2    0    0  0.00000000000E+00  0.00000000000E+00  0.74235694463E+03  0.75280701643E+03  0.12499828298E+03 0.  0.
    9000005    1    3    3    0    0  0.28972378880E+01 -0.11799391633E+02  0.74035190338E+03  0.74045226752E+03  0.10000000000E+01 0.  0.
    9000005    1    3    3    0    0 -0.28972378880E+01  0.11799391633E+02  0.20050412453E+01  0.12354748912E+02  0.10000000000E+01 0.  0.
<mgrwt>
<rscale>  0 0.12499828E+03</rscale>
<asrwt>0</asrwt>
<pdfrwt beam="2">  1        4 0.80385159E-03 0.12499828E+03</pdfrwt>
<pdfrwt beam="1">  1       -4 0.11501262E+00 0.12499828E+03</pdfrwt>
<totfact> 0.40441748E+03</totfact>
</mgrwt>
</event>
<event>
 5    1  0.3196850E-002  0.1249976E+03  0.7818608E-02  0.1235073E+00
          4   -1    0    0  501    0  0.00000000000E+00  0.00000000000E+00  0.30816026238E+01  0.33330428637E+01  0.12700000000E+01 0.  1.
         -4   -1    0    0    0  501 -0.00000000000E+00 -0.00000000000E+00 -0.12176166503E+04  0.12176173126E+04  0.12700000000E+01 0.  1.
         25    2    1    2    0    0  0.00000000000E+00  0.00000000000E+00 -0.12145350476E+04  0.12209503554E+04  0.12499755405E+03 0.  0.
    9000005    1    3    3    0    0 -0.48732791970E+02 -0.38402432112E+02 -0.68001321384E+03  0.68283863599E+03  0.10000000000E+01 0.  0.
    9000005    1    3    3    0    0  0.48732791970E+02  0.38402432112E+02 -0.53452183378E+03  0.53811171944E+03  0.10000000000E+01 0.  0.
<mgrwt>
<rscale>  0 0.12499755E+03</rscale>
<asrwt>0</asrwt>
<pdfrwt beam="1">  1        4 0.49348619E-03 0.12499755E+03</pdfrwt>
<pdfrwt beam="2">  1       -4 0.18734466E+00 0.12499755E+03</pdfrwt>
<totfact> 0.24172225E+03</totfact>
</mgrwt>
</event>
<event>
 5    1  0.3196850E-002  0.1250019E+03  0.7818608E-02  0.1235066E+00
         -4   -1    0    0    0  501 -0.00000000000E+00  0.00000000000E+00  0.86928561801E+01  0.87851379367E+01  0.12700000000E+01 0. -1.
          4   -1    0    0  501    0  0.00000000000E+00 -0.00000000000E+00 -0.44691139894E+03  0.44691320343E+03  0.12700000000E+01 0. -1.
         25    2    1    2    0    0  0.00000000000E+00  0.00000000000E+00 -0.43821854276E+03  0.45569834137E+03  0.12500194842E+03 0.  0.
    9000005    1    3    3    0    0 -0.35770402983E+02  0.17488004043E+02 -0.39470199189E+03  0.39670645875E+03  0.10000000000E+01 0.  0.
    9000005    1    3    3    0    0  0.35770402983E+02 -0.17488004043E+02 -0.43516550869E+02  0.58991882615E+02  0.10000000000E+01 0.  0.
<mgrwt>
<rscale>  0 0.12500195E+03</rscale>
<asrwt>0</asrwt>
<pdfrwt beam="2">  1        4 0.68762819E-01 0.12500195E+03</pdfrwt>
<pdfrwt beam="1">  1       -4 0.13446002E-02 0.12500195E+03</pdfrwt>
<totfact> 0.59470763E+03</totfact>
</mgrwt>
</event>
<event>
 5    1  0.3196850E-002  0.1249986E+03  0.7818608E-02  0.1235071E+00
         -4   -1    0    0    0  501 -0.00000000000E+00  0.00000000000E+00  0.32512119469E+02  0.32536914611E+02  0.12700000000E+01 0.  1.
          4   -1    0    0  501    0  0.00000000000E+00 -0.00000000000E+00 -0.12007092082E+03  0.12007763708E+03  0.12700000000E+01 0.  1.
         25    2    1    2    0    0  0.00000000000E+00  0.00000000000E+00 -0.87558801355E+02  0.15261455169E+03  0.12499863077E+03 0.  0.
    9000005    1    3    3    0    0  0.46959781919E+02 -0.40190676102E+02 -0.32545993332E+02  0.69862387916E+02  0.10000000000E+01 0.  0.
    9000005    1    3    3    0    0 -0.46959781919E+02  0.40190676102E+02 -0.55012808023E+02  0.82752163778E+02  0.10000000000E+01 0.  0.
<mgrwt>
<rscale>  0 0.12499863E+03</rscale>
<asrwt>0</asrwt>
<pdfrwt beam="2">  1        4 0.18474873E-01 0.12499863E+03</pdfrwt>
<pdfrwt beam="1">  1       -4 0.50042886E-02 0.12499863E+03</pdfrwt>
<totfact> 0.98788100E+03</totfact>
</mgrwt>
</event>
<event>
 5    1  0.3196850E-002  0.1249793E+03  0.7818608E-02  0.1235102E+00
          4   -1    0    0  501    0  0.00000000000E+00  0.00000000000E+00  0.38867796730E+03  0.38868004215E+03  0.12700000000E+01 0.  1.
         -4   -1    0    0    0  501 -0.00000000000E+00 -0.00000000000E+00 -0.10004520878E+02  0.10084807286E+02  0.12700000000E+01 0.  1.
         25    2    1    2    0    0  0.00000000000E+00  0.00000000000E+00  0.37867344642E+03  0.39876484943E+03  0.12497930276E+03 0.  0.
    9000005    1    3    3    0    0 -0.39920442012E+02 -0.48065538797E+02  0.18889901614E+03  0.19896677112E+03  0.10000000000E+01 0.  0.
    9000005    1    3    3    0    0  0.39920442012E+02  0.48065538797E+02  0.18977443028E+03  0.19979807831E+03  0.10000000000E+01 0.  0.
<mgrwt>
<rscale>  0 0.12497930E+03</rscale>
<asrwt>0</asrwt>
<pdfrwt beam="1">  1        4 0.59802945E-01 0.12497930E+03</pdfrwt>
<pdfrwt beam="2">  1       -4 0.15454926E-02 0.12497930E+03</pdfrwt>
<totfact> 0.64702656E+03</totfact>
</mgrwt>
</event>
<event>
 5    1  0.3196850E-002  0.1249989E+03  0.7818608E-02  0.1235071E+00
          4   -1    0    0  501    0  0.00000000000E+00  0.00000000000E+00  0.82370600652E+02  0.82380390578E+02  0.12700000000E+01 0. -1.
         -4   -1    0    0    0  501 -0.00000000000E+00 -0.00000000000E+00 -0.47400894751E+02  0.47417905091E+02  0.12700000000E+01 0. -1.
         25    2    1    2    0    0  0.00000000000E+00  0.00000000000E+00  0.34969705902E+02  0.12979829567E+03  0.12499886891E+03 0.  0.
    9000005    1    3    3    0    0  0.42823650843E+02 -0.43550230898E+02  0.31209429319E+02  0.68596764947E+02  0.10000000000E+01 0.  0.
    9000005    1    3    3    0    0 -0.42823650843E+02  0.43550230898E+02  0.37602765826E+01  0.61201530722E+02  0.10000000000E+01 0.  0.
<mgrwt>
<rscale>  0 0.12499887E+03</rscale>
<asrwt>0</asrwt>
<pdfrwt beam="1">  1        4 0.12674462E-01 0.12499887E+03</pdfrwt>
<pdfrwt beam="2">  1       -4 0.72945069E-02 0.12499887E+03</pdfrwt>
<totfact> 0.10349088E+04</totfact>
</mgrwt>
</event>
<event>
 5    1  0.3196850E-002  0.1250534E+03  0.7818608E-02  0.1234986E+00
          4   -1    0    0  501    0  0.00000000000E+00  0.00000000000E+00  0.44381563393E+02  0.44399730508E+02  0.12700000000E+01 0.  1.
         -4   -1    0    0    0  501 -0.00000000000E+00 -0.00000000000E+00 -0.88049546804E+02  0.88058705376E+02  0.12700000000E+01 0.  1.
         25    2    1    2    0    0  0.00000000000E+00  0.00000000000E+00 -0.43667983411E+02  0.13245843588E+03  0.12505336645E+03 0.  0.
    9000005    1    3    3    0    0  0.52275840392E+02 -0.24513987971E+02  0.35626029057E+01  0.57856643822E+02  0.10000000000E+01 0.  0.
    9000005    1    3    3    0    0 -0.52275840392E+02  0.24513987971E+02 -0.47230586317E+02  0.74601792062E+02  0.10000000000E+01 0.  0.
<mgrwt>
<rscale>  0 0.12505337E+03</rscale>
<asrwt>0</asrwt>
<pdfrwt beam="1">  1        4 0.68300348E-02 0.12505337E+03</pdfrwt>
<pdfrwt beam="2">  1       -4 0.13548186E-01 0.12505337E+03</pdfrwt>
<totfact> 0.10279543E+04</totfact>
</mgrwt>
</event>
<event>
 5    1  0.3196850E-002  0.1250004E+03  0.7818608E-02  0.1235069E+00
          4   -1    0    0  501    0  0.00000000000E+00  0.00000000000E+00  0.28218846335E+03  0.28219132118E+03  0.12700000000E+01 0.  1.
         -4   -1    0    0    0  501 -0.00000000000E+00 -0.00000000000E+00 -0.13810730532E+02  0.13869000607E+02  0.12700000000E+01 0.  1.
         25    2    1    2    0    0  0.00000000000E+00  0.00000000000E+00  0.26837773282E+03  0.29606032178E+03  0.12500042665E+03 0.  0.
    9000005    1    3    3    0    0  0.30953451667E+01 -0.51115053247E+02  0.49354261532E+02  0.71127863468E+02  0.10000000000E+01 0.  0.
    9000005    1    3    3    0    0 -0.30953451667E+01  0.51115053247E+02  0.21902347128E+03  0.22493245832E+03  0.10000000000E+01 0.  0.
<mgrwt>
<rscale>  0 0.12500043E+03</rscale>
<asrwt>0</asrwt>
<pdfrwt beam="1">  1        4 0.43418310E-01 0.12500043E+03</pdfrwt>
<pdfrwt beam="2">  1       -4 0.21294300E-02 0.12500043E+03</pdfrwt>
<totfact> 0.76094976E+03</totfact>
</mgrwt>
</event>
<event>
 5    1  0.3196850E-002  0.1249976E+03  0.7818608E-02  0.1235073E+00
         -4   -1    0    0    0  501 -0.00000000000E+00  0.00000000000E+00  0.46072928672E+02  0.46090429119E+02  0.12700000000E+01 0.  1.
          4   -1    0    0  501    0  0.00000000000E+00 -0.00000000000E+00 -0.84742464388E+02  0.84751980334E+02  0.12700000000E+01 0.  1.
         25    2    1    2    0    0  0.00000000000E+00  0.00000000000E+00 -0.38669535716E+02  0.13084240945E+03  0.12499761245E+03 0.  0.
    9000005    1    3    3    0    0  0.86111546514E+01 -0.55972610767E+02 -0.46990132678E+02  0.73594549456E+02  0.10000000000E+01 0.  0.
    9000005    1    3    3    0    0 -0.86111546514E+01  0.55972610767E+02  0.83205969620E+01  0.57247859998E+02  0.10000000000E+01 0.  0.
<mgrwt>
<rscale>  0 0.12499761E+03</rscale>
<asrwt>0</asrwt>
<pdfrwt beam="2">  1        4 0.13039380E-01 0.12499761E+03</pdfrwt>
<pdfrwt beam="1">  1       -4 0.70902211E-02 0.12499761E+03</pdfrwt>
<totfact> 0.10327025E+04</totfact>
</mgrwt>
</event>
<event>
 5    1  0.3196850E-002  0.1249953E+03  0.7818608E-02  0.1235077E+00
         -4   -1    0    0    0  501 -0.00000000000E+00  0.00000000000E+00  0.16996358666E+02  0.17043741019E+02  0.12700000000E+01 0.  1.
          4   -1    0    0  501    0  0.00000000000E+00 -0.00000000000E+00 -0.22944247088E+03  0.22944598568E+03  0.12700000000E+01 0.  1.
         25    2    1    2    0    0  0.00000000000E+00  0.00000000000E+00 -0.21244611221E+03  0.24648972670E+03  0.12499533900E+03 0.  0.
    9000005    1    3    3    0    0 -0.22477989883E+02  0.42330349897E+02 -0.18529573238E+03  0.19139651771E+03  0.10000000000E+01 0.  0.
    9000005    1    3    3    0    0  0.22477989883E+02 -0.42330349897E+02 -0.27150379830E+02  0.55093208987E+02  0.10000000000E+01 0.  0.
<mgrwt>
<rscale>  0 0.12499534E+03</rscale>
<asrwt>0</asrwt>
<pdfrwt beam="2">  1        4 0.35302755E-01 0.12499534E+03</pdfrwt>
<pdfrwt beam="1">  1       -4 0.26187397E-02 0.12499534E+03</pdfrwt>
<totfact> 0.82848838E+03</totfact>
</mgrwt>
</event>
<event>
 5    1  0.3196850E-002  0.1249999E+03  0.7818608E-02  0.1235069E+00
         -4   -1    0    0    0  501 -0.00000000000E+00  0.00000000000E+00  0.45290466738E+02  0.45308269414E+02  0.12700000000E+01 0. -1.
          4   -1    0    0  501    0  0.00000000000E+00 -0.00000000000E+00 -0.86209272273E+02  0.86218626327E+02  0.12700000000E+01 0. -1.
         25    2    1    2    0    0  0.00000000000E+00  0.00000000000E+00 -0.40918805535E+02  0.13152689574E+03  0.12499990263E+03 0.  0.
    9000005    1    3    3    0    0  0.37511987391E+02 -0.49964542484E+02 -0.21806572329E+02  0.66182560395E+02  0.10000000000E+01 0.  0.
    9000005    1    3    3    0    0 -0.37511987391E+02  0.49964542484E+02 -0.19112233206E+02  0.65344335346E+02  0.10000000000E+01 0.  0.
<mgrwt>
<rscale>  0 0.12499990E+03</rscale>
<asrwt>0</asrwt>
<pdfrwt beam="2">  1        4 0.13265054E-01 0.12499990E+03</pdfrwt>
<pdfrwt beam="1">  1       -4 0.69698531E-02 0.12499990E+03</pdfrwt>
<totfact> 0.10311829E+04</totfact>
</mgrwt>
</event>
<event>
 5    1  0.3196850E-002  0.1249974E+03  0.7818608E-02  0.1235073E+00
          4   -1    0    0  501    0  0.00000000000E+00  0.00000000000E+00  0.51942392208E+03  0.51942547467E+03  0.12700000000E+01 0. -1.
         -4   -1    0    0    0  501 -0.00000000000E+00 -0.00000000000E+00 -0.74648381519E+01  0.75721006751E+01  0.12700000000E+01 0. -1.
         25    2    1    2    0    0  0.00000000000E+00  0.00000000000E+00  0.51195908393E+03  0.52699757534E+03  0.12499736316E+03 0.  0.
    9000005    1    3    3    0    0  0.64016844268E+01  0.61779040540E+02  0.28502265709E+03  0.29171312358E+03  0.10000000000E+01 0.  0.
    9000005    1    3    3    0    0 -0.64016844268E+01 -0.61779040540E+02  0.22693642684E+03  0.23528445176E+03  0.10000000000E+01 0.  0.
<mgrwt>
<rscale>  0 0.12499736E+03</rscale>
<asrwt>0</asrwt>
<pdfrwt beam="1">  1        4 0.79919793E-01 0.12499736E+03</pdfrwt>
<pdfrwt beam="2">  1       -4 0.11568063E-02 0.12499736E+03</pdfrwt>
<totfact> 0.53831981E+03</totfact>
</mgrwt>
</event>
<event>
 5    1  0.3196850E-002  0.1250016E+03  0.7818608E-02  0.1235067E+00
          4   -1    0    0  501    0  0.00000000000E+00  0.00000000000E+00  0.27617742328E+02  0.27646927339E+02  0.12700000000E+01 0. -1.
         -4   -1    0    0    0  501 -0.00000000000E+00 -0.00000000000E+00 -0.14133668974E+03  0.14134239551E+03  0.12700000000E+01 0. -1.
         25    2    1    2    0    0  0.00000000000E+00  0.00000000000E+00 -0.11371894742E+03  0.16898932285E+03  0.12500156893E+03 0.  0.
    9000005    1    3    3    0    0  0.44404495428E+02 -0.10263690673E+02  0.94494764602E+00  0.45596002966E+02  0.10000000000E+01 0.  0.
    9000005    1    3    3    0    0 -0.44404495428E+02  0.10263690673E+02 -0.11466389506E+03  0.12339331988E+03  0.10000000000E+01 0.  0.
<mgrwt>
<rscale>  0 0.12500157E+03</rscale>
<asrwt>0</asrwt>
<pdfrwt beam="1">  1        4 0.42515674E-02 0.12500157E+03</pdfrwt>
<pdfrwt beam="2">  1       -4 0.21746790E-01 0.12500157E+03</pdfrwt>
<totfact> 0.95633798E+03</totfact>
</mgrwt>
</event>
<event>
 5    1  0.3196850E-002  0.1250018E+03  0.7818608E-02  0.1235066E+00
          4   -1    0    0  501    0  0.00000000000E+00  0.00000000000E+00  0.11360580780E+02  0.11431347062E+02  0.12700000000E+01 0.  1.
         -4   -1    0    0    0  501 -0.00000000000E+00 -0.00000000000E+00 -0.34271271693E+03  0.34271507006E+03  0.12700000000E+01 0.  1.
         25    2    1    2    0    0  0.00000000000E+00  0.00000000000E+00 -0.33135213615E+03  0.35414641712E+03  0.12500178650E+03 0.  0.
    9000005    1    3    3    0    0 -0.62067522246E+02 -0.69899777386E+01 -0.17142987052E+03  0.18245667325E+03  0.10000000000E+01 0.  0.
    9000005    1    3    3    0    0  0.62067522246E+02  0.69899777386E+01 -0.15992226564E+03  0.17168974388E+03  0.10000000000E+01 0.  0.
<mgrwt>
<rscale>  0 0.12500179E+03</rscale>
<asrwt>0</asrwt>
<pdfrwt beam="1">  1        4 0.17534065E-02 0.12500179E+03</pdfrwt>
<pdfrwt beam="2">  1       -4 0.52730650E-01 0.12500179E+03</pdfrwt>
<totfact> 0.69268061E+03</totfact>
</mgrwt>
</event>
<event>
 5    1  0.3196850E-002  0.1249989E+03  0.7818608E-02  0.1235071E+00
          4   -1    0    0  501    0  0.00000000000E+00  0.00000000000E+00  0.17624510021E+02  0.17670208077E+02  0.12700000000E+01 0.  1.
         -4   -1    0    0    0  501 -0.00000000000E+00 -0.00000000000E+00 -0.22129903186E+03  0.22130267599E+03  0.12700000000E+01 0.  1.
         25    2    1    2    0    0  0.00000000000E+00  0.00000000000E+00 -0.20367452184E+03  0.23897288407E+03  0.12499891389E+03 0.  0.
    9000005    1    3    3    0    0  0.24923667331E+02  0.31390493142E+02 -0.10177882450E+02  0.41365946672E+02  0.10000000000E+01 0.  0.
    9000005    1    3    3    0    0 -0.24923667331E+02 -0.31390493142E+02 -0.19349663939E+03  0.19760693740E+03  0.10000000000E+01 0.  0.
<mgrwt>
<rscale>  0 0.12499891E+03</rscale>
<asrwt>0</asrwt>
<pdfrwt beam="1">  1        4 0.27152588E-02 0.12499891E+03</pdfrwt>
<pdfrwt beam="2">  1       -4 0.34049798E-01 0.12499891E+03</pdfrwt>
<totfact> 0.83952610E+03</totfact>
</mgrwt>
</event>
<event>
 5    1  0.3196850E-002  0.1249987E+03  0.7818608E-02  0.1235071E+00
          4   -1    0    0  501    0  0.00000000000E+00  0.00000000000E+00  0.17699344660E+03  0.17699800293E+03  0.12700000000E+01 0. -1.
         -4   -1    0    0    0  501 -0.00000000000E+00 -0.00000000000E+00 -0.22046450218E+02  0.22082999506E+02  0.12700000000E+01 0. -1.
         25    2    1    2    0    0  0.00000000000E+00  0.00000000000E+00  0.15494699639E+03  0.19908100244E+03  0.12499869536E+03 0.  0.
    9000005    1    3    3    0    0  0.25006780408E+02 -0.19793738504E+02 -0.81170362972E+01  0.32924419943E+02  0.10000000000E+01 0.  0.
    9000005    1    3    3    0    0 -0.25006780408E+02  0.19793738504E+02  0.16306403268E+03  0.16615658249E+03  0.10000000000E+01 0.  0.
<mgrwt>
<rscale>  0 0.12499870E+03</rscale>
<asrwt>0</asrwt>
<pdfrwt beam="1">  1        4 0.27232923E-01 0.12499870E+03</pdfrwt>
<pdfrwt beam="2">  1       -4 0.33949235E-02 0.12499870E+03</pdfrwt>
<totfact> 0.90293370E+03</totfact>
</mgrwt>
</event>
<event>
 5    1  0.3196850E-002  0.1250050E+03  0.7818608E-02  0.1235061E+00
          4   -1    0    0  501    0  0.00000000000E+00  0.00000000000E+00  0.21301352895E+02  0.21339178409E+02  0.12700000000E+01 0. -1.
         -4   -1    0    0    0  501 -0.00000000000E+00 -0.00000000000E+00 -0.18319232915E+03  0.18319673130E+03  0.12700000000E+01 0. -1.
         25    2    1    2    0    0  0.00000000000E+00  0.00000000000E+00 -0.16189097625E+03  0.20453590971E+03  0.12500500057E+03 0.  0.
    9000005    1    3    3    0    0 -0.32238032552E+02  0.39925477134E+02 -0.22584227020E+02  0.56074787358E+02  0.10000000000E+01 0.  0.
    9000005    1    3    3    0    0  0.32238032552E+02 -0.39925477134E+02 -0.13930674923E+03  0.14846112235E+03  0.10000000000E+01 0.  0.
<mgrwt>
<rscale>  0 0.12500500E+03</rscale>
<asrwt>0</asrwt>
<pdfrwt beam="1">  1        4 0.32803796E-02 0.12500500E+03</pdfrwt>
<pdfrwt beam="2">  1       -4 0.28186682E-01 0.12500500E+03</pdfrwt>
<totfact> 0.89366091E+03</totfact>
</mgrwt>
</event>
<event>
 5    1  0.3196850E-002  0.1249933E+03  0.7818608E-02  0.1235080E+00
          4   -1    0    0  501    0  0.00000000000E+00  0.00000000000E+00  0.18869404188E+03  0.18869831568E+03  0.12700000000E+01 0. -1.
         -4   -1    0    0    0  501 -0.00000000000E+00 -0.00000000000E+00 -0.20675288793E+02  0.20714257570E+02  0.12700000000E+01 0. -1.
         25    2    1    2    0    0  0.00000000000E+00  0.00000000000E+00  0.16801875309E+03  0.20941257325E+03  0.12499329761E+03 0.  0.
    9000005    1    3    3    0    0  0.22264746331E+02 -0.55540729948E+02  0.53836553307E+02  0.80497615395E+02  0.10000000000E+01 0.  0.
    9000005    1    3    3    0    0 -0.22264746331E+02  0.55540729948E+02  0.11418219978E+03  0.12891495785E+03  0.10000000000E+01 0.  0.
<mgrwt>
<rscale>  0 0.12499330E+03</rscale>
<asrwt>0</asrwt>
<pdfrwt beam="1">  1        4 0.29033179E-01 0.12499330E+03</pdfrwt>
<pdfrwt beam="2">  1       -4 0.31841400E-02 0.12499330E+03</pdfrwt>
<totfact> 0.88585179E+03</totfact>
</mgrwt>
</event>
<event>
 5    1  0.3196850E-002  0.1249986E+03  0.7818608E-02  0.1235071E+00
          4   -1    0    0  501    0  0.00000000000E+00  0.00000000000E+00  0.48877645509E+01  0.50500635941E+01  0.12700000000E+01 0.  1.
         -4   -1    0    0    0  501 -0.00000000000E+00 -0.00000000000E+00 -0.78595736367E+03  0.78595838974E+03  0.12700000000E+01 0.  1.
         25    2    1    2    0    0  0.00000000000E+00  0.00000000000E+00 -0.78106959912E+03  0.79100845334E+03  0.12499861832E+03 0.  0.
    9000005    1    3    3    0    0  0.28972226123E+02 -0.52607925157E+02 -0.49980837296E+03  0.50340480069E+03  0.10000000000E+01 0.  0.
    9000005    1    3    3    0    0 -0.28972226123E+02  0.52607925157E+02 -0.28126122616E+03  0.28760365265E+03  0.10000000000E+01 0.  0.
<mgrwt>
<rscale>  0 0.12499862E+03</rscale>
<asrwt>0</asrwt>
<pdfrwt beam="1">  1        4 0.76452787E-03 0.12499862E+03</pdfrwt>
<pdfrwt beam="2">  1       -4 0.12092898E+00 0.12499862E+03</pdfrwt>
<totfact> 0.38670494E+03</totfact>
</mgrwt>
</event>
<event>
 5    1  0.3196850E-002  0.1249983E+03  0.7818608E-02  0.1235072E+00
          4   -1    0    0  501    0  0.00000000000E+00  0.00000000000E+00  0.15853737350E+03  0.15854246023E+03  0.12700000000E+01 0. -1.
         -4   -1    0    0    0  501 -0.00000000000E+00 -0.00000000000E+00 -0.24616766796E+02  0.24649505218E+02  0.12700000000E+01 0. -1.
         25    2    1    2    0    0  0.00000000000E+00  0.00000000000E+00  0.13392060670E+03  0.18319196545E+03  0.12499826921E+03 0.  0.
    9000005    1    3    3    0    0  0.35486869486E+02 -0.47149067198E+02  0.36825770812E+02  0.69566441906E+02  0.10000000000E+01 0.  0.
    9000005    1    3    3    0    0 -0.35486869486E+02  0.47149067198E+02  0.97094835891E+02  0.11362552354E+03  0.10000000000E+01 0.  0.
<mgrwt>
<rscale>  0 0.12499827E+03</rscale>
<asrwt>0</asrwt>
<pdfrwt beam="1">  1        4 0.24393275E-01 0.12499827E+03</pdfrwt>
<pdfrwt beam="2">  1       -4 0.37901046E-02 0.12499827E+03</pdfrwt>
<totfact> 0.93049184E+03</totfact>
</mgrwt>
</event>
<event>
 5    1  0.3196850E-002  0.1250051E+03  0.7818608E-02  0.1235061E+00
         -4   -1    0    0    0  501 -0.00000000000E+00  0.00000000000E+00  0.15705959444E+02  0.15757222537E+02  0.12700000000E+01 0. -1.
          4   -1    0    0  501    0  0.00000000000E+00 -0.00000000000E+00 -0.24827351457E+03  0.24827676278E+03  0.12700000000E+01 0. -1.
         25    2    1    2    0    0  0.00000000000E+00  0.00000000000E+00 -0.23256755512E+03  0.26403398531E+03  0.12500511072E+03 0.  0.
    9000005    1    3    3    0    0  0.34642249163E+02 -0.26920093351E+02 -0.21028890908E+03  0.21481899855E+03  0.10000000000E+01 0.  0.
    9000005    1    3    3    0    0 -0.34642249163E+02  0.26920093351E+02 -0.22278646037E+02  0.49214986766E+02  0.10000000000E+01 0.  0.
<mgrwt>
<rscale>  0 0.12500511E+03</rscale>
<asrwt>0</asrwt>
<pdfrwt beam="2">  1        4 0.38200116E-01 0.12500511E+03</pdfrwt>
<pdfrwt beam="1">  1       -4 0.24204948E-02 0.12500511E+03</pdfrwt>
<totfact> 0.80334125E+03</totfact>
</mgrwt>
</event>
<event>
 5    1  0.3196850E-002  0.1250002E+03  0.7818608E-02  0.1235069E+00
          4   -1    0    0  501    0  0.00000000000E+00  0.00000000000E+00  0.10954127323E+03  0.10954863505E+03  0.12700000000E+01 0. -1.
         -4   -1    0    0    0  501 -0.00000000000E+00 -0.00000000000E+00 -0.35640315607E+02  0.35662935894E+02  0.12700000000E+01 0. -1.
         25    2    1    2    0    0  0.00000000000E+00  0.00000000000E+00  0.73900957622E+02  0.14521157094E+03  0.12500019519E+03 0.  0.
    9000005    1    3    3    0    0  0.57110653376E+02 -0.15854748493E+02  0.13942477967E+02  0.60896571912E+02  0.10000000000E+01 0.  0.
    9000005    1    3    3    0    0 -0.57110653376E+02  0.15854748493E+02  0.59958479654E+02  0.84314999029E+02  0.10000000000E+01 0.  0.
<mgrwt>
<rscale>  0 0.12500020E+03</rscale>
<asrwt>0</asrwt>
<pdfrwt beam="1">  1        4 0.16854810E-01 0.12500020E+03</pdfrwt>
<pdfrwt beam="2">  1       -4 0.54854318E-02 0.12500020E+03</pdfrwt>
<totfact> 0.10026647E+04</totfact>
</mgrwt>
</event>
<event>
 5    1  0.3196850E-002  0.1250100E+03  0.7818608E-02  0.1235054E+00
         -4   -1    0    0    0  501 -0.00000000000E+00  0.00000000000E+00  0.46529804531E+02  0.46547133206E+02  0.12700000000E+01 0.  1.
          4   -1    0    0  501    0  0.00000000000E+00 -0.00000000000E+00 -0.83927231147E+02  0.83936839516E+02  0.12700000000E+01 0.  1.
         25    2    1    2    0    0  0.00000000000E+00  0.00000000000E+00 -0.37397426616E+02  0.13048397272E+03  0.12500999808E+03 0.  0.
    9000005    1    3    3    0    0  0.39770106917E+02  0.68708014638E+01  0.31108755366E+02  0.50966890992E+02  0.10000000000E+01 0.  0.
    9000005    1    3    3    0    0 -0.39770106917E+02 -0.68708014638E+01 -0.68506181983E+02  0.79517081730E+02  0.10000000000E+01 0.  0.
<mgrwt>
<rscale>  0 0.12501000E+03</rscale>
<asrwt>0</asrwt>
<pdfrwt beam="2">  1        4 0.12913954E-01 0.12501000E+03</pdfrwt>
<pdfrwt beam="1">  1       -4 0.71605036E-02 0.12501000E+03</pdfrwt>
<totfact> 0.10331833E+04</totfact>
</mgrwt>
</event>
<event>
 5    1  0.3196850E-002  0.1250006E+03  0.7818608E-02  0.1235068E+00
          4   -1    0    0  501    0  0.00000000000E+00  0.00000000000E+00  0.13689868105E+03  0.13690457177E+03  0.12700000000E+01 0.  1.
         -4   -1    0    0    0  501 -0.00000000000E+00 -0.00000000000E+00 -0.28513530869E+02  0.28541799919E+02  0.12700000000E+01 0.  1.
         25    2    1    2    0    0  0.00000000000E+00  0.00000000000E+00  0.10838515018E+03  0.16544637169E+03  0.12500064451E+03 0.  0.
    9000005    1    3    3    0    0  0.61431660517E+02 -0.55635495800E+01  0.67460490983E+02  0.91415096355E+02  0.10000000000E+01 0.  0.
    9000005    1    3    3    0    0 -0.61431660517E+02  0.55635495800E+01  0.40924659193E+02  0.74031275336E+02  0.10000000000E+01 0.  0.
<mgrwt>
<rscale>  0 0.12500064E+03</rscale>
<asrwt>0</asrwt>
<pdfrwt beam="1">  1        4 0.21063964E-01 0.12500064E+03</pdfrwt>
<pdfrwt beam="2">  1       -4 0.43893246E-02 0.12500064E+03</pdfrwt>
<totfact> 0.96301528E+03</totfact>
</mgrwt>
</event>
<event>
 5    1  0.3196850E-002  0.1249920E+03  0.7818608E-02  0.1235082E+00
          4   -1    0    0  501    0  0.00000000000E+00  0.00000000000E+00  0.22098795526E+01  0.25488169093E+01  0.12700000000E+01 0.  1.
         -4   -1    0    0    0  501 -0.00000000000E+00 -0.00000000000E+00 -0.16411827598E+04  0.16411832511E+04  0.12700000000E+01 0.  1.
         25    2    1    2    0    0  0.00000000000E+00  0.00000000000E+00 -0.16389728802E+04  0.16437320680E+04  0.12499203770E+03 0.  0.
    9000005    1    3    3    0    0 -0.59170988260E+01  0.37338143862E+02 -0.16516792658E+03  0.16944200488E+03  0.10000000000E+01 0.  0.
    9000005    1    3    3    0    0  0.59170988260E+01 -0.37338143862E+02 -0.14738049536E+04  0.14742900632E+04  0.10000000000E+01 0.  0.
<mgrwt>
<rscale>  0 0.12499204E+03</rscale>
<asrwt>0</asrwt>
<pdfrwt beam="1">  1        4 0.36609268E-03 0.12499204E+03</pdfrwt>
<pdfrwt beam="2">  1       -4 0.25251486E+00 0.12499204E+03</pdfrwt>
<totfact> 0.15271395E+03</totfact>
</mgrwt>
</event>
<event>
 5    1  0.3196850E-002  0.1249977E+03  0.7818608E-02  0.1235073E+00
          4   -1    0    0  501    0  0.00000000000E+00  0.00000000000E+00  0.23557022788E+01  0.26762348975E+01  0.12700000000E+01 0. -1.
         -4   -1    0    0    0  501 -0.00000000000E+00 -0.00000000000E+00 -0.15522061307E+04  0.15522066503E+04  0.12700000000E+01 0. -1.
         25    2    1    2    0    0  0.00000000000E+00  0.00000000000E+00 -0.15498504284E+04  0.15548828852E+04  0.12499774418E+03 0.  0.
    9000005    1    3    3    0    0 -0.52551880608E+02 -0.17145182648E+02 -0.41237779394E+03  0.41606742528E+03  0.10000000000E+01 0.  0.
    9000005    1    3    3    0    0  0.52551880608E+02  0.17145182648E+02 -0.11374726345E+04  0.11388154599E+04  0.10000000000E+01 0.  0.
<mgrwt>
<rscale>  0 0.12499774E+03</rscale>
<asrwt>0</asrwt>
<pdfrwt beam="1">  1        4 0.38711330E-03 0.12499774E+03</pdfrwt>
<pdfrwt beam="2">  1       -4 0.23882487E+00 0.12499774E+03</pdfrwt>
<totfact> 0.16877383E+03</totfact>
</mgrwt>
</event>
<event>
 5    1  0.3196850E-002  0.1250004E+03  0.7818608E-02  0.1235069E+00
         -4   -1    0    0    0  501 -0.00000000000E+00  0.00000000000E+00  0.15064944872E+03  0.15065480179E+03  0.12700000000E+01 0.  1.
          4   -1    0    0  501    0  0.00000000000E+00 -0.00000000000E+00 -0.25908183836E+02  0.25939292390E+02  0.12700000000E+01 0.  1.
         25    2    1    2    0    0  0.00000000000E+00  0.00000000000E+00  0.12474126489E+03  0.17659409418E+03  0.12500036373E+03 0.  0.
    9000005    1    3    3    0    0 -0.27998843472E+02  0.22826471383E+02 -0.96697096801E+01  0.37409708859E+02  0.10000000000E+01 0.  0.
    9000005    1    3    3    0    0  0.27998843472E+02 -0.22826471383E+02  0.13441097457E+03  0.13918438532E+03  0.10000000000E+01 0.  0.
<mgrwt>
<rscale>  0 0.12500036E+03</rscale>
<asrwt>0</asrwt>
<pdfrwt beam="2">  1        4 0.39886791E-02 0.12500036E+03</pdfrwt>
<pdfrwt beam="1">  1       -4 0.23179643E-01 0.12500036E+03</pdfrwt>
<totfact> 0.94232925E+03</totfact>
</mgrwt>
</event>
<event>
 5    1  0.3196850E-002  0.1249981E+03  0.7818608E-02  0.1235072E+00
          4   -1    0    0  501    0  0.00000000000E+00  0.00000000000E+00  0.45295616113E+01  0.47042351547E+01  0.12700000000E+01 0. -1.
         -4   -1    0    0    0  501 -0.00000000000E+00 -0.00000000000E+00 -0.84587622704E+03  0.84587718043E+03  0.12700000000E+01 0. -1.
         25    2    1    2    0    0  0.00000000000E+00  0.00000000000E+00 -0.84134666542E+03  0.85058141558E+03  0.12499813242E+03 0.  0.
    9000005    1    3    3    0    0  0.24161069264E+02  0.45756224301E+02 -0.18224038604E+03  0.18944642418E+03  0.10000000000E+01 0.  0.
    9000005    1    3    3    0    0 -0.24161069264E+02 -0.45756224301E+02 -0.65910627939E+03  0.66113499140E+03  0.10000000000E+01 0.  0.
<mgrwt>
<rscale>  0 0.12499813E+03</rscale>
<asrwt>0</asrwt>
<pdfrwt beam="1">  1        4 0.71036607E-03 0.12499813E+03</pdfrwt>
<pdfrwt beam="2">  1       -4 0.13014819E+00 0.12499813E+03</pdfrwt>
<totfact> 0.36105046E+03</totfact>
</mgrwt>
</event>
<event>
 5    1  0.3196850E-002  0.1250037E+03  0.7818608E-02  0.1235063E+00
         -4   -1    0    0    0  501 -0.00000000000E+00  0.00000000000E+00  0.77784575615E+02  0.77794942661E+02  0.12700000000E+01 0. -1.
          4   -1    0    0  501    0  0.00000000000E+00 -0.00000000000E+00 -0.50200092026E+02  0.50216154168E+02  0.12700000000E+01 0. -1.
         25    2    1    2    0    0  0.00000000000E+00  0.00000000000E+00  0.27584483588E+02  0.12801109683E+03  0.12500374865E+03 0.  0.
    9000005    1    3    3    0    0  0.10044085893E+02  0.13091645790E+02  0.75518478358E+02  0.77306632474E+02  0.10000000000E+01 0.  0.
    9000005    1    3    3    0    0 -0.10044085893E+02 -0.13091645790E+02 -0.47933994770E+02  0.50704464355E+02  0.10000000000E+01 0.  0.
<mgrwt>
<rscale>  0 0.12500375E+03</rscale>
<asrwt>0</asrwt>
<pdfrwt beam="2">  1        4 0.77251242E-02 0.12500375E+03</pdfrwt>
<pdfrwt beam="1">  1       -4 0.11968891E-01 0.12500375E+03</pdfrwt>
<totfact> 0.10386369E+04</totfact>
</mgrwt>
</event>
<event>
 5    1  0.3196850E-002  0.1249977E+03  0.7818608E-02  0.1235073E+00
          4   -1    0    0  501    0  0.00000000000E+00  0.00000000000E+00  0.33336801447E+02  0.33360983659E+02  0.12700000000E+01 0.  1.
         -4   -1    0    0    0  501 -0.00000000000E+00 -0.00000000000E+00 -0.11710079618E+03  0.11710768278E+03  0.12700000000E+01 0.  1.
         25    2    1    2    0    0  0.00000000000E+00  0.00000000000E+00 -0.83763994736E+02  0.15046866644E+03  0.12499765104E+03 0.  0.
    9000005    1    3    3    0    0 -0.15762300407E+02  0.58591492456E+02 -0.59885938803E+02  0.85256898657E+02  0.10000000000E+01 0.  0.
    9000005    1    3    3    0    0  0.15762300407E+02 -0.58591492456E+02 -0.23878055933E+02  0.65211767784E+02  0.10000000000E+01 0.  0.
<mgrwt>
<rscale>  0 0.12499765E+03</rscale>
<asrwt>0</asrwt>
<pdfrwt beam="1">  1        4 0.51311286E-02 0.12499765E+03</pdfrwt>
<pdfrwt beam="2">  1       -4 0.18017897E-01 0.12499765E+03</pdfrwt>
<totfact> 0.99215603E+03</totfact>
</mgrwt>
</event>
<event>
 5    1  0.3196850E-002  0.1249977E+03  0.7818608E-02  0.1235073E+00
          4   -1    0    0  501    0  0.00000000000E+00  0.00000000000E+00  0.18527151625E+04  0.18527155977E+04  0.12700000000E+01 0.  1.
         -4   -1    0    0    0  501 -0.00000000000E+00 -0.00000000000E+00 -0.19165860063E+01  0.22991741821E+01  0.12700000000E+01 0.  1.
         25    2    1    2    0    0  0.00000000000E+00  0.00000000000E+00  0.18507985765E+04  0.18550147719E+04  0.12499773376E+03 0.  0.
    9000005    1    3    3    0    0  0.14717586455E+01 -0.44211491957E+02  0.15804450149E+04  0.15810642831E+04  0.10000000000E+01 0.  0.
    9000005    1    3    3    0    0 -0.14717586455E+01  0.44211491957E+02  0.27035356155E+03  0.27395048884E+03  0.10000000000E+01 0.  0.
<mgrwt>
<rscale>  0 0.12499773E+03</rscale>
<asrwt>0</asrwt>
<pdfrwt beam="1">  1        4 0.28506351E+00 0.12499773E+03</pdfrwt>
<pdfrwt beam="2">  1       -4 0.32432165E-03 0.12499773E+03</pdfrwt>
<totfact> 0.11875101E+03</totfact>
</mgrwt>
</event>
<event>
 5    1  0.3196850E-002  0.1250002E+03  0.7818608E-02  0.1235069E+00
          4   -1    0    0  501    0  0.00000000000E+00  0.00000000000E+00  0.88189880998E+01  0.89099635860E+01  0.12700000000E+01 0. -1.
         -4   -1    0    0    0  501 -0.00000000000E+00 -0.00000000000E+00 -0.44057270286E+03  0.44057453332E+03  0.12700000000E+01 0. -1.
         25    2    1    2    0    0  0.00000000000E+00  0.00000000000E+00 -0.43175371476E+03  0.44948449690E+03  0.12500017098E+03 0.  0.
    9000005    1    3    3    0    0 -0.59093427574E+02 -0.15834350038E+02 -0.17003819400E+03  0.18071177948E+03  0.10000000000E+01 0.  0.
    9000005    1    3    3    0    0  0.59093427574E+02  0.15834350038E+02 -0.26171552076E+03  0.26877271742E+03  0.10000000000E+01 0.  0.
<mgrwt>
<rscale>  0 0.12500017E+03</rscale>
<asrwt>0</asrwt>
<pdfrwt beam="1">  1        4 0.13639067E-02 0.12500017E+03</pdfrwt>
<pdfrwt beam="2">  1       -4 0.67787538E-01 0.12500017E+03</pdfrwt>
<totfact> 0.60008260E+03</totfact>
</mgrwt>
</event>
<event>
 5    1  0.3196850E-002  0.1250012E+03  0.7818608E-02  0.1235067E+00
         -4   -1    0    0    0  501 -0.00000000000E+00  0.00000000000E+00  0.17437291619E+02  0.17483479030E+02  0.12700000000E+01 0. -1.
          4   -1    0    0  501    0  0.00000000000E+00 -0.00000000000E+00 -0.22367717875E+03  0.22368078414E+03  0.12700000000E+01 0. -1.
         25    2    1    2    0    0  0.00000000000E+00  0.00000000000E+00 -0.20623988714E+03  0.24116426318E+03  0.12500124314E+03 0.  0.
    9000005    1    3    3    0    0 -0.34751302253E+02 -0.88325386943E+01 -0.20186631900E+03  0.20502847971E+03  0.10000000000E+01 0.  0.
    9000005    1    3    3    0    0  0.34751302253E+02  0.88325386943E+01 -0.43735681376E+01  0.36135783461E+02  0.10000000000E+01 0.  0.
<mgrwt>
<rscale>  0 0.12500124E+03</rscale>
<asrwt>0</asrwt>
<pdfrwt beam="2">  1        4 0.34415702E-01 0.12500124E+03</pdfrwt>
<pdfrwt beam="1">  1       -4 0.26864906E-02 0.12500124E+03</pdfrwt>
<totfact> 0.83621960E+03</totfact>
</mgrwt>
</event>
<event>
 5    1  0.3196850E-002  0.1250045E+03  0.7818608E-02  0.1235062E+00
         -4   -1    0    0    0  501 -0.00000000000E+00  0.00000000000E+00  0.81312469373E+01  0.82298284767E+01  0.12700000000E+01 0. -1.
          4   -1    0    0  501    0  0.00000000000E+00 -0.00000000000E+00 -0.47744045772E+03  0.47744214683E+03  0.12700000000E+01 0. -1.
         25    2    1    2    0    0  0.00000000000E+00  0.00000000000E+00 -0.46930921078E+03  0.48567197531E+03  0.12500452900E+03 0.  0.
    9000005    1    3    3    0    0 -0.24376519243E+02 -0.54284637919E+02 -0.30883069856E+03  0.31451301559E+03  0.10000000000E+01 0.  0.
    9000005    1    3    3    0    0  0.24376519243E+02  0.54284637919E+02 -0.16047851223E+03  0.17115895971E+03  0.10000000000E+01 0.  0.
<mgrwt>
<rscale>  0 0.12500453E+03</rscale>
<asrwt>0</asrwt>
<pdfrwt beam="2">  1        4 0.73460070E-01 0.12500453E+03</pdfrwt>
<pdfrwt beam="1">  1       -4 0.12586746E-02 0.12500453E+03</pdfrwt>
<totfact> 0.56987769E+03</totfact>
</mgrwt>
</event>
<event>
 5    1  0.3196850E-002  0.1249999E+03  0.7818608E-02  0.1235069E+00
         -4   -1    0    0    0  501 -0.00000000000E+00  0.00000000000E+00  0.40471627048E+02  0.40491548450E+02  0.12700000000E+01 0. -1.
          4   -1    0    0  501    0  0.00000000000E+00 -0.00000000000E+00 -0.96470302498E+02  0.96478661704E+02  0.12700000000E+01 0. -1.
         25    2    1    2    0    0  0.00000000000E+00  0.00000000000E+00 -0.55998675450E+02  0.13697021015E+03  0.12499994727E+03 0.  0.
    9000005    1    3    3    0    0 -0.34157455365E+02  0.42616868681E+02  0.52786077097E+01  0.54879804596E+02  0.10000000000E+01 0.  0.
    9000005    1    3    3    0    0  0.34157455365E+02 -0.42616868681E+02 -0.61277283160E+02  0.82090405558E+02  0.10000000000E+01 0.  0.
<mgrwt>
<rscale>  0 0.12499995E+03</rscale>
<asrwt>0</asrwt>
<pdfrwt beam="2">  1        4 0.14843760E-01 0.12499995E+03</pdfrwt>
<pdfrwt beam="1">  1       -4 0.62285796E-02 0.12499995E+03</pdfrwt>
<totfact> 0.10196721E+04</totfact>
</mgrwt>
</event>
<event>
 5    1  0.3196850E-002  0.1250039E+03  0.7818608E-02  0.1235063E+00
         -4   -1    0    0    0  501 -0.00000000000E+00  0.00000000000E+00  0.36511379967E+02  0.36533460924E+02  0.12700000000E+01 0.  1.
          4   -1    0    0  501    0  0.00000000000E+00 -0.00000000000E+00 -0.10693559954E+03  0.10694314073E+03  0.12700000000E+01 0.  1.
         25    2    1    2    0    0  0.00000000000E+00  0.00000000000E+00 -0.70424219571E+02  0.14347660165E+03  0.12500385802E+03 0.  0.
    9000005    1    3    3    0    0  0.20763517482E+02 -0.23035151025E+02 -0.97486297922E+02  0.10230503469E+03  0.10000000000E+01 0.  0.
    9000005    1    3    3    0    0 -0.20763517482E+02  0.23035151025E+02  0.27062078352E+02  0.41171566957E+02  0.10000000000E+01 0.  0.
<mgrwt>
<rscale>  0 0.12500386E+03</rscale>
<asrwt>0</asrwt>
<pdfrwt beam="2">  1        4 0.16453909E-01 0.12500386E+03</pdfrwt>
<pdfrwt beam="1">  1       -4 0.56194141E-02 0.12500386E+03</pdfrwt>
<totfact> 0.10061158E+04</totfact>
</mgrwt>
</event>
<event>
 5    1  0.3196850E-002  0.1250138E+03  0.7818608E-02  0.1235048E+00
          4   -1    0    0  501    0  0.00000000000E+00  0.00000000000E+00  0.78290339288E+01  0.79313726591E+01  0.12700000000E+01 0. -1.
         -4   -1    0    0    0  501 -0.00000000000E+00 -0.00000000000E+00 -0.49571083725E+03  0.49571246410E+03  0.12700000000E+01 0. -1.
         25    2    1    2    0    0  0.00000000000E+00  0.00000000000E+00 -0.48788180332E+03  0.50364383676E+03  0.12501384042E+03 0.  0.
    9000005    1    3    3    0    0 -0.51402364189E+01 -0.36739853534E+02 -0.41305621092E+02  0.55528309914E+02  0.10000000000E+01 0.  0.
    9000005    1    3    3    0    0  0.51402364189E+01  0.36739853534E+02 -0.44657618223E+03  0.44811552685E+03  0.10000000000E+01 0.  0.
<mgrwt>
<rscale>  0 0.12501384E+03</rscale>
<asrwt>0</asrwt>
<pdfrwt beam="1">  1        4 0.12124645E-02 0.12501384E+03</pdfrwt>
<pdfrwt beam="2">  1       -4 0.76271179E-01 0.12501384E+03</pdfrwt>
<totfact> 0.55565855E+03</totfact>
</mgrwt>
</event>
<event>
 5    1  0.3196850E-002  0.1250086E+03  0.7818608E-02  0.1235056E+00
         -4   -1    0    0    0  501 -0.00000000000E+00  0.00000000000E+00  0.13860764811E+04  0.13860770630E+04  0.12700000000E+01 0.  1.
          4   -1    0    0  501    0  0.00000000000E+00 -0.00000000000E+00 -0.26749253480E+01  0.29611020950E+01  0.12700000000E+01 0.  1.
         25    2    1    2    0    0  0.00000000000E+00  0.00000000000E+00  0.13834015558E+04  0.13890381650E+04  0.12500863737E+03 0.  0.
    9000005    1    3    3    0    0  0.53584726763E+02 -0.24966630486E+02  0.46639828407E+03  0.47013084877E+03  0.10000000000E+01 0.  0.
    9000005    1    3    3    0    0 -0.53584726763E+02  0.24966630486E+02  0.91700327171E+03  0.91890731628E+03  0.10000000000E+01 0.  0.
<mgrwt>
<rscale>  0 0.12500864E+03</rscale>
<asrwt>0</asrwt>
<pdfrwt beam="2">  1        4 0.43358594E-03 0.12500864E+03</pdfrwt>
<pdfrwt beam="1">  1       -4 0.21326429E+00 0.12500864E+03</pdfrwt>
<totfact> 0.20213616E+03</totfact>
</mgrwt>
</event>
<event>
 5    1  0.3196850E-002  0.1249976E+03  0.7818608E-02  0.1235073E+00
          4   -1    0    0  501    0  0.00000000000E+00  0.00000000000E+00  0.33250800995E+01  0.35593619749E+01  0.12700000000E+01 0.  1.
         -4   -1    0    0    0  501 -0.00000000000E+00 -0.00000000000E+00 -0.11345274624E+04  0.11345281732E+04  0.12700000000E+01 0.  1.
         25    2    1    2    0    0  0.00000000000E+00  0.00000000000E+00 -0.11312023823E+04  0.11380875352E+04  0.12499763219E+03 0.  0.
    9000005    1    3    3    0    0  0.45741522373E+02 -0.42148705844E+02 -0.51074349028E+03  0.51451794248E+03  0.10000000000E+01 0.  0.
    9000005    1    3    3    0    0 -0.45741522373E+02  0.42148705844E+02 -0.62045889204E+03  0.62356959274E+03  0.10000000000E+01 0.  0.
<mgrwt>
<rscale>  0 0.12499763E+03</rscale>
<asrwt>0</asrwt>
<pdfrwt beam="1">  1        4 0.52962805E-03 0.12499763E+03</pdfrwt>
<pdfrwt beam="2">  1       -4 0.17456046E+00 0.12499763E+03</pdfrwt>
<totfact> 0.26394502E+03</totfact>
</mgrwt>
</event>
<event>
 5    1  0.3196850E-002  0.1249967E+03  0.7818608E-02  0.1235074E+00
          4   -1    0    0  501    0  0.00000000000E+00  0.00000000000E+00  0.57643521286E+02  0.57657509886E+02  0.12700000000E+01 0. -1.
         -4   -1    0    0    0  501 -0.00000000000E+00 -0.00000000000E+00 -0.67733911929E+02  0.67745817031E+02  0.12700000000E+01 0. -1.
         25    2    1    2    0    0  0.00000000000E+00  0.00000000000E+00 -0.10090390643E+02  0.12540332692E+03  0.12499671363E+03 0.  0.
    9000005    1    3    3    0    0 -0.57255022039E+02 -0.15975964339E+02 -0.24386799905E+02  0.64257956666E+02  0.10000000000E+01 0.  0.
    9000005    1    3    3    0    0  0.57255022039E+02  0.15975964339E+02  0.14296409262E+02  0.61145370251E+02  0.10000000000E+01 0.  0.
<mgrwt>
<rscale>  0 0.12499671E+03</rscale>
<asrwt>0</asrwt>
<pdfrwt beam="1">  1        4 0.88702258E-02 0.12499671E+03</pdfrwt>
<pdfrwt beam="2">  1       -4 0.10422594E-01 0.12499671E+03</pdfrwt>
<totfact> 0.10444867E+04</totfact>
</mgrwt>
</event>
<event>
 5    1  0.3196850E-002  0.1249819E+03  0.7818608E-02  0.1235098E+00
         -4   -1    0    0    0  501 -0.00000000000E+00  0.00000000000E+00  0.65221294556E+02  0.65233658211E+02  0.12700000000E+01 0.  1.
          4   -1    0    0  501    0  0.00000000000E+00 -0.00000000000E+00 -0.59850089406E+02  0.59863562389E+02  0.12700000000E+01 0.  1.
         25    2    1    2    0    0  0.00000000000E+00  0.00000000000E+00  0.53712051503E+01  0.12509722060E+03  0.12498185771E+03 0.  0.
    9000005    1    3    3    0    0  0.44839583488E+02  0.43458807989E+02  0.47903826166E+00  0.62453868710E+02  0.10000000000E+01 0.  0.
    9000005    1    3    3    0    0 -0.44839583488E+02 -0.43458807989E+02  0.48921668886E+01  0.62643351890E+02  0.10000000000E+01 0.  0.
<mgrwt>
<rscale>  0 0.12498186E+03</rscale>
<asrwt>0</asrwt>
<pdfrwt beam="2">  1        4 0.92096935E-02 0.12498186E+03</pdfrwt>
<pdfrwt beam="1">  1       -4 0.10036033E-01 0.12498186E+03</pdfrwt>
<totfact> 0.10455038E+04</totfact>
</mgrwt>
</event>
<event>
 5    1  0.3196850E-002  0.1250008E+03  0.7818608E-02  0.1235068E+00
          4   -1    0    0  501    0  0.00000000000E+00  0.00000000000E+00  0.40458477886E+01  0.42404934063E+01  0.12700000000E+01 0.  1.
         -4   -1    0    0    0  501 -0.00000000000E+00 -0.00000000000E+00 -0.94263330988E+03  0.94263416541E+03  0.12700000000E+01 0.  1.
         25    2    1    2    0    0  0.00000000000E+00  0.00000000000E+00 -0.93858746209E+03  0.94687465881E+03  0.12500078204E+03 0.  0.
    9000005    1    3    3    0    0  0.28719996180E+02 -0.55200955566E+02 -0.42557163370E+03  0.43009789477E+03  0.10000000000E+01 0.  0.
    9000005    1    3    3    0    0 -0.28719996180E+02  0.55200955566E+02 -0.51301582839E+03  0.51677676404E+03  0.10000000000E+01 0.  0.
<mgrwt>
<rscale>  0 0.12500078E+03</rscale>
<asrwt>0</asrwt>
<pdfrwt beam="1">  1        4 0.63747742E-03 0.12500078E+03</pdfrwt>
<pdfrwt beam="2">  1       -4 0.14503538E+00 0.12500078E+03</pdfrwt>
<totfact> 0.32426678E+03</totfact>
</mgrwt>
</event>
<event>
 5    1  0.3196850E-002  0.1250218E+03  0.7818608E-02  0.1235035E+00
          4   -1    0    0  501    0  0.00000000000E+00  0.00000000000E+00  0.28211492800E+02  0.28240064200E+02  0.12700000000E+01 0. -1.
         -4   -1    0    0    0  501 -0.00000000000E+00 -0.00000000000E+00 -0.13840975650E+03  0.13841558292E+03  0.12700000000E+01 0. -1.
         25    2    1    2    0    0  0.00000000000E+00  0.00000000000E+00 -0.11019826370E+03  0.16665564712E+03  0.12502178768E+03 0.  0.
    9000005    1    3    3    0    0  0.50325695927E+02  0.91509597781E+00 -0.57038781979E+01  0.50666036925E+02  0.10000000000E+01 0.  0.
    9000005    1    3    3    0    0 -0.50325695927E+02 -0.91509597781E+00 -0.10449438550E+03  0.11598961019E+03  0.10000000000E+01 0.  0.
<mgrwt>
<rscale>  0 0.12502179E+03</rscale>
<asrwt>0</asrwt>
<pdfrwt beam="1">  1        4 0.43428757E-02 0.12502179E+03</pdfrwt>
<pdfrwt beam="2">  1       -4 0.21296454E-01 0.12502179E+03</pdfrwt>
<totfact> 0.96027754E+03</totfact>
</mgrwt>
</event>
<event>
 5    1  0.3196850E-002  0.1250008E+03  0.7818608E-02  0.1235068E+00
         -4   -1    0    0    0  501 -0.00000000000E+00  0.00000000000E+00  0.56490936198E+01  0.57900914263E+01  0.12700000000E+01 0. -1.
          4   -1    0    0  501    0  0.00000000000E+00 -0.00000000000E+00 -0.68282650621E+03  0.68282768725E+03  0.12700000000E+01 0. -1.
         25    2    1    2    0    0  0.00000000000E+00  0.00000000000E+00 -0.67717741259E+03  0.68861777868E+03  0.12500078798E+03 0.  0.
    9000005    1    3    3    0    0  0.14725328036E+02  0.15073381182E+02 -0.14486182531E+02  0.25590849739E+02  0.10000000000E+01 0.  0.
    9000005    1    3    3    0    0 -0.14725328036E+02 -0.15073381182E+02 -0.66269123006E+03  0.66302692894E+03  0.10000000000E+01 0.  0.
<mgrwt>
<rscale>  0 0.12500079E+03</rscale>
<asrwt>0</asrwt>
<pdfrwt beam="2">  1        4 0.10506110E+00 0.12500079E+03</pdfrwt>
<pdfrwt beam="1">  1       -4 0.88002870E-03 0.12500079E+03</pdfrwt>
<totfact> 0.43693661E+03</totfact>
</mgrwt>
</event>
<event>
 5    1  0.3196850E-002  0.1250333E+03  0.7818608E-02  0.1235017E+00
          4   -1    0    0  501    0  0.00000000000E+00  0.00000000000E+00  0.16649199203E+03  0.16649683574E+03  0.12700000000E+01 0.  1.
         -4   -1    0    0    0  501 -0.00000000000E+00 -0.00000000000E+00 -0.23452219912E+02  0.23486581676E+02  0.12700000000E+01 0.  1.
         25    2    1    2    0    0  0.00000000000E+00  0.00000000000E+00  0.14303977212E+03  0.18998341741E+03  0.12503328551E+03 0.  0.
    9000005    1    3    3    0    0 -0.11569824239E+02 -0.60274475469E+02  0.89527756484E+02  0.10854995351E+03  0.10000000000E+01 0.  0.
    9000005    1    3    3    0    0  0.11569824239E+02  0.60274475469E+02  0.53512015636E+02  0.81433463904E+02  0.10000000000E+01 0.  0.
<mgrwt>
<rscale>  0 0.12503329E+03</rscale>
<asrwt>0</asrwt>
<pdfrwt beam="1">  1        4 0.25617169E-01 0.12503329E+03</pdfrwt>
<pdfrwt beam="2">  1       -4 0.36110496E-02 0.12503329E+03</pdfrwt>
<totfact> 0.91781750E+03</totfact>
</mgrwt>
</event>
<event>
 5    1  0.3196850E-002  0.1250027E+03  0.7818608E-02  0.1235065E+00
         -4   -1    0    0    0  501 -0.00000000000E+00  0.00000000000E+00  0.47742857210E+02  0.47759745755E+02  0.12700000000E+01 0. -1.
          4   -1    0    0  501    0  0.00000000000E+00 -0.00000000000E+00 -0.81785725915E+02  0.81795585843E+02  0.12700000000E+01 0. -1.
         25    2    1    2    0    0  0.00000000000E+00  0.00000000000E+00 -0.34042868705E+02  0.12955533160E+03  0.12500266812E+03 0.  0.
    9000005    1    3    3    0    0  0.92075581182E+01 -0.46703814847E+02 -0.58985477205E+02  0.75804432382E+02  0.10000000000E+01 0.  0.
    9000005    1    3    3    0    0 -0.92075581182E+01  0.46703814847E+02  0.24942608500E+02  0.53750899216E+02  0.10000000000E+01 0.  0.
<mgrwt>
<rscale>  0 0.12500267E+03</rscale>
<asrwt>0</asrwt>
<pdfrwt beam="2">  1        4 0.12584477E-01 0.12500267E+03</pdfrwt>
<pdfrwt beam="1">  1       -4 0.73471125E-02 0.12500267E+03</pdfrwt>
<totfact> 0.10353405E+04</totfact>
</mgrwt>
</event>
<event>
 5    1  0.3196850E-002  0.1250013E+03  0.7818608E-02  0.1235067E+00
          4   -1    0    0  501    0  0.00000000000E+00  0.00000000000E+00  0.92506683608E+03  0.92506770786E+03  0.12700000000E+01 0. -1.
         -4   -1    0    0    0  501 -0.00000000000E+00 -0.00000000000E+00 -0.41263734769E+01  0.43173901921E+01  0.12700000000E+01 0. -1.
         25    2    1    2    0    0  0.00000000000E+00  0.00000000000E+00  0.92094046260E+03  0.92938509805E+03  0.12500129924E+03 0.  0.
    9000005    1    3    3    0    0 -0.56832704288E+00  0.33397729740E+02  0.85316230340E+03  0.85381651852E+03  0.10000000000E+01 0.  0.
    9000005    1    3    3    0    0  0.56832704288E+00 -0.33397729740E+02  0.67778159205E+02  0.75568579532E+02  0.10000000000E+01 0.  0.
<mgrwt>
<rscale>  0 0.12500130E+03</rscale>
<asrwt>0</asrwt>
<pdfrwt beam="1">  1        4 0.14233270E+00 0.12500130E+03</pdfrwt>
<pdfrwt beam="2">  1       -4 0.64958750E-03 0.12500130E+03</pdfrwt>
<totfact> 0.33058443E+03</totfact>
</mgrwt>
</event>
<event>
 5    1  0.3196850E-002  0.1250046E+03  0.7818608E-02  0.1235062E+00
          4   -1    0    0  501    0  0.00000000000E+00  0.00000000000E+00  0.42303964820E+01  0.44169168427E+01  0.12700000000E+01 0. -1.
         -4   -1    0    0    0  501 -0.00000000000E+00 -0.00000000000E+00 -0.90333974837E+03  0.90334064111E+03  0.12700000000E+01 0. -1.
         25    2    1    2    0    0  0.00000000000E+00  0.00000000000E+00 -0.89910935189E+03  0.90775755796E+03  0.12500462940E+03 0.  0.
    9000005    1    3    3    0    0  0.53709909341E+02 -0.21298940890E+02 -0.62249208727E+03  0.62516861562E+03  0.10000000000E+01 0.  0.
    9000005    1    3    3    0    0 -0.53709909341E+02  0.21298940890E+02 -0.27661726462E+03  0.28258894233E+03  0.10000000000E+01 0.  0.
<mgrwt>
<rscale>  0 0.12500463E+03</rscale>
<asrwt>0</asrwt>
<pdfrwt beam="1">  1        4 0.66524734E-03 0.12500463E+03</pdfrwt>
<pdfrwt beam="2">  1       -4 0.13898961E+00 0.12500463E+03</pdfrwt>
<totfact> 0.33861224E+03</totfact>
</mgrwt>
</event>
<event>
 5    1  0.3196850E-002  0.1249976E+03  0.7818608E-02  0.1235073E+00
          4   -1    0    0  501    0  0.00000000000E+00  0.00000000000E+00  0.23350445010E+02  0.23384956322E+02  0.12700000000E+01 0.  1.
         -4   -1    0    0    0  501 -0.00000000000E+00 -0.00000000000E+00 -0.16712117890E+03  0.16712600437E+03  0.12700000000E+01 0.  1.
         25    2    1    2    0    0  0.00000000000E+00  0.00000000000E+00 -0.14377073389E+03  0.19051096069E+03  0.12499760886E+03 0.  0.
    9000005    1    3    3    0    0 -0.74992357757E+01  0.20092894143E+02 -0.16134385410E+03  0.16276609656E+03  0.10000000000E+01 0.  0.
    9000005    1    3    3    0    0  0.74992357757E+01 -0.20092894143E+02  0.17573120208E+02  0.27744864139E+02  0.10000000000E+01 0.  0.
<mgrwt>
<rscale>  0 0.12499761E+03</rscale>
<asrwt>0</asrwt>
<pdfrwt beam="1">  1        4 0.35954022E-02 0.12499761E+03</pdfrwt>
<pdfrwt beam="2">  1       -4 0.25713976E-01 0.12499761E+03</pdfrwt>
<totfact> 0.91763400E+03</totfact>
</mgrwt>
</event>
<event>
 5    1  0.3196850E-002  0.1249998E+03  0.7818608E-02  0.1235070E+00
         -4   -1    0    0    0  501 -0.00000000000E+00  0.00000000000E+00  0.19035730979E+02  0.19078049007E+02  0.12700000000E+01 0.  1.
          4   -1    0    0  501    0  0.00000000000E+00 -0.00000000000E+00 -0.20493332167E+03  0.20493725682E+03  0.12700000000E+01 0.  1.
         25    2    1    2    0    0  0.00000000000E+00  0.00000000000E+00 -0.18589759069E+03  0.22401530582E+03  0.12499977207E+03 0.  0.
    9000005    1    3    3    0    0 -0.97656845632E+01  0.18474743626E+02 -0.19849497400E+03  0.19959443742E+03  0.10000000000E+01 0.  0.
    9000005    1    3    3    0    0  0.97656845632E+01 -0.18474743626E+02  0.12597383310E+02  0.24420868397E+02  0.10000000000E+01 0.  0.
<mgrwt>
<rscale>  0 0.12499977E+03</rscale>
<asrwt>0</asrwt>
<pdfrwt beam="2">  1        4 0.31531760E-01 0.12499977E+03</pdfrwt>
<pdfrwt beam="1">  1       -4 0.29321321E-02 0.12499977E+03</pdfrwt>
<totfact> 0.86237381E+03</totfact>
</mgrwt>
</event>
<event>
 5    1  0.3196850E-002  0.1250042E+03  0.7818608E-02  0.1235063E+00
         -4   -1    0    0    0  501 -0.00000000000E+00  0.00000000000E+00  0.19417246762E+03  0.19417662084E+03  0.12700000000E+01 0.  1.
          4   -1    0    0  501    0  0.00000000000E+00 -0.00000000000E+00 -0.20094350806E+02  0.20134443978E+02  0.12700000000E+01 0.  1.
         25    2    1    2    0    0  0.00000000000E+00  0.00000000000E+00  0.17407811681E+03  0.21431106482E+03  0.12500416693E+03 0.  0.
    9000005    1    3    3    0    0 -0.36116861651E+02 -0.45212639694E+02  0.46580659233E+02  0.74292451152E+02  0.10000000000E+01 0.  0.
    9000005    1    3    3    0    0  0.36116861651E+02  0.45212639694E+02  0.12749745758E+03  0.14001861367E+03  0.10000000000E+01 0.  0.
<mgrwt>
<rscale>  0 0.12500417E+03</rscale>
<asrwt>0</asrwt>
<pdfrwt beam="2">  1        4 0.30948421E-02 0.12500417E+03</pdfrwt>
<pdfrwt beam="1">  1       -4 0.29876091E-01 0.12500417E+03</pdfrwt>
<totfact> 0.87768457E+03</totfact>
</mgrwt>
</event>
<event>
 5    1  0.3196850E-002  0.1250209E+03  0.7818608E-02  0.1235037E+00
          4   -1    0    0  501    0  0.00000000000E+00  0.00000000000E+00  0.30225159462E+02  0.30251829110E+02  0.12700000000E+01 0. -1.
         -4   -1    0    0    0  501 -0.00000000000E+00 -0.00000000000E+00 -0.12919481903E+03  0.12920106101E+03  0.12700000000E+01 0. -1.
         25    2    1    2    0    0  0.00000000000E+00  0.00000000000E+00 -0.98969659572E+02  0.15945289012E+03  0.12502092085E+03 0.  0.
    9000005    1    3    3    0    0 -0.20320475405E+02  0.24726980922E+02 -0.11795677877E+03  0.12222580318E+03  0.10000000000E+01 0.  0.
    9000005    1    3    3    0    0  0.20320475405E+02 -0.24726980922E+02  0.18987119196E+02  0.37227086934E+02  0.10000000000E+01 0.  0.
<mgrwt>
<rscale>  0 0.12502092E+03</rscale>
<asrwt>0</asrwt>
<pdfrwt beam="1">  1        4 0.46525563E-02 0.12502092E+03</pdfrwt>
<pdfrwt beam="2">  1       -4 0.19878657E-01 0.12502092E+03</pdfrwt>
<totfact> 0.97402554E+03</totfact>
</mgrwt>
</event>
<event>
 5    1  0.3196850E-002  0.1250045E+03  0.7818608E-02  0.1235062E+00
         -4   -1    0    0    0  501 -0.00000000000E+00  0.00000000000E+00  0.12862689440E+02  0.12925234220E+02  0.12700000000E+01 0.  1.
          4   -1    0    0  501    0  0.00000000000E+00 -0.00000000000E+00 -0.30290961841E+03  0.30291228074E+03  0.12700000000E+01 0.  1.
         25    2    1    2    0    0  0.00000000000E+00  0.00000000000E+00 -0.29004692897E+03  0.31583751496E+03  0.12500445933E+03 0.  0.
    9000005    1    3    3    0    0  0.41944080222E+02 -0.35117875521E+02 -0.68681465450E+02  0.87810675565E+02  0.10000000000E+01 0.  0.
    9000005    1    3    3    0    0 -0.41944080222E+02  0.35117875521E+02 -0.22136546352E+03  0.22802683940E+03  0.10000000000E+01 0.  0.
<mgrwt>
<rscale>  0 0.12500446E+03</rscale>
<asrwt>0</asrwt>
<pdfrwt beam="2">  1        4 0.46606490E-01 0.12500446E+03</pdfrwt>
<pdfrwt beam="1">  1       -4 0.19838915E-02 0.12500446E+03</pdfrwt>
<totfact> 0.73646668E+03</totfact>
</mgrwt>
</event>
<event>
 5    1  0.3196850E-002  0.1249989E+03  0.7818608E-02  0.1235071E+00
         -4   -1    0    0    0  501 -0.00000000000E+00  0.00000000000E+00  0.56373142554E+03  0.56373285610E+03  0.12700000000E+01 0.  1.
          4   -1    0    0  501    0  0.00000000000E+00 -0.00000000000E+00 -0.68695064375E+01  0.69859157377E+01  0.12700000000E+01 0.  1.
         25    2    1    2    0    0  0.00000000000E+00  0.00000000000E+00  0.55686191910E+03  0.57071877183E+03  0.12499887830E+03 0.  0.
    9000005    1    3    3    0    0  0.17127263682E+02  0.17970787276E+02  0.54027370937E+03  0.54084468509E+03  0.10000000000E+01 0.  0.
    9000005    1    3    3    0    0 -0.17127263682E+02 -0.17970787276E+02  0.16588209737E+02  0.29874086745E+02  0.10000000000E+01 0.  0.
<mgrwt>
<rscale>  0 0.12499888E+03</rscale>
<asrwt>0</asrwt>
<pdfrwt beam="2">  1        4 0.10659115E-02 0.12499888E+03</pdfrwt>
<pdfrwt beam="1">  1       -4 0.86736996E-01 0.12499888E+03</pdfrwt>
<totfact> 0.50770915E+03</totfact>
</mgrwt>
</event>
<event>
 5    1  0.3196850E-002  0.1249990E+03  0.7818608E-02  0.1235071E+00
         -4   -1    0    0    0  501 -0.00000000000E+00  0.00000000000E+00  0.64380448907E+02  0.64392974007E+02  0.12700000000E+01 0. -1.
          4   -1    0    0  501    0  0.00000000000E+00 -0.00000000000E+00 -0.60648435060E+02  0.60661730730E+02  0.12700000000E+01 0. -1.
         25    2    1    2    0    0  0.00000000000E+00  0.00000000000E+00  0.37320138470E+01  0.12505470474E+03  0.12499900499E+03 0.  0.
    9000005    1    3    3    0    0 -0.46569710116E+02 -0.24321556773E+01 -0.39752223842E+02  0.61285337413E+02  0.10000000000E+01 0.  0.
    9000005    1    3    3    0    0  0.46569710116E+02  0.24321556773E+01  0.43484237689E+02  0.63769367324E+02  0.10000000000E+01 0.  0.
<mgrwt>
<rscale>  0 0.12499900E+03</rscale>
<asrwt>0</asrwt>
<pdfrwt beam="2">  1        4 0.93325147E-02 0.12499900E+03</pdfrwt>
<pdfrwt beam="1">  1       -4 0.99066707E-02 0.12499900E+03</pdfrwt>
<totfact> 0.10451910E+04</totfact>
</mgrwt>
</event>
<event>
 5    1  0.3196850E-002  0.1250005E+03  0.7818608E-02  0.1235068E+00
          4   -1    0    0  501    0  0.00000000000E+00  0.00000000000E+00  0.10925008766E+03  0.10925746910E+03  0.12700000000E+01 0. -1.
         -4   -1    0    0    0  501 -0.00000000000E+00 -0.00000000000E+00 -0.35735552381E+02  0.35758112422E+02  0.12700000000E+01 0. -1.
         25    2    1    2    0    0  0.00000000000E+00  0.00000000000E+00  0.73514535279E+02  0.14501558152E+03  0.12500052794E+03 0.  0.
    9000005    1    3    3    0    0  0.31972982769E+01  0.20769165188E+02 -0.31519520824E+02  0.37895397239E+02  0.10000000000E+01 0.  0.
    9000005    1    3    3    0    0 -0.31972982769E+01 -0.20769165188E+02  0.10503405610E+03  0.10712018428E+03  0.10000000000E+01 0.  0.
<mgrwt>
<rscale>  0 0.12500053E+03</rscale>
<asrwt>0</asrwt>
<pdfrwt beam="1">  1        4 0.16810009E-01 0.12500053E+03</pdfrwt>
<pdfrwt beam="2">  1       -4 0.55000805E-02 0.12500053E+03</pdfrwt>
<totfact> 0.10030553E+04</totfact>
</mgrwt>
</event>
<event>
 5    1  0.3196850E-002  0.1250007E+03  0.7818608E-02  0.1235068E+00
          4   -1    0    0  501    0  0.00000000000E+00  0.00000000000E+00  0.23002454874E+02  0.23037487498E+02  0.12700000000E+01 0. -1.
         -4   -1    0    0    0  501 -0.00000000000E+00 -0.00000000000E+00 -0.16965421501E+03  0.16965896844E+03  0.12700000000E+01 0. -1.
         25    2    1    2    0    0  0.00000000000E+00  0.00000000000E+00 -0.14665176014E+03  0.19269645594E+03  0.12500074151E+03 0.  0.
    9000005    1    3    3    0    0  0.48823070931E+02 -0.23085775598E+02 -0.24854804711E+02  0.59459285291E+02  0.10000000000E+01 0.  0.
    9000005    1    3    3    0    0 -0.48823070931E+02  0.23085775598E+02 -0.12179695543E+03  0.13323717065E+03  0.10000000000E+01 0.  0.
<mgrwt>
<rscale>  0 0.12500074E+03</rscale>
<asrwt>0</asrwt>
<pdfrwt beam="1">  1        4 0.35418998E-02 0.12500074E+03</pdfrwt>
<pdfrwt beam="2">  1       -4 0.26103708E-01 0.12500074E+03</pdfrwt>
<totfact> 0.91378729E+03</totfact>
</mgrwt>
</event>
<event>
 5    1  0.3196850E-002  0.1249966E+03  0.7818608E-02  0.1235075E+00
          4   -1    0    0  501    0  0.00000000000E+00  0.00000000000E+00  0.47177912072E+02  0.47195002781E+02  0.12700000000E+01 0. -1.
         -4   -1    0    0    0  501 -0.00000000000E+00 -0.00000000000E+00 -0.82756797080E+02  0.82766541325E+02  0.12700000000E+01 0. -1.
         25    2    1    2    0    0  0.00000000000E+00  0.00000000000E+00 -0.35578885007E+02  0.12996154411E+03  0.12499658351E+03 0.  0.
    9000005    1    3    3    0    0  0.20271610042E+02 -0.45586030813E+02  0.21335183680E+02  0.54269829939E+02  0.10000000000E+01 0.  0.
    9000005    1    3    3    0    0 -0.20271610042E+02  0.45586030813E+02 -0.56914068687E+02  0.75691714167E+02  0.10000000000E+01 0.  0.
<mgrwt>
<rscale>  0 0.12499658E+03</rscale>
<asrwt>0</asrwt>
<pdfrwt beam="1">  1        4 0.72602046E-02 0.12499658E+03</pdfrwt>
<pdfrwt beam="2">  1       -4 0.12733879E-01 0.12499658E+03</pdfrwt>
<totfact> 0.10346128E+04</totfact>
</mgrwt>
</event>
<event>
 5    1  0.3196850E-002  0.1249982E+03  0.7818608E-02  0.1235072E+00
          4   -1    0    0  501    0  0.00000000000E+00  0.00000000000E+00  0.26542937869E+02  0.26573303346E+02  0.12700000000E+01 0.  1.
         -4   -1    0    0    0  501 -0.00000000000E+00 -0.00000000000E+00 -0.14704578353E+03  0.14705126778E+03  0.12700000000E+01 0.  1.
         25    2    1    2    0    0  0.00000000000E+00  0.00000000000E+00 -0.12050284567E+03  0.17362457112E+03  0.12499822353E+03 0.  0.
    9000005    1    3    3    0    0 -0.52838906372E+02  0.30954200751E+02 -0.77546009087E+02  0.98815464863E+02  0.10000000000E+01 0.  0.
    9000005    1    3    3    0    0  0.52838906372E+02 -0.30954200751E+02 -0.42956836579E+02  0.74809106262E+02  0.10000000000E+01 0.  0.
<mgrwt>
<rscale>  0 0.12499822E+03</rscale>
<asrwt>0</asrwt>
<pdfrwt beam="1">  1        4 0.40862867E-02 0.12499822E+03</pdfrwt>
<pdfrwt beam="2">  1       -4 0.22625185E-01 0.12499822E+03</pdfrwt>
<totfact> 0.94781130E+03</totfact>
</mgrwt>
</event>
<event>
 5    1  0.3196850E-002  0.1249999E+03  0.7818608E-02  0.1235070E+00
         -4   -1    0    0    0  501 -0.00000000000E+00  0.00000000000E+00  0.67336279334E+02  0.67348254725E+02  0.12700000000E+01 0.  1.
          4   -1    0    0  501    0  0.00000000000E+00 -0.00000000000E+00 -0.57986851040E+02  0.58000756836E+02  0.12700000000E+01 0.  1.
         25    2    1    2    0    0  0.00000000000E+00  0.00000000000E+00  0.93494282939E+01  0.12534901156E+03  0.12499985156E+03 0.  0.
    9000005    1    3    3    0    0  0.22909823497E+02  0.56168356731E+02 -0.10383769250E+02  0.61551336089E+02  0.10000000000E+01 0.  0.
    9000005    1    3    3    0    0 -0.22909823497E+02 -0.56168356731E+02  0.19733197544E+02  0.63797675473E+02  0.10000000000E+01 0.  0.
<mgrwt>
<rscale>  0 0.12499985E+03</rscale>
<asrwt>0</asrwt>
<pdfrwt beam="2">  1        4 0.89230448E-02 0.12499985E+03</pdfrwt>
<pdfrwt beam="1">  1       -4 0.10361419E-01 0.12499985E+03</pdfrwt>
<totfact> 0.10445322E+04</totfact>
</mgrwt>
</event>
<event>
 5    1  0.3196850E-002  0.1250107E+03  0.7818608E-02  0.1235053E+00
         -4   -1    0    0    0  501 -0.00000000000E+00  0.00000000000E+00  0.20451201400E+03  0.20451595725E+03  0.12700000000E+01 0. -1.
          4   -1    0    0  501    0  0.00000000000E+00 -0.00000000000E+00 -0.19078379141E+02  0.19120602780E+02  0.12700000000E+01 0. -1.
         25    2    1    2    0    0  0.00000000000E+00  0.00000000000E+00  0.18543363485E+03  0.22363656003E+03  0.12501071172E+03 0.  0.
    9000005    1    3    3    0    0  0.23751600853E+02 -0.52289151931E+01 -0.10274501058E+02  0.26420550130E+02  0.10000000000E+01 0.  0.
    9000005    1    3    3    0    0 -0.23751600853E+02  0.52289151931E+01  0.19570813591E+03  0.19721600990E+03  0.10000000000E+01 0.  0.
<mgrwt>
<rscale>  0 0.12501071E+03</rscale>
<asrwt>0</asrwt>
<pdfrwt beam="2">  1        4 0.29386864E-02 0.12501071E+03</pdfrwt>
<pdfrwt beam="1">  1       -4 0.31466940E-01 0.12501071E+03</pdfrwt>
<totfact> 0.86275522E+03</totfact>
</mgrwt>
</event>
<event>
 5    1  0.3196850E-002  0.1249998E+03  0.7818608E-02  0.1235070E+00
          4   -1    0    0  501    0  0.00000000000E+00  0.00000000000E+00  0.23547627859E+02  0.23581850601E+02  0.12700000000E+01 0.  1.
         -4   -1    0    0    0  501 -0.00000000000E+00 -0.00000000000E+00 -0.16572947480E+03  0.16573434079E+03  0.12700000000E+01 0.  1.
         25    2    1    2    0    0  0.00000000000E+00  0.00000000000E+00 -0.14218184694E+03  0.18931619139E+03  0.12499977089E+03 0.  0.
    9000005    1    3    3    0    0  0.19030317604E+02 -0.57768879462E+02 -0.49361778058E+02  0.78338889164E+02  0.10000000000E+01 0.  0.
    9000005    1    3    3    0    0 -0.19030317604E+02  0.57768879462E+02 -0.92820068883E+02  0.11097730223E+03  0.10000000000E+01 0.  0.
<mgrwt>
<rscale>  0 0.12499977E+03</rscale>
<asrwt>0</asrwt>
<pdfrwt beam="1">  1        4 0.36257189E-02 0.12499977E+03</pdfrwt>
<pdfrwt beam="2">  1       -4 0.25499848E-01 0.12499977E+03</pdfrwt>
<totfact> 0.91966903E+03</totfact>
</mgrwt>
</event>
<event>
 5    1  0.3196850E-002  0.1249914E+03  0.7818608E-02  0.1235083E+00
          4   -1    0    0  501    0  0.00000000000E+00  0.00000000000E+00  0.15432494126E+02  0.15484662571E+02  0.12700000000E+01 0.  1.
         -4   -1    0    0    0  501 -0.00000000000E+00 -0.00000000000E+00 -0.25260281152E+03  0.25260600406E+03  0.12700000000E+01 0.  1.
         25    2    1    2    0    0  0.00000000000E+00  0.00000000000E+00 -0.23717031739E+03  0.26809066663E+03  0.12499138403E+03 0.  0.
    9000005    1    3    3    0    0 -0.64141336576E+01  0.62111726201E+02 -0.11346260236E+03  0.12951358916E+03  0.10000000000E+01 0.  0.
    9000005    1    3    3    0    0  0.64141336576E+01 -0.62111726201E+02 -0.12370771503E+03  0.13857707747E+03  0.10000000000E+01 0.  0.
<mgrwt>
<rscale>  0 0.12499138E+03</rscale>
<asrwt>0</asrwt>
<pdfrwt beam="1">  1        4 0.23784886E-02 0.12499138E+03</pdfrwt>
<pdfrwt beam="2">  1       -4 0.38866227E-01 0.12499138E+03</pdfrwt>
<totfact> 0.79799185E+03</totfact>
</mgrwt>
</event>
<event>
 5    1  0.3196850E-002  0.1250007E+03  0.7818608E-02  0.1235068E+00
          4   -1    0    0  501    0  0.00000000000E+00  0.00000000000E+00  0.99187512442E+02  0.99195642669E+02  0.12700000000E+01 0. -1.
         -4   -1    0    0    0  501 -0.00000000000E+00 -0.00000000000E+00 -0.39362954842E+02  0.39383437050E+02  0.12700000000E+01 0. -1.
         25    2    1    2    0    0  0.00000000000E+00  0.00000000000E+00  0.59824557600E+02  0.13857907972E+03  0.12500073457E+03 0.  0.
    9000005    1    3    3    0    0  0.48198986291E+02  0.35730071548E+01  0.73831048728E+02  0.88249262976E+02  0.10000000000E+01 0.  0.
    9000005    1    3    3    0    0 -0.48198986291E+02 -0.35730071548E+01 -0.14006491128E+02  0.50329816743E+02  0.10000000000E+01 0.  0.
<mgrwt>
<rscale>  0 0.12500073E+03</rscale>
<asrwt>0</asrwt>
<pdfrwt beam="1">  1        4 0.15261818E-01 0.12500073E+03</pdfrwt>
<pdfrwt beam="2">  1       -4 0.60580403E-02 0.12500073E+03</pdfrwt>
<totfact> 0.10162952E+04</totfact>
</mgrwt>
</event>
<event>
 5    1  0.3196850E-002  0.1250044E+03  0.7818608E-02  0.1235062E+00
         -4   -1    0    0    0  501 -0.00000000000E+00  0.00000000000E+00  0.88401113796E+01  0.89308716934E+01  0.12700000000E+01 0. -1.
          4   -1    0    0  501    0  0.00000000000E+00 -0.00000000000E+00 -0.43956060890E+03  0.43956244357E+03  0.12700000000E+01 0. -1.
         25    2    1    2    0    0  0.00000000000E+00  0.00000000000E+00 -0.43072049752E+03  0.44849331526E+03  0.12500442733E+03 0.  0.
    9000005    1    3    3    0    0 -0.42549985510E+02  0.55512208139E+01 -0.37836769909E+03  0.38079447610E+03  0.10000000000E+01 0.  0.
    9000005    1    3    3    0    0  0.42549985510E+02 -0.55512208139E+01 -0.52352798430E+02  0.67698839155E+02  0.10000000000E+01 0.  0.
<mgrwt>
<rscale>  0 0.12500443E+03</rscale>
<asrwt>0</asrwt>
<pdfrwt beam="2">  1        4 0.67631815E-01 0.12500443E+03</pdfrwt>
<pdfrwt beam="1">  1       -4 0.13671402E-02 0.12500443E+03</pdfrwt>
<totfact> 0.60088688E+03</totfact>
</mgrwt>
</event>
<event>
 5    1  0.3196850E-002  0.1250008E+03  0.7818608E-02  0.1235068E+00
          4   -1    0    0  501    0  0.00000000000E+00  0.00000000000E+00  0.21808471530E+03  0.21808841315E+03  0.12700000000E+01 0. -1.
         -4   -1    0    0    0  501 -0.00000000000E+00 -0.00000000000E+00 -0.17885467984E+02  0.17930500970E+02  0.12700000000E+01 0. -1.
         25    2    1    2    0    0  0.00000000000E+00  0.00000000000E+00  0.20019924732E+03  0.23601891412E+03  0.12500075677E+03 0.  0.
    9000005    1    3    3    0    0  0.53584614658E+02 -0.28763701158E+02  0.72957925398E+02  0.94986948108E+02  0.10000000000E+01 0.  0.
    9000005    1    3    3    0    0 -0.53584614658E+02  0.28763701158E+02  0.12724132192E+03  0.14103196601E+03  0.10000000000E+01 0.  0.
<mgrwt>
<rscale>  0 0.12500076E+03</rscale>
<asrwt>0</asrwt>
<pdfrwt beam="1">  1        4 0.33555246E-01 0.12500076E+03</pdfrwt>
<pdfrwt beam="2">  1       -4 0.27553587E-02 0.12500076E+03</pdfrwt>
<totfact> 0.84392447E+03</totfact>
</mgrwt>
</event>
<event>
 5    1  0.3196850E-002  0.1250005E+03  0.7818608E-02  0.1235068E+00
          4   -1    0    0  501    0  0.00000000000E+00  0.00000000000E+00  0.15046484250E+03  0.15047020212E+03  0.12700000000E+01 0. -1.
         -4   -1    0    0    0  501 -0.00000000000E+00 -0.00000000000E+00 -0.25940065063E+02  0.25971135429E+02  0.12700000000E+01 0. -1.
         25    2    1    2    0    0  0.00000000000E+00  0.00000000000E+00  0.12452477743E+03  0.17644133755E+03  0.12500050161E+03 0.  0.
    9000005    1    3    3    0    0 -0.16431040573E+02 -0.34530022593E+02  0.13202914368E+03  0.13745907149E+03  0.10000000000E+01 0.  0.
    9000005    1    3    3    0    0  0.16431040573E+02  0.34530022593E+02 -0.75043662458E+01  0.38982266062E+02  0.10000000000E+01 0.  0.
<mgrwt>
<rscale>  0 0.12500050E+03</rscale>
<asrwt>0</asrwt>
<pdfrwt beam="1">  1        4 0.23151240E-01 0.12500050E+03</pdfrwt>
<pdfrwt beam="2">  1       -4 0.39935815E-02 0.12500050E+03</pdfrwt>
<totfact> 0.94260463E+03</totfact>
</mgrwt>
</event>
<event>
 5    1  0.3196850E-002  0.1249969E+03  0.7818608E-02  0.1235074E+00
          4   -1    0    0  501    0  0.00000000000E+00  0.00000000000E+00  0.67288051668E+03  0.67288171519E+03  0.12700000000E+01 0.  1.
         -4   -1    0    0    0  501 -0.00000000000E+00 -0.00000000000E+00 -0.57343007542E+01  0.58732533693E+01  0.12700000000E+01 0.  1.
         25    2    1    2    0    0  0.00000000000E+00  0.00000000000E+00  0.66714621593E+03  0.67875496856E+03  0.12499693560E+03 0.  0.
    9000005    1    3    3    0    0  0.22817430293E+02 -0.37336200143E+02  0.91310005326E+02  0.10125780977E+03  0.10000000000E+01 0.  0.
    9000005    1    3    3    0    0 -0.22817430293E+02  0.37336200143E+02  0.57583621060E+03  0.57749715879E+03  0.10000000000E+01 0.  0.
<mgrwt>
<rscale>  0 0.12499694E+03</rscale>
<asrwt>0</asrwt>
<pdfrwt beam="1">  1        4 0.10353087E+00 0.12499694E+03</pdfrwt>
<pdfrwt beam="2">  1       -4 0.89298091E-03 0.12499694E+03</pdfrwt>
<totfact> 0.44235137E+03</totfact>
</mgrwt>
</event>
<event>
 5    1  0.3196850E-002  0.1250321E+03  0.7818608E-02  0.1235019E+00
          4   -1    0    0  501    0  0.00000000000E+00  0.00000000000E+00  0.46943209072E+02  0.46960385199E+02  0.12700000000E+01 0. -1.
         -4   -1    0    0    0  501 -0.00000000000E+00 -0.00000000000E+00 -0.83217766476E+02  0.83227456751E+02  0.12700000000E+01 0. -1.
         25    2    1    2    0    0  0.00000000000E+00  0.00000000000E+00 -0.36274557403E+02  0.13018784195E+03  0.12503211858E+03 0.  0.
    9000005    1    3    3    0    0 -0.19716276691E+02  0.49356799997E+02 -0.52394270914E+02  0.74639030655E+02  0.10000000000E+01 0.  0.
    9000005    1    3    3    0    0  0.19716276691E+02 -0.49356799997E+02  0.16119713510E+02  0.55548811294E+02  0.10000000000E+01 0.  0.
<mgrwt>
<rscale>  0 0.12503212E+03</rscale>
<asrwt>0</asrwt>
<pdfrwt beam="1">  1        4 0.72240988E-02 0.12503212E+03</pdfrwt>
<pdfrwt beam="2">  1       -4 0.12804800E-01 0.12503212E+03</pdfrwt>
<totfact> 0.10332998E+04</totfact>
</mgrwt>
</event>
<event>
 5    1  0.3196850E-002  0.1250012E+03  0.7818608E-02  0.1235067E+00
          4   -1    0    0  501    0  0.00000000000E+00  0.00000000000E+00  0.50553812161E+02  0.50569761953E+02  0.12700000000E+01 0.  1.
         -4   -1    0    0    0  501 -0.00000000000E+00 -0.00000000000E+00 -0.77237251598E+02  0.77247692098E+02  0.12700000000E+01 0.  1.
         25    2    1    2    0    0  0.00000000000E+00  0.00000000000E+00 -0.26683439438E+02  0.12781745405E+03  0.12500118247E+03 0.  0.
    9000005    1    3    3    0    0  0.33015412215E+02 -0.43715834545E+02 -0.44089660977E+02  0.70327731648E+02  0.10000000000E+01 0.  0.
    9000005    1    3    3    0    0 -0.33015412215E+02  0.43715834545E+02  0.17406221539E+02  0.57489722403E+02  0.10000000000E+01 0.  0.
<mgrwt>
<rscale>  0 0.12500118E+03</rscale>
<asrwt>0</asrwt>
<pdfrwt beam="1">  1        4 0.77795396E-02 0.12500118E+03</pdfrwt>
<pdfrwt beam="2">  1       -4 0.11884684E-01 0.12500118E+03</pdfrwt>
<totfact> 0.10391154E+04</totfact>
</mgrwt>
</event>
<event>
 4    1  0.3196850E-002  0.1251222E+03  0.7818608E-02  0.1234878E+00
          4   -1    0    0  501    0  0.00000000000E+00  0.00000000000E+00  0.10939655155E+02  0.11013126482E+02  0.12700000000E+01 0. -1.
         -4   -1    0    0    0  501 -0.00000000000E+00 -0.00000000000E+00 -0.35649878925E+03  0.35650105139E+03  0.12700000000E+01 0. -1.
    9000005    1    1    2    0    0 -0.43489354603E+02 -0.16490039093E+01 -0.30475449199E+03  0.30784792278E+03  0.10000000000E+01 0.  0.
    9000005    1    1    2    0    0  0.43489354603E+02  0.16490039093E+01 -0.40804642115E+02  0.59666255084E+02  0.10000000000E+01 0.  0.
<mgrwt>
<rscale>  0 0.12512216E+03</rscale>
<asrwt>0</asrwt>
<pdfrwt beam="1">  1        4 0.16888498E-02 0.12512216E+03</pdfrwt>
<pdfrwt beam="2">  1       -4 0.54851784E-01 0.12512216E+03</pdfrwt>
<totfact> 0.67656892E+03</totfact>
</mgrwt>
</event>
<event>
 5    1  0.3196850E-002  0.1249994E+03  0.7818608E-02  0.1235070E+00
         -4   -1    0    0    0  501 -0.00000000000E+00  0.00000000000E+00  0.87668600572E+02  0.87677798936E+02  0.12700000000E+01 0.  1.
          4   -1    0    0  501    0  0.00000000000E+00 -0.00000000000E+00 -0.44536019015E+02  0.44554123151E+02  0.12700000000E+01 0.  1.
         25    2    1    2    0    0  0.00000000000E+00  0.00000000000E+00  0.43132581557E+02  0.13223192209E+03  0.12499944651E+03 0.  0.
    9000005    1    3    3    0    0  0.68266402351E+01  0.53930092605E+02 -0.11041848816E+02  0.55479548759E+02  0.10000000000E+01 0.  0.
    9000005    1    3    3    0    0 -0.68266402351E+01 -0.53930092605E+02  0.54174430373E+02  0.76752373328E+02  0.10000000000E+01 0.  0.
<mgrwt>
<rscale>  0 0.12499945E+03</rscale>
<asrwt>0</asrwt>
<pdfrwt beam="2">  1        4 0.68537954E-02 0.12499945E+03</pdfrwt>
<pdfrwt beam="1">  1       -4 0.13489577E-01 0.12499945E+03</pdfrwt>
<totfact> 0.10296879E+04</totfact>
</mgrwt>
</event>
<event>
 5    1  0.3196850E-002  0.1249995E+03  0.7818608E-02  0.1235070E+00
          4   -1    0    0  501    0  0.00000000000E+00  0.00000000000E+00  0.41870331402E+02  0.41889587629E+02  0.12700000000E+01 0.  1.
         -4   -1    0    0    0  501 -0.00000000000E+00 -0.00000000000E+00 -0.93248220333E+02  0.93256868354E+02  0.12700000000E+01 0.  1.
         25    2    1    2    0    0  0.00000000000E+00  0.00000000000E+00 -0.51377888930E+02  0.13514645598E+03  0.12499950837E+03 0.  0.
    9000005    1    3    3    0    0  0.26499472600E+02  0.45317417130E+02 -0.62342703955E+02  0.81507687244E+02  0.10000000000E+01 0.  0.
    9000005    1    3    3    0    0 -0.26499472600E+02 -0.45317417130E+02  0.10964815025E+02  0.53638768740E+02  0.10000000000E+01 0.  0.
<mgrwt>
<rscale>  0 0.12499951E+03</rscale>
<asrwt>0</asrwt>
<pdfrwt beam="1">  1        4 0.64437360E-02 0.12499951E+03</pdfrwt>
<pdfrwt beam="2">  1       -4 0.14348026E-01 0.12499951E+03</pdfrwt>
<totfact> 0.10235098E+04</totfact>
</mgrwt>
</event>
<event>
 5    1  0.3196850E-002  0.1249838E+03  0.7818608E-02  0.1235095E+00
          4   -1    0    0  501    0  0.00000000000E+00  0.00000000000E+00  0.80019578585E+01  0.81021126608E+01  0.12700000000E+01 0. -1.
         -4   -1    0    0    0  501 -0.00000000000E+00 -0.00000000000E+00 -0.48489897292E+03  0.48490063605E+03  0.12700000000E+01 0. -1.
         25    2    1    2    0    0  0.00000000000E+00  0.00000000000E+00 -0.47689701506E+03  0.49300274871E+03  0.12498378798E+03 0.  0.
    9000005    1    3    3    0    0 -0.23094489368E+02  0.44990467785E+02 -0.38320478482E+03  0.38652865967E+03  0.10000000000E+01 0.  0.
    9000005    1    3    3    0    0  0.23094489368E+02 -0.44990467785E+02 -0.93692230240E+02  0.10647408905E+03  0.10000000000E+01 0.  0.
<mgrwt>
<rscale>  0 0.12498379E+03</rscale>
<asrwt>0</asrwt>
<pdfrwt beam="1">  1        4 0.12389030E-02 0.12498379E+03</pdfrwt>
<pdfrwt beam="2">  1       -4 0.74607651E-01 0.12498379E+03</pdfrwt>
<totfact> 0.56431512E+03</totfact>
</mgrwt>
</event>
<event>
 5    1  0.3196850E-002  0.1250004E+03  0.7818608E-02  0.1235069E+00
         -4   -1    0    0    0  501 -0.00000000000E+00  0.00000000000E+00  0.70768102623E+02  0.70779497376E+02  0.12700000000E+01 0.  1.
          4   -1    0    0  501    0  0.00000000000E+00 -0.00000000000E+00 -0.55175140523E+02  0.55189754772E+02  0.12700000000E+01 0.  1.
         25    2    1    2    0    0  0.00000000000E+00  0.00000000000E+00  0.15592962099E+02  0.12596925215E+03  0.12500044808E+03 0.  0.
    9000005    1    3    3    0    0  0.43441322210E+02 -0.42960885493E+02 -0.54389249481E+01  0.61346296239E+02  0.10000000000E+01 0.  0.
    9000005    1    3    3    0    0 -0.43441322210E+02  0.42960885493E+02  0.21031887047E+02  0.64622955909E+02  0.10000000000E+01 0.  0.
<mgrwt>
<rscale>  0 0.12500045E+03</rscale>
<asrwt>0</asrwt>
<pdfrwt beam="2">  1        4 0.84904839E-02 0.12500045E+03</pdfrwt>
<pdfrwt beam="1">  1       -4 0.10889401E-01 0.12500045E+03</pdfrwt>
<totfact> 0.10431525E+04</totfact>
</mgrwt>
</event>
<event>
 5    1  0.3196850E-002  0.1250371E+03  0.7818608E-02  0.1235011E+00
         -4   -1    0    0    0  501 -0.00000000000E+00  0.00000000000E+00  0.27684086133E+03  0.27684377436E+03  0.12700000000E+01 0.  1.
          4   -1    0    0  501    0  0.00000000000E+00 -0.00000000000E+00 -0.14086909556E+02  0.14144041885E+02  0.12700000000E+01 0.  1.
         25    2    1    2    0    0  0.00000000000E+00  0.00000000000E+00  0.26275395177E+03  0.29098781624E+03  0.12503707462E+03 0.  0.
    9000005    1    3    3    0    0  0.15131059396E+02 -0.32145596424E+02  0.11683147559E+02  0.37413690874E+02  0.10000000000E+01 0.  0.
    9000005    1    3    3    0    0 -0.15131059396E+02  0.32145596424E+02  0.25107080421E+03  0.25357412537E+03  0.10000000000E+01 0.  0.
<mgrwt>
<rscale>  0 0.12503707E+03</rscale>
<asrwt>0</asrwt>
<pdfrwt beam="2">  1        4 0.21718358E-02 0.12503707E+03</pdfrwt>
<pdfrwt beam="1">  1       -4 0.42595518E-01 0.12503707E+03</pdfrwt>
<totfact> 0.76680233E+03</totfact>
</mgrwt>
</event>
<event>
 5    1  0.3196850E-002  0.1249992E+03  0.7818608E-02  0.1235070E+00
         -4   -1    0    0    0  501 -0.00000000000E+00  0.00000000000E+00  0.28638538224E+02  0.28666684001E+02  0.12700000000E+01 0.  1.
          4   -1    0    0  501    0  0.00000000000E+00 -0.00000000000E+00 -0.13629857319E+03  0.13630448985E+03  0.12700000000E+01 0.  1.
         25    2    1    2    0    0  0.00000000000E+00  0.00000000000E+00 -0.10766003497E+03  0.16497117385E+03  0.12499922029E+03 0.  0.
    9000005    1    3    3    0    0 -0.60611473153E+01 -0.41418056726E+02 -0.11506838665E+03  0.12244968982E+03  0.10000000000E+01 0.  0.
    9000005    1    3    3    0    0  0.60611473153E+01  0.41418056726E+02  0.74083516874E+01  0.42521484034E+02  0.10000000000E+01 0.  0.
<mgrwt>
<rscale>  0 0.12499922E+03</rscale>
<asrwt>0</asrwt>
<pdfrwt beam="2">  1        4 0.20971631E-01 0.12499922E+03</pdfrwt>
<pdfrwt beam="1">  1       -4 0.44085492E-02 0.12499922E+03</pdfrwt>
<totfact> 0.96394540E+03</totfact>
</mgrwt>
</event>
<event>
 5    1  0.3196850E-002  0.1249928E+03  0.7818608E-02  0.1235080E+00
          4   -1    0    0  501    0  0.00000000000E+00  0.00000000000E+00  0.17986150865E+03  0.17986599232E+03  0.12700000000E+01 0. -1.
         -4   -1    0    0    0  501 -0.00000000000E+00 -0.00000000000E+00 -0.21692284895E+02  0.21729429904E+02  0.12700000000E+01 0. -1.
         25    2    1    2    0    0  0.00000000000E+00  0.00000000000E+00  0.15816922376E+03  0.20159542223E+03  0.12499284347E+03 0.  0.
    9000005    1    3    3    0    0 -0.16736815450E+02  0.52838154011E+02  0.32540065546E+02  0.64279447543E+02  0.10000000000E+01 0.  0.
    9000005    1    3    3    0    0  0.16736815450E+02 -0.52838154011E+02  0.12562915821E+03  0.13731597469E+03  0.10000000000E+01 0.  0.
<mgrwt>
<rscale>  0 0.12499284E+03</rscale>
<asrwt>0</asrwt>
<pdfrwt beam="1">  1        4 0.27674202E-01 0.12499284E+03</pdfrwt>
<pdfrwt beam="2">  1       -4 0.33404770E-02 0.12499284E+03</pdfrwt>
<totfact> 0.89881513E+03</totfact>
</mgrwt>
</event>
<event>
 5    1  0.3196850E-002  0.1250073E+03  0.7818608E-02  0.1235058E+00
         -4   -1    0    0    0  501 -0.00000000000E+00  0.00000000000E+00  0.10470377314E+03  0.10471147506E+03  0.12700000000E+01 0.  1.
          4   -1    0    0  501    0  0.00000000000E+00 -0.00000000000E+00 -0.37292104695E+02  0.37313723649E+02  0.12700000000E+01 0.  1.
         25    2    1    2    0    0  0.00000000000E+00  0.00000000000E+00  0.67411668445E+02  0.14202519871E+03  0.12500729589E+03 0.  0.
    9000005    1    3    3    0    0 -0.51546372448E+02  0.35133830338E+02  0.29410783060E+02  0.68973971228E+02  0.10000000000E+01 0.  0.
    9000005    1    3    3    0    0  0.51546372448E+02 -0.35133830338E+02  0.38000885385E+02  0.73051227483E+02  0.10000000000E+01 0.  0.
<mgrwt>
<rscale>  0 0.12500730E+03</rscale>
<asrwt>0</asrwt>
<pdfrwt beam="2">  1        4 0.57395023E-02 0.12500730E+03</pdfrwt>
<pdfrwt beam="1">  1       -4 0.16110528E-01 0.12500730E+03</pdfrwt>
<totfact> 0.10090125E+04</totfact>
</mgrwt>
</event>
<event>
 5    1  0.3196850E-002  0.1249955E+03  0.7818608E-02  0.1235076E+00
         -4   -1    0    0    0  501 -0.00000000000E+00  0.00000000000E+00  0.21677052490E+03  0.21677424516E+03  0.12700000000E+01 0.  1.
          4   -1    0    0  501    0  0.00000000000E+00 -0.00000000000E+00 -0.17992646157E+02  0.18037411559E+02  0.12700000000E+01 0.  1.
         25    2    1    2    0    0  0.00000000000E+00  0.00000000000E+00  0.19877787874E+03  0.23481165672E+03  0.12499547613E+03 0.  0.
    9000005    1    3    3    0    0  0.21477701398E+01  0.90426457313E+01 -0.16696188272E+02  0.19134917330E+02  0.10000000000E+01 0.  0.
    9000005    1    3    3    0    0 -0.21477701398E+01 -0.90426457313E+01  0.21547406701E+03  0.21567673939E+03  0.10000000000E+01 0.  0.
<mgrwt>
<rscale>  0 0.12499548E+03</rscale>
<asrwt>0</asrwt>
<pdfrwt beam="2">  1        4 0.27718289E-02 0.12499548E+03</pdfrwt>
<pdfrwt beam="1">  1       -4 0.33353043E-01 0.12499548E+03</pdfrwt>
<totfact> 0.84584729E+03</totfact>
</mgrwt>
</event>
<event>
 5    1  0.3196850E-002  0.1250012E+03  0.7818608E-02  0.1235067E+00
          4   -1    0    0  501    0  0.00000000000E+00  0.00000000000E+00  0.10326736587E+03  0.10327517491E+03  0.12700000000E+01 0.  1.
         -4   -1    0    0    0  501 -0.00000000000E+00 -0.00000000000E+00 -0.37807380591E+02  0.37828705068E+02  0.12700000000E+01 0.  1.
         25    2    1    2    0    0  0.00000000000E+00  0.00000000000E+00  0.65459985275E+02  0.14110387998E+03  0.12500118109E+03 0.  0.
    9000005    1    3    3    0    0  0.48105897400E+02 -0.11810309777E+02  0.75738834558E+02  0.90504319465E+02  0.10000000000E+01 0.  0.
    9000005    1    3    3    0    0 -0.48105897400E+02  0.11810309777E+02 -0.10278849283E+02  0.50599560515E+02  0.10000000000E+01 0.  0.
<mgrwt>
<rscale>  0 0.12500118E+03</rscale>
<asrwt>0</asrwt>
<pdfrwt beam="1">  1        4 0.15889528E-01 0.12500118E+03</pdfrwt>
<pdfrwt beam="2">  1       -4 0.58187612E-02 0.12500118E+03</pdfrwt>
<totfact> 0.10110489E+04</totfact>
</mgrwt>
</event>
<event>
 5    1  0.3196850E-002  0.1250014E+03  0.7818608E-02  0.1235067E+00
          4   -1    0    0  501    0  0.00000000000E+00  0.00000000000E+00  0.85627115816E+01  0.86563808621E+01  0.12700000000E+01 0.  1.
         -4   -1    0    0    0  501 -0.00000000000E+00 -0.00000000000E+00 -0.45362683864E+03  0.45362861642E+03  0.12700000000E+01 0.  1.
         25    2    1    2    0    0  0.00000000000E+00  0.00000000000E+00 -0.44506412706E+03  0.46228499728E+03  0.12500136606E+03 0.  0.
    9000005    1    3    3    0    0 -0.12250611108E+02  0.47728689983E+02 -0.80391148034E+02  0.94296564106E+02  0.10000000000E+01 0.  0.
    9000005    1    3    3    0    0  0.12250611108E+02 -0.47728689983E+02 -0.36467297902E+03  0.36798843317E+03  0.10000000000E+01 0.  0.
<mgrwt>
<rscale>  0 0.12500137E+03</rscale>
<asrwt>0</asrwt>
<pdfrwt beam="1">  1        4 0.13246827E-02 0.12500137E+03</pdfrwt>
<pdfrwt beam="2">  1       -4 0.69796068E-01 0.12500137E+03</pdfrwt>
<totfact> 0.58912363E+03</totfact>
</mgrwt>
</event>
<event>
 5    1  0.3196850E-002  0.1249988E+03  0.7818608E-02  0.1235071E+00
         -4   -1    0    0    0  501 -0.00000000000E+00  0.00000000000E+00  0.13371542575E+02  0.13431718089E+02  0.12700000000E+01 0. -1.
          4   -1    0    0  501    0  0.00000000000E+00 -0.00000000000E+00 -0.29140850451E+03  0.29141127192E+03  0.12700000000E+01 0. -1.
         25    2    1    2    0    0  0.00000000000E+00  0.00000000000E+00 -0.27803696194E+03  0.30484299001E+03  0.12499878541E+03 0.  0.
    9000005    1    3    3    0    0  0.26646903206E+02 -0.51690229967E+02 -0.19480375171E+03  0.20330135023E+03  0.10000000000E+01 0.  0.
    9000005    1    3    3    0    0 -0.26646903206E+02  0.51690229967E+02 -0.83233210229E+02  0.10154163978E+03  0.10000000000E+01 0.  0.
<mgrwt>
<rscale>  0 0.12499879E+03</rscale>
<asrwt>0</asrwt>
<pdfrwt beam="2">  1        4 0.44836914E-01 0.12499879E+03</pdfrwt>
<pdfrwt beam="1">  1       -4 0.20620024E-02 0.12499879E+03</pdfrwt>
<totfact> 0.74997355E+03</totfact>
</mgrwt>
</event>
<event>
 5    1  0.3196850E-002  0.1249802E+03  0.7818608E-02  0.1235100E+00
          4   -1    0    0  501    0  0.00000000000E+00  0.00000000000E+00  0.23569937026E+02  0.23604127423E+02  0.12700000000E+01 0. -1.
         -4   -1    0    0    0  501 -0.00000000000E+00 -0.00000000000E+00 -0.16552088581E+03  0.16552575794E+03  0.12700000000E+01 0. -1.
         25    2    1    2    0    0  0.00000000000E+00  0.00000000000E+00 -0.14195094879E+03  0.18912988536E+03  0.12498016512E+03 0.  0.
    9000005    1    3    3    0    0 -0.18594281092E+02  0.17351670808E+02 -0.15734094056E+03  0.15938632108E+03  0.10000000000E+01 0.  0.
    9000005    1    3    3    0    0  0.18594281092E+02 -0.17351670808E+02  0.15389991778E+02  0.29743564280E+02  0.10000000000E+01 0.  0.
<mgrwt>
<rscale>  0 0.12498017E+03</rscale>
<asrwt>0</asrwt>
<pdfrwt beam="1">  1        4 0.36291491E-02 0.12498017E+03</pdfrwt>
<pdfrwt beam="2">  1       -4 0.25467756E-01 0.12498017E+03</pdfrwt>
<totfact> 0.92039823E+03</totfact>
</mgrwt>
</event>
<event>
 5    1  0.3196850E-002  0.1249980E+03  0.7818608E-02  0.1235072E+00
          4   -1    0    0  501    0  0.00000000000E+00  0.00000000000E+00  0.28781016123E+03  0.28781296324E+03  0.12700000000E+01 0.  1.
         -4   -1    0    0    0  501 -0.00000000000E+00 -0.00000000000E+00 -0.13539300387E+02  0.13598733579E+02  0.12700000000E+01 0.  1.
         25    2    1    2    0    0  0.00000000000E+00  0.00000000000E+00  0.27427086084E+03  0.30141169682E+03  0.12499802347E+03 0.  0.
    9000005    1    3    3    0    0  0.50191493386E+02  0.27889070567E+02  0.19660007305E+03  0.20481595394E+03  0.10000000000E+01 0.  0.
    9000005    1    3    3    0    0 -0.50191493386E+02 -0.27889070567E+02  0.77670787796E+02  0.96595742878E+02  0.10000000000E+01 0.  0.
<mgrwt>
<rscale>  0 0.12499802E+03</rscale>
<asrwt>0</asrwt>
<pdfrwt beam="1">  1        4 0.44283273E-01 0.12499802E+03</pdfrwt>
<pdfrwt beam="2">  1       -4 0.20877566E-02 0.12499802E+03</pdfrwt>
<totfact> 0.75425407E+03</totfact>
</mgrwt>
</event>
<event>
 5    1  0.3196850E-002  0.1250029E+03  0.7818608E-02  0.1235065E+00
          4   -1    0    0  501    0  0.00000000000E+00  0.00000000000E+00  0.14387641839E+02  0.14443584655E+02  0.12700000000E+01 0. -1.
         -4   -1    0    0    0  501 -0.00000000000E+00 -0.00000000000E+00 -0.27092879298E+03  0.27093176958E+03  0.12700000000E+01 0. -1.
         25    2    1    2    0    0  0.00000000000E+00  0.00000000000E+00 -0.25654115114E+03  0.28537535423E+03  0.12500292226E+03 0.  0.
    9000005    1    3    3    0    0  0.19439269645E+02 -0.58386182508E+02 -0.15313284185E+03  0.16503787070E+03  0.10000000000E+01 0.  0.
    9000005    1    3    3    0    0 -0.19439269645E+02  0.58386182508E+02 -0.10340830929E+03  0.12033748353E+03  0.10000000000E+01 0.  0.
<mgrwt>
<rscale>  0 0.12500292E+03</rscale>
<asrwt>0</asrwt>
<pdfrwt beam="1">  1        4 0.22180158E-02 0.12500292E+03</pdfrwt>
<pdfrwt beam="2">  1       -4 0.41685881E-01 0.12500292E+03</pdfrwt>
<totfact> 0.77465700E+03</totfact>
</mgrwt>
</event>
<event>
 5    1  0.3196850E-002  0.1249936E+03  0.7818608E-02  0.1235079E+00
         -4   -1    0    0    0  501 -0.00000000000E+00  0.00000000000E+00  0.17134529887E+02  0.17181531202E+02  0.12700000000E+01 0.  1.
          4   -1    0    0  501    0  0.00000000000E+00 -0.00000000000E+00 -0.22759086476E+03  0.22759440816E+03  0.12700000000E+01 0.  1.
         25    2    1    2    0    0  0.00000000000E+00  0.00000000000E+00 -0.21045633488E+03  0.24477593936E+03  0.12499356623E+03 0.  0.
    9000005    1    3    3    0    0  0.30105439664E+02  0.50851484549E+01  0.15427753749E+01  0.30587193203E+02  0.10000000000E+01 0.  0.
    9000005    1    3    3    0    0 -0.30105439664E+02 -0.50851484549E+01 -0.21199911025E+03  0.21418874616E+03  0.10000000000E+01 0.  0.
<mgrwt>
<rscale>  0 0.12499357E+03</rscale>
<asrwt>0</asrwt>
<pdfrwt beam="2">  1        4 0.35017865E-01 0.12499357E+03</pdfrwt>
<pdfrwt beam="1">  1       -4 0.26399697E-02 0.12499357E+03</pdfrwt>
<totfact> 0.83103094E+03</totfact>
</mgrwt>
</event>
<event>
 5    1  0.3196850E-002  0.1250027E+03  0.7818608E-02  0.1235065E+00
          4   -1    0    0  501    0  0.00000000000E+00  0.00000000000E+00  0.26255009892E+02  0.26285707988E+02  0.12700000000E+01 0. -1.
         -4   -1    0    0    0  501 -0.00000000000E+00 -0.00000000000E+00 -0.14866726061E+03  0.14867268504E+03  0.12700000000E+01 0. -1.
         25    2    1    2    0    0  0.00000000000E+00  0.00000000000E+00 -0.12241225072E+03  0.17495839303E+03  0.12500272063E+03 0.  0.
    9000005    1    3    3    0    0  0.28617833380E+02  0.50642774526E+02 -0.93176383727E+02  0.10984766490E+03  0.10000000000E+01 0.  0.
    9000005    1    3    3    0    0 -0.28617833380E+02 -0.50642774526E+02 -0.29235866992E+02  0.65110728132E+02  0.10000000000E+01 0.  0.
<mgrwt>
<rscale>  0 0.12500272E+03</rscale>
<asrwt>0</asrwt>
<pdfrwt beam="1">  1        4 0.40420111E-02 0.12500272E+03</pdfrwt>
<pdfrwt beam="2">  1       -4 0.22874664E-01 0.12500272E+03</pdfrwt>
<totfact> 0.94526692E+03</totfact>
</mgrwt>
</event>
<event>
 5    1  0.3196850E-002  0.1249987E+03  0.7818608E-02  0.1235071E+00
          4   -1    0    0  501    0  0.00000000000E+00  0.00000000000E+00  0.33540239502E+02  0.33564275143E+02  0.12700000000E+01 0.  1.
         -4   -1    0    0    0  501 -0.00000000000E+00 -0.00000000000E+00 -0.11639302448E+03  0.11639995295E+03  0.12700000000E+01 0.  1.
         25    2    1    2    0    0  0.00000000000E+00  0.00000000000E+00 -0.82852784975E+02  0.14996422809E+03  0.12499874291E+03 0.  0.
    9000005    1    3    3    0    0  0.31028518965E+02  0.10459198746E+02 -0.10528300867E+03  0.11026185080E+03  0.10000000000E+01 0.  0.
    9000005    1    3    3    0    0 -0.31028518965E+02 -0.10459198746E+02  0.22430223695E+02  0.39702377291E+02  0.10000000000E+01 0.  0.
<mgrwt>
<rscale>  0 0.12499874E+03</rscale>
<asrwt>0</asrwt>
<pdfrwt beam="1">  1        4 0.51624188E-02 0.12499874E+03</pdfrwt>
<pdfrwt beam="2">  1       -4 0.17909001E-01 0.12499874E+03</pdfrwt>
<totfact> 0.99313639E+03</totfact>
</mgrwt>
</event>
<event>
 5    1  0.3196850E-002  0.1249996E+03  0.7818608E-02  0.1235070E+00
         -4   -1    0    0    0  501 -0.00000000000E+00  0.00000000000E+00  0.36869992071E+03  0.36870210799E+03  0.12700000000E+01 0.  1.
          4   -1    0    0  501    0  0.00000000000E+00 -0.00000000000E+00 -0.10554308660E+02  0.10630443607E+02  0.12700000000E+01 0.  1.
         25    2    1    2    0    0  0.00000000000E+00  0.00000000000E+00  0.35814561205E+03  0.37933255159E+03  0.12499962106E+03 0.  0.
    9000005    1    3    3    0    0 -0.59292126679E+02  0.17342111668E+02  0.15045646805E+03  0.16264825207E+03  0.10000000000E+01 0.  0.
    9000005    1    3    3    0    0  0.59292126679E+02 -0.17342111668E+02  0.20768914400E+03  0.21668429952E+03  0.10000000000E+01 0.  0.
<mgrwt>
<rscale>  0 0.12499962E+03</rscale>
<asrwt>0</asrwt>
<pdfrwt beam="2">  1        4 0.16297645E-02 0.12499962E+03</pdfrwt>
<pdfrwt beam="1">  1       -4 0.56729093E-01 0.12499962E+03</pdfrwt>
<totfact> 0.66614303E+03</totfact>
</mgrwt>
</event>
<event>
 5    1  0.3196850E-002  0.1249987E+03  0.7818608E-02  0.1235071E+00
          4   -1    0    0  501    0  0.00000000000E+00  0.00000000000E+00  0.45131675244E+03  0.45131853932E+03  0.12700000000E+01 0. -1.
         -4   -1    0    0    0  501 -0.00000000000E+00 -0.00000000000E+00 -0.86066494499E+01  0.86998456741E+01  0.12700000000E+01 0. -1.
         25    2    1    2    0    0  0.00000000000E+00  0.00000000000E+00  0.44271010299E+03  0.46001838499E+03  0.12499871696E+03 0.  0.
    9000005    1    3    3    0    0 -0.56612658624E+02 -0.93345486186E+01  0.31247533573E+03  0.31770105816E+03  0.10000000000E+01 0.  0.
    9000005    1    3    3    0    0  0.56612658624E+02  0.93345486186E+01  0.13023476725E+03  0.14231732683E+03  0.10000000000E+01 0.  0.
<mgrwt>
<rscale>  0 0.12499872E+03</rscale>
<asrwt>0</asrwt>
<pdfrwt beam="1">  1        4 0.69440637E-01 0.12499872E+03</pdfrwt>
<pdfrwt beam="2">  1       -4 0.13314066E-02 0.12499872E+03</pdfrwt>
<totfact> 0.59107300E+03</totfact>
</mgrwt>
</event>
<event>
 5    1  0.3196850E-002  0.1250022E+03  0.7818608E-02  0.1235066E+00
         -4   -1    0    0    0  501 -0.00000000000E+00  0.00000000000E+00  0.51027251351E+01  0.52583936525E+01  0.12700000000E+01 0.  1.
          4   -1    0    0  501    0  0.00000000000E+00 -0.00000000000E+00 -0.75389145163E+03  0.75389252134E+03  0.12700000000E+01 0.  1.
         25    2    1    2    0    0  0.00000000000E+00  0.00000000000E+00 -0.74878872649E+03  0.75915091500E+03  0.12500221925E+03 0.  0.
    9000005    1    3    3    0    0 -0.37351735826E+02 -0.34266926496E+02 -0.59637543661E+03  0.59852655397E+03  0.10000000000E+01 0.  0.
    9000005    1    3    3    0    0  0.37351735826E+02  0.34266926496E+02 -0.15241328988E+03  0.16062436102E+03  0.10000000000E+01 0.  0.
<mgrwt>
<rscale>  0 0.12500222E+03</rscale>
<asrwt>0</asrwt>
<pdfrwt beam="2">  1        4 0.11599527E+00 0.12500222E+03</pdfrwt>
<pdfrwt beam="1">  1       -4 0.79709202E-03 0.12500222E+03</pdfrwt>
<totfact> 0.40138307E+03</totfact>
</mgrwt>
</event>
<event>
 5    1  0.3196850E-002  0.1249997E+03  0.7818608E-02  0.1235070E+00
         -4   -1    0    0    0  501 -0.00000000000E+00  0.00000000000E+00  0.20314540104E+02  0.20354199558E+02  0.12700000000E+01 0.  1.
          4   -1    0    0  501    0  0.00000000000E+00 -0.00000000000E+00 -0.19205809000E+03  0.19206228894E+03  0.12700000000E+01 0.  1.
         25    2    1    2    0    0  0.00000000000E+00  0.00000000000E+00 -0.17174354990E+03  0.21241648850E+03  0.12499967063E+03 0.  0.
    9000005    1    3    3    0    0 -0.19390811465E+02  0.56442789478E+02 -0.11736398399E+03  0.13167040970E+03  0.10000000000E+01 0.  0.
    9000005    1    3    3    0    0  0.19390811465E+02 -0.56442789478E+02 -0.54379565905E+02  0.80746078799E+02  0.10000000000E+01 0.  0.
<mgrwt>
<rscale>  0 0.12499967E+03</rscale>
<asrwt>0</asrwt>
<pdfrwt beam="2">  1        4 0.29550771E-01 0.12499967E+03</pdfrwt>
<pdfrwt beam="1">  1       -4 0.31286877E-02 0.12499967E+03</pdfrwt>
<totfact> 0.88083400E+03</totfact>
</mgrwt>
</event>
<event>
 5    1  0.3196850E-002  0.1249996E+03  0.7818608E-02  0.1235070E+00
          4   -1    0    0  501    0  0.00000000000E+00  0.00000000000E+00  0.11711773194E+03  0.11712461754E+03  0.12700000000E+01 0. -1.
         -4   -1    0    0    0  501 -0.00000000000E+00 -0.00000000000E+00 -0.33333035140E+02  0.33357220083E+02  0.12700000000E+01 0. -1.
         25    2    1    2    0    0  0.00000000000E+00  0.00000000000E+00  0.83784696801E+02  0.15048183763E+03  0.12499963215E+03 0.  0.
    9000005    1    3    3    0    0  0.36385632877E+02  0.77541222846E+00  0.10304919397E+03  0.10929159127E+03  0.10000000000E+01 0.  0.
    9000005    1    3    3    0    0 -0.36385632877E+02 -0.77541222846E+00 -0.19264497169E+02  0.41190246360E+02  0.10000000000E+01 0.  0.
<mgrwt>
<rscale>  0 0.12499963E+03</rscale>
<asrwt>0</asrwt>
<pdfrwt beam="1">  1        4 0.18020503E-01 0.12499963E+03</pdfrwt>
<pdfrwt beam="2">  1       -4 0.51305493E-02 0.12499963E+03</pdfrwt>
<totfact> 0.99208559E+03</totfact>
</mgrwt>
</event>
<event>
 5    1  0.3196850E-002  0.1249923E+03  0.7818608E-02  0.1235081E+00
          4   -1    0    0  501    0  0.00000000000E+00  0.00000000000E+00  0.15962209087E+03  0.15962714303E+03  0.12700000000E+01 0. -1.
         -4   -1    0    0    0  501 -0.00000000000E+00 -0.00000000000E+00 -0.24446919945E+02  0.24479885515E+02  0.12700000000E+01 0. -1.
         25    2    1    2    0    0  0.00000000000E+00  0.00000000000E+00  0.13517517092E+03  0.18410702855E+03  0.12499228427E+03 0.  0.
    9000005    1    3    3    0    0 -0.11110570707E+02  0.40248825375E+02  0.13606545210E+03  0.14233137384E+03  0.10000000000E+01 0.  0.
    9000005    1    3    3    0    0  0.11110570707E+02 -0.40248825375E+02 -0.89028117528E+00  0.41775654705E+02  0.10000000000E+01 0.  0.
<mgrwt>
<rscale>  0 0.12499228E+03</rscale>
<asrwt>0</asrwt>
<pdfrwt beam="1">  1        4 0.24560170E-01 0.12499228E+03</pdfrwt>
<pdfrwt beam="2">  1       -4 0.37639889E-02 0.12499228E+03</pdfrwt>
<totfact> 0.92898968E+03</totfact>
</mgrwt>
</event>
<event>
 5    1  0.3196850E-002  0.1249999E+03  0.7818608E-02  0.1235070E+00
         -4   -1    0    0    0  501 -0.00000000000E+00  0.00000000000E+00  0.33612324642E+02  0.33636308772E+02  0.12700000000E+01 0. -1.
          4   -1    0    0  501    0  0.00000000000E+00 -0.00000000000E+00 -0.11614563208E+03  0.11615257531E+03  0.12700000000E+01 0. -1.
         25    2    1    2    0    0  0.00000000000E+00  0.00000000000E+00 -0.82533307440E+02  0.14978888408E+03  0.12499985183E+03 0.  0.
    9000005    1    3    3    0    0 -0.15657574115E+02 -0.25384644156E+02  0.24539153940E+02  0.38635603557E+02  0.10000000000E+01 0.  0.
    9000005    1    3    3    0    0  0.15657574115E+02  0.25384644156E+02 -0.10707246138E+03  0.11115328053E+03  0.10000000000E+01 0.  0.
<mgrwt>
<rscale>  0 0.12499985E+03</rscale>
<asrwt>0</asrwt>
<pdfrwt beam="2">  1        4 0.17870938E-01 0.12499985E+03</pdfrwt>
<pdfrwt beam="1">  1       -4 0.51735059E-02 0.12499985E+03</pdfrwt>
<totfact> 0.99346129E+03</totfact>
</mgrwt>
</event>
<event>
 5    1  0.3196850E-002  0.1249849E+03  0.7818608E-02  0.1235093E+00
         -4   -1    0    0    0  501 -0.00000000000E+00  0.00000000000E+00  0.75018043052E+02  0.75028792362E+02  0.12700000000E+01 0.  1.
          4   -1    0    0  501    0  0.00000000000E+00 -0.00000000000E+00 -0.52035978101E+02  0.52051473725E+02  0.12700000000E+01 0.  1.
         25    2    1    2    0    0  0.00000000000E+00  0.00000000000E+00  0.22982064951E+02  0.12708026609E+03  0.12498487396E+03 0.  0.
    9000005    1    3    3    0    0  0.59168609540E+02 -0.88552596105E+01 -0.68379668010E+01  0.60225391386E+02  0.10000000000E+01 0.  0.
    9000005    1    3    3    0    0 -0.59168609540E+02  0.88552596105E+01  0.29820031752E+02  0.66854874701E+02  0.10000000000E+01 0.  0.
<mgrwt>
<rscale>  0 0.12498487E+03</rscale>
<asrwt>0</asrwt>
<pdfrwt beam="2">  1        4 0.80075539E-02 0.12498487E+03</pdfrwt>
<pdfrwt beam="1">  1       -4 0.11543256E-01 0.12498487E+03</pdfrwt>
<totfact> 0.10410957E+04</totfact>
</mgrwt>
</event>
<event>
 5    1  0.3196850E-002  0.1250013E+03  0.7818608E-02  0.1235067E+00
         -4   -1    0    0    0  501 -0.00000000000E+00  0.00000000000E+00  0.10184249574E+02  0.10263130097E+02  0.12700000000E+01 0. -1.
          4   -1    0    0  501    0  0.00000000000E+00 -0.00000000000E+00 -0.38200604719E+03  0.38200815828E+03  0.12700000000E+01 0. -1.
         25    2    1    2    0    0  0.00000000000E+00  0.00000000000E+00 -0.37182179762E+03  0.39227128837E+03  0.12500125799E+03 0.  0.
    9000005    1    3    3    0    0 -0.74951590482E+01  0.39928510867E+02 -0.36895059367E+02  0.54888148037E+02  0.10000000000E+01 0.  0.
    9000005    1    3    3    0    0  0.74951590482E+01 -0.39928510867E+02 -0.33492673825E+03  0.33738314034E+03  0.10000000000E+01 0.  0.
<mgrwt>
<rscale>  0 0.12500126E+03</rscale>
<asrwt>0</asrwt>
<pdfrwt beam="2">  1        4 0.58776380E-01 0.12500126E+03</pdfrwt>
<pdfrwt beam="1">  1       -4 0.15730380E-02 0.12500126E+03</pdfrwt>
<totfact> 0.65309670E+03</totfact>
</mgrwt>
</event>
<event>
 5    1  0.3196850E-002  0.1250226E+03  0.7818608E-02  0.1235034E+00
          4   -1    0    0  501    0  0.00000000000E+00  0.00000000000E+00  0.10104483299E+03  0.10105281379E+03  0.12700000000E+01 0.  1.
         -4   -1    0    0    0  501 -0.00000000000E+00 -0.00000000000E+00 -0.38652604065E+02  0.38673462491E+02  0.12700000000E+01 0.  1.
         25    2    1    2    0    0  0.00000000000E+00  0.00000000000E+00  0.62392228926E+02  0.13972627628E+03  0.12502256617E+03 0.  0.
    9000005    1    3    3    0    0 -0.29057967524E+02 -0.27461332668E+02  0.84889847032E+02  0.93839098449E+02  0.10000000000E+01 0.  0.
    9000005    1    3    3    0    0  0.29057967524E+02  0.27461332668E+02 -0.22497618107E+02  0.45887177828E+02  0.10000000000E+01 0.  0.
<mgrwt>
<rscale>  0 0.12502257E+03</rscale>
<asrwt>0</asrwt>
<pdfrwt beam="1">  1        4 0.15547577E-01 0.12502257E+03</pdfrwt>
<pdfrwt beam="2">  1       -4 0.59487730E-02 0.12502257E+03</pdfrwt>
<totfact> 0.10134109E+04</totfact>
</mgrwt>
</event>
<event>
 5    1  0.3196850E-002  0.1249968E+03  0.7818608E-02  0.1235074E+00
         -4   -1    0    0    0  501 -0.00000000000E+00  0.00000000000E+00  0.19762462885E+02  0.19803228001E+02  0.12700000000E+01 0.  1.
          4   -1    0    0  501    0  0.00000000000E+00 -0.00000000000E+00 -0.19740341592E+03  0.19740750117E+03  0.12700000000E+01 0.  1.
         25    2    1    2    0    0  0.00000000000E+00  0.00000000000E+00 -0.17764095304E+03  0.21721072917E+03  0.12499677064E+03 0.  0.
    9000005    1    3    3    0    0  0.52362445256E+02 -0.26364253250E+02 -0.12641930956E+03  0.13935473208E+03  0.10000000000E+01 0.  0.
    9000005    1    3    3    0    0 -0.52362445256E+02  0.26364253250E+02 -0.51221643472E+02  0.77855997088E+02  0.10000000000E+01 0.  0.
<mgrwt>
<rscale>  0 0.12499677E+03</rscale>
<asrwt>0</asrwt>
<pdfrwt beam="2">  1        4 0.30373205E-01 0.12499677E+03</pdfrwt>
<pdfrwt beam="1">  1       -4 0.30438291E-02 0.12499677E+03</pdfrwt>
<totfact> 0.87317949E+03</totfact>
</mgrwt>
</event>
<event>
 5    1  0.3196850E-002  0.1250033E+03  0.7818608E-02  0.1235064E+00
         -4   -1    0    0    0  501 -0.00000000000E+00  0.00000000000E+00  0.10572280509E+03  0.10573043278E+03  0.12700000000E+01 0.  1.
          4   -1    0    0  501    0  0.00000000000E+00 -0.00000000000E+00 -0.36930123694E+02  0.36951954428E+02  0.12700000000E+01 0.  1.
         25    2    1    2    0    0  0.00000000000E+00  0.00000000000E+00  0.68792681391E+02  0.14268238720E+03  0.12500332238E+03 0.  0.
    9000005    1    3    3    0    0  0.24328097768E+02  0.54862135660E+01  0.99802327809E+02  0.10287594236E+03  0.10000000000E+01 0.  0.
    9000005    1    3    3    0    0 -0.24328097768E+02 -0.54862135660E+01 -0.31009646417E+02  0.39806444845E+02  0.10000000000E+01 0.  0.
<mgrwt>
<rscale>  0 0.12500332E+03</rscale>
<asrwt>0</asrwt>
<pdfrwt beam="2">  1        4 0.56838235E-02 0.12500332E+03</pdfrwt>
<pdfrwt beam="1">  1       -4 0.16267313E-01 0.12500332E+03</pdfrwt>
<totfact> 0.10077537E+04</totfact>
</mgrwt>
</event>
<event>
 5    1  0.3196850E-002  0.1249977E+03  0.7818608E-02  0.1235073E+00
          4   -1    0    0  501    0  0.00000000000E+00  0.00000000000E+00  0.48545608304E+02  0.48562217676E+02  0.12700000000E+01 0. -1.
         -4   -1    0    0    0  501 -0.00000000000E+00 -0.00000000000E+00 -0.80427232796E+02  0.80437259247E+02  0.12700000000E+01 0. -1.
         25    2    1    2    0    0  0.00000000000E+00  0.00000000000E+00 -0.31881624492E+02  0.12899947692E+03  0.12499770824E+03 0.  0.
    9000005    1    3    3    0    0  0.54090003604E+02  0.15067465195E+02  0.12366314847E+02  0.57503762835E+02  0.10000000000E+01 0.  0.
    9000005    1    3    3    0    0 -0.54090003604E+02 -0.15067465195E+02 -0.44247939339E+02  0.71495714088E+02  0.10000000000E+01 0.  0.
<mgrwt>
<rscale>  0 0.12499771E+03</rscale>
<asrwt>0</asrwt>
<pdfrwt beam="1">  1        4 0.74706041E-02 0.12499771E+03</pdfrwt>
<pdfrwt beam="2">  1       -4 0.12375469E-01 0.12499771E+03</pdfrwt>
<totfact> 0.10366494E+04</totfact>
</mgrwt>
</event>
<event>
 5    1  0.3196850E-002  0.1250024E+03  0.7818608E-02  0.1235066E+00
         -4   -1    0    0    0  501 -0.00000000000E+00  0.00000000000E+00  0.71560781545E+03  0.71560894240E+03  0.12700000000E+01 0. -1.
          4   -1    0    0  501    0  0.00000000000E+00 -0.00000000000E+00 -0.53838399242E+01  0.55316030524E+01  0.12700000000E+01 0. -1.
         25    2    1    2    0    0  0.00000000000E+00  0.00000000000E+00  0.71022397553E+03  0.72114054545E+03  0.12500236347E+03 0.  0.
    9000005    1    3    3    0    0  0.57103306647E+00 -0.44880778985E+02  0.10425683289E+03  0.11351254383E+03  0.10000000000E+01 0.  0.
    9000005    1    3    3    0    0 -0.57103306647E+00  0.44880778985E+02  0.60596714264E+03  0.60762800162E+03  0.10000000000E+01 0.  0.
<mgrwt>
<rscale>  0 0.12500236E+03</rscale>
<asrwt>0</asrwt>
<pdfrwt beam="2">  1        4 0.83973654E-03 0.12500236E+03</pdfrwt>
<pdfrwt beam="1">  1       -4 0.11010491E+00 0.12500236E+03</pdfrwt>
<totfact> 0.41991781E+03</totfact>
</mgrwt>
</event>
<event>
 4    1  0.3196850E-002  0.1248805E+03  0.7818608E-02  0.1235256E+00
         -4   -1    0    0    0  501 -0.00000000000E+00  0.00000000000E+00  0.46400293052E+02  0.46417670077E+02  0.12700000000E+01 0.  1.
          4   -1    0    0  501    0  0.00000000000E+00 -0.00000000000E+00 -0.83987122638E+02  0.83996724156E+02  0.12700000000E+01 0.  1.
    9000005    1    1    2    0    0 -0.15045242326E+02 -0.59341418859E+02 -0.60022683430E+01  0.61520651282E+02  0.10000000000E+01 0.  0.
    9000005    1    1    2    0    0  0.15045242326E+02  0.59341418859E+02 -0.31584561242E+02  0.68893742951E+02  0.10000000000E+01 0.  0.
<mgrwt>
<rscale>  0 0.12488052E+03</rscale>
<asrwt>0</asrwt>
<pdfrwt beam="2">  1        4 0.12923171E-01 0.12488052E+03</pdfrwt>
<pdfrwt beam="1">  1       -4 0.71405819E-02 0.12488052E+03</pdfrwt>
<totfact> 0.10363571E+04</totfact>
</mgrwt>
</event>
<event>
 5    1  0.3196850E-002  0.1249996E+03  0.7818608E-02  0.1235070E+00
         -4   -1    0    0    0  501 -0.00000000000E+00  0.00000000000E+00  0.10606839342E+03  0.10607599626E+03  0.12700000000E+01 0. -1.
          4   -1    0    0  501    0  0.00000000000E+00 -0.00000000000E+00 -0.36807542616E+02  0.36829446010E+02  0.12700000000E+01 0. -1.
         25    2    1    2    0    0  0.00000000000E+00  0.00000000000E+00  0.69260850805E+02  0.14290544227E+03  0.12499959991E+03 0.  0.
    9000005    1    3    3    0    0  0.49682069571E+01  0.91099273784E+01 -0.35821353057E+02  0.37307414706E+02  0.10000000000E+01 0.  0.
    9000005    1    3    3    0    0 -0.49682069571E+01 -0.91099273784E+01  0.10508220386E+03  0.10559802756E+03  0.10000000000E+01 0.  0.
<mgrwt>
<rscale>  0 0.12499960E+03</rscale>
<asrwt>0</asrwt>
<pdfrwt beam="2">  1        4 0.56649686E-02 0.12499960E+03</pdfrwt>
<pdfrwt beam="1">  1       -4 0.16320484E-01 0.12499960E+03</pdfrwt>
<totfact> 0.10073811E+04</totfact>
</mgrwt>
</event>
<event>
 5    1  0.3196850E-002  0.1249993E+03  0.7818608E-02  0.1235070E+00
          4   -1    0    0  501    0  0.00000000000E+00  0.00000000000E+00  0.81947452353E+02  0.81957292825E+02  0.12700000000E+01 0. -1.
         -4   -1    0    0    0  501 -0.00000000000E+00 -0.00000000000E+00 -0.47646053527E+02  0.47662976373E+02  0.12700000000E+01 0. -1.
         25    2    1    2    0    0  0.00000000000E+00  0.00000000000E+00  0.34301398826E+02  0.12962026920E+03  0.12499931290E+03 0.  0.
    9000005    1    3    3    0    0 -0.44624524800E+02  0.18013486995E+02 -0.24190038701E+02  0.53870139221E+02  0.10000000000E+01 0.  0.
    9000005    1    3    3    0    0  0.44624524800E+02 -0.18013486995E+02  0.58491437527E+02  0.75750129976E+02  0.10000000000E+01 0.  0.
<mgrwt>
<rscale>  0 0.12499931E+03</rscale>
<asrwt>0</asrwt>
<pdfrwt beam="1">  1        4 0.12609359E-01 0.12499931E+03</pdfrwt>
<pdfrwt beam="2">  1       -4 0.73322207E-02 0.12499931E+03</pdfrwt>
<totfact> 0.10352798E+04</totfact>
</mgrwt>
</event>
<event>
 5    1  0.3196850E-002  0.1250016E+03  0.7818608E-02  0.1235067E+00
          4   -1    0    0  501    0  0.00000000000E+00  0.00000000000E+00  0.13296989712E+04  0.13296995777E+04  0.12700000000E+01 0.  1.
         -4   -1    0    0    0  501 -0.00000000000E+00 -0.00000000000E+00 -0.27998787085E+01  0.30744464188E+01  0.12700000000E+01 0.  1.
         25    2    1    2    0    0  0.00000000000E+00  0.00000000000E+00  0.13268990925E+04  0.13327740241E+04  0.12500159073E+03 0.  0.
    9000005    1    3    3    0    0  0.32912064471E+02 -0.19917452357E+02  0.11885426261E+04  0.11891654565E+04  0.10000000000E+01 0.  0.
    9000005    1    3    3    0    0 -0.32912064471E+02  0.19917452357E+02  0.13835646639E+03  0.14360856760E+03  0.10000000000E+01 0.  0.
<mgrwt>
<rscale>  0 0.12500159E+03</rscale>
<asrwt>0</asrwt>
<pdfrwt beam="1">  1        4 0.20459031E+00 0.12500159E+03</pdfrwt>
<pdfrwt beam="2">  1       -4 0.45191765E-03 0.12500159E+03</pdfrwt>
<totfact> 0.21467203E+03</totfact>
</mgrwt>
</event>
<event>
 5    1  0.3196850E-002  0.1249996E+03  0.7818608E-02  0.1235070E+00
          4   -1    0    0  501    0  0.00000000000E+00  0.00000000000E+00  0.39179610715E+01  0.41186549938E+01  0.12700000000E+01 0.  1.
         -4   -1    0    0    0  501 -0.00000000000E+00 -0.00000000000E+00 -0.97190590464E+03  0.97190673441E+03  0.12700000000E+01 0.  1.
         25    2    1    2    0    0  0.00000000000E+00  0.00000000000E+00 -0.96798794357E+03  0.97602538940E+03  0.12499960740E+03 0.  0.
    9000005    1    3    3    0    0 -0.14546695733E+02 -0.19207872575E+02 -0.33771489126E+02  0.41497737328E+02  0.10000000000E+01 0.  0.
    9000005    1    3    3    0    0  0.14546695733E+02  0.19207872575E+02 -0.93421645445E+03  0.93452765207E+03  0.10000000000E+01 0.  0.
<mgrwt>
<rscale>  0 0.12499961E+03</rscale>
<asrwt>0</asrwt>
<pdfrwt beam="1">  1        4 0.61826584E-03 0.12499961E+03</pdfrwt>
<pdfrwt beam="2">  1       -4 0.14953930E+00 0.12499961E+03</pdfrwt>
<totfact> 0.31409923E+03</totfact>
</mgrwt>
</event>
<event>
 5    1  0.3196850E-002  0.1250010E+03  0.7818608E-02  0.1235068E+00
          4   -1    0    0  501    0  0.00000000000E+00  0.00000000000E+00  0.11911605852E+02  0.11979117412E+02  0.12700000000E+01 0. -1.
         -4   -1    0    0    0  501 -0.00000000000E+00 -0.00000000000E+00 -0.32694612610E+03  0.32694859271E+03  0.12700000000E+01 0. -1.
         25    2    1    2    0    0  0.00000000000E+00  0.00000000000E+00 -0.31503452025E+03  0.33892771012E+03  0.12500097495E+03 0.  0.
    9000005    1    3    3    0    0  0.17039288337E+02 -0.26629303937E+02 -0.30367793989E+03  0.30532073030E+03  0.10000000000E+01 0.  0.
    9000005    1    3    3    0    0 -0.17039288337E+02  0.26629303937E+02 -0.11356580361E+02  0.33606979821E+02  0.10000000000E+01 0.  0.
<mgrwt>
<rscale>  0 0.12500097E+03</rscale>
<asrwt>0</asrwt>
<pdfrwt beam="1">  1        4 0.18379379E-02 0.12500097E+03</pdfrwt>
<pdfrwt beam="2">  1       -4 0.50304780E-01 0.12500097E+03</pdfrwt>
<totfact> 0.70958540E+03</totfact>
</mgrwt>
</event>
<event>
 5    1  0.3196850E-002  0.1250041E+03  0.7818608E-02  0.1235063E+00
          4   -1    0    0  501    0  0.00000000000E+00  0.00000000000E+00  0.26488824386E+03  0.26489128834E+03  0.12700000000E+01 0.  1.
         -4   -1    0    0    0  501 -0.00000000000E+00 -0.00000000000E+00 -0.14717266346E+02  0.14771960896E+02  0.12700000000E+01 0.  1.
         25    2    1    2    0    0  0.00000000000E+00  0.00000000000E+00  0.25017097752E+03  0.27966324923E+03  0.12500405985E+03 0.  0.
    9000005    1    3    3    0    0 -0.29904978142E+02 -0.25077749718E+02  0.23428224408E+03  0.23751288626E+03  0.10000000000E+01 0.  0.
    9000005    1    3    3    0    0  0.29904978142E+02  0.25077749718E+02  0.15888733439E+02  0.42150362974E+02  0.10000000000E+01 0.  0.
<mgrwt>
<rscale>  0 0.12500406E+03</rscale>
<asrwt>0</asrwt>
<pdfrwt beam="1">  1        4 0.40756475E-01 0.12500406E+03</pdfrwt>
<pdfrwt beam="2">  1       -4 0.22686365E-02 0.12500406E+03</pdfrwt>
<totfact> 0.78215720E+03</totfact>
</mgrwt>
</event>
<event>
 5    1  0.3196850E-002  0.1250034E+03  0.7818608E-02  0.1235064E+00
         -4   -1    0    0    0  501 -0.00000000000E+00  0.00000000000E+00  0.28328196040E+01  0.31044753033E+01  0.12700000000E+01 0.  1.
          4   -1    0    0  501    0  0.00000000000E+00 -0.00000000000E+00 -0.13156343386E+04  0.13156349515E+04  0.12700000000E+01 0.  1.
         25    2    1    2    0    0  0.00000000000E+00  0.00000000000E+00 -0.13128015190E+04  0.13187394268E+04  0.12500339084E+03 0.  0.
    9000005    1    3    3    0    0 -0.47905673270E+01  0.56910761077E+02 -0.92405332957E+03  0.92581712026E+03  0.10000000000E+01 0.  0.
    9000005    1    3    3    0    0  0.47905673270E+01 -0.56910761077E+02 -0.38874818938E+03  0.39292230658E+03  0.10000000000E+01 0.  0.
<mgrwt>
<rscale>  0 0.12500339E+03</rscale>
<asrwt>0</asrwt>
<pdfrwt beam="2">  1        4 0.20242576E+00 0.12500339E+03</pdfrwt>
<pdfrwt beam="1">  1       -4 0.45676320E-03 0.12500339E+03</pdfrwt>
<totfact> 0.21788969E+03</totfact>
</mgrwt>
</event>
<event>
 5    1  0.3196850E-002  0.1249991E+03  0.7818608E-02  0.1235071E+00
         -4   -1    0    0    0  501 -0.00000000000E+00  0.00000000000E+00  0.50854618192E+03  0.50854776771E+03  0.12700000000E+01 0. -1.
          4   -1    0    0  501    0  0.00000000000E+00 -0.00000000000E+00 -0.76269934353E+01  0.77320067810E+01  0.12700000000E+01 0. -1.
         25    2    1    2    0    0  0.00000000000E+00  0.00000000000E+00  0.50091918848E+03  0.51627977449E+03  0.12499908863E+03 0.  0.
    9000005    1    3    3    0    0  0.17596500426E+01 -0.62278775745E+02  0.23045836190E+03  0.23873374049E+03  0.10000000000E+01 0.  0.
    9000005    1    3    3    0    0 -0.17596500426E+01  0.62278775745E+02  0.27046082658E+03  0.27754603400E+03  0.10000000000E+01 0.  0.
<mgrwt>
<rscale>  0 0.12499909E+03</rscale>
<asrwt>0</asrwt>
<pdfrwt beam="2">  1        4 0.11815836E-02 0.12499909E+03</pdfrwt>
<pdfrwt beam="1">  1       -4 0.78246073E-01 0.12499909E+03</pdfrwt>
<totfact> 0.54624109E+03</totfact>
</mgrwt>
</event>
<event>
 5    1  0.3196850E-002  0.1249982E+03  0.7818608E-02  0.1235072E+00
          4   -1    0    0  501    0  0.00000000000E+00  0.00000000000E+00  0.24030465381E+03  0.24030800974E+03  0.12700000000E+01 0.  1.
         -4   -1    0    0    0  501 -0.00000000000E+00 -0.00000000000E+00 -0.16226660902E+02  0.16276284098E+02  0.12700000000E+01 0.  1.
         25    2    1    2    0    0  0.00000000000E+00  0.00000000000E+00  0.22407799291E+03  0.25658429384E+03  0.12499821173E+03 0.  0.
    9000005    1    3    3    0    0  0.39632393288E+02  0.43732290674E+02  0.15420187003E+03  0.16511346573E+03  0.10000000000E+01 0.  0.
    9000005    1    3    3    0    0 -0.39632393288E+02 -0.43732290674E+02  0.69876122886E+02  0.91470828109E+02  0.10000000000E+01 0.  0.
<mgrwt>
<rscale>  0 0.12499821E+03</rscale>
<asrwt>0</asrwt>
<pdfrwt beam="1">  1        4 0.36974022E-01 0.12499821E+03</pdfrwt>
<pdfrwt beam="2">  1       -4 0.25004847E-02 0.12499821E+03</pdfrwt>
<totfact> 0.81391049E+03</totfact>
</mgrwt>
</event>
<event>
 5    1  0.3196850E-002  0.1250044E+03  0.7818608E-02  0.1235062E+00
          4   -1    0    0  501    0  0.00000000000E+00  0.00000000000E+00  0.64425929838E+01  0.65665747810E+01  0.12700000000E+01 0.  1.
         -4   -1    0    0    0  501 -0.00000000000E+00 -0.00000000000E+00 -0.60045527561E+03  0.60045661867E+03  0.12700000000E+01 0.  1.
         25    2    1    2    0    0  0.00000000000E+00  0.00000000000E+00 -0.59401268263E+03  0.60702319345E+03  0.12500436100E+03 0.  0.
    9000005    1    3    3    0    0 -0.37775800434E+01  0.37233650181E+02 -0.54004535217E+03  0.54134147931E+03  0.10000000000E+01 0.  0.
    9000005    1    3    3    0    0  0.37775800434E+01 -0.37233650181E+02 -0.53967330456E+02  0.65681714148E+02  0.10000000000E+01 0.  0.
<mgrwt>
<rscale>  0 0.12500436E+03</rscale>
<asrwt>0</asrwt>
<pdfrwt beam="1">  1        4 0.10008090E-02 0.12500436E+03</pdfrwt>
<pdfrwt beam="2">  1       -4 0.92387331E-01 0.12500436E+03</pdfrwt>
<totfact> 0.48422653E+03</totfact>
</mgrwt>
</event>
<event>
 5    1  0.3196850E-002  0.1250002E+03  0.7818608E-02  0.1235069E+00
         -4   -1    0    0    0  501 -0.00000000000E+00  0.00000000000E+00  0.55554512096E+02  0.55569026573E+02  0.12700000000E+01 0.  1.
          4   -1    0    0  501    0  0.00000000000E+00 -0.00000000000E+00 -0.70284649021E+02  0.70296122141E+02  0.12700000000E+01 0.  1.
         25    2    1    2    0    0  0.00000000000E+00  0.00000000000E+00 -0.14730136925E+02  0.12586514871E+03  0.12500023491E+03 0.  0.
    9000005    1    3    3    0    0 -0.42459584565E+02  0.44025918247E+01  0.38591345410E+02  0.57554244646E+02  0.10000000000E+01 0.  0.
    9000005    1    3    3    0    0  0.42459584565E+02 -0.44025918247E+01 -0.53321482335E+02  0.68310904068E+02  0.10000000000E+01 0.  0.
<mgrwt>
<rscale>  0 0.12500023E+03</rscale>
<asrwt>0</asrwt>
<pdfrwt beam="2">  1        4 0.10815022E-01 0.12500023E+03</pdfrwt>
<pdfrwt beam="1">  1       -4 0.85488470E-02 0.12500023E+03</pdfrwt>
<totfact> 0.10433859E+04</totfact>
</mgrwt>
</event>
<event>
 5    1  0.3196850E-002  0.1250009E+03  0.7818608E-02  0.1235068E+00
          4   -1    0    0  501    0  0.00000000000E+00  0.00000000000E+00  0.10288626661E+03  0.10289410458E+03  0.12700000000E+01 0.  1.
         -4   -1    0    0    0  501 -0.00000000000E+00 -0.00000000000E+00 -0.37947321369E+02  0.37968567251E+02  0.12700000000E+01 0.  1.
         25    2    1    2    0    0  0.00000000000E+00  0.00000000000E+00  0.64938945239E+02  0.14086267183E+03  0.12500090282E+03 0.  0.
    9000005    1    3    3    0    0 -0.36793807795E+02  0.31957284233E+02  0.76551803546E+02  0.90753682756E+02  0.10000000000E+01 0.  0.
    9000005    1    3    3    0    0  0.36793807795E+02 -0.31957284233E+02 -0.11612858307E+02  0.50108989071E+02  0.10000000000E+01 0.  0.
<mgrwt>
<rscale>  0 0.12500090E+03</rscale>
<asrwt>0</asrwt>
<pdfrwt beam="1">  1        4 0.15830893E-01 0.12500090E+03</pdfrwt>
<pdfrwt beam="2">  1       -4 0.58402867E-02 0.12500090E+03</pdfrwt>
<totfact> 0.10115532E+04</totfact>
</mgrwt>
</event>
<event>
 5    1  0.3196850E-002  0.1249860E+03  0.7818608E-02  0.1235091E+00
          4   -1    0    0  501    0  0.00000000000E+00  0.00000000000E+00  0.12005066443E+03  0.12005738182E+03  0.12700000000E+01 0.  1.
         -4   -1    0    0    0  501 -0.00000000000E+00 -0.00000000000E+00 -0.32511048060E+02  0.32535844018E+02  0.12700000000E+01 0.  1.
         25    2    1    2    0    0  0.00000000000E+00  0.00000000000E+00  0.87539616367E+02  0.15259322584E+03  0.12498603177E+03 0.  0.
    9000005    1    3    3    0    0  0.36649923405E+02 -0.48074118105E+02  0.63075169162E+02  0.87371704127E+02  0.10000000000E+01 0.  0.
    9000005    1    3    3    0    0 -0.36649923405E+02  0.48074118105E+02  0.24464447205E+02  0.65221521711E+02  0.10000000000E+01 0.  0.
<mgrwt>
<rscale>  0 0.12498603E+03</rscale>
<asrwt>0</asrwt>
<pdfrwt beam="1">  1        4 0.18471757E-01 0.12498603E+03</pdfrwt>
<pdfrwt beam="2">  1       -4 0.50041238E-02 0.12498603E+03</pdfrwt>
<totfact> 0.98820320E+03</totfact>
</mgrwt>
</event>
<event>
 5    1  0.3196850E-002  0.1250038E+03  0.7818608E-02  0.1235063E+00
         -4   -1    0    0    0  501 -0.00000000000E+00  0.00000000000E+00  0.61227040260E+01  0.62530316320E+01  0.12700000000E+01 0.  1.
          4   -1    0    0  501    0  0.00000000000E+00 -0.00000000000E+00 -0.63118273743E+03  0.63118401511E+03  0.12700000000E+01 0.  1.
         25    2    1    2    0    0  0.00000000000E+00  0.00000000000E+00 -0.62506003341E+03  0.63743704674E+03  0.12500377274E+03 0.  0.
    9000005    1    3    3    0    0  0.46659845232E+02  0.38994515272E+02 -0.38603353550E+03  0.39079483608E+03  0.10000000000E+01 0.  0.
    9000005    1    3    3    0    0 -0.46659845232E+02 -0.38994515272E+02 -0.23902649791E+03  0.24664221066E+03  0.10000000000E+01 0.  0.
<mgrwt>
<rscale>  0 0.12500377E+03</rscale>
<asrwt>0</asrwt>
<pdfrwt beam="2">  1        4 0.97115109E-01 0.12500377E+03</pdfrwt>
<pdfrwt beam="1">  1       -4 0.95207845E-03 0.12500377E+03</pdfrwt>
<totfact> 0.46582798E+03</totfact>
</mgrwt>
</event>
<event>
 5    1  0.3196850E-002  0.1250005E+03  0.7818608E-02  0.1235069E+00
          4   -1    0    0  501    0  0.00000000000E+00  0.00000000000E+00  0.12895218245E+02  0.12957606013E+02  0.12700000000E+01 0.  1.
         -4   -1    0    0    0  501 -0.00000000000E+00 -0.00000000000E+00 -0.30213003454E+03  0.30213270374E+03  0.12700000000E+01 0.  1.
         25    2    1    2    0    0  0.00000000000E+00  0.00000000000E+00 -0.28923481629E+03  0.31509030976E+03  0.12500049738E+03 0.  0.
    9000005    1    3    3    0    0  0.52016378578E+02 -0.13127921971E+02 -0.22540752450E+03  0.23170584385E+03  0.10000000000E+01 0.  0.
    9000005    1    3    3    0    0 -0.52016378578E+02  0.13127921971E+02 -0.63827291799E+02  0.83384465904E+02  0.10000000000E+01 0.  0.
<mgrwt>
<rscale>  0 0.12500050E+03</rscale>
<asrwt>0</asrwt>
<pdfrwt beam="1">  1        4 0.19888843E-02 0.12500050E+03</pdfrwt>
<pdfrwt beam="2">  1       -4 0.46486543E-01 0.12500050E+03</pdfrwt>
<totfact> 0.73743087E+03</totfact>
</mgrwt>
</event>
<event>
 5    1  0.3196850E-002  0.1250146E+03  0.7818608E-02  0.1235046E+00
         -4   -1    0    0    0  501 -0.00000000000E+00  0.00000000000E+00  0.37877615884E+02  0.37898900842E+02  0.12700000000E+01 0. -1.
          4   -1    0    0  501    0  0.00000000000E+00 -0.00000000000E+00 -0.10309816862E+03  0.10310599048E+03  0.12700000000E+01 0. -1.
         25    2    1    2    0    0  0.00000000000E+00  0.00000000000E+00 -0.65220552741E+02  0.14100489133E+03  0.12501463466E+03 0.  0.
    9000005    1    3    3    0    0 -0.54344423893E+01  0.62063782923E+02 -0.27002592259E+02  0.67908661476E+02  0.10000000000E+01 0.  0.
    9000005    1    3    3    0    0  0.54344423893E+01 -0.62063782923E+02 -0.38217960481E+02  0.73096229849E+02  0.10000000000E+01 0.  0.
<mgrwt>
<rscale>  0 0.12501463E+03</rscale>
<asrwt>0</asrwt>
<pdfrwt beam="2">  1        4 0.15863496E-01 0.12501463E+03</pdfrwt>
<pdfrwt beam="1">  1       -4 0.58295645E-02 0.12501463E+03</pdfrwt>
<totfact> 0.10109468E+04</totfact>
</mgrwt>
</event>
<event>
 5    1  0.3196850E-002  0.1250002E+03  0.7818608E-02  0.1235069E+00
          4   -1    0    0  501    0  0.00000000000E+00  0.00000000000E+00  0.31768916448E+01  0.34213360728E+01  0.12700000000E+01 0.  1.
         -4   -1    0    0    0  501 -0.00000000000E+00 -0.00000000000E+00 -0.11837896929E+04  0.11837903741E+04  0.12700000000E+01 0.  1.
         25    2    1    2    0    0  0.00000000000E+00  0.00000000000E+00 -0.11806128012E+04  0.11872117102E+04  0.12500023355E+03 0.  0.
    9000005    1    3    3    0    0  0.52674770981E+02 -0.26895058403E+02 -0.39862999721E+03  0.40299485150E+03  0.10000000000E+01 0.  0.
    9000005    1    3    3    0    0 -0.52674770981E+02  0.26895058403E+02 -0.78198280401E+03  0.78421685867E+03  0.10000000000E+01 0.  0.
<mgrwt>
<rscale>  0 0.12500023E+03</rscale>
<asrwt>0</asrwt>
<pdfrwt beam="1">  1        4 0.50760933E-03 0.12500023E+03</pdfrwt>
<pdfrwt beam="2">  1       -4 0.18214001E+00 0.12500023E+03</pdfrwt>
<totfact> 0.25049886E+03</totfact>
</mgrwt>
</event>
<event>
 5    1  0.3196850E-002  0.1249999E+03  0.7818608E-02  0.1235069E+00
          4   -1    0    0  501    0  0.00000000000E+00  0.00000000000E+00  0.48242916074E+03  0.48243083238E+03  0.12700000000E+01 0.  1.
         -4   -1    0    0    0  501 -0.00000000000E+00 -0.00000000000E+00 -0.80455354059E+01  0.81451543858E+01  0.12700000000E+01 0.  1.
         25    2    1    2    0    0  0.00000000000E+00  0.00000000000E+00  0.47438362533E+03  0.49057598676E+03  0.12499989923E+03 0.  0.
    9000005    1    3    3    0    0 -0.41163067848E+02  0.45138273218E+02  0.18551467810E+03  0.19531655755E+03  0.10000000000E+01 0.  0.
    9000005    1    3    3    0    0  0.41163067848E+02 -0.45138273218E+02  0.28886894724E+03  0.29525942922E+03  0.10000000000E+01 0.  0.
<mgrwt>
<rscale>  0 0.12499990E+03</rscale>
<asrwt>0</asrwt>
<pdfrwt beam="1">  1        4 0.74227653E-01 0.12499990E+03</pdfrwt>
<pdfrwt beam="2">  1       -4 0.12455664E-02 0.12499990E+03</pdfrwt>
<totfact> 0.56603168E+03</totfact>
</mgrwt>
</event>
<event>
 5    1  0.3196850E-002  0.1249877E+03  0.7818608E-02  0.1235089E+00
         -4   -1    0    0    0  501 -0.00000000000E+00  0.00000000000E+00  0.23364433772E+03  0.23364778931E+03  0.12700000000E+01 0.  1.
          4   -1    0    0  501    0  0.00000000000E+00 -0.00000000000E+00 -0.16687784242E+02  0.16736040240E+02  0.12700000000E+01 0.  1.
         25    2    1    2    0    0  0.00000000000E+00  0.00000000000E+00  0.21695655348E+03  0.25038382955E+03  0.12498766340E+03 0.  0.
    9000005    1    3    3    0    0 -0.28305203664E+02 -0.52388007073E+02  0.14642375196E+03  0.15807151223E+03  0.10000000000E+01 0.  0.
    9000005    1    3    3    0    0  0.28305203664E+02  0.52388007073E+02  0.70532801523E+02  0.92312317327E+02  0.10000000000E+01 0.  0.
<mgrwt>
<rscale>  0 0.12498766E+03</rscale>
<asrwt>0</asrwt>
<pdfrwt beam="2">  1        4 0.25713292E-02 0.12498766E+03</pdfrwt>
<pdfrwt beam="1">  1       -4 0.35949257E-01 0.12498766E+03</pdfrwt>
<totfact> 0.82297400E+03</totfact>
</mgrwt>
</event>
<event>
 5    1  0.3196850E-002  0.1250010E+03  0.7818608E-02  0.1235068E+00
         -4   -1    0    0    0  501 -0.00000000000E+00  0.00000000000E+00  0.32560407555E+02  0.32585165953E+02  0.12700000000E+01 0. -1.
          4   -1    0    0  501    0  0.00000000000E+00 -0.00000000000E+00 -0.11989747758E+03  0.11990420355E+03  0.12700000000E+01 0. -1.
         25    2    1    2    0    0  0.00000000000E+00  0.00000000000E+00 -0.87337070021E+02  0.15248936950E+03  0.12500097604E+03 0.  0.
    9000005    1    3    3    0    0 -0.22716873693E+02  0.21344032636E+02 -0.10974290748E+03  0.11408825453E+03  0.10000000000E+01 0.  0.
    9000005    1    3    3    0    0  0.22716873693E+02 -0.21344032636E+02  0.22405837454E+02  0.38401114978E+02  0.10000000000E+01 0.  0.
<mgrwt>
<rscale>  0 0.12500098E+03</rscale>
<asrwt>0</asrwt>
<pdfrwt beam="2">  1        4 0.18448187E-01 0.12500098E+03</pdfrwt>
<pdfrwt beam="1">  1       -4 0.50117154E-02 0.12500098E+03</pdfrwt>
<totfact> 0.98807605E+03</totfact>
</mgrwt>
</event>
<event>
 5    1  0.3196850E-002  0.1250001E+03  0.7818608E-02  0.1235069E+00
         -4   -1    0    0    0  501 -0.00000000000E+00  0.00000000000E+00  0.15867306212E+03  0.15867814450E+03  0.12700000000E+01 0.  1.
          4   -1    0    0  501    0  0.00000000000E+00 -0.00000000000E+00 -0.24596400073E+02  0.24629165567E+02  0.12700000000E+01 0.  1.
         25    2    1    2    0    0  0.00000000000E+00  0.00000000000E+00  0.13407666204E+03  0.18330731007E+03  0.12500007447E+03 0.  0.
    9000005    1    3    3    0    0  0.28454473423E+02 -0.55491169331E+02  0.72963930954E+02  0.95987822935E+02  0.10000000000E+01 0.  0.
    9000005    1    3    3    0    0 -0.28454473423E+02  0.55491169331E+02  0.61112731091E+02  0.87319487131E+02  0.10000000000E+01 0.  0.
<mgrwt>
<rscale>  0 0.12500007E+03</rscale>
<asrwt>0</asrwt>
<pdfrwt beam="2">  1        4 0.37869729E-02 0.12500007E+03</pdfrwt>
<pdfrwt beam="1">  1       -4 0.24414152E-01 0.12500007E+03</pdfrwt>
<totfact> 0.93024886E+03</totfact>
</mgrwt>
</event>
<event>
 5    1  0.3196850E-002  0.1250030E+03  0.7818608E-02  0.1235065E+00
         -4   -1    0    0    0  501 -0.00000000000E+00  0.00000000000E+00  0.34810972612E+02  0.34834131454E+02  0.12700000000E+01 0.  1.
          4   -1    0    0  501    0  0.00000000000E+00 -0.00000000000E+00 -0.11215441670E+03  0.11216160700E+03  0.12700000000E+01 0.  1.
         25    2    1    2    0    0  0.00000000000E+00  0.00000000000E+00 -0.77343444090E+02  0.14699573846E+03  0.12500295509E+03 0.  0.
    9000005    1    3    3    0    0 -0.92712256313E+01  0.38417073686E+02  0.18256406343E+02  0.43544500776E+02  0.10000000000E+01 0.  0.
    9000005    1    3    3    0    0  0.92712256313E+01 -0.38417073686E+02 -0.95599850432E+02  0.10345123768E+03  0.10000000000E+01 0.  0.
<mgrwt>
<rscale>  0 0.12500296E+03</rscale>
<asrwt>0</asrwt>
<pdfrwt beam="2">  1        4 0.17256860E-01 0.12500296E+03</pdfrwt>
<pdfrwt beam="1">  1       -4 0.53578688E-02 0.12500296E+03</pdfrwt>
<totfact> 0.99899313E+03</totfact>
</mgrwt>
</event>
<event>
 5    1  0.3196850E-002  0.1249994E+03  0.7818608E-02  0.1235070E+00
         -4   -1    0    0    0  501 -0.00000000000E+00  0.00000000000E+00  0.52125899634E+03  0.52126054345E+03  0.12700000000E+01 0. -1.
          4   -1    0    0  501    0  0.00000000000E+00 -0.00000000000E+00 -0.74384307212E+01  0.75460686185E+01  0.12700000000E+01 0. -1.
         25    2    1    2    0    0  0.00000000000E+00  0.00000000000E+00  0.51382056562E+03  0.52880661207E+03  0.12499943729E+03 0.  0.
    9000005    1    3    3    0    0 -0.17865737460E+02 -0.52892581869E+02  0.13812475972E+03  0.14898408989E+03  0.10000000000E+01 0.  0.
    9000005    1    3    3    0    0  0.17865737460E+02  0.52892581869E+02  0.37569580590E+03  0.37982252219E+03  0.10000000000E+01 0.  0.
<mgrwt>
<rscale>  0 0.12499944E+03</rscale>
<asrwt>0</asrwt>
<pdfrwt beam="2">  1        4 0.11527729E-02 0.12499944E+03</pdfrwt>
<pdfrwt beam="1">  1       -4 0.80202084E-01 0.12499944E+03</pdfrwt>
<totfact> 0.53697272E+03</totfact>
</mgrwt>
</event>
<event>
 5    1  0.3196850E-002  0.1250007E+03  0.7818608E-02  0.1235068E+00
          4   -1    0    0  501    0  0.00000000000E+00  0.00000000000E+00  0.22651641712E+03  0.22651997732E+03  0.12700000000E+01 0. -1.
         -4   -1    0    0    0  501 -0.00000000000E+00 -0.00000000000E+00 -0.17217999853E+02  0.17264773933E+02  0.12700000000E+01 0. -1.
         25    2    1    2    0    0  0.00000000000E+00  0.00000000000E+00  0.20929841726E+03  0.24378475125E+03  0.12500070989E+03 0.  0.
    9000005    1    3    3    0    0  0.35295063359E+02 -0.33654952259E+02  0.18085692308E+03  0.18731957702E+03  0.10000000000E+01 0.  0.
    9000005    1    3    3    0    0 -0.35295063359E+02  0.33654952259E+02  0.28441494178E+02  0.56465174224E+02  0.10000000000E+01 0.  0.
<mgrwt>
<rscale>  0 0.12500071E+03</rscale>
<asrwt>0</asrwt>
<pdfrwt beam="1">  1        4 0.34852552E-01 0.12500071E+03</pdfrwt>
<pdfrwt beam="2">  1       -4 0.26527949E-02 0.12500071E+03</pdfrwt>
<totfact> 0.83235587E+03</totfact>
</mgrwt>
</event>
<event>
 5    1  0.3196850E-002  0.1250003E+03  0.7818608E-02  0.1235069E+00
         -4   -1    0    0    0  501 -0.00000000000E+00  0.00000000000E+00  0.19104129921E+03  0.19104552050E+03  0.12700000000E+01 0. -1.
          4   -1    0    0  501    0  0.00000000000E+00 -0.00000000000E+00 -0.20423069465E+02  0.20462518573E+02  0.12700000000E+01 0. -1.
         25    2    1    2    0    0  0.00000000000E+00  0.00000000000E+00  0.17061822975E+03  0.21150803908E+03  0.12500028109E+03 0.  0.
    9000005    1    3    3    0    0 -0.42950645880E+02 -0.16235458901E+01  0.16206739693E+03  0.16767300030E+03  0.10000000000E+01 0.  0.
    9000005    1    3    3    0    0  0.42950645880E+02  0.16235458901E+01  0.85508328210E+01  0.43835038778E+02  0.10000000000E+01 0.  0.
<mgrwt>
<rscale>  0 0.12500028E+03</rscale>
<asrwt>0</asrwt>
<pdfrwt beam="2">  1        4 0.31453698E-02 0.12500028E+03</pdfrwt>
<pdfrwt beam="1">  1       -4 0.29394329E-01 0.12500028E+03</pdfrwt>
<totfact> 0.88229633E+03</totfact>
</mgrwt>
</event>
<event>
 5    1  0.3196850E-002  0.1249998E+03  0.7818608E-02  0.1235070E+00
          4   -1    0    0  501    0  0.00000000000E+00  0.00000000000E+00  0.17832578320E+03  0.17833030549E+03  0.12700000000E+01 0. -1.
         -4   -1    0    0    0  501 -0.00000000000E+00 -0.00000000000E+00 -0.21881834397E+02  0.21918658184E+02  0.12700000000E+01 0. -1.
         25    2    1    2    0    0  0.00000000000E+00  0.00000000000E+00  0.15644394881E+03  0.20024896367E+03  0.12499975333E+03 0.  0.
    9000005    1    3    3    0    0 -0.37331441030E+02 -0.35315744717E+02  0.21257679772E+02  0.55621284268E+02  0.10000000000E+01 0.  0.
    9000005    1    3    3    0    0  0.37331441030E+02  0.35315744717E+02  0.13518626903E+03  0.14462767940E+03  0.10000000000E+01 0.  0.
<mgrwt>
<rscale>  0 0.12499975E+03</rscale>
<asrwt>0</asrwt>
<pdfrwt beam="1">  1        4 0.27437916E-01 0.12499975E+03</pdfrwt>
<pdfrwt beam="2">  1       -4 0.33696165E-02 0.12499975E+03</pdfrwt>
<totfact> 0.90094030E+03</totfact>
</mgrwt>
</event>
<event>
 5    1  0.3196850E-002  0.1250018E+03  0.7818608E-02  0.1235066E+00
         -4   -1    0    0    0  501 -0.00000000000E+00  0.00000000000E+00  0.23827685225E+02  0.23861506306E+02  0.12700000000E+01 0. -1.
          4   -1    0    0  501    0  0.00000000000E+00 -0.00000000000E+00 -0.16378959430E+03  0.16379451792E+03  0.12700000000E+01 0. -1.
         25    2    1    2    0    0  0.00000000000E+00  0.00000000000E+00 -0.13996190907E+03  0.18765602423E+03  0.12500178973E+03 0.  0.
    9000005    1    3    3    0    0  0.13448596247E+02  0.49539898332E+02 -0.16475423935E+02  0.53921293211E+02  0.10000000000E+01 0.  0.
    9000005    1    3    3    0    0 -0.13448596247E+02 -0.49539898332E+02 -0.12348648514E+03  0.13373473101E+03  0.10000000000E+01 0.  0.
<mgrwt>
<rscale>  0 0.12500179E+03</rscale>
<asrwt>0</asrwt>
<pdfrwt beam="2">  1        4 0.25201379E-01 0.12500179E+03</pdfrwt>
<pdfrwt beam="1">  1       -4 0.36687782E-02 0.12500179E+03</pdfrwt>
<totfact> 0.92253066E+03</totfact>
</mgrwt>
</event>
<event>
 5    1  0.3196850E-002  0.1249956E+03  0.7818608E-02  0.1235076E+00
          4   -1    0    0  501    0  0.00000000000E+00  0.00000000000E+00  0.26758560744E+02  0.26788681809E+02  0.12700000000E+01 0. -1.
         -4   -1    0    0    0  501 -0.00000000000E+00 -0.00000000000E+00 -0.14585595610E+03  0.14586148508E+03  0.12700000000E+01 0. -1.
         25    2    1    2    0    0  0.00000000000E+00  0.00000000000E+00 -0.11909739536E+03  0.17265016689E+03  0.12499556211E+03 0.  0.
    9000005    1    3    3    0    0  0.38014116169E+02  0.15478371869E+02  0.55361894736E+01  0.41428280409E+02  0.10000000000E+01 0.  0.
    9000005    1    3    3    0    0 -0.38014116169E+02 -0.15478371869E+02 -0.12463358483E+03  0.13122188648E+03  0.10000000000E+01 0.  0.
<mgrwt>
<rscale>  0 0.12499556E+03</rscale>
<asrwt>0</asrwt>
<pdfrwt beam="1">  1        4 0.41194441E-02 0.12499556E+03</pdfrwt>
<pdfrwt beam="2">  1       -4 0.22442120E-01 0.12499556E+03</pdfrwt>
<totfact> 0.94966434E+03</totfact>
</mgrwt>
</event>
<event>
 5    1  0.3196850E-002  0.1249984E+03  0.7818608E-02  0.1235072E+00
         -4   -1    0    0    0  501 -0.00000000000E+00  0.00000000000E+00  0.77277686847E+03  0.77277791204E+03  0.12700000000E+01 0.  1.
          4   -1    0    0  501    0  0.00000000000E+00 -0.00000000000E+00 -0.49738587169E+01  0.51334365230E+01  0.12700000000E+01 0.  1.
         25    2    1    2    0    0  0.00000000000E+00  0.00000000000E+00  0.76780300975E+03  0.77791134857E+03  0.12499841776E+03 0.  0.
    9000005    1    3    3    0    0 -0.15978011491E+01 -0.54684077157E+02  0.57186888629E+03  0.57448056919E+03  0.10000000000E+01 0.  0.
    9000005    1    3    3    0    0  0.15978011491E+01  0.54684077157E+02  0.19593412346E+03  0.20343077938E+03  0.10000000000E+01 0.  0.
<mgrwt>
<rscale>  0 0.12499842E+03</rscale>
<asrwt>0</asrwt>
<pdfrwt beam="2">  1        4 0.77756488E-03 0.12499842E+03</pdfrwt>
<pdfrwt beam="1">  1       -4 0.11890105E+00 0.12499842E+03</pdfrwt>
<totfact> 0.39271409E+03</totfact>
</mgrwt>
</event>
<event>
 5    1  0.3196850E-002  0.1249969E+03  0.7818608E-02  0.1235074E+00
          4   -1    0    0  501    0  0.00000000000E+00  0.00000000000E+00  0.31992552727E+03  0.31992804800E+03  0.12700000000E+01 0.  1.
         -4   -1    0    0    0  501 -0.00000000000E+00 -0.00000000000E+00 -0.12173671735E+02  0.12239737886E+02  0.12700000000E+01 0.  1.
         25    2    1    2    0    0  0.00000000000E+00  0.00000000000E+00  0.30775185553E+03  0.33216778589E+03  0.12499693355E+03 0.  0.
    9000005    1    3    3    0    0 -0.17722622555E+02  0.49752539396E+02  0.24263699029E+03  0.24832059033E+03  0.10000000000E+01 0.  0.
    9000005    1    3    3    0    0  0.17722622555E+02 -0.49752539396E+02  0.65114865244E+02  0.83847195554E+02  0.10000000000E+01 0.  0.
<mgrwt>
<rscale>  0 0.12499693E+03</rscale>
<asrwt>0</asrwt>
<pdfrwt beam="1">  1        4 0.49224585E-01 0.12499693E+03</pdfrwt>
<pdfrwt beam="2">  1       -4 0.18781486E-02 0.12499693E+03</pdfrwt>
<totfact> 0.71736796E+03</totfact>
</mgrwt>
</event>
<event>
 5    1  0.3196850E-002  0.1250028E+03  0.7818608E-02  0.1235065E+00
          4   -1    0    0  501    0  0.00000000000E+00  0.00000000000E+00  0.65749044207E+02  0.65761308641E+02  0.12700000000E+01 0. -1.
         -4   -1    0    0    0  501 -0.00000000000E+00 -0.00000000000E+00 -0.59389597124E+02  0.59403174549E+02  0.12700000000E+01 0. -1.
         25    2    1    2    0    0  0.00000000000E+00  0.00000000000E+00  0.63594470839E+01  0.12516448319E+03  0.12500282111E+03 0.  0.
    9000005    1    3    3    0    0  0.33204066352E+02  0.61004167486E+01 -0.49478223845E+02  0.59906758731E+02  0.10000000000E+01 0.  0.
    9000005    1    3    3    0    0 -0.33204066352E+02 -0.61004167486E+01  0.55837670929E+02  0.65257724459E+02  0.10000000000E+01 0.  0.
<mgrwt>
<rscale>  0 0.12500282E+03</rscale>
<asrwt>0</asrwt>
<pdfrwt beam="1">  1        4 0.10117225E-01 0.12500282E+03</pdfrwt>
<pdfrwt beam="2">  1       -4 0.91388489E-02 0.12500282E+03</pdfrwt>
<totfact> 0.10448625E+04</totfact>
</mgrwt>
</event>
<event>
 5    1  0.3196850E-002  0.1249889E+03  0.7818608E-02  0.1235087E+00
         -4   -1    0    0    0  501 -0.00000000000E+00  0.00000000000E+00  0.29429160143E+03  0.29429434172E+03  0.12700000000E+01 0. -1.
          4   -1    0    0  501    0  0.00000000000E+00 -0.00000000000E+00 -0.13237850315E+02  0.13298630792E+02  0.12700000000E+01 0. -1.
         25    2    1    2    0    0  0.00000000000E+00  0.00000000000E+00  0.28105375111E+03  0.30759297252E+03  0.12498890241E+03 0.  0.
    9000005    1    3    3    0    0 -0.22573064821E+02  0.18174634639E+02  0.42887550679E+01  0.29313034979E+02  0.10000000000E+01 0.  0.
    9000005    1    3    3    0    0  0.22573064821E+02 -0.18174634639E+02  0.27676499605E+03  0.27827993754E+03  0.10000000000E+01 0.  0.
<mgrwt>
<rscale>  0 0.12498890E+03</rscale>
<asrwt>0</asrwt>
<pdfrwt beam="2">  1        4 0.20414786E-02 0.12498890E+03</pdfrwt>
<pdfrwt beam="1">  1       -4 0.45280517E-01 0.12498890E+03</pdfrwt>
<totfact> 0.74674541E+03</totfact>
</mgrwt>
</event>
<event>
 5    1  0.3196850E-002  0.1250009E+03  0.7818608E-02  0.1235068E+00
          4   -1    0    0  501    0  0.00000000000E+00  0.00000000000E+00  0.57792907047E+01  0.59171869202E+01  0.12700000000E+01 0. -1.
         -4   -1    0    0    0  501 -0.00000000000E+00 -0.00000000000E+00 -0.66780676206E+03  0.66780796967E+03  0.12700000000E+01 0. -1.
         25    2    1    2    0    0  0.00000000000E+00  0.00000000000E+00 -0.66202747136E+03  0.67372515659E+03  0.12500085516E+03 0.  0.
    9000005    1    3    3    0    0 -0.28547407801E+02 -0.49834932981E+00 -0.31403884198E+02  0.42454761652E+02  0.10000000000E+01 0.  0.
    9000005    1    3    3    0    0  0.28547407801E+02  0.49834932981E+00 -0.63062358716E+03  0.63127039494E+03  0.10000000000E+01 0.  0.
<mgrwt>
<rscale>  0 0.12500086E+03</rscale>
<asrwt>0</asrwt>
<pdfrwt beam="1">  1        4 0.89982247E-03 0.12500086E+03</pdfrwt>
<pdfrwt beam="2">  1       -4 0.10275014E+00 0.12500086E+03</pdfrwt>
<totfact> 0.44509659E+03</totfact>
</mgrwt>
</event>
<event>
 5    1  0.3196850E-002  0.1250009E+03  0.7818608E-02  0.1235068E+00
         -4   -1    0    0    0  501 -0.00000000000E+00  0.00000000000E+00  0.11742750233E+03  0.11743436977E+03  0.12700000000E+01 0.  1.
          4   -1    0    0  501    0  0.00000000000E+00 -0.00000000000E+00 -0.33245736156E+02  0.33269984559E+02  0.12700000000E+01 0.  1.
         25    2    1    2    0    0  0.00000000000E+00  0.00000000000E+00  0.84181766174E+02  0.15070435433E+03  0.12500093063E+03 0.  0.
    9000005    1    3    3    0    0 -0.11105127005E+02 -0.41073945227E+02  0.97272674215E+02  0.10617610829E+03  0.10000000000E+01 0.  0.
    9000005    1    3    3    0    0  0.11105127005E+02  0.41073945227E+02 -0.13090908041E+02  0.44528246042E+02  0.10000000000E+01 0.  0.
<mgrwt>
<rscale>  0 0.12500093E+03</rscale>
<asrwt>0</asrwt>
<pdfrwt beam="2">  1        4 0.51171222E-02 0.12500093E+03</pdfrwt>
<pdfrwt beam="1">  1       -4 0.18068163E-01 0.12500093E+03</pdfrwt>
<totfact> 0.99161404E+03</totfact>
</mgrwt>
</event>
<event>
 5    1  0.3196850E-002  0.1250020E+03  0.7818608E-02  0.1235066E+00
          4   -1    0    0  501    0  0.00000000000E+00  0.00000000000E+00  0.27257216842E+02  0.27286787461E+02  0.12700000000E+01 0.  1.
         -4   -1    0    0    0  501 -0.00000000000E+00 -0.00000000000E+00 -0.14320512599E+03  0.14321075731E+03  0.12700000000E+01 0.  1.
         25    2    1    2    0    0  0.00000000000E+00  0.00000000000E+00 -0.11594790915E+03  0.17049754477E+03  0.12500198054E+03 0.  0.
    9000005    1    3    3    0    0 -0.51552349257E+02  0.33126525903E+02 -0.74699134201E+02  0.96622834169E+02  0.10000000000E+01 0.  0.
    9000005    1    3    3    0    0  0.51552349257E+02 -0.33126525903E+02 -0.41248774948E+02  0.73874710606E+02  0.10000000000E+01 0.  0.
<mgrwt>
<rscale>  0 0.12500198E+03</rscale>
<asrwt>0</asrwt>
<pdfrwt beam="1">  1        4 0.41961259E-02 0.12500198E+03</pdfrwt>
<pdfrwt beam="2">  1       -4 0.22034265E-01 0.12500198E+03</pdfrwt>
<totfact> 0.95351744E+03</totfact>
</mgrwt>
</event>
<event>
 5    1  0.3196850E-002  0.1250003E+03  0.7818608E-02  0.1235069E+00
         -4   -1    0    0    0  501 -0.00000000000E+00  0.00000000000E+00  0.92382724036E+02  0.92391453069E+02  0.12700000000E+01 0.  1.
          4   -1    0    0  501    0  0.00000000000E+00 -0.00000000000E+00 -0.42263270916E+02  0.42282348190E+02  0.12700000000E+01 0.  1.
         25    2    1    2    0    0  0.00000000000E+00  0.00000000000E+00  0.50119453120E+02  0.13467380126E+03  0.12500029266E+03 0.  0.
    9000005    1    3    3    0    0  0.29077747327E+02  0.18533814994E+02 -0.31091210290E+02  0.46440080159E+02  0.10000000000E+01 0.  0.
    9000005    1    3    3    0    0 -0.29077747327E+02 -0.18533814994E+02  0.81210663410E+02  0.88233721101E+02  0.10000000000E+01 0.  0.
<mgrwt>
<rscale>  0 0.12500029E+03</rscale>
<asrwt>0</asrwt>
<pdfrwt beam="2">  1        4 0.65041808E-02 0.12500029E+03</pdfrwt>
<pdfrwt beam="1">  1       -4 0.14214865E-01 0.12500029E+03</pdfrwt>
<totfact> 0.10244883E+04</totfact>
</mgrwt>
</event>
<event>
 5    1  0.3196850E-002  0.1249987E+03  0.7818608E-02  0.1235071E+00
          4   -1    0    0  501    0  0.00000000000E+00  0.00000000000E+00  0.43423563785E+01  0.45242633563E+01  0.12700000000E+01 0.  1.
         -4   -1    0    0    0  501 -0.00000000000E+00 -0.00000000000E+00 -0.88091318466E+03  0.88091410013E+03  0.12700000000E+01 0.  1.
         25    2    1    2    0    0  0.00000000000E+00  0.00000000000E+00 -0.87657082828E+03  0.88543836348E+03  0.12499871415E+03 0.  0.
    9000005    1    3    3    0    0  0.23569326076E+02 -0.57058565449E+02 -0.36961610449E+03  0.37473758515E+03  0.10000000000E+01 0.  0.
    9000005    1    3    3    0    0 -0.23569326076E+02  0.57058565449E+02 -0.50695472379E+03  0.51070077833E+03  0.10000000000E+01 0.  0.
<mgrwt>
<rscale>  0 0.12499871E+03</rscale>
<asrwt>0</asrwt>
<pdfrwt beam="1">  1        4 0.68211879E-03 0.12499871E+03</pdfrwt>
<pdfrwt beam="2">  1       -4 0.13553903E+00 0.12499871E+03</pdfrwt>
<totfact> 0.34720368E+03</totfact>
</mgrwt>
</event>
<event>
 5    1  0.3196850E-002  0.1250101E+03  0.7818608E-02  0.1235054E+00
         -4   -1    0    0    0  501 -0.00000000000E+00  0.00000000000E+00  0.51089222069E+01  0.52644074800E+01  0.12700000000E+01 0. -1.
          4   -1    0    0  501    0  0.00000000000E+00 -0.00000000000E+00 -0.75309894823E+03  0.75310001907E+03  0.12700000000E+01 0. -1.
         25    2    1    2    0    0  0.00000000000E+00  0.00000000000E+00 -0.74799002602E+03  0.75836442655E+03  0.12501009731E+03 0.  0.
    9000005    1    3    3    0    0 -0.53857584571E+02 -0.21369209655E+02 -0.23190609890E+03  0.23903707086E+03  0.10000000000E+01 0.  0.
    9000005    1    3    3    0    0  0.53857584571E+02  0.21369209655E+02 -0.51608392712E+03  0.51932735569E+03  0.10000000000E+01 0.  0.
<mgrwt>
<rscale>  0 0.12501010E+03</rscale>
<asrwt>0</asrwt>
<pdfrwt beam="2">  1        4 0.11587333E+00 0.12501010E+03</pdfrwt>
<pdfrwt beam="1">  1       -4 0.79803141E-03 0.12501010E+03</pdfrwt>
<totfact> 0.40168386E+03</totfact>
</mgrwt>
</event>
<event>
 5    1  0.3196850E-002  0.1249940E+03  0.7818608E-02  0.1235079E+00
         -4   -1    0    0    0  501 -0.00000000000E+00  0.00000000000E+00  0.66526121327E+02  0.66538242528E+02  0.12700000000E+01 0.  1.
          4   -1    0    0  501    0  0.00000000000E+00 -0.00000000000E+00 -0.58687543879E+02  0.58701283687E+02  0.12700000000E+01 0.  1.
         25    2    1    2    0    0  0.00000000000E+00  0.00000000000E+00  0.78385774476E+01  0.12523952622E+03  0.12499398238E+03 0.  0.
    9000005    1    3    3    0    0  0.35407765452E+02 -0.33764723250E+02 -0.35030041498E+02  0.60181975688E+02  0.10000000000E+01 0.  0.
    9000005    1    3    3    0    0 -0.35407765452E+02  0.33764723250E+02  0.42868618945E+02  0.65057550528E+02  0.10000000000E+01 0.  0.
<mgrwt>
<rscale>  0 0.12499398E+03</rscale>
<asrwt>0</asrwt>
<pdfrwt beam="2">  1        4 0.90308422E-02 0.12499398E+03</pdfrwt>
<pdfrwt beam="1">  1       -4 0.10236777E-01 0.12499398E+03</pdfrwt>
<totfact> 0.10449083E+04</totfact>
</mgrwt>
</event>
<event>
 5    1  0.3196850E-002  0.1249984E+03  0.7818608E-02  0.1235072E+00
          4   -1    0    0  501    0  0.00000000000E+00  0.00000000000E+00  0.13441311146E+02  0.13501175702E+02  0.12700000000E+01 0.  1.
         -4   -1    0    0    0  501 -0.00000000000E+00 -0.00000000000E+00 -0.28990100872E+03  0.28990379052E+03  0.12700000000E+01 0.  1.
         25    2    1    2    0    0  0.00000000000E+00  0.00000000000E+00 -0.27645969757E+03  0.30340496622E+03  0.12499843657E+03 0.  0.
    9000005    1    3    3    0    0 -0.49067101767E+01  0.22645673995E+01 -0.28934467887E+03  0.28939686809E+03  0.10000000000E+01 0.  0.
    9000005    1    3    3    0    0  0.49067101767E+01 -0.22645673995E+01  0.12884981295E+02  0.14008098131E+02  0.10000000000E+01 0.  0.
<mgrwt>
<rscale>  0 0.12499844E+03</rscale>
<asrwt>0</asrwt>
<pdfrwt beam="1">  1        4 0.20727132E-02 0.12499844E+03</pdfrwt>
<pdfrwt beam="2">  1       -4 0.44604969E-01 0.12499844E+03</pdfrwt>
<totfact> 0.75176312E+03</totfact>
</mgrwt>
</event>
<event>
 5    1  0.3196850E-002  0.1249954E+03  0.7818608E-02  0.1235076E+00
         -4   -1    0    0    0  501 -0.00000000000E+00  0.00000000000E+00  0.69606080928E+02  0.69617665877E+02  0.12700000000E+01 0. -1.
          4   -1    0    0  501    0  0.00000000000E+00 -0.00000000000E+00 -0.56091812065E+02  0.56106187544E+02  0.12700000000E+01 0. -1.
         25    2    1    2    0    0  0.00000000000E+00  0.00000000000E+00  0.13514268864E+02  0.12572385342E+03  0.12499540734E+03 0.  0.
    9000005    1    3    3    0    0 -0.12125135390E+02  0.59105301897E+02 -0.96013285053E+01  0.61103527964E+02  0.10000000000E+01 0.  0.
    9000005    1    3    3    0    0  0.12125135390E+02 -0.59105301897E+02  0.23115597369E+02  0.64620325458E+02  0.10000000000E+01 0.  0.
<mgrwt>
<rscale>  0 0.12499541E+03</rscale>
<asrwt>0</asrwt>
<pdfrwt beam="2">  1        4 0.86315065E-02 0.12499541E+03</pdfrwt>
<pdfrwt beam="1">  1       -4 0.10710625E-01 0.12499541E+03</pdfrwt>
<totfact> 0.10438101E+04</totfact>
</mgrwt>
</event>
<event>
 5    1  0.3196850E-002  0.1249950E+03  0.7818608E-02  0.1235077E+00
          4   -1    0    0  501    0  0.00000000000E+00  0.00000000000E+00  0.29602558362E+02  0.29629788416E+02  0.12700000000E+01 0. -1.
         -4   -1    0    0    0  501 -0.00000000000E+00 -0.00000000000E+00 -0.13185494917E+03  0.13186106522E+03  0.12700000000E+01 0. -1.
         25    2    1    2    0    0  0.00000000000E+00  0.00000000000E+00 -0.10225239081E+03  0.16149085363E+03  0.12499497743E+03 0.  0.
    9000005    1    3    3    0    0  0.14819296056E+01  0.41850163836E+02 -0.11105094619E+03  0.11868843658E+03  0.10000000000E+01 0.  0.
    9000005    1    3    3    0    0 -0.14819296056E+01 -0.41850163836E+02  0.87985553849E+01  0.42802417050E+02  0.10000000000E+01 0.  0.
<mgrwt>
<rscale>  0 0.12499498E+03</rscale>
<asrwt>0</asrwt>
<pdfrwt beam="1">  1        4 0.45568049E-02 0.12499498E+03</pdfrwt>
<pdfrwt beam="2">  1       -4 0.20287942E-01 0.12499498E+03</pdfrwt>
<totfact> 0.97067084E+03</totfact>
</mgrwt>
</event>
<event>
 5    1  0.3196850E-002  0.1250170E+03  0.7818608E-02  0.1235043E+00
         -4   -1    0    0    0  501 -0.00000000000E+00  0.00000000000E+00  0.31153592761E+02  0.31179468275E+02  0.12700000000E+01 0. -1.
          4   -1    0    0  501    0  0.00000000000E+00 -0.00000000000E+00 -0.12533969045E+03  0.12534612440E+03  0.12700000000E+01 0. -1.
         25    2    1    2    0    0  0.00000000000E+00  0.00000000000E+00 -0.94186097690E+02  0.15652559268E+03  0.12501695951E+03 0.  0.
    9000005    1    3    3    0    0  0.60512989656E+02  0.14857739119E+02 -0.40993221279E+02  0.74592348936E+02  0.10000000000E+01 0.  0.
    9000005    1    3    3    0    0 -0.60512989656E+02 -0.14857739119E+02 -0.53192876411E+02  0.81933243740E+02  0.10000000000E+01 0.  0.
<mgrwt>
<rscale>  0 0.12501696E+03</rscale>
<asrwt>0</asrwt>
<pdfrwt beam="2">  1        4 0.19285514E-01 0.12501696E+03</pdfrwt>
<pdfrwt beam="1">  1       -4 0.47953458E-02 0.12501696E+03</pdfrwt>
<totfact> 0.97979466E+03</totfact>
</mgrwt>
</event>
<event>
 5    1  0.3196850E-002  0.1250076E+03  0.7818608E-02  0.1235057E+00
         -4   -1    0    0    0  501 -0.00000000000E+00  0.00000000000E+00  0.56074293396E+02  0.56088673365E+02  0.12700000000E+01 0.  1.
          4   -1    0    0  501    0  0.00000000000E+00 -0.00000000000E+00 -0.69641385896E+02  0.69652964973E+02  0.12700000000E+01 0.  1.
         25    2    1    2    0    0  0.00000000000E+00  0.00000000000E+00 -0.13567092500E+02  0.12574163834E+03  0.12500757422E+03 0.  0.
    9000005    1    3    3    0    0  0.42250585082E+02 -0.20156766050E+02 -0.48430981081E+02  0.67364434873E+02  0.10000000000E+01 0.  0.
    9000005    1    3    3    0    0 -0.42250585082E+02  0.20156766050E+02  0.34863888581E+02  0.58377203465E+02  0.10000000000E+01 0.  0.
<mgrwt>
<rscale>  0 0.12500757E+03</rscale>
<asrwt>0</asrwt>
<pdfrwt beam="2">  1        4 0.10716056E-01 0.12500757E+03</pdfrwt>
<pdfrwt beam="1">  1       -4 0.86288112E-02 0.12500757E+03</pdfrwt>
<totfact> 0.10434845E+04</totfact>
</mgrwt>
</event>
<event>
 5    1  0.3196850E-002  0.1249987E+03  0.7818608E-02  0.1235071E+00
          4   -1    0    0  501    0  0.00000000000E+00  0.00000000000E+00  0.87152735624E+01  0.88073204363E+01  0.12700000000E+01 0. -1.
         -4   -1    0    0    0  501 -0.00000000000E+00 -0.00000000000E+00 -0.44575092384E+03  0.44575273303E+03  0.12700000000E+01 0. -1.
         25    2    1    2    0    0  0.00000000000E+00  0.00000000000E+00 -0.43703565028E+03  0.45456005347E+03  0.12499873037E+03 0.  0.
    9000005    1    3    3    0    0  0.46795165625E+02 -0.41331697469E+02 -0.20884584627E+03  0.21798092634E+03  0.10000000000E+01 0.  0.
    9000005    1    3    3    0    0 -0.46795165625E+02  0.41331697469E+02 -0.22818980401E+03  0.23657912713E+03  0.10000000000E+01 0.  0.
<mgrwt>
<rscale>  0 0.12499873E+03</rscale>
<asrwt>0</asrwt>
<pdfrwt beam="1">  1        4 0.13480314E-02 0.12499873E+03</pdfrwt>
<pdfrwt beam="2">  1       -4 0.68584267E-01 0.12499873E+03</pdfrwt>
<totfact> 0.59572457E+03</totfact>
</mgrwt>
</event>
<event>
 5    1  0.3196850E-002  0.1249998E+03  0.7818608E-02  0.1235070E+00
          4   -1    0    0  501    0  0.00000000000E+00  0.00000000000E+00  0.21464181224E+04  0.21464184981E+04  0.12700000000E+01 0.  1.
         -4   -1    0    0    0  501 -0.00000000000E+00 -0.00000000000E+00 -0.15978977825E+01  0.20411215846E+01  0.12700000000E+01 0.  1.
         25    2    1    2    0    0  0.00000000000E+00  0.00000000000E+00  0.21448202246E+04  0.21484596197E+04  0.12499976627E+03 0.  0.
    9000005    1    3    3    0    0  0.29723234765E+02  0.54911756095E+02  0.11161079814E+04  0.11178536567E+04  0.10000000000E+01 0.  0.
    9000005    1    3    3    0    0 -0.29723234765E+02 -0.54911756095E+02  0.10287122432E+04  0.10306059630E+04  0.10000000000E+01 0.  0.
<mgrwt>
<rscale>  0 0.12499977E+03</rscale>
<asrwt>0</asrwt>
<pdfrwt beam="1">  1        4 0.33025277E+00 0.12499977E+03</pdfrwt>
<pdfrwt beam="2">  1       -4 0.27995307E-03 0.12499977E+03</pdfrwt>
<totfact> 0.80458199E+02</totfact>
</mgrwt>
</event>
<event>
 5    1  0.3196850E-002  0.1249987E+03  0.7818608E-02  0.1235071E+00
         -4   -1    0    0    0  501 -0.00000000000E+00  0.00000000000E+00  0.66199605711E+03  0.66199727532E+03  0.12700000000E+01 0. -1.
          4   -1    0    0  501    0  0.00000000000E+00 -0.00000000000E+00 -0.58310202483E+01  0.59677212683E+01  0.12700000000E+01 0. -1.
         25    2    1    2    0    0  0.00000000000E+00  0.00000000000E+00  0.65616503686E+03  0.66796499659E+03  0.12499872426E+03 0.  0.
    9000005    1    3    3    0    0  0.11330346598E+02  0.61449496654E+02  0.33271921944E+03  0.33853728950E+03  0.10000000000E+01 0.  0.
    9000005    1    3    3    0    0 -0.11330346598E+02 -0.61449496654E+02  0.32344581742E+03  0.32942770709E+03  0.10000000000E+01 0.  0.
<mgrwt>
<rscale>  0 0.12499872E+03</rscale>
<asrwt>0</asrwt>
<pdfrwt beam="2">  1        4 0.90768941E-03 0.12499872E+03</pdfrwt>
<pdfrwt beam="1">  1       -4 0.10185613E+00 0.12499872E+03</pdfrwt>
<totfact> 0.44833809E+03</totfact>
</mgrwt>
</event>
<event>
 5    1  0.3196850E-002  0.1250002E+03  0.7818608E-02  0.1235069E+00
         -4   -1    0    0    0  501 -0.00000000000E+00  0.00000000000E+00  0.35183304258E+02  0.35206218180E+02  0.12700000000E+01 0. -1.
          4   -1    0    0  501    0  0.00000000000E+00 -0.00000000000E+00 -0.11096335970E+03  0.11097062718E+03  0.12700000000E+01 0. -1.
         25    2    1    2    0    0  0.00000000000E+00  0.00000000000E+00 -0.75780055441E+02  0.14617684536E+03  0.12500021326E+03 0.  0.
    9000005    1    3    3    0    0 -0.10321382432E+02  0.16734188661E+01  0.34158821196E+02  0.35737324068E+02  0.10000000000E+01 0.  0.
    9000005    1    3    3    0    0  0.10321382432E+02 -0.16734188661E+01 -0.10993887664E+03  0.11043952129E+03  0.10000000000E+01 0.  0.
<mgrwt>
<rscale>  0 0.12500021E+03</rscale>
<asrwt>0</asrwt>
<pdfrwt beam="2">  1        4 0.17073608E-01 0.12500021E+03</pdfrwt>
<pdfrwt beam="1">  1       -4 0.54151377E-02 0.12500021E+03</pdfrwt>
<totfact> 0.10007084E+04</totfact>
</mgrwt>
</event>
<event>
 5    1  0.3196850E-002  0.1249986E+03  0.7818608E-02  0.1235071E+00
          4   -1    0    0  501    0  0.00000000000E+00  0.00000000000E+00  0.12322046546E+03  0.12322701006E+03  0.12700000000E+01 0. -1.
         -4   -1    0    0    0  501 -0.00000000000E+00 -0.00000000000E+00 -0.31680482533E+02  0.31705928050E+02  0.12700000000E+01 0. -1.
         25    2    1    2    0    0  0.00000000000E+00  0.00000000000E+00  0.91539982928E+02  0.15493293811E+03  0.12499858734E+03 0.  0.
    9000005    1    3    3    0    0  0.14936556520E+02  0.21631836068E+02  0.11604000062E+03  0.11898453176E+03  0.10000000000E+01 0.  0.
    9000005    1    3    3    0    0 -0.14936556520E+02 -0.21631836068E+02 -0.24500017696E+02  0.35948406355E+02  0.10000000000E+01 0.  0.
<mgrwt>
<rscale>  0 0.12499859E+03</rscale>
<asrwt>0</asrwt>
<pdfrwt beam="1">  1        4 0.18959456E-01 0.12499859E+03</pdfrwt>
<pdfrwt beam="2">  1       -4 0.48763811E-02 0.12499859E+03</pdfrwt>
<totfact> 0.98331789E+03</totfact>
</mgrwt>
</event>
<event>
 5    1  0.3196850E-002  0.1249967E+03  0.7818608E-02  0.1235075E+00
         -4   -1    0    0    0  501 -0.00000000000E+00  0.00000000000E+00  0.22591135101E+01  0.25916199281E+01  0.12700000000E+01 0. -1.
          4   -1    0    0  501    0  0.00000000000E+00 -0.00000000000E+00 -0.16101623529E+04  0.16101628537E+04  0.12700000000E+01 0. -1.
         25    2    1    2    0    0  0.00000000000E+00  0.00000000000E+00 -0.16079032394E+04  0.16127544737E+04  0.12499666047E+03 0.  0.
    9000005    1    3    3    0    0 -0.61112862664E+02 -0.12670867511E+02 -0.84415328318E+03  0.84645797201E+03  0.10000000000E+01 0.  0.
    9000005    1    3    3    0    0  0.61112862664E+02  0.12670867511E+02 -0.76374995620E+03  0.76629650166E+03  0.10000000000E+01 0.  0.
<mgrwt>
<rscale>  0 0.12499666E+03</rscale>
<asrwt>0</asrwt>
<pdfrwt beam="2">  1        4 0.24774205E+00 0.12499666E+03</pdfrwt>
<pdfrwt beam="1">  1       -4 0.37317316E-03 0.12499666E+03</pdfrwt>
<totfact> 0.15817996E+03</totfact>
</mgrwt>
</event>
<event>
 5    1  0.3196850E-002  0.1250034E+03  0.7818608E-02  0.1235064E+00
         -4   -1    0    0    0  501 -0.00000000000E+00  0.00000000000E+00  0.85042805056E+01  0.85985863325E+01  0.12700000000E+01 0. -1.
          4   -1    0    0  501    0  0.00000000000E+00 -0.00000000000E+00 -0.45672463858E+03  0.45672640431E+03  0.12700000000E+01 0. -1.
         25    2    1    2    0    0  0.00000000000E+00  0.00000000000E+00 -0.44822035808E+03  0.46532499064E+03  0.12500343002E+03 0.  0.
    9000005    1    3    3    0    0  0.50288693778E+01  0.18659385712E+02 -0.28797158552E+01  0.19564124457E+02  0.10000000000E+01 0.  0.
    9000005    1    3    3    0    0 -0.50288693778E+01 -0.18659385712E+02 -0.44534064222E+03  0.44576086618E+03  0.10000000000E+01 0.  0.
<mgrwt>
<rscale>  0 0.12500343E+03</rscale>
<asrwt>0</asrwt>
<pdfrwt beam="2">  1        4 0.70272700E-01 0.12500343E+03</pdfrwt>
<pdfrwt beam="1">  1       -4 0.13157413E-02 0.12500343E+03</pdfrwt>
<totfact> 0.58654387E+03</totfact>
</mgrwt>
</event>
<event>
 5    1  0.3196850E-002  0.1250016E+03  0.7818608E-02  0.1235067E+00
         -4   -1    0    0    0  501 -0.00000000000E+00  0.00000000000E+00  0.30955807490E+02  0.30981848192E+02  0.12700000000E+01 0.  1.
          4   -1    0    0  501    0  0.00000000000E+00 -0.00000000000E+00 -0.12610892604E+03  0.12611532075E+03  0.12700000000E+01 0.  1.
         25    2    1    2    0    0  0.00000000000E+00  0.00000000000E+00 -0.95153118553E+02  0.15709716894E+03  0.12500161807E+03 0.  0.
    9000005    1    3    3    0    0  0.29718864403E+02  0.54534921216E+02 -0.38861974906E+02  0.73270196035E+02  0.10000000000E+01 0.  0.
    9000005    1    3    3    0    0 -0.29718864403E+02 -0.54534921216E+02 -0.56291143648E+02  0.83826972906E+02  0.10000000000E+01 0.  0.
<mgrwt>
<rscale>  0 0.12500162E+03</rscale>
<asrwt>0</asrwt>
<pdfrwt beam="2">  1        4 0.19403868E-01 0.12500162E+03</pdfrwt>
<pdfrwt beam="1">  1       -4 0.47649270E-02 0.12500162E+03</pdfrwt>
<totfact> 0.97901803E+03</totfact>
</mgrwt>
</event>
<event>
 5    1  0.3196850E-002  0.1250016E+03  0.7818608E-02  0.1235067E+00
         -4   -1    0    0    0  501 -0.00000000000E+00  0.00000000000E+00  0.25340677830E+03  0.25340996071E+03  0.12700000000E+01 0. -1.
          4   -1    0    0  501    0  0.00000000000E+00 -0.00000000000E+00 -0.15385885740E+02  0.15438211684E+02  0.12700000000E+01 0. -1.
         25    2    1    2    0    0  0.00000000000E+00  0.00000000000E+00  0.23802089256E+03  0.26884817240E+03  0.12500157801E+03 0.  0.
    9000005    1    3    3    0    0  0.61873921574E+02  0.87389124326E+01  0.12067344984E+03  0.13589640267E+03  0.10000000000E+01 0.  0.
    9000005    1    3    3    0    0 -0.61873921574E+02 -0.87389124326E+01  0.11734744272E+03  0.13295176973E+03  0.10000000000E+01 0.  0.
<mgrwt>
<rscale>  0 0.12500158E+03</rscale>
<asrwt>0</asrwt>
<pdfrwt beam="2">  1        4 0.23713292E-02 0.12500158E+03</pdfrwt>
<pdfrwt beam="1">  1       -4 0.38989928E-01 0.12500158E+03</pdfrwt>
<totfact> 0.79677362E+03</totfact>
</mgrwt>
</event>
<event>
 5    1  0.3196850E-002  0.1249976E+03  0.7818608E-02  0.1235073E+00
          4   -1    0    0  501    0  0.00000000000E+00  0.00000000000E+00  0.34990549158E+03  0.34990779634E+03  0.12700000000E+01 0. -1.
         -4   -1    0    0    0  501 -0.00000000000E+00 -0.00000000000E+00 -0.11124826404E+02  0.11197082769E+02  0.12700000000E+01 0. -1.
         25    2    1    2    0    0  0.00000000000E+00  0.00000000000E+00  0.33878066518E+03  0.36110487911E+03  0.12499757845E+03 0.  0.
    9000005    1    3    3    0    0 -0.56943112671E+02 -0.23640670876E+02  0.19880876813E+03  0.20815216954E+03  0.10000000000E+01 0.  0.
    9000005    1    3    3    0    0  0.56943112671E+02  0.23640670876E+02  0.13997189705E+03  0.15295270956E+03  0.10000000000E+01 0.  0.
<mgrwt>
<rscale>  0 0.12499758E+03</rscale>
<asrwt>0</asrwt>
<pdfrwt beam="1">  1        4 0.53837354E-01 0.12499758E+03</pdfrwt>
<pdfrwt beam="2">  1       -4 0.17172471E-02 0.12499758E+03</pdfrwt>
<totfact> 0.68523581E+03</totfact>
</mgrwt>
</event>
<event>
 5    1  0.3196850E-002  0.1249909E+03  0.7818608E-02  0.1235084E+00
          4   -1    0    0  501    0  0.00000000000E+00  0.00000000000E+00  0.80599651136E+02  0.80609656142E+02  0.12700000000E+01 0.  1.
         -4   -1    0    0    0  501 -0.00000000000E+00 -0.00000000000E+00 -0.48436451941E+02  0.48453098731E+02  0.12700000000E+01 0.  1.
         25    2    1    2    0    0  0.00000000000E+00  0.00000000000E+00  0.32163199196E+02  0.12906275487E+03  0.12499089292E+03 0.  0.
    9000005    1    3    3    0    0  0.14446259468E+02  0.17047477120E+02 -0.44175012413E+02  0.49515074578E+02  0.10000000000E+01 0.  0.
    9000005    1    3    3    0    0 -0.14446259468E+02 -0.17047477120E+02  0.76338211608E+02  0.79547680295E+02  0.10000000000E+01 0.  0.
<mgrwt>
<rscale>  0 0.12499089E+03</rscale>
<asrwt>0</asrwt>
<pdfrwt beam="1">  1        4 0.12401996E-01 0.12499089E+03</pdfrwt>
<pdfrwt beam="2">  1       -4 0.74538120E-02 0.12499089E+03</pdfrwt>
<totfact> 0.10366730E+04</totfact>
</mgrwt>
</event>
<event>
 5    1  0.3196850E-002  0.1250002E+03  0.7818608E-02  0.1235069E+00
          4   -1    0    0  501    0  0.00000000000E+00  0.00000000000E+00  0.56624609806E+03  0.56624752227E+03  0.12700000000E+01 0. -1.
         -4   -1    0    0    0  501 -0.00000000000E+00 -0.00000000000E+00 -0.68386337722E+01  0.69555597812E+01  0.12700000000E+01 0. -1.
         25    2    1    2    0    0  0.00000000000E+00  0.00000000000E+00  0.55940746429E+03  0.57320308205E+03  0.12500024865E+03 0.  0.
    9000005    1    3    3    0    0  0.50170735528E+02 -0.36138261926E+02  0.32127603904E+03  0.32717330261E+03  0.10000000000E+01 0.  0.
    9000005    1    3    3    0    0 -0.50170735528E+02  0.36138261926E+02  0.23813142525E+03  0.24602977944E+03  0.10000000000E+01 0.  0.
<mgrwt>
<rscale>  0 0.12500025E+03</rscale>
<asrwt>0</asrwt>
<pdfrwt beam="1">  1        4 0.87123919E-01 0.12500025E+03</pdfrwt>
<pdfrwt beam="2">  1       -4 0.10612010E-02 0.12500025E+03</pdfrwt>
<totfact> 0.50603718E+03</totfact>
</mgrwt>
</event>
<event>
 5    1  0.3196850E-002  0.1249993E+03  0.7818608E-02  0.1235070E+00
          4   -1    0    0  501    0  0.00000000000E+00  0.00000000000E+00  0.10244500843E+03  0.10245288015E+03  0.12700000000E+01 0.  1.
         -4   -1    0    0    0  501 -0.00000000000E+00 -0.00000000000E+00 -0.38109877545E+02  0.38131032854E+02  0.12700000000E+01 0.  1.
         25    2    1    2    0    0  0.00000000000E+00  0.00000000000E+00  0.64335130881E+02  0.14058391301E+03  0.12499931012E+03 0.  0.
    9000005    1    3    3    0    0  0.15833010606E+02 -0.58340639344E+02  0.14353140199E+02  0.62139577223E+02  0.10000000000E+01 0.  0.
    9000005    1    3    3    0    0 -0.15833010606E+02  0.58340639344E+02  0.49981990682E+02  0.78444335783E+02  0.10000000000E+01 0.  0.
<mgrwt>
<rscale>  0 0.12499931E+03</rscale>
<asrwt>0</asrwt>
<pdfrwt beam="1">  1        4 0.15763003E-01 0.12499931E+03</pdfrwt>
<pdfrwt beam="2">  1       -4 0.58652909E-02 0.12499931E+03</pdfrwt>
<totfact> 0.10121656E+04</totfact>
</mgrwt>
</event>
<event>
 5    1  0.3196850E-002  0.1249900E+03  0.7818608E-02  0.1235085E+00
          4   -1    0    0  501    0  0.00000000000E+00  0.00000000000E+00  0.38813509960E+02  0.38834281961E+02  0.12700000000E+01 0. -1.
         -4   -1    0    0    0  501 -0.00000000000E+00 -0.00000000000E+00 -0.10057363469E+03  0.10058165287E+03  0.12700000000E+01 0. -1.
         25    2    1    2    0    0  0.00000000000E+00  0.00000000000E+00 -0.61760124729E+02  0.13941593483E+03  0.12498995911E+03 0.  0.
    9000005    1    3    3    0    0 -0.56933289832E+02 -0.48706569475E+01 -0.26730262359E+01  0.57212479928E+02  0.10000000000E+01 0.  0.
    9000005    1    3    3    0    0  0.56933289832E+02  0.48706569475E+01 -0.59087098494E+02  0.82203454907E+02  0.10000000000E+01 0.  0.
<mgrwt>
<rscale>  0 0.12498996E+03</rscale>
<asrwt>0</asrwt>
<pdfrwt beam="1">  1        4 0.59735239E-02 0.12498996E+03</pdfrwt>
<pdfrwt beam="2">  1       -4 0.15475081E-01 0.12498996E+03</pdfrwt>
<totfact> 0.10148001E+04</totfact>
</mgrwt>
</event>
<event>
 5    1  0.3196850E-002  0.1250183E+03  0.7818608E-02  0.1235041E+00
          4   -1    0    0  501    0  0.00000000000E+00  0.00000000000E+00  0.18793754528E+03  0.18794183629E+03  0.12700000000E+01 0. -1.
         -4   -1    0    0    0  501 -0.00000000000E+00 -0.00000000000E+00 -0.20766983830E+02  0.20805780865E+02  0.12700000000E+01 0. -1.
         25    2    1    2    0    0  0.00000000000E+00  0.00000000000E+00  0.16717056145E+03  0.20874761715E+03  0.12501828287E+03 0.  0.
    9000005    1    3    3    0    0 -0.28485774475E+02 -0.19687207634E+02 -0.32950737928E+01  0.34797744225E+02  0.10000000000E+01 0.  0.
    9000005    1    3    3    0    0  0.28485774475E+02  0.19687207634E+02  0.17046563525E+03  0.17394987293E+03  0.10000000000E+01 0.  0.
<mgrwt>
<rscale>  0 0.12501828E+03</rscale>
<asrwt>0</asrwt>
<pdfrwt beam="1">  1        4 0.28916783E-01 0.12501828E+03</pdfrwt>
<pdfrwt beam="2">  1       -4 0.31982351E-02 0.12501828E+03</pdfrwt>
<totfact> 0.88644578E+03</totfact>
</mgrwt>
</event>
<event>
 5    1  0.3196850E-002  0.1250022E+03  0.7818608E-02  0.1235066E+00
          4   -1    0    0  501    0  0.00000000000E+00  0.00000000000E+00  0.10308366260E+04  0.10308374083E+04  0.12700000000E+01 0.  1.
         -4   -1    0    0    0  501 -0.00000000000E+00 -0.00000000000E+00 -0.36823175729E+01  0.38951717174E+01  0.12700000000E+01 0.  1.
         25    2    1    2    0    0  0.00000000000E+00  0.00000000000E+00  0.10271543084E+04  0.10347325801E+04  0.12500215551E+03 0.  0.
    9000005    1    3    3    0    0 -0.35527898387E+02  0.45062192125E+02  0.71844891593E+03  0.72073759269E+03  0.10000000000E+01 0.  0.
    9000005    1    3    3    0    0  0.35527898387E+02 -0.45062192125E+02  0.30870539252E+03  0.31399498737E+03  0.10000000000E+01 0.  0.
<mgrwt>
<rscale>  0 0.12500216E+03</rscale>
<asrwt>0</asrwt>
<pdfrwt beam="1">  1        4 0.15860674E+00 0.12500216E+03</pdfrwt>
<pdfrwt beam="2">  1       -4 0.58294377E-03 0.12500216E+03</pdfrwt>
<totfact> 0.29474907E+03</totfact>
</mgrwt>
</event>
<event>
 5    1  0.3196850E-002  0.1250006E+03  0.7818608E-02  0.1235068E+00
          4   -1    0    0  501    0  0.00000000000E+00  0.00000000000E+00  0.32062834922E+02  0.32087977238E+02  0.12700000000E+01 0. -1.
         -4   -1    0    0    0  501 -0.00000000000E+00 -0.00000000000E+00 -0.12175596067E+03  0.12176258399E+03  0.12700000000E+01 0. -1.
         25    2    1    2    0    0  0.00000000000E+00  0.00000000000E+00 -0.89693125752E+02  0.15385056123E+03  0.12500055353E+03 0.  0.
    9000005    1    3    3    0    0  0.57016273593E+02 -0.22086302004E+02 -0.60734095467E+02  0.86187531249E+02  0.10000000000E+01 0.  0.
    9000005    1    3    3    0    0 -0.57016273593E+02  0.22086302004E+02 -0.28959030286E+02  0.67663029977E+02  0.10000000000E+01 0.  0.
<mgrwt>
<rscale>  0 0.12500055E+03</rscale>
<asrwt>0</asrwt>
<pdfrwt beam="1">  1        4 0.49351874E-02 0.12500055E+03</pdfrwt>
<pdfrwt beam="2">  1       -4 0.18734130E-01 0.12500055E+03</pdfrwt>
<totfact> 0.98540383E+03</totfact>
</mgrwt>
</event>
<event>
 5    1  0.3196850E-002  0.1249984E+03  0.7818608E-02  0.1235072E+00
         -4   -1    0    0    0  501 -0.00000000000E+00  0.00000000000E+00  0.51346523267E+03  0.51346680327E+03  0.12700000000E+01 0.  1.
          4   -1    0    0  501    0  0.00000000000E+00 -0.00000000000E+00 -0.75528369446E+01  0.76588671428E+01  0.12700000000E+01 0.  1.
         25    2    1    2    0    0  0.00000000000E+00  0.00000000000E+00  0.50591239573E+03  0.52112567042E+03  0.12499844885E+03 0.  0.
    9000005    1    3    3    0    0 -0.20265102050E+02  0.58583530327E+02  0.22001044550E+03  0.22857887154E+03  0.10000000000E+01 0.  0.
    9000005    1    3    3    0    0  0.20265102050E+02 -0.58583530327E+02  0.28590195023E+03  0.29254679888E+03  0.10000000000E+01 0.  0.
<mgrwt>
<rscale>  0 0.12499845E+03</rscale>
<asrwt>0</asrwt>
<pdfrwt beam="2">  1        4 0.11702519E-02 0.12499845E+03</pdfrwt>
<pdfrwt beam="1">  1       -4 0.79002927E-01 0.12499845E+03</pdfrwt>
<totfact> 0.54263586E+03</totfact>
</mgrwt>
</event>
<event>
 5    1  0.3196850E-002  0.1249967E+03  0.7818608E-02  0.1235074E+00
         -4   -1    0    0    0  501 -0.00000000000E+00  0.00000000000E+00  0.54963713607E+01  0.56411876529E+01  0.12700000000E+01 0. -1.
          4   -1    0    0  501    0  0.00000000000E+00 -0.00000000000E+00 -0.70127314416E+03  0.70127429414E+03  0.12700000000E+01 0. -1.
         25    2    1    2    0    0  0.00000000000E+00  0.00000000000E+00 -0.69577677280E+03  0.70691548179E+03  0.12499672328E+03 0.  0.
    9000005    1    3    3    0    0  0.14650602200E+02 -0.48490082955E+02 -0.14093234295E+03  0.14976265749E+03  0.10000000000E+01 0.  0.
    9000005    1    3    3    0    0 -0.14650602200E+02  0.48490082955E+02 -0.55484442985E+03  0.55715282430E+03  0.10000000000E+01 0.  0.
<mgrwt>
<rscale>  0 0.12499672E+03</rscale>
<asrwt>0</asrwt>
<pdfrwt beam="2">  1        4 0.10789933E+00 0.12499672E+03</pdfrwt>
<pdfrwt beam="1">  1       -4 0.85682433E-03 0.12499672E+03</pdfrwt>
<totfact> 0.42727229E+03</totfact>
</mgrwt>
</event>
<event>
 5    1  0.3196850E-002  0.1250083E+03  0.7818608E-02  0.1235056E+00
          4   -1    0    0  501    0  0.00000000000E+00  0.00000000000E+00  0.15677007563E+03  0.15677521970E+03  0.12700000000E+01 0.  1.
         -4   -1    0    0    0  501 -0.00000000000E+00 -0.00000000000E+00 -0.24898618854E+02  0.24930987161E+02  0.12700000000E+01 0.  1.
         25    2    1    2    0    0  0.00000000000E+00  0.00000000000E+00  0.13187145677E+03  0.18170620686E+03  0.12500825773E+03 0.  0.
    9000005    1    3    3    0    0  0.37984172571E+02 -0.47951798868E+02  0.84527227349E+02  0.10434569729E+03  0.10000000000E+01 0.  0.
    9000005    1    3    3    0    0 -0.37984172571E+02  0.47951798868E+02  0.47344229423E+02  0.77360509566E+02  0.10000000000E+01 0.  0.
<mgrwt>
<rscale>  0 0.12500826E+03</rscale>
<asrwt>0</asrwt>
<pdfrwt beam="1">  1        4 0.24121359E-01 0.12500826E+03</pdfrwt>
<pdfrwt beam="2">  1       -4 0.38334423E-02 0.12500826E+03</pdfrwt>
<totfact> 0.93293507E+03</totfact>
</mgrwt>
</event>
<event>
 5    1  0.3196850E-002  0.1250067E+03  0.7818608E-02  0.1235059E+00
         -4   -1    0    0    0  501 -0.00000000000E+00  0.00000000000E+00  0.55048384280E+03  0.55048530779E+03  0.12700000000E+01 0. -1.
          4   -1    0    0  501    0  0.00000000000E+00 -0.00000000000E+00 -0.70384844652E+01  0.71521439840E+01  0.12700000000E+01 0. -1.
         25    2    1    2    0    0  0.00000000000E+00  0.00000000000E+00  0.54344535834E+03  0.55763745177E+03  0.12500668029E+03 0.  0.
    9000005    1    3    3    0    0  0.57169709129E+02  0.17003958545E+02  0.18848758928E+03  0.19770200191E+03  0.10000000000E+01 0.  0.
    9000005    1    3    3    0    0 -0.57169709129E+02 -0.17003958545E+02  0.35495776906E+03  0.35993544986E+03  0.10000000000E+01 0.  0.
<mgrwt>
<rscale>  0 0.12500668E+03</rscale>
<asrwt>0</asrwt>
<pdfrwt beam="2">  1        4 0.10916996E-02 0.12500668E+03</pdfrwt>
<pdfrwt beam="1">  1       -4 0.84698669E-01 0.12500668E+03</pdfrwt>
<totfact> 0.51648138E+03</totfact>
</mgrwt>
</event>
<event>
 5    1  0.3196850E-002  0.1250038E+03  0.7818608E-02  0.1235063E+00
          4   -1    0    0  501    0  0.00000000000E+00  0.00000000000E+00  0.57574261464E+02  0.57588266888E+02  0.12700000000E+01 0. -1.
         -4   -1    0    0    0  501 -0.00000000000E+00 -0.00000000000E+00 -0.67823033175E+02  0.67834922636E+02  0.12700000000E+01 0. -1.
         25    2    1    2    0    0  0.00000000000E+00  0.00000000000E+00 -0.10248771710E+02  0.12542318952E+03  0.12500375654E+03 0.  0.
    9000005    1    3    3    0    0 -0.51257583162E+02 -0.21127249247E+02  0.23813055913E+02  0.60347014211E+02  0.10000000000E+01 0.  0.
    9000005    1    3    3    0    0  0.51257583162E+02  0.21127249247E+02 -0.34061827623E+02  0.65076175313E+02  0.10000000000E+01 0.  0.
<mgrwt>
<rscale>  0 0.12500376E+03</rscale>
<asrwt>0</asrwt>
<pdfrwt beam="1">  1        4 0.88595706E-02 0.12500376E+03</pdfrwt>
<pdfrwt beam="2">  1       -4 0.10436305E-01 0.12500376E+03</pdfrwt>
<totfact> 0.10442768E+04</totfact>
</mgrwt>
</event>
<event>
 5    1  0.3196850E-002  0.1250151E+03  0.7818608E-02  0.1235046E+00
          4   -1    0    0  501    0  0.00000000000E+00  0.00000000000E+00  0.22195205459E+03  0.22195568800E+03  0.12700000000E+01 0. -1.
         -4   -1    0    0    0  501 -0.00000000000E+00 -0.00000000000E+00 -0.17577077505E+02  0.17622898559E+02  0.12700000000E+01 0. -1.
         25    2    1    2    0    0  0.00000000000E+00  0.00000000000E+00  0.20437497708E+03  0.23957858656E+03  0.12501507061E+03 0.  0.
    9000005    1    3    3    0    0 -0.56147339389E+02 -0.70113272472E+01  0.51321315187E+02  0.76397380994E+02  0.10000000000E+01 0.  0.
    9000005    1    3    3    0    0  0.56147339389E+02  0.70113272472E+01  0.15305366190E+03  0.16318120557E+03  0.10000000000E+01 0.  0.
<mgrwt>
<rscale>  0 0.12501507E+03</rscale>
<asrwt>0</asrwt>
<pdfrwt beam="1">  1        4 0.34150275E-01 0.12501507E+03</pdfrwt>
<pdfrwt beam="2">  1       -4 0.27079699E-02 0.12501507E+03</pdfrwt>
<totfact> 0.83831998E+03</totfact>
</mgrwt>
</event>
<event>
 5    1  0.3196850E-002  0.1249999E+03  0.7818608E-02  0.1235069E+00
         -4   -1    0    0    0  501 -0.00000000000E+00  0.00000000000E+00  0.11303908633E+03  0.11304622036E+03  0.12700000000E+01 0.  1.
          4   -1    0    0  501    0  0.00000000000E+00 -0.00000000000E+00 -0.34536706953E+02  0.34560049582E+02  0.12700000000E+01 0.  1.
         25    2    1    2    0    0  0.00000000000E+00  0.00000000000E+00  0.78502379375E+02  0.14760626994E+03  0.12499994944E+03 0.  0.
    9000005    1    3    3    0    0 -0.35207672790E+02 -0.32887649677E+02 -0.77470975887E+01  0.48807737559E+02  0.10000000000E+01 0.  0.
    9000005    1    3    3    0    0  0.35207672790E+02  0.32887649677E+02  0.86249476963E+02  0.98798532383E+02  0.10000000000E+01 0.  0.
<mgrwt>
<rscale>  0 0.12499995E+03</rscale>
<asrwt>0</asrwt>
<pdfrwt beam="2">  1        4 0.53156838E-02 0.12499995E+03</pdfrwt>
<pdfrwt beam="1">  1       -4 0.17392973E-01 0.12499995E+03</pdfrwt>
<totfact> 0.99783123E+03</totfact>
</mgrwt>
</event>
<event>
 5    1  0.3196850E-002  0.1250053E+03  0.7818608E-02  0.1235061E+00
         -4   -1    0    0    0  501 -0.00000000000E+00  0.00000000000E+00  0.28170904470E+02  0.28199516993E+02  0.12700000000E+01 0.  1.
          4   -1    0    0  501    0  0.00000000000E+00 -0.00000000000E+00 -0.13857239680E+03  0.13857821637E+03  0.12700000000E+01 0.  1.
         25    2    1    2    0    0  0.00000000000E+00  0.00000000000E+00 -0.11040149233E+03  0.16677773337E+03  0.12500529125E+03 0.  0.
    9000005    1    3    3    0    0 -0.15711943695E+02  0.46338564134E+02 -0.33318512038E+01  0.49053327442E+02  0.10000000000E+01 0.  0.
    9000005    1    3    3    0    0  0.15711943695E+02 -0.46338564134E+02 -0.10706964112E+03  0.11772440593E+03  0.10000000000E+01 0.  0.
<mgrwt>
<rscale>  0 0.12500529E+03</rscale>
<asrwt>0</asrwt>
<pdfrwt beam="2">  1        4 0.21321478E-01 0.12500529E+03</pdfrwt>
<pdfrwt beam="1">  1       -4 0.43366340E-02 0.12500529E+03</pdfrwt>
<totfact> 0.96040359E+03</totfact>
</mgrwt>
</event>
<event>
 5    1  0.3196850E-002  0.1249991E+03  0.7818608E-02  0.1235071E+00
          4   -1    0    0  501    0  0.00000000000E+00  0.00000000000E+00  0.54818252670E+02  0.54832962037E+02  0.12700000000E+01 0. -1.
         -4   -1    0    0    0  501 -0.00000000000E+00 -0.00000000000E+00 -0.71227272892E+02  0.71238594200E+02  0.12700000000E+01 0. -1.
         25    2    1    2    0    0  0.00000000000E+00  0.00000000000E+00 -0.16409020222E+02  0.12607155624E+03  0.12499912539E+03 0.  0.
    9000005    1    3    3    0    0 -0.61760936580E+02  0.95266474095E+01 -0.80449160744E+01  0.63015005933E+02  0.10000000000E+01 0.  0.
    9000005    1    3    3    0    0  0.61760936580E+02 -0.95266474095E+01 -0.83641041478E+01  0.63056550304E+02  0.10000000000E+01 0.  0.
<mgrwt>
<rscale>  0 0.12499913E+03</rscale>
<asrwt>0</asrwt>
<pdfrwt beam="1">  1        4 0.84355797E-02 0.12499913E+03</pdfrwt>
<pdfrwt beam="2">  1       -4 0.10960044E-01 0.12499913E+03</pdfrwt>
<totfact> 0.10429595E+04</totfact>
</mgrwt>
</event>
<event>
 5    1  0.3196850E-002  0.1250005E+03  0.7818608E-02  0.1235069E+00
         -4   -1    0    0    0  501 -0.00000000000E+00  0.00000000000E+00  0.11734545681E+02  0.11803070039E+02  0.12700000000E+01 0.  1.
          4   -1    0    0  501    0  0.00000000000E+00 -0.00000000000E+00 -0.33184826721E+03  0.33185069738E+03  0.12700000000E+01 0.  1.
         25    2    1    2    0    0  0.00000000000E+00  0.00000000000E+00 -0.32011372153E+03  0.34365376742E+03  0.12500046859E+03 0.  0.
    9000005    1    3    3    0    0  0.97774839896E+01  0.44077981212E+02 -0.27884134640E+03  0.28247471406E+03  0.10000000000E+01 0.  0.
    9000005    1    3    3    0    0 -0.97774839896E+01 -0.44077981212E+02 -0.41272375129E+02  0.61179053357E+02  0.10000000000E+01 0.  0.
<mgrwt>
<rscale>  0 0.12500047E+03</rscale>
<asrwt>0</asrwt>
<pdfrwt beam="2">  1        4 0.51059031E-01 0.12500047E+03</pdfrwt>
<pdfrwt beam="1">  1       -4 0.18107730E-02 0.12500047E+03</pdfrwt>
<totfact> 0.70427680E+03</totfact>
</mgrwt>
</event>
<event>
 5    1  0.3196850E-002  0.1250063E+03  0.7818608E-02  0.1235059E+00
          4   -1    0    0  501    0  0.00000000000E+00  0.00000000000E+00  0.27877166311E+02  0.27906080010E+02  0.12700000000E+01 0.  1.
         -4   -1    0    0    0  501 -0.00000000000E+00 -0.00000000000E+00 -0.14003339148E+03  0.14003915034E+03  0.12700000000E+01 0.  1.
         25    2    1    2    0    0  0.00000000000E+00  0.00000000000E+00 -0.11215622516E+03  0.16794523035E+03  0.12500632606E+03 0.  0.
    9000005    1    3    3    0    0  0.99070355522E+00 -0.54008647920E+02 -0.98301665186E+02  0.11217010708E+03  0.10000000000E+01 0.  0.
    9000005    1    3    3    0    0 -0.99070355522E+00  0.54008647920E+02 -0.13854559978E+02  0.55775123271E+02  0.10000000000E+01 0.  0.
<mgrwt>
<rscale>  0 0.12500633E+03</rscale>
<asrwt>0</asrwt>
<pdfrwt beam="1">  1        4 0.42914620E-02 0.12500633E+03</pdfrwt>
<pdfrwt beam="2">  1       -4 0.21546265E-01 0.12500633E+03</pdfrwt>
<totfact> 0.95818889E+03</totfact>
</mgrwt>
</event>
<event>
 5    1  0.3196850E-002  0.1249991E+03  0.7818608E-02  0.1235071E+00
         -4   -1    0    0    0  501 -0.00000000000E+00  0.00000000000E+00  0.10087837500E+04  0.10087845495E+04  0.12700000000E+01 0. -1.
          4   -1    0    0  501    0  0.00000000000E+00 -0.00000000000E+00 -0.37672266176E+01  0.39755372453E+01  0.12700000000E+01 0. -1.
         25    2    1    2    0    0  0.00000000000E+00  0.00000000000E+00  0.10050165234E+04  0.10127600867E+04  0.12499912354E+03 0.  0.
    9000005    1    3    3    0    0 -0.13410206826E+02  0.22972376526E+02  0.44351800555E+02  0.51726646352E+02  0.10000000000E+01 0.  0.
    9000005    1    3    3    0    0  0.13410206826E+02 -0.22972376526E+02  0.96066472286E+03  0.96103344035E+03  0.10000000000E+01 0.  0.
<mgrwt>
<rscale>  0 0.12499912E+03</rscale>
<asrwt>0</asrwt>
<pdfrwt beam="2">  1        4 0.59565802E-03 0.12499912E+03</pdfrwt>
<pdfrwt beam="1">  1       -4 0.15521377E+00 0.12499912E+03</pdfrwt>
<totfact> 0.30187118E+03</totfact>
</mgrwt>
</event>
<event>
 5    1  0.3196850E-002  0.1249993E+03  0.7818608E-02  0.1235070E+00
         -4   -1    0    0    0  501 -0.00000000000E+00  0.00000000000E+00  0.26583861596E+02  0.26614180381E+02  0.12700000000E+01 0. -1.
          4   -1    0    0  501    0  0.00000000000E+00 -0.00000000000E+00 -0.14682215982E+03  0.14682765242E+03  0.12700000000E+01 0. -1.
         25    2    1    2    0    0  0.00000000000E+00  0.00000000000E+00 -0.12023829823E+03  0.17344183280E+03  0.12499928402E+03 0.  0.
    9000005    1    3    3    0    0 -0.41255668413E+02 -0.96648459606E+01  0.36137178991E+01  0.42538199077E+02  0.10000000000E+01 0.  0.
    9000005    1    3    3    0    0  0.41255668413E+02  0.96648459606E+01 -0.12385201613E+03  0.13090363372E+03  0.10000000000E+01 0.  0.
<mgrwt>
<rscale>  0 0.12499928E+03</rscale>
<asrwt>0</asrwt>
<pdfrwt beam="2">  1        4 0.22590779E-01 0.12499928E+03</pdfrwt>
<pdfrwt beam="1">  1       -4 0.40925797E-02 0.12499928E+03</pdfrwt>
<totfact> 0.94812516E+03</totfact>
</mgrwt>
</event>
<event>
 5    1  0.3196850E-002  0.1249974E+03  0.7818608E-02  0.1235073E+00
         -4   -1    0    0    0  501 -0.00000000000E+00  0.00000000000E+00  0.36973815050E+02  0.36995620002E+02  0.12700000000E+01 0. -1.
          4   -1    0    0  501    0  0.00000000000E+00 -0.00000000000E+00 -0.10558794814E+03  0.10559558557E+03  0.12700000000E+01 0. -1.
         25    2    1    2    0    0  0.00000000000E+00  0.00000000000E+00 -0.68614133090E+02  0.14259120557E+03  0.12499741056E+03 0.  0.
    9000005    1    3    3    0    0  0.44697238942E+02  0.28102758908E+02 -0.72440998865E+02  0.89645449097E+02  0.10000000000E+01 0.  0.
    9000005    1    3    3    0    0 -0.44697238942E+02 -0.28102758908E+02  0.38268657750E+01  0.52945756477E+02  0.10000000000E+01 0.  0.
<mgrwt>
<rscale>  0 0.12499741E+03</rscale>
<asrwt>0</asrwt>
<pdfrwt beam="2">  1        4 0.16246564E-01 0.12499741E+03</pdfrwt>
<pdfrwt beam="1">  1       -4 0.56905441E-02 0.12499741E+03</pdfrwt>
<totfact> 0.10080749E+04</totfact>
</mgrwt>
</event>
<event>
 5    1  0.3196850E-002  0.1250000E+03  0.7818608E-02  0.1235069E+00
         -4   -1    0    0    0  501 -0.00000000000E+00  0.00000000000E+00  0.31132329178E+02  0.31158222351E+02  0.12700000000E+01 0.  1.
          4   -1    0    0  501    0  0.00000000000E+00 -0.00000000000E+00 -0.12539113410E+03  0.12539756541E+03  0.12700000000E+01 0.  1.
         25    2    1    2    0    0  0.00000000000E+00  0.00000000000E+00 -0.94258804926E+02  0.15655578777E+03  0.12499996951E+03 0.  0.
    9000005    1    3    3    0    0 -0.41456531627E+02 -0.45610126747E+02 -0.60043603951E+02  0.86053251256E+02  0.10000000000E+01 0.  0.
    9000005    1    3    3    0    0  0.41456531627E+02  0.45610126747E+02 -0.34215200975E+02  0.70502536509E+02  0.10000000000E+01 0.  0.
<mgrwt>
<rscale>  0 0.12499997E+03</rscale>
<asrwt>0</asrwt>
<pdfrwt beam="2">  1        4 0.19293430E-01 0.12499997E+03</pdfrwt>
<pdfrwt beam="1">  1       -4 0.47920757E-02 0.12499997E+03</pdfrwt>
<totfact> 0.98011009E+03</totfact>
</mgrwt>
</event>
<event>
 5    1  0.3196850E-002  0.1249967E+03  0.7818608E-02  0.1235074E+00
         -4   -1    0    0    0  501 -0.00000000000E+00  0.00000000000E+00  0.22235393134E+02  0.22271632357E+02  0.12700000000E+01 0.  1.
          4   -1    0    0  501    0  0.00000000000E+00 -0.00000000000E+00 -0.17548626238E+03  0.17549085784E+03  0.12700000000E+01 0.  1.
         25    2    1    2    0    0  0.00000000000E+00  0.00000000000E+00 -0.15325086925E+03  0.19776249020E+03  0.12499669437E+03 0.  0.
    9000005    1    3    3    0    0  0.48201856077E+02 -0.34885305033E+02 -0.46413570228E+02  0.75469350984E+02  0.10000000000E+01 0.  0.
    9000005    1    3    3    0    0 -0.48201856077E+02  0.34885305033E+02 -0.10683729902E+03  0.12229313921E+03  0.10000000000E+01 0.  0.
<mgrwt>
<rscale>  0 0.12499669E+03</rscale>
<asrwt>0</asrwt>
<pdfrwt beam="2">  1        4 0.27001027E-01 0.12499669E+03</pdfrwt>
<pdfrwt beam="1">  1       -4 0.34239709E-02 0.12499669E+03</pdfrwt>
<totfact> 0.90520631E+03</totfact>
</mgrwt>
</event>
<event>
 5    1  0.3196850E-002  0.1250012E+03  0.7818608E-02  0.1235067E+00
          4   -1    0    0  501    0  0.00000000000E+00  0.00000000000E+00  0.70179614068E+03  0.70179728980E+03  0.12700000000E+01 0.  1.
         -4   -1    0    0    0  501 -0.00000000000E+00 -0.00000000000E+00 -0.54925741306E+01  0.56374879672E+01  0.12700000000E+01 0.  1.
         25    2    1    2    0    0  0.00000000000E+00  0.00000000000E+00  0.69630356655E+03  0.70743477777E+03  0.12500123203E+03 0.  0.
    9000005    1    3    3    0    0 -0.46559734845E+02  0.29857241312E+02  0.51276834413E+03  0.51574377215E+03  0.10000000000E+01 0.  0.
    9000005    1    3    3    0    0  0.46559734845E+02 -0.29857241312E+02  0.18353522242E+03  0.19169100562E+03  0.10000000000E+01 0.  0.
<mgrwt>
<rscale>  0 0.12500123E+03</rscale>
<asrwt>0</asrwt>
<pdfrwt beam="1">  1        4 0.10797978E+00 0.12500123E+03</pdfrwt>
<pdfrwt beam="2">  1       -4 0.85624777E-03 0.12500123E+03</pdfrwt>
<totfact> 0.42696001E+03</totfact>
</mgrwt>
</event>
<event>
 5    1  0.3196850E-002  0.1250035E+03  0.7818608E-02  0.1235064E+00
          4   -1    0    0  501    0  0.00000000000E+00  0.00000000000E+00  0.16595410957E+02  0.16643934776E+02  0.12700000000E+01 0. -1.
         -4   -1    0    0    0  501 -0.00000000000E+00 -0.00000000000E+00 -0.23500068116E+03  0.23500411283E+03  0.12700000000E+01 0. -1.
         25    2    1    2    0    0  0.00000000000E+00  0.00000000000E+00 -0.21840527020E+03  0.25164804760E+03  0.12500351119E+03 0.  0.
    9000005    1    3    3    0    0 -0.17430785320E+02  0.56028731437E+02 -0.15249276813E+03  0.16339551816E+03  0.10000000000E+01 0.  0.
    9000005    1    3    3    0    0  0.17430785320E+02 -0.56028731437E+02 -0.65912502072E+02  0.88252529441E+02  0.10000000000E+01 0.  0.
<mgrwt>
<rscale>  0 0.12500351E+03</rscale>
<asrwt>0</asrwt>
<pdfrwt beam="1">  1        4 0.25571369E-02 0.12500351E+03</pdfrwt>
<pdfrwt beam="2">  1       -4 0.36157945E-01 0.12500351E+03</pdfrwt>
<totfact> 0.82086197E+03</totfact>
</mgrwt>
</event>
<event>
 5    1  0.3196850E-002  0.1250034E+03  0.7818608E-02  0.1235064E+00
          4   -1    0    0  501    0  0.00000000000E+00  0.00000000000E+00  0.15044735250E+04  0.15044740610E+04  0.12700000000E+01 0.  1.
         -4   -1    0    0    0  501 -0.00000000000E+00 -0.00000000000E+00 -0.24407033915E+01  0.27513511309E+01  0.12700000000E+01 0.  1.
         25    2    1    2    0    0  0.00000000000E+00  0.00000000000E+00  0.15020328216E+04  0.15072254121E+04  0.12500338351E+03 0.  0.
    9000005    1    3    3    0    0 -0.24152107235E+02 -0.55967726937E+02  0.58492462039E+03  0.58809312382E+03  0.10000000000E+01 0.  0.
    9000005    1    3    3    0    0  0.24152107235E+02  0.55967726937E+02  0.91710820118E+03  0.91913228831E+03  0.10000000000E+01 0.  0.
<mgrwt>
<rscale>  0 0.12500338E+03</rscale>
<asrwt>0</asrwt>
<pdfrwt beam="1">  1        4 0.23148145E+00 0.12500338E+03</pdfrwt>
<pdfrwt beam="2">  1       -4 0.39942996E-03 0.12500338E+03</pdfrwt>
<totfact> 0.17787498E+03</totfact>
</mgrwt>
</event>
<event>
 5    1  0.3196850E-002  0.1249998E+03  0.7818608E-02  0.1235070E+00
          4   -1    0    0  501    0  0.00000000000E+00  0.00000000000E+00  0.80954408294E+01  0.81944531375E+01  0.12700000000E+01 0.  1.
         -4   -1    0    0    0  501 -0.00000000000E+00 -0.00000000000E+00 -0.47949055857E+03  0.47949224046E+03  0.12700000000E+01 0.  1.
         25    2    1    2    0    0  0.00000000000E+00  0.00000000000E+00 -0.47139511775E+03  0.48768669360E+03  0.12499981632E+03 0.  0.
    9000005    1    3    3    0    0  0.25896649864E+02  0.52864003449E+02 -0.15385909532E+03  0.16473876455E+03  0.10000000000E+01 0.  0.
    9000005    1    3    3    0    0 -0.25896649864E+02 -0.52864003449E+02 -0.31753602243E+03  0.32294792905E+03  0.10000000000E+01 0.  0.
<mgrwt>
<rscale>  0 0.12499982E+03</rscale>
<asrwt>0</asrwt>
<pdfrwt beam="1">  1        4 0.12531985E-02 0.12499982E+03</pdfrwt>
<pdfrwt beam="2">  1       -4 0.73775502E-01 0.12499982E+03</pdfrwt>
<totfact> 0.56832785E+03</totfact>
</mgrwt>
</event>
<event>
 5    1  0.3196850E-002  0.1250038E+03  0.7818608E-02  0.1235063E+00
          4   -1    0    0  501    0  0.00000000000E+00  0.00000000000E+00  0.14400672378E+03  0.14401232375E+03  0.12700000000E+01 0.  1.
         -4   -1    0    0    0  501 -0.00000000000E+00 -0.00000000000E+00 -0.27106108414E+02  0.27135843700E+02  0.12700000000E+01 0.  1.
         25    2    1    2    0    0  0.00000000000E+00  0.00000000000E+00  0.11690061536E+03  0.17114816745E+03  0.12500376534E+03 0.  0.
    9000005    1    3    3    0    0 -0.57573433486E+02 -0.85619494625E+01  0.89595796572E+02  0.10684762040E+03  0.10000000000E+01 0.  0.
    9000005    1    3    3    0    0  0.57573433486E+02  0.85619494625E+01  0.27304818790E+02  0.64300547051E+02  0.10000000000E+01 0.  0.
<mgrwt>
<rscale>  0 0.12500377E+03</rscale>
<asrwt>0</asrwt>
<pdfrwt beam="1">  1        4 0.22157599E-01 0.12500377E+03</pdfrwt>
<pdfrwt beam="2">  1       -4 0.41728886E-02 0.12500377E+03</pdfrwt>
<totfact> 0.95227018E+03</totfact>
</mgrwt>
</event>
<event>
 5    1  0.3196850E-002  0.1249850E+03  0.7818608E-02  0.1235093E+00
         -4   -1    0    0    0  501 -0.00000000000E+00  0.00000000000E+00  0.65434134102E+02  0.65446457549E+02  0.12700000000E+01 0. -1.
          4   -1    0    0  501    0  0.00000000000E+00 -0.00000000000E+00 -0.59658417503E+02  0.59671933763E+02  0.12700000000E+01 0. -1.
         25    2    1    2    0    0  0.00000000000E+00  0.00000000000E+00  0.57757165989E+01  0.12511839131E+03  0.12498501087E+03 0.  0.
    9000005    1    3    3    0    0  0.24882963117E+02 -0.38443482297E+01 -0.54360339835E+02  0.59916503684E+02  0.10000000000E+01 0.  0.
    9000005    1    3    3    0    0 -0.24882963117E+02  0.38443482297E+01  0.60136056434E+02  0.65201887627E+02  0.10000000000E+01 0.  0.
<mgrwt>
<rscale>  0 0.12498501E+03</rscale>
<asrwt>0</asrwt>
<pdfrwt beam="2">  1        4 0.91802058E-02 0.12498501E+03</pdfrwt>
<pdfrwt beam="1">  1       -4 0.10068777E-01 0.12498501E+03</pdfrwt>
<totfact> 0.10453833E+04</totfact>
</mgrwt>
</event>
<event>
 5    1  0.3196850E-002  0.1249949E+03  0.7818608E-02  0.1235077E+00
         -4   -1    0    0    0  501 -0.00000000000E+00  0.00000000000E+00  0.11631340434E+02  0.11700469233E+02  0.12700000000E+01 0. -1.
          4   -1    0    0  501    0  0.00000000000E+00 -0.00000000000E+00 -0.33474590193E+03  0.33474831107E+03  0.12700000000E+01 0. -1.
         25    2    1    2    0    0  0.00000000000E+00  0.00000000000E+00 -0.32311456150E+03  0.34644878030E+03  0.12499494997E+03 0.  0.
    9000005    1    3    3    0    0 -0.61780478967E+02 -0.85353353834E+01 -0.17238284424E+03  0.18332082402E+03  0.10000000000E+01 0.  0.
    9000005    1    3    3    0    0  0.61780478967E+02  0.85353353834E+01 -0.15073171726E+03  0.16312795628E+03  0.10000000000E+01 0.  0.
<mgrwt>
<rscale>  0 0.12499495E+03</rscale>
<asrwt>0</asrwt>
<pdfrwt beam="2">  1        4 0.51504865E-01 0.12499495E+03</pdfrwt>
<pdfrwt beam="1">  1       -4 0.17949402E-02 0.12499495E+03</pdfrwt>
<totfact> 0.70124850E+03</totfact>
</mgrwt>
</event>
<event>
 5    1  0.3196850E-002  0.1249994E+03  0.7818608E-02  0.1235070E+00
         -4   -1    0    0    0  501 -0.00000000000E+00  0.00000000000E+00  0.21182770524E+02  0.21220807409E+02  0.12700000000E+01 0. -1.
          4   -1    0    0  501    0  0.00000000000E+00 -0.00000000000E+00 -0.18419957202E+03  0.18420395010E+03  0.12700000000E+01 0. -1.
         25    2    1    2    0    0  0.00000000000E+00  0.00000000000E+00 -0.16301680150E+03  0.20542475751E+03  0.12499941371E+03 0.  0.
    9000005    1    3    3    0    0  0.46891885755E+02  0.80569789096E+01 -0.14926135015E+02  0.49875378348E+02  0.10000000000E+01 0.  0.
    9000005    1    3    3    0    0 -0.46891885755E+02 -0.80569789096E+01 -0.14809066648E+03  0.15554937916E+03  0.10000000000E+01 0.  0.
<mgrwt>
<rscale>  0 0.12499941E+03</rscale>
<asrwt>0</asrwt>
<pdfrwt beam="2">  1        4 0.28341657E-01 0.12499941E+03</pdfrwt>
<pdfrwt beam="1">  1       -4 0.32621506E-02 0.12499941E+03</pdfrwt>
<totfact> 0.89229742E+03</totfact>
</mgrwt>
</event>
<event>
 5    1  0.3196850E-002  0.1250008E+03  0.7818608E-02  0.1235068E+00
          4   -1    0    0  501    0  0.00000000000E+00  0.00000000000E+00  0.24365463552E+02  0.24398539180E+02  0.12700000000E+01 0.  1.
         -4   -1    0    0    0  501 -0.00000000000E+00 -0.00000000000E+00 -0.16017679612E+03  0.16018183079E+03  0.12700000000E+01 0.  1.
         25    2    1    2    0    0  0.00000000000E+00  0.00000000000E+00 -0.13581133257E+03  0.18458036997E+03  0.12500077969E+03 0.  0.
    9000005    1    3    3    0    0 -0.52829647372E+02 -0.18656597236E+02 -0.10878091742E+03  0.12236555176E+03  0.10000000000E+01 0.  0.
    9000005    1    3    3    0    0  0.52829647372E+02  0.18656597236E+02 -0.27030415142E+02  0.62214818208E+02  0.10000000000E+01 0.  0.
<mgrwt>
<rscale>  0 0.12500078E+03</rscale>
<asrwt>0</asrwt>
<pdfrwt beam="1">  1        4 0.37514645E-02 0.12500078E+03</pdfrwt>
<pdfrwt beam="2">  1       -4 0.24645515E-01 0.12500078E+03</pdfrwt>
<totfact> 0.92797338E+03</totfact>
</mgrwt>
</event>
<event>
 5    1  0.3196850E-002  0.1249992E+03  0.7818608E-02  0.1235071E+00
          4   -1    0    0  501    0  0.00000000000E+00  0.00000000000E+00  0.35152428663E+02  0.35175362698E+02  0.12700000000E+01 0. -1.
         -4   -1    0    0    0  501 -0.00000000000E+00 -0.00000000000E+00 -0.11105895432E+03  0.11106621554E+03  0.12700000000E+01 0. -1.
         25    2    1    2    0    0  0.00000000000E+00  0.00000000000E+00 -0.75906525654E+02  0.14624157824E+03  0.12499919427E+03 0.  0.
    9000005    1    3    3    0    0 -0.42839387943E+01 -0.56049916567E+02 -0.69891865776E+02  0.89698484828E+02  0.10000000000E+01 0.  0.
    9000005    1    3    3    0    0  0.42839387943E+01  0.56049916567E+02 -0.60146598782E+01  0.56543093409E+02  0.10000000000E+01 0.  0.
<mgrwt>
<rscale>  0 0.12499919E+03</rscale>
<asrwt>0</asrwt>
<pdfrwt beam="1">  1        4 0.54103887E-02 0.12499919E+03</pdfrwt>
<pdfrwt beam="2">  1       -4 0.17088316E-01 0.12499919E+03</pdfrwt>
<totfact> 0.10006005E+04</totfact>
</mgrwt>
</event>
<event>
 5    1  0.3196850E-002  0.1250027E+03  0.7818608E-02  0.1235065E+00
          4   -1    0    0  501    0  0.00000000000E+00  0.00000000000E+00  0.56653414054E+01  0.58059446466E+01  0.12700000000E+01 0. -1.
         -4   -1    0    0    0  501 -0.00000000000E+00 -0.00000000000E+00 -0.68093607159E+03  0.68093725592E+03  0.12700000000E+01 0. -1.
         25    2    1    2    0    0  0.00000000000E+00  0.00000000000E+00 -0.67527073019E+03  0.68674320056E+03  0.12500265786E+03 0.  0.
    9000005    1    3    3    0    0  0.54688208058E+01 -0.14767803508E+02 -0.53872357933E+01  0.16673881700E+02  0.10000000000E+01 0.  0.
    9000005    1    3    3    0    0 -0.54688208058E+01  0.14767803508E+02 -0.66988349439E+03  0.67006931886E+03  0.10000000000E+01 0.  0.
<mgrwt>
<rscale>  0 0.12500266E+03</rscale>
<asrwt>0</asrwt>
<pdfrwt beam="1">  1        4 0.88249826E-03 0.12500266E+03</pdfrwt>
<pdfrwt beam="2">  1       -4 0.10477024E+00 0.12500266E+03</pdfrwt>
<totfact> 0.43793276E+03</totfact>
</mgrwt>
</event>
<event>
 5    1  0.3196850E-002  0.1250398E+03  0.7818608E-02  0.1235007E+00
         -4   -1    0    0    0  501 -0.00000000000E+00  0.00000000000E+00  0.38288224685E+02  0.38309281507E+02  0.12700000000E+01 0.  1.
          4   -1    0    0  501    0  0.00000000000E+00 -0.00000000000E+00 -0.10203407707E+03  0.10204198049E+03  0.12700000000E+01 0.  1.
         25    2    1    2    0    0  0.00000000000E+00  0.00000000000E+00 -0.63745852382E+02  0.14035126200E+03  0.12503976587E+03 0.  0.
    9000005    1    3    3    0    0  0.21004686995E+01 -0.56953444408E+02 -0.30446928540E+01  0.57082194713E+02  0.10000000000E+01 0.  0.
    9000005    1    3    3    0    0 -0.21004686995E+01  0.56953444408E+02 -0.60701159528E+02  0.83269067286E+02  0.10000000000E+01 0.  0.
<mgrwt>
<rscale>  0 0.12503977E+03</rscale>
<asrwt>0</asrwt>
<pdfrwt beam="2">  1        4 0.15699778E-01 0.12503977E+03</pdfrwt>
<pdfrwt beam="1">  1       -4 0.58927239E-02 0.12503977E+03</pdfrwt>
<totfact> 0.10117244E+04</totfact>
</mgrwt>
</event>
<event>
 5    1  0.3196850E-002  0.1250124E+03  0.7818608E-02  0.1235050E+00
         -4   -1    0    0    0  501 -0.00000000000E+00  0.00000000000E+00  0.30879244086E+02  0.30905349299E+02  0.12700000000E+01 0.  1.
          4   -1    0    0  501    0  0.00000000000E+00 -0.00000000000E+00 -0.12644311990E+03  0.12644949771E+03  0.12700000000E+01 0.  1.
         25    2    1    2    0    0  0.00000000000E+00  0.00000000000E+00 -0.95563875815E+02  0.15735484701E+03  0.12501237345E+03 0.  0.
    9000005    1    3    3    0    0 -0.20906780511E+02  0.52305461699E+02 -0.13701950282E+02  0.57980153815E+02  0.10000000000E+01 0.  0.
    9000005    1    3    3    0    0  0.20906780511E+02 -0.52305461699E+02 -0.81861925533E+02  0.99374693191E+02  0.10000000000E+01 0.  0.
<mgrwt>
<rscale>  0 0.12501237E+03</rscale>
<asrwt>0</asrwt>
<pdfrwt beam="2">  1        4 0.19455286E-01 0.12501237E+03</pdfrwt>
<pdfrwt beam="1">  1       -4 0.47531517E-02 0.12501237E+03</pdfrwt>
<totfact> 0.97827968E+03</totfact>
</mgrwt>
</event>
<event>
 5    1  0.3196850E-002  0.1249984E+03  0.7818608E-02  0.1235072E+00
          4   -1    0    0  501    0  0.00000000000E+00  0.00000000000E+00  0.16137398912E+02  0.16187295748E+02  0.12700000000E+01 0.  1.
         -4   -1    0    0    0  501 -0.00000000000E+00 -0.00000000000E+00 -0.24163045369E+03  0.24163379121E+03  0.12700000000E+01 0.  1.
         25    2    1    2    0    0  0.00000000000E+00  0.00000000000E+00 -0.22549305478E+03  0.25782108695E+03  0.12499838048E+03 0.  0.
    9000005    1    3    3    0    0  0.75415773191E+01  0.32752626435E+02 -0.22141103201E+03  0.22394967073E+03  0.10000000000E+01 0.  0.
    9000005    1    3    3    0    0 -0.75415773191E+01 -0.32752626435E+02 -0.40820227751E+01  0.33871416221E+02  0.10000000000E+01 0.  0.
<mgrwt>
<rscale>  0 0.12499838E+03</rscale>
<asrwt>0</asrwt>
<pdfrwt beam="1">  1        4 0.24867719E-02 0.12499838E+03</pdfrwt>
<pdfrwt beam="2">  1       -4 0.37178008E-01 0.12499838E+03</pdfrwt>
<totfact> 0.81215745E+03</totfact>
</mgrwt>
</event>
<event>
 5    1  0.3196850E-002  0.1249957E+03  0.7818608E-02  0.1235076E+00
          4   -1    0    0  501    0  0.00000000000E+00  0.00000000000E+00  0.45579044456E+02  0.45596734461E+02  0.12700000000E+01 0.  1.
         -4   -1    0    0    0  501 -0.00000000000E+00 -0.00000000000E+00 -0.85657878556E+02  0.85667292818E+02  0.12700000000E+01 0.  1.
         25    2    1    2    0    0  0.00000000000E+00  0.00000000000E+00 -0.40078834101E+02  0.13126402728E+03  0.12499572759E+03 0.  0.
    9000005    1    3    3    0    0 -0.40182299381E+02 -0.44715462887E+02 -0.21285206918E+01  0.60163281203E+02  0.10000000000E+01 0.  0.
    9000005    1    3    3    0    0  0.40182299381E+02  0.44715462887E+02 -0.37950313409E+02  0.71100746076E+02  0.10000000000E+01 0.  0.
<mgrwt>
<rscale>  0 0.12499573E+03</rscale>
<asrwt>0</asrwt>
<pdfrwt beam="1">  1        4 0.70142456E-02 0.12499573E+03</pdfrwt>
<pdfrwt beam="2">  1       -4 0.13180220E-01 0.12499573E+03</pdfrwt>
<totfact> 0.10318427E+04</totfact>
</mgrwt>
</event>
<event>
 5    1  0.3196850E-002  0.1250019E+03  0.7818608E-02  0.1235066E+00
          4   -1    0    0  501    0  0.00000000000E+00  0.00000000000E+00  0.21433171676E+03  0.21433547935E+03  0.12700000000E+01 0.  1.
         -4   -1    0    0    0  501 -0.00000000000E+00 -0.00000000000E+00 -0.18199765243E+02  0.18244022443E+02  0.12700000000E+01 0.  1.
         25    2    1    2    0    0  0.00000000000E+00  0.00000000000E+00  0.19613195151E+03  0.23257950179E+03  0.12500192898E+03 0.  0.
    9000005    1    3    3    0    0 -0.56183061819E+02  0.21677724039E+02  0.66992696995E+02  0.90085967862E+02  0.10000000000E+01 0.  0.
    9000005    1    3    3    0    0  0.56183061819E+02 -0.21677724039E+02  0.12913925452E+03  0.14249353393E+03  0.10000000000E+01 0.  0.
<mgrwt>
<rscale>  0 0.12500193E+03</rscale>
<asrwt>0</asrwt>
<pdfrwt beam="1">  1        4 0.32977804E-01 0.12500193E+03</pdfrwt>
<pdfrwt beam="2">  1       -4 0.28036577E-02 0.12500193E+03</pdfrwt>
<totfact> 0.84911425E+03</totfact>
</mgrwt>
</event>
<event>
 5    1  0.3196850E-002  0.1249983E+03  0.7818608E-02  0.1235072E+00
          4   -1    0    0  501    0  0.00000000000E+00  0.00000000000E+00  0.81620150654E+02  0.81630030582E+02  0.12700000000E+01 0.  1.
         -4   -1    0    0    0  501 -0.00000000000E+00 -0.00000000000E+00 -0.47836392957E+02  0.47853248491E+02  0.12700000000E+01 0.  1.
         25    2    1    2    0    0  0.00000000000E+00  0.00000000000E+00  0.33783757697E+02  0.12948327907E+03  0.12499830909E+03 0.  0.
    9000005    1    3    3    0    0 -0.93465296892E+01 -0.94173813850E+01 -0.46365551236E+02  0.48237008933E+02  0.10000000000E+01 0.  0.
    9000005    1    3    3    0    0  0.93465296892E+01  0.94173813850E+01  0.80149308933E+02  0.81246270141E+02  0.10000000000E+01 0.  0.
<mgrwt>
<rscale>  0 0.12499831E+03</rscale>
<asrwt>0</asrwt>
<pdfrwt beam="1">  1        4 0.12559003E-01 0.12499831E+03</pdfrwt>
<pdfrwt beam="2">  1       -4 0.73615018E-02 0.12499831E+03</pdfrwt>
<totfact> 0.10355969E+04</totfact>
</mgrwt>
</event>
<event>
 5    1  0.3196850E-002  0.1249962E+03  0.7818608E-02  0.1235075E+00
          4   -1    0    0  501    0  0.00000000000E+00  0.00000000000E+00  0.90115044869E+02  0.90123993541E+02  0.12700000000E+01 0.  1.
         -4   -1    0    0    0  501 -0.00000000000E+00 -0.00000000000E+00 -0.43324335785E+02  0.43342946038E+02  0.12700000000E+01 0.  1.
         25    2    1    2    0    0  0.00000000000E+00  0.00000000000E+00  0.46790709084E+02  0.13346693958E+03  0.12499621396E+03 0.  0.
    9000005    1    3    3    0    0  0.43088951084E+02 -0.25120431626E+01  0.71646711396E+02  0.83649383263E+02  0.10000000000E+01 0.  0.
    9000005    1    3    3    0    0 -0.43088951084E+02  0.25120431626E+01 -0.24856002312E+02  0.49817556316E+02  0.10000000000E+01 0.  0.
<mgrwt>
<rscale>  0 0.12499621E+03</rscale>
<asrwt>0</asrwt>
<pdfrwt beam="1">  1        4 0.13865973E-01 0.12499621E+03</pdfrwt>
<pdfrwt beam="2">  1       -4 0.66674025E-02 0.12499621E+03</pdfrwt>
<totfact> 0.10271363E+04</totfact>
</mgrwt>
</event>
<event>
 5    1  0.3196850E-002  0.1250005E+03  0.7818608E-02  0.1235069E+00
          4   -1    0    0  501    0  0.00000000000E+00  0.00000000000E+00  0.38250265296E+03  0.38250476131E+03  0.12700000000E+01 0. -1.
         -4   -1    0    0    0  501 -0.00000000000E+00 -0.00000000000E+00 -0.10170794873E+02  0.10249778942E+02  0.12700000000E+01 0. -1.
         25    2    1    2    0    0  0.00000000000E+00  0.00000000000E+00  0.37233185809E+03  0.39275454025E+03  0.12500046535E+03 0.  0.
    9000005    1    3    3    0    0  0.24910827568E+02 -0.45905820851E+02  0.29397837555E+03  0.29858362147E+03  0.10000000000E+01 0.  0.
    9000005    1    3    3    0    0 -0.24910827568E+02  0.45905820851E+02  0.78353482537E+02  0.94170918780E+02  0.10000000000E+01 0.  0.
<mgrwt>
<rscale>  0 0.12500047E+03</rscale>
<asrwt>0</asrwt>
<pdfrwt beam="1">  1        4 0.58852797E-01 0.12500047E+03</pdfrwt>
<pdfrwt beam="2">  1       -4 0.15709756E-02 0.12500047E+03</pdfrwt>
<totfact> 0.65262956E+03</totfact>
</mgrwt>
</event>
<event>
 5    1  0.3196850E-002  0.1249991E+03  0.7818608E-02  0.1235071E+00
         -4   -1    0    0    0  501 -0.00000000000E+00  0.00000000000E+00  0.18303919006E+03  0.18304359589E+03  0.12700000000E+01 0. -1.
          4   -1    0    0  501    0  0.00000000000E+00 -0.00000000000E+00 -0.21317184492E+02  0.21354981964E+02  0.12700000000E+01 0. -1.
         25    2    1    2    0    0  0.00000000000E+00  0.00000000000E+00  0.16172200556E+03  0.20439857785E+03  0.12499908618E+03 0.  0.
    9000005    1    3    3    0    0  0.58717106313E+01 -0.31741705488E+02  0.16835844550E+03  0.17142805787E+03  0.10000000000E+01 0.  0.
    9000005    1    3    3    0    0 -0.58717106313E+01  0.31741705488E+02 -0.66364399372E+01  0.32970519985E+02  0.10000000000E+01 0.  0.
<mgrwt>
<rscale>  0 0.12499909E+03</rscale>
<asrwt>0</asrwt>
<pdfrwt beam="2">  1        4 0.32828133E-02 0.12499909E+03</pdfrwt>
<pdfrwt beam="1">  1       -4 0.28163121E-01 0.12499909E+03</pdfrwt>
<totfact> 0.89400743E+03</totfact>
</mgrwt>
</event>
<event>
 5    1  0.3196850E-002  0.1249945E+03  0.7818608E-02  0.1235078E+00
          4   -1    0    0  501    0  0.00000000000E+00  0.00000000000E+00  0.35102792396E+02  0.35125758839E+02  0.12700000000E+01 0. -1.
         -4   -1    0    0    0  501 -0.00000000000E+00 -0.00000000000E+00 -0.11120745917E+03  0.11121471070E+03  0.12700000000E+01 0. -1.
         25    2    1    2    0    0  0.00000000000E+00  0.00000000000E+00 -0.76104666778E+02  0.14634046954E+03  0.12499445075E+03 0.  0.
    9000005    1    3    3    0    0 -0.42500876703E+02 -0.38628022020E+02 -0.66884205945E+02  0.88164310300E+02  0.10000000000E+01 0.  0.
    9000005    1    3    3    0    0  0.42500876703E+02  0.38628022020E+02 -0.92204608328E+01  0.58176159238E+02  0.10000000000E+01 0.  0.
<mgrwt>
<rscale>  0 0.12499445E+03</rscale>
<asrwt>0</asrwt>
<pdfrwt beam="1">  1        4 0.54027541E-02 0.12499445E+03</pdfrwt>
<pdfrwt beam="2">  1       -4 0.17111164E-01 0.12499445E+03</pdfrwt>
<totfact> 0.10005074E+04</totfact>
</mgrwt>
</event>
<event>
 5    1  0.3196850E-002  0.1249891E+03  0.7818608E-02  0.1235086E+00
         -4   -1    0    0    0  501 -0.00000000000E+00  0.00000000000E+00  0.59657536565E+01  0.60994357681E+01  0.12700000000E+01 0. -1.
          4   -1    0    0  501    0  0.00000000000E+00 -0.00000000000E+00 -0.64727664757E+03  0.64727789348E+03  0.12700000000E+01 0. -1.
         25    2    1    2    0    0  0.00000000000E+00  0.00000000000E+00 -0.64131089391E+03  0.65337732925E+03  0.12498908642E+03 0.  0.
    9000005    1    3    3    0    0 -0.39985186188E+01  0.30978425331E+02 -0.60356362113E+03  0.60437215004E+03  0.10000000000E+01 0.  0.
    9000005    1    3    3    0    0  0.39985186188E+01 -0.30978425331E+02 -0.37747272782E+02  0.49005179212E+02  0.10000000000E+01 0.  0.
<mgrwt>
<rscale>  0 0.12498909E+03</rscale>
<asrwt>0</asrwt>
<pdfrwt beam="2">  1        4 0.99591347E-01 0.12498909E+03</pdfrwt>
<pdfrwt beam="1">  1       -4 0.92818785E-03 0.12498909E+03</pdfrwt>
<totfact> 0.45673499E+03</totfact>
</mgrwt>
</event>
<event>
 5    1  0.3196850E-002  0.1250015E+03  0.7818608E-02  0.1235067E+00
         -4   -1    0    0    0  501 -0.00000000000E+00  0.00000000000E+00  0.10113038221E+03  0.10113835625E+03  0.12700000000E+01 0. -1.
          4   -1    0    0  501    0  0.00000000000E+00 -0.00000000000E+00 -0.38606862907E+02  0.38627746033E+02  0.12700000000E+01 0. -1.
         25    2    1    2    0    0  0.00000000000E+00  0.00000000000E+00  0.62523519298E+02  0.13976610228E+03  0.12500149152E+03 0.  0.
    9000005    1    3    3    0    0  0.56122765286E+02 -0.71708396281E+00  0.61985819798E+02  0.83627273355E+02  0.10000000000E+01 0.  0.
    9000005    1    3    3    0    0 -0.56122765286E+02  0.71708396281E+00  0.53769950059E+00  0.56138828929E+02  0.10000000000E+01 0.  0.
<mgrwt>
<rscale>  0 0.12500149E+03</rscale>
<asrwt>0</asrwt>
<pdfrwt beam="2">  1        4 0.59417372E-02 0.12500149E+03</pdfrwt>
<pdfrwt beam="1">  1       -4 0.15560740E-01 0.12500149E+03</pdfrwt>
<totfact> 0.10138095E+04</totfact>
</mgrwt>
</event>
<event>
 5    1  0.3196850E-002  0.1249988E+03  0.7818608E-02  0.1235071E+00
         -4   -1    0    0    0  501 -0.00000000000E+00  0.00000000000E+00  0.66669280719E+01  0.67868129425E+01  0.12700000000E+01 0.  1.
          4   -1    0    0  501    0  0.00000000000E+00 -0.00000000000E+00 -0.58056181655E+03  0.58056320564E+03  0.12700000000E+01 0.  1.
         25    2    1    2    0    0  0.00000000000E+00  0.00000000000E+00 -0.57389488848E+03  0.58735001858E+03  0.12499880520E+03 0.  0.
    9000005    1    3    3    0    0  0.30846287779E+02  0.46454752831E+02 -0.15440687621E+03  0.16417070674E+03  0.10000000000E+01 0.  0.
    9000005    1    3    3    0    0 -0.30846287779E+02 -0.46454752831E+02 -0.41948801227E+03  0.42317931184E+03  0.10000000000E+01 0.  0.
<mgrwt>
<rscale>  0 0.12499881E+03</rscale>
<asrwt>0</asrwt>
<pdfrwt beam="2">  1        4 0.89326492E-01 0.12499881E+03</pdfrwt>
<pdfrwt beam="1">  1       -4 0.10350105E-02 0.12499881E+03</pdfrwt>
<totfact> 0.49677293E+03</totfact>
</mgrwt>
</event>
<event>
 5    1  0.3196850E-002  0.1249940E+03  0.7818608E-02  0.1235079E+00
          4   -1    0    0  501    0  0.00000000000E+00  0.00000000000E+00  0.26849676517E+03  0.26849976873E+03  0.12700000000E+01 0.  1.
         -4   -1    0    0    0  501 -0.00000000000E+00 -0.00000000000E+00 -0.14516388934E+02  0.14571837485E+02  0.12700000000E+01 0.  1.
         25    2    1    2    0    0  0.00000000000E+00  0.00000000000E+00  0.25398037624E+03  0.28307160622E+03  0.12499401078E+03 0.  0.
    9000005    1    3    3    0    0 -0.31243635560E+02 -0.47019081589E+02  0.66310381273E+02  0.87092051653E+02  0.10000000000E+01 0.  0.
    9000005    1    3    3    0    0  0.31243635560E+02  0.47019081589E+02  0.18766999497E+03  0.19597955456E+03  0.10000000000E+01 0.  0.
<mgrwt>
<rscale>  0 0.12499401E+03</rscale>
<asrwt>0</asrwt>
<pdfrwt beam="1">  1        4 0.41311688E-01 0.12499401E+03</pdfrwt>
<pdfrwt beam="2">  1       -4 0.22377871E-02 0.12499401E+03</pdfrwt>
<totfact> 0.77782941E+03</totfact>
</mgrwt>
</event>
<event>
 5    1  0.3196850E-002  0.1249961E+03  0.7818608E-02  0.1235075E+00
         -4   -1    0    0    0  501 -0.00000000000E+00  0.00000000000E+00  0.81508268026E+02  0.81518161514E+02  0.12700000000E+01 0. -1.
          4   -1    0    0  501    0  0.00000000000E+00 -0.00000000000E+00 -0.47900410266E+02  0.47917243281E+02  0.12700000000E+01 0. -1.
         25    2    1    2    0    0  0.00000000000E+00  0.00000000000E+00  0.33607857760E+02  0.12943540480E+03  0.12499614359E+03 0.  0.
    9000005    1    3    3    0    0  0.56487804588E+02  0.25629688196E+02  0.24639433124E+02  0.66752188345E+02  0.10000000000E+01 0.  0.
    9000005    1    3    3    0    0 -0.56487804588E+02 -0.25629688196E+02  0.89684246361E+01  0.62683216451E+02  0.10000000000E+01 0.  0.
<mgrwt>
<rscale>  0 0.12499614E+03</rscale>
<asrwt>0</asrwt>
<pdfrwt beam="2">  1        4 0.73713498E-02 0.12499614E+03</pdfrwt>
<pdfrwt beam="1">  1       -4 0.12541789E-01 0.12499614E+03</pdfrwt>
<totfact> 0.10357502E+04</totfact>
</mgrwt>
</event>
<event>
 5    1  0.3196850E-002  0.1250010E+03  0.7818608E-02  0.1235068E+00
         -4   -1    0    0    0  501 -0.00000000000E+00  0.00000000000E+00  0.48907457378E+02  0.48923943905E+02  0.12700000000E+01 0. -1.
          4   -1    0    0  501    0  0.00000000000E+00 -0.00000000000E+00 -0.79836475297E+02  0.79846575931E+02  0.12700000000E+01 0. -1.
         25    2    1    2    0    0  0.00000000000E+00  0.00000000000E+00 -0.30929017919E+02  0.12877051984E+03  0.12500097051E+03 0.  0.
    9000005    1    3    3    0    0  0.27216353947E+02 -0.41664363265E+02 -0.54401980374E+02  0.73737538317E+02  0.10000000000E+01 0.  0.
    9000005    1    3    3    0    0 -0.27216353947E+02  0.41664363265E+02  0.23472962454E+02  0.55032981519E+02  0.10000000000E+01 0.  0.
<mgrwt>
<rscale>  0 0.12500097E+03</rscale>
<asrwt>0</asrwt>
<pdfrwt beam="2">  1        4 0.12284580E-01 0.12500097E+03</pdfrwt>
<pdfrwt beam="1">  1       -4 0.75262694E-02 0.12500097E+03</pdfrwt>
<totfact> 0.10370653E+04</totfact>
</mgrwt>
</event>
<event>
 5    1  0.3196850E-002  0.1250001E+03  0.7818608E-02  0.1235069E+00
         -4   -1    0    0    0  501 -0.00000000000E+00  0.00000000000E+00  0.26384823847E+02  0.26415371083E+02  0.12700000000E+01 0.  1.
          4   -1    0    0  501    0  0.00000000000E+00 -0.00000000000E+00 -0.14793042031E+03  0.14793587176E+03  0.12700000000E+01 0.  1.
         25    2    1    2    0    0  0.00000000000E+00  0.00000000000E+00 -0.12154559647E+03  0.17435124285E+03  0.12500009545E+03 0.  0.
    9000005    1    3    3    0    0  0.13513565762E+02 -0.60143652979E+02 -0.46454386209E+02  0.77193817442E+02  0.10000000000E+01 0.  0.
    9000005    1    3    3    0    0 -0.13513565762E+02  0.60143652979E+02 -0.75091210258E+02  0.97157425404E+02  0.10000000000E+01 0.  0.
<mgrwt>
<rscale>  0 0.12500010E+03</rscale>
<asrwt>0</asrwt>
<pdfrwt beam="2">  1        4 0.22761295E-01 0.12500010E+03</pdfrwt>
<pdfrwt beam="1">  1       -4 0.40619729E-02 0.12500010E+03</pdfrwt>
<totfact> 0.94643591E+03</totfact>
</mgrwt>
</event>
<event>
 5    1  0.3196850E-002  0.1249784E+03  0.7818608E-02  0.1235103E+00
          4   -1    0    0  501    0  0.00000000000E+00  0.00000000000E+00  0.19311872061E+02  0.19353586295E+02  0.12700000000E+01 0.  1.
         -4   -1    0    0    0  501 -0.00000000000E+00 -0.00000000000E+00 -0.20194015558E+03  0.20194414905E+03  0.12700000000E+01 0.  1.
         25    2    1    2    0    0  0.00000000000E+00  0.00000000000E+00 -0.18262828352E+03  0.22129773534E+03  0.12497838904E+03 0.  0.
    9000005    1    3    3    0    0  0.10882182157E+02  0.32662665529E+02 -0.18363863359E+03  0.18684062555E+03  0.10000000000E+01 0.  0.
    9000005    1    3    3    0    0 -0.10882182157E+02 -0.32662665529E+02  0.10103500763E+01  0.34457109793E+02  0.10000000000E+01 0.  0.
<mgrwt>
<rscale>  0 0.12497839E+03</rscale>
<asrwt>0</asrwt>
<pdfrwt beam="1">  1        4 0.29745734E-02 0.12497839E+03</pdfrwt>
<pdfrwt beam="2">  1       -4 0.31071231E-01 0.12497839E+03</pdfrwt>
<totfact> 0.86705259E+03</totfact>
</mgrwt>
</event>
<event>
 5    1  0.3196850E-002  0.1249984E+03  0.7818608E-02  0.1235072E+00
          4   -1    0    0  501    0  0.00000000000E+00  0.00000000000E+00  0.31449218829E+02  0.31474851310E+02  0.12700000000E+01 0. -1.
         -4   -1    0    0    0  501 -0.00000000000E+00 -0.00000000000E+00 -0.12412545936E+03  0.12413195624E+03  0.12700000000E+01 0. -1.
         25    2    1    2    0    0  0.00000000000E+00  0.00000000000E+00 -0.92676240528E+02  0.15560680755E+03  0.12499837198E+03 0.  0.
    9000005    1    3    3    0    0  0.20706812469E+02  0.27855690604E+02  0.18352487946E+02  0.39274997078E+02  0.10000000000E+01 0.  0.
    9000005    1    3    3    0    0 -0.20706812469E+02 -0.27855690604E+02 -0.11102872847E+03  0.11633181047E+03  0.10000000000E+01 0.  0.
<mgrwt>
<rscale>  0 0.12499837E+03</rscale>
<asrwt>0</asrwt>
<pdfrwt beam="1">  1        4 0.48408129E-02 0.12499837E+03</pdfrwt>
<pdfrwt beam="2">  1       -4 0.19098696E-01 0.12499837E+03</pdfrwt>
<totfact> 0.98200102E+03</totfact>
</mgrwt>
</event>
<event>
 5    1  0.3196850E-002  0.1249955E+03  0.7818608E-02  0.1235076E+00
          4   -1    0    0  501    0  0.00000000000E+00  0.00000000000E+00  0.16516564928E+02  0.16565319707E+02  0.12700000000E+01 0.  1.
         -4   -1    0    0    0  501 -0.00000000000E+00 -0.00000000000E+00 -0.23608901458E+03  0.23609243043E+03  0.12700000000E+01 0.  1.
         25    2    1    2    0    0  0.00000000000E+00  0.00000000000E+00 -0.21957244965E+03  0.25265775014E+03  0.12499551215E+03 0.  0.
    9000005    1    3    3    0    0 -0.55777063543E+02  0.44418084781E+01 -0.53545190740E+02  0.77452552775E+02  0.10000000000E+01 0.  0.
    9000005    1    3    3    0    0  0.55777063543E+02 -0.44418084781E+01 -0.16602725891E+03  0.17520519736E+03  0.10000000000E+01 0.  0.
<mgrwt>
<rscale>  0 0.12499551E+03</rscale>
<asrwt>0</asrwt>
<pdfrwt beam="1">  1        4 0.25450233E-02 0.12499551E+03</pdfrwt>
<pdfrwt beam="2">  1       -4 0.36325398E-01 0.12499551E+03</pdfrwt>
<totfact> 0.81955804E+03</totfact>
</mgrwt>
</event>
<event>
 5    1  0.3196850E-002  0.1250072E+03  0.7818608E-02  0.1235058E+00
         -4   -1    0    0    0  501 -0.00000000000E+00  0.00000000000E+00  0.61767624523E+02  0.61780679336E+02  0.12700000000E+01 0.  1.
          4   -1    0    0  501    0  0.00000000000E+00 -0.00000000000E+00 -0.63222218825E+02  0.63234973339E+02  0.12700000000E+01 0.  1.
         25    2    1    2    0    0  0.00000000000E+00  0.00000000000E+00 -0.14545943020E+01  0.12501565268E+03  0.12500719007E+03 0.  0.
    9000005    1    3    3    0    0  0.38679366230E+02  0.37016660401E+02 -0.32968785991E+02  0.62882965650E+02  0.10000000000E+01 0.  0.
    9000005    1    3    3    0    0 -0.38679366230E+02 -0.37016660401E+02  0.31514191689E+02  0.62132687026E+02  0.10000000000E+01 0.  0.
<mgrwt>
<rscale>  0 0.12500719E+03</rscale>
<asrwt>0</asrwt>
<pdfrwt beam="2">  1        4 0.97284806E-02 0.12500719E+03</pdfrwt>
<pdfrwt beam="1">  1       -4 0.95046967E-02 0.12500719E+03</pdfrwt>
<totfact> 0.10450824E+04</totfact>
</mgrwt>
</event>
<event>
 5    1  0.3196850E-002  0.1249981E+03  0.7818608E-02  0.1235072E+00
         -4   -1    0    0    0  501 -0.00000000000E+00  0.00000000000E+00  0.68432637991E+02  0.68444421558E+02  0.12700000000E+01 0.  1.
          4   -1    0    0  501    0  0.00000000000E+00 -0.00000000000E+00 -0.57056187884E+02  0.57070320446E+02  0.12700000000E+01 0.  1.
         25    2    1    2    0    0  0.00000000000E+00  0.00000000000E+00  0.11376450107E+02  0.12551474200E+03  0.12499810736E+03 0.  0.
    9000005    1    3    3    0    0  0.39751180571E+02 -0.12808412399E+02 -0.40989602751E+02  0.58526569340E+02  0.10000000000E+01 0.  0.
    9000005    1    3    3    0    0 -0.39751180571E+02  0.12808412399E+02  0.52366052858E+02  0.66988172664E+02  0.10000000000E+01 0.  0.
<mgrwt>
<rscale>  0 0.12499811E+03</rscale>
<asrwt>0</asrwt>
<pdfrwt beam="2">  1        4 0.87798687E-02 0.12499811E+03</pdfrwt>
<pdfrwt beam="1">  1       -4 0.10530092E-01 0.12499811E+03</pdfrwt>
<totfact> 0.10442074E+04</totfact>
</mgrwt>
</event>
<event>
 5    1  0.3196850E-002  0.1250074E+03  0.7818608E-02  0.1235058E+00
         -4   -1    0    0    0  501 -0.00000000000E+00  0.00000000000E+00  0.18856076203E+02  0.18898796517E+02  0.12700000000E+01 0. -1.
          4   -1    0    0  501    0  0.00000000000E+00 -0.00000000000E+00 -0.20690685978E+03  0.20691075739E+03  0.12700000000E+01 0. -1.
         25    2    1    2    0    0  0.00000000000E+00  0.00000000000E+00 -0.18805078357E+03  0.22580955390E+03  0.12500742951E+03 0.  0.
    9000005    1    3    3    0    0  0.39404755384E+02 -0.47723894026E+02 -0.78339122631E+02  0.99841489084E+02  0.10000000000E+01 0.  0.
    9000005    1    3    3    0    0 -0.39404755384E+02  0.47723894026E+02 -0.10971166094E+03  0.12596806482E+03  0.10000000000E+01 0.  0.
<mgrwt>
<rscale>  0 0.12500743E+03</rscale>
<asrwt>0</asrwt>
<pdfrwt beam="2">  1        4 0.31835409E-01 0.12500743E+03</pdfrwt>
<pdfrwt beam="1">  1       -4 0.29045209E-02 0.12500743E+03</pdfrwt>
<totfact> 0.85942974E+03</totfact>
</mgrwt>
</event>
<event>
 5    1  0.3196850E-002  0.1249967E+03  0.7818608E-02  0.1235074E+00
          4   -1    0    0  501    0  0.00000000000E+00  0.00000000000E+00  0.55662630979E+03  0.55662775861E+03  0.12700000000E+01 0.  1.
         -4   -1    0    0    0  501 -0.00000000000E+00 -0.00000000000E+00 -0.69584190400E+01  0.70733652200E+01  0.12700000000E+01 0.  1.
         25    2    1    2    0    0  0.00000000000E+00  0.00000000000E+00  0.54966789075E+03  0.56370112383E+03  0.12499666748E+03 0.  0.
    9000005    1    3    3    0    0 -0.47911640057E+02 -0.36216880790E+02  0.19700301998E+03  0.20595722271E+03  0.10000000000E+01 0.  0.
    9000005    1    3    3    0    0  0.47911640057E+02  0.36216880790E+02  0.35266487078E+03  0.35774390112E+03  0.10000000000E+01 0.  0.
<mgrwt>
<rscale>  0 0.12499667E+03</rscale>
<asrwt>0</asrwt>
<pdfrwt beam="1">  1        4 0.85643770E-01 0.12499667E+03</pdfrwt>
<pdfrwt beam="2">  1       -4 0.10794795E-02 0.12499667E+03</pdfrwt>
<totfact> 0.51245854E+03</totfact>
</mgrwt>
</event>
<event>
 5    1  0.3196850E-002  0.1250061E+03  0.7818608E-02  0.1235060E+00
         -4   -1    0    0    0  501 -0.00000000000E+00  0.00000000000E+00  0.64007985956E+01  0.65255745082E+01  0.12700000000E+01 0. -1.
          4   -1    0    0  501    0  0.00000000000E+00 -0.00000000000E+00 -0.60431855433E+03  0.60431988880E+03  0.12700000000E+01 0. -1.
         25    2    1    2    0    0  0.00000000000E+00  0.00000000000E+00 -0.59791775573E+03  0.61084546331E+03  0.12500614957E+03 0.  0.
    9000005    1    3    3    0    0  0.61277818538E+02  0.12272765565E+02 -0.29996671189E+03  0.30640923625E+03  0.10000000000E+01 0.  0.
    9000005    1    3    3    0    0 -0.61277818538E+02 -0.12272765565E+02 -0.29795104384E+03  0.30443622706E+03  0.10000000000E+01 0.  0.
<mgrwt>
<rscale>  0 0.12500615E+03</rscale>
<asrwt>0</asrwt>
<pdfrwt beam="2">  1        4 0.92981741E-01 0.12500615E+03</pdfrwt>
<pdfrwt beam="1">  1       -4 0.99443952E-03 0.12500615E+03</pdfrwt>
<totfact> 0.48183614E+03</totfact>
</mgrwt>
</event>
<event>
 5    1  0.3196850E-002  0.1250004E+03  0.7818608E-02  0.1235069E+00
         -4   -1    0    0    0  501 -0.00000000000E+00  0.00000000000E+00  0.27430975828E+03  0.27431269819E+03  0.12700000000E+01 0.  1.
          4   -1    0    0  501    0  0.00000000000E+00 -0.00000000000E+00 -0.14209034808E+02  0.14265678048E+02  0.12700000000E+01 0.  1.
         25    2    1    2    0    0  0.00000000000E+00  0.00000000000E+00  0.26010072347E+03  0.28857837624E+03  0.12500037152E+03 0.  0.
    9000005    1    3    3    0    0 -0.33948459905E+02  0.52445217778E+02  0.13353203533E+03  0.14742728125E+03  0.10000000000E+01 0.  0.
    9000005    1    3    3    0    0  0.33948459905E+02 -0.52445217778E+02  0.12656868814E+03  0.14115109499E+03  0.10000000000E+01 0.  0.
<mgrwt>
<rscale>  0 0.12500037E+03</rscale>
<asrwt>0</asrwt>
<pdfrwt beam="2">  1        4 0.21905886E-02 0.12500037E+03</pdfrwt>
<pdfrwt beam="1">  1       -4 0.42206086E-01 0.12500037E+03</pdfrwt>
<totfact> 0.77053614E+03</totfact>
</mgrwt>
</event>
<event>
 5    1  0.3196850E-002  0.1249992E+03  0.7818608E-02  0.1235070E+00
          4   -1    0    0  501    0  0.00000000000E+00  0.00000000000E+00  0.53107459513E+03  0.53107611365E+03  0.12700000000E+01 0. -1.
         -4   -1    0    0    0  501 -0.00000000000E+00 -0.00000000000E+00 -0.72989174382E+01  0.74085825750E+01  0.12700000000E+01 0. -1.
         25    2    1    2    0    0  0.00000000000E+00  0.00000000000E+00  0.52377567769E+03  0.53848469622E+03  0.12499923012E+03 0.  0.
    9000005    1    3    3    0    0 -0.56871362996E+02  0.24694214155E+02  0.22822941998E+03  0.23650332828E+03  0.10000000000E+01 0.  0.
    9000005    1    3    3    0    0  0.56871362996E+02 -0.24694214155E+02  0.29554625770E+03  0.30198136794E+03  0.10000000000E+01 0.  0.
<mgrwt>
<rscale>  0 0.12499923E+03</rscale>
<asrwt>0</asrwt>
<pdfrwt beam="1">  1        4 0.81712315E-01 0.12499923E+03</pdfrwt>
<pdfrwt beam="2">  1       -4 0.11314633E-02 0.12499923E+03</pdfrwt>
<totfact> 0.52998265E+03</totfact>
</mgrwt>
</event>
<event>
 5    1  0.3196850E-002  0.1250001E+03  0.7818608E-02  0.1235069E+00
          4   -1    0    0  501    0  0.00000000000E+00  0.00000000000E+00  0.11388502383E+04  0.11388509464E+04  0.12700000000E+01 0. -1.
         -4   -1    0    0    0  501 -0.00000000000E+00 -0.00000000000E+00 -0.33117075186E+01  0.35468728041E+01  0.12700000000E+01 0. -1.
         25    2    1    2    0    0  0.00000000000E+00  0.00000000000E+00  0.11355385307E+04  0.11423978192E+04  0.12500008997E+03 0.  0.
    9000005    1    3    3    0    0 -0.32568003648E+02 -0.31481880390E+02  0.17430975161E+03  0.18010184108E+03  0.10000000000E+01 0.  0.
    9000005    1    3    3    0    0  0.32568003648E+02  0.31481880390E+02  0.96122877913E+03  0.96229597811E+03  0.10000000000E+01 0.  0.
<mgrwt>
<rscale>  0 0.12500009E+03</rscale>
<asrwt>0</asrwt>
<pdfrwt beam="1">  1        4 0.17522558E+00 0.12500009E+03</pdfrwt>
<pdfrwt beam="2">  1       -4 0.52763845E-03 0.12500009E+03</pdfrwt>
<totfact> 0.26272110E+03</totfact>
</mgrwt>
</event>
<event>
 5    1  0.3196850E-002  0.1250015E+03  0.7818608E-02  0.1235067E+00
          4   -1    0    0  501    0  0.00000000000E+00  0.00000000000E+00  0.10595373340E+03  0.10596134447E+03  0.12700000000E+01 0. -1.
         -4   -1    0    0    0  501 -0.00000000000E+00 -0.00000000000E+00 -0.36848524962E+02  0.36870404011E+02  0.12700000000E+01 0. -1.
         25    2    1    2    0    0  0.00000000000E+00  0.00000000000E+00  0.69105208441E+02  0.14283174848E+03  0.12500151415E+03 0.  0.
    9000005    1    3    3    0    0  0.44899846966E+02  0.43162417880E+02  0.28686723249E+02  0.68577829257E+02  0.10000000000E+01 0.  0.
    9000005    1    3    3    0    0 -0.44899846966E+02 -0.43162417880E+02  0.40418485192E+02  0.74253919224E+02  0.10000000000E+01 0.  0.
<mgrwt>
<rscale>  0 0.12500151E+03</rscale>
<asrwt>0</asrwt>
<pdfrwt beam="1">  1        4 0.16302843E-01 0.12500151E+03</pdfrwt>
<pdfrwt beam="2">  1       -4 0.56712724E-02 0.12500151E+03</pdfrwt>
<totfact> 0.10074886E+04</totfact>
</mgrwt>
</event>
<event>
 5    1  0.3196850E-002  0.1249934E+03  0.7818608E-02  0.1235080E+00
         -4   -1    0    0    0  501 -0.00000000000E+00  0.00000000000E+00  0.34827690172E+03  0.34827921725E+03  0.12700000000E+01 0. -1.
          4   -1    0    0  501    0  0.00000000000E+00 -0.00000000000E+00 -0.11176438668E+02  0.11248363495E+02  0.12700000000E+01 0. -1.
         25    2    1    2    0    0  0.00000000000E+00  0.00000000000E+00  0.33710046305E+03  0.35952758075E+03  0.12499343635E+03 0.  0.
    9000005    1    3    3    0    0  0.51909411545E+02 -0.16815015711E+02  0.25615017819E+03  0.26189930422E+03  0.10000000000E+01 0.  0.
    9000005    1    3    3    0    0 -0.51909411545E+02  0.16815015711E+02  0.80950284855E+02  0.97628276531E+02  0.10000000000E+01 0.  0.
<mgrwt>
<rscale>  0 0.12499344E+03</rscale>
<asrwt>0</asrwt>
<pdfrwt beam="2">  1        4 0.17251631E-02 0.12499344E+03</pdfrwt>
<pdfrwt beam="1">  1       -4 0.53586767E-01 0.12499344E+03</pdfrwt>
<totfact> 0.68698944E+03</totfact>
</mgrwt>
</event>
<event>
 5    1  0.3196850E-002  0.1250009E+03  0.7818608E-02  0.1235068E+00
          4   -1    0    0  501    0  0.00000000000E+00  0.00000000000E+00  0.15457493963E+02  0.15509578319E+02  0.12700000000E+01 0.  1.
         -4   -1    0    0    0  501 -0.00000000000E+00 -0.00000000000E+00 -0.25223423200E+03  0.25223742921E+03  0.12700000000E+01 0.  1.
         25    2    1    2    0    0  0.00000000000E+00  0.00000000000E+00 -0.23677673804E+03  0.26774700753E+03  0.12500094545E+03 0.  0.
    9000005    1    3    3    0    0  0.18586587533E+02 -0.26019216066E+02 -0.23339482458E+03  0.23557717415E+03  0.10000000000E+01 0.  0.
    9000005    1    3    3    0    0 -0.18586587533E+02  0.26019216066E+02 -0.33819134615E+01  0.32169833377E+02  0.10000000000E+01 0.  0.
<mgrwt>
<rscale>  0 0.12500095E+03</rscale>
<asrwt>0</asrwt>
<pdfrwt beam="1">  1        4 0.23823286E-02 0.12500095E+03</pdfrwt>
<pdfrwt beam="2">  1       -4 0.38809516E-01 0.12500095E+03</pdfrwt>
<totfact> 0.79829345E+03</totfact>
</mgrwt>
</event>
<event>
 5    1  0.3196850E-002  0.1249980E+03  0.7818608E-02  0.1235072E+00
         -4   -1    0    0    0  501 -0.00000000000E+00  0.00000000000E+00  0.12178056509E+02  0.12244099001E+02  0.12700000000E+01 0. -1.
          4   -1    0    0  501    0  0.00000000000E+00 -0.00000000000E+00 -0.31981650169E+03  0.31981902329E+03  0.12700000000E+01 0. -1.
         25    2    1    2    0    0  0.00000000000E+00  0.00000000000E+00 -0.30763844519E+03  0.33206312229E+03  0.12499801690E+03 0.  0.
    9000005    1    3    3    0    0 -0.57075910722E+02 -0.22811478246E+02 -0.12386932724E+03  0.13828460997E+03  0.10000000000E+01 0.  0.
    9000005    1    3    3    0    0  0.57075910722E+02  0.22811478246E+02 -0.18376911794E+03  0.19377851231E+03  0.10000000000E+01 0.  0.
<mgrwt>
<rscale>  0 0.12499802E+03</rscale>
<asrwt>0</asrwt>
<pdfrwt beam="2">  1        4 0.49207807E-01 0.12499802E+03</pdfrwt>
<pdfrwt beam="1">  1       -4 0.18788216E-02 0.12499802E+03</pdfrwt>
<totfact> 0.71747135E+03</totfact>
</mgrwt>
</event>
<event>
 5    1  0.3196850E-002  0.1250036E+03  0.7818608E-02  0.1235064E+00
         -4   -1    0    0    0  501 -0.00000000000E+00  0.00000000000E+00  0.10819251795E+04  0.10819259248E+04  0.12700000000E+01 0.  1.
          4   -1    0    0  501    0  0.00000000000E+00 -0.00000000000E+00 -0.34982251758E+01  0.37216232185E+01  0.12700000000E+01 0.  1.
         25    2    1    2    0    0  0.00000000000E+00  0.00000000000E+00  0.10784269543E+04  0.10856475481E+04  0.12500361150E+03 0.  0.
    9000005    1    3    3    0    0  0.57281765956E+02  0.67542774238E+01  0.33029538286E+03  0.33529518475E+03  0.10000000000E+01 0.  0.
    9000005    1    3    3    0    0 -0.57281765956E+02 -0.67542774238E+01  0.74813157141E+03  0.75035236331E+03  0.10000000000E+01 0.  0.
<mgrwt>
<rscale>  0 0.12500361E+03</rscale>
<asrwt>0</asrwt>
<pdfrwt beam="2">  1        4 0.55543034E-03 0.12500361E+03</pdfrwt>
<pdfrwt beam="1">  1       -4 0.16646725E+00 0.12500361E+03</pdfrwt>
<totfact> 0.27905088E+03</totfact>
</mgrwt>
</event>
<event>
 5    1  0.3196850E-002  0.1250125E+03  0.7818608E-02  0.1235050E+00
         -4   -1    0    0    0  501 -0.00000000000E+00  0.00000000000E+00  0.56381254621E+02  0.56395556320E+02  0.12700000000E+01 0.  1.
          4   -1    0    0  501    0  0.00000000000E+00 -0.00000000000E+00 -0.69267700064E+02  0.69279341597E+02  0.12700000000E+01 0.  1.
         25    2    1    2    0    0  0.00000000000E+00  0.00000000000E+00 -0.12886445443E+02  0.12567489792E+03  0.12501247734E+03 0.  0.
    9000005    1    3    3    0    0  0.49901507110E+02 -0.90541122378E+01 -0.43159242650E+02  0.66602234095E+02  0.10000000000E+01 0.  0.
    9000005    1    3    3    0    0 -0.49901507110E+02  0.90541122378E+01  0.30272797207E+02  0.59072663822E+02  0.10000000000E+01 0.  0.
<mgrwt>
<rscale>  0 0.12501248E+03</rscale>
<asrwt>0</asrwt>
<pdfrwt beam="2">  1        4 0.10658565E-01 0.12501248E+03</pdfrwt>
<pdfrwt beam="1">  1       -4 0.86760348E-02 0.12501248E+03</pdfrwt>
<totfact> 0.10435159E+04</totfact>
</mgrwt>
</event>
<event>
 5    1  0.3196850E-002  0.1250150E+03  0.7818608E-02  0.1235046E+00
         -4   -1    0    0    0  501 -0.00000000000E+00  0.00000000000E+00  0.33398683779E+03  0.33398925240E+03  0.12700000000E+01 0.  1.
          4   -1    0    0  501    0  0.00000000000E+00 -0.00000000000E+00 -0.11661687749E+02  0.11730637713E+02  0.12700000000E+01 0.  1.
         25    2    1    2    0    0  0.00000000000E+00  0.00000000000E+00  0.32232515004E+03  0.34571989011E+03  0.12501495938E+03 0.  0.
    9000005    1    3    3    0    0 -0.32166685364E+01  0.53930629220E+02  0.24805712003E+03  0.25387436759E+03  0.10000000000E+01 0.  0.
    9000005    1    3    3    0    0  0.32166685364E+01 -0.53930629220E+02  0.74268030013E+02  0.91845522518E+02  0.10000000000E+01 0.  0.
<mgrwt>
<rscale>  0 0.12501496E+03</rscale>
<asrwt>0</asrwt>
<pdfrwt beam="2">  1        4 0.17995953E-02 0.12501496E+03</pdfrwt>
<pdfrwt beam="1">  1       -4 0.51388084E-01 0.12501496E+03</pdfrwt>
<totfact> 0.70174757E+03</totfact>
</mgrwt>
</event>
<event>
 5    1  0.3196850E-002  0.1250002E+03  0.7818608E-02  0.1235069E+00
         -4   -1    0    0    0  501 -0.00000000000E+00  0.00000000000E+00  0.38192037416E+03  0.38192248572E+03  0.12700000000E+01 0.  1.
          4   -1    0    0  501    0  0.00000000000E+00 -0.00000000000E+00 -0.10186379271E+02  0.10265243429E+02  0.12700000000E+01 0.  1.
         25    2    1    2    0    0  0.00000000000E+00  0.00000000000E+00  0.37173399489E+03  0.39218772915E+03  0.12500020775E+03 0.  0.
    9000005    1    3    3    0    0 -0.61927386466E+02  0.80717410457E+01  0.17877543143E+03  0.18937214442E+03  0.10000000000E+01 0.  0.
    9000005    1    3    3    0    0  0.61927386466E+02 -0.80717410457E+01  0.19295856346E+03  0.20281558473E+03  0.10000000000E+01 0.  0.
<mgrwt>
<rscale>  0 0.12500021E+03</rscale>
<asrwt>0</asrwt>
<pdfrwt beam="2">  1        4 0.15733642E-02 0.12500021E+03</pdfrwt>
<pdfrwt beam="1">  1       -4 0.58763209E-01 0.12500021E+03</pdfrwt>
<totfact> 0.65319459E+03</totfact>
</mgrwt>
</event>
<event>
 5    1  0.3196850E-002  0.1249975E+03  0.7818608E-02  0.1235073E+00
         -4   -1    0    0    0  501 -0.00000000000E+00  0.00000000000E+00  0.14944889202E+04  0.14944894598E+04  0.12700000000E+01 0.  1.
          4   -1    0    0  501    0  0.00000000000E+00 -0.00000000000E+00 -0.24588191977E+01  0.27674341631E+01  0.12700000000E+01 0.  1.
         25    2    1    2    0    0  0.00000000000E+00  0.00000000000E+00  0.14920301010E+04  0.14972568940E+04  0.12499753706E+03 0.  0.
    9000005    1    3    3    0    0 -0.39804117725E+02 -0.37003679957E+02  0.37653651914E+03  0.38043973289E+03  0.10000000000E+01 0.  0.
    9000005    1    3    3    0    0  0.39804117725E+02  0.37003679957E+02  0.11154935818E+04  0.11168171611E+04  0.10000000000E+01 0.  0.
<mgrwt>
<rscale>  0 0.12499754E+03</rscale>
<asrwt>0</asrwt>
<pdfrwt beam="2">  1        4 0.40206205E-03 0.12499754E+03</pdfrwt>
<pdfrwt beam="1">  1       -4 0.22994455E+00 0.12499754E+03</pdfrwt>
<totfact> 0.17985484E+03</totfact>
</mgrwt>
</event>
<event>
 5    1  0.3196850E-002  0.1249996E+03  0.7818608E-02  0.1235070E+00
          4   -1    0    0  501    0  0.00000000000E+00  0.00000000000E+00  0.13270809141E+02  0.13331439354E+02  0.12700000000E+01 0. -1.
         -4   -1    0    0    0  501 -0.00000000000E+00 -0.00000000000E+00 -0.29361443280E+03  0.29361717942E+03  0.12700000000E+01 0. -1.
         25    2    1    2    0    0  0.00000000000E+00  0.00000000000E+00 -0.28034362366E+03  0.30694861877E+03  0.12499962896E+03 0.  0.
    9000005    1    3    3    0    0 -0.44495671878E+02 -0.24665289218E+02 -0.22928612343E+03  0.23486457312E+03  0.10000000000E+01 0.  0.
    9000005    1    3    3    0    0  0.44495671878E+02  0.24665289218E+02 -0.51057500230E+02  0.72084045654E+02  0.10000000000E+01 0.  0.
<mgrwt>
<rscale>  0 0.12499963E+03</rscale>
<asrwt>0</asrwt>
<pdfrwt beam="1">  1        4 0.20465383E-02 0.12499963E+03</pdfrwt>
<pdfrwt beam="2">  1       -4 0.45176322E-01 0.12499963E+03</pdfrwt>
<totfact> 0.74736020E+03</totfact>
</mgrwt>
</event>
<event>
 5    1  0.3196850E-002  0.1249951E+03  0.7818608E-02  0.1235077E+00
          4   -1    0    0  501    0  0.00000000000E+00  0.00000000000E+00  0.26182903023E+03  0.26183211028E+03  0.12700000000E+01 0. -1.
         -4   -1    0    0    0  501 -0.00000000000E+00 -0.00000000000E+00 -0.14887710423E+02  0.14941781073E+02  0.12700000000E+01 0. -1.
         25    2    1    2    0    0  0.00000000000E+00  0.00000000000E+00  0.24694131981E+03  0.27677389135E+03  0.12499508592E+03 0.  0.
    9000005    1    3    3    0    0 -0.43074142209E+01  0.58116656659E+02  0.73521958567E+02  0.93822054923E+02  0.10000000000E+01 0.  0.
    9000005    1    3    3    0    0  0.43074142209E+01 -0.58116656659E+02  0.17341936124E+03  0.18295183643E+03  0.10000000000E+01 0.  0.
<mgrwt>
<rscale>  0 0.12499509E+03</rscale>
<asrwt>0</asrwt>
<pdfrwt beam="1">  1        4 0.40285789E-01 0.12499509E+03</pdfrwt>
<pdfrwt beam="2">  1       -4 0.22948130E-02 0.12499509E+03</pdfrwt>
<totfact> 0.78616402E+03</totfact>
</mgrwt>
</event>
<event>
 5    1  0.3196850E-002  0.1250015E+03  0.7818608E-02  0.1235067E+00
          4   -1    0    0  501    0  0.00000000000E+00  0.00000000000E+00  0.55101159735E+03  0.55101306093E+03  0.12700000000E+01 0. -1.
         -4   -1    0    0    0  501 -0.00000000000E+00 -0.00000000000E+00 -0.70310438647E+01  0.71448217492E+01  0.12700000000E+01 0. -1.
         25    2    1    2    0    0  0.00000000000E+00  0.00000000000E+00  0.54398055348E+03  0.55815788268E+03  0.12500151769E+03 0.  0.
    9000005    1    3    3    0    0 -0.52945177234E+02 -0.80148937737E+01  0.41584448626E+03  0.41927922327E+03  0.10000000000E+01 0.  0.
    9000005    1    3    3    0    0  0.52945177234E+02  0.80148937737E+01  0.12813606723E+03  0.13887865941E+03  0.10000000000E+01 0.  0.
<mgrwt>
<rscale>  0 0.12500152E+03</rscale>
<asrwt>0</asrwt>
<pdfrwt beam="1">  1        4 0.84779885E-01 0.12500152E+03</pdfrwt>
<pdfrwt beam="2">  1       -4 0.10905637E-02 0.12500152E+03</pdfrwt>
<totfact> 0.51618289E+03</totfact>
</mgrwt>
</event>
<event>
 5    1  0.3196850E-002  0.1250013E+03  0.7818608E-02  0.1235067E+00
         -4   -1    0    0    0  501 -0.00000000000E+00  0.00000000000E+00  0.83735027666E+02  0.83744658088E+02  0.12700000000E+01 0.  1.
          4   -1    0    0  501    0  0.00000000000E+00 -0.00000000000E+00 -0.46630143473E+02  0.46647434874E+02  0.12700000000E+01 0.  1.
         25    2    1    2    0    0  0.00000000000E+00  0.00000000000E+00  0.37104884193E+02  0.13039209296E+03  0.12500130190E+03 0.  0.
    9000005    1    3    3    0    0  0.56707430954E+02  0.17497564040E+01 -0.87793867745E+01  0.57418394309E+02  0.10000000000E+01 0.  0.
    9000005    1    3    3    0    0 -0.56707430954E+02 -0.17497564040E+01  0.45884270968E+02  0.72973698653E+02  0.10000000000E+01 0.  0.
<mgrwt>
<rscale>  0 0.12500130E+03</rscale>
<asrwt>0</asrwt>
<pdfrwt beam="2">  1        4 0.71759391E-02 0.12500130E+03</pdfrwt>
<pdfrwt beam="1">  1       -4 0.12884383E-01 0.12500130E+03</pdfrwt>
<totfact> 0.10335823E+04</totfact>
</mgrwt>
</event>
<event>
 5    1  0.3196850E-002  0.1250017E+03  0.7818608E-02  0.1235067E+00
          4   -1    0    0  501    0  0.00000000000E+00  0.00000000000E+00  0.65292732336E+03  0.65292855849E+03  0.12700000000E+01 0. -1.
         -4   -1    0    0    0  501 -0.00000000000E+00 -0.00000000000E+00 -0.59141859909E+01  0.60490078472E+01  0.12700000000E+01 0. -1.
         25    2    1    2    0    0  0.00000000000E+00  0.00000000000E+00  0.64701313737E+03  0.65897756634E+03  0.12500173201E+03 0.  0.
    9000005    1    3    3    0    0  0.42270952807E+02  0.12321744066E+02  0.55729531105E+03  0.55903284568E+03  0.10000000000E+01 0.  0.
    9000005    1    3    3    0    0 -0.42270952807E+02 -0.12321744066E+02  0.89717826320E+02  0.99944720659E+02  0.10000000000E+01 0.  0.
<mgrwt>
<rscale>  0 0.12500173E+03</rscale>
<asrwt>0</asrwt>
<pdfrwt beam="1">  1        4 0.10046084E+00 0.12500173E+03</pdfrwt>
<pdfrwt beam="2">  1       -4 0.92034055E-03 0.12500173E+03</pdfrwt>
<totfact> 0.45340560E+03</totfact>
</mgrwt>
</event>
<event>
 5    1  0.3196850E-002  0.1250037E+03  0.7818608E-02  0.1235063E+00
         -4   -1    0    0    0  501 -0.00000000000E+00  0.00000000000E+00  0.16207470194E+03  0.16207967765E+03  0.12700000000E+01 0. -1.
          4   -1    0    0  501    0  0.00000000000E+00 -0.00000000000E+00 -0.24080904128E+02  0.24114370065E+02  0.12700000000E+01 0. -1.
         25    2    1    2    0    0  0.00000000000E+00  0.00000000000E+00  0.13799379781E+03  0.18619404772E+03  0.12500374063E+03 0.  0.
    9000005    1    3    3    0    0 -0.43089252306E+01  0.11147336615E+02 -0.22370217193E+02  0.25382209665E+02  0.10000000000E+01 0.  0.
    9000005    1    3    3    0    0  0.43089252306E+01 -0.11147336615E+02  0.16036401500E+03  0.16081183805E+03  0.10000000000E+01 0.  0.
<mgrwt>
<rscale>  0 0.12500374E+03</rscale>
<asrwt>0</asrwt>
<pdfrwt beam="2">  1        4 0.37077115E-02 0.12500374E+03</pdfrwt>
<pdfrwt beam="1">  1       -4 0.24937527E-01 0.12500374E+03</pdfrwt>
<totfact> 0.92506032E+03</totfact>
</mgrwt>
</event>
<event>
 5    1  0.3196850E-002  0.1249985E+03  0.7818608E-02  0.1235072E+00
          4   -1    0    0  501    0  0.00000000000E+00  0.00000000000E+00  0.22765113228E+02  0.22800510527E+02  0.12700000000E+01 0.  1.
         -4   -1    0    0    0  501 -0.00000000000E+00 -0.00000000000E+00 -0.17141402956E+03  0.17141873418E+03  0.12700000000E+01 0.  1.
         25    2    1    2    0    0  0.00000000000E+00  0.00000000000E+00 -0.14864891633E+03  0.19421924471E+03  0.12499845875E+03 0.  0.
    9000005    1    3    3    0    0  0.52772669374E+02  0.55392934124E+01 -0.12561110000E+03  0.13636270329E+03  0.10000000000E+01 0.  0.
    9000005    1    3    3    0    0 -0.52772669374E+02 -0.55392934124E+01 -0.23037816328E+02  0.57856541424E+02  0.10000000000E+01 0.  0.
<mgrwt>
<rscale>  0 0.12499846E+03</rscale>
<asrwt>0</asrwt>
<pdfrwt beam="1">  1        4 0.35054100E-02 0.12499846E+03</pdfrwt>
<pdfrwt beam="2">  1       -4 0.26374473E-01 0.12499846E+03</pdfrwt>
<totfact> 0.91121464E+03</totfact>
</mgrwt>
</event>
<event>
 5    1  0.3196850E-002  0.1249994E+03  0.7818608E-02  0.1235070E+00
          4   -1    0    0  501    0  0.00000000000E+00  0.00000000000E+00  0.49771202411E+03  0.49771364443E+03  0.12700000000E+01 0.  1.
         -4   -1    0    0    0  501 -0.00000000000E+00 -0.00000000000E+00 -0.77953163764E+01  0.78980920106E+01  0.12700000000E+01 0.  1.
         25    2    1    2    0    0  0.00000000000E+00  0.00000000000E+00  0.48991670774E+03  0.50561173644E+03  0.12499939001E+03 0.  0.
    9000005    1    3    3    0    0 -0.57129105146E+02 -0.11238066746E+02  0.15314834130E+03  0.16384579105E+03  0.10000000000E+01 0.  0.
    9000005    1    3    3    0    0  0.57129105146E+02  0.11238066746E+02  0.33676836643E+03  0.34176594539E+03  0.10000000000E+01 0.  0.
<mgrwt>
<rscale>  0 0.12499939E+03</rscale>
<asrwt>0</asrwt>
<pdfrwt beam="1">  1        4 0.76579095E-01 0.12499939E+03</pdfrwt>
<pdfrwt beam="2">  1       -4 0.12073102E-02 0.12499939E+03</pdfrwt>
<totfact> 0.55432329E+03</totfact>
</mgrwt>
</event>
<event>
 5    1  0.3196850E-002  0.1249997E+03  0.7818608E-02  0.1235070E+00
          4   -1    0    0  501    0  0.00000000000E+00  0.00000000000E+00  0.11693331677E+04  0.11693338574E+04  0.12700000000E+01 0. -1.
         -4   -1    0    0    0  501 -0.00000000000E+00 -0.00000000000E+00 -0.32191392697E+01  0.34606007626E+01  0.12700000000E+01 0. -1.
         25    2    1    2    0    0  0.00000000000E+00  0.00000000000E+00  0.11661140284E+04  0.11727944581E+04  0.12499965486E+03 0.  0.
    9000005    1    3    3    0    0 -0.26925282986E+02 -0.39633456102E+02  0.20665547247E+03  0.21213973227E+03  0.10000000000E+01 0.  0.
    9000005    1    3    3    0    0  0.26925282986E+02  0.39633456102E+02  0.95945855597E+03  0.96065472586E+03  0.10000000000E+01 0.  0.
<mgrwt>
<rscale>  0 0.12499965E+03</rscale>
<asrwt>0</asrwt>
<pdfrwt beam="1">  1        4 0.17991637E+00 0.12499965E+03</pdfrwt>
<pdfrwt beam="2">  1       -4 0.51387826E-03 0.12499965E+03</pdfrwt>
<totfact> 0.25436298E+03</totfact>
</mgrwt>
</event>
<event>
 5    1  0.3196850E-002  0.1250071E+03  0.7818608E-02  0.1235058E+00
          4   -1    0    0  501    0  0.00000000000E+00  0.00000000000E+00  0.62957601526E+01  0.64225770450E+01  0.12700000000E+01 0. -1.
         -4   -1    0    0    0  501 -0.00000000000E+00 -0.00000000000E+00 -0.61421267783E+03  0.61421399081E+03  0.12700000000E+01 0. -1.
         25    2    1    2    0    0  0.00000000000E+00  0.00000000000E+00 -0.60791691768E+03  0.62063656785E+03  0.12500708204E+03 0.  0.
    9000005    1    3    3    0    0 -0.45344106837E+02  0.33624600363E+02 -0.43708493280E+03  0.44071639436E+03  0.10000000000E+01 0.  0.
    9000005    1    3    3    0    0  0.45344106837E+02 -0.33624600363E+02 -0.17083198488E+03  0.17992017350E+03  0.10000000000E+01 0.  0.
<mgrwt>
<rscale>  0 0.12500708E+03</rscale>
<asrwt>0</asrwt>
<pdfrwt beam="1">  1        4 0.97843511E-03 0.12500708E+03</pdfrwt>
<pdfrwt beam="2">  1       -4 0.94504068E-01 0.12500708E+03</pdfrwt>
<totfact> 0.47582985E+03</totfact>
</mgrwt>
</event>
<event>
 5    1  0.3196850E-002  0.1250008E+03  0.7818608E-02  0.1235068E+00
         -4   -1    0    0    0  501 -0.00000000000E+00  0.00000000000E+00  0.12620693629E+03  0.12621332603E+03  0.12700000000E+01 0.  1.
          4   -1    0    0  501    0  0.00000000000E+00 -0.00000000000E+00 -0.30931355043E+02  0.30957416313E+02  0.12700000000E+01 0.  1.
         25    2    1    2    0    0  0.00000000000E+00  0.00000000000E+00  0.95275581242E+02  0.15717074234E+03  0.12500082346E+03 0.  0.
    9000005    1    3    3    0    0 -0.39501369091E+02 -0.35760425859E+02  0.65828922320E+01  0.53698237288E+02  0.10000000000E+01 0.  0.
    9000005    1    3    3    0    0  0.39501369091E+02  0.35760425859E+02  0.88692689010E+02  0.10347250505E+03  0.10000000000E+01 0.  0.
<mgrwt>
<rscale>  0 0.12500082E+03</rscale>
<asrwt>0</asrwt>
<pdfrwt beam="2">  1        4 0.47611663E-02 0.12500082E+03</pdfrwt>
<pdfrwt beam="1">  1       -4 0.19418948E-01 0.12500082E+03</pdfrwt>
<totfact> 0.97889220E+03</totfact>
</mgrwt>
</event>
<event>
 5    1  0.3196850E-002  0.1249962E+03  0.7818608E-02  0.1235075E+00
          4   -1    0    0  501    0  0.00000000000E+00  0.00000000000E+00  0.54790576630E+02  0.54805293426E+02  0.12700000000E+01 0. -1.
         -4   -1    0    0    0  501 -0.00000000000E+00 -0.00000000000E+00 -0.71259878724E+02  0.71271194853E+02  0.12700000000E+01 0. -1.
         25    2    1    2    0    0  0.00000000000E+00  0.00000000000E+00 -0.16469302093E+02  0.12607648828E+03  0.12499617188E+03 0.  0.
    9000005    1    3    3    0    0 -0.20779372979E+02 -0.39178536743E+02  0.36171650349E+02  0.57237473492E+02  0.10000000000E+01 0.  0.
    9000005    1    3    3    0    0  0.20779372979E+02  0.39178536743E+02 -0.52640952442E+02  0.68839014787E+02  0.10000000000E+01 0.  0.
<mgrwt>
<rscale>  0 0.12499617E+03</rscale>
<asrwt>0</asrwt>
<pdfrwt beam="1">  1        4 0.84313220E-02 0.12499617E+03</pdfrwt>
<pdfrwt beam="2">  1       -4 0.10965061E-01 0.12499617E+03</pdfrwt>
<totfact> 0.10430182E+04</totfact>
</mgrwt>
</event>
<event>
 5    1  0.3196850E-002  0.1250134E+03  0.7818608E-02  0.1235048E+00
          4   -1    0    0  501    0  0.00000000000E+00  0.00000000000E+00  0.30069961249E+02  0.30096768423E+02  0.12700000000E+01 0. -1.
         -4   -1    0    0    0  501 -0.00000000000E+00 -0.00000000000E+00 -0.12984537860E+03  0.12985158930E+03  0.12700000000E+01 0. -1.
         25    2    1    2    0    0  0.00000000000E+00  0.00000000000E+00 -0.99775417349E+02  0.15994835772E+03  0.12501337221E+03 0.  0.
    9000005    1    3    3    0    0  0.47960470975E+02 -0.36701404917E+02 -0.70473971871E+02  0.92815842454E+02  0.10000000000E+01 0.  0.
    9000005    1    3    3    0    0 -0.47960470975E+02  0.36701404917E+02 -0.29301445478E+02  0.67132515268E+02  0.10000000000E+01 0.  0.
<mgrwt>
<rscale>  0 0.12501337E+03</rscale>
<asrwt>0</asrwt>
<pdfrwt beam="1">  1        4 0.46286878E-02 0.12501337E+03</pdfrwt>
<pdfrwt beam="2">  1       -4 0.19978752E-01 0.12501337E+03</pdfrwt>
<totfact> 0.97323486E+03</totfact>
</mgrwt>
</event>
<event>
 5    1  0.3196850E-002  0.1250147E+03  0.7818608E-02  0.1235046E+00
          4   -1    0    0  501    0  0.00000000000E+00  0.00000000000E+00  0.58126845393E+02  0.58140717706E+02  0.12700000000E+01 0.  1.
         -4   -1    0    0    0  501 -0.00000000000E+00 -0.00000000000E+00 -0.67190101141E+02  0.67202102582E+02  0.12700000000E+01 0.  1.
         25    2    1    2    0    0  0.00000000000E+00  0.00000000000E+00 -0.90632557485E+01  0.12534282029E+03  0.12501471910E+03 0.  0.
    9000005    1    3    3    0    0 -0.50279998603E+02  0.29949072053E+02  0.17460954182E+02  0.61081176293E+02  0.10000000000E+01 0.  0.
    9000005    1    3    3    0    0  0.50279998603E+02 -0.29949072053E+02 -0.26524209930E+02  0.64261643994E+02  0.10000000000E+01 0.  0.
<mgrwt>
<rscale>  0 0.12501472E+03</rscale>
<asrwt>0</asrwt>
<pdfrwt beam="1">  1        4 0.89445819E-02 0.12501472E+03</pdfrwt>
<pdfrwt beam="2">  1       -4 0.10338929E-01 0.12501472E+03</pdfrwt>
<totfact> 0.10441947E+04</totfact>
</mgrwt>
</event>
<event>
 5    1  0.3196850E-002  0.1250014E+03  0.7818608E-02  0.1235067E+00
          4   -1    0    0  501    0  0.00000000000E+00  0.00000000000E+00  0.21172192546E+03  0.21172573443E+03  0.12700000000E+01 0.  1.
         -4   -1    0    0    0  501 -0.00000000000E+00 -0.00000000000E+00 -0.18424484903E+02  0.18468203592E+02  0.12700000000E+01 0.  1.
         25    2    1    2    0    0  0.00000000000E+00  0.00000000000E+00  0.19329744056E+03  0.23019393802E+03  0.12500139430E+03 0.  0.
    9000005    1    3    3    0    0 -0.29883901171E+02  0.54614776812E+02  0.86643977484E+02  0.10669583042E+03  0.10000000000E+01 0.  0.
    9000005    1    3    3    0    0  0.29883901171E+02 -0.54614776812E+02  0.10665346307E+03  0.12349810760E+03  0.10000000000E+01 0.  0.
<mgrwt>
<rscale>  0 0.12500139E+03</rscale>
<asrwt>0</asrwt>
<pdfrwt beam="1">  1        4 0.32576258E-01 0.12500139E+03</pdfrwt>
<pdfrwt beam="2">  1       -4 0.28381923E-02 0.12500139E+03</pdfrwt>
<totfact> 0.85277175E+03</totfact>
</mgrwt>
</event>
<event>
 5    1  0.3196850E-002  0.1249988E+03  0.7818608E-02  0.1235071E+00
         -4   -1    0    0    0  501 -0.00000000000E+00  0.00000000000E+00  0.93905188677E+01  0.94760088964E+01  0.12700000000E+01 0. -1.
          4   -1    0    0  501    0  0.00000000000E+00 -0.00000000000E+00 -0.41399853850E+03  0.41400048645E+03  0.12700000000E+01 0. -1.
         25    2    1    2    0    0  0.00000000000E+00  0.00000000000E+00 -0.40460801963E+03  0.42347649535E+03  0.12499877023E+03 0.  0.
    9000005    1    3    3    0    0 -0.14667538509E+01  0.62376384540E+02 -0.21414132971E+03  0.22304814235E+03  0.10000000000E+01 0.  0.
    9000005    1    3    3    0    0  0.14667538509E+01 -0.62376384540E+02 -0.19046668992E+03  0.20042835300E+03  0.10000000000E+01 0.  0.
<mgrwt>
<rscale>  0 0.12499877E+03</rscale>
<asrwt>0</asrwt>
<pdfrwt beam="2">  1        4 0.63698795E-01 0.12499877E+03</pdfrwt>
<pdfrwt beam="1">  1       -4 0.14514215E-02 0.12499877E+03</pdfrwt>
<totfact> 0.62333488E+03</totfact>
</mgrwt>
</event>
<event>
 5    1  0.3196850E-002  0.1249925E+03  0.7818608E-02  0.1235081E+00
          4   -1    0    0  501    0  0.00000000000E+00  0.00000000000E+00  0.74521048422E+02  0.74531869412E+02  0.12700000000E+01 0.  1.
         -4   -1    0    0    0  501 -0.00000000000E+00 -0.00000000000E+00 -0.52389479314E+02  0.52404870411E+02  0.12700000000E+01 0.  1.
         25    2    1    2    0    0  0.00000000000E+00  0.00000000000E+00  0.22131569108E+02  0.12693673982E+03  0.12499251804E+03 0.  0.
    9000005    1    3    3    0    0 -0.69859060857E+01 -0.25161422506E+01  0.74076420568E+02  0.74454348025E+02  0.10000000000E+01 0.  0.
    9000005    1    3    3    0    0  0.69859060857E+01  0.25161422506E+01 -0.51944851460E+02  0.52482391798E+02  0.10000000000E+01 0.  0.
<mgrwt>
<rscale>  0 0.12499252E+03</rscale>
<asrwt>0</asrwt>
<pdfrwt beam="1">  1        4 0.11466793E-01 0.12499252E+03</pdfrwt>
<pdfrwt beam="2">  1       -4 0.80619363E-02 0.12499252E+03</pdfrwt>
<totfact> 0.10412279E+04</totfact>
</mgrwt>
</event>
<event>
 5    1  0.3196850E-002  0.1250023E+03  0.7818608E-02  0.1235066E+00
          4   -1    0    0  501    0  0.00000000000E+00  0.00000000000E+00  0.40922956386E+02  0.40942658186E+02  0.12700000000E+01 0.  1.
         -4   -1    0    0    0  501 -0.00000000000E+00 -0.00000000000E+00 -0.95410359011E+02  0.95418811073E+02  0.12700000000E+01 0.  1.
         25    2    1    2    0    0  0.00000000000E+00  0.00000000000E+00 -0.54487402625E+02  0.13636146926E+03  0.12500229299E+03 0.  0.
    9000005    1    3    3    0    0 -0.14370074394E+02 -0.33322143088E+02  0.28257222812E+02  0.46003640064E+02  0.10000000000E+01 0.  0.
    9000005    1    3    3    0    0  0.14370074394E+02  0.33322143088E+02 -0.82744625437E+02  0.90357829195E+02  0.10000000000E+01 0.  0.
<mgrwt>
<rscale>  0 0.12500229E+03</rscale>
<asrwt>0</asrwt>
<pdfrwt beam="1">  1        4 0.62980052E-02 0.12500229E+03</pdfrwt>
<pdfrwt beam="2">  1       -4 0.14680682E-01 0.12500229E+03</pdfrwt>
<totfact> 0.10208926E+04</totfact>
</mgrwt>
</event>
<event>
 5    1  0.3196850E-002  0.1250011E+03  0.7818608E-02  0.1235068E+00
         -4   -1    0    0    0  501 -0.00000000000E+00  0.00000000000E+00  0.86986069120E+01  0.87908283006E+01  0.12700000000E+01 0.  1.
          4   -1    0    0  501    0  0.00000000000E+00 -0.00000000000E+00 -0.44661264499E+03  0.44661445069E+03  0.12700000000E+01 0.  1.
         25    2    1    2    0    0  0.00000000000E+00  0.00000000000E+00 -0.43791403808E+03  0.45540527899E+03  0.12500105354E+03 0.  0.
    9000005    1    3    3    0    0 -0.13207628736E+02  0.17588529920E+02 -0.58519392721E+01  0.22782515990E+02  0.10000000000E+01 0.  0.
    9000005    1    3    3    0    0  0.13207628736E+02 -0.17588529920E+02 -0.43206209880E+03  0.43262276300E+03  0.10000000000E+01 0.  0.
<mgrwt>
<rscale>  0 0.12500105E+03</rscale>
<asrwt>0</asrwt>
<pdfrwt beam="2">  1        4 0.68716853E-01 0.12500105E+03</pdfrwt>
<pdfrwt beam="1">  1       -4 0.13454804E-02 0.12500105E+03</pdfrwt>
<totfact> 0.59497007E+03</totfact>
</mgrwt>
</event>
<event>
 5    1  0.3196850E-002  0.1250015E+03  0.7818608E-02  0.1235067E+00
          4   -1    0    0  501    0  0.00000000000E+00  0.00000000000E+00  0.19405335503E+02  0.19446849256E+02  0.12700000000E+01 0.  1.
         -4   -1    0    0    0  501 -0.00000000000E+00 -0.00000000000E+00 -0.20104391545E+03  0.20104792672E+03  0.12700000000E+01 0.  1.
         25    2    1    2    0    0  0.00000000000E+00  0.00000000000E+00 -0.18163857994E+03  0.22049477598E+03  0.12500149002E+03 0.  0.
    9000005    1    3    3    0    0 -0.39901217970E+02  0.40335280431E+02 -0.13702976757E+03  0.14831452810E+03  0.10000000000E+01 0.  0.
    9000005    1    3    3    0    0  0.39901217970E+02 -0.40335280431E+02 -0.44608812371E+02  0.72180247880E+02  0.10000000000E+01 0.  0.
<mgrwt>
<rscale>  0 0.12500149E+03</rscale>
<asrwt>0</asrwt>
<pdfrwt beam="1">  1        4 0.29889383E-02 0.12500149E+03</pdfrwt>
<pdfrwt beam="2">  1       -4 0.30933334E-01 0.12500149E+03</pdfrwt>
<totfact> 0.86787231E+03</totfact>
</mgrwt>
</event>
<event>
 5    1  0.3196850E-002  0.1250011E+03  0.7818608E-02  0.1235068E+00
         -4   -1    0    0    0  501 -0.00000000000E+00  0.00000000000E+00  0.21632732022E+03  0.21633104810E+03  0.12700000000E+01 0. -1.
          4   -1    0    0  501    0  0.00000000000E+00 -0.00000000000E+00 -0.18031231147E+02  0.18075900992E+02  0.12700000000E+01 0. -1.
         25    2    1    2    0    0  0.00000000000E+00  0.00000000000E+00  0.19829608907E+03  0.23440694909E+03  0.12500111536E+03 0.  0.
    9000005    1    3    3    0    0 -0.11897737941E+02  0.60841304748E+02  0.11392549539E+03  0.12970442950E+03  0.10000000000E+01 0.  0.
    9000005    1    3    3    0    0  0.11897737941E+02 -0.60841304748E+02  0.84370593686E+02  0.10470251960E+03  0.10000000000E+01 0.  0.
<mgrwt>
<rscale>  0 0.12500112E+03</rscale>
<asrwt>0</asrwt>
<pdfrwt beam="2">  1        4 0.27777584E-02 0.12500112E+03</pdfrwt>
<pdfrwt beam="1">  1       -4 0.33284850E-01 0.12500112E+03</pdfrwt>
<totfact> 0.84635361E+03</totfact>
</mgrwt>
</event>
<event>
 4    1  0.3196850E-002  0.1249063E+03  0.7818608E-02  0.1235216E+00
         -4   -1    0    0    0  501 -0.00000000000E+00  0.00000000000E+00  0.58693696290E+02  0.58707434659E+02  0.12700000000E+01 0. -1.
          4   -1    0    0  501    0  0.00000000000E+00 -0.00000000000E+00 -0.66425814801E+02  0.66437954304E+02  0.12700000000E+01 0. -1.
    9000005    1    1    2    0    0 -0.14990907861E+02 -0.58261714630E+02  0.12906384238E+02  0.61536407632E+02  0.10000000000E+01 0.  0.
    9000005    1    1    2    0    0  0.14990907861E+02  0.58261714630E+02 -0.20638502749E+02  0.63608981330E+02  0.10000000000E+01 0.  0.
<mgrwt>
<rscale>  0 0.12490630E+03</rscale>
<asrwt>0</asrwt>
<pdfrwt beam="2">  1        4 0.10221347E-01 0.12490630E+03</pdfrwt>
<pdfrwt beam="1">  1       -4 0.90317901E-02 0.12490630E+03</pdfrwt>
<totfact> 0.10471866E+04</totfact>
</mgrwt>
</event>
<event>
 5    1  0.3196850E-002  0.1249984E+03  0.7818608E-02  0.1235072E+00
         -4   -1    0    0    0  501 -0.00000000000E+00  0.00000000000E+00  0.23202109912E+03  0.23202457486E+03  0.12700000000E+01 0.  1.
          4   -1    0    0  501    0  0.00000000000E+00 -0.00000000000E+00 -0.16807752994E+02  0.16855665537E+02  0.12700000000E+01 0.  1.
         25    2    1    2    0    0  0.00000000000E+00  0.00000000000E+00  0.21521334613E+03  0.24888024040E+03  0.12499835882E+03 0.  0.
    9000005    1    3    3    0    0  0.80627361272E+01  0.15681643428E+02 -0.11761565039E+02  0.21219238126E+02  0.10000000000E+01 0.  0.
    9000005    1    3    3    0    0 -0.80627361272E+01 -0.15681643428E+02  0.22697491117E+03  0.22766100227E+03  0.10000000000E+01 0.  0.
<mgrwt>
<rscale>  0 0.12499836E+03</rscale>
<asrwt>0</asrwt>
<pdfrwt beam="2">  1        4 0.25897611E-02 0.12499836E+03</pdfrwt>
<pdfrwt beam="1">  1       -4 0.35699506E-01 0.12499836E+03</pdfrwt>
<totfact> 0.82495353E+03</totfact>
</mgrwt>
</event>
<event>
 5    1  0.3196850E-002  0.1249995E+03  0.7818608E-02  0.1235070E+00
          4   -1    0    0  501    0  0.00000000000E+00  0.00000000000E+00  0.45565277728E+02  0.45582973076E+02  0.12700000000E+01 0.  1.
         -4   -1    0    0    0  501 -0.00000000000E+00 -0.00000000000E+00 -0.85688878881E+02  0.85698289737E+02  0.12700000000E+01 0.  1.
         25    2    1    2    0    0  0.00000000000E+00  0.00000000000E+00 -0.40123601153E+02  0.13128126281E+03  0.12499946638E+03 0.  0.
    9000005    1    3    3    0    0  0.44664749340E+02  0.22234729620E+02  0.19457559000E+02  0.53562296787E+02  0.10000000000E+01 0.  0.
    9000005    1    3    3    0    0 -0.44664749340E+02 -0.22234729620E+02 -0.59581160153E+02  0.77718966026E+02  0.10000000000E+01 0.  0.
<mgrwt>
<rscale>  0 0.12499947E+03</rscale>
<asrwt>0</asrwt>
<pdfrwt beam="1">  1        4 0.70121278E-02 0.12499947E+03</pdfrwt>
<pdfrwt beam="2">  1       -4 0.13184989E-01 0.12499947E+03</pdfrwt>
<totfact> 0.10317187E+04</totfact>
</mgrwt>
</event>
<event>
 5    1  0.3196850E-002  0.1249990E+03  0.7818608E-02  0.1235071E+00
          4   -1    0    0  501    0  0.00000000000E+00  0.00000000000E+00  0.28903288265E+02  0.28931176480E+02  0.12700000000E+01 0. -1.
         -4   -1    0    0    0  501 -0.00000000000E+00 -0.00000000000E+00 -0.13505072800E+03  0.13505669933E+03  0.12700000000E+01 0. -1.
         25    2    1    2    0    0  0.00000000000E+00  0.00000000000E+00 -0.10614743973E+03  0.16398787581E+03  0.12499897779E+03 0.  0.
    9000005    1    3    3    0    0  0.25576585509E+02 -0.20575737103E+02  0.16688314426E+02  0.36837786606E+02  0.10000000000E+01 0.  0.
    9000005    1    3    3    0    0 -0.25576585509E+02  0.20575737103E+02 -0.12283575416E+03  0.12715008920E+03  0.10000000000E+01 0.  0.
<mgrwt>
<rscale>  0 0.12499898E+03</rscale>
<asrwt>0</asrwt>
<pdfrwt beam="1">  1        4 0.44492644E-02 0.12499898E+03</pdfrwt>
<pdfrwt beam="2">  1       -4 0.20779639E-01 0.12499898E+03</pdfrwt>
<totfact> 0.96581635E+03</totfact>
</mgrwt>
</event>
<event>
 5    1  0.3196850E-002  0.1249912E+03  0.7818608E-02  0.1235083E+00
          4   -1    0    0  501    0  0.00000000000E+00  0.00000000000E+00  0.10068431348E+02  0.10148212148E+02  0.12700000000E+01 0. -1.
         -4   -1    0    0    0  501 -0.00000000000E+00 -0.00000000000E+00 -0.38630351745E+03  0.38630560505E+03  0.12700000000E+01 0. -1.
         25    2    1    2    0    0  0.00000000000E+00  0.00000000000E+00 -0.37623508611E+03  0.39645381720E+03  0.12499115632E+03 0.  0.
    9000005    1    3    3    0    0  0.62957594424E+01  0.59757543340E+02 -0.13372261511E+03  0.14660606524E+03  0.10000000000E+01 0.  0.
    9000005    1    3    3    0    0 -0.62957594424E+01 -0.59757543340E+02 -0.24251247100E+03  0.24984775197E+03  0.10000000000E+01 0.  0.
<mgrwt>
<rscale>  0 0.12499116E+03</rscale>
<asrwt>0</asrwt>
<pdfrwt beam="1">  1        4 0.15552873E-02 0.12499116E+03</pdfrwt>
<pdfrwt beam="2">  1       -4 0.59437597E-01 0.12499116E+03</pdfrwt>
<totfact> 0.64911834E+03</totfact>
</mgrwt>
</event>
<event>
 5    1  0.3196850E-002  0.1250009E+03  0.7818608E-02  0.1235068E+00
          4   -1    0    0  501    0  0.00000000000E+00  0.00000000000E+00  0.30643972481E+03  0.30644235647E+03  0.12700000000E+01 0. -1.
         -4   -1    0    0    0  501 -0.00000000000E+00 -0.00000000000E+00 -0.12713056364E+02  0.12776333673E+02  0.12700000000E+01 0. -1.
         25    2    1    2    0    0  0.00000000000E+00  0.00000000000E+00  0.29372666844E+03  0.31921869014E+03  0.12500086553E+03 0.  0.
    9000005    1    3    3    0    0  0.42786987773E+02 -0.13082333712E+02  0.25827836441E+03  0.26212704420E+03  0.10000000000E+01 0.  0.
    9000005    1    3    3    0    0 -0.42786987773E+02  0.13082333712E+02  0.35448304034E+02  0.57091645947E+02  0.10000000000E+01 0.  0.
<mgrwt>
<rscale>  0 0.12500087E+03</rscale>
<asrwt>0</asrwt>
<pdfrwt beam="1">  1        4 0.47149645E-01 0.12500087E+03</pdfrwt>
<pdfrwt beam="2">  1       -4 0.19609247E-02 0.12500087E+03</pdfrwt>
<totfact> 0.73247739E+03</totfact>
</mgrwt>
</event>
<event>
 5    1  0.3196850E-002  0.1249966E+03  0.7818608E-02  0.1235075E+00
          4   -1    0    0  501    0  0.00000000000E+00  0.00000000000E+00  0.33584819405E+01  0.35905850421E+01  0.12700000000E+01 0. -1.
         -4   -1    0    0    0  501 -0.00000000000E+00 -0.00000000000E+00 -0.11239587778E+04  0.11239594953E+04  0.12700000000E+01 0. -1.
         25    2    1    2    0    0  0.00000000000E+00  0.00000000000E+00 -0.11206002959E+04  0.11275500804E+04  0.12499664243E+03 0.  0.
    9000005    1    3    3    0    0  0.42936031630E+02 -0.36883787088E+02 -0.79915539350E+03  0.80115807399E+03  0.10000000000E+01 0.  0.
    9000005    1    3    3    0    0 -0.42936031630E+02  0.36883787088E+02 -0.32144490237E+03  0.32639200637E+03  0.10000000000E+01 0.  0.
<mgrwt>
<rscale>  0 0.12499664E+03</rscale>
<asrwt>0</asrwt>
<pdfrwt beam="1">  1        4 0.53459970E-03 0.12499664E+03</pdfrwt>
<pdfrwt beam="2">  1       -4 0.17293435E+00 0.12499664E+03</pdfrwt>
<totfact> 0.26692747E+03</totfact>
</mgrwt>
</event>
<event>
 5    1  0.3196850E-002  0.1249990E+03  0.7818608E-02  0.1235071E+00
         -4   -1    0    0    0  501 -0.00000000000E+00  0.00000000000E+00  0.57967523663E+03  0.57967662783E+03  0.12700000000E+01 0.  1.
          4   -1    0    0  501    0  0.00000000000E+00 -0.00000000000E+00 -0.66773302603E+01  0.67970316614E+01  0.12700000000E+01 0.  1.
         25    2    1    2    0    0  0.00000000000E+00  0.00000000000E+00  0.57299790637E+03  0.58647365950E+03  0.12499901033E+03 0.  0.
    9000005    1    3    3    0    0 -0.59127160147E+02  0.13849364394E+02  0.21732637994E+03  0.22565367575E+03  0.10000000000E+01 0.  0.
    9000005    1    3    3    0    0  0.59127160147E+02 -0.13849364394E+02  0.35567152642E+03  0.36081998375E+03  0.10000000000E+01 0.  0.
<mgrwt>
<rscale>  0 0.12499901E+03</rscale>
<asrwt>0</asrwt>
<pdfrwt beam="2">  1        4 0.10365965E-02 0.12499901E+03</pdfrwt>
<pdfrwt beam="1">  1       -4 0.89190107E-01 0.12499901E+03</pdfrwt>
<totfact> 0.49733802E+03</totfact>
</mgrwt>
</event>
<event>
 5    1  0.3196850E-002  0.1250038E+03  0.7818608E-02  0.1235063E+00
         -4   -1    0    0    0  501 -0.00000000000E+00  0.00000000000E+00  0.59108801445E+01  0.60457757222E+01  0.12700000000E+01 0.  1.
          4   -1    0    0  501    0  0.00000000000E+00 -0.00000000000E+00 -0.65330554901E+03  0.65330678343E+03  0.12700000000E+01 0.  1.
         25    2    1    2    0    0  0.00000000000E+00  0.00000000000E+00 -0.64739466887E+03  0.65935255915E+03  0.12500375985E+03 0.  0.
    9000005    1    3    3    0    0 -0.21781717041E+02 -0.22931746580E+02 -0.39394687153E+02  0.50529690028E+02  0.10000000000E+01 0.  0.
    9000005    1    3    3    0    0  0.21781717041E+02  0.22931746580E+02 -0.60799998172E+03  0.60882286912E+03  0.10000000000E+01 0.  0.
<mgrwt>
<rscale>  0 0.12500376E+03</rscale>
<asrwt>0</asrwt>
<pdfrwt beam="2">  1        4 0.10051896E+00 0.12500376E+03</pdfrwt>
<pdfrwt beam="1">  1       -4 0.91983823E-03 0.12500376E+03</pdfrwt>
<totfact> 0.45317131E+03</totfact>
</mgrwt>
</event>
<event>
 5    1  0.3196850E-002  0.1250006E+03  0.7818608E-02  0.1235068E+00
          4   -1    0    0  501    0  0.00000000000E+00  0.00000000000E+00  0.76653841496E+02  0.76664361447E+02  0.12700000000E+01 0.  1.
         -4   -1    0    0    0  501 -0.00000000000E+00 -0.00000000000E+00 -0.50938179103E+02  0.50954008579E+02  0.12700000000E+01 0.  1.
         25    2    1    2    0    0  0.00000000000E+00  0.00000000000E+00  0.25715662393E+02  0.12761837003E+03  0.12500061230E+03 0.  0.
    9000005    1    3    3    0    0  0.25741606999E+02 -0.46705549057E+02  0.46116880277E+02  0.70511029564E+02  0.10000000000E+01 0.  0.
    9000005    1    3    3    0    0 -0.25741606999E+02  0.46705549057E+02 -0.20401217884E+02  0.57107340463E+02  0.10000000000E+01 0.  0.
<mgrwt>
<rscale>  0 0.12500061E+03</rscale>
<asrwt>0</asrwt>
<pdfrwt beam="1">  1        4 0.11794926E-01 0.12500061E+03</pdfrwt>
<pdfrwt beam="2">  1       -4 0.78386698E-02 0.12500061E+03</pdfrwt>
<totfact> 0.10395594E+04</totfact>
</mgrwt>
</event>
<event>
 5    1  0.3196850E-002  0.1250001E+03  0.7818608E-02  0.1235069E+00
          4   -1    0    0  501    0  0.00000000000E+00  0.00000000000E+00  0.28155544517E+03  0.28155830943E+03  0.12700000000E+01 0. -1.
         -4   -1    0    0    0  501 -0.00000000000E+00 -0.00000000000E+00 -0.13841845305E+02  0.13899984944E+02  0.12700000000E+01 0. -1.
         25    2    1    2    0    0  0.00000000000E+00  0.00000000000E+00  0.26771359987E+03  0.29545829437E+03  0.12500012863E+03 0.  0.
    9000005    1    3    3    0    0  0.24334989094E+02  0.40104112520E+02  0.23144854486E+03  0.23615664389E+03  0.10000000000E+01 0.  0.
    9000005    1    3    3    0    0 -0.24334989094E+02 -0.40104112520E+02  0.36265055012E+02  0.59301650485E+02  0.10000000000E+01 0.  0.
<mgrwt>
<rscale>  0 0.12500013E+03</rscale>
<asrwt>0</asrwt>
<pdfrwt beam="1">  1        4 0.43320914E-01 0.12500013E+03</pdfrwt>
<pdfrwt beam="2">  1       -4 0.21342073E-02 0.12500013E+03</pdfrwt>
<totfact> 0.76171878E+03</totfact>
</mgrwt>
</event>
<event>
 5    1  0.3196850E-002  0.1250046E+03  0.7818608E-02  0.1235062E+00
         -4   -1    0    0    0  501 -0.00000000000E+00  0.00000000000E+00  0.44020881362E+01  0.45816241617E+01  0.12700000000E+01 0. -1.
          4   -1    0    0  501    0  0.00000000000E+00 -0.00000000000E+00 -0.86951303420E+03  0.86951396167E+03  0.12700000000E+01 0. -1.
         25    2    1    2    0    0  0.00000000000E+00  0.00000000000E+00 -0.86511094607E+03  0.87409558584E+03  0.12500457662E+03 0.  0.
    9000005    1    3    3    0    0 -0.14905831108E+02  0.53107405075E+02 -0.22714277745E+03  0.23374649007E+03  0.10000000000E+01 0.  0.
    9000005    1    3    3    0    0  0.14905831108E+02 -0.53107405075E+02 -0.63796816862E+03  0.64034909576E+03  0.10000000000E+01 0.  0.
<mgrwt>
<rscale>  0 0.12500458E+03</rscale>
<asrwt>0</asrwt>
<pdfrwt beam="2">  1        4 0.13378498E+00 0.12500458E+03</pdfrwt>
<pdfrwt beam="1">  1       -4 0.69112683E-03 0.12500458E+03</pdfrwt>
<totfact> 0.35157607E+03</totfact>
</mgrwt>
</event>
<event>
 5    1  0.3196850E-002  0.1249922E+03  0.7818608E-02  0.1235082E+00
          4   -1    0    0  501    0  0.00000000000E+00  0.00000000000E+00  0.29015069330E+03  0.29015347271E+03  0.12700000000E+01 0.  1.
         -4   -1    0    0    0  501 -0.00000000000E+00 -0.00000000000E+00 -0.13428336075E+02  0.13488258218E+02  0.12700000000E+01 0.  1.
         25    2    1    2    0    0  0.00000000000E+00  0.00000000000E+00  0.27672235723E+03  0.30364173093E+03  0.12499215083E+03 0.  0.
    9000005    1    3    3    0    0 -0.40664423129E+02 -0.46950057009E+02  0.12173231298E+03  0.13666623279E+03  0.10000000000E+01 0.  0.
    9000005    1    3    3    0    0  0.40664423129E+02  0.46950057009E+02  0.15499004425E+03  0.16697549814E+03  0.10000000000E+01 0.  0.
<mgrwt>
<rscale>  0 0.12499215E+03</rscale>
<asrwt>0</asrwt>
<pdfrwt beam="1">  1        4 0.44643387E-01 0.12499215E+03</pdfrwt>
<pdfrwt beam="2">  1       -4 0.20707213E-02 0.12499215E+03</pdfrwt>
<totfact> 0.75157379E+03</totfact>
</mgrwt>
</event>
<event>
 5    1  0.3196850E-002  0.1249983E+03  0.7818608E-02  0.1235072E+00
          4   -1    0    0  501    0  0.00000000000E+00  0.00000000000E+00  0.30535684975E+03  0.30535949075E+03  0.12700000000E+01 0. -1.
         -4   -1    0    0    0  501 -0.00000000000E+00 -0.00000000000E+00 -0.12757843826E+02  0.12820900089E+02  0.12700000000E+01 0. -1.
         25    2    1    2    0    0  0.00000000000E+00  0.00000000000E+00  0.29259900593E+03  0.31818039084E+03  0.12499833137E+03 0.  0.
    9000005    1    3    3    0    0 -0.96738657033E+01 -0.29807301570E+02  0.28392219594E+03  0.28564816165E+03  0.10000000000E+01 0.  0.
    9000005    1    3    3    0    0  0.96738657033E+01  0.29807301570E+02  0.86768099849E+01  0.32532229190E+02  0.10000000000E+01 0.  0.
<mgrwt>
<rscale>  0 0.12499833E+03</rscale>
<asrwt>0</asrwt>
<pdfrwt beam="1">  1        4 0.46983030E-01 0.12499833E+03</pdfrwt>
<pdfrwt beam="2">  1       -4 0.19677989E-02 0.12499833E+03</pdfrwt>
<totfact> 0.73375780E+03</totfact>
</mgrwt>
</event>
<event>
 5    1  0.3196850E-002  0.1249991E+03  0.7818608E-02  0.1235071E+00
         -4   -1    0    0    0  501 -0.00000000000E+00  0.00000000000E+00  0.63864847673E+02  0.63877473872E+02  0.12700000000E+01 0. -1.
          4   -1    0    0  501    0  0.00000000000E+00 -0.00000000000E+00 -0.61138159630E+02  0.61151348823E+02  0.12700000000E+01 0. -1.
         25    2    1    2    0    0  0.00000000000E+00  0.00000000000E+00  0.27266880435E+01  0.12502882270E+03  0.12499908670E+03 0.  0.
    9000005    1    3    3    0    0 -0.45678188082E+02  0.41941684756E+02 -0.63580216702E+01  0.62346020132E+02  0.10000000000E+01 0.  0.
    9000005    1    3    3    0    0  0.45678188082E+02 -0.41941684756E+02  0.90847097138E+01  0.62682802564E+02  0.10000000000E+01 0.  0.
<mgrwt>
<rscale>  0 0.12499909E+03</rscale>
<asrwt>0</asrwt>
<pdfrwt beam="2">  1        4 0.94078565E-02 0.12499909E+03</pdfrwt>
<pdfrwt beam="1">  1       -4 0.98273470E-02 0.12499909E+03</pdfrwt>
<totfact> 0.10452452E+04</totfact>
</mgrwt>
</event>
<event>
 5    1  0.3196850E-002  0.1250001E+03  0.7818608E-02  0.1235069E+00
         -4   -1    0    0    0  501 -0.00000000000E+00  0.00000000000E+00  0.55582025475E+02  0.55596532768E+02  0.12700000000E+01 0. -1.
          4   -1    0    0  501    0  0.00000000000E+00 -0.00000000000E+00 -0.70249703410E+02  0.70261182236E+02  0.12700000000E+01 0. -1.
         25    2    1    2    0    0  0.00000000000E+00  0.00000000000E+00 -0.14667677936E+02  0.12585771500E+03  0.12500009460E+03 0.  0.
    9000005    1    3    3    0    0 -0.14465573548E+02 -0.37776160413E+02  0.40626625478E+02  0.57339461206E+02  0.10000000000E+01 0.  0.
    9000005    1    3    3    0    0  0.14465573548E+02  0.37776160413E+02 -0.55294303414E+02  0.68518253799E+02  0.10000000000E+01 0.  0.
<mgrwt>
<rscale>  0 0.12500009E+03</rscale>
<asrwt>0</asrwt>
<pdfrwt beam="2">  1        4 0.10809646E-01 0.12500009E+03</pdfrwt>
<pdfrwt beam="1">  1       -4 0.85530798E-02 0.12500009E+03</pdfrwt>
<totfact> 0.10434055E+04</totfact>
</mgrwt>
</event>
<event>
 5    1  0.3196850E-002  0.1250026E+03  0.7818608E-02  0.1235065E+00
          4   -1    0    0  501    0  0.00000000000E+00  0.00000000000E+00  0.16489917688E+03  0.16490406737E+03  0.12700000000E+01 0. -1.
         -4   -1    0    0    0  501 -0.00000000000E+00 -0.00000000000E+00 -0.23667418603E+02  0.23701468379E+02  0.12700000000E+01 0. -1.
         25    2    1    2    0    0  0.00000000000E+00  0.00000000000E+00  0.14123175827E+03  0.18860553575E+03  0.12500255425E+03 0.  0.
    9000005    1    3    3    0    0  0.24579193227E+01  0.48930330860E+02  0.12078758772E+02  0.50468951434E+02  0.10000000000E+01 0.  0.
    9000005    1    3    3    0    0 -0.24579193227E+01 -0.48930330860E+02  0.12915299950E+03  0.13813658431E+03  0.10000000000E+01 0.  0.
<mgrwt>
<rscale>  0 0.12500255E+03</rscale>
<asrwt>0</asrwt>
<pdfrwt beam="1">  1        4 0.25372098E-01 0.12500255E+03</pdfrwt>
<pdfrwt beam="2">  1       -4 0.36441369E-02 0.12500255E+03</pdfrwt>
<totfact> 0.92085245E+03</totfact>
</mgrwt>
</event>
<event>
 5    1  0.3196850E-002  0.1250018E+03  0.7818608E-02  0.1235066E+00
          4   -1    0    0  501    0  0.00000000000E+00  0.00000000000E+00  0.38061649657E+02  0.38082831757E+02  0.12700000000E+01 0.  1.
         -4   -1    0    0    0  501 -0.00000000000E+00 -0.00000000000E+00 -0.10257886890E+03  0.10258673036E+03  0.12700000000E+01 0.  1.
         25    2    1    2    0    0  0.00000000000E+00  0.00000000000E+00 -0.64517219244E+02  0.14066956211E+03  0.12500181649E+03 0.  0.
    9000005    1    3    3    0    0  0.96117791546E+01  0.40296652108E+02 -0.84911506711E+02  0.94483704635E+02  0.10000000000E+01 0.  0.
    9000005    1    3    3    0    0 -0.96117791546E+01 -0.40296652108E+02  0.20394287468E+02  0.46185857477E+02  0.10000000000E+01 0.  0.
<mgrwt>
<rscale>  0 0.12500182E+03</rscale>
<asrwt>0</asrwt>
<pdfrwt beam="1">  1        4 0.58578726E-02 0.12500182E+03</pdfrwt>
<pdfrwt beam="2">  1       -4 0.15783598E-01 0.12500182E+03</pdfrwt>
<totfact> 0.10119314E+04</totfact>
</mgrwt>
</event>
<event>
 5    1  0.3196850E-002  0.1250013E+03  0.7818608E-02  0.1235067E+00
          4   -1    0    0  501    0  0.00000000000E+00  0.00000000000E+00  0.15216699361E+04  0.15216704661E+04  0.12700000000E+01 0. -1.
         -4   -1    0    0    0  501 -0.00000000000E+00 -0.00000000000E+00 -0.24094999137E+01  0.27237088380E+01  0.12700000000E+01 0. -1.
         25    2    1    2    0    0  0.00000000000E+00  0.00000000000E+00  0.15192604362E+04  0.15243941749E+04  0.12500131021E+03 0.  0.
    9000005    1    3    3    0    0  0.25687683550E+02  0.53799612080E+02  0.53113157701E+03  0.53446796671E+03  0.10000000000E+01 0.  0.
    9000005    1    3    3    0    0 -0.25687683550E+02 -0.53799612080E+02  0.98812885915E+03  0.98992620818E+03  0.10000000000E+01 0.  0.
<mgrwt>
<rscale>  0 0.12500131E+03</rscale>
<asrwt>0</asrwt>
<pdfrwt beam="1">  1        4 0.23412718E+00 0.12500131E+03</pdfrwt>
<pdfrwt beam="2">  1       -4 0.39490315E-03 0.12500131E+03</pdfrwt>
<totfact> 0.17455337E+03</totfact>
</mgrwt>
</event>
<event>
 5    1  0.3196850E-002  0.1249981E+03  0.7818608E-02  0.1235072E+00
          4   -1    0    0  501    0  0.00000000000E+00  0.00000000000E+00  0.37859928601E+02  0.37881223498E+02  0.12700000000E+01 0.  1.
         -4   -1    0    0    0  501 -0.00000000000E+00 -0.00000000000E+00 -0.10311908402E+03  0.10312690429E+03  0.12700000000E+01 0.  1.
         25    2    1    2    0    0  0.00000000000E+00  0.00000000000E+00 -0.65259155418E+02  0.14100812779E+03  0.12499813893E+03 0.  0.
    9000005    1    3    3    0    0  0.13750400286E+02  0.12357389454E+02 -0.99969118616E+02  0.10166908704E+03  0.10000000000E+01 0.  0.
    9000005    1    3    3    0    0 -0.13750400286E+02 -0.12357389454E+02  0.34709963198E+02  0.39339040753E+02  0.10000000000E+01 0.  0.
<mgrwt>
<rscale>  0 0.12499814E+03</rscale>
<asrwt>0</asrwt>
<pdfrwt beam="1">  1        4 0.58268441E-02 0.12499814E+03</pdfrwt>
<pdfrwt beam="2">  1       -4 0.15866714E-01 0.12499814E+03</pdfrwt>
<totfact> 0.10113158E+04</totfact>
</mgrwt>
</event>
<event>
 5    1  0.3196850E-002  0.1250039E+03  0.7818608E-02  0.1235063E+00
          4   -1    0    0  501    0  0.00000000000E+00  0.00000000000E+00  0.63638382581E+02  0.63651053703E+02  0.12700000000E+01 0.  1.
         -4   -1    0    0    0  501 -0.00000000000E+00 -0.00000000000E+00 -0.61360486966E+02  0.61373628382E+02  0.12700000000E+01 0.  1.
         25    2    1    2    0    0  0.00000000000E+00  0.00000000000E+00  0.22778956148E+01  0.12502468208E+03  0.12500392923E+03 0.  0.
    9000005    1    3    3    0    0 -0.59838128455E+02  0.12220011829E+02 -0.12113356639E+02  0.62270889789E+02  0.10000000000E+01 0.  0.
    9000005    1    3    3    0    0  0.59838128455E+02 -0.12220011829E+02  0.14391252253E+02  0.62753792296E+02  0.10000000000E+01 0.  0.
<mgrwt>
<rscale>  0 0.12500393E+03</rscale>
<asrwt>0</asrwt>
<pdfrwt beam="1">  1        4 0.97925060E-02 0.12500393E+03</pdfrwt>
<pdfrwt beam="2">  1       -4 0.94420605E-02 0.12500393E+03</pdfrwt>
<totfact> 0.10451398E+04</totfact>
</mgrwt>
</event>
<event>
 5    1  0.3196850E-002  0.1250210E+03  0.7818608E-02  0.1235036E+00
          4   -1    0    0  501    0  0.00000000000E+00  0.00000000000E+00  0.19705766267E+03  0.19706175508E+03  0.12700000000E+01 0. -1.
         -4   -1    0    0    0  501 -0.00000000000E+00 -0.00000000000E+00 -0.19804917020E+02  0.19845594931E+02  0.12700000000E+01 0. -1.
         25    2    1    2    0    0  0.00000000000E+00  0.00000000000E+00  0.17725274565E+03  0.21690735001E+03  0.12502104883E+03 0.  0.
    9000005    1    3    3    0    0 -0.29907434343E+01  0.60832082147E+02  0.64270079650E+02  0.88550154731E+02  0.10000000000E+01 0.  0.
    9000005    1    3    3    0    0  0.29907434343E+01 -0.60832082147E+02  0.11298266600E+03  0.12835719528E+03  0.10000000000E+01 0.  0.
<mgrwt>
<rscale>  0 0.12502105E+03</rscale>
<asrwt>0</asrwt>
<pdfrwt beam="1">  1        4 0.30320008E-01 0.12502105E+03</pdfrwt>
<pdfrwt beam="2">  1       -4 0.30503541E-02 0.12502105E+03</pdfrwt>
<totfact> 0.87319026E+03</totfact>
</mgrwt>
</event>
<event>
 5    1  0.3196850E-002  0.1250021E+03  0.7818608E-02  0.1235066E+00
         -4   -1    0    0    0  501 -0.00000000000E+00  0.00000000000E+00  0.33797939753E+01  0.36105272905E+01  0.12700000000E+01 0.  1.
          4   -1    0    0  501    0  0.00000000000E+00 -0.00000000000E+00 -0.11174230173E+04  0.11174237390E+04  0.12700000000E+01 0.  1.
         25    2    1    2    0    0  0.00000000000E+00  0.00000000000E+00 -0.11140432234E+04  0.11210342663E+04  0.12500209108E+03 0.  0.
    9000005    1    3    3    0    0  0.14332996088E+02 -0.48556802181E+02 -0.22846708364E+03  0.23401155126E+03  0.10000000000E+01 0.  0.
    9000005    1    3    3    0    0 -0.14332996088E+02  0.48556802181E+02 -0.88557613973E+03  0.88702271508E+03  0.10000000000E+01 0.  0.
<mgrwt>
<rscale>  0 0.12500209E+03</rscale>
<asrwt>0</asrwt>
<pdfrwt beam="2">  1        4 0.17192875E+00 0.12500209E+03</pdfrwt>
<pdfrwt beam="1">  1       -4 0.53777342E-03 0.12500209E+03</pdfrwt>
<totfact> 0.26874621E+03</totfact>
</mgrwt>
</event>
<event>
 5    1  0.3196850E-002  0.1249951E+03  0.7818608E-02  0.1235077E+00
         -4   -1    0    0    0  501 -0.00000000000E+00  0.00000000000E+00  0.12895299881E+02  0.12957687256E+02  0.12700000000E+01 0. -1.
          4   -1    0    0  501    0  0.00000000000E+00 -0.00000000000E+00 -0.30210181418E+03  0.30210448363E+03  0.12700000000E+01 0. -1.
         25    2    1    2    0    0  0.00000000000E+00  0.00000000000E+00 -0.28920651430E+03  0.31506217089E+03  0.12499505435E+03 0.  0.
    9000005    1    3    3    0    0 -0.53398605603E+02  0.29418997920E+02 -0.17916875793E+03  0.18925995968E+03  0.10000000000E+01 0.  0.
    9000005    1    3    3    0    0  0.53398605603E+02 -0.29418997920E+02 -0.11003775637E+03  0.12580221121E+03  0.10000000000E+01 0.  0.
<mgrwt>
<rscale>  0 0.12499505E+03</rscale>
<asrwt>0</asrwt>
<pdfrwt beam="2">  1        4 0.46482201E-01 0.12499505E+03</pdfrwt>
<pdfrwt beam="1">  1       -4 0.19888969E-02 0.12499505E+03</pdfrwt>
<totfact> 0.73755379E+03</totfact>
</mgrwt>
</event>
<event>
 5    1  0.3196850E-002  0.1250017E+03  0.7818608E-02  0.1235067E+00
         -4   -1    0    0    0  501 -0.00000000000E+00  0.00000000000E+00  0.10425991631E+03  0.10426765102E+03  0.12700000000E+01 0. -1.
          4   -1    0    0  501    0  0.00000000000E+00 -0.00000000000E+00 -0.37447585439E+02  0.37469114685E+02  0.12700000000E+01 0. -1.
         25    2    1    2    0    0  0.00000000000E+00  0.00000000000E+00  0.66812330869E+02  0.14173676570E+03  0.12500169277E+03 0.  0.
    9000005    1    3    3    0    0 -0.33699181153E+02 -0.48714880640E+02  0.10825705125E+02  0.60224333102E+02  0.10000000000E+01 0.  0.
    9000005    1    3    3    0    0  0.33699181153E+02  0.48714880640E+02  0.55986625744E+02  0.81512432600E+02  0.10000000000E+01 0.  0.
<mgrwt>
<rscale>  0 0.12500169E+03</rscale>
<asrwt>0</asrwt>
<pdfrwt beam="2">  1        4 0.57634181E-02 0.12500169E+03</pdfrwt>
<pdfrwt beam="1">  1       -4 0.16042238E-01 0.12500169E+03</pdfrwt>
<totfact> 0.10097331E+04</totfact>
</mgrwt>
</event>
<event>
 5    1  0.3196850E-002  0.1250025E+03  0.7818608E-02  0.1235065E+00
         -4   -1    0    0    0  501 -0.00000000000E+00  0.00000000000E+00  0.14132583942E+02  0.14189532370E+02  0.12700000000E+01 0. -1.
          4   -1    0    0  501    0  0.00000000000E+00 -0.00000000000E+00 -0.27579701426E+03  0.27579993832E+03  0.12700000000E+01 0. -1.
         25    2    1    2    0    0  0.00000000000E+00  0.00000000000E+00 -0.26166443032E+03  0.28998947069E+03  0.12500247604E+03 0.  0.
    9000005    1    3    3    0    0  0.23885097225E+02 -0.32806180694E+02 -0.20579529334E+02  0.45511101819E+02  0.10000000000E+01 0.  0.
    9000005    1    3    3    0    0 -0.23885097225E+02  0.32806180694E+02 -0.24108490099E+03  0.24447836887E+03  0.10000000000E+01 0.  0.
<mgrwt>
<rscale>  0 0.12500248E+03</rscale>
<asrwt>0</asrwt>
<pdfrwt beam="2">  1        4 0.42434911E-01 0.12500248E+03</pdfrwt>
<pdfrwt beam="1">  1       -4 0.21788495E-02 0.12500248E+03</pdfrwt>
<totfact> 0.76867721E+03</totfact>
</mgrwt>
</event>
<event>
 5    1  0.3196850E-002  0.1249885E+03  0.7818608E-02  0.1235087E+00
         -4   -1    0    0    0  501 -0.00000000000E+00  0.00000000000E+00  0.31709715042E+01  0.34158396158E+01  0.12700000000E+01 0.  1.
          4   -1    0    0  501    0  0.00000000000E+00 -0.00000000000E+00 -0.11856196859E+04  0.11856203661E+04  0.12700000000E+01 0.  1.
         25    2    1    2    0    0  0.00000000000E+00  0.00000000000E+00 -0.11824487144E+04  0.11890362057E+04  0.12498854471E+03 0.  0.
    9000005    1    3    3    0    0  0.57542721603E+02 -0.66215393766E+01 -0.81423130359E+03  0.81628954749E+03  0.10000000000E+01 0.  0.
    9000005    1    3    3    0    0 -0.57542721603E+02  0.66215393766E+01 -0.36821741077E+03  0.37274665819E+03  0.10000000000E+01 0.  0.
<mgrwt>
<rscale>  0 0.12498854E+03</rscale>
<asrwt>0</asrwt>
<pdfrwt beam="2">  1        4 0.18242158E+00 0.12498854E+03</pdfrwt>
<pdfrwt beam="1">  1       -4 0.50673105E-03 0.12498854E+03</pdfrwt>
<totfact> 0.25007848E+03</totfact>
</mgrwt>
</event>
<event>
 5    1  0.3196850E-002  0.1249752E+03  0.7818608E-02  0.1235108E+00
          4   -1    0    0  501    0  0.00000000000E+00  0.00000000000E+00  0.11346031185E+02  0.11416887652E+02  0.12700000000E+01 0. -1.
         -4   -1    0    0    0  501 -0.00000000000E+00 -0.00000000000E+00 -0.34300351923E+03  0.34300587036E+03  0.12700000000E+01 0. -1.
         25    2    1    2    0    0  0.00000000000E+00  0.00000000000E+00 -0.33165748804E+03  0.35442275801E+03  0.12497520563E+03 0.  0.
    9000005    1    3    3    0    0 -0.47505251360E+02 -0.27147840821E+02 -0.80281577102E+02  0.97159074666E+02  0.10000000000E+01 0.  0.
    9000005    1    3    3    0    0  0.47505251360E+02  0.27147840821E+02 -0.25137591094E+03  0.25726368335E+03  0.10000000000E+01 0.  0.
<mgrwt>
<rscale>  0 0.12497521E+03</rscale>
<asrwt>0</asrwt>
<pdfrwt beam="1">  1        4 0.17511749E-02 0.12497521E+03</pdfrwt>
<pdfrwt beam="2">  1       -4 0.52775395E-01 0.12497521E+03</pdfrwt>
<totfact> 0.69278725E+03</totfact>
</mgrwt>
</event>
<event>
 5    1  0.3196850E-002  0.1249988E+03  0.7818608E-02  0.1235071E+00
          4   -1    0    0  501    0  0.00000000000E+00  0.00000000000E+00  0.81214960953E+02  0.81224890167E+02  0.12700000000E+01 0. -1.
         -4   -1    0    0    0  501 -0.00000000000E+00 -0.00000000000E+00 -0.48075470166E+02  0.48092241907E+02  0.12700000000E+01 0. -1.
         25    2    1    2    0    0  0.00000000000E+00  0.00000000000E+00  0.33139490788E+02  0.12931713207E+03  0.12499877919E+03 0.  0.
    9000005    1    3    3    0    0  0.59623913941E+02 -0.18397097902E+02  0.13029632237E+02  0.63751357955E+02  0.10000000000E+01 0.  0.
    9000005    1    3    3    0    0 -0.59623913941E+02  0.18397097902E+02  0.20109858551E+02  0.65565774119E+02  0.10000000000E+01 0.  0.
<mgrwt>
<rscale>  0 0.12499878E+03</rscale>
<asrwt>0</asrwt>
<pdfrwt beam="1">  1        4 0.12496663E-01 0.12499878E+03</pdfrwt>
<pdfrwt beam="2">  1       -4 0.73982802E-02 0.12499878E+03</pdfrwt>
<totfact> 0.10359423E+04</totfact>
</mgrwt>
</event>
<event>
 4    1  0.3196850E-002  0.1249319E+03  0.7818608E-02  0.1235176E+00
          4   -1    0    0  501    0  0.00000000000E+00  0.00000000000E+00  0.62544491803E+02  0.62557384496E+02  0.12700000000E+01 0.  1.
         -4   -1    0    0    0  501 -0.00000000000E+00 -0.00000000000E+00 -0.62361744580E+02  0.62374675046E+02  0.12700000000E+01 0.  1.
    9000005    1    1    2    0    0 -0.54113219236E+02 -0.46785511006E+01 -0.30744793860E+02  0.62420923462E+02  0.10000000000E+01 0.  0.
    9000005    1    1    2    0    0  0.54113219236E+02  0.46785511006E+01  0.30927541083E+02  0.62511136079E+02  0.10000000000E+01 0.  0.
<mgrwt>
<rscale>  0 0.12493193E+03</rscale>
<asrwt>0</asrwt>
<pdfrwt beam="1">  1        4 0.96242160E-02 0.12493193E+03</pdfrwt>
<pdfrwt beam="2">  1       -4 0.95961009E-02 0.12493193E+03</pdfrwt>
<totfact> 0.10470439E+04</totfact>
</mgrwt>
</event>
<event>
 5    1  0.3196850E-002  0.1250006E+03  0.7818608E-02  0.1235068E+00
          4   -1    0    0  501    0  0.00000000000E+00  0.00000000000E+00  0.13870160656E+02  0.13928182101E+02  0.12700000000E+01 0.  1.
         -4   -1    0    0    0  501 -0.00000000000E+00 -0.00000000000E+00 -0.28098505635E+03  0.28098792642E+03  0.12700000000E+01 0.  1.
         25    2    1    2    0    0  0.00000000000E+00  0.00000000000E+00 -0.26711489569E+03  0.29491610852E+03  0.12500057424E+03 0.  0.
    9000005    1    3    3    0    0  0.15700043709E+02 -0.46259563533E+02 -0.41609181915E+02  0.64177586511E+02  0.10000000000E+01 0.  0.
    9000005    1    3    3    0    0 -0.15700043709E+02  0.46259563533E+02 -0.22550571378E+03  0.23073852201E+03  0.10000000000E+01 0.  0.
<mgrwt>
<rscale>  0 0.12500057E+03</rscale>
<asrwt>0</asrwt>
<pdfrwt beam="1">  1        4 0.21385550E-02 0.12500057E+03</pdfrwt>
<pdfrwt beam="2">  1       -4 0.43233150E-01 0.12500057E+03</pdfrwt>
<totfact> 0.76240040E+03</totfact>
</mgrwt>
</event>
<event>
 5    1  0.3196850E-002  0.1250011E+03  0.7818608E-02  0.1235068E+00
          4   -1    0    0  501    0  0.00000000000E+00  0.00000000000E+00  0.47908580740E+03  0.47908749070E+03  0.12700000000E+01 0.  1.
         -4   -1    0    0    0  501 -0.00000000000E+00 -0.00000000000E+00 -0.81025314820E+01  0.82014581884E+01  0.12700000000E+01 0.  1.
         25    2    1    2    0    0  0.00000000000E+00  0.00000000000E+00  0.47098327591E+03  0.48728894889E+03  0.12500109408E+03 0.  0.
    9000005    1    3    3    0    0  0.44240015722E+02  0.30617424338E+02  0.11155873776E+03  0.12385861954E+03  0.10000000000E+01 0.  0.
    9000005    1    3    3    0    0 -0.44240015722E+02 -0.30617424338E+02  0.35942453816E+03  0.36343032935E+03  0.10000000000E+01 0.  0.
<mgrwt>
<rscale>  0 0.12500109E+03</rscale>
<asrwt>0</asrwt>
<pdfrwt beam="1">  1        4 0.73713252E-01 0.12500109E+03</pdfrwt>
<pdfrwt beam="2">  1       -4 0.12542825E-02 0.12500109E+03</pdfrwt>
<totfact> 0.56862881E+03</totfact>
</mgrwt>
</event>
<event>
 5    1  0.3196850E-002  0.1250026E+03  0.7818608E-02  0.1235065E+00
         -4   -1    0    0    0  501 -0.00000000000E+00  0.00000000000E+00  0.23905241778E+02  0.23938953287E+02  0.12700000000E+01 0.  1.
          4   -1    0    0  501    0  0.00000000000E+00 -0.00000000000E+00 -0.16326100631E+03  0.16326594587E+03  0.12700000000E+01 0.  1.
         25    2    1    2    0    0  0.00000000000E+00  0.00000000000E+00 -0.13935576453E+03  0.18720489916E+03  0.12500258062E+03 0.  0.
    9000005    1    3    3    0    0  0.69741199186E+01  0.59252220877E+02 -0.97532883399E+02  0.11433777753E+03  0.10000000000E+01 0.  0.
    9000005    1    3    3    0    0 -0.69741199186E+01 -0.59252220877E+02 -0.41822881134E+02  0.72867121624E+02  0.10000000000E+01 0.  0.
<mgrwt>
<rscale>  0 0.12500258E+03</rscale>
<asrwt>0</asrwt>
<pdfrwt beam="2">  1        4 0.25120050E-01 0.12500258E+03</pdfrwt>
<pdfrwt beam="1">  1       -4 0.36807028E-02 0.12500258E+03</pdfrwt>
<totfact> 0.92330601E+03</totfact>
</mgrwt>
</event>
<event>
 5    1  0.3196850E-002  0.1249978E+03  0.7818608E-02  0.1235073E+00
          4   -1    0    0  501    0  0.00000000000E+00  0.00000000000E+00  0.38437311073E+02  0.38458286266E+02  0.12700000000E+01 0.  1.
         -4   -1    0    0    0  501 -0.00000000000E+00 -0.00000000000E+00 -0.10157030221E+03  0.10157824172E+03  0.12700000000E+01 0.  1.
         25    2    1    2    0    0  0.00000000000E+00  0.00000000000E+00 -0.63132991132E+02  0.14003652798E+03  0.12499781838E+03 0.  0.
    9000005    1    3    3    0    0 -0.56632435836E+02 -0.23039999471E+02 -0.46045817129E+02  0.76546009951E+02  0.10000000000E+01 0.  0.
    9000005    1    3    3    0    0  0.56632435836E+02  0.23039999471E+02 -0.17087174003E+02  0.63490518031E+02  0.10000000000E+01 0.  0.
<mgrwt>
<rscale>  0 0.12499782E+03</rscale>
<asrwt>0</asrwt>
<pdfrwt beam="1">  1        4 0.59156567E-02 0.12499782E+03</pdfrwt>
<pdfrwt beam="2">  1       -4 0.15628424E-01 0.12499782E+03</pdfrwt>
<totfact> 0.10133327E+04</totfact>
</mgrwt>
</event>
<event>
 5    1  0.3196850E-002  0.1249995E+03  0.7818608E-02  0.1235070E+00
          4   -1    0    0  501    0  0.00000000000E+00  0.00000000000E+00  0.44848351039E+02  0.44866329144E+02  0.12700000000E+01 0. -1.
         -4   -1    0    0    0  501 -0.00000000000E+00 -0.00000000000E+00 -0.87058348807E+02  0.87067611642E+02  0.12700000000E+01 0. -1.
         25    2    1    2    0    0  0.00000000000E+00  0.00000000000E+00 -0.42209997768E+02  0.13193394079E+03  0.12499952328E+03 0.  0.
    9000005    1    3    3    0    0 -0.40553842565E+02 -0.23306515976E+02 -0.64845672958E+02  0.79961047611E+02  0.10000000000E+01 0.  0.
    9000005    1    3    3    0    0  0.40553842565E+02  0.23306515976E+02  0.22635675190E+02  0.51972893175E+02  0.10000000000E+01 0.  0.
<mgrwt>
<rscale>  0 0.12499952E+03</rscale>
<asrwt>0</asrwt>
<pdfrwt beam="1">  1        4 0.69018418E-02 0.12499952E+03</pdfrwt>
<pdfrwt beam="2">  1       -4 0.13395688E-01 0.12499952E+03</pdfrwt>
<totfact> 0.10303219E+04</totfact>
</mgrwt>
</event>
<event>
 5    1  0.3196850E-002  0.1249998E+03  0.7818608E-02  0.1235070E+00
         -4   -1    0    0    0  501 -0.00000000000E+00  0.00000000000E+00  0.28174380260E+03  0.28174666494E+03  0.12700000000E+01 0.  1.
          4   -1    0    0  501    0  0.00000000000E+00 -0.00000000000E+00 -0.13832484536E+02  0.13890663355E+02  0.12700000000E+01 0.  1.
         25    2    1    2    0    0  0.00000000000E+00  0.00000000000E+00  0.26791131807E+03  0.29563732830E+03  0.12499982214E+03 0.  0.
    9000005    1    3    3    0    0 -0.30441864449E+02  0.51215683200E+02  0.17854806036E+03  0.18822901788E+03  0.10000000000E+01 0.  0.
    9000005    1    3    3    0    0  0.30441864449E+02 -0.51215683200E+02  0.89363257710E+02  0.10740831041E+03  0.10000000000E+01 0.  0.
<mgrwt>
<rscale>  0 0.12499982E+03</rscale>
<asrwt>0</asrwt>
<pdfrwt beam="2">  1        4 0.21327704E-02 0.12499982E+03</pdfrwt>
<pdfrwt beam="1">  1       -4 0.43349888E-01 0.12499982E+03</pdfrwt>
<totfact> 0.76149669E+03</totfact>
</mgrwt>
</event>
<event>
 5    1  0.3196850E-002  0.1249984E+03  0.7818608E-02  0.1235072E+00
          4   -1    0    0  501    0  0.00000000000E+00  0.00000000000E+00  0.13228502442E+02  0.13289325673E+02  0.12700000000E+01 0. -1.
         -4   -1    0    0    0  501 -0.00000000000E+00 -0.00000000000E+00 -0.29454340120E+03  0.29454613916E+03  0.12700000000E+01 0. -1.
         25    2    1    2    0    0  0.00000000000E+00  0.00000000000E+00 -0.28131489876E+03  0.30783546483E+03  0.12499840456E+03 0.  0.
    9000005    1    3    3    0    0  0.42466767601E+02  0.45709504009E+02 -0.13199751952E+03  0.14600387072E+03  0.10000000000E+01 0.  0.
    9000005    1    3    3    0    0 -0.42466767601E+02 -0.45709504009E+02 -0.14931737925E+03  0.16183159411E+03  0.10000000000E+01 0.  0.
<mgrwt>
<rscale>  0 0.12499840E+03</rscale>
<asrwt>0</asrwt>
<pdfrwt beam="1">  1        4 0.20400438E-02 0.12499840E+03</pdfrwt>
<pdfrwt beam="2">  1       -4 0.45319254E-01 0.12499840E+03</pdfrwt>
<totfact> 0.74629012E+03</totfact>
</mgrwt>
</event>
<event>
 5    1  0.3196850E-002  0.1249901E+03  0.7818608E-02  0.1235085E+00
          4   -1    0    0  501    0  0.00000000000E+00  0.00000000000E+00  0.57371316664E+03  0.57371457231E+03  0.12700000000E+01 0. -1.
         -4   -1    0    0    0  501 -0.00000000000E+00 -0.00000000000E+00 -0.67469794869E+01  0.68654666409E+01  0.12700000000E+01 0. -1.
         25    2    1    2    0    0  0.00000000000E+00  0.00000000000E+00  0.56696618716E+03  0.58058003895E+03  0.12499009660E+03 0.  0.
    9000005    1    3    3    0    0 -0.63623906249E+01 -0.44875937985E+02  0.48328872118E+03  0.48541046326E+03  0.10000000000E+01 0.  0.
    9000005    1    3    3    0    0  0.63623906249E+01  0.44875937985E+02  0.83677465980E+02  0.95169575692E+02  0.10000000000E+01 0.  0.
<mgrwt>
<rscale>  0 0.12499010E+03</rscale>
<asrwt>0</asrwt>
<pdfrwt beam="1">  1        4 0.88272778E-01 0.12499010E+03</pdfrwt>
<pdfrwt beam="2">  1       -4 0.10472195E-02 0.12499010E+03</pdfrwt>
<totfact> 0.50127750E+03</totfact>
</mgrwt>
</event>
<event>
 5    1  0.3196850E-002  0.1249953E+03  0.7818608E-02  0.1235077E+00
         -4   -1    0    0    0  501 -0.00000000000E+00  0.00000000000E+00  0.32629827544E+02  0.32654533308E+02  0.12700000000E+01 0. -1.
          4   -1    0    0  501    0  0.00000000000E+00 -0.00000000000E+00 -0.11963179746E+03  0.11963853837E+03  0.12700000000E+01 0. -1.
         25    2    1    2    0    0  0.00000000000E+00  0.00000000000E+00 -0.87001969912E+02  0.15229307168E+03  0.12499534756E+03 0.  0.
    9000005    1    3    3    0    0  0.36891143282E+02 -0.66826733433E+01 -0.10441249581E+03  0.11094405733E+03  0.10000000000E+01 0.  0.
    9000005    1    3    3    0    0 -0.36891143282E+02  0.66826733433E+01  0.17410525894E+02  0.41349014348E+02  0.10000000000E+01 0.  0.
<mgrwt>
<rscale>  0 0.12499535E+03</rscale>
<asrwt>0</asrwt>
<pdfrwt beam="2">  1        4 0.18407311E-01 0.12499535E+03</pdfrwt>
<pdfrwt beam="1">  1       -4 0.50223925E-02 0.12499535E+03</pdfrwt>
<totfact> 0.98858906E+03</totfact>
</mgrwt>
</event>
<event>
 5    1  0.3196850E-002  0.1250001E+03  0.7818608E-02  0.1235069E+00
         -4   -1    0    0    0  501 -0.00000000000E+00  0.00000000000E+00  0.20637154092E+01  0.24231841222E+01  0.12700000000E+01 0. -1.
          4   -1    0    0  501    0  0.00000000000E+00 -0.00000000000E+00 -0.17408229973E+04  0.17408234606E+04  0.12700000000E+01 0. -1.
         25    2    1    2    0    0  0.00000000000E+00  0.00000000000E+00 -0.17387592819E+04  0.17432466447E+04  0.12500009531E+03 0.  0.
    9000005    1    3    3    0    0  0.55242829883E+02  0.44953065438E+01 -0.46680776487E+03  0.47008772307E+03  0.10000000000E+01 0.  0.
    9000005    1    3    3    0    0 -0.55242829883E+02 -0.44953065438E+01 -0.12719515170E+04  0.12731589216E+04  0.10000000000E+01 0.  0.
<mgrwt>
<rscale>  0 0.12500010E+03</rscale>
<asrwt>0</asrwt>
<pdfrwt beam="2">  1        4 0.26784553E+00 0.12500010E+03</pdfrwt>
<pdfrwt beam="1">  1       -4 0.34518315E-03 0.12500010E+03</pdfrwt>
<totfact> 0.13598536E+03</totfact>
</mgrwt>
</event>
<event>
 5    1  0.3196850E-002  0.1250005E+03  0.7818608E-02  0.1235068E+00
         -4   -1    0    0    0  501 -0.00000000000E+00  0.00000000000E+00  0.63350873119E+01  0.64611323504E+01  0.12700000000E+01 0. -1.
          4   -1    0    0  501    0  0.00000000000E+00 -0.00000000000E+00 -0.61041022650E+03  0.61041154766E+03  0.12700000000E+01 0. -1.
         25    2    1    2    0    0  0.00000000000E+00  0.00000000000E+00 -0.60407513918E+03  0.61687268001E+03  0.12500051823E+03 0.  0.
    9000005    1    3    3    0    0  0.45467382055E+02 -0.36191018671E+02 -0.18861828072E+03  0.19737002935E+03  0.10000000000E+01 0.  0.
    9000005    1    3    3    0    0 -0.45467382055E+02  0.36191018671E+02 -0.41545685846E+03  0.41950265065E+03  0.10000000000E+01 0.  0.
<mgrwt>
<rscale>  0 0.12500052E+03</rscale>
<asrwt>0</asrwt>
<pdfrwt beam="2">  1        4 0.93919017E-01 0.12500052E+03</pdfrwt>
<pdfrwt beam="1">  1       -4 0.98442670E-03 0.12500052E+03</pdfrwt>
<totfact> 0.47819064E+03</totfact>
</mgrwt>
</event>
<event>
 5    1  0.3196850E-002  0.1250048E+03  0.7818608E-02  0.1235062E+00
          4   -1    0    0  501    0  0.00000000000E+00  0.00000000000E+00  0.13637941355E+01  0.18635542504E+01  0.12700000000E+01 0. -1.
         -4   -1    0    0    0  501 -0.00000000000E+00 -0.00000000000E+00 -0.24204054701E+04  0.24204058033E+04  0.12700000000E+01 0. -1.
         25    2    1    2    0    0  0.00000000000E+00  0.00000000000E+00 -0.24190416760E+04  0.24222693576E+04  0.12500484157E+03 0.  0.
    9000005    1    3    3    0    0 -0.13509724490E+02 -0.44433398279E+02 -0.39920397151E+03  0.40189756209E+03  0.10000000000E+01 0.  0.
    9000005    1    3    3    0    0  0.13509724490E+02  0.44433398279E+02 -0.20198377045E+04  0.20203717955E+04  0.10000000000E+01 0.  0.
<mgrwt>
<rscale>  0 0.12500484E+03</rscale>
<asrwt>0</asrwt>
<pdfrwt beam="1">  1        4 0.24828514E-03 0.12500484E+03</pdfrwt>
<pdfrwt beam="2">  1       -4 0.37240563E+00 0.12500484E+03</pdfrwt>
<totfact> 0.53087319E+02</totfact>
</mgrwt>
</event>
<event>
 5    1  0.3196850E-002  0.1250003E+03  0.7818608E-02  0.1235069E+00
          4   -1    0    0  501    0  0.00000000000E+00  0.00000000000E+00  0.71949607483E+01  0.73061864313E+01  0.12700000000E+01 0. -1.
         -4   -1    0    0    0  501 -0.00000000000E+00 -0.00000000000E+00 -0.53864080252E+03  0.53864229971E+03  0.12700000000E+01 0. -1.
         25    2    1    2    0    0  0.00000000000E+00  0.00000000000E+00 -0.53144584177E+03  0.54594848614E+03  0.12500026714E+03 0.  0.
    9000005    1    3    3    0    0 -0.46013880998E+02  0.36944994338E+02 -0.35555678653E+03  0.36042175059E+03  0.10000000000E+01 0.  0.
    9000005    1    3    3    0    0  0.46013880998E+02 -0.36944994338E+02 -0.17588905524E+03  0.18552673555E+03  0.10000000000E+01 0.  0.
<mgrwt>
<rscale>  0 0.12500027E+03</rscale>
<asrwt>0</asrwt>
<pdfrwt beam="1">  1        4 0.11155884E-02 0.12500027E+03</pdfrwt>
<pdfrwt beam="2">  1       -4 0.82876456E-01 0.12500027E+03</pdfrwt>
<totfact> 0.52467335E+03</totfact>
</mgrwt>
</event>
<event>
 5    1  0.3196850E-002  0.1250004E+03  0.7818608E-02  0.1235069E+00
         -4   -1    0    0    0  501 -0.00000000000E+00  0.00000000000E+00  0.57198977695E+03  0.57199118685E+03  0.12700000000E+01 0. -1.
          4   -1    0    0  501    0  0.00000000000E+00 -0.00000000000E+00 -0.67688044435E+01  0.68869161164E+01  0.12700000000E+01 0. -1.
         25    2    1    2    0    0  0.00000000000E+00  0.00000000000E+00  0.56522097251E+03  0.57887810297E+03  0.12500044134E+03 0.  0.
    9000005    1    3    3    0    0  0.45320143210E+02 -0.23977504283E+02  0.11715695833E+03  0.12788897129E+03  0.10000000000E+01 0.  0.
    9000005    1    3    3    0    0 -0.45320143210E+02  0.23977504283E+02  0.44806401418E+03  0.45098913168E+03  0.10000000000E+01 0.  0.
<mgrwt>
<rscale>  0 0.12500044E+03</rscale>
<asrwt>0</asrwt>
<pdfrwt beam="2">  1        4 0.10505484E-02 0.12500044E+03</pdfrwt>
<pdfrwt beam="1">  1       -4 0.88007626E-01 0.12500044E+03</pdfrwt>
<totfact> 0.50228129E+03</totfact>
</mgrwt>
</event>
<event>
 5    1  0.3196850E-002  0.1250002E+03  0.7818608E-02  0.1235069E+00
          4   -1    0    0  501    0  0.00000000000E+00  0.00000000000E+00  0.47529572016E+02  0.47546536320E+02  0.12700000000E+01 0. -1.
         -4   -1    0    0    0  501 -0.00000000000E+00 -0.00000000000E+00 -0.82149441022E+02  0.82159257300E+02  0.12700000000E+01 0. -1.
         25    2    1    2    0    0  0.00000000000E+00  0.00000000000E+00 -0.34619869006E+02  0.12970579362E+03  0.12500023027E+03 0.  0.
    9000005    1    3    3    0    0 -0.89320637267E+01 -0.61740237781E+02 -0.13479681409E+02  0.63830561133E+02  0.10000000000E+01 0.  0.
    9000005    1    3    3    0    0  0.89320637267E+01  0.61740237781E+02 -0.21140187597E+02  0.65875232487E+02  0.10000000000E+01 0.  0.
<mgrwt>
<rscale>  0 0.12500023E+03</rscale>
<asrwt>0</asrwt>
<pdfrwt beam="1">  1        4 0.73143019E-02 0.12500023E+03</pdfrwt>
<pdfrwt beam="2">  1       -4 0.12640436E-01 0.12500023E+03</pdfrwt>
<totfact> 0.10350751E+04</totfact>
</mgrwt>
</event>
<event>
 5    1  0.3196850E-002  0.1250037E+03  0.7818608E-02  0.1235064E+00
         -4   -1    0    0    0  501 -0.00000000000E+00  0.00000000000E+00  0.13907912115E+02  0.13965776720E+02  0.12700000000E+01 0. -1.
          4   -1    0    0  501    0  0.00000000000E+00 -0.00000000000E+00 -0.28023937834E+03  0.28024225604E+03  0.12700000000E+01 0. -1.
         25    2    1    2    0    0  0.00000000000E+00  0.00000000000E+00 -0.26633146622E+03  0.29420803276E+03  0.12500366651E+03 0.  0.
    9000005    1    3    3    0    0 -0.38080492052E+02 -0.27970442174E+02 -0.22943352213E+03  0.23425031609E+03  0.10000000000E+01 0.  0.
    9000005    1    3    3    0    0  0.38080492052E+02  0.27970442174E+02 -0.36897944089E+02  0.59957716670E+02  0.10000000000E+01 0.  0.
<mgrwt>
<rscale>  0 0.12500367E+03</rscale>
<asrwt>0</asrwt>
<pdfrwt beam="2">  1        4 0.43118419E-01 0.12500367E+03</pdfrwt>
<pdfrwt beam="1">  1       -4 0.21443515E-02 0.12500367E+03</pdfrwt>
<totfact> 0.76324951E+03</totfact>
</mgrwt>
</event>
<event>
 5    1  0.3196850E-002  0.1249999E+03  0.7818608E-02  0.1235069E+00
          4   -1    0    0  501    0  0.00000000000E+00  0.00000000000E+00  0.45611210673E+02  0.45628888207E+02  0.12700000000E+01 0. -1.
         -4   -1    0    0    0  501 -0.00000000000E+00 -0.00000000000E+00 -0.85603219675E+02  0.85612639948E+02  0.12700000000E+01 0. -1.
         25    2    1    2    0    0  0.00000000000E+00  0.00000000000E+00 -0.39992009002E+02  0.13124152816E+03  0.12499991171E+03 0.  0.
    9000005    1    3    3    0    0 -0.25668955467E+02  0.11877915840E+02 -0.78503412600E+02  0.83449181838E+02  0.10000000000E+01 0.  0.
    9000005    1    3    3    0    0  0.25668955467E+02 -0.11877915840E+02  0.38511403598E+02  0.47792346317E+02  0.10000000000E+01 0.  0.
<mgrwt>
<rscale>  0 0.12499991E+03</rscale>
<asrwt>0</asrwt>
<pdfrwt beam="1">  1        4 0.70191938E-02 0.12499991E+03</pdfrwt>
<pdfrwt beam="2">  1       -4 0.13171811E-01 0.12499991E+03</pdfrwt>
<totfact> 0.10317935E+04</totfact>
</mgrwt>
</event>
<event>
 5    1  0.3196850E-002  0.1250041E+03  0.7818608E-02  0.1235063E+00
          4   -1    0    0  501    0  0.00000000000E+00  0.00000000000E+00  0.32951888643E+03  0.32952133377E+03  0.12700000000E+01 0. -1.
         -4   -1    0    0    0  501 -0.00000000000E+00 -0.00000000000E+00 -0.11818670948E+02  0.11886710351E+02  0.12700000000E+01 0. -1.
         25    2    1    2    0    0  0.00000000000E+00  0.00000000000E+00  0.31770021548E+03  0.34140804412E+03  0.12500410264E+03 0.  0.
    9000005    1    3    3    0    0 -0.38314775633E+02  0.19700386082E+02  0.28249057630E+03  0.28575873204E+03  0.10000000000E+01 0.  0.
    9000005    1    3    3    0    0  0.38314775633E+02 -0.19700386082E+02  0.35209639182E+02  0.55649312080E+02  0.10000000000E+01 0.  0.
<mgrwt>
<rscale>  0 0.12500410E+03</rscale>
<asrwt>0</asrwt>
<pdfrwt beam="1">  1        4 0.50700629E-01 0.12500410E+03</pdfrwt>
<pdfrwt beam="2">  1       -4 0.18236793E-02 0.12500410E+03</pdfrwt>
<totfact> 0.70673817E+03</totfact>
</mgrwt>
</event>
<event>
 5    1  0.3196850E-002  0.1250004E+03  0.7818608E-02  0.1235069E+00
          4   -1    0    0  501    0  0.00000000000E+00  0.00000000000E+00  0.81223846013E+01  0.82210724125E+01  0.12700000000E+01 0.  1.
         -4   -1    0    0    0  501 -0.00000000000E+00 -0.00000000000E+00 -0.47792388830E+03  0.47792557570E+03  0.12700000000E+01 0.  1.
         25    2    1    2    0    0  0.00000000000E+00  0.00000000000E+00 -0.46980150370E+03  0.48614664811E+03  0.12500044237E+03 0.  0.
    9000005    1    3    3    0    0  0.21845829917E+02  0.26367575747E+02 -0.31590751271E+02  0.46598979618E+02  0.10000000000E+01 0.  0.
    9000005    1    3    3    0    0 -0.21845829917E+02 -0.26367575747E+02 -0.43821075243E+03  0.43954766850E+03  0.10000000000E+01 0.  0.
<mgrwt>
<rscale>  0 0.12500044E+03</rscale>
<asrwt>0</asrwt>
<pdfrwt beam="1">  1        4 0.12573192E-02 0.12500044E+03</pdfrwt>
<pdfrwt beam="2">  1       -4 0.73534451E-01 0.12500044E+03</pdfrwt>
<totfact> 0.56954922E+03</totfact>
</mgrwt>
</event>
<event>
 5    1  0.3196850E-002  0.1250002E+03  0.7818608E-02  0.1235069E+00
         -4   -1    0    0    0  501 -0.00000000000E+00  0.00000000000E+00  0.43327942014E+03  0.43328128141E+03  0.12700000000E+01 0. -1.
          4   -1    0    0  501    0  0.00000000000E+00 -0.00000000000E+00 -0.89689561942E+01  0.90584256476E+01  0.12700000000E+01 0. -1.
         25    2    1    2    0    0  0.00000000000E+00  0.00000000000E+00  0.42431046395E+03  0.44233970705E+03  0.12500018649E+03 0.  0.
    9000005    1    3    3    0    0  0.12611465383E+02  0.38379766990E+02  0.38087449501E+03  0.38301231902E+03  0.10000000000E+01 0.  0.
    9000005    1    3    3    0    0 -0.12611465383E+02 -0.38379766990E+02  0.43435968935E+02  0.59327388031E+02  0.10000000000E+01 0.  0.
<mgrwt>
<rscale>  0 0.12500019E+03</rscale>
<asrwt>0</asrwt>
<pdfrwt beam="2">  1        4 0.13868649E-02 0.12500019E+03</pdfrwt>
<pdfrwt beam="1">  1       -4 0.66665393E-01 0.12500019E+03</pdfrwt>
<totfact> 0.60632930E+03</totfact>
</mgrwt>
</event>
<event>
 5    1  0.3196850E-002  0.1250011E+03  0.7818608E-02  0.1235068E+00
          4   -1    0    0  501    0  0.00000000000E+00  0.00000000000E+00  0.19131821678E+03  0.19132243196E+03  0.12700000000E+01 0. -1.
         -4   -1    0    0    0  501 -0.00000000000E+00 -0.00000000000E+00 -0.20393715882E+02  0.20433221662E+02  0.12700000000E+01 0. -1.
         25    2    1    2    0    0  0.00000000000E+00  0.00000000000E+00  0.17092450090E+03  0.21175565363E+03  0.12500108733E+03 0.  0.
    9000005    1    3    3    0    0 -0.75659203570E+01  0.11906432686E+02  0.18859395410E+03  0.18912346711E+03  0.10000000000E+01 0.  0.
    9000005    1    3    3    0    0  0.75659203570E+01 -0.11906432686E+02 -0.17669453197E+02  0.22632186515E+02  0.10000000000E+01 0.  0.
<mgrwt>
<rscale>  0 0.12500109E+03</rscale>
<asrwt>0</asrwt>
<pdfrwt beam="1">  1        4 0.29436935E-01 0.12500109E+03</pdfrwt>
<pdfrwt beam="2">  1       -4 0.31408579E-02 0.12500109E+03</pdfrwt>
<totfact> 0.88187816E+03</totfact>
</mgrwt>
</event>
<event>
 5    1  0.3196850E-002  0.1250109E+03  0.7818608E-02  0.1235052E+00
         -4   -1    0    0    0  501 -0.00000000000E+00  0.00000000000E+00  0.34958792066E+01  0.37194181571E+01  0.12700000000E+01 0. -1.
          4   -1    0    0  501    0  0.00000000000E+00 -0.00000000000E+00 -0.10827345559E+04  0.10827353007E+04  0.12700000000E+01 0. -1.
         25    2    1    2    0    0  0.00000000000E+00  0.00000000000E+00 -0.10792386767E+04  0.10864547189E+04  0.12501093918E+03 0.  0.
    9000005    1    3    3    0    0 -0.58827909212E+02  0.20795608027E+02 -0.50858242470E+03  0.51239658755E+03  0.10000000000E+01 0.  0.
    9000005    1    3    3    0    0  0.58827909212E+02 -0.20795608027E+02 -0.57065625196E+03  0.57405813130E+03  0.10000000000E+01 0.  0.
<mgrwt>
<rscale>  0 0.12501094E+03</rscale>
<asrwt>0</asrwt>
<pdfrwt beam="2">  1        4 0.16659154E+00 0.12501094E+03</pdfrwt>
<pdfrwt beam="1">  1       -4 0.55508103E-03 0.12501094E+03</pdfrwt>
<totfact> 0.27876635E+03</totfact>
</mgrwt>
</event>
<event>
 5    1  0.3196850E-002  0.1250003E+03  0.7818608E-02  0.1235069E+00
          4   -1    0    0  501    0  0.00000000000E+00  0.00000000000E+00  0.61095318538E+01  0.62401345717E+01  0.12700000000E+01 0. -1.
         -4   -1    0    0    0  501 -0.00000000000E+00 -0.00000000000E+00 -0.63248035659E+03  0.63248163165E+03  0.12700000000E+01 0. -1.
         25    2    1    2    0    0  0.00000000000E+00  0.00000000000E+00 -0.62637082474E+03  0.63872176622E+03  0.12500033825E+03 0.  0.
    9000005    1    3    3    0    0  0.54717801140E+02  0.18889117400E+02 -0.43350205355E+03  0.43735096542E+03  0.10000000000E+01 0.  0.
    9000005    1    3    3    0    0 -0.54717801140E+02 -0.18889117400E+02 -0.19286877119E+03  0.20137080081E+03  0.10000000000E+01 0.  0.
<mgrwt>
<rscale>  0 0.12500034E+03</rscale>
<asrwt>0</asrwt>
<pdfrwt beam="1">  1        4 0.95007292E-03 0.12500034E+03</pdfrwt>
<pdfrwt beam="2">  1       -4 0.97314764E-01 0.12500034E+03</pdfrwt>
<totfact> 0.46510818E+03</totfact>
</mgrwt>
</event>
<event>
 5    1  0.3196850E-002  0.1250003E+03  0.7818608E-02  0.1235069E+00
         -4   -1    0    0    0  501 -0.00000000000E+00  0.00000000000E+00  0.14805607737E+03  0.14806152419E+03  0.12700000000E+01 0.  1.
          4   -1    0    0  501    0  0.00000000000E+00 -0.00000000000E+00 -0.26362481972E+02  0.26393055066E+02  0.12700000000E+01 0.  1.
         25    2    1    2    0    0  0.00000000000E+00  0.00000000000E+00  0.12169359540E+03  0.17445457926E+03  0.12500027625E+03 0.  0.
    9000005    1    3    3    0    0  0.34474624034E+02  0.45554631165E+01 -0.11618916817E+02  0.36677665881E+02  0.10000000000E+01 0.  0.
    9000005    1    3    3    0    0 -0.34474624034E+02 -0.45554631165E+01  0.13331251222E+03  0.13777691338E+03  0.10000000000E+01 0.  0.
<mgrwt>
<rscale>  0 0.12500028E+03</rscale>
<asrwt>0</asrwt>
<pdfrwt beam="2">  1        4 0.40585373E-02 0.12500028E+03</pdfrwt>
<pdfrwt beam="1">  1       -4 0.22780629E-01 0.12500028E+03</pdfrwt>
<totfact> 0.94624242E+03</totfact>
</mgrwt>
</event>
<event>
 5    1  0.3196850E-002  0.1250000E+03  0.7818608E-02  0.1235069E+00
          4   -1    0    0  501    0  0.00000000000E+00  0.00000000000E+00  0.44536317516E+02  0.44554421530E+02  0.12700000000E+01 0. -1.
         -4   -1    0    0    0  501 -0.00000000000E+00 -0.00000000000E+00 -0.87668739632E+02  0.87677937982E+02  0.12700000000E+01 0. -1.
         25    2    1    2    0    0  0.00000000000E+00  0.00000000000E+00 -0.43132422116E+02  0.13223235951E+03  0.12499996426E+03 0.  0.
    9000005    1    3    3    0    0  0.58521848155E+01 -0.48441396439E+01 -0.87183622276E+02  0.87519699207E+02  0.10000000000E+01 0.  0.
    9000005    1    3    3    0    0 -0.58521848155E+01  0.48441396439E+01  0.44051200160E+02  0.44712660305E+02  0.10000000000E+01 0.  0.
<mgrwt>
<rscale>  0 0.12499996E+03</rscale>
<asrwt>0</asrwt>
<pdfrwt beam="1">  1        4 0.68538414E-02 0.12499996E+03</pdfrwt>
<pdfrwt beam="2">  1       -4 0.13489599E-01 0.12499996E+03</pdfrwt>
<totfact> 0.10296750E+04</totfact>
</mgrwt>
</event>
<event>
 5    1  0.3196850E-002  0.1250074E+03  0.7818608E-02  0.1235058E+00
         -4   -1    0    0    0  501 -0.00000000000E+00  0.00000000000E+00  0.27574344608E+02  0.27603575503E+02  0.12700000000E+01 0. -1.
          4   -1    0    0  501    0  0.00000000000E+00 -0.00000000000E+00 -0.14157213351E+03  0.14157782979E+03  0.12700000000E+01 0. -1.
         25    2    1    2    0    0  0.00000000000E+00  0.00000000000E+00 -0.11399778890E+03  0.16918140529E+03  0.12500740786E+03 0.  0.
    9000005    1    3    3    0    0 -0.54245681127E+02 -0.10513544202E+01 -0.15022269668E+02  0.56306019687E+02  0.10000000000E+01 0.  0.
    9000005    1    3    3    0    0  0.54245681127E+02  0.10513544202E+01 -0.98975519235E+02  0.11287538560E+03  0.10000000000E+01 0.  0.
<mgrwt>
<rscale>  0 0.12500741E+03</rscale>
<asrwt>0</asrwt>
<pdfrwt beam="2">  1        4 0.21783015E-01 0.12500741E+03</pdfrwt>
<pdfrwt beam="1">  1       -4 0.42448936E-02 0.12500741E+03</pdfrwt>
<totfact> 0.95585408E+03</totfact>
</mgrwt>
</event>
<event>
 5    1  0.3196850E-002  0.1250017E+03  0.7818608E-02  0.1235067E+00
         -4   -1    0    0    0  501 -0.00000000000E+00  0.00000000000E+00  0.20091118538E+02  0.20131218148E+02  0.12700000000E+01 0.  1.
          4   -1    0    0  501    0  0.00000000000E+00 -0.00000000000E+00 -0.19419587748E+03  0.19420003020E+03  0.12700000000E+01 0.  1.
         25    2    1    2    0    0  0.00000000000E+00  0.00000000000E+00 -0.17410475894E+03  0.21433124835E+03  0.12500166772E+03 0.  0.
    9000005    1    3    3    0    0 -0.50424733430E+02 -0.36530067395E+02 -0.96166500454E+02  0.11456917288E+03  0.10000000000E+01 0.  0.
    9000005    1    3    3    0    0  0.50424733430E+02  0.36530067395E+02 -0.77938258488E+02  0.99762075467E+02  0.10000000000E+01 0.  0.
<mgrwt>
<rscale>  0 0.12500167E+03</rscale>
<asrwt>0</asrwt>
<pdfrwt beam="2">  1        4 0.29879692E-01 0.12500167E+03</pdfrwt>
<pdfrwt beam="1">  1       -4 0.30943455E-02 0.12500167E+03</pdfrwt>
<totfact> 0.87770110E+03</totfact>
</mgrwt>
</event>
<event>
 5    1  0.3196850E-002  0.1249979E+03  0.7818608E-02  0.1235073E+00
          4   -1    0    0  501    0  0.00000000000E+00  0.00000000000E+00  0.24117474356E+03  0.24117808738E+03  0.12700000000E+01 0. -1.
         -4   -1    0    0    0  501 -0.00000000000E+00 -0.00000000000E+00 -0.16167869231E+02  0.16217672320E+02  0.12700000000E+01 0. -1.
         25    2    1    2    0    0  0.00000000000E+00  0.00000000000E+00  0.22500687433E+03  0.25739575970E+03  0.12499793444E+03 0.  0.
    9000005    1    3    3    0    0  0.19769653577E+02  0.13652823964E+02  0.23129415794E+03  0.23254080567E+03  0.10000000000E+01 0.  0.
    9000005    1    3    3    0    0 -0.19769653577E+02 -0.13652823964E+02 -0.62872836077E+01  0.24854954031E+02  0.10000000000E+01 0.  0.
<mgrwt>
<rscale>  0 0.12499793E+03</rscale>
<asrwt>0</asrwt>
<pdfrwt beam="1">  1        4 0.37107893E-01 0.12499793E+03</pdfrwt>
<pdfrwt beam="2">  1       -4 0.24914529E-02 0.12499793E+03</pdfrwt>
<totfact> 0.81276662E+03</totfact>
</mgrwt>
</event>
<event>
 5    1  0.3196850E-002  0.1250004E+03  0.7818608E-02  0.1235069E+00
          4   -1    0    0  501    0  0.00000000000E+00  0.00000000000E+00  0.14597482117E+02  0.14652623797E+02  0.12700000000E+01 0. -1.
         -4   -1    0    0    0  501 -0.00000000000E+00 -0.00000000000E+00 -0.26703817965E+03  0.26704119961E+03  0.12700000000E+01 0. -1.
         25    2    1    2    0    0  0.00000000000E+00  0.00000000000E+00 -0.25244069753E+03  0.28169382341E+03  0.12500041750E+03 0.  0.
    9000005    1    3    3    0    0  0.24183157800E+02  0.24513526019E+02 -0.24374079393E+03  0.24616318309E+03  0.10000000000E+01 0.  0.
    9000005    1    3    3    0    0 -0.24183157800E+02 -0.24513526019E+02 -0.86999035945E+01  0.35530640321E+02  0.10000000000E+01 0.  0.
<mgrwt>
<rscale>  0 0.12500042E+03</rscale>
<asrwt>0</asrwt>
<pdfrwt beam="1">  1        4 0.22502406E-02 0.12500042E+03</pdfrwt>
<pdfrwt beam="2">  1       -4 0.41087267E-01 0.12500042E+03</pdfrwt>
<totfact> 0.77953330E+03</totfact>
</mgrwt>
</event>
<event>
 5    1  0.3196850E-002  0.1249987E+03  0.7818608E-02  0.1235071E+00
          4   -1    0    0  501    0  0.00000000000E+00  0.00000000000E+00  0.54842184708E+03  0.54842331757E+03  0.12700000000E+01 0. -1.
         -4   -1    0    0    0  501 -0.00000000000E+00 -0.00000000000E+00 -0.70644566609E+01  0.71777049196E+01  0.12700000000E+01 0. -1.
         25    2    1    2    0    0  0.00000000000E+00  0.00000000000E+00  0.54135739042E+03  0.55560102249E+03  0.12499868811E+03 0.  0.
    9000005    1    3    3    0    0  0.48187150327E+02 -0.25421886032E+02  0.13462734044E+03  0.14523702882E+03  0.10000000000E+01 0.  0.
    9000005    1    3    3    0    0 -0.48187150327E+02  0.25421886032E+02  0.40673004998E+03  0.41036399367E+03  0.10000000000E+01 0.  0.
<mgrwt>
<rscale>  0 0.12499869E+03</rscale>
<asrwt>0</asrwt>
<pdfrwt beam="1">  1        4 0.84381435E-01 0.12499869E+03</pdfrwt>
<pdfrwt beam="2">  1       -4 0.10956638E-02 0.12499869E+03</pdfrwt>
<totfact> 0.51797235E+03</totfact>
</mgrwt>
</event>
<event>
 5    1  0.3196850E-002  0.1250008E+03  0.7818608E-02  0.1235068E+00
          4   -1    0    0  501    0  0.00000000000E+00  0.00000000000E+00  0.18834675093E+02  0.18877443838E+02  0.12700000000E+01 0.  1.
         -4   -1    0    0    0  501 -0.00000000000E+00 -0.00000000000E+00 -0.20711938820E+03  0.20712328182E+03  0.12700000000E+01 0.  1.
         25    2    1    2    0    0  0.00000000000E+00  0.00000000000E+00 -0.18828471311E+03  0.22600072565E+03  0.12500077922E+03 0.  0.
    9000005    1    3    3    0    0 -0.35794272078E+02 -0.39380128974E+02 -0.34910892956E+02  0.63653710958E+02  0.10000000000E+01 0.  0.
    9000005    1    3    3    0    0  0.35794272078E+02  0.39380128974E+02 -0.15337382015E+03  0.16234701470E+03  0.10000000000E+01 0.  0.
<mgrwt>
<rscale>  0 0.12500078E+03</rscale>
<asrwt>0</asrwt>
<pdfrwt beam="1">  1        4 0.29012319E-02 0.12500078E+03</pdfrwt>
<pdfrwt beam="2">  1       -4 0.31868109E-01 0.12500078E+03</pdfrwt>
<totfact> 0.85926003E+03</totfact>
</mgrwt>
</event>
<event>
 5    1  0.3196850E-002  0.1249980E+03  0.7818608E-02  0.1235072E+00
         -4   -1    0    0    0  501 -0.00000000000E+00  0.00000000000E+00  0.81640093976E+02  0.81649971491E+02  0.12700000000E+01 0. -1.
          4   -1    0    0  501    0  0.00000000000E+00 -0.00000000000E+00 -0.47824445678E+02  0.47841305421E+02  0.12700000000E+01 0. -1.
         25    2    1    2    0    0  0.00000000000E+00  0.00000000000E+00  0.33815648298E+02  0.12949127691E+03  0.12499797089E+03 0.  0.
    9000005    1    3    3    0    0 -0.62349918638E+02  0.40031309482E+01  0.15603283362E+02  0.64404967690E+02  0.10000000000E+01 0.  0.
    9000005    1    3    3    0    0  0.62349918638E+02 -0.40031309482E+01  0.18212364936E+02  0.65086309221E+02  0.10000000000E+01 0.  0.
<mgrwt>
<rscale>  0 0.12499797E+03</rscale>
<asrwt>0</asrwt>
<pdfrwt beam="2">  1        4 0.73596638E-02 0.12499797E+03</pdfrwt>
<pdfrwt beam="1">  1       -4 0.12562071E-01 0.12499797E+03</pdfrwt>
<totfact> 0.10355876E+04</totfact>
</mgrwt>
</event>
<event>
 5    1  0.3196850E-002  0.1250007E+03  0.7818608E-02  0.1235068E+00
          4   -1    0    0  501    0  0.00000000000E+00  0.00000000000E+00  0.54867170005E+02  0.54881866262E+02  0.12700000000E+01 0.  1.
         -4   -1    0    0    0  501 -0.00000000000E+00 -0.00000000000E+00 -0.71165594318E+02  0.71176925437E+02  0.12700000000E+01 0.  1.
         25    2    1    2    0    0  0.00000000000E+00  0.00000000000E+00 -0.16298424313E+02  0.12605879170E+03  0.12500072132E+03 0.  0.
    9000005    1    3    3    0    0  0.42413553320E+01  0.46009910075E+02 -0.50581417620E+02  0.68515550998E+02  0.10000000000E+01 0.  0.
    9000005    1    3    3    0    0 -0.42413553320E+01 -0.46009910075E+02  0.34282993307E+02  0.57543240700E+02  0.10000000000E+01 0.  0.
<mgrwt>
<rscale>  0 0.12500072E+03</rscale>
<asrwt>0</asrwt>
<pdfrwt beam="1">  1        4 0.84431053E-02 0.12500072E+03</pdfrwt>
<pdfrwt beam="2">  1       -4 0.10950555E-01 0.12500072E+03</pdfrwt>
<totfact> 0.10429499E+04</totfact>
</mgrwt>
</event>
<event>
 4    1  0.3196850E-002  0.1247047E+03  0.7818608E-02  0.1235532E+00
          4   -1    0    0  501    0  0.00000000000E+00  0.00000000000E+00  0.34160062022E+01  0.36444476088E+01  0.12700000000E+01 0. -1.
         -4   -1    0    0    0  501 -0.00000000000E+00 -0.00000000000E+00 -0.11010639937E+04  0.11010647261E+04  0.12700000000E+01 0. -1.
    9000005    1    1    2    0    0 -0.41541882165E+02 -0.32785847950E+02 -0.84077830811E+03  0.84244275959E+03  0.10000000000E+01 0.  0.
    9000005    1    1    2    0    0  0.41541882165E+02  0.32785847950E+02 -0.25686967938E+03  0.26226641414E+03  0.10000000000E+01 0.  0.
<mgrwt>
<rscale>  0 0.12470467E+03</rscale>
<asrwt>0</asrwt>
<pdfrwt beam="1">  1        4 0.54316905E-03 0.12470467E+03</pdfrwt>
<pdfrwt beam="2">  1       -4 0.16941181E+00 0.12470467E+03</pdfrwt>
<totfact> 0.27522930E+03</totfact>
</mgrwt>
</event>
<event>
 5    1  0.3196850E-002  0.1250004E+03  0.7818608E-02  0.1235069E+00
         -4   -1    0    0    0  501 -0.00000000000E+00  0.00000000000E+00  0.61063220684E+01  0.62369919996E+01  0.12700000000E+01 0.  1.
          4   -1    0    0  501    0  0.00000000000E+00 -0.00000000000E+00 -0.63280642088E+03  0.63280769528E+03  0.12700000000E+01 0.  1.
         25    2    1    2    0    0  0.00000000000E+00  0.00000000000E+00 -0.62670009881E+03  0.63904468728E+03  0.12500039396E+03 0.  0.
    9000005    1    3    3    0    0  0.78518890983E+00  0.19417771016E+02 -0.61699077665E+03  0.61729756587E+03  0.10000000000E+01 0.  0.
    9000005    1    3    3    0    0 -0.78518890983E+00 -0.19417771016E+02 -0.97093221554E+01  0.21747121409E+02  0.10000000000E+01 0.  0.
<mgrwt>
<rscale>  0 0.12500039E+03</rscale>
<asrwt>0</asrwt>
<pdfrwt beam="2">  1        4 0.97364932E-01 0.12500039E+03</pdfrwt>
<pdfrwt beam="1">  1       -4 0.94958423E-03 0.12500039E+03</pdfrwt>
<totfact> 0.46491816E+03</totfact>
</mgrwt>
</event>
<event>
 5    1  0.3196850E-002  0.1250037E+03  0.7818608E-02  0.1235064E+00
          4   -1    0    0  501    0  0.00000000000E+00  0.00000000000E+00  0.49629635666E+02  0.49645882371E+02  0.12700000000E+01 0.  1.
         -4   -1    0    0    0  501 -0.00000000000E+00 -0.00000000000E+00 -0.78678374683E+02  0.78688623973E+02  0.12700000000E+01 0.  1.
         25    2    1    2    0    0  0.00000000000E+00  0.00000000000E+00 -0.29048739016E+02  0.12833450634E+03  0.12500366507E+03 0.  0.
    9000005    1    3    3    0    0  0.33692472193E+02 -0.27581240386E+02 -0.60547105825E+02  0.74584579690E+02  0.10000000000E+01 0.  0.
    9000005    1    3    3    0    0 -0.33692472193E+02  0.27581240386E+02  0.31498366809E+02  0.53749926654E+02  0.10000000000E+01 0.  0.
<mgrwt>
<rscale>  0 0.12500367E+03</rscale>
<asrwt>0</asrwt>
<pdfrwt beam="1">  1        4 0.76373667E-02 0.12500367E+03</pdfrwt>
<pdfrwt beam="2">  1       -4 0.12106403E-01 0.12500367E+03</pdfrwt>
<totfact> 0.10379411E+04</totfact>
</mgrwt>
</event>
<event>
 5    1  0.3196850E-002  0.1250015E+03  0.7818608E-02  0.1235067E+00
          4   -1    0    0  501    0  0.00000000000E+00  0.00000000000E+00  0.55064058636E+02  0.55078702358E+02  0.12700000000E+01 0.  1.
         -4   -1    0    0    0  501 -0.00000000000E+00 -0.00000000000E+00 -0.70912031856E+02  0.70923403485E+02  0.12700000000E+01 0.  1.
         25    2    1    2    0    0  0.00000000000E+00  0.00000000000E+00 -0.15847973220E+02  0.12600210584E+03  0.12500148968E+03 0.  0.
    9000005    1    3    3    0    0  0.13622150105E+02  0.58239406814E+02 -0.26178384350E+02  0.65297008252E+02  0.10000000000E+01 0.  0.
    9000005    1    3    3    0    0 -0.13622150105E+02 -0.58239406814E+02  0.10330411130E+02  0.60705097592E+02  0.10000000000E+01 0.  0.
<mgrwt>
<rscale>  0 0.12500149E+03</rscale>
<asrwt>0</asrwt>
<pdfrwt beam="1">  1        4 0.84733948E-02 0.12500149E+03</pdfrwt>
<pdfrwt beam="2">  1       -4 0.10911545E-01 0.12500149E+03</pdfrwt>
<totfact> 0.10430560E+04</totfact>
</mgrwt>
</event>
<event>
 5    1  0.3196850E-002  0.1249972E+03  0.7818608E-02  0.1235074E+00
          4   -1    0    0  501    0  0.00000000000E+00  0.00000000000E+00  0.16863855842E+03  0.16864334047E+03  0.12700000000E+01 0.  1.
         -4   -1    0    0    0  501 -0.00000000000E+00 -0.00000000000E+00 -0.23139873785E+02  0.23174698677E+02  0.12700000000E+01 0.  1.
         25    2    1    2    0    0  0.00000000000E+00  0.00000000000E+00  0.14549868463E+03  0.19181803915E+03  0.12499717162E+03 0.  0.
    9000005    1    3    3    0    0 -0.53928224049E+02  0.24456981441E+02  0.42108600650E+02  0.72667265938E+02  0.10000000000E+01 0.  0.
    9000005    1    3    3    0    0  0.53928224049E+02 -0.24456981441E+02  0.10339008398E+03  0.11915077321E+03  0.10000000000E+01 0.  0.
<mgrwt>
<rscale>  0 0.12499717E+03</rscale>
<asrwt>0</asrwt>
<pdfrwt beam="1">  1        4 0.25947440E-01 0.12499717E+03</pdfrwt>
<pdfrwt beam="2">  1       -4 0.35630273E-02 0.12499717E+03</pdfrwt>
<totfact> 0.91537739E+03</totfact>
</mgrwt>
</event>
<event>
 5    1  0.3196850E-002  0.1249989E+03  0.7818608E-02  0.1235071E+00
         -4   -1    0    0    0  501 -0.00000000000E+00  0.00000000000E+00  0.18546296627E+03  0.18546731453E+03  0.12700000000E+01 0.  1.
          4   -1    0    0  501    0  0.00000000000E+00 -0.00000000000E+00 -0.21038029108E+02  0.21076327212E+02  0.12700000000E+01 0.  1.
         25    2    1    2    0    0  0.00000000000E+00  0.00000000000E+00  0.16442493716E+03  0.20654364174E+03  0.12499886392E+03 0.  0.
    9000005    1    3    3    0    0  0.19285380827E+02 -0.14205015972E+02  0.17758509816E+03  0.17919591368E+03  0.10000000000E+01 0.  0.
    9000005    1    3    3    0    0 -0.19285380827E+02  0.14205015972E+02 -0.13160160996E+02  0.27347728057E+02  0.10000000000E+01 0.  0.
<mgrwt>
<rscale>  0 0.12499886E+03</rscale>
<asrwt>0</asrwt>
<pdfrwt beam="2">  1        4 0.32399004E-02 0.12499886E+03</pdfrwt>
<pdfrwt beam="1">  1       -4 0.28536044E-01 0.12499886E+03</pdfrwt>
<totfact> 0.89045741E+03</totfact>
</mgrwt>
</event>
<event>
 5    1  0.3196850E-002  0.1250033E+03  0.7818608E-02  0.1235064E+00
          4   -1    0    0  501    0  0.00000000000E+00  0.00000000000E+00  0.39785423056E+02  0.39805687882E+02  0.12700000000E+01 0. -1.
         -4   -1    0    0    0  501 -0.00000000000E+00 -0.00000000000E+00 -0.98138824464E+02  0.98147041561E+02  0.12700000000E+01 0. -1.
         25    2    1    2    0    0  0.00000000000E+00  0.00000000000E+00 -0.58353401408E+02  0.13795272944E+03  0.12500334438E+03 0.  0.
    9000005    1    3    3    0    0  0.49076854718E+02  0.19710942854E+02  0.75648042394E+01  0.53434868769E+02  0.10000000000E+01 0.  0.
    9000005    1    3    3    0    0 -0.49076854718E+02 -0.19710942854E+02 -0.65918205647E+02  0.84517860674E+02  0.10000000000E+01 0.  0.
<mgrwt>
<rscale>  0 0.12500334E+03</rscale>
<asrwt>0</asrwt>
<pdfrwt beam="1">  1        4 0.61230253E-02 0.12500334E+03</pdfrwt>
<pdfrwt beam="2">  1       -4 0.15100471E-01 0.12500334E+03</pdfrwt>
<totfact> 0.10175427E+04</totfact>
</mgrwt>
</event>
<event>
 5    1  0.3196850E-002  0.1250047E+03  0.7818608E-02  0.1235062E+00
         -4   -1    0    0    0  501 -0.00000000000E+00  0.00000000000E+00  0.67375807216E+03  0.67375926911E+03  0.12700000000E+01 0.  1.
          4   -1    0    0  501    0  0.00000000000E+00 -0.00000000000E+00 -0.57273822369E+01  0.58664987247E+01  0.12700000000E+01 0.  1.
         25    2    1    2    0    0  0.00000000000E+00  0.00000000000E+00  0.66803068993E+03  0.67962576783E+03  0.12500472637E+03 0.  0.
    9000005    1    3    3    0    0  0.41388050841E+02 -0.83646798454E+01  0.58449829914E+03  0.58602235480E+03  0.10000000000E+01 0.  0.
    9000005    1    3    3    0    0 -0.41388050841E+02  0.83646798454E+01  0.83532390783E+02  0.93603413032E+02  0.10000000000E+01 0.  0.
<mgrwt>
<rscale>  0 0.12500473E+03</rscale>
<asrwt>0</asrwt>
<pdfrwt beam="2">  1        4 0.89192951E-03 0.12500473E+03</pdfrwt>
<pdfrwt beam="1">  1       -4 0.10366583E+00 0.12500473E+03</pdfrwt>
<totfact> 0.44179718E+03</totfact>
</mgrwt>
</event>
<event>
 5    1  0.3196850E-002  0.1250005E+03  0.7818608E-02  0.1235068E+00
          4   -1    0    0  501    0  0.00000000000E+00  0.00000000000E+00  0.65971658329E+03  0.65971780571E+03  0.12700000000E+01 0. -1.
         -4   -1    0    0    0  501 -0.00000000000E+00 -0.00000000000E+00 -0.58518138943E+01  0.59880402348E+01  0.12700000000E+01 0. -1.
         25    2    1    2    0    0  0.00000000000E+00  0.00000000000E+00  0.65386476939E+03  0.66570584594E+03  0.12500054666E+03 0.  0.
    9000005    1    3    3    0    0 -0.50432486767E+02 -0.24263812988E+02  0.47501113470E+03  0.47829775917E+03  0.10000000000E+01 0.  0.
    9000005    1    3    3    0    0  0.50432486767E+02  0.24263812988E+02  0.17885363470E+03  0.18740808677E+03  0.10000000000E+01 0.  0.
<mgrwt>
<rscale>  0 0.12500055E+03</rscale>
<asrwt>0</asrwt>
<pdfrwt beam="1">  1        4 0.10150547E+00 0.12500055E+03</pdfrwt>
<pdfrwt beam="2">  1       -4 0.91085170E-03 0.12500055E+03</pdfrwt>
<totfact> 0.44959301E+03</totfact>
</mgrwt>
</event>
<event>
 5    1  0.3196850E-002  0.1249931E+03  0.7818608E-02  0.1235080E+00
         -4   -1    0    0    0  501 -0.00000000000E+00  0.00000000000E+00  0.51763723707E+02  0.51779300807E+02  0.12700000000E+01 0.  1.
          4   -1    0    0  501    0  0.00000000000E+00 -0.00000000000E+00 -0.75422486741E+02  0.75433178418E+02  0.12700000000E+01 0.  1.
         25    2    1    2    0    0  0.00000000000E+00  0.00000000000E+00 -0.23658763034E+02  0.12721247922E+03  0.12499311102E+03 0.  0.
    9000005    1    3    3    0    0  0.58691858836E+01  0.38392556114E+02  0.37992694650E+02  0.54340413641E+02  0.10000000000E+01 0.  0.
    9000005    1    3    3    0    0 -0.58691858836E+01 -0.38392556114E+02 -0.61651457684E+02  0.72872065584E+02  0.10000000000E+01 0.  0.
<mgrwt>
<rscale>  0 0.12499311E+03</rscale>
<asrwt>0</asrwt>
<pdfrwt beam="2">  1        4 0.11605480E-01 0.12499311E+03</pdfrwt>
<pdfrwt beam="1">  1       -4 0.79656705E-02 0.12499311E+03</pdfrwt>
<totfact> 0.10406151E+04</totfact>
</mgrwt>
</event>
<event>
 5    1  0.3196850E-002  0.1250014E+03  0.7818608E-02  0.1235067E+00
          4   -1    0    0  501    0  0.00000000000E+00  0.00000000000E+00  0.52785687439E+02  0.52800963044E+02  0.12700000000E+01 0. -1.
         -4   -1    0    0    0  501 -0.00000000000E+00 -0.00000000000E+00 -0.73972263310E+02  0.73983164566E+02  0.12700000000E+01 0. -1.
         25    2    1    2    0    0  0.00000000000E+00  0.00000000000E+00 -0.21186575872E+02  0.12678412761E+03  0.12500137606E+03 0.  0.
    9000005    1    3    3    0    0  0.57764780641E+02 -0.18035004929E+02 -0.26413975677E+02  0.66035819041E+02  0.10000000000E+01 0.  0.
    9000005    1    3    3    0    0 -0.57764780641E+02  0.18035004929E+02  0.52273998055E+01  0.60748308569E+02  0.10000000000E+01 0.  0.
<mgrwt>
<rscale>  0 0.12500138E+03</rscale>
<asrwt>0</asrwt>
<pdfrwt beam="1">  1        4 0.81228886E-02 0.12500138E+03</pdfrwt>
<pdfrwt beam="2">  1       -4 0.11382362E-01 0.12500138E+03</pdfrwt>
<totfact> 0.10413516E+04</totfact>
</mgrwt>
</event>
<event>
 5    1  0.3196850E-002  0.1249975E+03  0.7818608E-02  0.1235073E+00
          4   -1    0    0  501    0  0.00000000000E+00  0.00000000000E+00  0.31671107301E+01  0.34122559073E+01  0.12700000000E+01 0.  1.
         -4   -1    0    0    0  501 -0.00000000000E+00 -0.00000000000E+00 -0.11871319254E+04  0.11871326047E+04  0.12700000000E+01 0.  1.
         25    2    1    2    0    0  0.00000000000E+00  0.00000000000E+00 -0.11839648147E+04  0.11905448606E+04  0.12499753119E+03 0.  0.
    9000005    1    3    3    0    0  0.60814102460E+02  0.42471640837E+01 -0.72282009419E+03  0.72538698777E+03  0.10000000000E+01 0.  0.
    9000005    1    3    3    0    0 -0.60814102460E+02 -0.42471640837E+01 -0.46114472049E+03  0.46515787287E+03  0.10000000000E+01 0.  0.
<mgrwt>
<rscale>  0 0.12499753E+03</rscale>
<asrwt>0</asrwt>
<pdfrwt beam="1">  1        4 0.50615833E-03 0.12499753E+03</pdfrwt>
<pdfrwt beam="2">  1       -4 0.18265425E+00 0.12499753E+03</pdfrwt>
<totfact> 0.24962987E+03</totfact>
</mgrwt>
</event>
<event>
 5    1  0.3196850E-002  0.1249983E+03  0.7818608E-02  0.1235072E+00
         -4   -1    0    0    0  501 -0.00000000000E+00  0.00000000000E+00  0.12170789912E+03  0.12171452505E+03  0.12700000000E+01 0.  1.
          4   -1    0    0  501    0  0.00000000000E+00 -0.00000000000E+00 -0.32074331518E+02  0.32099464829E+02  0.12700000000E+01 0.  1.
         25    2    1    2    0    0  0.00000000000E+00  0.00000000000E+00  0.89633567597E+02  0.15381398987E+03  0.12499826815E+03 0.  0.
    9000005    1    3    3    0    0 -0.12594404052E+02  0.61173610587E+02  0.47372054931E+02  0.78396053689E+02  0.10000000000E+01 0.  0.
    9000005    1    3    3    0    0  0.12594404052E+02 -0.61173610587E+02  0.42261512666E+02  0.75417936185E+02  0.10000000000E+01 0.  0.
<mgrwt>
<rscale>  0 0.12499827E+03</rscale>
<asrwt>0</asrwt>
<pdfrwt beam="2">  1        4 0.49369555E-02 0.12499827E+03</pdfrwt>
<pdfrwt beam="1">  1       -4 0.18726735E-01 0.12499827E+03</pdfrwt>
<totfact> 0.98552636E+03</totfact>
</mgrwt>
</event>
<event>
 5    1  0.3196850E-002  0.1250032E+03  0.7818608E-02  0.1235064E+00
          4   -1    0    0  501    0  0.00000000000E+00  0.00000000000E+00  0.10017270669E+03  0.10018075696E+03  0.12700000000E+01 0.  1.
         -4   -1    0    0    0  501 -0.00000000000E+00 -0.00000000000E+00 -0.38977175361E+02  0.38997860187E+02  0.12700000000E+01 0.  1.
         25    2    1    2    0    0  0.00000000000E+00  0.00000000000E+00  0.61195531331E+02  0.13917861715E+03  0.12500317763E+03 0.  0.
    9000005    1    3    3    0    0 -0.11708646914E+00  0.62252169053E+02  0.36706505311E+02  0.72275264048E+02  0.10000000000E+01 0.  0.
    9000005    1    3    3    0    0  0.11708646914E+00 -0.62252169053E+02  0.24489026020E+02  0.66903353103E+02  0.10000000000E+01 0.  0.
<mgrwt>
<rscale>  0 0.12500318E+03</rscale>
<asrwt>0</asrwt>
<pdfrwt beam="1">  1        4 0.15413396E-01 0.12500318E+03</pdfrwt>
<pdfrwt beam="2">  1       -4 0.59986991E-02 0.12500318E+03</pdfrwt>
<totfact> 0.10149911E+04</totfact>
</mgrwt>
</event>
<event>
 5    1  0.3196850E-002  0.1250001E+03  0.7818608E-02  0.1235069E+00
         -4   -1    0    0    0  501 -0.00000000000E+00  0.00000000000E+00  0.76668945590E+01  0.77713687455E+01  0.12700000000E+01 0. -1.
          4   -1    0    0  501    0  0.00000000000E+00 -0.00000000000E+00 -0.50594367659E+03  0.50594527054E+03  0.12700000000E+01 0. -1.
         25    2    1    2    0    0  0.00000000000E+00  0.00000000000E+00 -0.49827678203E+03  0.51371663929E+03  0.12500013587E+03 0.  0.
    9000005    1    3    3    0    0  0.29401655749E+02  0.14341247124E+02 -0.30312040119E+02  0.44608838878E+02  0.10000000000E+01 0.  0.
    9000005    1    3    3    0    0 -0.29401655749E+02 -0.14341247124E+02 -0.46796474191E+03  0.46910780041E+03  0.10000000000E+01 0.  0.
<mgrwt>
<rscale>  0 0.12500014E+03</rscale>
<asrwt>0</asrwt>
<pdfrwt beam="2">  1        4 0.77845622E-01 0.12500014E+03</pdfrwt>
<pdfrwt beam="1">  1       -4 0.11876817E-02 0.12500014E+03</pdfrwt>
<totfact> 0.54815459E+03</totfact>
</mgrwt>
</event>
<event>
 5    1  0.3196850E-002  0.1250006E+03  0.7818608E-02  0.1235068E+00
         -4   -1    0    0    0  501 -0.00000000000E+00  0.00000000000E+00  0.15196784017E+02  0.15249758833E+02  0.12700000000E+01 0. -1.
          4   -1    0    0  501    0  0.00000000000E+00 -0.00000000000E+00 -0.25654512599E+03  0.25654826947E+03  0.12700000000E+01 0. -1.
         25    2    1    2    0    0  0.00000000000E+00  0.00000000000E+00 -0.24134834197E+03  0.27179802830E+03  0.12500058407E+03 0.  0.
    9000005    1    3    3    0    0 -0.53268715492E+02  0.91585033295E+01 -0.18887650006E+03  0.19646059786E+03  0.10000000000E+01 0.  0.
    9000005    1    3    3    0    0  0.53268715492E+02 -0.91585033295E+01 -0.52471841907E+02  0.75337430448E+02  0.10000000000E+01 0.  0.
<mgrwt>
<rscale>  0 0.12500058E+03</rscale>
<asrwt>0</asrwt>
<pdfrwt beam="2">  1        4 0.39472795E-01 0.12500058E+03</pdfrwt>
<pdfrwt beam="1">  1       -4 0.23422838E-02 0.12500058E+03</pdfrwt>
<totfact> 0.79277321E+03</totfact>
</mgrwt>
</event>
<event>
 5    1  0.3196850E-002  0.1250015E+03  0.7818608E-02  0.1235067E+00
         -4   -1    0    0    0  501 -0.00000000000E+00  0.00000000000E+00  0.17230509951E+03  0.17230977980E+03  0.12700000000E+01 0. -1.
          4   -1    0    0  501    0  0.00000000000E+00 -0.00000000000E+00 -0.22648308235E+02  0.22683887804E+02  0.12700000000E+01 0. -1.
         25    2    1    2    0    0  0.00000000000E+00  0.00000000000E+00  0.14965679127E+03  0.19499366761E+03  0.12500150092E+03 0.  0.
    9000005    1    3    3    0    0  0.14685539086E+02  0.53275107829E+02  0.29310442748E+02  0.62562003057E+02  0.10000000000E+01 0.  0.
    9000005    1    3    3    0    0 -0.14685539086E+02 -0.53275107829E+02  0.12034634853E+03  0.13243166455E+03  0.10000000000E+01 0.  0.
<mgrwt>
<rscale>  0 0.12500150E+03</rscale>
<asrwt>0</asrwt>
<pdfrwt beam="2">  1        4 0.34874520E-02 0.12500150E+03</pdfrwt>
<pdfrwt beam="1">  1       -4 0.26511574E-01 0.12500150E+03</pdfrwt>
<totfact> 0.90982562E+03</totfact>
</mgrwt>
</event>
<event>
 5    1  0.3196850E-002  0.1250015E+03  0.7818608E-02  0.1235067E+00
         -4   -1    0    0    0  501 -0.00000000000E+00  0.00000000000E+00  0.35270069118E+01  0.37486901387E+01  0.12700000000E+01 0. -1.
          4   -1    0    0  501    0  0.00000000000E+00 -0.00000000000E+00 -0.10735843001E+04  0.10735850512E+04  0.12700000000E+01 0. -1.
         25    2    1    2    0    0  0.00000000000E+00  0.00000000000E+00 -0.10700572931E+04  0.10773337414E+04  0.12500151872E+03 0.  0.
    9000005    1    3    3    0    0  0.27787067928E+01 -0.47887644191E+02 -0.18981263884E+03  0.19578249549E+03  0.10000000000E+01 0.  0.
    9000005    1    3    3    0    0 -0.27787067928E+01  0.47887644191E+02 -0.88024465430E+03  0.88155124588E+03  0.10000000000E+01 0.  0.
<mgrwt>
<rscale>  0 0.12500152E+03</rscale>
<asrwt>0</asrwt>
<pdfrwt beam="2">  1        4 0.16518367E+00 0.12500152E+03</pdfrwt>
<pdfrwt beam="1">  1       -4 0.55972764E-03 0.12500152E+03</pdfrwt>
<totfact> 0.28155534E+03</totfact>
</mgrwt>
</event>
<event>
 5    1  0.3196850E-002  0.1250030E+03  0.7818608E-02  0.1235065E+00
         -4   -1    0    0    0  501 -0.00000000000E+00  0.00000000000E+00  0.10897954227E+03  0.10898694204E+03  0.12700000000E+01 0.  1.
          4   -1    0    0  501    0  0.00000000000E+00 -0.00000000000E+00 -0.35825744295E+02  0.35848247576E+02  0.12700000000E+01 0.  1.
         25    2    1    2    0    0  0.00000000000E+00  0.00000000000E+00  0.73153797979E+02  0.14483518961E+03  0.12500301593E+03 0.  0.
    9000005    1    3    3    0    0  0.30828746761E+02  0.24260471951E+02  0.92941034716E+02  0.10088616387E+03  0.10000000000E+01 0.  0.
    9000005    1    3    3    0    0 -0.30828746761E+02 -0.24260471951E+02 -0.19787236736E+02  0.43949025744E+02  0.10000000000E+01 0.  0.
<mgrwt>
<rscale>  0 0.12500302E+03</rscale>
<asrwt>0</asrwt>
<pdfrwt beam="2">  1        4 0.55139531E-02 0.12500302E+03</pdfrwt>
<pdfrwt beam="1">  1       -4 0.16768384E-01 0.12500302E+03</pdfrwt>
<totfact> 0.10033657E+04</totfact>
</mgrwt>
</event>
<event>
 5    1  0.3196850E-002  0.1250059E+03  0.7818608E-02  0.1235060E+00
          4   -1    0    0  501    0  0.00000000000E+00  0.00000000000E+00  0.16538921251E+03  0.16539408851E+03  0.12700000000E+01 0. -1.
         -4   -1    0    0    0  501 -0.00000000000E+00 -0.00000000000E+00 -0.23598461844E+02  0.23632610973E+02  0.12700000000E+01 0. -1.
         25    2    1    2    0    0  0.00000000000E+00  0.00000000000E+00  0.14179075066E+03  0.18902669948E+03  0.12500590443E+03 0.  0.
    9000005    1    3    3    0    0 -0.16132619025E+02  0.56964243883E+02  0.10115456653E+03  0.11721106094E+03  0.10000000000E+01 0.  0.
    9000005    1    3    3    0    0  0.16132619025E+02 -0.56964243883E+02  0.40636184132E+02  0.71815638538E+02  0.10000000000E+01 0.  0.
<mgrwt>
<rscale>  0 0.12500590E+03</rscale>
<asrwt>0</asrwt>
<pdfrwt beam="1">  1        4 0.25447496E-01 0.12500590E+03</pdfrwt>
<pdfrwt beam="2">  1       -4 0.36335346E-02 0.12500590E+03</pdfrwt>
<totfact> 0.92004772E+03</totfact>
</mgrwt>
</event>
<event>
 5    1  0.3196850E-002  0.1250037E+03  0.7818608E-02  0.1235063E+00
         -4   -1    0    0    0  501 -0.00000000000E+00  0.00000000000E+00  0.18384698544E+02  0.18428511621E+02  0.12700000000E+01 0. -1.
          4   -1    0    0  501    0  0.00000000000E+00 -0.00000000000E+00 -0.21218695324E+03  0.21219075386E+03  0.12700000000E+01 0. -1.
         25    2    1    2    0    0  0.00000000000E+00  0.00000000000E+00 -0.19380225470E+03  0.23061926548E+03  0.12500372669E+03 0.  0.
    9000005    1    3    3    0    0  0.49013290662E+02 -0.35328255819E+02 -0.67434986699E+02  0.90547588327E+02  0.10000000000E+01 0.  0.
    9000005    1    3    3    0    0 -0.49013290662E+02  0.35328255819E+02 -0.12636726800E+03  0.14007167716E+03  0.10000000000E+01 0.  0.
<mgrwt>
<rscale>  0 0.12500373E+03</rscale>
<asrwt>0</asrwt>
<pdfrwt beam="2">  1        4 0.32647808E-01 0.12500373E+03</pdfrwt>
<pdfrwt beam="1">  1       -4 0.28320779E-02 0.12500373E+03</pdfrwt>
<totfact> 0.85207515E+03</totfact>
</mgrwt>
</event>
<event>
 5    1  0.3196850E-002  0.1249983E+03  0.7818608E-02  0.1235072E+00
          4   -1    0    0  501    0  0.00000000000E+00  0.00000000000E+00  0.15070166113E+03  0.15070701234E+03  0.12700000000E+01 0.  1.
         -4   -1    0    0    0  501 -0.00000000000E+00 -0.00000000000E+00 -0.25898342735E+02  0.25929463096E+02  0.12700000000E+01 0.  1.
         25    2    1    2    0    0  0.00000000000E+00  0.00000000000E+00  0.12480331840E+03  0.17663647544E+03  0.12499830467E+03 0.  0.
    9000005    1    3    3    0    0 -0.16359971582E+02  0.59963380685E+02  0.71547484286E+02  0.94780262719E+02  0.10000000000E+01 0.  0.
    9000005    1    3    3    0    0  0.16359971582E+02 -0.59963380685E+02  0.53255834114E+02  0.81856212718E+02  0.10000000000E+01 0.  0.
<mgrwt>
<rscale>  0 0.12499830E+03</rscale>
<asrwt>0</asrwt>
<pdfrwt beam="1">  1        4 0.23187677E-01 0.12499830E+03</pdfrwt>
<pdfrwt beam="2">  1       -4 0.39871659E-02 0.12499830E+03</pdfrwt>
<totfact> 0.94229559E+03</totfact>
</mgrwt>
</event>
<event>
 5    1  0.3196850E-002  0.1250015E+03  0.7818608E-02  0.1235067E+00
          4   -1    0    0  501    0  0.00000000000E+00  0.00000000000E+00  0.28927772898E+02  0.28955637531E+02  0.12700000000E+01 0.  1.
         -4   -1    0    0    0  501 -0.00000000000E+00 -0.00000000000E+00 -0.13494189950E+03  0.13494787564E+03  0.12700000000E+01 0.  1.
         25    2    1    2    0    0  0.00000000000E+00  0.00000000000E+00 -0.10601412660E+03  0.16390351317E+03  0.12500146636E+03 0.  0.
    9000005    1    3    3    0    0 -0.16679828386E+02  0.25882419892E+02  0.18297177867E+02  0.35831592937E+02  0.10000000000E+01 0.  0.
    9000005    1    3    3    0    0  0.16679828386E+02 -0.25882419892E+02 -0.12431130446E+03  0.12807192023E+03  0.10000000000E+01 0.  0.
<mgrwt>
<rscale>  0 0.12500147E+03</rscale>
<asrwt>0</asrwt>
<pdfrwt beam="1">  1        4 0.44530298E-02 0.12500147E+03</pdfrwt>
<pdfrwt beam="2">  1       -4 0.20762895E-01 0.12500147E+03</pdfrwt>
<totfact> 0.96592271E+03</totfact>
</mgrwt>
</event>
<event>
 5    1  0.3196850E-002  0.1249985E+03  0.7818608E-02  0.1235072E+00
          4   -1    0    0  501    0  0.00000000000E+00  0.00000000000E+00  0.32497677753E+03  0.32497925908E+03  0.12700000000E+01 0. -1.
         -4   -1    0    0    0  501 -0.00000000000E+00 -0.00000000000E+00 -0.11983722430E+02  0.12050829983E+02  0.12700000000E+01 0. -1.
         25    2    1    2    0    0  0.00000000000E+00  0.00000000000E+00  0.31299305510E+03  0.33703008907E+03  0.12499851357E+03 0.  0.
    9000005    1    3    3    0    0 -0.75249435943E+01 -0.60744281836E+02  0.12253370512E+03  0.13697445544E+03  0.10000000000E+01 0.  0.
    9000005    1    3    3    0    0  0.75249435943E+01  0.60744281836E+02  0.19045934998E+03  0.20005563363E+03  0.10000000000E+01 0.  0.
<mgrwt>
<rscale>  0 0.12499851E+03</rscale>
<asrwt>0</asrwt>
<pdfrwt beam="1">  1        4 0.50001780E-01 0.12499851E+03</pdfrwt>
<pdfrwt beam="2">  1       -4 0.18490026E-02 0.12499851E+03</pdfrwt>
<totfact> 0.71177716E+03</totfact>
</mgrwt>
</event>
<event>
 5    1  0.3196850E-002  0.1249985E+03  0.7818608E-02  0.1235072E+00
         -4   -1    0    0    0  501 -0.00000000000E+00  0.00000000000E+00  0.34210139956E+02  0.34233705260E+02  0.12700000000E+01 0. -1.
          4   -1    0    0  501    0  0.00000000000E+00 -0.00000000000E+00 -0.11411483422E+03  0.11412190100E+03  0.12700000000E+01 0. -1.
         25    2    1    2    0    0  0.00000000000E+00  0.00000000000E+00 -0.79904694263E+02  0.14835560626E+03  0.12499850297E+03 0.  0.
    9000005    1    3    3    0    0 -0.32010256702E+02 -0.37505014042E+02  0.56124356061E+01  0.49636499130E+02  0.10000000000E+01 0.  0.
    9000005    1    3    3    0    0  0.32010256702E+02  0.37505014042E+02 -0.85517129869E+02  0.98719107135E+02  0.10000000000E+01 0.  0.
<mgrwt>
<rscale>  0 0.12499850E+03</rscale>
<asrwt>0</asrwt>
<pdfrwt beam="2">  1        4 0.17558484E-01 0.12499850E+03</pdfrwt>
<pdfrwt beam="1">  1       -4 0.52654548E-02 0.12499850E+03</pdfrwt>
<totfact> 0.99635856E+03</totfact>
</mgrwt>
</event>
<event>
 5    1  0.3196850E-002  0.1249959E+03  0.7818608E-02  0.1235076E+00
          4   -1    0    0  501    0  0.00000000000E+00  0.00000000000E+00  0.26684459821E+03  0.26684762037E+03  0.12700000000E+01 0.  1.
         -4   -1    0    0    0  501 -0.00000000000E+00 -0.00000000000E+00 -0.14607044408E+02  0.14662150127E+02  0.12700000000E+01 0.  1.
         25    2    1    2    0    0  0.00000000000E+00  0.00000000000E+00  0.25223755381E+03  0.28150977050E+03  0.12499586927E+03 0.  0.
    9000005    1    3    3    0    0 -0.43659188191E+02  0.33405908651E+02  0.19303888234E+03  0.20071644064E+03  0.10000000000E+01 0.  0.
    9000005    1    3    3    0    0  0.43659188191E+02 -0.33405908651E+02  0.59198671461E+02  0.80793329855E+02  0.10000000000E+01 0.  0.
<mgrwt>
<rscale>  0 0.12499587E+03</rscale>
<asrwt>0</asrwt>
<pdfrwt beam="1">  1        4 0.41057484E-01 0.12499587E+03</pdfrwt>
<pdfrwt beam="2">  1       -4 0.22517091E-02 0.12499587E+03</pdfrwt>
<totfact> 0.77985506E+03</totfact>
</mgrwt>
</event>
<event>
 5    1  0.3196850E-002  0.1250021E+03  0.7818608E-02  0.1235066E+00
          4   -1    0    0  501    0  0.00000000000E+00  0.00000000000E+00  0.11056742613E+01  0.16838692266E+01  0.12700000000E+01 0.  1.
         -4   -1    0    0    0  501 -0.00000000000E+00 -0.00000000000E+00 -0.28001517196E+04  0.28001520076E+04  0.12700000000E+01 0.  1.
         25    2    1    2    0    0  0.00000000000E+00  0.00000000000E+00 -0.27990460454E+04  0.28018358769E+04  0.12500206702E+03 0.  0.
    9000005    1    3    3    0    0  0.48111269483E+02  0.39624622312E+02 -0.12978542799E+04  0.12993504288E+04  0.10000000000E+01 0.  0.
    9000005    1    3    3    0    0 -0.48111269483E+02 -0.39624622312E+02 -0.15011917655E+04  0.15024854481E+04  0.10000000000E+01 0.  0.
<mgrwt>
<rscale>  0 0.12500207E+03</rscale>
<asrwt>0</asrwt>
<pdfrwt beam="1">  1        4 0.21460466E-03 0.12500207E+03</pdfrwt>
<pdfrwt beam="2">  1       -4 0.43083257E+00 0.12500207E+03</pdfrwt>
<totfact> 0.27081715E+02</totfact>
</mgrwt>
</event>
<event>
 5    1  0.3196850E-002  0.1250067E+03  0.7818608E-02  0.1235059E+00
         -4   -1    0    0    0  501 -0.00000000000E+00  0.00000000000E+00  0.31987545621E+02  0.32012747068E+02  0.12700000000E+01 0.  1.
          4   -1    0    0  501    0  0.00000000000E+00 -0.00000000000E+00 -0.12205441083E+03  0.12206101795E+03  0.12700000000E+01 0.  1.
         25    2    1    2    0    0  0.00000000000E+00  0.00000000000E+00 -0.90066865212E+02  0.15407376502E+03  0.12500673925E+03 0.  0.
    9000005    1    3    3    0    0 -0.15900682811E+02 -0.59941087027E+02 -0.54573005521E+02  0.82613428445E+02  0.10000000000E+01 0.  0.
    9000005    1    3    3    0    0  0.15900682811E+02  0.59941087027E+02 -0.35493859691E+02  0.71460336576E+02  0.10000000000E+01 0.  0.
<mgrwt>
<rscale>  0 0.12500674E+03</rscale>
<asrwt>0</asrwt>
<pdfrwt beam="2">  1        4 0.18780048E-01 0.12500674E+03</pdfrwt>
<pdfrwt beam="1">  1       -4 0.49236077E-02 0.12500674E+03</pdfrwt>
<totfact> 0.98482709E+03</totfact>
</mgrwt>
</event>
<event>
 5    1  0.3196850E-002  0.1250013E+03  0.7818608E-02  0.1235067E+00
          4   -1    0    0  501    0  0.00000000000E+00  0.00000000000E+00  0.11374430744E+02  0.11445111391E+02  0.12700000000E+01 0.  1.
         -4   -1    0    0    0  501 -0.00000000000E+00 -0.00000000000E+00 -0.34229555243E+03  0.34229790843E+03  0.12700000000E+01 0.  1.
         25    2    1    2    0    0  0.00000000000E+00  0.00000000000E+00 -0.33092112168E+03  0.35374301982E+03  0.12500134116E+03 0.  0.
    9000005    1    3    3    0    0  0.24519325763E+02 -0.53733162179E+02 -0.22324098157E+03  0.23092419948E+03  0.10000000000E+01 0.  0.
    9000005    1    3    3    0    0 -0.24519325763E+02  0.53733162179E+02 -0.10768014012E+03  0.12281882034E+03  0.10000000000E+01 0.  0.
<mgrwt>
<rscale>  0 0.12500134E+03</rscale>
<asrwt>0</asrwt>
<pdfrwt beam="1">  1        4 0.17555309E-02 0.12500134E+03</pdfrwt>
<pdfrwt beam="2">  1       -4 0.52666465E-01 0.12500134E+03</pdfrwt>
<totfact> 0.69312678E+03</totfact>
</mgrwt>
</event>
<event>
 5    1  0.3196850E-002  0.1249995E+03  0.7818608E-02  0.1235070E+00
          4   -1    0    0  501    0  0.00000000000E+00  0.00000000000E+00  0.19222809733E+03  0.19223229256E+03  0.12700000000E+01 0.  1.
         -4   -1    0    0    0  501 -0.00000000000E+00 -0.00000000000E+00 -0.20296492611E+02  0.20336187261E+02  0.12700000000E+01 0.  1.
         25    2    1    2    0    0  0.00000000000E+00  0.00000000000E+00  0.17193160471E+03  0.21256847982E+03  0.12499952765E+03 0.  0.
    9000005    1    3    3    0    0 -0.35876108645E+02  0.11960588048E+02  0.17056849905E+03  0.17471337587E+03  0.10000000000E+01 0.  0.
    9000005    1    3    3    0    0  0.35876108645E+02 -0.11960588048E+02  0.13631056604E+01  0.37855103949E+02  0.10000000000E+01 0.  0.
<mgrwt>
<rscale>  0 0.12499953E+03</rscale>
<asrwt>0</asrwt>
<pdfrwt beam="1">  1        4 0.29576928E-01 0.12499953E+03</pdfrwt>
<pdfrwt beam="2">  1       -4 0.31259136E-02 0.12499953E+03</pdfrwt>
<totfact> 0.88059055E+03</totfact>
</mgrwt>
</event>
<event>
 5    1  0.3196850E-002  0.1250067E+03  0.7818608E-02  0.1235059E+00
          4   -1    0    0  501    0  0.00000000000E+00  0.00000000000E+00  0.58260267696E+02  0.58274108247E+02  0.12700000000E+01 0.  1.
         -4   -1    0    0    0  501 -0.00000000000E+00 -0.00000000000E+00 -0.67027591052E+02  0.67039621584E+02  0.12700000000E+01 0.  1.
         25    2    1    2    0    0  0.00000000000E+00  0.00000000000E+00 -0.87673233556E+01  0.12531372983E+03  0.12500665952E+03 0.  0.
    9000005    1    3    3    0    0  0.45499262695E+02  0.21440585504E+02  0.32799021953E+02  0.60055453155E+02  0.10000000000E+01 0.  0.
    9000005    1    3    3    0    0 -0.45499262695E+02 -0.21440585504E+02 -0.41566345309E+02  0.65258276677E+02  0.10000000000E+01 0.  0.
<mgrwt>
<rscale>  0 0.12500666E+03</rscale>
<asrwt>0</asrwt>
<pdfrwt beam="1">  1        4 0.89651082E-02 0.12500666E+03</pdfrwt>
<pdfrwt beam="2">  1       -4 0.10313927E-01 0.12500666E+03</pdfrwt>
<totfact> 0.10444480E+04</totfact>
</mgrwt>
</event>
<event>
 5    1  0.3196850E-002  0.1250010E+03  0.7818608E-02  0.1235068E+00
          4   -1    0    0  501    0  0.00000000000E+00  0.00000000000E+00  0.10279702132E+02  0.10357855759E+02  0.12700000000E+01 0.  1.
         -4   -1    0    0    0  501 -0.00000000000E+00 -0.00000000000E+00 -0.37848408941E+03  0.37848622014E+03  0.12700000000E+01 0.  1.
         25    2    1    2    0    0  0.00000000000E+00  0.00000000000E+00 -0.36820438728E+03  0.38884407590E+03  0.12500097820E+03 0.  0.
    9000005    1    3    3    0    0 -0.21179385029E+02 -0.48165505737E+02 -0.79218102948E+02  0.95105153003E+02  0.10000000000E+01 0.  0.
    9000005    1    3    3    0    0  0.21179385029E+02  0.48165505737E+02 -0.28898628433E+03  0.29373892290E+03  0.10000000000E+01 0.  0.
<mgrwt>
<rscale>  0 0.12500098E+03</rscale>
<asrwt>0</asrwt>
<pdfrwt beam="1">  1        4 0.15876686E-02 0.12500098E+03</pdfrwt>
<pdfrwt beam="2">  1       -4 0.58234486E-01 0.12500098E+03</pdfrwt>
<totfact> 0.65651044E+03</totfact>
</mgrwt>
</event>
<event>
 5    1  0.3196850E-002  0.1249973E+03  0.7818608E-02  0.1235074E+00
         -4   -1    0    0    0  501 -0.00000000000E+00  0.00000000000E+00  0.31022934502E+02  0.31048918904E+02  0.12700000000E+01 0.  1.
          4   -1    0    0  501    0  0.00000000000E+00 -0.00000000000E+00 -0.12582747166E+03  0.12583388067E+03  0.12700000000E+01 0.  1.
         25    2    1    2    0    0  0.00000000000E+00  0.00000000000E+00 -0.94804537154E+02  0.15688279957E+03  0.12499725011E+03 0.  0.
    9000005    1    3    3    0    0  0.63200996308E+01 -0.52725217649E+02 -0.60568928719E+01  0.53456320362E+02  0.10000000000E+01 0.  0.
    9000005    1    3    3    0    0 -0.63200996308E+01  0.52725217649E+02 -0.88747644282E+02  0.10342647921E+03  0.10000000000E+01 0.  0.
<mgrwt>
<rscale>  0 0.12499725E+03</rscale>
<asrwt>0</asrwt>
<pdfrwt beam="2">  1        4 0.19360564E-01 0.12499725E+03</pdfrwt>
<pdfrwt beam="1">  1       -4 0.47752510E-02 0.12499725E+03</pdfrwt>
<totfact> 0.97953201E+03</totfact>
</mgrwt>
</event>
<event>
 5    1  0.3196850E-002  0.1250011E+03  0.7818608E-02  0.1235068E+00
         -4   -1    0    0    0  501 -0.00000000000E+00  0.00000000000E+00  0.33804328448E+02  0.33828176448E+02  0.12700000000E+01 0. -1.
          4   -1    0    0  501    0  0.00000000000E+00 -0.00000000000E+00 -0.11548868930E+03  0.11549567202E+03  0.12700000000E+01 0. -1.
         25    2    1    2    0    0  0.00000000000E+00  0.00000000000E+00 -0.81684360849E+02  0.14932384847E+03  0.12500110765E+03 0.  0.
    9000005    1    3    3    0    0  0.11245108260E+02 -0.15455375588E+02  0.30232813217E+02  0.35781896111E+02  0.10000000000E+01 0.  0.
    9000005    1    3    3    0    0 -0.11245108260E+02  0.15455375588E+02 -0.11191717407E+03  0.11354195236E+03  0.10000000000E+01 0.  0.
<mgrwt>
<rscale>  0 0.12500111E+03</rscale>
<asrwt>0</asrwt>
<pdfrwt beam="2">  1        4 0.17769862E-01 0.12500111E+03</pdfrwt>
<pdfrwt beam="1">  1       -4 0.52030376E-02 0.12500111E+03</pdfrwt>
<totfact> 0.99436170E+03</totfact>
</mgrwt>
</event>
<event>
 5    1  0.3196850E-002  0.1250013E+03  0.7818608E-02  0.1235067E+00
          4   -1    0    0  501    0  0.00000000000E+00  0.00000000000E+00  0.95495785040E+02  0.95504229542E+02  0.12700000000E+01 0.  1.
         -4   -1    0    0    0  501 -0.00000000000E+00 -0.00000000000E+00 -0.40885677907E+02  0.40905397662E+02  0.12700000000E+01 0.  1.
         25    2    1    2    0    0  0.00000000000E+00  0.00000000000E+00  0.54610107134E+02  0.13640962720E+03  0.12500129037E+03 0.  0.
    9000005    1    3    3    0    0 -0.33979926319E+02 -0.13990272513E+02 -0.27854814474E+02  0.46122161777E+02  0.10000000000E+01 0.  0.
    9000005    1    3    3    0    0  0.33979926319E+02  0.13990272513E+02  0.82464921607E+02  0.90287465428E+02  0.10000000000E+01 0.  0.
<mgrwt>
<rscale>  0 0.12500129E+03</rscale>
<asrwt>0</asrwt>
<pdfrwt beam="1">  1        4 0.14693826E-01 0.12500129E+03</pdfrwt>
<pdfrwt beam="2">  1       -4 0.62922709E-02 0.12500129E+03</pdfrwt>
<totfact> 0.10208147E+04</totfact>
</mgrwt>
</event>
<event>
 5    1  0.3196850E-002  0.1249968E+03  0.7818608E-02  0.1235074E+00
         -4   -1    0    0    0  501 -0.00000000000E+00  0.00000000000E+00  0.17192924541E+04  0.17192929232E+04  0.12700000000E+01 0.  1.
          4   -1    0    0  501    0  0.00000000000E+00 -0.00000000000E+00 -0.20939048731E+01  0.24489462259E+01  0.12700000000E+01 0.  1.
         25    2    1    2    0    0  0.00000000000E+00  0.00000000000E+00  0.17171985493E+04  0.17217418694E+04  0.12499682927E+03 0.  0.
    9000005    1    3    3    0    0  0.56927462318E+02 -0.18915124140E+02  0.61743757770E+03  0.62034561354E+03  0.10000000000E+01 0.  0.
    9000005    1    3    3    0    0 -0.56927462318E+02  0.18915124140E+02  0.10997609716E+04  0.11013962559E+04  0.10000000000E+01 0.  0.
<mgrwt>
<rscale>  0 0.12499683E+03</rscale>
<asrwt>0</asrwt>
<pdfrwt beam="2">  1        4 0.34948701E-03 0.12499683E+03</pdfrwt>
<pdfrwt beam="1">  1       -4 0.26453324E+00 0.12499683E+03</pdfrwt>
<totfact> 0.13949400E+03</totfact>
</mgrwt>
</event>
<event>
 5    1  0.3196850E-002  0.1249877E+03  0.7818608E-02  0.1235089E+00
         -4   -1    0    0    0  501 -0.00000000000E+00  0.00000000000E+00  0.15652338162E+02  0.15703776295E+02  0.12700000000E+01 0. -1.
          4   -1    0    0  501    0  0.00000000000E+00 -0.00000000000E+00 -0.24905177225E+03  0.24905501031E+03  0.12700000000E+01 0. -1.
         25    2    1    2    0    0  0.00000000000E+00  0.00000000000E+00 -0.23339943409E+03  0.26475878661E+03  0.12498767640E+03 0.  0.
    9000005    1    3    3    0    0  0.31649420986E+01  0.41285755161E+02 -0.17570831093E+02  0.44991827513E+02  0.10000000000E+01 0.  0.
    9000005    1    3    3    0    0 -0.31649420986E+01 -0.41285755161E+02 -0.21582860300E+03  0.21976695909E+03  0.10000000000E+01 0.  0.
<mgrwt>
<rscale>  0 0.12498768E+03</rscale>
<asrwt>0</asrwt>
<pdfrwt beam="2">  1        4 0.38319860E-01 0.12498768E+03</pdfrwt>
<pdfrwt beam="1">  1       -4 0.24122581E-02 0.12498768E+03</pdfrwt>
<totfact> 0.80264847E+03</totfact>
</mgrwt>
</event>
<event>
 5    1  0.3196850E-002  0.1250037E+03  0.7818608E-02  0.1235063E+00
         -4   -1    0    0    0  501 -0.00000000000E+00  0.00000000000E+00  0.15670249873E+02  0.15721629403E+02  0.12700000000E+01 0.  1.
          4   -1    0    0  501    0  0.00000000000E+00 -0.00000000000E+00 -0.24883201387E+03  0.24883525479E+03  0.12700000000E+01 0.  1.
         25    2    1    2    0    0  0.00000000000E+00  0.00000000000E+00 -0.23316176399E+03  0.26455688419E+03  0.12500374708E+03 0.  0.
    9000005    1    3    3    0    0  0.38366322723E+02 -0.49302648628E+02 -0.12009582244E+03  0.13537626250E+03  0.10000000000E+01 0.  0.
    9000005    1    3    3    0    0 -0.38366322723E+02  0.49302648628E+02 -0.11306594155E+03  0.12918062169E+03  0.10000000000E+01 0.  0.
<mgrwt>
<rscale>  0 0.12500375E+03</rscale>
<asrwt>0</asrwt>
<pdfrwt beam="2">  1        4 0.38286047E-01 0.12500375E+03</pdfrwt>
<pdfrwt beam="1">  1       -4 0.24150094E-02 0.12500375E+03</pdfrwt>
<totfact> 0.80264098E+03</totfact>
</mgrwt>
</event>
<event>
 5    1  0.3196850E-002  0.1250005E+03  0.7818608E-02  0.1235069E+00
          4   -1    0    0  501    0  0.00000000000E+00  0.00000000000E+00  0.10738352041E+03  0.10739103014E+03  0.12700000000E+01 0. -1.
         -4   -1    0    0    0  501 -0.00000000000E+00 -0.00000000000E+00 -0.36357031726E+02  0.36379206367E+02  0.12700000000E+01 0. -1.
         25    2    1    2    0    0  0.00000000000E+00  0.00000000000E+00  0.71026488683E+02  0.14377023651E+03  0.12500047525E+03 0.  0.
    9000005    1    3    3    0    0  0.10313004882E+02  0.26506180496E+02 -0.28487043489E+02  0.40267199070E+02  0.10000000000E+01 0.  0.
    9000005    1    3    3    0    0 -0.10313004882E+02 -0.26506180496E+02  0.99513532172E+02  0.10350303744E+03  0.10000000000E+01 0.  0.
<mgrwt>
<rscale>  0 0.12500048E+03</rscale>
<asrwt>0</asrwt>
<pdfrwt beam="1">  1        4 0.16522825E-01 0.12500048E+03</pdfrwt>
<pdfrwt beam="2">  1       -4 0.55956730E-02 0.12500048E+03</pdfrwt>
<totfact> 0.10055927E+04</totfact>
</mgrwt>
</event>
<event>
 5    1  0.3196850E-002  0.1249905E+03  0.7818608E-02  0.1235084E+00
          4   -1    0    0  501    0  0.00000000000E+00  0.00000000000E+00  0.18093554543E+02  0.18138070901E+02  0.12700000000E+01 0. -1.
         -4   -1    0    0    0  501 -0.00000000000E+00 -0.00000000000E+00 -0.21554742676E+03  0.21555116813E+03  0.12700000000E+01 0. -1.
         25    2    1    2    0    0  0.00000000000E+00  0.00000000000E+00 -0.19745387221E+03  0.23368923903E+03  0.12499051478E+03 0.  0.
    9000005    1    3    3    0    0  0.21169429421E+02 -0.17444973989E+02  0.62436277078E+01  0.28150572755E+02  0.10000000000E+01 0.  0.
    9000005    1    3    3    0    0 -0.21169429421E+02  0.17444973989E+02 -0.20369749992E+03  0.20553866627E+03  0.10000000000E+01 0.  0.
<mgrwt>
<rscale>  0 0.12499051E+03</rscale>
<asrwt>0</asrwt>
<pdfrwt beam="1">  1        4 0.27873361E-02 0.12499051E+03</pdfrwt>
<pdfrwt beam="2">  1       -4 0.33164853E-01 0.12499051E+03</pdfrwt>
<totfact> 0.84764244E+03</totfact>
</mgrwt>
</event>
<event>
 4    1  0.3196850E-002  0.1248203E+03  0.7818608E-02  0.1235350E+00
          4   -1    0    0  501    0  0.00000000000E+00  0.00000000000E+00  0.94303149044E+03  0.94303234561E+03  0.12700000000E+01 0. -1.
         -4   -1    0    0    0  501 -0.00000000000E+00 -0.00000000000E+00 -0.40318222558E+01  0.42271137556E+01  0.12700000000E+01 0. -1.
    9000005    1    1    2    0    0 -0.13641416821E+01 -0.35285087375E+02  0.79044608437E+02  0.86579145275E+02  0.10000000000E+01 0.  0.
    9000005    1    1    2    0    0  0.13641416821E+01  0.35285087375E+02  0.85995505975E+03  0.86068031409E+03  0.10000000000E+01 0.  0.
<mgrwt>
<rscale>  0 0.12482030E+03</rscale>
<asrwt>0</asrwt>
<pdfrwt beam="1">  1        4 0.14509678E+00 0.12482030E+03</pdfrwt>
<pdfrwt beam="2">  1       -4 0.63536889E-03 0.12482030E+03</pdfrwt>
<totfact> 0.32540905E+03</totfact>
</mgrwt>
</event>
<event>
 5    1  0.3196850E-002  0.1249996E+03  0.7818608E-02  0.1235070E+00
          4   -1    0    0  501    0  0.00000000000E+00  0.00000000000E+00  0.23223815383E+03  0.23224162632E+03  0.12700000000E+01 0.  1.
         -4   -1    0    0    0  501 -0.00000000000E+00 -0.00000000000E+00 -0.16792339880E+02  0.16840296276E+02  0.12700000000E+01 0.  1.
         25    2    1    2    0    0  0.00000000000E+00  0.00000000000E+00  0.21544581395E+03  0.24908192260E+03  0.12499962166E+03 0.  0.
    9000005    1    3    3    0    0 -0.56830557177E+02  0.83300654597E+01  0.58664403150E+02  0.82107334730E+02  0.10000000000E+01 0.  0.
    9000005    1    3    3    0    0  0.56830557177E+02 -0.83300654597E+01  0.15678141080E+03  0.16697458786E+03  0.10000000000E+01 0.  0.
<mgrwt>
<rscale>  0 0.12499962E+03</rscale>
<asrwt>0</asrwt>
<pdfrwt beam="1">  1        4 0.35732899E-01 0.12499962E+03</pdfrwt>
<pdfrwt beam="2">  1       -4 0.25873932E-02 0.12499962E+03</pdfrwt>
<totfact> 0.82463797E+03</totfact>
</mgrwt>
</event>
<event>
 5    1  0.3196850E-002  0.1249988E+03  0.7818608E-02  0.1235071E+00
         -4   -1    0    0    0  501 -0.00000000000E+00  0.00000000000E+00  0.52844617315E+03  0.52844769922E+03  0.12700000000E+01 0. -1.
          4   -1    0    0  501    0  0.00000000000E+00 -0.00000000000E+00 -0.73357101137E+01  0.74448333005E+01  0.12700000000E+01 0. -1.
         25    2    1    2    0    0  0.00000000000E+00  0.00000000000E+00  0.52111046303E+03  0.53589253252E+03  0.12499876692E+03 0.  0.
    9000005    1    3    3    0    0 -0.59840960442E+02 -0.14849310670E+02  0.21689109093E+03  0.22548655814E+03  0.10000000000E+01 0.  0.
    9000005    1    3    3    0    0  0.59840960442E+02  0.14849310670E+02  0.30421937210E+03  0.31040597439E+03  0.10000000000E+01 0.  0.
<mgrwt>
<rscale>  0 0.12499877E+03</rscale>
<asrwt>0</asrwt>
<pdfrwt beam="2">  1        4 0.11370820E-02 0.12499877E+03</pdfrwt>
<pdfrwt beam="1">  1       -4 0.81307940E-01 0.12499877E+03</pdfrwt>
<totfact> 0.53184694E+03</totfact>
</mgrwt>
</event>
<event>
 5    1  0.3196850E-002  0.1250076E+03  0.7818608E-02  0.1235057E+00
         -4   -1    0    0    0  501 -0.00000000000E+00  0.00000000000E+00  0.59222590537E+02  0.59236206242E+02  0.12700000000E+01 0. -1.
          4   -1    0    0  501    0  0.00000000000E+00 -0.00000000000E+00 -0.65939498750E+02  0.65951727766E+02  0.12700000000E+01 0. -1.
         25    2    1    2    0    0  0.00000000000E+00  0.00000000000E+00 -0.67169082124E+01  0.12518793401E+03  0.12500760763E+03 0.  0.
    9000005    1    3    3    0    0 -0.57346070019E+02 -0.19441251450E+02  0.12129672415E+02  0.61762957810E+02  0.10000000000E+01 0.  0.
    9000005    1    3    3    0    0  0.57346070019E+02  0.19441251450E+02 -0.18846580627E+02  0.63424976199E+02  0.10000000000E+01 0.  0.
<mgrwt>
<rscale>  0 0.12500761E+03</rscale>
<asrwt>0</asrwt>
<pdfrwt beam="2">  1        4 0.10146526E-01 0.12500761E+03</pdfrwt>
<pdfrwt beam="1">  1       -4 0.91131559E-02 0.12500761E+03</pdfrwt>
<totfact> 0.10446986E+04</totfact>
</mgrwt>
</event>
<event>
 5    1  0.3196850E-002  0.1249994E+03  0.7818608E-02  0.1235070E+00
         -4   -1    0    0    0  501 -0.00000000000E+00  0.00000000000E+00  0.47244913664E+02  0.47261980143E+02  0.12700000000E+01 0. -1.
          4   -1    0    0  501    0  0.00000000000E+00 -0.00000000000E+00 -0.82643206596E+02  0.82652964233E+02  0.12700000000E+01 0. -1.
         25    2    1    2    0    0  0.00000000000E+00  0.00000000000E+00 -0.35398292932E+02  0.12991494438E+03  0.12499941452E+03 0.  0.
    9000005    1    3    3    0    0 -0.44234089011E+02  0.36679827192E+02 -0.43224011735E+02  0.71912304538E+02  0.10000000000E+01 0.  0.
    9000005    1    3    3    0    0  0.44234089011E+02 -0.36679827192E+02  0.78257188028E+01  0.58002639838E+02  0.10000000000E+01 0.  0.
<mgrwt>
<rscale>  0 0.12499941E+03</rscale>
<asrwt>0</asrwt>
<pdfrwt beam="2">  1        4 0.12716403E-01 0.12499941E+03</pdfrwt>
<pdfrwt beam="1">  1       -4 0.72705117E-02 0.12499941E+03</pdfrwt>
<totfact> 0.10346464E+04</totfact>
</mgrwt>
</event>
<event>
 5    1  0.3196850E-002  0.1250018E+03  0.7818608E-02  0.1235067E+00
          4   -1    0    0  501    0  0.00000000000E+00  0.00000000000E+00  0.96324956296E+02  0.96333328114E+02  0.12700000000E+01 0. -1.
         -4   -1    0    0    0  501 -0.00000000000E+00 -0.00000000000E+00 -0.40533899980E+02  0.40553790792E+02  0.12700000000E+01 0. -1.
         25    2    1    2    0    0  0.00000000000E+00  0.00000000000E+00  0.55791056316E+02  0.13688711891E+03  0.12500176542E+03 0.  0.
    9000005    1    3    3    0    0  0.50373501040E+02 -0.12078788215E+02  0.66176005910E+02  0.84045526293E+02  0.10000000000E+01 0.  0.
    9000005    1    3    3    0    0 -0.50373501040E+02  0.12078788215E+02 -0.10384949593E+02  0.52841592612E+02  0.10000000000E+01 0.  0.
<mgrwt>
<rscale>  0 0.12500177E+03</rscale>
<asrwt>0</asrwt>
<pdfrwt beam="1">  1        4 0.14821398E-01 0.12500177E+03</pdfrwt>
<pdfrwt beam="2">  1       -4 0.62381587E-02 0.12500177E+03</pdfrwt>
<totfact> 0.10198041E+04</totfact>
</mgrwt>
</event>
<event>
 5    1  0.3196850E-002  0.1249989E+03  0.7818608E-02  0.1235071E+00
         -4   -1    0    0    0  501 -0.00000000000E+00  0.00000000000E+00  0.87399251644E+01  0.88317151153E+01  0.12700000000E+01 0. -1.
          4   -1    0    0  501    0  0.00000000000E+00 -0.00000000000E+00 -0.44450795271E+03  0.44450976696E+03  0.12700000000E+01 0. -1.
         25    2    1    2    0    0  0.00000000000E+00  0.00000000000E+00 -0.43576802755E+03  0.45334148208E+03  0.12499890215E+03 0.  0.
    9000005    1    3    3    0    0  0.54117916180E+02 -0.31067906596E+02 -0.23003108057E+03  0.23834693558E+03  0.10000000000E+01 0.  0.
    9000005    1    3    3    0    0 -0.54117916180E+02  0.31067906596E+02 -0.20573694698E+03  0.21499454650E+03  0.10000000000E+01 0.  0.
<mgrwt>
<rscale>  0 0.12499890E+03</rscale>
<asrwt>0</asrwt>
<pdfrwt beam="2">  1        4 0.68393022E-01 0.12499890E+03</pdfrwt>
<pdfrwt beam="1">  1       -4 0.13518045E-02 0.12499890E+03</pdfrwt>
<totfact> 0.59676862E+03</totfact>
</mgrwt>
</event>
<event>
 5    1  0.3196850E-002  0.1249999E+03  0.7818608E-02  0.1235069E+00
          4   -1    0    0  501    0  0.00000000000E+00  0.00000000000E+00  0.34013053045E+02  0.34036754802E+02  0.12700000000E+01 0.  1.
         -4   -1    0    0    0  501 -0.00000000000E+00 -0.00000000000E+00 -0.11477822470E+03  0.11478525064E+03  0.12700000000E+01 0.  1.
         25    2    1    2    0    0  0.00000000000E+00  0.00000000000E+00 -0.80765171651E+02  0.14882200544E+03  0.12499990541E+03 0.  0.
    9000005    1    3    3    0    0  0.52218572059E+02  0.33172136638E+02 -0.50902474862E+02  0.80120108987E+02  0.10000000000E+01 0.  0.
    9000005    1    3    3    0    0 -0.52218572059E+02 -0.33172136638E+02 -0.29862696789E+02  0.68701896455E+02  0.10000000000E+01 0.  0.
<mgrwt>
<rscale>  0 0.12499991E+03</rscale>
<asrwt>0</asrwt>
<pdfrwt beam="1">  1        4 0.52351411E-02 0.12499991E+03</pdfrwt>
<pdfrwt beam="2">  1       -4 0.17660552E-01 0.12499991E+03</pdfrwt>
<totfact> 0.99539245E+03</totfact>
</mgrwt>
</event>
<event>
 5    1  0.3196850E-002  0.1250026E+03  0.7818608E-02  0.1235065E+00
          4   -1    0    0  501    0  0.00000000000E+00  0.00000000000E+00  0.77058794741E+03  0.77058899395E+03  0.12700000000E+01 0.  1.
         -4   -1    0    0    0  501 -0.00000000000E+00 -0.00000000000E+00 -0.49887807224E+01  0.51478959873E+01  0.12700000000E+01 0.  1.
         25    2    1    2    0    0  0.00000000000E+00  0.00000000000E+00  0.76559916668E+03  0.77573688993E+03  0.12500255347E+03 0.  0.
    9000005    1    3    3    0    0 -0.41504790072E+00  0.56705210044E+02  0.54578301415E+03  0.54872192561E+03  0.10000000000E+01 0.  0.
    9000005    1    3    3    0    0  0.41504790072E+00 -0.56705210044E+02  0.21981615254E+03  0.22701496432E+03  0.10000000000E+01 0.  0.
<mgrwt>
<rscale>  0 0.12500255E+03</rscale>
<asrwt>0</asrwt>
<pdfrwt beam="1">  1        4 0.11856431E+00 0.12500255E+03</pdfrwt>
<pdfrwt beam="2">  1       -4 0.77982487E-03 0.12500255E+03</pdfrwt>
<totfact> 0.39368898E+03</totfact>
</mgrwt>
</event>
<event>
 5    1  0.3196850E-002  0.1250009E+03  0.7818608E-02  0.1235068E+00
         -4   -1    0    0    0  501 -0.00000000000E+00  0.00000000000E+00  0.46754819722E+02  0.46772065031E+02  0.12700000000E+01 0. -1.
          4   -1    0    0  501    0  0.00000000000E+00 -0.00000000000E+00 -0.83511198796E+02  0.83520855027E+02  0.12700000000E+01 0. -1.
         25    2    1    2    0    0  0.00000000000E+00  0.00000000000E+00 -0.36756379074E+02  0.13029292006E+03  0.12500085445E+03 0.  0.
    9000005    1    3    3    0    0 -0.43687024693E+02  0.42963297265E+02 -0.55738890038E+01  0.61534293504E+02  0.10000000000E+01 0.  0.
    9000005    1    3    3    0    0  0.43687024693E+02 -0.42963297265E+02 -0.31182490070E+02  0.68758626553E+02  0.10000000000E+01 0.  0.
<mgrwt>
<rscale>  0 0.12500085E+03</rscale>
<asrwt>0</asrwt>
<pdfrwt beam="2">  1        4 0.12849946E-01 0.12500085E+03</pdfrwt>
<pdfrwt beam="1">  1       -4 0.71951186E-02 0.12500085E+03</pdfrwt>
<totfact> 0.10338046E+04</totfact>
</mgrwt>
</event>
<event>
 5    1  0.3196850E-002  0.1249990E+03  0.7818608E-02  0.1235071E+00
          4   -1    0    0  501    0  0.00000000000E+00  0.00000000000E+00  0.19866825949E+01  0.23579244545E+01  0.12700000000E+01 0. -1.
         -4   -1    0    0    0  501 -0.00000000000E+00 -0.00000000000E+00 -0.17978062847E+04  0.17978067333E+04  0.12700000000E+01 0. -1.
         25    2    1    2    0    0  0.00000000000E+00  0.00000000000E+00 -0.17958196021E+04  0.18001646578E+04  0.12499900652E+03 0.  0.
    9000005    1    3    3    0    0 -0.48308131634E+02  0.13501602905E+02 -0.36113634187E+03  0.36460447924E+03  0.10000000000E+01 0.  0.
    9000005    1    3    3    0    0  0.48308131634E+02 -0.13501602905E+02 -0.14346832603E+04  0.14355601785E+04  0.10000000000E+01 0.  0.
<mgrwt>
<rscale>  0 0.12499901E+03</rscale>
<asrwt>0</asrwt>
<pdfrwt beam="1">  1        4 0.33423649E-03 0.12499901E+03</pdfrwt>
<pdfrwt beam="2">  1       -4 0.27661298E+00 0.12499901E+03</pdfrwt>
<totfact> 0.12701347E+03</totfact>
</mgrwt>
</event>
<event>
 5    1  0.3196850E-002  0.1250003E+03  0.7818608E-02  0.1235069E+00
         -4   -1    0    0    0  501 -0.00000000000E+00  0.00000000000E+00  0.17559793262E+02  0.17605659301E+02  0.12700000000E+01 0.  1.
          4   -1    0    0  501    0  0.00000000000E+00 -0.00000000000E+00 -0.22211749953E+03  0.22212113024E+03  0.12700000000E+01 0.  1.
         25    2    1    2    0    0  0.00000000000E+00  0.00000000000E+00 -0.20455770627E+03  0.23972678954E+03  0.12500031371E+03 0.  0.
    9000005    1    3    3    0    0 -0.16334081201E+02 -0.50281454641E+02 -0.16618085049E+03  0.17439065904E+03  0.10000000000E+01 0.  0.
    9000005    1    3    3    0    0  0.16334081201E+02  0.50281454641E+02 -0.38376855778E+02  0.65336130501E+02  0.10000000000E+01 0.  0.
<mgrwt>
<rscale>  0 0.12500031E+03</rscale>
<asrwt>0</asrwt>
<pdfrwt beam="2">  1        4 0.34175728E-01 0.12500031E+03</pdfrwt>
<pdfrwt beam="1">  1       -4 0.27053143E-02 0.12500031E+03</pdfrwt>
<totfact> 0.83837489E+03</totfact>
</mgrwt>
</event>
<event>
 5    1  0.3196850E-002  0.1250037E+03  0.7818608E-02  0.1235064E+00
          4   -1    0    0  501    0  0.00000000000E+00  0.00000000000E+00  0.11498490167E+03  0.11499191498E+03  0.12700000000E+01 0. -1.
         -4   -1    0    0    0  501 -0.00000000000E+00 -0.00000000000E+00 -0.33953933112E+02  0.33977676109E+02  0.12700000000E+01 0. -1.
         25    2    1    2    0    0  0.00000000000E+00  0.00000000000E+00  0.81030968554E+02  0.14896959109E+03  0.12500368477E+03 0.  0.
    9000005    1    3    3    0    0  0.42880463450E+02  0.16017988413E+02 -0.10187616130E+02  0.46905198229E+02  0.10000000000E+01 0.  0.
    9000005    1    3    3    0    0 -0.42880463450E+02 -0.16017988413E+02  0.91218584684E+02  0.10206439286E+03  0.10000000000E+01 0.  0.
<mgrwt>
<rscale>  0 0.12500368E+03</rscale>
<asrwt>0</asrwt>
<pdfrwt beam="1">  1        4 0.17692351E-01 0.12500368E+03</pdfrwt>
<pdfrwt beam="2">  1       -4 0.52260479E-02 0.12500368E+03</pdfrwt>
<totfact> 0.99501239E+03</totfact>
</mgrwt>
</event>
<event>
 5    1  0.3196850E-002  0.1250005E+03  0.7818608E-02  0.1235069E+00
          4   -1    0    0  501    0  0.00000000000E+00  0.00000000000E+00  0.65937549099E+03  0.65937671404E+03  0.12700000000E+01 0.  1.
         -4   -1    0    0    0  501 -0.00000000000E+00 -0.00000000000E+00 -0.58549047198E+01  0.59910607807E+01  0.12700000000E+01 0.  1.
         25    2    1    2    0    0  0.00000000000E+00  0.00000000000E+00  0.65352058627E+03  0.66536777482E+03  0.12500047636E+03 0.  0.
    9000005    1    3    3    0    0  0.48488030782E+02 -0.34426780217E+02  0.42900854492E+03  0.43311156062E+03  0.10000000000E+01 0.  0.
    9000005    1    3    3    0    0 -0.48488030782E+02  0.34426780217E+02  0.22451204134E+03  0.23225621420E+03  0.10000000000E+01 0.  0.
<mgrwt>
<rscale>  0 0.12500048E+03</rscale>
<asrwt>0</asrwt>
<pdfrwt beam="1">  1        4 0.10145288E+00 0.12500048E+03</pdfrwt>
<pdfrwt beam="2">  1       -4 0.91132287E-03 0.12500048E+03</pdfrwt>
<totfact> 0.44978509E+03</totfact>
</mgrwt>
</event>
<event>
 5    1  0.3196850E-002  0.1250007E+03  0.7818608E-02  0.1235068E+00
          4   -1    0    0  501    0  0.00000000000E+00  0.00000000000E+00  0.34815485762E+02  0.34838641605E+02  0.12700000000E+01 0.  1.
         -4   -1    0    0    0  501 -0.00000000000E+00 -0.00000000000E+00 -0.11213581696E+03  0.11214300846E+03  0.12700000000E+01 0.  1.
         25    2    1    2    0    0  0.00000000000E+00  0.00000000000E+00 -0.77320331202E+02  0.14698165006E+03  0.12500068735E+03 0.  0.
    9000005    1    3    3    0    0 -0.42002002188E+02  0.44848823929E+02 -0.25268527516E+02  0.66446096036E+02  0.10000000000E+01 0.  0.
    9000005    1    3    3    0    0  0.42002002188E+02 -0.44848823929E+02 -0.52051803685E+02  0.80535554027E+02  0.10000000000E+01 0.  0.
<mgrwt>
<rscale>  0 0.12500069E+03</rscale>
<asrwt>0</asrwt>
<pdfrwt beam="1">  1        4 0.53585630E-02 0.12500069E+03</pdfrwt>
<pdfrwt beam="2">  1       -4 0.17253998E-01 0.12500069E+03</pdfrwt>
<totfact> 0.99907254E+03</totfact>
</mgrwt>
</event>
<event>
 5    1  0.3196850E-002  0.1250012E+03  0.7818608E-02  0.1235067E+00
          4   -1    0    0  501    0  0.00000000000E+00  0.00000000000E+00  0.12804946910E+03  0.12805576690E+03  0.12700000000E+01 0.  1.
         -4   -1    0    0    0  501 -0.00000000000E+00 -0.00000000000E+00 -0.30486087922E+02  0.30512529505E+02  0.12700000000E+01 0.  1.
         25    2    1    2    0    0  0.00000000000E+00  0.00000000000E+00  0.97563381180E+02  0.15856829641E+03  0.12500116511E+03 0.  0.
    9000005    1    3    3    0    0 -0.53255856413E+02  0.32085033808E+02  0.40790206557E+02  0.74367174127E+02  0.10000000000E+01 0.  0.
    9000005    1    3    3    0    0  0.53255856413E+02 -0.32085033808E+02  0.56773174623E+02  0.84201122282E+02  0.10000000000E+01 0.  0.
<mgrwt>
<rscale>  0 0.12500117E+03</rscale>
<asrwt>0</asrwt>
<pdfrwt beam="1">  1        4 0.19702437E-01 0.12500117E+03</pdfrwt>
<pdfrwt beam="2">  1       -4 0.46926858E-02 0.12500117E+03</pdfrwt>
<totfact> 0.97616961E+03</totfact>
</mgrwt>
</event>
<event>
 5    1  0.3196850E-002  0.1250003E+03  0.7818608E-02  0.1235069E+00
         -4   -1    0    0    0  501 -0.00000000000E+00  0.00000000000E+00  0.88528527129E+02  0.88537636153E+02  0.12700000000E+01 0. -1.
          4   -1    0    0  501    0  0.00000000000E+00 -0.00000000000E+00 -0.44103918526E+02  0.44122199960E+02  0.12700000000E+01 0. -1.
         25    2    1    2    0    0  0.00000000000E+00  0.00000000000E+00  0.44424608603E+02  0.13265983611E+03  0.12500034507E+03 0.  0.
    9000005    1    3    3    0    0  0.39988346198E+02 -0.11549807525E+02  0.71681937320E+02  0.82896115852E+02  0.10000000000E+01 0.  0.
    9000005    1    3    3    0    0 -0.39988346198E+02  0.11549807525E+02 -0.27257328717E+02  0.49763720261E+02  0.10000000000E+01 0.  0.
<mgrwt>
<rscale>  0 0.12500035E+03</rscale>
<asrwt>0</asrwt>
<pdfrwt beam="2">  1        4 0.67873252E-02 0.12500035E+03</pdfrwt>
<pdfrwt beam="1">  1       -4 0.13621880E-01 0.12500035E+03</pdfrwt>
<totfact> 0.10287555E+04</totfact>
</mgrwt>
</event>
<event>
 5    1  0.3196850E-002  0.1249963E+03  0.7818608E-02  0.1235075E+00
         -4   -1    0    0    0  501 -0.00000000000E+00  0.00000000000E+00  0.17914299389E+03  0.17914749554E+03  0.12700000000E+01 0.  1.
          4   -1    0    0  501    0  0.00000000000E+00 -0.00000000000E+00 -0.21780650282E+02  0.21817644848E+02  0.12700000000E+01 0.  1.
         25    2    1    2    0    0  0.00000000000E+00  0.00000000000E+00  0.15736234361E+03  0.20096514039E+03  0.12499632181E+03 0.  0.
    9000005    1    3    3    0    0 -0.52158598692E+02  0.22894004220E+02  0.11999691883E+03  0.13283416494E+03  0.10000000000E+01 0.  0.
    9000005    1    3    3    0    0  0.52158598692E+02 -0.22894004220E+02  0.37365424771E+02  0.68130975445E+02  0.10000000000E+01 0.  0.
<mgrwt>
<rscale>  0 0.12499632E+03</rscale>
<asrwt>0</asrwt>
<pdfrwt beam="2">  1        4 0.33540613E-02 0.12499632E+03</pdfrwt>
<pdfrwt beam="1">  1       -4 0.27563653E-01 0.12499632E+03</pdfrwt>
<totfact> 0.89980387E+03</totfact>
</mgrwt>
</event>
<event>
 5    1  0.3196850E-002  0.1250007E+03  0.7818608E-02  0.1235068E+00
         -4   -1    0    0    0  501 -0.00000000000E+00  0.00000000000E+00  0.47335570317E+01  0.49009654326E+01  0.12700000000E+01 0.  1.
          4   -1    0    0  501    0  0.00000000000E+00 -0.00000000000E+00 -0.81072729246E+03  0.81072828718E+03  0.12700000000E+01 0.  1.
         25    2    1    2    0    0  0.00000000000E+00  0.00000000000E+00 -0.80599373543E+03  0.81562925262E+03  0.12500070469E+03 0.  0.
    9000005    1    3    3    0    0 -0.28610529360E+02  0.53218952787E+02 -0.29890839113E+03  0.30495580928E+03  0.10000000000E+01 0.  0.
    9000005    1    3    3    0    0  0.28610529360E+02 -0.53218952787E+02 -0.50708534430E+03  0.51067344334E+03  0.10000000000E+01 0.  0.
<mgrwt>
<rscale>  0 0.12500070E+03</rscale>
<asrwt>0</asrwt>
<pdfrwt beam="2">  1        4 0.12474012E+00 0.12500070E+03</pdfrwt>
<pdfrwt beam="1">  1       -4 0.74119428E-03 0.12500070E+03</pdfrwt>
<totfact> 0.37575901E+03</totfact>
</mgrwt>
</event>
<event>
 5    1  0.3196850E-002  0.1250007E+03  0.7818608E-02  0.1235068E+00
          4   -1    0    0  501    0  0.00000000000E+00  0.00000000000E+00  0.44727199675E+02  0.44745226458E+02  0.12700000000E+01 0. -1.
         -4   -1    0    0    0  501 -0.00000000000E+00 -0.00000000000E+00 -0.87295678338E+02  0.87304915993E+02  0.12700000000E+01 0. -1.
         25    2    1    2    0    0  0.00000000000E+00  0.00000000000E+00 -0.42568478663E+02  0.13205014245E+03  0.12500065898E+03 0.  0.
    9000005    1    3    3    0    0  0.50972259314E+02  0.34915209544E+02 -0.11371661991E+02  0.62829593135E+02  0.10000000000E+01 0.  0.
    9000005    1    3    3    0    0 -0.50972259314E+02 -0.34915209544E+02 -0.31196816672E+02  0.69220549315E+02  0.10000000000E+01 0.  0.
<mgrwt>
<rscale>  0 0.12500066E+03</rscale>
<asrwt>0</asrwt>
<pdfrwt beam="1">  1        4 0.68832049E-02 0.12500066E+03</pdfrwt>
<pdfrwt beam="2">  1       -4 0.13432202E-01 0.12500066E+03</pdfrwt>
<totfact> 0.10300475E+04</totfact>
</mgrwt>
</event>
<event>
 5    1  0.3196850E-002  0.1250028E+03  0.7818608E-02  0.1235065E+00
         -4   -1    0    0    0  501 -0.00000000000E+00  0.00000000000E+00  0.13466854850E+02  0.13526606358E+02  0.12700000000E+01 0.  1.
          4   -1    0    0  501    0  0.00000000000E+00 -0.00000000000E+00 -0.28937392989E+03  0.28937671676E+03  0.12700000000E+01 0.  1.
         25    2    1    2    0    0  0.00000000000E+00  0.00000000000E+00 -0.27590707504E+03  0.30290332312E+03  0.12500283635E+03 0.  0.
    9000005    1    3    3    0    0 -0.18522058172E+02 -0.52900735712E+02 -0.20492575709E+03  0.21245498441E+03  0.10000000000E+01 0.  0.
    9000005    1    3    3    0    0  0.18522058172E+02  0.52900735712E+02 -0.70981317949E+02  0.90448338711E+02  0.10000000000E+01 0.  0.
<mgrwt>
<rscale>  0 0.12500284E+03</rscale>
<asrwt>0</asrwt>
<pdfrwt beam="2">  1        4 0.44523872E-01 0.12500284E+03</pdfrwt>
<pdfrwt beam="1">  1       -4 0.20766347E-02 0.12500284E+03</pdfrwt>
<totfact> 0.75231354E+03</totfact>
</mgrwt>
</event>
<event>
 5    1  0.3196850E-002  0.1250007E+03  0.7818608E-02  0.1235068E+00
          4   -1    0    0  501    0  0.00000000000E+00  0.00000000000E+00  0.21483953001E+02  0.21521457584E+02  0.12700000000E+01 0.  1.
         -4   -1    0    0    0  501 -0.00000000000E+00 -0.00000000000E+00 -0.18162540230E+03  0.18162984243E+03  0.12700000000E+01 0.  1.
         25    2    1    2    0    0  0.00000000000E+00  0.00000000000E+00 -0.16014144930E+03  0.20315130001E+03  0.12500066765E+03 0.  0.
    9000005    1    3    3    0    0 -0.72487314278E+01  0.59408358024E+02 -0.50844436146E+02  0.78536958163E+02  0.10000000000E+01 0.  0.
    9000005    1    3    3    0    0  0.72487314278E+01 -0.59408358024E+02 -0.10929701315E+03  0.12461434185E+03  0.10000000000E+01 0.  0.
<mgrwt>
<rscale>  0 0.12500067E+03</rscale>
<asrwt>0</asrwt>
<pdfrwt beam="1">  1        4 0.33084502E-02 0.12500067E+03</pdfrwt>
<pdfrwt beam="2">  1       -4 0.27945595E-01 0.12500067E+03</pdfrwt>
<totfact> 0.89605385E+03</totfact>
</mgrwt>
</event>
<event>
 5    1  0.3196850E-002  0.1250010E+03  0.7818608E-02  0.1235068E+00
          4   -1    0    0  501    0  0.00000000000E+00  0.00000000000E+00  0.12399460976E+03  0.12400111350E+03  0.12700000000E+01 0.  1.
         -4   -1    0    0    0  501 -0.00000000000E+00 -0.00000000000E+00 -0.31483737452E+02  0.31509341852E+02  0.12700000000E+01 0.  1.
         25    2    1    2    0    0  0.00000000000E+00  0.00000000000E+00  0.92510872310E+02  0.15551045536E+03  0.12500096091E+03 0.  0.
    9000005    1    3    3    0    0 -0.56439981279E+02 -0.14613640417E+02  0.18262937670E+02  0.61102903903E+02  0.10000000000E+01 0.  0.
    9000005    1    3    3    0    0  0.56439981279E+02  0.14613640417E+02  0.74247934640E+02  0.94407551453E+02  0.10000000000E+01 0.  0.
<mgrwt>
<rscale>  0 0.12500096E+03</rscale>
<asrwt>0</asrwt>
<pdfrwt beam="1">  1        4 0.19078564E-01 0.12500096E+03</pdfrwt>
<pdfrwt beam="2">  1       -4 0.48461217E-02 0.12500096E+03</pdfrwt>
<totfact> 0.98213260E+03</totfact>
</mgrwt>
</event>
<event>
 5    1  0.3196850E-002  0.1249994E+03  0.7818608E-02  0.1235070E+00
          4   -1    0    0  501    0  0.00000000000E+00  0.00000000000E+00  0.86554971655E+03  0.86555064827E+03  0.12700000000E+01 0. -1.
         -4   -1    0    0    0  501 -0.00000000000E+00 -0.00000000000E+00 -0.44226843188E+01  0.46014168018E+01  0.12700000000E+01 0. -1.
         25    2    1    2    0    0  0.00000000000E+00  0.00000000000E+00  0.86112703223E+03  0.87015206507E+03  0.12499940283E+03 0.  0.
    9000005    1    3    3    0    0 -0.33101433042E+02 -0.36236341906E+02  0.69985101581E+03  0.70157053934E+03  0.10000000000E+01 0.  0.
    9000005    1    3    3    0    0  0.33101433042E+02  0.36236341906E+02  0.16127601642E+03  0.16858152573E+03  0.10000000000E+01 0.  0.
<mgrwt>
<rscale>  0 0.12499940E+03</rscale>
<asrwt>0</asrwt>
<pdfrwt beam="1">  1        4 0.13317541E+00 0.12499940E+03</pdfrwt>
<pdfrwt beam="2">  1       -4 0.69423278E-03 0.12499940E+03</pdfrwt>
<totfact> 0.35317012E+03</totfact>
</mgrwt>
</event>
<event>
 5    1  0.3196850E-002  0.1249990E+03  0.7818608E-02  0.1235071E+00
         -4   -1    0    0    0  501 -0.00000000000E+00  0.00000000000E+00  0.11994131784E+03  0.11994804135E+03  0.12700000000E+01 0. -1.
          4   -1    0    0  501    0  0.00000000000E+00 -0.00000000000E+00 -0.32547472197E+02  0.32572240427E+02  0.12700000000E+01 0. -1.
         25    2    1    2    0    0  0.00000000000E+00  0.00000000000E+00  0.87393845641E+02  0.15252028178E+03  0.12499900839E+03 0.  0.
    9000005    1    3    3    0    0 -0.55680020792E+02 -0.27797050375E+02  0.36767968335E+02  0.72289862501E+02  0.10000000000E+01 0.  0.
    9000005    1    3    3    0    0  0.55680020792E+02  0.27797050375E+02  0.50625877306E+02  0.80230419281E+02  0.10000000000E+01 0.  0.
<mgrwt>
<rscale>  0 0.12499901E+03</rscale>
<asrwt>0</asrwt>
<pdfrwt beam="2">  1        4 0.50097259E-02 0.12499901E+03</pdfrwt>
<pdfrwt beam="1">  1       -4 0.18454933E-01 0.12499901E+03</pdfrwt>
<totfact> 0.98805874E+03</totfact>
</mgrwt>
</event>
<event>
 5    1  0.3196850E-002  0.1250018E+03  0.7818608E-02  0.1235066E+00
         -4   -1    0    0    0  501 -0.00000000000E+00  0.00000000000E+00  0.10955119369E+04  0.10955126730E+04  0.12700000000E+01 0.  1.
          4   -1    0    0  501    0  0.00000000000E+00 -0.00000000000E+00 -0.34519459105E+01  0.36781558653E+01  0.12700000000E+01 0.  1.
         25    2    1    2    0    0  0.00000000000E+00  0.00000000000E+00  0.10920599910E+04  0.10991908289E+04  0.12500181770E+03 0.  0.
    9000005    1    3    3    0    0  0.42941187457E+02  0.34855908018E+02  0.29019139627E+03  0.29541653029E+03  0.10000000000E+01 0.  0.
    9000005    1    3    3    0    0 -0.42941187457E+02 -0.34855908018E+02  0.80186859471E+03  0.80377429860E+03  0.10000000000E+01 0.  0.
<mgrwt>
<rscale>  0 0.12500182E+03</rscale>
<asrwt>0</asrwt>
<pdfrwt beam="2">  1        4 0.54852543E-03 0.12500182E+03</pdfrwt>
<pdfrwt beam="1">  1       -4 0.16855793E+00 0.12500182E+03</pdfrwt>
<totfact> 0.27505958E+03</totfact>
</mgrwt>
</event>
<event>
 5    1  0.3196850E-002  0.1249985E+03  0.7818608E-02  0.1235072E+00
          4   -1    0    0  501    0  0.00000000000E+00  0.00000000000E+00  0.29175834058E+02  0.29203462003E+02  0.12700000000E+01 0. -1.
         -4   -1    0    0    0  501 -0.00000000000E+00 -0.00000000000E+00 -0.13378929808E+03  0.13379532571E+03  0.12700000000E+01 0. -1.
         25    2    1    2    0    0  0.00000000000E+00  0.00000000000E+00 -0.10461346403E+03  0.16299878771E+03  0.12499851175E+03 0.  0.
    9000005    1    3    3    0    0  0.23263114562E+01  0.71361989924E+01 -0.13320576459E+03  0.13342081090E+03  0.10000000000E+01 0.  0.
    9000005    1    3    3    0    0 -0.23263114562E+01 -0.71361989924E+01  0.28592300562E+02  0.29577976815E+02  0.10000000000E+01 0.  0.
<mgrwt>
<rscale>  0 0.12499851E+03</rscale>
<asrwt>0</asrwt>
<pdfrwt beam="1">  1        4 0.44911788E-02 0.12499851E+03</pdfrwt>
<pdfrwt beam="2">  1       -4 0.20585558E-01 0.12499851E+03</pdfrwt>
<totfact> 0.96770974E+03</totfact>
</mgrwt>
</event>
<event>
 5    1  0.3196850E-002  0.1249997E+03  0.7818608E-02  0.1235070E+00
          4   -1    0    0  501    0  0.00000000000E+00  0.00000000000E+00  0.13795712571E+02  0.13854045811E+02  0.12700000000E+01 0.  1.
         -4   -1    0    0    0  501 -0.00000000000E+00 -0.00000000000E+00 -0.28249100787E+03  0.28249386264E+03  0.12700000000E+01 0.  1.
         25    2    1    2    0    0  0.00000000000E+00  0.00000000000E+00 -0.26869529530E+03  0.29634790845E+03  0.12499968450E+03 0.  0.
    9000005    1    3    3    0    0  0.19153387347E+02 -0.67051819198E+01  0.57782029317E+01  0.21123431080E+02  0.10000000000E+01 0.  0.
    9000005    1    3    3    0    0 -0.19153387347E+02  0.67051819198E+01 -0.27447349824E+03  0.27522447737E+03  0.10000000000E+01 0.  0.
<mgrwt>
<rscale>  0 0.12499968E+03</rscale>
<asrwt>0</asrwt>
<pdfrwt beam="1">  1        4 0.21271243E-02 0.12499968E+03</pdfrwt>
<pdfrwt beam="2">  1       -4 0.43464857E-01 0.12499968E+03</pdfrwt>
<totfact> 0.76059781E+03</totfact>
</mgrwt>
</event>
<event>
 5    1  0.3196850E-002  0.1250002E+03  0.7818608E-02  0.1235069E+00
         -4   -1    0    0    0  501 -0.00000000000E+00  0.00000000000E+00  0.31713566063E+02  0.31738985057E+02  0.12700000000E+01 0.  1.
          4   -1    0    0  501    0  0.00000000000E+00 -0.00000000000E+00 -0.12309524426E+03  0.12310179551E+03  0.12700000000E+01 0.  1.
         25    2    1    2    0    0  0.00000000000E+00  0.00000000000E+00 -0.91381678193E+02  0.15484078057E+03  0.12500022487E+03 0.  0.
    9000005    1    3    3    0    0  0.67664253841E+01 -0.44931340183E+02 -0.98835625036E+02  0.10878460654E+03  0.10000000000E+01 0.  0.
    9000005    1    3    3    0    0 -0.67664253841E+01  0.44931340183E+02  0.74539468426E+01  0.46056174034E+02  0.10000000000E+01 0.  0.
<mgrwt>
<rscale>  0 0.12500022E+03</rscale>
<asrwt>0</asrwt>
<pdfrwt beam="2">  1        4 0.18940189E-01 0.12500022E+03</pdfrwt>
<pdfrwt beam="1">  1       -4 0.48814695E-02 0.12500022E+03</pdfrwt>
<totfact> 0.98346267E+03</totfact>
</mgrwt>
</event>
<event>
 5    1  0.3196850E-002  0.1250129E+03  0.7818608E-02  0.1235049E+00
          4   -1    0    0  501    0  0.00000000000E+00  0.00000000000E+00  0.16113167164E+03  0.16113667647E+03  0.12700000000E+01 0.  1.
         -4   -1    0    0    0  501 -0.00000000000E+00 -0.00000000000E+00 -0.24225595080E+02  0.24258861411E+02  0.12700000000E+01 0.  1.
         25    2    1    2    0    0  0.00000000000E+00  0.00000000000E+00  0.13690607656E+03  0.18539553788E+03  0.12501292601E+03 0.  0.
    9000005    1    3    3    0    0  0.52113480235E+01  0.46273854496E+01  0.16056087804E+03  0.16071517165E+03  0.10000000000E+01 0.  0.
    9000005    1    3    3    0    0 -0.52113480235E+01 -0.46273854496E+01 -0.23654801477E+02  0.24680366230E+02  0.10000000000E+01 0.  0.
<mgrwt>
<rscale>  0 0.12501293E+03</rscale>
<asrwt>0</asrwt>
<pdfrwt beam="1">  1        4 0.24792432E-01 0.12501293E+03</pdfrwt>
<pdfrwt beam="2">  1       -4 0.37299586E-02 0.12501293E+03</pdfrwt>
<totfact> 0.92627872E+03</totfact>
</mgrwt>
</event>
<event>
 5    1  0.3196850E-002  0.1250000E+03  0.7818608E-02  0.1235069E+00
          4   -1    0    0  501    0  0.00000000000E+00  0.00000000000E+00  0.80244505187E+02  0.80254554467E+02  0.12700000000E+01 0. -1.
         -4   -1    0    0    0  501 -0.00000000000E+00 -0.00000000000E+00 -0.48657962234E+02  0.48674533267E+02  0.12700000000E+01 0. -1.
         25    2    1    2    0    0  0.00000000000E+00  0.00000000000E+00  0.31586542952E+02  0.12892908773E+03  0.12499999987E+03 0.  0.
    9000005    1    3    3    0    0  0.22805858925E+02 -0.33919057803E+02  0.64551139930E+02  0.76409811869E+02  0.10000000000E+01 0.  0.
    9000005    1    3    3    0    0 -0.22805858925E+02  0.33919057803E+02 -0.32964596978E+02  0.52519275865E+02  0.10000000000E+01 0.  0.
<mgrwt>
<rscale>  0 0.12500000E+03</rscale>
<asrwt>0</asrwt>
<pdfrwt beam="1">  1        4 0.12347356E-01 0.12500000E+03</pdfrwt>
<pdfrwt beam="2">  1       -4 0.74878882E-02 0.12500000E+03</pdfrwt>
<totfact> 0.10367471E+04</totfact>
</mgrwt>
</event>
<event>
 5    1  0.3196850E-002  0.1250021E+03  0.7818608E-02  0.1235066E+00
         -4   -1    0    0    0  501 -0.00000000000E+00  0.00000000000E+00  0.41077956641E+03  0.41078152963E+03  0.12700000000E+01 0.  1.
          4   -1    0    0  501    0  0.00000000000E+00 -0.00000000000E+00 -0.94652759118E+01  0.95500967580E+01  0.12700000000E+01 0.  1.
         25    2    1    2    0    0  0.00000000000E+00  0.00000000000E+00  0.40131429050E+03  0.42033162638E+03  0.12500206550E+03 0.  0.
    9000005    1    3    3    0    0 -0.42050479706E+02  0.26594750489E+02  0.73505801638E+02  0.88767260133E+02  0.10000000000E+01 0.  0.
    9000005    1    3    3    0    0  0.42050479706E+02 -0.26594750489E+02  0.32780848886E+03  0.33156436625E+03  0.10000000000E+01 0.  0.
<mgrwt>
<rscale>  0 0.12500207E+03</rscale>
<asrwt>0</asrwt>
<pdfrwt beam="2">  1        4 0.14628718E-02 0.12500207E+03</pdfrwt>
<pdfrwt beam="1">  1       -4 0.63203540E-01 0.12500207E+03</pdfrwt>
<totfact> 0.62619396E+03</totfact>
</mgrwt>
</event>
<event>
 5    1  0.3196850E-002  0.1249957E+03  0.7818608E-02  0.1235076E+00
          4   -1    0    0  501    0  0.00000000000E+00  0.00000000000E+00  0.18382368490E+02  0.18426187107E+02  0.12700000000E+01 0. -1.
         -4   -1    0    0    0  501 -0.00000000000E+00 -0.00000000000E+00 -0.21218656459E+03  0.21219036522E+03  0.12700000000E+01 0. -1.
         25    2    1    2    0    0  0.00000000000E+00  0.00000000000E+00 -0.19380419610E+03  0.23061655233E+03  0.12499571105E+03 0.  0.
    9000005    1    3    3    0    0  0.36842532924E+02 -0.32064845132E+02 -0.16882038681E+03  0.17574654912E+03  0.10000000000E+01 0.  0.
    9000005    1    3    3    0    0 -0.36842532924E+02  0.32064845132E+02 -0.24983809297E+02  0.54870003213E+02  0.10000000000E+01 0.  0.
<mgrwt>
<rscale>  0 0.12499571E+03</rscale>
<asrwt>0</asrwt>
<pdfrwt beam="1">  1        4 0.28317199E-02 0.12499571E+03</pdfrwt>
<pdfrwt beam="2">  1       -4 0.32647748E-01 0.12499571E+03</pdfrwt>
<totfact> 0.85223170E+03</totfact>
</mgrwt>
</event>
<event>
 5    1  0.3196850E-002  0.1249942E+03  0.7818608E-02  0.1235078E+00
         -4   -1    0    0    0  501 -0.00000000000E+00  0.00000000000E+00  0.67915735859E+02  0.67927609094E+02  0.12700000000E+01 0. -1.
          4   -1    0    0  501    0  0.00000000000E+00 -0.00000000000E+00 -0.57486845730E+02  0.57500872445E+02  0.12700000000E+01 0. -1.
         25    2    1    2    0    0  0.00000000000E+00  0.00000000000E+00  0.10428890129E+02  0.12542848154E+03  0.12499416879E+03 0.  0.
    9000005    1    3    3    0    0 -0.35471883180E+02 -0.42348301105E+02  0.34526427052E+02  0.65151418003E+02  0.10000000000E+01 0.  0.
    9000005    1    3    3    0    0  0.35471883180E+02  0.42348301105E+02 -0.24097536923E+02  0.60277063537E+02  0.10000000000E+01 0.  0.
<mgrwt>
<rscale>  0 0.12499417E+03</rscale>
<asrwt>0</asrwt>
<pdfrwt beam="2">  1        4 0.88461224E-02 0.12499417E+03</pdfrwt>
<pdfrwt beam="1">  1       -4 0.10450567E-01 0.12499417E+03</pdfrwt>
<totfact> 0.10444909E+04</totfact>
</mgrwt>
</event>
<event>
 5    1  0.3196850E-002  0.1249437E+03  0.7818608E-02  0.1235157E+00
         -4   -1    0    0    0  501 -0.00000000000E+00  0.00000000000E+00  0.69061900028E+01  0.70219911958E+01  0.12700000000E+01 0.  1.
          4   -1    0    0  501    0  0.00000000000E+00 -0.00000000000E+00 -0.56029141667E+03  0.56029285601E+03  0.12700000000E+01 0.  1.
         25    2    1    2    0    0  0.00000000000E+00  0.00000000000E+00 -0.55338522667E+03  0.56731484721E+03  0.12494369438E+03 0.  0.
    9000005    1    3    3    0    0  0.59008326021E+02 -0.10128587354E+01 -0.18378028269E+03  0.19302642495E+03  0.10000000000E+01 0.  0.
    9000005    1    3    3    0    0 -0.59008326021E+02  0.10128587354E+01 -0.36960494397E+03  0.37428842225E+03  0.10000000000E+01 0.  0.
<mgrwt>
<rscale>  0 0.12494369E+03</rscale>
<asrwt>0</asrwt>
<pdfrwt beam="2">  1        4 0.86207663E-01 0.12494369E+03</pdfrwt>
<pdfrwt beam="1">  1       -4 0.10715097E-02 0.12494369E+03</pdfrwt>
<totfact> 0.51061083E+03</totfact>
</mgrwt>
</event>
<event>
 5    1  0.3196850E-002  0.1249986E+03  0.7818608E-02  0.1235071E+00
          4   -1    0    0  501    0  0.00000000000E+00  0.00000000000E+00  0.27668808880E+02  0.27697940083E+02  0.12700000000E+01 0.  1.
         -4   -1    0    0    0  501 -0.00000000000E+00 -0.00000000000E+00 -0.14106939967E+03  0.14107511625E+03  0.12700000000E+01 0.  1.
         25    2    1    2    0    0  0.00000000000E+00  0.00000000000E+00 -0.11340059079E+03  0.16877305633E+03  0.12499860220E+03 0.  0.
    9000005    1    3    3    0    0 -0.32577512274E+02 -0.53113048468E+02 -0.63157639981E+02  0.88725293528E+02  0.10000000000E+01 0.  0.
    9000005    1    3    3    0    0  0.32577512274E+02  0.53113048468E+02 -0.50242950813E+02  0.80047762804E+02  0.10000000000E+01 0.  0.
<mgrwt>
<rscale>  0 0.12499860E+03</rscale>
<asrwt>0</asrwt>
<pdfrwt beam="1">  1        4 0.42594205E-02 0.12499860E+03</pdfrwt>
<pdfrwt beam="2">  1       -4 0.21705665E-01 0.12499860E+03</pdfrwt>
<totfact> 0.95680572E+03</totfact>
</mgrwt>
</event>
<event>
 5    1  0.3196850E-002  0.1249981E+03  0.7818608E-02  0.1235072E+00
         -4   -1    0    0    0  501 -0.00000000000E+00  0.00000000000E+00  0.55954779563E+02  0.55969190238E+02  0.12700000000E+01 0. -1.
          4   -1    0    0  501    0  0.00000000000E+00 -0.00000000000E+00 -0.69779548048E+02  0.69791104202E+02  0.12700000000E+01 0. -1.
         25    2    1    2    0    0  0.00000000000E+00  0.00000000000E+00 -0.13824768485E+02  0.12576029444E+03  0.12499810972E+03 0.  0.
    9000005    1    3    3    0    0 -0.27963718348E+02  0.54962007219E+02  0.32656280278E+01  0.61761283242E+02  0.10000000000E+01 0.  0.
    9000005    1    3    3    0    0  0.27963718348E+02 -0.54962007219E+02 -0.17090396513E+02  0.63999011198E+02  0.10000000000E+01 0.  0.
<mgrwt>
<rscale>  0 0.12499811E+03</rscale>
<asrwt>0</asrwt>
<pdfrwt beam="2">  1        4 0.10737313E-01 0.12499811E+03</pdfrwt>
<pdfrwt beam="1">  1       -4 0.86104251E-02 0.12499811E+03</pdfrwt>
<totfact> 0.10436663E+04</totfact>
</mgrwt>
</event>
<event>
 5    1  0.3196850E-002  0.1250021E+03  0.7818608E-02  0.1235066E+00
          4   -1    0    0  501    0  0.00000000000E+00  0.00000000000E+00  0.33480308367E+02  0.33504387002E+02  0.12700000000E+01 0.  1.
         -4   -1    0    0    0  501 -0.00000000000E+00 -0.00000000000E+00 -0.11660747028E+03  0.11661438601E+03  0.12700000000E+01 0.  1.
         25    2    1    2    0    0  0.00000000000E+00  0.00000000000E+00 -0.83127161914E+02  0.15011877302E+03  0.12500208384E+03 0.  0.
    9000005    1    3    3    0    0  0.67112484439E+01  0.56575723122E+02 -0.72404976605E+02  0.92137581581E+02  0.10000000000E+01 0.  0.
    9000005    1    3    3    0    0 -0.67112484439E+01 -0.56575723122E+02 -0.10722185309E+02  0.57981191435E+02  0.10000000000E+01 0.  0.
<mgrwt>
<rscale>  0 0.12500208E+03</rscale>
<asrwt>0</asrwt>
<pdfrwt beam="1">  1        4 0.51532009E-02 0.12500208E+03</pdfrwt>
<pdfrwt beam="2">  1       -4 0.17941995E-01 0.12500208E+03</pdfrwt>
<totfact> 0.99275372E+03</totfact>
</mgrwt>
</event>
<event>
 5    1  0.3196850E-002  0.1250018E+03  0.7818608E-02  0.1235066E+00
          4   -1    0    0  501    0  0.00000000000E+00  0.00000000000E+00  0.20581299934E+03  0.20581691767E+03  0.12700000000E+01 0. -1.
         -4   -1    0    0    0  501 -0.00000000000E+00 -0.00000000000E+00 -0.18954803254E+02  0.18997301556E+02  0.12700000000E+01 0. -1.
         25    2    1    2    0    0  0.00000000000E+00  0.00000000000E+00  0.18685819609E+03  0.22481421922E+03  0.12500179087E+03 0.  0.
    9000005    1    3    3    0    0  0.40765760100E+01  0.61115911941E+02  0.71140268322E+02  0.93881366315E+02  0.10000000000E+01 0.  0.
    9000005    1    3    3    0    0 -0.40765760100E+01 -0.61115911941E+02  0.11571792776E+03  0.13093285291E+03  0.10000000000E+01 0.  0.
<mgrwt>
<rscale>  0 0.12500179E+03</rscale>
<asrwt>0</asrwt>
<pdfrwt beam="1">  1        4 0.31667110E-01 0.12500179E+03</pdfrwt>
<pdfrwt beam="2">  1       -4 0.29196940E-02 0.12500179E+03</pdfrwt>
<totfact> 0.86108803E+03</totfact>
</mgrwt>
</event>
<event>
 5    1  0.3196850E-002  0.1250031E+03  0.7818608E-02  0.1235064E+00
         -4   -1    0    0    0  501 -0.00000000000E+00  0.00000000000E+00  0.77949968171E+02  0.77960313224E+02  0.12700000000E+01 0.  1.
          4   -1    0    0  501    0  0.00000000000E+00 -0.00000000000E+00 -0.50093055768E+02  0.50109152219E+02  0.12700000000E+01 0.  1.
         25    2    1    2    0    0  0.00000000000E+00  0.00000000000E+00  0.27856912404E+02  0.12806946544E+03  0.12500312160E+03 0.  0.
    9000005    1    3    3    0    0  0.23040265314E+02 -0.54670545642E+02 -0.61931361563E+01  0.59658003001E+02  0.10000000000E+01 0.  0.
    9000005    1    3    3    0    0 -0.23040265314E+02  0.54670545642E+02  0.34050048560E+02  0.68411462442E+02  0.10000000000E+01 0.  0.
<mgrwt>
<rscale>  0 0.12500312E+03</rscale>
<asrwt>0</asrwt>
<pdfrwt beam="2">  1        4 0.77086579E-02 0.12500312E+03</pdfrwt>
<pdfrwt beam="1">  1       -4 0.11994337E-01 0.12500312E+03</pdfrwt>
<totfact> 0.10385256E+04</totfact>
</mgrwt>
</event>
<event>
 5    1  0.3196850E-002  0.1249948E+03  0.7818608E-02  0.1235077E+00
         -4   -1    0    0    0  501 -0.00000000000E+00  0.00000000000E+00  0.81761225766E+02  0.81771088648E+02  0.12700000000E+01 0.  1.
          4   -1    0    0  501    0  0.00000000000E+00 -0.00000000000E+00 -0.47751128431E+02  0.47768014052E+02  0.12700000000E+01 0.  1.
         25    2    1    2    0    0  0.00000000000E+00  0.00000000000E+00  0.34010097335E+02  0.12953910270E+03  0.12499476952E+03 0.  0.
    9000005    1    3    3    0    0  0.32489258791E+02  0.72303401080E+01  0.71815392249E+02  0.79159840315E+02  0.10000000000E+01 0.  0.
    9000005    1    3    3    0    0 -0.32489258791E+02 -0.72303401080E+01 -0.37805294914E+02  0.50379262385E+02  0.10000000000E+01 0.  0.
<mgrwt>
<rscale>  0 0.12499477E+03</rscale>
<asrwt>0</asrwt>
<pdfrwt beam="2">  1        4 0.73483850E-02 0.12499477E+03</pdfrwt>
<pdfrwt beam="1">  1       -4 0.12580708E-01 0.12499477E+03</pdfrwt>
<totfact> 0.10355599E+04</totfact>
</mgrwt>
</event>
<event>
 5    1  0.3196850E-002  0.1250024E+03  0.7818608E-02  0.1235065E+00
          4   -1    0    0  501    0  0.00000000000E+00  0.00000000000E+00  0.26638105463E+02  0.26668362579E+02  0.12700000000E+01 0. -1.
         -4   -1    0    0    0  501 -0.00000000000E+00 -0.00000000000E+00 -0.14653091333E+03  0.14653641685E+03  0.12700000000E+01 0. -1.
         25    2    1    2    0    0  0.00000000000E+00  0.00000000000E+00 -0.11989280787E+03  0.17320477942E+03  0.12500244092E+03 0.  0.
    9000005    1    3    3    0    0 -0.47725958201E+02  0.38848198489E+01 -0.11558768464E+03  0.12511743184E+03  0.10000000000E+01 0.  0.
    9000005    1    3    3    0    0  0.47725958201E+02 -0.38848198489E+01 -0.43051232343E+01  0.48087347583E+02  0.10000000000E+01 0.  0.
<mgrwt>
<rscale>  0 0.12500244E+03</rscale>
<asrwt>0</asrwt>
<pdfrwt beam="1">  1        4 0.41009210E-02 0.12500244E+03</pdfrwt>
<pdfrwt beam="2">  1       -4 0.22545968E-01 0.12500244E+03</pdfrwt>
<totfact> 0.94849468E+03</totfact>
</mgrwt>
</event>
<event>
 5    1  0.3196850E-002  0.1250006E+03  0.7818608E-02  0.1235068E+00
         -4   -1    0    0    0  501 -0.00000000000E+00  0.00000000000E+00  0.21193175976E+03  0.21193556496E+03  0.12700000000E+01 0.  1.
          4   -1    0    0  501    0  0.00000000000E+00 -0.00000000000E+00 -0.18405971446E+02  0.18449734005E+02  0.12700000000E+01 0.  1.
         25    2    1    2    0    0  0.00000000000E+00  0.00000000000E+00  0.19352578831E+03  0.23038529896E+03  0.12500062094E+03 0.  0.
    9000005    1    3    3    0    0  0.24064523045E+01 -0.53213695446E+02  0.15698939549E+03  0.16578346930E+03  0.10000000000E+01 0.  0.
    9000005    1    3    3    0    0 -0.24064523045E+01  0.53213695446E+02  0.36536392820E+02  0.64601829665E+02  0.10000000000E+01 0.  0.
<mgrwt>
<rscale>  0 0.12500062E+03</rscale>
<asrwt>0</asrwt>
<pdfrwt beam="2">  1        4 0.28353469E-02 0.12500062E+03</pdfrwt>
<pdfrwt beam="1">  1       -4 0.32608545E-01 0.12500062E+03</pdfrwt>
<totfact> 0.85249287E+03</totfact>
</mgrwt>
</event>
<event>
 5    1  0.3196850E-002  0.1250055E+03  0.7818608E-02  0.1235061E+00
          4   -1    0    0  501    0  0.00000000000E+00  0.00000000000E+00  0.74739206608E+02  0.74749996016E+02  0.12700000000E+01 0. -1.
         -4   -1    0    0    0  501 -0.00000000000E+00 -0.00000000000E+00 -0.52247406443E+02  0.52262839380E+02  0.12700000000E+01 0. -1.
         25    2    1    2    0    0  0.00000000000E+00  0.00000000000E+00  0.22491800164E+02  0.12701283540E+03  0.12500551700E+03 0.  0.
    9000005    1    3    3    0    0  0.13394267185E+02 -0.35758102774E+02  0.61513008968E+02  0.72407862692E+02  0.10000000000E+01 0.  0.
    9000005    1    3    3    0    0 -0.13394267185E+02  0.35758102774E+02 -0.39021208803E+02  0.54604972703E+02  0.10000000000E+01 0.  0.
<mgrwt>
<rscale>  0 0.12500552E+03</rscale>
<asrwt>0</asrwt>
<pdfrwt beam="1">  1        4 0.11500357E-01 0.12500552E+03</pdfrwt>
<pdfrwt beam="2">  1       -4 0.80400797E-02 0.12500552E+03</pdfrwt>
<totfact> 0.10407571E+04</totfact>
</mgrwt>
</event>
<event>
 5    1  0.3196850E-002  0.1250003E+03  0.7818608E-02  0.1235069E+00
         -4   -1    0    0    0  501 -0.00000000000E+00  0.00000000000E+00  0.49760636963E+02  0.49776840910E+02  0.12700000000E+01 0.  1.
          4   -1    0    0  501    0  0.00000000000E+00 -0.00000000000E+00 -0.78467066720E+02  0.78477343607E+02  0.12700000000E+01 0.  1.
         25    2    1    2    0    0  0.00000000000E+00  0.00000000000E+00 -0.28706429756E+02  0.12825418452E+03  0.12500030695E+03 0.  0.
    9000005    1    3    3    0    0 -0.18023681580E+02 -0.27605368337E+02  0.40116948292E+02  0.51935334783E+02  0.10000000000E+01 0.  0.
    9000005    1    3    3    0    0  0.18023681580E+02  0.27605368337E+02 -0.68823378048E+02  0.76318849734E+02  0.10000000000E+01 0.  0.
<mgrwt>
<rscale>  0 0.12500031E+03</rscale>
<asrwt>0</asrwt>
<pdfrwt beam="2">  1        4 0.12073893E-01 0.12500031E+03</pdfrwt>
<pdfrwt beam="1">  1       -4 0.76575196E-02 0.12500031E+03</pdfrwt>
<totfact> 0.10381930E+04</totfact>
</mgrwt>
</event>
<event>
 5    1  0.3196850E-002  0.1249924E+03  0.7818608E-02  0.1235081E+00
          4   -1    0    0  501    0  0.00000000000E+00  0.00000000000E+00  0.41552267290E+01  0.43449751633E+01  0.12700000000E+01 0.  1.
         -4   -1    0    0    0  501 -0.00000000000E+00 -0.00000000000E+00 -0.91879366117E+03  0.91879453889E+03  0.12700000000E+01 0.  1.
         25    2    1    2    0    0  0.00000000000E+00  0.00000000000E+00 -0.91463843444E+03  0.92313951406E+03  0.12499238642E+03 0.  0.
    9000005    1    3    3    0    0 -0.33311288640E+01  0.45661117874E+01  0.22997118273E+01  0.61834028538E+01  0.10000000000E+01 0.  0.
    9000005    1    3    3    0    0  0.33311288640E+01 -0.45661117874E+01 -0.91693814627E+03  0.91695611120E+03  0.10000000000E+01 0.  0.
<mgrwt>
<rscale>  0 0.12499239E+03</rscale>
<asrwt>0</asrwt>
<pdfrwt beam="1">  1        4 0.65392994E-03 0.12499239E+03</pdfrwt>
<pdfrwt beam="2">  1       -4 0.14136738E+00 0.12499239E+03</pdfrwt>
<totfact> 0.33294783E+03</totfact>
</mgrwt>
</event>
<event>
 5    1  0.3196850E-002  0.1249862E+03  0.7818608E-02  0.1235091E+00
          4   -1    0    0  501    0  0.00000000000E+00  0.00000000000E+00  0.17362136821E+03  0.17362601303E+03  0.12700000000E+01 0.  1.
         -4   -1    0    0    0  501 -0.00000000000E+00 -0.00000000000E+00 -0.22470838554E+02  0.22506698677E+02  0.12700000000E+01 0.  1.
         25    2    1    2    0    0  0.00000000000E+00  0.00000000000E+00  0.15115052966E+03  0.19613271170E+03  0.12498623118E+03 0.  0.
    9000005    1    3    3    0    0 -0.22223208178E+02  0.56557573096E+02  0.98410697784E+02  0.11566458185E+03  0.10000000000E+01 0.  0.
    9000005    1    3    3    0    0  0.22223208178E+02 -0.56557573096E+02  0.52739831875E+02  0.80468129855E+02  0.10000000000E+01 0.  0.
<mgrwt>
<rscale>  0 0.12498623E+03</rscale>
<asrwt>0</asrwt>
<pdfrwt beam="1">  1        4 0.26714096E-01 0.12498623E+03</pdfrwt>
<pdfrwt beam="2">  1       -4 0.34601678E-02 0.12498623E+03</pdfrwt>
<totfact> 0.90819047E+03</totfact>
</mgrwt>
</event>
<event>
 5    1  0.3196850E-002  0.1250047E+03  0.7818608E-02  0.1235062E+00
          4   -1    0    0  501    0  0.00000000000E+00  0.00000000000E+00  0.31772351114E+03  0.31772604934E+03  0.12700000000E+01 0. -1.
         -4   -1    0    0    0  501 -0.00000000000E+00 -0.00000000000E+00 -0.12260036612E+02  0.12325639851E+02  0.12700000000E+01 0. -1.
         25    2    1    2    0    0  0.00000000000E+00  0.00000000000E+00  0.30546347453E+03  0.33005168919E+03  0.12500473299E+03 0.  0.
    9000005    1    3    3    0    0  0.46529772811E+02 -0.12500735548E+02  0.25782343602E+03  0.26228841436E+03  0.10000000000E+01 0.  0.
    9000005    1    3    3    0    0 -0.46529772811E+02  0.12500735548E+02  0.47640038513E+02  0.67763274837E+02  0.10000000000E+01 0.  0.
<mgrwt>
<rscale>  0 0.12500473E+03</rscale>
<asrwt>0</asrwt>
<pdfrwt beam="1">  1        4 0.48885787E-01 0.12500473E+03</pdfrwt>
<pdfrwt beam="2">  1       -4 0.18914009E-02 0.12500473E+03</pdfrwt>
<totfact> 0.71968794E+03</totfact>
</mgrwt>
</event>
<event>
 5    1  0.3196850E-002  0.1249992E+03  0.7818608E-02  0.1235071E+00
         -4   -1    0    0    0  501 -0.00000000000E+00  0.00000000000E+00  0.11641190383E+03  0.11641883118E+03  0.12700000000E+01 0. -1.
          4   -1    0    0  501    0  0.00000000000E+00 -0.00000000000E+00 -0.33535046949E+02  0.33559086308E+02  0.12700000000E+01 0. -1.
         25    2    1    2    0    0  0.00000000000E+00  0.00000000000E+00  0.82876856880E+02  0.14997791749E+03  0.12499920931E+03 0.  0.
    9000005    1    3    3    0    0  0.26153885125E+02 -0.49669352298E+02  0.74387505442E+02  0.93196412113E+02  0.10000000000E+01 0.  0.
    9000005    1    3    3    0    0 -0.26153885125E+02  0.49669352298E+02  0.84893514382E+01  0.56781505375E+02  0.10000000000E+01 0.  0.
<mgrwt>
<rscale>  0 0.12499921E+03</rscale>
<asrwt>0</asrwt>
<pdfrwt beam="2">  1        4 0.51616201E-02 0.12499921E+03</pdfrwt>
<pdfrwt beam="1">  1       -4 0.17911905E-01 0.12499921E+03</pdfrwt>
<totfact> 0.99309867E+03</totfact>
</mgrwt>
</event>
<event>
 5    1  0.3196850E-002  0.1249991E+03  0.7818608E-02  0.1235071E+00
         -4   -1    0    0    0  501 -0.00000000000E+00  0.00000000000E+00  0.46353368831E+03  0.46353542809E+03  0.12700000000E+01 0.  1.
          4   -1    0    0  501    0  0.00000000000E+00 -0.00000000000E+00 -0.83773688231E+01  0.84730873002E+01  0.12700000000E+01 0.  1.
         25    2    1    2    0    0  0.00000000000E+00  0.00000000000E+00  0.45515631949E+03  0.47200851539E+03  0.12499905374E+03 0.  0.
    9000005    1    3    3    0    0  0.52482800338E+02  0.31972865679E+02  0.18477607641E+03  0.19473034402E+03  0.10000000000E+01 0.  0.
    9000005    1    3    3    0    0 -0.52482800338E+02 -0.31972865679E+02  0.27038024308E+03  0.27727817137E+03  0.10000000000E+01 0.  0.
<mgrwt>
<rscale>  0 0.12499905E+03</rscale>
<asrwt>0</asrwt>
<pdfrwt beam="2">  1        4 0.12963228E-02 0.12499905E+03</pdfrwt>
<pdfrwt beam="1">  1       -4 0.71320370E-01 0.12499905E+03</pdfrwt>
<totfact> 0.58104717E+03</totfact>
</mgrwt>
</event>
<event>
 5    1  0.3196850E-002  0.1250047E+03  0.7818608E-02  0.1235062E+00
          4   -1    0    0  501    0  0.00000000000E+00  0.00000000000E+00  0.85989494878E+01  0.86922282698E+01  0.12700000000E+01 0. -1.
         -4   -1    0    0    0  501 -0.00000000000E+00 -0.00000000000E+00 -0.45175948754E+03  0.45176127267E+03  0.12700000000E+01 0. -1.
         25    2    1    2    0    0  0.00000000000E+00  0.00000000000E+00 -0.44316053805E+03  0.46045350094E+03  0.12500465607E+03 0.  0.
    9000005    1    3    3    0    0  0.55098820431E+02  0.14502750843E+02 -0.31616290390E+03  0.32125720474E+03  0.10000000000E+01 0.  0.
    9000005    1    3    3    0    0 -0.55098820431E+02 -0.14502750843E+02 -0.12699763416E+03  0.13919629620E+03  0.10000000000E+01 0.  0.
<mgrwt>
<rscale>  0 0.12500466E+03</rscale>
<asrwt>0</asrwt>
<pdfrwt beam="1">  1        4 0.13302283E-02 0.12500466E+03</pdfrwt>
<pdfrwt beam="2">  1       -4 0.69508754E-01 0.12500466E+03</pdfrwt>
<totfact> 0.59062740E+03</totfact>
</mgrwt>
</event>
<event>
 5    1  0.3196850E-002  0.1249955E+03  0.7818608E-02  0.1235076E+00
         -4   -1    0    0    0  501 -0.00000000000E+00  0.00000000000E+00  0.12598518707E+03  0.12599158806E+03  0.12700000000E+01 0.  1.
          4   -1    0    0  501    0  0.00000000000E+00 -0.00000000000E+00 -0.30983222842E+02  0.31009240521E+02  0.12700000000E+01 0.  1.
         25    2    1    2    0    0  0.00000000000E+00  0.00000000000E+00  0.95001964231E+02  0.15700082858E+03  0.12499554779E+03 0.  0.
    9000005    1    3    3    0    0 -0.31730621157E+02 -0.34461797205E+02  0.99449358767E+02  0.10993462942E+03  0.10000000000E+01 0.  0.
    9000005    1    3    3    0    0  0.31730621157E+02  0.34461797205E+02 -0.44473945357E+01  0.47066199164E+02  0.10000000000E+01 0.  0.
<mgrwt>
<rscale>  0 0.12499555E+03</rscale>
<asrwt>0</asrwt>
<pdfrwt beam="2">  1        4 0.47691434E-02 0.12499555E+03</pdfrwt>
<pdfrwt beam="1">  1       -4 0.19384830E-01 0.12499555E+03</pdfrwt>
<totfact> 0.97933941E+03</totfact>
</mgrwt>
</event>
<event>
 5    1  0.3196850E-002  0.1249827E+03  0.7818608E-02  0.1235096E+00
         -4   -1    0    0    0  501 -0.00000000000E+00  0.00000000000E+00  0.44533906057E+01  0.46309381217E+01  0.12700000000E+01 0.  1.
          4   -1    0    0  501    0  0.00000000000E+00 -0.00000000000E+00 -0.85958086113E+03  0.85958179932E+03  0.12700000000E+01 0.  1.
         25    2    1    2    0    0  0.00000000000E+00  0.00000000000E+00 -0.85512747053E+03  0.86421273744E+03  0.12498265764E+03 0.  0.
    9000005    1    3    3    0    0  0.11138377425E+02  0.41303641159E+02 -0.74247413619E+03  0.74370619007E+03  0.10000000000E+01 0.  0.
    9000005    1    3    3    0    0 -0.11138377425E+02 -0.41303641159E+02 -0.11265333433E+03  0.12050654738E+03  0.10000000000E+01 0.  0.
<mgrwt>
<rscale>  0 0.12498266E+03</rscale>
<asrwt>0</asrwt>
<pdfrwt beam="2">  1        4 0.13225681E+00 0.12498266E+03</pdfrwt>
<pdfrwt beam="1">  1       -4 0.69886737E-03 0.12498266E+03</pdfrwt>
<totfact> 0.35566180E+03</totfact>
</mgrwt>
</event>
<event>
 5    1  0.3196850E-002  0.1249991E+03  0.7818608E-02  0.1235071E+00
          4   -1    0    0  501    0  0.00000000000E+00  0.00000000000E+00  0.79705901179E+02  0.79716018358E+02  0.12700000000E+01 0.  1.
         -4   -1    0    0    0  501 -0.00000000000E+00 -0.00000000000E+00 -0.48986118992E+02  0.49002579054E+02  0.12700000000E+01 0.  1.
         25    2    1    2    0    0  0.00000000000E+00  0.00000000000E+00  0.30719782187E+02  0.12871859741E+03  0.12499908920E+03 0.  0.
    9000005    1    3    3    0    0 -0.15699672882E+02 -0.51256929035E+02  0.48431593829E+02  0.72252140339E+02  0.10000000000E+01 0.  0.
    9000005    1    3    3    0    0  0.15699672882E+02  0.51256929035E+02 -0.17711811642E+02  0.56466457073E+02  0.10000000000E+01 0.  0.
<mgrwt>
<rscale>  0 0.12499909E+03</rscale>
<asrwt>0</asrwt>
<pdfrwt beam="1">  1        4 0.12264491E-01 0.12499909E+03</pdfrwt>
<pdfrwt beam="2">  1       -4 0.75383705E-02 0.12499909E+03</pdfrwt>
<totfact> 0.10372211E+04</totfact>
</mgrwt>
</event>
<event>
 5    1  0.3196850E-002  0.1249946E+03  0.7818608E-02  0.1235078E+00
          4   -1    0    0  501    0  0.00000000000E+00  0.00000000000E+00  0.38620354836E+03  0.38620563651E+03  0.12700000000E+01 0.  1.
         -4   -1    0    0    0  501 -0.00000000000E+00 -0.00000000000E+00 -0.10071617354E+02  0.10151373115E+02  0.12700000000E+01 0.  1.
         25    2    1    2    0    0  0.00000000000E+00  0.00000000000E+00  0.37613193101E+03  0.39635700962E+03  0.12499459809E+03 0.  0.
    9000005    1    3    3    0    0  0.19893749161E+02  0.48227152820E+01  0.84594142600E+00  0.20511836955E+02  0.10000000000E+01 0.  0.
    9000005    1    3    3    0    0 -0.19893749161E+02 -0.48227152820E+01  0.37528598958E+03  0.37584517267E+03  0.10000000000E+01 0.  0.
<mgrwt>
<rscale>  0 0.12499460E+03</rscale>
<asrwt>0</asrwt>
<pdfrwt beam="1">  1        4 0.59422234E-01 0.12499460E+03</pdfrwt>
<pdfrwt beam="2">  1       -4 0.15557751E-02 0.12499460E+03</pdfrwt>
<totfact> 0.64916387E+03</totfact>
</mgrwt>
</event>
<event>
 5    1  0.3196850E-002  0.1250011E+03  0.7818608E-02  0.1235068E+00
          4   -1    0    0  501    0  0.00000000000E+00  0.00000000000E+00  0.61793566257E+02  0.61806615591E+02  0.12700000000E+01 0. -1.
         -4   -1    0    0    0  501 -0.00000000000E+00 -0.00000000000E+00 -0.63189540125E+02  0.63202301233E+02  0.12700000000E+01 0. -1.
         25    2    1    2    0    0  0.00000000000E+00  0.00000000000E+00 -0.13959738676E+01  0.12500891682E+03  0.12500112217E+03 0.  0.
    9000005    1    3    3    0    0  0.13555028260E+02 -0.37649496592E+02  0.47306014063E+02  0.61968398004E+02  0.10000000000E+01 0.  0.
    9000005    1    3    3    0    0 -0.13555028260E+02  0.37649496592E+02 -0.48701987930E+02  0.63040518820E+02  0.10000000000E+01 0.  0.
<mgrwt>
<rscale>  0 0.12500112E+03</rscale>
<asrwt>0</asrwt>
<pdfrwt beam="1">  1        4 0.95086879E-02 0.12500112E+03</pdfrwt>
<pdfrwt beam="2">  1       -4 0.97234532E-02 0.12500112E+03</pdfrwt>
<totfact> 0.10452404E+04</totfact>
</mgrwt>
</event>
<event>
 5    1  0.3196850E-002  0.1250018E+03  0.7818608E-02  0.1235066E+00
         -4   -1    0    0    0  501 -0.00000000000E+00  0.00000000000E+00  0.86704524052E+01  0.87629700964E+01  0.12700000000E+01 0.  1.
          4   -1    0    0  501    0  0.00000000000E+00 -0.00000000000E+00 -0.44805324594E+03  0.44805504583E+03  0.12700000000E+01 0.  1.
         25    2    1    2    0    0  0.00000000000E+00  0.00000000000E+00 -0.43938279354E+03  0.45681801593E+03  0.12500184168E+03 0.  0.
    9000005    1    3    3    0    0  0.22446551482E+02 -0.26236841591E+02 -0.29336803862E+02  0.45319615962E+02  0.10000000000E+01 0.  0.
    9000005    1    3    3    0    0 -0.22446551482E+02  0.26236841591E+02 -0.41004598967E+03  0.41149839997E+03  0.10000000000E+01 0.  0.
<mgrwt>
<rscale>  0 0.12500184E+03</rscale>
<asrwt>0</asrwt>
<pdfrwt beam="2">  1        4 0.68938506E-01 0.12500184E+03</pdfrwt>
<pdfrwt beam="1">  1       -4 0.13411713E-02 0.12500184E+03</pdfrwt>
<totfact> 0.59375268E+03</totfact>
</mgrwt>
</event>
<event>
 5    1  0.3196850E-002  0.1249954E+03  0.7818608E-02  0.1235077E+00
         -4   -1    0    0    0  501 -0.00000000000E+00  0.00000000000E+00  0.17062964303E+03  0.17063436929E+03  0.12700000000E+01 0.  1.
          4   -1    0    0  501    0  0.00000000000E+00 -0.00000000000E+00 -0.22868793432E+02  0.22904030498E+02  0.12700000000E+01 0.  1.
         25    2    1    2    0    0  0.00000000000E+00  0.00000000000E+00  0.14776084960E+03  0.19353839979E+03  0.12499537398E+03 0.  0.
    9000005    1    3    3    0    0  0.45265209703E+01  0.52711808836E+02  0.12537225637E+03  0.13608169182E+03  0.10000000000E+01 0.  0.
    9000005    1    3    3    0    0 -0.45265209703E+01 -0.52711808836E+02  0.22388593236E+02  0.57456707963E+02  0.10000000000E+01 0.  0.
<mgrwt>
<rscale>  0 0.12499537E+03</rscale>
<asrwt>0</asrwt>
<pdfrwt beam="2">  1        4 0.35213501E-02 0.12499537E+03</pdfrwt>
<pdfrwt beam="1">  1       -4 0.26253788E-01 0.12499537E+03</pdfrwt>
<totfact> 0.91244715E+03</totfact>
</mgrwt>
</event>
<event>
 5    1  0.3196850E-002  0.1249996E+03  0.7818608E-02  0.1235070E+00
         -4   -1    0    0    0  501 -0.00000000000E+00  0.00000000000E+00  0.46184166793E+02  0.46201625105E+02  0.12700000000E+01 0. -1.
          4   -1    0    0  501    0  0.00000000000E+00 -0.00000000000E+00 -0.84541056111E+02  0.84550594725E+02  0.12700000000E+01 0. -1.
         25    2    1    2    0    0  0.00000000000E+00  0.00000000000E+00 -0.38356889318E+02  0.13075221983E+03  0.12499956813E+03 0.  0.
    9000005    1    3    3    0    0 -0.46540618338E+02 -0.40581516105E+02 -0.29229746892E+02  0.68324715207E+02  0.10000000000E+01 0.  0.
    9000005    1    3    3    0    0  0.46540618338E+02  0.40581516105E+02 -0.91271424259E+01  0.62427504624E+02  0.10000000000E+01 0.  0.
<mgrwt>
<rscale>  0 0.12499957E+03</rscale>
<asrwt>0</asrwt>
<pdfrwt beam="2">  1        4 0.13008393E-01 0.12499957E+03</pdfrwt>
<pdfrwt beam="1">  1       -4 0.71073331E-02 0.12499957E+03</pdfrwt>
<totfact> 0.10328505E+04</totfact>
</mgrwt>
</event>
<event>
 5    1  0.3196850E-002  0.1249973E+03  0.7818608E-02  0.1235073E+00
         -4   -1    0    0    0  501 -0.00000000000E+00  0.00000000000E+00  0.99717661318E+02  0.99725748324E+02  0.12700000000E+01 0.  1.
          4   -1    0    0  501    0  0.00000000000E+00 -0.00000000000E+00 -0.39151442877E+02  0.39172035680E+02  0.12700000000E+01 0.  1.
         25    2    1    2    0    0  0.00000000000E+00  0.00000000000E+00  0.60566218441E+02  0.13889778400E+03  0.12499731031E+03 0.  0.
    9000005    1    3    3    0    0  0.31877679255E+02  0.44521164483E+02  0.63744281741E+02  0.84039597669E+02  0.10000000000E+01 0.  0.
    9000005    1    3    3    0    0 -0.31877679255E+02 -0.44521164483E+02 -0.31780633000E+01  0.54858186335E+02  0.10000000000E+01 0.  0.
<mgrwt>
<rscale>  0 0.12499731E+03</rscale>
<asrwt>0</asrwt>
<pdfrwt beam="2">  1        4 0.60255051E-02 0.12499731E+03</pdfrwt>
<pdfrwt beam="1">  1       -4 0.15343385E-01 0.12499731E+03</pdfrwt>
<totfact> 0.10157096E+04</totfact>
</mgrwt>
</event>
<event>
 5    1  0.3196850E-002  0.1250011E+03  0.7818608E-02  0.1235067E+00
          4   -1    0    0  501    0  0.00000000000E+00  0.00000000000E+00  0.32785429032E+03  0.32785675009E+03  0.12700000000E+01 0. -1.
         -4   -1    0    0    0  501 -0.00000000000E+00 -0.00000000000E+00 -0.11878455692E+02  0.11946154596E+02  0.12700000000E+01 0. -1.
         25    2    1    2    0    0  0.00000000000E+00  0.00000000000E+00  0.31597583462E+03  0.33980290468E+03  0.12500114386E+03 0.  0.
    9000005    1    3    3    0    0  0.99694846466E+00 -0.48342123372E+02  0.50366574469E+02  0.69826546686E+02  0.10000000000E+01 0.  0.
    9000005    1    3    3    0    0 -0.99694846466E+00  0.48342123372E+02  0.26560926015E+03  0.26997635800E+03  0.10000000000E+01 0.  0.
<mgrwt>
<rscale>  0 0.12500114E+03</rscale>
<asrwt>0</asrwt>
<pdfrwt beam="1">  1        4 0.50444513E-01 0.12500114E+03</pdfrwt>
<pdfrwt beam="2">  1       -4 0.18328517E-02 0.12500114E+03</pdfrwt>
<totfact> 0.70859330E+03</totfact>
</mgrwt>
</event>
<event>
 5    1  0.3196850E-002  0.1250024E+03  0.7818608E-02  0.1235066E+00
         -4   -1    0    0    0  501 -0.00000000000E+00  0.00000000000E+00  0.16096587081E+03  0.16097088080E+03  0.12700000000E+01 0. -1.
          4   -1    0    0  501    0  0.00000000000E+00 -0.00000000000E+00 -0.24246482580E+02  0.24279720293E+02  0.12700000000E+01 0. -1.
         25    2    1    2    0    0  0.00000000000E+00  0.00000000000E+00  0.13671938823E+03  0.18525060109E+03  0.12500237632E+03 0.  0.
    9000005    1    3    3    0    0  0.24414331700E+02  0.57243795933E+02  0.76806539284E+02  0.98859274942E+02  0.10000000000E+01 0.  0.
    9000005    1    3    3    0    0 -0.24414331700E+02 -0.57243795933E+02  0.59912848942E+02  0.86391326148E+02  0.10000000000E+01 0.  0.
<mgrwt>
<rscale>  0 0.12500238E+03</rscale>
<asrwt>0</asrwt>
<pdfrwt beam="2">  1        4 0.37331700E-02 0.12500238E+03</pdfrwt>
<pdfrwt beam="1">  1       -4 0.24766924E-01 0.12500238E+03</pdfrwt>
<totfact> 0.92675388E+03</totfact>
</mgrwt>
</event>
<event>
 5    1  0.3196850E-002  0.1249988E+03  0.7818608E-02  0.1235071E+00
          4   -1    0    0  501    0  0.00000000000E+00  0.00000000000E+00  0.57527397402E+02  0.57541414232E+02  0.12700000000E+01 0.  1.
         -4   -1    0    0    0  501 -0.00000000000E+00 -0.00000000000E+00 -0.67872861418E+02  0.67884742152E+02  0.12700000000E+01 0.  1.
         25    2    1    2    0    0  0.00000000000E+00  0.00000000000E+00 -0.10345464016E+02  0.12542615638E+03  0.12499876831E+03 0.  0.
    9000005    1    3    3    0    0  0.39893783661E+02  0.48097837419E+02 -0.46639671103E+01  0.62671113987E+02  0.10000000000E+01 0.  0.
    9000005    1    3    3    0    0 -0.39893783661E+02 -0.48097837419E+02 -0.56814969054E+01  0.62755042397E+02  0.10000000000E+01 0.  0.
<mgrwt>
<rscale>  0 0.12499877E+03</rscale>
<asrwt>0</asrwt>
<pdfrwt beam="1">  1        4 0.88523610E-02 0.12499877E+03</pdfrwt>
<pdfrwt beam="2">  1       -4 0.10443971E-01 0.12499877E+03</pdfrwt>
<totfact> 0.10443878E+04</totfact>
</mgrwt>
</event>
<event>
 5    1  0.3196850E-002  0.1249958E+03  0.7818608E-02  0.1235076E+00
         -4   -1    0    0    0  501 -0.00000000000E+00  0.00000000000E+00  0.34094356857E+03  0.34094593391E+03  0.12700000000E+01 0. -1.
          4   -1    0    0  501    0  0.00000000000E+00 -0.00000000000E+00 -0.11418802153E+02  0.11489209834E+02  0.12700000000E+01 0. -1.
         25    2    1    2    0    0  0.00000000000E+00  0.00000000000E+00  0.32952476642E+03  0.35243514374E+03  0.12499583538E+03 0.  0.
    9000005    1    3    3    0    0  0.60321749601E+02  0.43927959087E+01  0.20907365279E+03  0.21764834578E+03  0.10000000000E+01 0.  0.
    9000005    1    3    3    0    0 -0.60321749601E+02 -0.43927959087E+01  0.12045111363E+03  0.13478679797E+03  0.10000000000E+01 0.  0.
<mgrwt>
<rscale>  0 0.12499584E+03</rscale>
<asrwt>0</asrwt>
<pdfrwt beam="2">  1        4 0.17623369E-02 0.12499584E+03</pdfrwt>
<pdfrwt beam="1">  1       -4 0.52458448E-01 0.12499584E+03</pdfrwt>
<totfact> 0.69463892E+03</totfact>
</mgrwt>
</event>
<event>
 5    1  0.3196850E-002  0.1249990E+03  0.7818608E-02  0.1235071E+00
          4   -1    0    0  501    0  0.00000000000E+00  0.00000000000E+00  0.11296351359E+03  0.11297065239E+03  0.12700000000E+01 0.  1.
         -4   -1    0    0    0  501 -0.00000000000E+00 -0.00000000000E+00 -0.34559317542E+02  0.34582644910E+02  0.12700000000E+01 0.  1.
         25    2    1    2    0    0  0.00000000000E+00  0.00000000000E+00  0.78404196045E+02  0.14755329730E+03  0.12499903035E+03 0.  0.
    9000005    1    3    3    0    0  0.27017503225E+02 -0.43974197784E+02 -0.23906924661E+01  0.51675825700E+02  0.10000000000E+01 0.  0.
    9000005    1    3    3    0    0 -0.27017503225E+02  0.43974197784E+02  0.80794888511E+02  0.95877471602E+02  0.10000000000E+01 0.  0.
<mgrwt>
<rscale>  0 0.12499903E+03</rscale>
<asrwt>0</asrwt>
<pdfrwt beam="1">  1        4 0.17381346E-01 0.12499903E+03</pdfrwt>
<pdfrwt beam="2">  1       -4 0.53191617E-02 0.12499903E+03</pdfrwt>
<totfact> 0.99795844E+03</totfact>
</mgrwt>
</event>
<event>
 5    1  0.3196850E-002  0.1250010E+03  0.7818608E-02  0.1235068E+00
          4   -1    0    0  501    0  0.00000000000E+00  0.00000000000E+00  0.19310317674E+04  0.19310321850E+04  0.12700000000E+01 0. -1.
         -4   -1    0    0    0  501 -0.00000000000E+00 -0.00000000000E+00 -0.18231269982E+01  0.22218667943E+01  0.12700000000E+01 0. -1.
         25    2    1    2    0    0  0.00000000000E+00  0.00000000000E+00  0.19292086404E+04  0.19332540518E+04  0.12500100271E+03 0.  0.
    9000005    1    3    3    0    0  0.23056978306E+02  0.44763845378E+02  0.15370281908E+04  0.15378530767E+04  0.10000000000E+01 0.  0.
    9000005    1    3    3    0    0 -0.23056978306E+02 -0.44763845378E+02  0.39218044951E+03  0.39540097506E+03  0.10000000000E+01 0.  0.
<mgrwt>
<rscale>  0 0.12500100E+03</rscale>
<asrwt>0</asrwt>
<pdfrwt beam="1">  1        4 0.29711159E+00 0.12500100E+03</pdfrwt>
<pdfrwt beam="2">  1       -4 0.31118646E-03 0.12500100E+03</pdfrwt>
<totfact> 0.10757527E+03</totfact>
</mgrwt>
</event>
<event>
 5    1  0.3196850E-002  0.1250028E+03  0.7818608E-02  0.1235065E+00
          4   -1    0    0  501    0  0.00000000000E+00  0.00000000000E+00  0.12735688522E+02  0.12798853939E+02  0.12700000000E+01 0.  1.
         -4   -1    0    0    0  501 -0.00000000000E+00 -0.00000000000E+00 -0.30590747139E+03  0.30591010764E+03  0.12700000000E+01 0.  1.
         25    2    1    2    0    0  0.00000000000E+00  0.00000000000E+00 -0.29317178287E+03  0.31870896158E+03  0.12500283163E+03 0.  0.
    9000005    1    3    3    0    0  0.16166742045E+02  0.23858622117E+02 -0.28796490579E+03  0.28940522518E+03  0.10000000000E+01 0.  0.
    9000005    1    3    3    0    0 -0.16166742045E+02 -0.23858622117E+02 -0.52068770849E+01  0.29303736394E+02  0.10000000000E+01 0.  0.
<mgrwt>
<rscale>  0 0.12500283E+03</rscale>
<asrwt>0</asrwt>
<pdfrwt beam="1">  1        4 0.19643986E-02 0.12500283E+03</pdfrwt>
<pdfrwt beam="2">  1       -4 0.47067744E-01 0.12500283E+03</pdfrwt>
<totfact> 0.73305341E+03</totfact>
</mgrwt>
</event>
<event>
 5    1  0.3196850E-002  0.1249879E+03  0.7818608E-02  0.1235088E+00
          4   -1    0    0  501    0  0.00000000000E+00  0.00000000000E+00  0.10452253567E+02  0.10529126489E+02  0.12700000000E+01 0. -1.
         -4   -1    0    0    0  501 -0.00000000000E+00 -0.00000000000E+00 -0.37220379350E+03  0.37220596019E+03  0.12700000000E+01 0. -1.
         25    2    1    2    0    0  0.00000000000E+00  0.00000000000E+00 -0.36175153994E+03  0.38273508668E+03  0.12498787912E+03 0.  0.
    9000005    1    3    3    0    0  0.47873821109E+02 -0.16057521681E+02 -0.68166594078E+02  0.84837676172E+02  0.10000000000E+01 0.  0.
    9000005    1    3    3    0    0 -0.47873821109E+02  0.16057521681E+02 -0.29358494586E+03  0.29789741050E+03  0.10000000000E+01 0.  0.
<mgrwt>
<rscale>  0 0.12498788E+03</rscale>
<asrwt>0</asrwt>
<pdfrwt beam="1">  1        4 0.16141193E-02 0.12498788E+03</pdfrwt>
<pdfrwt beam="2">  1       -4 0.57268192E-01 0.12498788E+03</pdfrwt>
<totfact> 0.66285075E+03</totfact>
</mgrwt>
</event>
<event>
 5    1  0.3196850E-002  0.1250013E+03  0.7818608E-02  0.1235067E+00
          4   -1    0    0  501    0  0.00000000000E+00  0.00000000000E+00  0.34903222304E+02  0.34926319978E+02  0.12700000000E+01 0.  1.
         -4   -1    0    0    0  501 -0.00000000000E+00 -0.00000000000E+00 -0.11185517137E+03  0.11186238091E+03  0.12700000000E+01 0.  1.
         25    2    1    2    0    0  0.00000000000E+00  0.00000000000E+00 -0.76951949067E+02  0.14678870089E+03  0.12500128097E+03 0.  0.
    9000005    1    3    3    0    0 -0.49397621141E+02  0.35390731138E+02 -0.21349689410E+02  0.64416132007E+02  0.10000000000E+01 0.  0.
    9000005    1    3    3    0    0  0.49397621141E+02 -0.35390731138E+02 -0.55602259658E+02  0.82372568880E+02  0.10000000000E+01 0.  0.
<mgrwt>
<rscale>  0 0.12500128E+03</rscale>
<asrwt>0</asrwt>
<pdfrwt beam="1">  1        4 0.53720579E-02 0.12500128E+03</pdfrwt>
<pdfrwt beam="2">  1       -4 0.17210819E-01 0.12500128E+03</pdfrwt>
<totfact> 0.99944836E+03</totfact>
</mgrwt>
</event>
<event>
 5    1  0.3196850E-002  0.1249981E+03  0.7818608E-02  0.1235072E+00
          4   -1    0    0  501    0  0.00000000000E+00  0.00000000000E+00  0.34696744431E+03  0.34696976859E+03  0.12700000000E+01 0. -1.
         -4   -1    0    0    0  501 -0.00000000000E+00 -0.00000000000E+00 -0.11219726045E+02  0.11291375139E+02  0.12700000000E+01 0. -1.
         25    2    1    2    0    0  0.00000000000E+00  0.00000000000E+00  0.33574771827E+03  0.35826114373E+03  0.12499806711E+03 0.  0.
    9000005    1    3    3    0    0  0.63847992877E+01  0.61792358947E+02  0.14842045266E+03  0.16089963348E+03  0.10000000000E+01 0.  0.
    9000005    1    3    3    0    0 -0.63847992877E+01 -0.61792358947E+02  0.18732726561E+03  0.19736151024E+03  0.10000000000E+01 0.  0.
<mgrwt>
<rscale>  0 0.12499807E+03</rscale>
<asrwt>0</asrwt>
<pdfrwt beam="1">  1        4 0.53385298E-01 0.12499807E+03</pdfrwt>
<pdfrwt beam="2">  1       -4 0.17318019E-02 0.12499807E+03</pdfrwt>
<totfact> 0.68828130E+03</totfact>
</mgrwt>
</event>
<event>
 5    1  0.3196850E-002  0.1250019E+03  0.7818608E-02  0.1235066E+00
          4   -1    0    0  501    0  0.00000000000E+00  0.00000000000E+00  0.11365811177E+02  0.11436545095E+02  0.12700000000E+01 0.  1.
         -4   -1    0    0    0  501 -0.00000000000E+00 -0.00000000000E+00 -0.34255660369E+03  0.34255895789E+03  0.12700000000E+01 0.  1.
         25    2    1    2    0    0  0.00000000000E+00  0.00000000000E+00 -0.33119079251E+03  0.35399550299E+03  0.12500190034E+03 0.  0.
    9000005    1    3    3    0    0  0.60117759917E+02  0.59548538188E+01 -0.21088519117E+03  0.21936993686E+03  0.10000000000E+01 0.  0.
    9000005    1    3    3    0    0 -0.60117759917E+02 -0.59548538188E+01 -0.12030560134E+03  0.13462556613E+03  0.10000000000E+01 0.  0.
<mgrwt>
<rscale>  0 0.12500190E+03</rscale>
<asrwt>0</asrwt>
<pdfrwt beam="1">  1        4 0.17542088E-02 0.12500190E+03</pdfrwt>
<pdfrwt beam="2">  1       -4 0.52706630E-01 0.12500190E+03</pdfrwt>
<totfact> 0.69284317E+03</totfact>
</mgrwt>
</event>
<event>
 5    1  0.3196850E-002  0.1249897E+03  0.7818608E-02  0.1235085E+00
          4   -1    0    0  501    0  0.00000000000E+00  0.00000000000E+00  0.38707059842E+03  0.38707268188E+03  0.12700000000E+01 0.  1.
         -4   -1    0    0    0  501 -0.00000000000E+00 -0.00000000000E+00 -0.10048089434E+02  0.10128030473E+02  0.12700000000E+01 0.  1.
         25    2    1    2    0    0  0.00000000000E+00  0.00000000000E+00  0.37702250898E+03  0.39720071235E+03  0.12498973404E+03 0.  0.
    9000005    1    3    3    0    0  0.15534080334E+02 -0.16810408911E+02  0.37328475731E+03  0.37398717563E+03  0.10000000000E+01 0.  0.
    9000005    1    3    3    0    0 -0.15534080334E+02  0.16810408911E+02  0.37377516766E+01  0.23213536723E+02  0.10000000000E+01 0.  0.
<mgrwt>
<rscale>  0 0.12498973E+03</rscale>
<asrwt>0</asrwt>
<pdfrwt beam="1">  1        4 0.59555629E-01 0.12498973E+03</pdfrwt>
<pdfrwt beam="2">  1       -4 0.15521696E-02 0.12498973E+03</pdfrwt>
<totfact> 0.64840655E+03</totfact>
</mgrwt>
</event>
<event>
 5    1  0.3196850E-002  0.1250000E+03  0.7818608E-02  0.1235069E+00
          4   -1    0    0  501    0  0.00000000000E+00  0.00000000000E+00  0.30438538165E+03  0.30438803108E+03  0.12700000000E+01 0.  1.
         -4   -1    0    0    0  501 -0.00000000000E+00 -0.00000000000E+00 -0.12799109298E+02  0.12861963257E+02  0.12700000000E+01 0.  1.
         25    2    1    2    0    0  0.00000000000E+00  0.00000000000E+00  0.29158627235E+03  0.31724999434E+03  0.12500001872E+03 0.  0.
    9000005    1    3    3    0    0 -0.22415744147E+02 -0.12482298049E+02  0.11721875425E+01  0.25703061566E+02  0.10000000000E+01 0.  0.
    9000005    1    3    3    0    0  0.22415744147E+02  0.12482298049E+02  0.29041408481E+03  0.29154693277E+03  0.10000000000E+01 0.  0.
<mgrwt>
<rscale>  0 0.12500002E+03</rscale>
<asrwt>0</asrwt>
<pdfrwt beam="1">  1        4 0.46833551E-01 0.12500002E+03</pdfrwt>
<pdfrwt beam="2">  1       -4 0.19741328E-02 0.12500002E+03</pdfrwt>
<totfact> 0.73484373E+03</totfact>
</mgrwt>
</event>
<event>
 5    1  0.3196850E-002  0.1250008E+03  0.7818608E-02  0.1235068E+00
         -4   -1    0    0    0  501 -0.00000000000E+00  0.00000000000E+00  0.33341409511E+03  0.33341651386E+03  0.12700000000E+01 0. -1.
          4   -1    0    0  501    0  0.00000000000E+00 -0.00000000000E+00 -0.11679171348E+02  0.11748018700E+02  0.12700000000E+01 0. -1.
         25    2    1    2    0    0  0.00000000000E+00  0.00000000000E+00  0.32173492376E+03  0.34516453256E+03  0.12500077349E+03 0.  0.
    9000005    1    3    3    0    0  0.25585365169E+02  0.56231153161E+02  0.13485478572E+03  0.14833531854E+03  0.10000000000E+01 0.  0.
    9000005    1    3    3    0    0 -0.25585365169E+02 -0.56231153161E+02  0.18688013804E+03  0.19682921402E+03  0.10000000000E+01 0.  0.
<mgrwt>
<rscale>  0 0.12500077E+03</rscale>
<asrwt>0</asrwt>
<pdfrwt beam="2">  1        4 0.18022776E-02 0.12500077E+03</pdfrwt>
<pdfrwt beam="1">  1       -4 0.51299960E-01 0.12500077E+03</pdfrwt>
<totfact> 0.70258607E+03</totfact>
</mgrwt>
</event>
<event>
 5    1  0.3196850E-002  0.1250004E+03  0.7818608E-02  0.1235069E+00
          4   -1    0    0  501    0  0.00000000000E+00  0.00000000000E+00  0.80525833723E+02  0.80535847899E+02  0.12700000000E+01 0.  1.
         -4   -1    0    0    0  501 -0.00000000000E+00 -0.00000000000E+00 -0.48488213708E+02  0.48504842733E+02  0.12700000000E+01 0.  1.
         25    2    1    2    0    0  0.00000000000E+00  0.00000000000E+00  0.32037620015E+02  0.12904069063E+03  0.12500036297E+03 0.  0.
    9000005    1    3    3    0    0 -0.25245927416E+01  0.59118046017E+02 -0.47294796847E+01  0.59369056852E+02  0.10000000000E+01 0.  0.
    9000005    1    3    3    0    0  0.25245927416E+01 -0.59118046017E+02  0.36767099700E+02  0.69671633781E+02  0.10000000000E+01 0.  0.
<mgrwt>
<rscale>  0 0.12500036E+03</rscale>
<asrwt>0</asrwt>
<pdfrwt beam="1">  1        4 0.12390639E-01 0.12500036E+03</pdfrwt>
<pdfrwt beam="2">  1       -4 0.74617748E-02 0.12500036E+03</pdfrwt>
<totfact> 0.10364988E+04</totfact>
</mgrwt>
</event>
<event>
 5    1  0.3196850E-002  0.1249882E+03  0.7818608E-02  0.1235088E+00
          4   -1    0    0  501    0  0.00000000000E+00  0.00000000000E+00  0.19086172814E+01  0.22925356981E+01  0.12700000000E+01 0.  1.
         -4   -1    0    0    0  501 -0.00000000000E+00 -0.00000000000E+00 -0.18588721714E+04  0.18588726053E+04  0.12700000000E+01 0.  1.
         25    2    1    2    0    0  0.00000000000E+00  0.00000000000E+00 -0.18569635541E+04  0.18611651410E+04  0.12498816149E+03 0.  0.
    9000005    1    3    3    0    0 -0.33738541693E+02  0.17282105035E+02 -0.16681704889E+04  0.16686014325E+04  0.10000000000E+01 0.  0.
    9000005    1    3    3    0    0  0.33738541693E+02 -0.17282105035E+02 -0.18879306523E+03  0.19256370850E+03  0.10000000000E+01 0.  0.
<mgrwt>
<rscale>  0 0.12498816E+03</rscale>
<asrwt>0</asrwt>
<pdfrwt beam="1">  1        4 0.32320047E-03 0.12498816E+03</pdfrwt>
<pdfrwt beam="2">  1       -4 0.28600858E+00 0.12498816E+03</pdfrwt>
<totfact> 0.11787328E+03</totfact>
</mgrwt>
</event>
<event>
 5    1  0.3196850E-002  0.1250003E+03  0.7818608E-02  0.1235069E+00
          4   -1    0    0  501    0  0.00000000000E+00  0.00000000000E+00  0.38577530519E+03  0.38577739565E+03  0.12700000000E+01 0. -1.
         -4   -1    0    0    0  501 -0.00000000000E+00 -0.00000000000E+00 -0.10083810778E+02  0.10163470854E+02  0.12700000000E+01 0. -1.
         25    2    1    2    0    0  0.00000000000E+00  0.00000000000E+00  0.37569149441E+03  0.39594086650E+03  0.12500028318E+03 0.  0.
    9000005    1    3    3    0    0 -0.56583820636E+02  0.23223469598E+02  0.22843568076E+03  0.23648449958E+03  0.10000000000E+01 0.  0.
    9000005    1    3    3    0    0  0.56583820636E+02 -0.23223469598E+02  0.14725581365E+03  0.15945636692E+03  0.10000000000E+01 0.  0.
<mgrwt>
<rscale>  0 0.12500028E+03</rscale>
<asrwt>0</asrwt>
<pdfrwt beam="1">  1        4 0.59356326E-01 0.12500028E+03</pdfrwt>
<pdfrwt beam="2">  1       -4 0.15576443E-02 0.12500028E+03</pdfrwt>
<totfact> 0.64949097E+03</totfact>
</mgrwt>
</event>
<event>
 5    1  0.3196850E-002  0.1249988E+03  0.7818608E-02  0.1235071E+00
          4   -1    0    0  501    0  0.00000000000E+00  0.00000000000E+00  0.51211428591E+02  0.51227173632E+02  0.12700000000E+01 0. -1.
         -4   -1    0    0    0  501 -0.00000000000E+00 -0.00000000000E+00 -0.76242692290E+02  0.76253268963E+02  0.12700000000E+01 0. -1.
         25    2    1    2    0    0  0.00000000000E+00  0.00000000000E+00 -0.25031263699E+02  0.12748044260E+03  0.12499879632E+03 0.  0.
    9000005    1    3    3    0    0  0.61257238701E+02  0.92253389564E+01 -0.41293237452E+01  0.62093538204E+02  0.10000000000E+01 0.  0.
    9000005    1    3    3    0    0 -0.61257238701E+02 -0.92253389564E+01 -0.20901939953E+02  0.65386904392E+02  0.10000000000E+01 0.  0.
<mgrwt>
<rscale>  0 0.12499880E+03</rscale>
<asrwt>0</asrwt>
<pdfrwt beam="1">  1        4 0.78807061E-02 0.12499880E+03</pdfrwt>
<pdfrwt beam="2">  1       -4 0.11731670E-01 0.12499880E+03</pdfrwt>
<totfact> 0.10399007E+04</totfact>
</mgrwt>
</event>
<event>
 5    1  0.3196850E-002  0.1249999E+03  0.7818608E-02  0.1235069E+00
         -4   -1    0    0    0  501 -0.00000000000E+00  0.00000000000E+00  0.22053635980E+02  0.22090173380E+02  0.12700000000E+01 0. -1.
          4   -1    0    0  501    0  0.00000000000E+00 -0.00000000000E+00 -0.17693921457E+03  0.17694377230E+03  0.12700000000E+01 0. -1.
         25    2    1    2    0    0  0.00000000000E+00  0.00000000000E+00 -0.15488557859E+03  0.19903394568E+03  0.12499987630E+03 0.  0.
    9000005    1    3    3    0    0 -0.18100594515E+02  0.59753193223E+02 -0.81705398933E+02  0.10283407916E+03  0.10000000000E+01 0.  0.
    9000005    1    3    3    0    0  0.18100594515E+02 -0.59753193223E+02 -0.73180179661E+02  0.96199866514E+02  0.10000000000E+01 0.  0.
<mgrwt>
<rscale>  0 0.12499988E+03</rscale>
<asrwt>0</asrwt>
<pdfrwt beam="2">  1        4 0.27224578E-01 0.12499988E+03</pdfrwt>
<pdfrwt beam="1">  1       -4 0.33960283E-02 0.12499988E+03</pdfrwt>
<totfact> 0.90298946E+03</totfact>
</mgrwt>
</event>
<event>
 5    1  0.3196850E-002  0.1249947E+03  0.7818608E-02  0.1235078E+00
          4   -1    0    0  501    0  0.00000000000E+00  0.00000000000E+00  0.17410236286E+02  0.17456495282E+02  0.12700000000E+01 0. -1.
         -4   -1    0    0    0  501 -0.00000000000E+00 -0.00000000000E+00 -0.22400042189E+03  0.22400402207E+03  0.12700000000E+01 0. -1.
         25    2    1    2    0    0  0.00000000000E+00  0.00000000000E+00 -0.20659018560E+03  0.24146051736E+03  0.12499470651E+03 0.  0.
    9000005    1    3    3    0    0 -0.22568154608E+02  0.44907215101E+02 -0.17502943604E+03  0.18210514284E+03  0.10000000000E+01 0.  0.
    9000005    1    3    3    0    0  0.22568154608E+02 -0.44907215101E+02 -0.31560749563E+02  0.59355374513E+02  0.10000000000E+01 0.  0.
<mgrwt>
<rscale>  0 0.12499471E+03</rscale>
<asrwt>0</asrwt>
<pdfrwt beam="1">  1        4 0.26823334E-02 0.12499471E+03</pdfrwt>
<pdfrwt beam="2">  1       -4 0.34465437E-01 0.12499471E+03</pdfrwt>
<totfact> 0.83590193E+03</totfact>
</mgrwt>
</event>
<event>
 5    1  0.3196850E-002  0.1249999E+03  0.7818608E-02  0.1235069E+00
         -4   -1    0    0    0  501 -0.00000000000E+00  0.00000000000E+00  0.59469376625E+01  0.60810334288E+01  0.12700000000E+01 0. -1.
          4   -1    0    0  501    0  0.00000000000E+00 -0.00000000000E+00 -0.64939182727E+03  0.64939306912E+03  0.12700000000E+01 0. -1.
         25    2    1    2    0    0  0.00000000000E+00  0.00000000000E+00 -0.64344488961E+03  0.65547410255E+03  0.12499989262E+03 0.  0.
    9000005    1    3    3    0    0 -0.51936185187E+02 -0.34308078985E+02 -0.35083929851E+03  0.35631955461E+03  0.10000000000E+01 0.  0.
    9000005    1    3    3    0    0  0.51936185187E+02  0.34308078985E+02 -0.29260559110E+03  0.29915454794E+03  0.10000000000E+01 0.  0.
<mgrwt>
<rscale>  0 0.12499989E+03</rscale>
<asrwt>0</asrwt>
<pdfrwt beam="2">  1        4 0.99916790E-01 0.12499989E+03</pdfrwt>
<pdfrwt beam="1">  1       -4 0.92532458E-03 0.12499989E+03</pdfrwt>
<totfact> 0.45543137E+03</totfact>
</mgrwt>
</event>
<event>
 5    1  0.3196850E-002  0.1250011E+03  0.7818608E-02  0.1235068E+00
          4   -1    0    0  501    0  0.00000000000E+00  0.00000000000E+00  0.57987576880E+02  0.58001482502E+02  0.12700000000E+01 0.  1.
         -4   -1    0    0    0  501 -0.00000000000E+00 -0.00000000000E+00 -0.67336798040E+02  0.67348773339E+02  0.12700000000E+01 0.  1.
         25    2    1    2    0    0  0.00000000000E+00  0.00000000000E+00 -0.93492211605E+01  0.12535025584E+03  0.12500111481E+03 0.  0.
    9000005    1    3    3    0    0 -0.59083777493E+02 -0.18140927643E+02 -0.13938034051E+02  0.63366038315E+02  0.10000000000E+01 0.  0.
    9000005    1    3    3    0    0  0.59083777493E+02  0.18140927643E+02  0.45888128901E+01  0.61984217526E+02  0.10000000000E+01 0.  0.
<mgrwt>
<rscale>  0 0.12500111E+03</rscale>
<asrwt>0</asrwt>
<pdfrwt beam="1">  1        4 0.89231565E-02 0.12500111E+03</pdfrwt>
<pdfrwt beam="2">  1       -4 0.10361498E-01 0.12500111E+03</pdfrwt>
<totfact> 0.10444996E+04</totfact>
</mgrwt>
</event>
<event>
 5    1  0.3196850E-002  0.1249659E+03  0.7818608E-02  0.1235123E+00
         -4   -1    0    0    0  501 -0.00000000000E+00  0.00000000000E+00  0.11334044347E+02  0.11404975285E+02  0.12700000000E+01 0. -1.
          4   -1    0    0  501    0  0.00000000000E+00 -0.00000000000E+00 -0.34331264479E+03  0.34331499380E+03  0.12700000000E+01 0. -1.
         25    2    1    2    0    0  0.00000000000E+00  0.00000000000E+00 -0.33197860044E+03  0.35471996909E+03  0.12496585662E+03 0.  0.
    9000005    1    3    3    0    0  0.44337862086E+02  0.43697774517E+02 -0.18094889667E+03  0.19136050982E+03  0.10000000000E+01 0.  0.
    9000005    1    3    3    0    0 -0.44337862086E+02 -0.43697774517E+02 -0.15102970377E+03  0.16335945927E+03  0.10000000000E+01 0.  0.
<mgrwt>
<rscale>  0 0.12496586E+03</rscale>
<asrwt>0</asrwt>
<pdfrwt beam="2">  1        4 0.52822959E-01 0.12496586E+03</pdfrwt>
<pdfrwt beam="1">  1       -4 0.17493363E-02 0.12496586E+03</pdfrwt>
<totfact> 0.69260715E+03</totfact>
</mgrwt>
</event>
<event>
 5    1  0.3196850E-002  0.1249994E+03  0.7818608E-02  0.1235070E+00
         -4   -1    0    0    0  501 -0.00000000000E+00  0.00000000000E+00  0.12859529453E+03  0.12860156560E+03  0.12700000000E+01 0. -1.
          4   -1    0    0  501    0  0.00000000000E+00 -0.00000000000E+00 -0.30355730526E+02  0.30382285559E+02  0.12700000000E+01 0. -1.
         25    2    1    2    0    0  0.00000000000E+00  0.00000000000E+00  0.98239564000E+02  0.15898385116E+03  0.12499941197E+03 0.  0.
    9000005    1    3    3    0    0  0.23604240844E+02  0.55845820945E+02  0.29860302023E+02  0.67591075888E+02  0.10000000000E+01 0.  0.
    9000005    1    3    3    0    0 -0.23604240844E+02 -0.55845820945E+02  0.68379261977E+02  0.91392775269E+02  0.10000000000E+01 0.  0.
<mgrwt>
<rscale>  0 0.12499941E+03</rscale>
<asrwt>0</asrwt>
<pdfrwt beam="2">  1        4 0.46726374E-02 0.12499941E+03</pdfrwt>
<pdfrwt beam="1">  1       -4 0.19786417E-01 0.12499941E+03</pdfrwt>
<totfact> 0.97540338E+03</totfact>
</mgrwt>
</event>
<event>
 5    1  0.3196850E-002  0.1250015E+03  0.7818608E-02  0.1235067E+00
         -4   -1    0    0    0  501 -0.00000000000E+00  0.00000000000E+00  0.64724219192E+03  0.64724343790E+03  0.12700000000E+01 0.  1.
          4   -1    0    0  501    0  0.00000000000E+00 -0.00000000000E+00 -0.59672913862E+01  0.61009398037E+01  0.12700000000E+01 0.  1.
         25    2    1    2    0    0  0.00000000000E+00  0.00000000000E+00  0.64127490054E+03  0.65334437770E+03  0.12500151127E+03 0.  0.
    9000005    1    3    3    0    0  0.55930162407E+02 -0.23476183846E+02  0.39921710386E+03  0.40380021086E+03  0.10000000000E+01 0.  0.
    9000005    1    3    3    0    0 -0.55930162407E+02  0.23476183846E+02  0.24205779667E+03  0.24954416684E+03  0.10000000000E+01 0.  0.
<mgrwt>
<rscale>  0 0.12500151E+03</rscale>
<asrwt>0</asrwt>
<pdfrwt beam="2">  1        4 0.92842220E-03 0.12500151E+03</pdfrwt>
<pdfrwt beam="1">  1       -4 0.99586004E-01 0.12500151E+03</pdfrwt>
<totfact> 0.45662970E+03</totfact>
</mgrwt>
</event>
<event>
 5    1  0.3196850E-002  0.1249987E+03  0.7818608E-02  0.1235071E+00
          4   -1    0    0  501    0  0.00000000000E+00  0.00000000000E+00  0.30537833754E+03  0.30538097835E+03  0.12700000000E+01 0. -1.
         -4   -1    0    0    0  501 -0.00000000000E+00 -0.00000000000E+00 -0.12757021324E+02  0.12820081632E+02  0.12700000000E+01 0. -1.
         25    2    1    2    0    0  0.00000000000E+00  0.00000000000E+00  0.29262131621E+03  0.31820105998E+03  0.12499871948E+03 0.  0.
    9000005    1    3    3    0    0  0.42784130482E+02  0.35590523050E+02  0.73950002155E+02  0.92556847239E+02  0.10000000000E+01 0.  0.
    9000005    1    3    3    0    0 -0.42784130482E+02 -0.35590523050E+02  0.21867131406E+03  0.22564421274E+03  0.10000000000E+01 0.  0.
<mgrwt>
<rscale>  0 0.12499872E+03</rscale>
<asrwt>0</asrwt>
<pdfrwt beam="1">  1        4 0.46986339E-01 0.12499872E+03</pdfrwt>
<pdfrwt beam="2">  1       -4 0.19676725E-02 0.12499872E+03</pdfrwt>
<totfact> 0.73372677E+03</totfact>
</mgrwt>
</event>
<event>
 5    1  0.3196850E-002  0.1250003E+03  0.7818608E-02  0.1235069E+00
          4   -1    0    0  501    0  0.00000000000E+00  0.00000000000E+00  0.47733076984E+03  0.47733245934E+03  0.12700000000E+01 0.  1.
         -4   -1    0    0    0  501 -0.00000000000E+00 -0.00000000000E+00 -0.81325763661E+01  0.82311419833E+01  0.12700000000E+01 0.  1.
         25    2    1    2    0    0  0.00000000000E+00  0.00000000000E+00  0.46919819348E+03  0.48556360132E+03  0.12500026467E+03 0.  0.
    9000005    1    3    3    0    0  0.15436635680E+02  0.33123170439E+02  0.43151808306E+03  0.43306384073E+03  0.10000000000E+01 0.  0.
    9000005    1    3    3    0    0 -0.15436635680E+02 -0.33123170439E+02  0.37680110415E+02  0.52499760589E+02  0.10000000000E+01 0.  0.
<mgrwt>
<rscale>  0 0.12500026E+03</rscale>
<asrwt>0</asrwt>
<pdfrwt beam="1">  1        4 0.73443224E-01 0.12500026E+03</pdfrwt>
<pdfrwt beam="2">  1       -4 0.12588774E-02 0.12500026E+03</pdfrwt>
<totfact> 0.57001774E+03</totfact>
</mgrwt>
</event>
<event>
 5    1  0.3196850E-002  0.1249999E+03  0.7818608E-02  0.1235069E+00
         -4   -1    0    0    0  501 -0.00000000000E+00  0.00000000000E+00  0.89285267631E+01  0.90183973166E+01  0.12700000000E+01 0.  1.
          4   -1    0    0  501    0  0.00000000000E+00 -0.00000000000E+00 -0.43521974994E+03  0.43522160290E+03  0.12700000000E+01 0.  1.
         25    2    1    2    0    0  0.00000000000E+00  0.00000000000E+00 -0.42629122317E+03  0.44424000022E+03  0.12499988337E+03 0.  0.
    9000005    1    3    3    0    0  0.40180474864E+02  0.47737562545E+02 -0.22540395423E+03  0.23388306484E+03  0.10000000000E+01 0.  0.
    9000005    1    3    3    0    0 -0.40180474864E+02 -0.47737562545E+02 -0.20088726894E+03  0.21035693538E+03  0.10000000000E+01 0.  0.
<mgrwt>
<rscale>  0 0.12499988E+03</rscale>
<asrwt>0</asrwt>
<pdfrwt beam="2">  1        4 0.66963924E-01 0.12499988E+03</pdfrwt>
<pdfrwt beam="1">  1       -4 0.13806755E-02 0.12499988E+03</pdfrwt>
<totfact> 0.60466215E+03</totfact>
</mgrwt>
</event>
<event>
 5    1  0.3196850E-002  0.1249794E+03  0.7818608E-02  0.1235101E+00
         -4   -1    0    0    0  501 -0.00000000000E+00  0.00000000000E+00  0.25335105628E+03  0.25335423939E+03  0.12700000000E+01 0.  1.
          4   -1    0    0  501    0  0.00000000000E+00 -0.00000000000E+00 -0.15383813516E+02  0.15436146485E+02  0.12700000000E+01 0.  1.
         25    2    1    2    0    0  0.00000000000E+00  0.00000000000E+00  0.23796724276E+03  0.26879038588E+03  0.12497944996E+03 0.  0.
    9000005    1    3    3    0    0  0.32343952166E+01  0.11942066186E+02 -0.12733542499E+02  0.17782501561E+02  0.10000000000E+01 0.  0.
    9000005    1    3    3    0    0 -0.32343952166E+01 -0.11942066186E+02  0.25070078526E+03  0.25100788432E+03  0.10000000000E+01 0.  0.
<mgrwt>
<rscale>  0 0.12497945E+03</rscale>
<asrwt>0</asrwt>
<pdfrwt beam="2">  1        4 0.23710113E-02 0.12497945E+03</pdfrwt>
<pdfrwt beam="1">  1       -4 0.38981352E-01 0.12497945E+03</pdfrwt>
<totfact> 0.79724509E+03</totfact>
</mgrwt>
</event>
<event>
 5    1  0.3196850E-002  0.1249979E+03  0.7818608E-02  0.1235073E+00
          4   -1    0    0  501    0  0.00000000000E+00  0.00000000000E+00  0.57263022915E+02  0.57277104443E+02  0.12700000000E+01 0.  1.
         -4   -1    0    0    0  501 -0.00000000000E+00 -0.00000000000E+00 -0.68185243547E+02  0.68197069860E+02  0.12700000000E+01 0.  1.
         25    2    1    2    0    0  0.00000000000E+00  0.00000000000E+00 -0.10922220631E+02  0.12547417430E+03  0.12499789404E+03 0.  0.
    9000005    1    3    3    0    0 -0.45675497885E+02  0.34309300339E+02  0.19967986096E+02  0.60523546373E+02  0.10000000000E+01 0.  0.
    9000005    1    3    3    0    0  0.45675497885E+02 -0.34309300339E+02 -0.30890206728E+02  0.64950627930E+02  0.10000000000E+01 0.  0.
<mgrwt>
<rscale>  0 0.12499789E+03</rscale>
<asrwt>0</asrwt>
<pdfrwt beam="1">  1        4 0.88116887E-02 0.12499789E+03</pdfrwt>
<pdfrwt beam="2">  1       -4 0.10492030E-01 0.12499789E+03</pdfrwt>
<totfact> 0.10443021E+04</totfact>
</mgrwt>
</event>
<event>
 5    1  0.3196850E-002  0.1250000E+03  0.7818608E-02  0.1235069E+00
         -4   -1    0    0    0  501 -0.00000000000E+00  0.00000000000E+00  0.76649924806E+02  0.76660445295E+02  0.12700000000E+01 0.  1.
          4   -1    0    0  501    0  0.00000000000E+00 -0.00000000000E+00 -0.50940242685E+02  0.50956071520E+02  0.12700000000E+01 0.  1.
         25    2    1    2    0    0  0.00000000000E+00  0.00000000000E+00  0.25709682122E+02  0.12761651681E+03  0.12499995044E+03 0.  0.
    9000005    1    3    3    0    0  0.39440691419E+02 -0.48248844181E+02  0.17613722690E+02  0.64766984887E+02  0.10000000000E+01 0.  0.
    9000005    1    3    3    0    0 -0.39440691419E+02  0.48248844181E+02  0.80959594313E+01  0.62849531927E+02  0.10000000000E+01 0.  0.
<mgrwt>
<rscale>  0 0.12499995E+03</rscale>
<asrwt>0</asrwt>
<pdfrwt beam="2">  1        4 0.78389873E-02 0.12499995E+03</pdfrwt>
<pdfrwt beam="1">  1       -4 0.11794323E-01 0.12499995E+03</pdfrwt>
<totfact> 0.10395790E+04</totfact>
</mgrwt>
</event>
<event>
 5    1  0.3196850E-002  0.1250005E+03  0.7818608E-02  0.1235069E+00
          4   -1    0    0  501    0  0.00000000000E+00  0.00000000000E+00  0.67313972750E+02  0.67325952109E+02  0.12700000000E+01 0. -1.
         -4   -1    0    0    0  501 -0.00000000000E+00 -0.00000000000E+00 -0.58006625246E+02  0.58020526303E+02  0.12700000000E+01 0. -1.
         25    2    1    2    0    0  0.00000000000E+00  0.00000000000E+00  0.93073475042E+01  0.12534647841E+03  0.12500045173E+03 0.  0.
    9000005    1    3    3    0    0  0.33958083660E+02 -0.48471760345E+02 -0.15467145402E+02  0.61179208753E+02  0.10000000000E+01 0.  0.
    9000005    1    3    3    0    0 -0.33958083660E+02  0.48471760345E+02  0.24774492907E+02  0.64167269659E+02  0.10000000000E+01 0.  0.
<mgrwt>
<rscale>  0 0.12500045E+03</rscale>
<asrwt>0</asrwt>
<pdfrwt beam="1">  1        4 0.10357987E-01 0.12500045E+03</pdfrwt>
<pdfrwt beam="2">  1       -4 0.89260870E-02 0.12500045E+03</pdfrwt>
<totfact> 0.10445235E+04</totfact>
</mgrwt>
</event>
<event>
 5    1  0.3196850E-002  0.1250009E+03  0.7818608E-02  0.1235068E+00
         -4   -1    0    0    0  501 -0.00000000000E+00  0.00000000000E+00  0.13718854840E+03  0.13719442668E+03  0.12700000000E+01 0. -1.
          4   -1    0    0  501    0  0.00000000000E+00 -0.00000000000E+00 -0.28453360675E+02  0.28481689446E+02  0.12700000000E+01 0. -1.
         25    2    1    2    0    0  0.00000000000E+00  0.00000000000E+00  0.10873518773E+03  0.16567611613E+03  0.12500093762E+03 0.  0.
    9000005    1    3    3    0    0  0.25086375787E+02 -0.29284185815E+02  0.11954729888E+03  0.12561626669E+03  0.10000000000E+01 0.  0.
    9000005    1    3    3    0    0 -0.25086375787E+02  0.29284185815E+02 -0.10812111152E+02  0.40059849433E+02  0.10000000000E+01 0.  0.
<mgrwt>
<rscale>  0 0.12500094E+03</rscale>
<asrwt>0</asrwt>
<pdfrwt beam="2">  1        4 0.43800715E-02 0.12500094E+03</pdfrwt>
<pdfrwt beam="1">  1       -4 0.21108562E-01 0.12500094E+03</pdfrwt>
<totfact> 0.96257472E+03</totfact>
</mgrwt>
</event>
<event>
 5    1  0.3196850E-002  0.1250009E+03  0.7818608E-02  0.1235068E+00
          4   -1    0    0  501    0  0.00000000000E+00  0.00000000000E+00  0.11178643014E+02  0.11250553748E+02  0.12700000000E+01 0. -1.
         -4   -1    0    0    0  501 -0.00000000000E+00 -0.00000000000E+00 -0.34825016849E+03  0.34825248420E+03  0.12700000000E+01 0. -1.
         25    2    1    2    0    0  0.00000000000E+00  0.00000000000E+00 -0.33707152547E+03  0.35950303795E+03  0.12500088403E+03 0.  0.
    9000005    1    3    3    0    0  0.37534745874E+02  0.32689966468E+01 -0.31192588402E+03  0.31419468583E+03  0.10000000000E+01 0.  0.
    9000005    1    3    3    0    0 -0.37534745874E+02 -0.32689966468E+01 -0.25145641456E+02  0.45308352113E+02  0.10000000000E+01 0.  0.
<mgrwt>
<rscale>  0 0.12500088E+03</rscale>
<asrwt>0</asrwt>
<pdfrwt beam="1">  1        4 0.17255012E-02 0.12500088E+03</pdfrwt>
<pdfrwt beam="2">  1       -4 0.53582651E-01 0.12500088E+03</pdfrwt>
<totfact> 0.68690265E+03</totfact>
</mgrwt>
</event>
<event>
 5    1  0.3196850E-002  0.1250004E+03  0.7818608E-02  0.1235069E+00
         -4   -1    0    0    0  501 -0.00000000000E+00  0.00000000000E+00  0.29473074397E+02  0.29500423970E+02  0.12700000000E+01 0.  1.
          4   -1    0    0  501    0  0.00000000000E+00 -0.00000000000E+00 -0.13244512488E+03  0.13245121367E+03  0.12700000000E+01 0.  1.
         25    2    1    2    0    0  0.00000000000E+00  0.00000000000E+00 -0.10297205048E+03  0.16195163764E+03  0.12500035902E+03 0.  0.
    9000005    1    3    3    0    0 -0.28101988420E+02 -0.94762438955E+01  0.19781341326E+02  0.35662619312E+02  0.10000000000E+01 0.  0.
    9000005    1    3    3    0    0  0.28101988420E+02  0.94762438955E+01 -0.12275339180E+03  0.12628901833E+03  0.10000000000E+01 0.  0.
<mgrwt>
<rscale>  0 0.12500036E+03</rscale>
<asrwt>0</asrwt>
<pdfrwt beam="2">  1        4 0.20378745E-01 0.12500036E+03</pdfrwt>
<pdfrwt beam="1">  1       -4 0.45368914E-02 0.12500036E+03</pdfrwt>
<totfact> 0.96967057E+03</totfact>
</mgrwt>
</event>
<event>
 5    1  0.3196850E-002  0.1249989E+03  0.7818608E-02  0.1235071E+00
          4   -1    0    0  501    0  0.00000000000E+00  0.00000000000E+00  0.10941745384E+03  0.10942482398E+03  0.12700000000E+01 0. -1.
         -4   -1    0    0    0  501 -0.00000000000E+00 -0.00000000000E+00 -0.35679916637E+02  0.35702511833E+02  0.12700000000E+01 0. -1.
         25    2    1    2    0    0  0.00000000000E+00  0.00000000000E+00  0.73737537199E+02  0.14512733582E+03  0.12499887683E+03 0.  0.
    9000005    1    3    3    0    0  0.56204478801E+02 -0.77359514583E+01  0.64508820938E+01  0.57108688148E+02  0.10000000000E+01 0.  0.
    9000005    1    3    3    0    0 -0.56204478801E+02  0.77359514583E+01  0.67286655105E+02  0.88018647669E+02  0.10000000000E+01 0.  0.
<mgrwt>
<rscale>  0 0.12499888E+03</rscale>
<asrwt>0</asrwt>
<pdfrwt beam="1">  1        4 0.16835760E-01 0.12499888E+03</pdfrwt>
<pdfrwt beam="2">  1       -4 0.54915229E-02 0.12499888E+03</pdfrwt>
<totfact> 0.10028656E+04</totfact>
</mgrwt>
</event>
<event>
 5    1  0.3196850E-002  0.1250037E+03  0.7818608E-02  0.1235063E+00
         -4   -1    0    0    0  501 -0.00000000000E+00  0.00000000000E+00  0.27182515302E+03  0.27182811980E+03  0.12700000000E+01 0. -1.
          4   -1    0    0  501    0  0.00000000000E+00 -0.00000000000E+00 -0.14340196371E+02  0.14396323557E+02  0.12700000000E+01 0. -1.
         25    2    1    2    0    0  0.00000000000E+00  0.00000000000E+00  0.25748495665E+03  0.28622444336E+03  0.12500371624E+03 0.  0.
    9000005    1    3    3    0    0  0.22377830449E+02 -0.58320202699E+02  0.12447784611E+03  0.13927579658E+03  0.10000000000E+01 0.  0.
    9000005    1    3    3    0    0 -0.22377830449E+02  0.58320202699E+02  0.13300711053E+03  0.14694864678E+03  0.10000000000E+01 0.  0.
<mgrwt>
<rscale>  0 0.12500372E+03</rscale>
<asrwt>0</asrwt>
<pdfrwt beam="2">  1        4 0.22107299E-02 0.12500372E+03</pdfrwt>
<pdfrwt beam="1">  1       -4 0.41823798E-01 0.12500372E+03</pdfrwt>
<totfact> 0.77353576E+03</totfact>
</mgrwt>
</event>
<event>
 5    1  0.3196850E-002  0.1250005E+03  0.7818608E-02  0.1235069E+00
          4   -1    0    0  501    0  0.00000000000E+00  0.00000000000E+00  0.38241348039E+02  0.38262430658E+02  0.12700000000E+01 0. -1.
         -4   -1    0    0    0  501 -0.00000000000E+00 -0.00000000000E+00 -0.10209484156E+03  0.10210274028E+03  0.12700000000E+01 0. -1.
         25    2    1    2    0    0  0.00000000000E+00  0.00000000000E+00 -0.63853493520E+02  0.14036517094E+03  0.12500045031E+03 0.  0.
    9000005    1    3    3    0    0 -0.43296689865E+02  0.43614333526E+02 -0.19199346899E+02  0.64392766392E+02  0.10000000000E+01 0.  0.
    9000005    1    3    3    0    0  0.43296689865E+02 -0.43614333526E+02 -0.44654146621E+02  0.75972404548E+02  0.10000000000E+01 0.  0.
<mgrwt>
<rscale>  0 0.12500045E+03</rscale>
<asrwt>0</asrwt>
<pdfrwt beam="1">  1        4 0.58855137E-02 0.12500045E+03</pdfrwt>
<pdfrwt beam="2">  1       -4 0.15709128E-01 0.12500045E+03</pdfrwt>
<totfact> 0.10125920E+04</totfact>
</mgrwt>
</event>
<event>
 5    1  0.3196850E-002  0.1250217E+03  0.7818608E-02  0.1235035E+00
          4   -1    0    0  501    0  0.00000000000E+00  0.00000000000E+00  0.25933496729E+03  0.25933807695E+03  0.12700000000E+01 0.  1.
         -4   -1    0    0    0  501 -0.00000000000E+00 -0.00000000000E+00 -0.15037825722E+02  0.15091358535E+02  0.12700000000E+01 0.  1.
         25    2    1    2    0    0  0.00000000000E+00  0.00000000000E+00  0.24429714157E+03  0.27442943549E+03  0.12502168486E+03 0.  0.
    9000005    1    3    3    0    0 -0.20782750560E+02 -0.41516048686E+02  0.30293979571E+02  0.55445741203E+02  0.10000000000E+01 0.  0.
    9000005    1    3    3    0    0  0.20782750560E+02  0.41516048686E+02  0.21400316200E+03  0.21898369429E+03  0.10000000000E+01 0.  0.
<mgrwt>
<rscale>  0 0.12502168E+03</rscale>
<asrwt>0</asrwt>
<pdfrwt beam="1">  1        4 0.39902040E-01 0.12502168E+03</pdfrwt>
<pdfrwt beam="2">  1       -4 0.23178690E-02 0.12502168E+03</pdfrwt>
<totfact> 0.78884524E+03</totfact>
</mgrwt>
</event>
<event>
 5    1  0.3196850E-002  0.1249833E+03  0.7818608E-02  0.1235095E+00
         -4   -1    0    0    0  501 -0.00000000000E+00  0.00000000000E+00  0.66950101915E+02  0.66962146370E+02  0.12700000000E+01 0.  1.
          4   -1    0    0  501    0  0.00000000000E+00 -0.00000000000E+00 -0.58305876619E+02  0.58319706346E+02  0.12700000000E+01 0.  1.
         25    2    1    2    0    0  0.00000000000E+00  0.00000000000E+00  0.86442252966E+01  0.12528185272E+03  0.12498327884E+03 0.  0.
    9000005    1    3    3    0    0  0.31089856683E+02  0.49632207259E+02  0.26151874311E+02  0.64147141136E+02  0.10000000000E+01 0.  0.
    9000005    1    3    3    0    0 -0.31089856683E+02 -0.49632207259E+02 -0.17507649014E+02  0.61134711580E+02  0.10000000000E+01 0.  0.
<mgrwt>
<rscale>  0 0.12498328E+03</rscale>
<asrwt>0</asrwt>
<pdfrwt beam="2">  1        4 0.89721251E-02 0.12498328E+03</pdfrwt>
<pdfrwt beam="1">  1       -4 0.10302006E-01 0.12498328E+03</pdfrwt>
<totfact> 0.10450692E+04</totfact>
</mgrwt>
</event>
<event>
 5    1  0.3196850E-002  0.1250042E+03  0.7818608E-02  0.1235063E+00
          4   -1    0    0  501    0  0.00000000000E+00  0.00000000000E+00  0.78129298822E+02  0.78139620133E+02  0.12700000000E+01 0.  1.
         -4   -1    0    0    0  501 -0.00000000000E+00 -0.00000000000E+00 -0.49978926744E+02  0.49995059941E+02  0.12700000000E+01 0.  1.
         25    2    1    2    0    0  0.00000000000E+00  0.00000000000E+00  0.28150372078E+02  0.12813468007E+03  0.12500421109E+03 0.  0.
    9000005    1    3    3    0    0 -0.20865999275E+01  0.55746381328E+02 -0.14799387847E+02  0.57723780291E+02  0.10000000000E+01 0.  0.
    9000005    1    3    3    0    0  0.20865999275E+01 -0.55746381328E+02  0.42949759926E+02  0.70410899782E+02  0.10000000000E+01 0.  0.
<mgrwt>
<rscale>  0 0.12500421E+03</rscale>
<asrwt>0</asrwt>
<pdfrwt beam="1">  1        4 0.12021927E-01 0.12500421E+03</pdfrwt>
<pdfrwt beam="2">  1       -4 0.76911006E-02 0.12500421E+03</pdfrwt>
<totfact> 0.10383593E+04</totfact>
</mgrwt>
</event>
<event>
 5    1  0.3196850E-002  0.1250001E+03  0.7818608E-02  0.1235069E+00
          4   -1    0    0  501    0  0.00000000000E+00  0.00000000000E+00  0.58341283781E+02  0.58355105117E+02  0.12700000000E+01 0. -1.
         -4   -1    0    0    0  501 -0.00000000000E+00 -0.00000000000E+00 -0.66927526414E+02  0.66939574931E+02  0.12700000000E+01 0. -1.
         25    2    1    2    0    0  0.00000000000E+00  0.00000000000E+00 -0.85862426337E+01  0.12529468005E+03  0.12500013314E+03 0.  0.
    9000005    1    3    3    0    0 -0.38520432678E+01 -0.59942544339E+02 -0.21576473604E+02  0.63831740321E+02  0.10000000000E+01 0.  0.
    9000005    1    3    3    0    0  0.38520432678E+01  0.59942544339E+02  0.12990230970E+02  0.61462939727E+02  0.10000000000E+01 0.  0.
<mgrwt>
<rscale>  0 0.12500013E+03</rscale>
<asrwt>0</asrwt>
<pdfrwt beam="1">  1        4 0.89775721E-02 0.12500013E+03</pdfrwt>
<pdfrwt beam="2">  1       -4 0.10298533E-01 0.12500013E+03</pdfrwt>
<totfact> 0.10446434E+04</totfact>
</mgrwt>
</event>
<event>
 5    1  0.3196850E-002  0.1249720E+03  0.7818608E-02  0.1235113E+00
         -4   -1    0    0    0  501 -0.00000000000E+00  0.00000000000E+00  0.12722754988E+03  0.12723388836E+03  0.12700000000E+01 0.  1.
          4   -1    0    0  501    0  0.00000000000E+00 -0.00000000000E+00 -0.30668878654E+02  0.30695162777E+02  0.12700000000E+01 0.  1.
         25    2    1    2    0    0  0.00000000000E+00  0.00000000000E+00  0.96558671221E+02  0.15792905114E+03  0.12497202969E+03 0.  0.
    9000005    1    3    3    0    0  0.60862215485E+02 -0.13790653574E+02  0.52093715308E+02  0.81296657830E+02  0.10000000000E+01 0.  0.
    9000005    1    3    3    0    0 -0.60862215485E+02  0.13790653574E+02  0.44464955914E+02  0.76632393308E+02  0.10000000000E+01 0.  0.
<mgrwt>
<rscale>  0 0.12497203E+03</rscale>
<asrwt>0</asrwt>
<pdfrwt beam="2">  1        4 0.47207984E-02 0.12497203E+03</pdfrwt>
<pdfrwt beam="1">  1       -4 0.19575979E-01 0.12497203E+03</pdfrwt>
<totfact> 0.97805030E+03</totfact>
</mgrwt>
</event>
<event>
 5    1  0.3196850E-002  0.1249963E+03  0.7818608E-02  0.1235075E+00
         -4   -1    0    0    0  501 -0.00000000000E+00  0.00000000000E+00  0.29582627461E+02  0.29609875844E+02  0.12700000000E+01 0.  1.
          4   -1    0    0  501    0  0.00000000000E+00 -0.00000000000E+00 -0.13194657287E+03  0.13195268467E+03  0.12700000000E+01 0.  1.
         25    2    1    2    0    0  0.00000000000E+00  0.00000000000E+00 -0.10236394540E+03  0.16156256051E+03  0.12499633451E+03 0.  0.
    9000005    1    3    3    0    0 -0.35745089855E+02 -0.33293687301E+02 -0.10155516115E+03  0.11269707991E+03  0.10000000000E+01 0.  0.
    9000005    1    3    3    0    0  0.35745089855E+02  0.33293687301E+02 -0.80878425319E+00  0.48865480606E+02  0.10000000000E+01 0.  0.
<mgrwt>
<rscale>  0 0.12499633E+03</rscale>
<asrwt>0</asrwt>
<pdfrwt beam="2">  1        4 0.20302039E-01 0.12499633E+03</pdfrwt>
<pdfrwt beam="1">  1       -4 0.45537397E-02 0.12499633E+03</pdfrwt>
<totfact> 0.97050373E+03</totfact>
</mgrwt>
</event>
<event>
 5    1  0.3196850E-002  0.1249997E+03  0.7818608E-02  0.1235070E+00
         -4   -1    0    0    0  501 -0.00000000000E+00  0.00000000000E+00  0.91528192112E+03  0.91528280221E+03  0.12700000000E+01 0. -1.
          4   -1    0    0  501    0  0.00000000000E+00 -0.00000000000E+00 -0.41724078870E+01  0.43614088980E+01  0.12700000000E+01 0. -1.
         25    2    1    2    0    0  0.00000000000E+00  0.00000000000E+00  0.91110951323E+03  0.91964421111E+03  0.12499971971E+03 0.  0.
    9000005    1    3    3    0    0  0.39924787202E+02  0.41505344327E+02  0.27706940740E+03  0.28299317794E+03  0.10000000000E+01 0.  0.
    9000005    1    3    3    0    0 -0.39924787202E+02 -0.41505344327E+02  0.63404010583E+03  0.63665103317E+03  0.10000000000E+01 0.  0.
<mgrwt>
<rscale>  0 0.12499972E+03</rscale>
<asrwt>0</asrwt>
<pdfrwt beam="2">  1        4 0.65651548E-03 0.12499972E+03</pdfrwt>
<pdfrwt beam="1">  1       -4 0.14082715E+00 0.12499972E+03</pdfrwt>
<totfact> 0.33419016E+03</totfact>
</mgrwt>
</event>
<event>
 5    1  0.3196850E-002  0.1250063E+03  0.7818608E-02  0.1235059E+00
         -4   -1    0    0    0  501 -0.00000000000E+00  0.00000000000E+00  0.18683279167E+03  0.18683710805E+03  0.12700000000E+01 0. -1.
          4   -1    0    0  501    0  0.00000000000E+00 -0.00000000000E+00 -0.20885980732E+02  0.20924557131E+02  0.12700000000E+01 0. -1.
         25    2    1    2    0    0  0.00000000000E+00  0.00000000000E+00  0.16594681094E+03  0.20776166518E+03  0.12500626167E+03 0.  0.
    9000005    1    3    3    0    0 -0.10781368709E+02 -0.35491396918E+02 -0.62031809419E+00  0.37111480177E+02  0.10000000000E+01 0.  0.
    9000005    1    3    3    0    0  0.10781368709E+02  0.35491396918E+02  0.16656712903E+03  0.17065018500E+03  0.10000000000E+01 0.  0.
<mgrwt>
<rscale>  0 0.12500626E+03</rscale>
<asrwt>0</asrwt>
<pdfrwt beam="2">  1        4 0.32165273E-02 0.12500626E+03</pdfrwt>
<pdfrwt beam="1">  1       -4 0.28746806E-01 0.12500626E+03</pdfrwt>
<totfact> 0.88830301E+03</totfact>
</mgrwt>
</event>
<event>
 5    1  0.3196850E-002  0.1249989E+03  0.7818608E-02  0.1235071E+00
          4   -1    0    0  501    0  0.00000000000E+00  0.00000000000E+00  0.26927872663E+03  0.26928172147E+03  0.12700000000E+01 0. -1.
         -4   -1    0    0    0  501 -0.00000000000E+00 -0.00000000000E+00 -0.14475213841E+02  0.14530819514E+02  0.12700000000E+01 0. -1.
         25    2    1    2    0    0  0.00000000000E+00  0.00000000000E+00  0.25480351279E+03  0.28381254098E+03  0.12499891315E+03 0.  0.
    9000005    1    3    3    0    0  0.11002550928E+02  0.57806926741E+02  0.79640614348E+02  0.99026887055E+02  0.10000000000E+01 0.  0.
    9000005    1    3    3    0    0 -0.11002550928E+02 -0.57806926741E+02  0.17516289844E+03  0.18478565393E+03  0.10000000000E+01 0.  0.
<mgrwt>
<rscale>  0 0.12499891E+03</rscale>
<asrwt>0</asrwt>
<pdfrwt beam="1">  1        4 0.41432002E-01 0.12499891E+03</pdfrwt>
<pdfrwt beam="2">  1       -4 0.22314638E-02 0.12499891E+03</pdfrwt>
<totfact> 0.77677167E+03</totfact>
</mgrwt>
</event>
<event>
 5    1  0.3196850E-002  0.1250018E+03  0.7818608E-02  0.1235067E+00
          4   -1    0    0  501    0  0.00000000000E+00  0.00000000000E+00  0.10367267319E+02  0.10444765754E+02  0.12700000000E+01 0. -1.
         -4   -1    0    0    0  501 -0.00000000000E+00 -0.00000000000E+00 -0.37531583144E+03  0.37531798016E+03  0.12700000000E+01 0. -1.
         25    2    1    2    0    0  0.00000000000E+00  0.00000000000E+00 -0.36494856412E+03  0.38576274591E+03  0.12500176670E+03 0.  0.
    9000005    1    3    3    0    0 -0.34339798312E+02  0.51162054651E+02 -0.21463196304E+03  0.22330395684E+03  0.10000000000E+01 0.  0.
    9000005    1    3    3    0    0  0.34339798312E+02 -0.51162054651E+02 -0.15031660108E+03  0.16245878907E+03  0.10000000000E+01 0.  0.
<mgrwt>
<rscale>  0 0.12500177E+03</rscale>
<asrwt>0</asrwt>
<pdfrwt beam="1">  1        4 0.16010912E-02 0.12500177E+03</pdfrwt>
<pdfrwt beam="2">  1       -4 0.57747013E-01 0.12500177E+03</pdfrwt>
<totfact> 0.65958879E+03</totfact>
</mgrwt>
</event>
<event>
 5    1  0.3196850E-002  0.1250018E+03  0.7818608E-02  0.1235066E+00
         -4   -1    0    0    0  501 -0.00000000000E+00  0.00000000000E+00  0.58492722318E+02  0.58506507879E+02  0.12700000000E+01 0.  1.
          4   -1    0    0  501    0  0.00000000000E+00 -0.00000000000E+00 -0.66756079572E+02  0.66768159026E+02  0.12700000000E+01 0.  1.
         25    2    1    2    0    0  0.00000000000E+00  0.00000000000E+00 -0.82633572531E+01  0.12527466691E+03  0.12500183637E+03 0.  0.
    9000005    1    3    3    0    0 -0.59089146225E+02  0.12609126535E+02 -0.20130465482E+02  0.63692644113E+02  0.10000000000E+01 0.  0.
    9000005    1    3    3    0    0  0.59089146225E+02 -0.12609126535E+02  0.11867108229E+02  0.61582022793E+02  0.10000000000E+01 0.  0.
<mgrwt>
<rscale>  0 0.12500184E+03</rscale>
<asrwt>0</asrwt>
<pdfrwt beam="2">  1        4 0.10272156E-01 0.12500184E+03</pdfrwt>
<pdfrwt beam="1">  1       -4 0.90008700E-02 0.12500184E+03</pdfrwt>
<totfact> 0.10446466E+04</totfact>
</mgrwt>
</event>
<event>
 5    1  0.3196850E-002  0.1249956E+03  0.7818608E-02  0.1235076E+00
          4   -1    0    0  501    0  0.00000000000E+00  0.00000000000E+00  0.22072598957E+02  0.22109105018E+02  0.12700000000E+01 0. -1.
         -4   -1    0    0    0  501 -0.00000000000E+00 -0.00000000000E+00 -0.17677542284E+03  0.17677998479E+03  0.12700000000E+01 0. -1.
         25    2    1    2    0    0  0.00000000000E+00  0.00000000000E+00 -0.15470282389E+03  0.19888908981E+03  0.12499562522E+03 0.  0.
    9000005    1    3    3    0    0  0.20980674134E+02 -0.28806954541E+02 -0.15902885074E+03  0.16297608624E+03  0.10000000000E+01 0.  0.
    9000005    1    3    3    0    0 -0.20980674134E+02  0.28806954541E+02  0.43260268534E+01  0.35913003570E+02  0.10000000000E+01 0.  0.
<mgrwt>
<rscale>  0 0.12499563E+03</rscale>
<asrwt>0</asrwt>
<pdfrwt beam="1">  1        4 0.33989436E-02 0.12499563E+03</pdfrwt>
<pdfrwt beam="2">  1       -4 0.27199377E-01 0.12499563E+03</pdfrwt>
<totfact> 0.90332053E+03</totfact>
</mgrwt>
</event>
<event>
 5    1  0.3196850E-002  0.1250005E+03  0.7818608E-02  0.1235069E+00
         -4   -1    0    0    0  501 -0.00000000000E+00  0.00000000000E+00  0.45682349250E+01  0.47414839797E+01  0.12700000000E+01 0. -1.
          4   -1    0    0  501    0  0.00000000000E+00 -0.00000000000E+00 -0.83900924626E+03  0.83901020745E+03  0.12700000000E+01 0. -1.
         25    2    1    2    0    0  0.00000000000E+00  0.00000000000E+00 -0.83444101133E+03  0.84375169143E+03  0.12500046159E+03 0.  0.
    9000005    1    3    3    0    0  0.57423741247E+02  0.17567668032E+02 -0.30046914860E+03  0.30641282330E+03  0.10000000000E+01 0.  0.
    9000005    1    3    3    0    0 -0.57423741247E+02 -0.17567668032E+02 -0.53397186273E+03  0.53733886813E+03  0.10000000000E+01 0.  0.
<mgrwt>
<rscale>  0 0.12500046E+03</rscale>
<asrwt>0</asrwt>
<pdfrwt beam="2">  1        4 0.12909163E+00 0.12500046E+03</pdfrwt>
<pdfrwt beam="1">  1       -4 0.71620683E-03 0.12500046E+03</pdfrwt>
<totfact> 0.36384048E+03</totfact>
</mgrwt>
</event>
<event>
 5    1  0.3196850E-002  0.1249977E+03  0.7818608E-02  0.1235073E+00
         -4   -1    0    0    0  501 -0.00000000000E+00  0.00000000000E+00  0.40560812523E+03  0.40561011347E+03  0.12700000000E+01 0.  1.
          4   -1    0    0  501    0  0.00000000000E+00 -0.00000000000E+00 -0.95863549443E+01  0.96701138110E+01  0.12700000000E+01 0.  1.
         25    2    1    2    0    0  0.00000000000E+00  0.00000000000E+00  0.39602177028E+03  0.41528022728E+03  0.12499769851E+03 0.  0.
    9000005    1    3    3    0    0 -0.22280674943E+02 -0.18482441723E+01  0.41391567257E+01  0.22759110282E+02  0.10000000000E+01 0.  0.
    9000005    1    3    3    0    0  0.22280674943E+02  0.18482441723E+01  0.39188261356E+03  0.39252111700E+03  0.10000000000E+01 0.  0.
<mgrwt>
<rscale>  0 0.12499770E+03</rscale>
<asrwt>0</asrwt>
<pdfrwt beam="2">  1        4 0.14814197E-02 0.12499770E+03</pdfrwt>
<pdfrwt beam="1">  1       -4 0.62407849E-01 0.12499770E+03</pdfrwt>
<totfact> 0.63096498E+03</totfact>
</mgrwt>
</event>
<event>
 5    1  0.3196850E-002  0.1250006E+03  0.7818608E-02  0.1235068E+00
         -4   -1    0    0    0  501 -0.00000000000E+00  0.00000000000E+00  0.99115546880E+02  0.99123683009E+02  0.12700000000E+01 0. -1.
          4   -1    0    0  501    0  0.00000000000E+00 -0.00000000000E+00 -0.39391471385E+02  0.39411938774E+02  0.12700000000E+01 0. -1.
         25    2    1    2    0    0  0.00000000000E+00  0.00000000000E+00  0.59724075494E+02  0.13853562178E+03  0.12500061323E+03 0.  0.
    9000005    1    3    3    0    0  0.22127188514E+02 -0.19309921834E+02  0.90996516895E+02  0.95623488954E+02  0.10000000000E+01 0.  0.
    9000005    1    3    3    0    0 -0.22127188514E+02  0.19309921834E+02 -0.31272441400E+02  0.42912132829E+02  0.10000000000E+01 0.  0.
<mgrwt>
<rscale>  0 0.12500061E+03</rscale>
<asrwt>0</asrwt>
<pdfrwt beam="2">  1        4 0.60624267E-02 0.12500061E+03</pdfrwt>
<pdfrwt beam="1">  1       -4 0.15250746E-01 0.12500061E+03</pdfrwt>
<totfact> 0.10163886E+04</totfact>
</mgrwt>
</event>
<event>
 5    1  0.3196850E-002  0.1250057E+03  0.7818608E-02  0.1235060E+00
          4   -1    0    0  501    0  0.00000000000E+00  0.00000000000E+00  0.56218934590E+03  0.56219078038E+03  0.12700000000E+01 0.  1.
         -4   -1    0    0    0  501 -0.00000000000E+00 -0.00000000000E+00 -0.68894349029E+01  0.70055130634E+01  0.12700000000E+01 0.  1.
         25    2    1    2    0    0  0.00000000000E+00  0.00000000000E+00  0.55529991100E+03  0.56919629345E+03  0.12500571713E+03 0.  0.
    9000005    1    3    3    0    0 -0.41407710380E+02  0.16591861264E+01  0.49065076138E+03  0.49239874190E+03  0.10000000000E+01 0.  0.
    9000005    1    3    3    0    0  0.41407710380E+02 -0.16591861264E+01  0.64649149621E+02  0.76797551551E+02  0.10000000000E+01 0.  0.
<mgrwt>
<rscale>  0 0.12500572E+03</rscale>
<asrwt>0</asrwt>
<pdfrwt beam="1">  1        4 0.86499709E-01 0.12500572E+03</pdfrwt>
<pdfrwt beam="2">  1       -4 0.10689525E-02 0.12500572E+03</pdfrwt>
<totfact> 0.50865224E+03</totfact>
</mgrwt>
</event>
<event>
 5    1  0.3196850E-002  0.1250184E+03  0.7818608E-02  0.1235041E+00
          4   -1    0    0  501    0  0.00000000000E+00  0.00000000000E+00  0.25962337260E+03  0.25962647882E+03  0.12700000000E+01 0. -1.
         -4   -1    0    0    0  501 -0.00000000000E+00 -0.00000000000E+00 -0.15020270029E+02  0.15073865190E+02  0.12700000000E+01 0. -1.
         25    2    1    2    0    0  0.00000000000E+00  0.00000000000E+00  0.24460310258E+03  0.27470034401E+03  0.12501840348E+03 0.  0.
    9000005    1    3    3    0    0 -0.49020271551E+02 -0.10826383763E+02  0.40493014698E+02  0.64504897858E+02  0.10000000000E+01 0.  0.
    9000005    1    3    3    0    0  0.49020271551E+02  0.10826383763E+02  0.20411008788E+03  0.21019544615E+03  0.10000000000E+01 0.  0.
<mgrwt>
<rscale>  0 0.12501840E+03</rscale>
<asrwt>0</asrwt>
<pdfrwt beam="1">  1        4 0.39946419E-01 0.12501840E+03</pdfrwt>
<pdfrwt beam="2">  1       -4 0.23151724E-02 0.12501840E+03</pdfrwt>
<totfact> 0.78853815E+03</totfact>
</mgrwt>
</event>
<event>
 5    1  0.3196850E-002  0.1249971E+03  0.7818608E-02  0.1235074E+00
         -4   -1    0    0    0  501 -0.00000000000E+00  0.00000000000E+00  0.13056465165E+03  0.13057082813E+03  0.12700000000E+01 0.  1.
          4   -1    0    0  501    0  0.00000000000E+00 -0.00000000000E+00 -0.29896355938E+02  0.29923318639E+02  0.12700000000E+01 0.  1.
         25    2    1    2    0    0  0.00000000000E+00  0.00000000000E+00  0.10066829571E+03  0.16049414677E+03  0.12499706151E+03 0.  0.
    9000005    1    3    3    0    0  0.37703705677E+02  0.39010725666E+02  0.10516993589E+02  0.55272174672E+02  0.10000000000E+01 0.  0.
    9000005    1    3    3    0    0 -0.37703705677E+02 -0.39010725666E+02  0.90151302120E+02  0.10522197210E+03  0.10000000000E+01 0.  0.
<mgrwt>
<rscale>  0 0.12499706E+03</rscale>
<asrwt>0</asrwt>
<pdfrwt beam="2">  1        4 0.46019886E-02 0.12499706E+03</pdfrwt>
<pdfrwt beam="1">  1       -4 0.20089419E-01 0.12499706E+03</pdfrwt>
<totfact> 0.97254025E+03</totfact>
</mgrwt>
</event>
<event>
 5    1  0.3196850E-002  0.1250080E+03  0.7818608E-02  0.1235057E+00
         -4   -1    0    0    0  501 -0.00000000000E+00  0.00000000000E+00  0.87442355373E+02  0.87451577534E+02  0.12700000000E+01 0.  1.
          4   -1    0    0  501    0  0.00000000000E+00 -0.00000000000E+00 -0.44657381579E+02  0.44675436534E+02  0.12700000000E+01 0.  1.
         25    2    1    2    0    0  0.00000000000E+00  0.00000000000E+00  0.42784973795E+02  0.13212701407E+03  0.12500797520E+03 0.  0.
    9000005    1    3    3    0    0  0.29027131589E+02  0.42058856176E+02 -0.16631625036E+02  0.53750653042E+02  0.10000000000E+01 0.  0.
    9000005    1    3    3    0    0 -0.29027131589E+02 -0.42058856176E+02  0.59416598830E+02  0.78376361026E+02  0.10000000000E+01 0.  0.
<mgrwt>
<rscale>  0 0.12500798E+03</rscale>
<asrwt>0</asrwt>
<pdfrwt beam="2">  1        4 0.68724648E-02 0.12500798E+03</pdfrwt>
<pdfrwt beam="1">  1       -4 0.13454768E-01 0.12500798E+03</pdfrwt>
<totfact> 0.10297135E+04</totfact>
</mgrwt>
</event>
<event>
 5    1  0.3196850E-002  0.1249997E+03  0.7818608E-02  0.1235070E+00
         -4   -1    0    0    0  501 -0.00000000000E+00  0.00000000000E+00  0.82734084765E+03  0.82734182240E+03  0.12700000000E+01 0.  1.
          4   -1    0    0  501    0  0.00000000000E+00 -0.00000000000E+00 -0.46350306563E+01  0.48058723646E+01  0.12700000000E+01 0.  1.
         25    2    1    2    0    0  0.00000000000E+00  0.00000000000E+00  0.82270581700E+03  0.83214769477E+03  0.12499969834E+03 0.  0.
    9000005    1    3    3    0    0  0.38354967931E+02 -0.47491472495E+02  0.32236342556E+03  0.32809407441E+03  0.10000000000E+01 0.  0.
    9000005    1    3    3    0    0 -0.38354967931E+02  0.47491472495E+02  0.50034239144E+03  0.50405362036E+03  0.10000000000E+01 0.  0.
<mgrwt>
<rscale>  0 0.12499970E+03</rscale>
<asrwt>0</asrwt>
<pdfrwt beam="2">  1        4 0.72629849E-03 0.12499970E+03</pdfrwt>
<pdfrwt beam="1">  1       -4 0.12729639E+00 0.12499970E+03</pdfrwt>
<totfact> 0.36869448E+03</totfact>
</mgrwt>
</event>
<event>
 5    1  0.3196850E-002  0.1249992E+03  0.7818608E-02  0.1235071E+00
         -4   -1    0    0    0  501 -0.00000000000E+00  0.00000000000E+00  0.58509783457E+01  0.59872236973E+01  0.12700000000E+01 0.  1.
          4   -1    0    0  501    0  0.00000000000E+00 -0.00000000000E+00 -0.65979415093E+03  0.65979537321E+03  0.12700000000E+01 0.  1.
         25    2    1    2    0    0  0.00000000000E+00  0.00000000000E+00 -0.65394317259E+03  0.66578259690E+03  0.12499917347E+03 0.  0.
    9000005    1    3    3    0    0 -0.58311752313E+02  0.14661427773E+01 -0.44640281023E+03  0.45019871059E+03  0.10000000000E+01 0.  0.
    9000005    1    3    3    0    0  0.58311752313E+02 -0.14661427773E+01 -0.20754036235E+03  0.21558388631E+03  0.10000000000E+01 0.  0.
<mgrwt>
<rscale>  0 0.12499917E+03</rscale>
<asrwt>0</asrwt>
<pdfrwt beam="2">  1        4 0.10151731E+00 0.12499917E+03</pdfrwt>
<pdfrwt beam="1">  1       -4 0.91072547E-03 0.12499917E+03</pdfrwt>
<totfact> 0.44956353E+03</totfact>
</mgrwt>
</event>
<event>
 5    1  0.3196850E-002  0.1249990E+03  0.7818608E-02  0.1235071E+00
         -4   -1    0    0    0  501 -0.00000000000E+00  0.00000000000E+00  0.69847989348E+03  0.69848104806E+03  0.12700000000E+01 0. -1.
          4   -1    0    0  501    0  0.00000000000E+00 -0.00000000000E+00 -0.55191356568E+01  0.56633698800E+01  0.12700000000E+01 0. -1.
         25    2    1    2    0    0  0.00000000000E+00  0.00000000000E+00  0.69296075782E+03  0.70414441794E+03  0.12499899772E+03 0.  0.
    9000005    1    3    3    0    0 -0.28272818149E+02 -0.53588075964E+02  0.43267998531E+03  0.43690273954E+03  0.10000000000E+01 0.  0.
    9000005    1    3    3    0    0  0.28272818149E+02  0.53588075964E+02  0.26028077251E+03  0.26724167839E+03  0.10000000000E+01 0.  0.
<mgrwt>
<rscale>  0 0.12499900E+03</rscale>
<asrwt>0</asrwt>
<pdfrwt beam="2">  1        4 0.86028183E-03 0.12499900E+03</pdfrwt>
<pdfrwt beam="1">  1       -4 0.10746959E+00 0.12499900E+03</pdfrwt>
<totfact> 0.42869768E+03</totfact>
</mgrwt>
</event>
<event>
 5    1  0.3196850E-002  0.1250001E+03  0.7818608E-02  0.1235069E+00
         -4   -1    0    0    0  501 -0.00000000000E+00  0.00000000000E+00  0.55600324385E+02  0.55614826905E+02  0.12700000000E+01 0. -1.
          4   -1    0    0  501    0  0.00000000000E+00 -0.00000000000E+00 -0.70226619124E+02  0.70238101722E+02  0.12700000000E+01 0. -1.
         25    2    1    2    0    0  0.00000000000E+00  0.00000000000E+00 -0.14626294739E+02  0.12585292863E+03  0.12500012459E+03 0.  0.
    9000005    1    3    3    0    0 -0.32504074725E+01 -0.58120669515E+02  0.15572535697E+02  0.60266750714E+02  0.10000000000E+01 0.  0.
    9000005    1    3    3    0    0  0.32504074725E+01  0.58120669515E+02 -0.30198830436E+02  0.65586177913E+02  0.10000000000E+01 0.  0.
<mgrwt>
<rscale>  0 0.12500012E+03</rscale>
<asrwt>0</asrwt>
<pdfrwt beam="2">  1        4 0.10806094E-01 0.12500012E+03</pdfrwt>
<pdfrwt beam="1">  1       -4 0.85558949E-02 0.12500012E+03</pdfrwt>
<totfact> 0.10434153E+04</totfact>
</mgrwt>
</event>
<event>
 5    1  0.3196850E-002  0.1250066E+03  0.7818608E-02  0.1235059E+00
         -4   -1    0    0    0  501 -0.00000000000E+00  0.00000000000E+00  0.45852129532E+01  0.47578438211E+01  0.12700000000E+01 0. -1.
          4   -1    0    0  501    0  0.00000000000E+00 -0.00000000000E+00 -0.83609763196E+03  0.83609859650E+03  0.12700000000E+01 0. -1.
         25    2    1    2    0    0  0.00000000000E+00  0.00000000000E+00 -0.83151241901E+03  0.84085644032E+03  0.12500660089E+03 0.  0.
    9000005    1    3    3    0    0 -0.54426025334E+02 -0.17774131847E+01 -0.20949160983E+03  0.21645573686E+03  0.10000000000E+01 0.  0.
    9000005    1    3    3    0    0  0.54426025334E+02  0.17774131847E+01 -0.62202080918E+03  0.62440070347E+03  0.10000000000E+01 0.  0.
<mgrwt>
<rscale>  0 0.12500660E+03</rscale>
<asrwt>0</asrwt>
<pdfrwt beam="2">  1        4 0.12864364E+00 0.12500660E+03</pdfrwt>
<pdfrwt beam="1">  1       -4 0.71877153E-03 0.12500660E+03</pdfrwt>
<totfact> 0.36499206E+03</totfact>
</mgrwt>
</event>
